 Entering Gaussian System, Link 0=g09
 Input=B3LYP6-31Gxx.Frag_44.gjf
 Output=B3LYP6-31Gxx.Frag_44.log
 Initial command:
 /vol2/users/liuj201281/hxd_yi/bin/Gaussian/g09/l1.exe "/vol2/users/liuj201281/HOFBenchmark/IsodesmicSplit/Sample60/Ring26/Running/Gau-246314.inp" -scrdir="/vol2/users/liuj201281/HOFBenchmark/IsodesmicSplit/Sample60/Ring26/Running/"
 Entering Link 1 = /vol2/users/liuj201281/hxd_yi/bin/Gaussian/g09/l1.exe PID=    246315.
  
 Copyright (c) 1988,1990,1992,1993,1995,1998,2003,2009,2013,
            Gaussian, Inc.  All Rights Reserved.
  
 This is part of the Gaussian(R) 09 program.  It is based on
 the Gaussian(R) 03 system (copyright 2003, Gaussian, Inc.),
 the Gaussian(R) 98 system (copyright 1998, Gaussian, Inc.),
 the Gaussian(R) 94 system (copyright 1995, Gaussian, Inc.),
 the Gaussian 92(TM) system (copyright 1992, Gaussian, Inc.),
 the Gaussian 90(TM) system (copyright 1990, Gaussian, Inc.),
 the Gaussian 88(TM) system (copyright 1988, Gaussian, Inc.),
 the Gaussian 86(TM) system (copyright 1986, Carnegie Mellon
 University), and the Gaussian 82(TM) system (copyright 1983,
 Carnegie Mellon University). Gaussian is a federally registered
 trademark of Gaussian, Inc.
  
 This software contains proprietary and confidential information,
 including trade secrets, belonging to Gaussian, Inc.
  
 This software is provided under written license and may be
 used, copied, transmitted, or stored only in accord with that
 written license.
  
 The following legend is applicable only to US Government
 contracts under FAR:
  
                    RESTRICTED RIGHTS LEGEND
  
 Use, reproduction and disclosure by the US Government is
 subject to restrictions as set forth in subparagraphs (a)
 and (c) of the Commercial Computer Software - Restricted
 Rights clause in FAR 52.227-19.
  
 Gaussian, Inc.
 340 Quinnipiac St., Bldg. 40, Wallingford CT 06492
  
  
 ---------------------------------------------------------------
 Warning -- This program may not be used in any manner that
 competes with the business of Gaussian, Inc. or will provide
 assistance to any competitor of Gaussian, Inc.  The licensee
 of this program is prohibited from giving any competitor of
 Gaussian, Inc. access to this program.  By using this program,
 the user acknowledges that Gaussian, Inc. is engaged in the
 business of creating and licensing software in the field of
 computational chemistry and represents and warrants to the
 licensee that it is not a competitor of Gaussian, Inc. and that
 it will not use this program in any manner prohibited above.
 ---------------------------------------------------------------
  

 Cite this work as:
 Gaussian 09, Revision D.01,
 M. J. Frisch, G. W. Trucks, H. B. Schlegel, G. E. Scuseria, 
 M. A. Robb, J. R. Cheeseman, G. Scalmani, V. Barone, B. Mennucci, 
 G. A. Petersson, H. Nakatsuji, M. Caricato, X. Li, H. P. Hratchian, 
 A. F. Izmaylov, J. Bloino, G. Zheng, J. L. Sonnenberg, M. Hada, 
 M. Ehara, K. Toyota, R. Fukuda, J. Hasegawa, M. Ishida, T. Nakajima, 
 Y. Honda, O. Kitao, H. Nakai, T. Vreven, J. A. Montgomery, Jr., 
 J. E. Peralta, F. Ogliaro, M. Bearpark, J. J. Heyd, E. Brothers, 
 K. N. Kudin, V. N. Staroverov, T. Keith, R. Kobayashi, J. Normand, 
 K. Raghavachari, A. Rendell, J. C. Burant, S. S. Iyengar, J. Tomasi, 
 M. Cossi, N. Rega, J. M. Millam, M. Klene, J. E. Knox, J. B. Cross, 
 V. Bakken, C. Adamo, J. Jaramillo, R. Gomperts, R. E. Stratmann, 
 O. Yazyev, A. J. Austin, R. Cammi, C. Pomelli, J. W. Ochterski, 
 R. L. Martin, K. Morokuma, V. G. Zakrzewski, G. A. Voth, 
 P. Salvador, J. J. Dannenberg, S. Dapprich, A. D. Daniels, 
 O. Farkas, J. B. Foresman, J. V. Ortiz, J. Cioslowski, 
 and D. J. Fox, Gaussian, Inc., Wallingford CT, 2013.
 
 ******************************************
 Gaussian 09:  ES64L-G09RevD.01 24-Apr-2013
                22-Jul-2021 
 ******************************************
 %nproc=128
 Will use up to  128 processors via shared memory.
 %mem=128GB
 -------------------------
 #P OPT Freq B3LYP/6-31G**
 -------------------------
 1/14=-1,18=20,19=15,26=3,38=1/1,3;
 2/9=110,12=2,17=6,18=5,40=1/2;
 3/5=1,6=6,7=101,11=2,16=1,25=1,30=1,71=1,74=-5/1,2,3;
 4//1;
 5/5=2,38=5/2;
 6/7=2,8=2,9=2,10=2,28=1/1;
 7//1,2,3,16;
 1/14=-1,18=20,19=15,26=3/3(2);
 2/9=110/2;
 99//99;
 2/9=110/2;
 3/5=1,6=6,7=101,11=2,16=1,25=1,30=1,71=1,74=-5/1,2,3;
 4/5=5,16=3,69=1/1;
 5/5=2,38=5/2;
 7//1,2,3,16;
 1/14=-1,18=20,19=15,26=3/3(-5);
 2/9=110/2;
 6/7=2,8=2,9=2,10=2,19=2,28=1/1;
 99/9=1/99;
 Leave Link    1 at Thu Jul 22 19:06:06 2021, MaxMem= 17179869184 cpu:        10.6
 (Enter /vol2/users/liuj201281/hxd_yi/bin/Gaussian/g09/l101.exe)
 -------
 Frag_44
 -------
 Symbolic Z-matrix:
 Charge =  0 Multiplicity = 1
 C                     0.9771   -0.754     1.2681 
 C                     0.5651    0.0047    0. 
 C                     1.0806    1.4411   -0.0001 
 C                     0.9772   -0.7543   -1.2679 
 N                    -0.9863    0.0284    0. 
 O                    -1.5536   -1.0612    0. 
 O                    -1.5576    1.1137    0. 
 H                     0.5478   -1.7573    1.2751 
 H                     0.6499   -0.2239    2.1676 
 H                     2.0674   -0.836     1.2992 
 H                     0.7442    1.9864   -0.8841 
 H                     2.1747    1.4187   -0.0001 
 H                     0.7442    1.9866    0.8837 
 H                     0.5479   -1.7576   -1.2746 
 H                     2.0675   -0.8362   -1.2989 
 H                     0.65     -0.2244   -2.1675 
 
 NAtoms=     16 NQM=       16 NQMF=       0 NMMI=      0 NMMIF=      0
                NMic=       0 NMicF=      0.
                    Isotopes and Nuclear Properties:
 (Nuclear quadrupole moments (NQMom) in fm**2, nuclear magnetic moments (NMagM)
  in nuclear magnetons)

  Atom         1           2           3           4           5           6           7           8           9          10
 IAtWgt=          12          12          12          12          14          16          16           1           1           1
 AtmWgt=  12.0000000  12.0000000  12.0000000  12.0000000  14.0030740  15.9949146  15.9949146   1.0078250   1.0078250   1.0078250
 NucSpn=           0           0           0           0           2           0           0           1           1           1
 AtZEff=   0.0000000   0.0000000   0.0000000   0.0000000   0.0000000   0.0000000   0.0000000   0.0000000   0.0000000   0.0000000
 NQMom=    0.0000000   0.0000000   0.0000000   0.0000000   2.0440000   0.0000000   0.0000000   0.0000000   0.0000000   0.0000000
 NMagM=    0.0000000   0.0000000   0.0000000   0.0000000   0.4037610   0.0000000   0.0000000   2.7928460   2.7928460   2.7928460
 AtZNuc=   6.0000000   6.0000000   6.0000000   6.0000000   7.0000000   8.0000000   8.0000000   1.0000000   1.0000000   1.0000000

  Atom        11          12          13          14          15          16
 IAtWgt=           1           1           1           1           1           1
 AtmWgt=   1.0078250   1.0078250   1.0078250   1.0078250   1.0078250   1.0078250
 NucSpn=           1           1           1           1           1           1
 AtZEff=   0.0000000   0.0000000   0.0000000   0.0000000   0.0000000   0.0000000
 NQMom=    0.0000000   0.0000000   0.0000000   0.0000000   0.0000000   0.0000000
 NMagM=    2.7928460   2.7928460   2.7928460   2.7928460   2.7928460   2.7928460
 AtZNuc=   1.0000000   1.0000000   1.0000000   1.0000000   1.0000000   1.0000000
 Leave Link  101 at Thu Jul 22 19:06:07 2021, MaxMem= 17179869184 cpu:        54.8
 (Enter /vol2/users/liuj201281/hxd_yi/bin/Gaussian/g09/l103.exe)

 GradGradGradGradGradGradGradGradGradGradGradGradGradGradGradGradGradGrad
 Berny optimization.
 Initialization pass.
                           ----------------------------
                           !    Initial Parameters    !
                           ! (Angstroms and Degrees)  !
 --------------------------                            --------------------------
 ! Name  Definition              Value          Derivative Info.                !
 --------------------------------------------------------------------------------
 ! R1    R(1,2)                  1.5341         estimate D2E/DX2                !
 ! R2    R(1,8)                  1.0913         estimate D2E/DX2                !
 ! R3    R(1,9)                  1.0942         estimate D2E/DX2                !
 ! R4    R(1,10)                 1.0938         estimate D2E/DX2                !
 ! R5    R(2,3)                  1.5261         estimate D2E/DX2                !
 ! R6    R(2,4)                  1.5341         estimate D2E/DX2                !
 ! R7    R(2,5)                  1.5516         estimate D2E/DX2                !
 ! R8    R(3,11)                 1.0918         estimate D2E/DX2                !
 ! R9    R(3,12)                 1.0943         estimate D2E/DX2                !
 ! R10   R(3,13)                 1.0917         estimate D2E/DX2                !
 ! R11   R(4,14)                 1.0913         estimate D2E/DX2                !
 ! R12   R(4,15)                 1.0938         estimate D2E/DX2                !
 ! R13   R(4,16)                 1.0941         estimate D2E/DX2                !
 ! R14   R(5,6)                  1.2284         estimate D2E/DX2                !
 ! R15   R(5,7)                  1.2265         estimate D2E/DX2                !
 ! A1    A(2,1,8)              110.7523         estimate D2E/DX2                !
 ! A2    A(2,1,9)              111.0779         estimate D2E/DX2                !
 ! A3    A(2,1,10)             109.1641         estimate D2E/DX2                !
 ! A4    A(8,1,9)              108.8143         estimate D2E/DX2                !
 ! A5    A(8,1,10)             108.8451         estimate D2E/DX2                !
 ! A6    A(9,1,10)             108.1212         estimate D2E/DX2                !
 ! A7    A(1,2,3)              112.0136         estimate D2E/DX2                !
 ! A8    A(1,2,4)              111.4905         estimate D2E/DX2                !
 ! A9    A(1,2,5)              106.0267         estimate D2E/DX2                !
 ! A10   A(3,2,4)              112.0167         estimate D2E/DX2                !
 ! A11   A(3,2,5)              108.867          estimate D2E/DX2                !
 ! A12   A(4,2,5)              106.0307         estimate D2E/DX2                !
 ! A13   A(2,3,11)             111.4739         estimate D2E/DX2                !
 ! A14   A(2,3,12)             108.5693         estimate D2E/DX2                !
 ! A15   A(2,3,13)             111.4793         estimate D2E/DX2                !
 ! A16   A(11,3,12)            108.559          estimate D2E/DX2                !
 ! A17   A(11,3,13)            108.118          estimate D2E/DX2                !
 ! A18   A(12,3,13)            108.5603         estimate D2E/DX2                !
 ! A19   A(2,4,14)             110.7477         estimate D2E/DX2                !
 ! A20   A(2,4,15)             109.1615         estimate D2E/DX2                !
 ! A21   A(2,4,16)             111.0747         estimate D2E/DX2                !
 ! A22   A(14,4,15)            108.8509         estimate D2E/DX2                !
 ! A23   A(14,4,16)            108.8181         estimate D2E/DX2                !
 ! A24   A(15,4,16)            108.1225         estimate D2E/DX2                !
 ! A25   A(2,5,6)              116.6285         estimate D2E/DX2                !
 ! A26   A(2,5,7)              118.6375         estimate D2E/DX2                !
 ! A27   A(6,5,7)              124.734          estimate D2E/DX2                !
 ! D1    D(8,1,2,3)            176.5599         estimate D2E/DX2                !
 ! D2    D(8,1,2,4)            -57.0165         estimate D2E/DX2                !
 ! D3    D(8,1,2,5)             57.937          estimate D2E/DX2                !
 ! D4    D(9,1,2,3)             55.519          estimate D2E/DX2                !
 ! D5    D(9,1,2,4)           -178.0574         estimate D2E/DX2                !
 ! D6    D(9,1,2,5)            -63.1039         estimate D2E/DX2                !
 ! D7    D(10,1,2,3)           -63.6138         estimate D2E/DX2                !
 ! D8    D(10,1,2,4)            62.8098         estimate D2E/DX2                !
 ! D9    D(10,1,2,5)           177.7633         estimate D2E/DX2                !
 ! D10   D(1,2,3,11)          -177.3924         estimate D2E/DX2                !
 ! D11   D(1,2,3,12)            63.0722         estimate D2E/DX2                !
 ! D12   D(1,2,3,13)           -56.4681         estimate D2E/DX2                !
 ! D13   D(4,2,3,11)            56.47           estimate D2E/DX2                !
 ! D14   D(4,2,3,12)           -63.0654         estimate D2E/DX2                !
 ! D15   D(4,2,3,13)           177.3943         estimate D2E/DX2                !
 ! D16   D(5,2,3,11)           -60.4646         estimate D2E/DX2                !
 ! D17   D(5,2,3,12)          -180.0            estimate D2E/DX2                !
 ! D18   D(5,2,3,13)            60.4598         estimate D2E/DX2                !
 ! D19   D(1,2,4,14)            57.0139         estimate D2E/DX2                !
 ! D20   D(1,2,4,15)           -62.815          estimate D2E/DX2                !
 ! D21   D(1,2,4,16)           178.0542         estimate D2E/DX2                !
 ! D22   D(3,2,4,14)          -176.5642         estimate D2E/DX2                !
 ! D23   D(3,2,4,15)            63.6069         estimate D2E/DX2                !
 ! D24   D(3,2,4,16)           -55.5239         estimate D2E/DX2                !
 ! D25   D(5,2,4,14)           -57.9371         estimate D2E/DX2                !
 ! D26   D(5,2,4,15)          -177.7661         estimate D2E/DX2                !
 ! D27   D(5,2,4,16)            63.1032         estimate D2E/DX2                !
 ! D28   D(1,2,5,6)            -59.3209         estimate D2E/DX2                !
 ! D29   D(1,2,5,7)            120.6791         estimate D2E/DX2                !
 ! D30   D(3,2,5,6)            179.996          estimate D2E/DX2                !
 ! D31   D(3,2,5,7)             -0.004          estimate D2E/DX2                !
 ! D32   D(4,2,5,6)             59.3069         estimate D2E/DX2                !
 ! D33   D(4,2,5,7)           -120.6931         estimate D2E/DX2                !
 --------------------------------------------------------------------------------
 Trust Radius=3.00D-01 FncErr=1.00D-07 GrdErr=1.00D-06
 Number of steps in this run=     85 maximum allowed number of steps=    100.
 GradGradGradGradGradGradGradGradGradGradGradGradGradGradGradGradGradGrad

 Leave Link  103 at Thu Jul 22 19:06:07 2021, MaxMem= 17179869184 cpu:         1.8
 (Enter /vol2/users/liuj201281/hxd_yi/bin/Gaussian/g09/l202.exe)
                          Input orientation:                          
 ---------------------------------------------------------------------
 Center     Atomic      Atomic             Coordinates (Angstroms)
 Number     Number       Type             X           Y           Z
 ---------------------------------------------------------------------
      1          6           0        0.977100   -0.754000    1.268100
      2          6           0        0.565100    0.004700    0.000000
      3          6           0        1.080600    1.441100   -0.000100
      4          6           0        0.977200   -0.754300   -1.267900
      5          7           0       -0.986300    0.028400    0.000000
      6          8           0       -1.553600   -1.061200    0.000000
      7          8           0       -1.557600    1.113700    0.000000
      8          1           0        0.547800   -1.757300    1.275100
      9          1           0        0.649900   -0.223900    2.167600
     10          1           0        2.067400   -0.836000    1.299200
     11          1           0        0.744200    1.986400   -0.884100
     12          1           0        2.174700    1.418700   -0.000100
     13          1           0        0.744200    1.986600    0.883700
     14          1           0        0.547900   -1.757600   -1.274600
     15          1           0        2.067500   -0.836200   -1.298900
     16          1           0        0.650000   -0.224400   -2.167500
 ---------------------------------------------------------------------
                    Distance matrix (angstroms):
                    1          2          3          4          5
     1  C    0.000000
     2  C    1.534095   0.000000
     3  C    2.537224   1.526101   0.000000
     4  C    2.536000   1.534105   2.537280   0.000000
     5  N    2.464785   1.551581   2.503557   2.464857   0.000000
     6  O    2.847260   2.371715   3.633251   2.847228   1.228437
     7  O    3.394272   2.394940   2.658438   3.394437   1.226483
     8  H    1.091310   2.175046   3.484218   2.767172   2.677325
     9  H    1.094151   2.181270   2.767065   3.491577   2.727507
    10  H    1.093821   2.156757   2.801275   2.790200   3.429314
    11  H    3.492277   2.177348   1.091775   2.777234   2.758628
    12  H    2.786252   2.142477   1.094329   2.786261   3.453238
    13  H    2.777210   2.177368   1.091713   3.492306   2.758642
    14  H    2.767083   2.174995   3.484222   1.091309   2.677344
    15  H    2.790200   2.156724   2.801241   1.093811   3.429339
    16  H    3.491535   2.181227   2.767116   1.094136   2.727534
                    6          7          8          9         10
     6  O    0.000000
     7  O    2.174904   0.000000
     8  H    2.554666   3.781697   0.000000
     9  H    3.202339   3.370567   1.777160   0.000000
    10  H    3.853606   4.316234   1.777233   1.771466   0.000000
    11  H    3.917829   2.615630   4.326200   3.769243   3.805732
    12  H    4.477737   3.744741   3.789448   3.118024   2.604490
    13  H    3.917894   2.615562   3.769424   2.558047   3.144928
    14  H    2.554580   3.781812   2.549700   3.769798   3.127727
    15  H    3.853587   4.316318   3.127841   3.794881   2.598100
    16  H    3.202209   3.370766   3.769844   4.335100   3.794876
                   11         12         13         14         15
    11  H    0.000000
    12  H    1.774844   0.000000
    13  H    1.767800   1.774808   0.000000
    14  H    3.769424   3.789421   4.326179   0.000000
    15  H    3.144877   2.604409   3.805662   1.777288   0.000000
    16  H    2.558051   3.118030   3.769246   1.777188   1.771460
                   16
    16  H    0.000000
 Stoichiometry    C4H9NO2
 Framework group  C1[X(C4H9NO2)]
 Deg. of freedom    42
 Full point group                 C1      NOp   1
 Largest Abelian subgroup         C1      NOp   1
 Largest concise Abelian subgroup C1      NOp   1
                         Standard orientation:                         
 ---------------------------------------------------------------------
 Center     Atomic      Atomic             Coordinates (Angstroms)
 Number     Number       Type             X           Y           Z
 ---------------------------------------------------------------------
      1          6           0        0.977103   -0.754000    1.268082
      2          6           0        0.565102    0.004699   -0.000018
      3          6           0        1.080600    1.441100   -0.000118
      4          6           0        0.977203   -0.754300   -1.267918
      5          7           0       -0.986298    0.028397   -0.000018
      6          8           0       -1.553597   -1.061204   -0.000018
      7          8           0       -1.557600    1.113696   -0.000018
      8          1           0        0.547804   -1.757301    1.275082
      9          1           0        0.649902   -0.223901    2.167582
     10          1           0        2.067403   -0.835999    1.299182
     11          1           0        0.744199    1.986399   -0.884118
     12          1           0        2.174700    1.418701   -0.000118
     13          1           0        0.744199    1.986599    0.883682
     14          1           0        0.547904   -1.757601   -1.274618
     15          1           0        2.067503   -0.836199   -1.298918
     16          1           0        0.650002   -0.224401   -2.167518
 ---------------------------------------------------------------------
 Rotational constants (GHZ):      3.3588947      2.4886798      2.0977832
 Leave Link  202 at Thu Jul 22 19:06:07 2021, MaxMem= 17179869184 cpu:         1.9
 (Enter /vol2/users/liuj201281/hxd_yi/bin/Gaussian/g09/l301.exe)
 Standard basis: 6-31G(d,p) (6D, 7F)
 Ernie: Thresh=  0.10000D-02 Tol=  0.10000D-05 Strict=F.
 There are   150 symmetry adapted cartesian basis functions of A   symmetry.
 There are   150 symmetry adapted basis functions of A   symmetry.
   150 basis functions,   259 primitive gaussians,   150 cartesian basis functions
    28 alpha electrons       28 beta electrons
       nuclear repulsion energy       334.8062851431 Hartrees.
 IExCor=  402 DFT=T Ex+Corr=B3LYP ExCW=0 ScaHFX=  0.200000
 ScaDFX=  0.800000  0.720000  1.000000  0.810000 ScalE2=  1.000000  1.000000
 IRadAn=      0 IRanWt=     -1 IRanGd=            0 ICorTp=0 IEmpDi=  4
 NAtoms=   16 NActive=   16 NUniq=   16 SFac= 1.00D+00 NAtFMM=   60 NAOKFM=F Big=F
 Integral buffers will be    131072 words long.
 Raffenetti 2 integral format.
 Two-electron integral symmetry is turned on.
 Leave Link  301 at Thu Jul 22 19:06:07 2021, MaxMem= 17179869184 cpu:         6.0
 (Enter /vol2/users/liuj201281/hxd_yi/bin/Gaussian/g09/l302.exe)
 NPDir=0 NMtPBC=     1 NCelOv=     1 NCel=       1 NClECP=     1 NCelD=      1
         NCelK=      1 NCelE2=     1 NClLst=     1 CellRange=     0.0.
 One-electron integrals computed using PRISM.
 NBasis=   150 RedAO= T EigKep=  2.54D-03  NBF=   150
 NBsUse=   150 1.00D-06 EigRej= -1.00D+00 NBFU=   150
 Precomputing XC quadrature grid using
 IXCGrd= 4 IRadAn=           0 IRanWt=          -1 IRanGd=           0 AccXCQ= 0.00D+00.
 Generated NRdTot=       0 NPtTot=           0 NUsed=           0 NTot=          32
 NSgBfM=   150   150   150   150   150 MxSgAt=    16 MxSgA2=    16.
 Leave Link  302 at Thu Jul 22 19:06:07 2021, MaxMem= 17179869184 cpu:        47.3
 (Enter /vol2/users/liuj201281/hxd_yi/bin/Gaussian/g09/l303.exe)
 DipDrv:  MaxL=1.
 Leave Link  303 at Thu Jul 22 19:06:07 2021, MaxMem= 17179869184 cpu:         3.7
 (Enter /vol2/users/liuj201281/hxd_yi/bin/Gaussian/g09/l401.exe)
 ExpMin= 1.61D-01 ExpMax= 5.48D+03 ExpMxC= 8.25D+02 IAcc=1 IRadAn=         1 AccDes= 0.00D+00
 Harris functional with IExCor=  402 and IRadAn=       1 diagonalized for initial guess.
 HarFok:  IExCor=  402 AccDes= 0.00D+00 IRadAn=         1 IDoV= 1 UseB2=F ITyADJ=14
 ICtDFT=  3500011 ScaDFX=  1.000000  1.000000  1.000000  1.000000
 FoFCou: FMM=F IPFlag=           0 FMFlag=      100000 FMFlg1=           0
         NFxFlg=           0 DoJE=T BraDBF=F KetDBF=T FulRan=T
         wScrn=  0.000000 ICntrl=     500 IOpCl=  0 I1Cent=   200000004 NGrid=           0
         NMat0=    1 NMatS0=      1 NMatT0=    0 NMatD0=    1 NMtDS0=    0 NMtDT0=    0
 Petite list used in FoFCou.
 Harris En= -363.048064560115    
 JPrj=0 DoOrth=F DoCkMO=F.
 Leave Link  401 at Thu Jul 22 19:06:08 2021, MaxMem= 17179869184 cpu:        48.8
 (Enter /vol2/users/liuj201281/hxd_yi/bin/Gaussian/g09/l502.exe)
 Closed shell SCF:
 Using DIIS extrapolation, IDIIS=  1040.
 Integral symmetry usage will be decided dynamically.
 Keep R1 ints in memory in canonical form, NReq=65961262.
 IVT=      106387 IEndB=      106387 NGot= 17179869184 MDV= 17115629323
 LenX= 17115629323 LenY= 17115606382
 Requested convergence on RMS density matrix=1.00D-08 within 128 cycles.
 Requested convergence on MAX density matrix=1.00D-06.
 Requested convergence on             energy=1.00D-06.
 No special actions if energy rises.
 FoFCou: FMM=F IPFlag=           0 FMFlag=           0 FMFlg1=           0
         NFxFlg=           0 DoJE=F BraDBF=F KetDBF=F FulRan=T
         wScrn=  0.000000 ICntrl=     600 IOpCl=  0 I1Cent=           0 NGrid=           0
         NMat0=    1 NMatS0=  11325 NMatT0=    0 NMatD0=    1 NMtDS0=    0 NMtDT0=    0
 Symmetry not used in FoFCou.
 Integral accuracy reduced to 1.0D-05 until final iterations.

 Cycle   1  Pass 0  IDiag  1:
 E= -362.659896112949    
 DIIS: error= 4.67D-02 at cycle   1 NSaved=   1.
 NSaved= 1 IEnMin= 1 EnMin= -362.659896112949     IErMin= 1 ErrMin= 4.67D-02
 ErrMax= 4.67D-02  0.00D+00 EMaxC= 1.00D-01 BMatC= 3.64D-01 BMatP= 3.64D-01
 IDIUse=3 WtCom= 5.33D-01 WtEn= 4.67D-01
 Coeff-Com:  0.100D+01
 Coeff-En:   0.100D+01
 Coeff:      0.100D+01
 Gap=     0.105 Goal=   None    Shift=    0.000
 GapD=    0.105 DampG=1.000 DampE=0.500 DampFc=0.5000 IDamp=-1.
 Damping current iteration by 5.00D-01
 RMSDP=7.06D-03 MaxDP=2.53D-01              OVMax= 2.77D-01

 Cycle   2  Pass 0  IDiag  1:
 E= -362.752424028839     Delta-E=       -0.092527915890 Rises=F Damp=T
 DIIS: error= 1.58D-02 at cycle   2 NSaved=   2.
 NSaved= 2 IEnMin= 2 EnMin= -362.752424028839     IErMin= 2 ErrMin= 1.58D-02
 ErrMax= 1.58D-02  0.00D+00 EMaxC= 1.00D-01 BMatC= 5.27D-02 BMatP= 3.64D-01
 IDIUse=3 WtCom= 8.42D-01 WtEn= 1.58D-01
 Coeff-Com:  0.236D+00 0.764D+00
 Coeff-En:   0.339D+00 0.661D+00
 Coeff:      0.252D+00 0.748D+00
 Gap=     0.216 Goal=   None    Shift=    0.000
 RMSDP=1.63D-03 MaxDP=7.68D-02 DE=-9.25D-02 OVMax= 2.39D-01

 Cycle   3  Pass 0  IDiag  1:
 E= -362.958090395553     Delta-E=       -0.205666366713 Rises=F Damp=F
 DIIS: error= 8.07D-03 at cycle   3 NSaved=   3.
 NSaved= 3 IEnMin= 3 EnMin= -362.958090395553     IErMin= 3 ErrMin= 8.07D-03
 ErrMax= 8.07D-03  0.00D+00 EMaxC= 1.00D-01 BMatC= 1.79D-02 BMatP= 5.27D-02
 IDIUse=3 WtCom= 9.19D-01 WtEn= 8.07D-02
 Coeff-Com:  0.983D-01 0.381D+00 0.520D+00
 Coeff-En:   0.000D+00 0.000D+00 0.100D+01
 Coeff:      0.904D-01 0.350D+00 0.559D+00
 Gap=     0.225 Goal=   None    Shift=    0.000
 RMSDP=1.00D-03 MaxDP=3.00D-02 DE=-2.06D-01 OVMax= 3.82D-02

 Cycle   4  Pass 0  IDiag  1:
 E= -362.971749614179     Delta-E=       -0.013659218627 Rises=F Damp=F
 DIIS: error= 3.94D-03 at cycle   4 NSaved=   4.
 NSaved= 4 IEnMin= 4 EnMin= -362.971749614179     IErMin= 4 ErrMin= 3.94D-03
 ErrMax= 3.94D-03  0.00D+00 EMaxC= 1.00D-01 BMatC= 2.99D-03 BMatP= 1.79D-02
 IDIUse=3 WtCom= 9.61D-01 WtEn= 3.94D-02
 Coeff-Com:  0.196D-01 0.354D-01 0.288D+00 0.657D+00
 Coeff-En:   0.000D+00 0.000D+00 0.124D+00 0.876D+00
 Coeff:      0.188D-01 0.340D-01 0.281D+00 0.666D+00
 Gap=     0.227 Goal=   None    Shift=    0.000
 RMSDP=3.82D-04 MaxDP=1.17D-02 DE=-1.37D-02 OVMax= 1.44D-02

 Cycle   5  Pass 0  IDiag  1:
 E= -362.973918411506     Delta-E=       -0.002168797327 Rises=F Damp=F
 DIIS: error= 2.43D-03 at cycle   5 NSaved=   5.
 NSaved= 5 IEnMin= 5 EnMin= -362.973918411506     IErMin= 5 ErrMin= 2.43D-03
 ErrMax= 2.43D-03  0.00D+00 EMaxC= 1.00D-01 BMatC= 4.03D-04 BMatP= 2.99D-03
 IDIUse=3 WtCom= 9.76D-01 WtEn= 2.43D-02
 Coeff-Com:  0.751D-02 0.324D-02 0.154D+00 0.423D+00 0.413D+00
 Coeff-En:   0.000D+00 0.000D+00 0.000D+00 0.304D-01 0.970D+00
 Coeff:      0.733D-02 0.316D-02 0.150D+00 0.413D+00 0.426D+00
 Gap=     0.228 Goal=   None    Shift=    0.000
 RMSDP=1.52D-04 MaxDP=6.89D-03 DE=-2.17D-03 OVMax= 1.30D-02

 Cycle   6  Pass 0  IDiag  1:
 E= -362.974152808014     Delta-E=       -0.000234396508 Rises=F Damp=F
 DIIS: error= 1.60D-03 at cycle   6 NSaved=   6.
 NSaved= 6 IEnMin= 6 EnMin= -362.974152808014     IErMin= 6 ErrMin= 1.60D-03
 ErrMax= 1.60D-03  0.00D+00 EMaxC= 1.00D-01 BMatC= 1.23D-04 BMatP= 4.03D-04
 IDIUse=3 WtCom= 9.84D-01 WtEn= 1.60D-02
 Coeff-Com:  0.283D-02-0.294D-02 0.734D-01 0.221D+00 0.338D+00 0.368D+00
 Coeff-En:   0.000D+00 0.000D+00 0.000D+00 0.000D+00 0.263D+00 0.737D+00
 Coeff:      0.278D-02-0.290D-02 0.722D-01 0.217D+00 0.336D+00 0.374D+00
 Gap=     0.227 Goal=   None    Shift=    0.000
 RMSDP=6.54D-05 MaxDP=3.00D-03 DE=-2.34D-04 OVMax= 5.71D-03

 Cycle   7  Pass 0  IDiag  1:
 E= -362.974247199537     Delta-E=       -0.000094391523 Rises=F Damp=F
 DIIS: error= 1.95D-04 at cycle   7 NSaved=   7.
 NSaved= 7 IEnMin= 7 EnMin= -362.974247199537     IErMin= 7 ErrMin= 1.95D-04
 ErrMax= 1.95D-04  0.00D+00 EMaxC= 1.00D-01 BMatC= 4.14D-06 BMatP= 1.23D-04
 IDIUse=3 WtCom= 9.98D-01 WtEn= 1.95D-03
 Coeff-Com:  0.588D-03-0.223D-02 0.191D-01 0.626D-01 0.129D+00 0.212D+00
 Coeff-Com:  0.579D+00
 Coeff-En:   0.000D+00 0.000D+00 0.000D+00 0.000D+00 0.000D+00 0.000D+00
 Coeff-En:   0.100D+01
 Coeff:      0.587D-03-0.222D-02 0.190D-01 0.625D-01 0.128D+00 0.212D+00
 Coeff:      0.580D+00
 Gap=     0.227 Goal=   None    Shift=    0.000
 RMSDP=1.33D-05 MaxDP=3.83D-04 DE=-9.44D-05 OVMax= 6.42D-04

 Cycle   8  Pass 0  IDiag  1:
 E= -362.974250608362     Delta-E=       -0.000003408825 Rises=F Damp=F
 DIIS: error= 2.04D-05 at cycle   8 NSaved=   8.
 NSaved= 8 IEnMin= 8 EnMin= -362.974250608362     IErMin= 8 ErrMin= 2.04D-05
 ErrMax= 2.04D-05  0.00D+00 EMaxC= 1.00D-01 BMatC= 1.05D-07 BMatP= 4.14D-06
 IDIUse=1 WtCom= 1.00D+00 WtEn= 0.00D+00
 Coeff-Com:  0.130D-03-0.894D-03 0.483D-02 0.166D-01 0.387D-01 0.725D-01
 Coeff-Com:  0.249D+00 0.619D+00
 Coeff:      0.130D-03-0.894D-03 0.483D-02 0.166D-01 0.387D-01 0.725D-01
 Coeff:      0.249D+00 0.619D+00
 Gap=     0.227 Goal=   None    Shift=    0.000
 RMSDP=2.66D-06 MaxDP=8.37D-05 DE=-3.41D-06 OVMax= 8.03D-05

 Initial convergence to 1.0D-05 achieved.  Increase integral accuracy.
 Cycle   9  Pass 1  IDiag  1:
 E= -362.974240393179     Delta-E=        0.000010215183 Rises=F Damp=F
 DIIS: error= 1.51D-05 at cycle   1 NSaved=   1.
 NSaved= 1 IEnMin= 1 EnMin= -362.974240393179     IErMin= 1 ErrMin= 1.51D-05
 ErrMax= 1.51D-05  0.00D+00 EMaxC= 1.00D-01 BMatC= 4.20D-08 BMatP= 4.20D-08
 IDIUse=1 WtCom= 1.00D+00 WtEn= 0.00D+00
 Coeff-Com:  0.100D+01
 Coeff:      0.100D+01
 Gap=     0.227 Goal=   None    Shift=    0.000
 RMSDP=2.66D-06 MaxDP=8.37D-05 DE= 1.02D-05 OVMax= 6.15D-05

 Cycle  10  Pass 1  IDiag  1:
 E= -362.974240432530     Delta-E=       -0.000000039351 Rises=F Damp=F
 DIIS: error= 8.72D-06 at cycle   2 NSaved=   2.
 NSaved= 2 IEnMin= 2 EnMin= -362.974240432530     IErMin= 2 ErrMin= 8.72D-06
 ErrMax= 8.72D-06  0.00D+00 EMaxC= 1.00D-01 BMatC= 1.44D-08 BMatP= 4.20D-08
 IDIUse=1 WtCom= 1.00D+00 WtEn= 0.00D+00
 Coeff-Com:  0.311D+00 0.689D+00
 Coeff:      0.311D+00 0.689D+00
 Gap=     0.227 Goal=   None    Shift=    0.000
 RMSDP=1.32D-06 MaxDP=3.90D-05 DE=-3.94D-08 OVMax= 5.27D-05

 Cycle  11  Pass 1  IDiag  1:
 E= -362.974240436948     Delta-E=       -0.000000004418 Rises=F Damp=F
 DIIS: error= 8.16D-06 at cycle   3 NSaved=   3.
 NSaved= 3 IEnMin= 3 EnMin= -362.974240436948     IErMin= 3 ErrMin= 8.16D-06
 ErrMax= 8.16D-06  0.00D+00 EMaxC= 1.00D-01 BMatC= 1.10D-08 BMatP= 1.44D-08
 IDIUse=1 WtCom= 1.00D+00 WtEn= 0.00D+00
 Coeff-Com:  0.291D-01 0.460D+00 0.511D+00
 Coeff:      0.291D-01 0.460D+00 0.511D+00
 Gap=     0.227 Goal=   None    Shift=    0.000
 RMSDP=5.81D-07 MaxDP=2.32D-05 DE=-4.42D-09 OVMax= 3.10D-05

 Cycle  12  Pass 1  IDiag  1:
 E= -362.974240444423     Delta-E=       -0.000000007475 Rises=F Damp=F
 DIIS: error= 3.16D-06 at cycle   4 NSaved=   4.
 NSaved= 4 IEnMin= 4 EnMin= -362.974240444423     IErMin= 4 ErrMin= 3.16D-06
 ErrMax= 3.16D-06  0.00D+00 EMaxC= 1.00D-01 BMatC= 1.34D-09 BMatP= 1.10D-08
 IDIUse=1 WtCom= 1.00D+00 WtEn= 0.00D+00
 Coeff-Com: -0.112D-01 0.237D+00 0.328D+00 0.446D+00
 Coeff:     -0.112D-01 0.237D+00 0.328D+00 0.446D+00
 Gap=     0.227 Goal=   None    Shift=    0.000
 RMSDP=2.26D-07 MaxDP=1.14D-05 DE=-7.47D-09 OVMax= 1.68D-05

 Cycle  13  Pass 1  IDiag  1:
 E= -362.974240445279     Delta-E=       -0.000000000856 Rises=F Damp=F
 DIIS: error= 1.95D-06 at cycle   5 NSaved=   5.
 NSaved= 5 IEnMin= 5 EnMin= -362.974240445279     IErMin= 5 ErrMin= 1.95D-06
 ErrMax= 1.95D-06  0.00D+00 EMaxC= 1.00D-01 BMatC= 1.88D-10 BMatP= 1.34D-09
 IDIUse=1 WtCom= 1.00D+00 WtEn= 0.00D+00
 Coeff-Com: -0.103D-01 0.147D+00 0.209D+00 0.324D+00 0.330D+00
 Coeff:     -0.103D-01 0.147D+00 0.209D+00 0.324D+00 0.330D+00
 Gap=     0.227 Goal=   None    Shift=    0.000
 RMSDP=8.27D-08 MaxDP=3.95D-06 DE=-8.56D-10 OVMax= 7.34D-06

 Cycle  14  Pass 1  IDiag  1:
 E= -362.974240445411     Delta-E=       -0.000000000132 Rises=F Damp=F
 DIIS: error= 3.82D-07 at cycle   6 NSaved=   6.
 NSaved= 6 IEnMin= 6 EnMin= -362.974240445411     IErMin= 6 ErrMin= 3.82D-07
 ErrMax= 3.82D-07  0.00D+00 EMaxC= 1.00D-01 BMatC= 1.02D-11 BMatP= 1.88D-10
 IDIUse=1 WtCom= 1.00D+00 WtEn= 0.00D+00
 Coeff-Com: -0.338D-02 0.395D-01 0.552D-01 0.102D+00 0.210D+00 0.596D+00
 Coeff:     -0.338D-02 0.395D-01 0.552D-01 0.102D+00 0.210D+00 0.596D+00
 Gap=     0.227 Goal=   None    Shift=    0.000
 RMSDP=1.83D-08 MaxDP=7.88D-07 DE=-1.32D-10 OVMax= 1.33D-06

 Cycle  15  Pass 1  IDiag  1:
 E= -362.974240445428     Delta-E=       -0.000000000017 Rises=F Damp=F
 DIIS: error= 3.58D-08 at cycle   7 NSaved=   7.
 NSaved= 7 IEnMin= 7 EnMin= -362.974240445428     IErMin= 7 ErrMin= 3.58D-08
 ErrMax= 3.58D-08  0.00D+00 EMaxC= 1.00D-01 BMatC= 3.13D-13 BMatP= 1.02D-11
 IDIUse=1 WtCom= 1.00D+00 WtEn= 0.00D+00
 Coeff-Com: -0.771D-03 0.730D-02 0.944D-02 0.225D-01 0.673D-01 0.252D+00
 Coeff-Com:  0.643D+00
 Coeff:     -0.771D-03 0.730D-02 0.944D-02 0.225D-01 0.673D-01 0.252D+00
 Coeff:      0.643D+00
 Gap=     0.227 Goal=   None    Shift=    0.000
 RMSDP=4.22D-09 MaxDP=1.15D-07 DE=-1.68D-11 OVMax= 1.67D-07

 SCF Done:  E(RB3LYP) =  -362.974240445     A.U. after   15 cycles
            NFock= 15  Conv=0.42D-08     -V/T= 2.0092
 KE= 3.596807532507D+02 PE=-1.516196536735D+03 EE= 4.587352578957D+02
 Leave Link  502 at Thu Jul 22 19:06:12 2021, MaxMem= 17179869184 cpu:       258.5
 (Enter /vol2/users/liuj201281/hxd_yi/bin/Gaussian/g09/l601.exe)
 Copying SCF densities to generalized density rwf, IOpCl= 0 IROHF=0.

 **********************************************************************

            Population analysis using the SCF density.

 **********************************************************************

 Orbital symmetries:
       Occupied  (A) (A) (A) (A) (A) (A) (A) (A) (A) (A) (A) (A)
                 (A) (A) (A) (A) (A) (A) (A) (A) (A) (A) (A) (A)
                 (A) (A) (A) (A)
       Virtual   (A) (A) (A) (A) (A) (A) (A) (A) (A) (A) (A) (A)
                 (A) (A) (A) (A) (A) (A) (A) (A) (A) (A) (A) (A)
                 (A) (A) (A) (A) (A) (A) (A) (A) (A) (A) (A) (A)
                 (A) (A) (A) (A) (A) (A) (A) (A) (A) (A) (A) (A)
                 (A) (A) (A) (A) (A) (A) (A) (A) (A) (A) (A) (A)
                 (A) (A) (A) (A) (A) (A) (A) (A) (A) (A) (A) (A)
                 (A) (A) (A) (A) (A) (A) (A) (A) (A) (A) (A) (A)
                 (A) (A) (A) (A) (A) (A) (A) (A) (A) (A) (A) (A)
                 (A) (A) (A) (A) (A) (A) (A) (A) (A) (A) (A) (A)
                 (A) (A) (A) (A) (A) (A) (A) (A) (A) (A) (A) (A)
                 (A) (A)
 The electronic state is 1-A.
 Alpha  occ. eigenvalues --  -19.18136 -19.17857 -14.55954 -10.26153 -10.19863
 Alpha  occ. eigenvalues --  -10.19862 -10.19377  -1.21899  -1.04835  -0.85534
 Alpha  occ. eigenvalues --   -0.71335  -0.70859  -0.69131  -0.56340  -0.52642
 Alpha  occ. eigenvalues --   -0.51944  -0.50599  -0.45704  -0.45018  -0.42073
 Alpha  occ. eigenvalues --   -0.40798  -0.40574  -0.38570  -0.35971  -0.35950
 Alpha  occ. eigenvalues --   -0.30673  -0.29283  -0.28678
 Alpha virt. eigenvalues --   -0.06022   0.07305   0.08753   0.13563   0.13654
 Alpha virt. eigenvalues --    0.14587   0.15138   0.16607   0.17960   0.18109
 Alpha virt. eigenvalues --    0.19059   0.21120   0.22163   0.23141   0.29114
 Alpha virt. eigenvalues --    0.37512   0.47881   0.47917   0.49709   0.52366
 Alpha virt. eigenvalues --    0.54528   0.55233   0.58609   0.65054   0.65413
 Alpha virt. eigenvalues --    0.68088   0.69544   0.70833   0.78795   0.81250
 Alpha virt. eigenvalues --    0.83623   0.83884   0.84135   0.84976   0.85342
 Alpha virt. eigenvalues --    0.85954   0.86957   0.87637   0.89477   0.92660
 Alpha virt. eigenvalues --    0.93970   0.95007   0.99015   0.99758   1.03496
 Alpha virt. eigenvalues --    1.06116   1.11652   1.17562   1.24147   1.32482
 Alpha virt. eigenvalues --    1.33028   1.35759   1.45316   1.48060   1.53601
 Alpha virt. eigenvalues --    1.55199   1.56124   1.66359   1.72303   1.76034
 Alpha virt. eigenvalues --    1.78192   1.81072   1.81224   1.82574   1.84453
 Alpha virt. eigenvalues --    1.85668   1.87750   1.90847   1.98348   1.99507
 Alpha virt. eigenvalues --    2.01668   2.02576   2.02903   2.03149   2.07065
 Alpha virt. eigenvalues --    2.08179   2.11346   2.12140   2.12828   2.13216
 Alpha virt. eigenvalues --    2.17999   2.19168   2.27634   2.28502   2.31577
 Alpha virt. eigenvalues --    2.37859   2.38381   2.43816   2.60041   2.61186
 Alpha virt. eigenvalues --    2.61402   2.65744   2.67326   2.69714   2.70145
 Alpha virt. eigenvalues --    2.71495   2.79710   2.84193   2.84833   2.85966
 Alpha virt. eigenvalues --    2.90617   2.91942   2.93631   2.95713   2.97236
 Alpha virt. eigenvalues --    3.06426   3.15919   3.22123   3.22230   3.40304
 Alpha virt. eigenvalues --    3.41260   3.41265   3.41750   3.48675   3.48963
 Alpha virt. eigenvalues --    3.69607   3.89290   3.91229   4.37079   4.51973
 Alpha virt. eigenvalues --    4.56491   4.69407
          Condensed to atoms (all electrons):
               1          2          3          4          5          6
     1  C    4.977267   0.364490  -0.055862  -0.053123  -0.048938  -0.001525
     2  C    0.364490   5.027315   0.357159   0.364490   0.231266  -0.096492
     3  C   -0.055862   0.357159   4.970225  -0.055860  -0.045370   0.005245
     4  C   -0.053123   0.364490  -0.055860   4.977247  -0.048929  -0.001525
     5  N   -0.048938   0.231266  -0.045370  -0.048929   5.888451   0.268781
     6  O   -0.001525  -0.096492   0.005245  -0.001525   0.268781   8.268763
     7  O    0.000989  -0.087053   0.005406   0.000990   0.307798  -0.088260
     8  H    0.376726  -0.026361   0.005124  -0.005332  -0.005789   0.010092
     9  H    0.377710  -0.028845  -0.005058   0.005134  -0.002538  -0.000180
    10  H    0.378557  -0.030367  -0.002466  -0.005172   0.003327   0.000165
    11  H    0.005020  -0.023657   0.378405  -0.005124  -0.004626   0.000012
    12  H   -0.003705  -0.025577   0.363410  -0.003705   0.003470  -0.000070
    13  H   -0.005124  -0.023649   0.378413   0.005019  -0.004626   0.000012
    14  H   -0.005333  -0.026362   0.005124   0.376726  -0.005789   0.010095
    15  H   -0.005172  -0.030367  -0.002466   0.378558   0.003327   0.000165
    16  H    0.005134  -0.028848  -0.005057   0.377712  -0.002538  -0.000180
               7          8          9         10         11         12
     1  C    0.000989   0.376726   0.377710   0.378557   0.005020  -0.003705
     2  C   -0.087053  -0.026361  -0.028845  -0.030367  -0.023657  -0.025577
     3  C    0.005406   0.005124  -0.005058  -0.002466   0.378405   0.363410
     4  C    0.000990  -0.005332   0.005134  -0.005172  -0.005124  -0.003705
     5  N    0.307798  -0.005789  -0.002538   0.003327  -0.004626   0.003470
     6  O   -0.088260   0.010092  -0.000180   0.000165   0.000012  -0.000070
     7  O    8.226256   0.000161   0.000846  -0.000111   0.004466   0.000780
     8  H    0.000161   0.554261  -0.027521  -0.024930  -0.000192  -0.000085
     9  H    0.000846  -0.027521   0.583970  -0.028590  -0.000038   0.000026
    10  H   -0.000111  -0.024930  -0.028590   0.588843   0.000001   0.001479
    11  H    0.004466  -0.000192  -0.000038   0.000001   0.570806  -0.028193
    12  H    0.000780  -0.000085   0.000026   0.001479  -0.028193   0.611467
    13  H    0.004468  -0.000026   0.004093  -0.000215  -0.027468  -0.028195
    14  H    0.000161   0.003713  -0.000036  -0.000013  -0.000026  -0.000085
    15  H   -0.000111  -0.000013  -0.000001   0.002540  -0.000215   0.001479
    16  H    0.000846  -0.000036  -0.000197  -0.000001   0.004093   0.000026
              13         14         15         16
     1  C   -0.005124  -0.005333  -0.005172   0.005134
     2  C   -0.023649  -0.026362  -0.030367  -0.028848
     3  C    0.378413   0.005124  -0.002466  -0.005057
     4  C    0.005019   0.376726   0.378558   0.377712
     5  N   -0.004626  -0.005789   0.003327  -0.002538
     6  O    0.000012   0.010095   0.000165  -0.000180
     7  O    0.004468   0.000161  -0.000111   0.000846
     8  H   -0.000026   0.003713  -0.000013  -0.000036
     9  H    0.004093  -0.000036  -0.000001  -0.000197
    10  H   -0.000215  -0.000013   0.002540  -0.000001
    11  H   -0.027468  -0.000026  -0.000215   0.004093
    12  H   -0.028195  -0.000085   0.001479   0.000026
    13  H    0.570774  -0.000192   0.000001  -0.000038
    14  H   -0.000192   0.554245  -0.024925  -0.027517
    15  H    0.000001  -0.024925   0.588836  -0.028590
    16  H   -0.000038  -0.027517  -0.028590   0.583965
 Mulliken charges:
               1
     1  C   -0.307111
     2  C    0.082857
     3  C   -0.296375
     4  C   -0.307105
     5  N    0.462722
     6  O   -0.375096
     7  O   -0.377634
     8  H    0.140207
     9  H    0.121226
    10  H    0.116952
    11  H    0.126735
    12  H    0.107477
    13  H    0.126753
    14  H    0.140212
    15  H    0.116955
    16  H    0.121227
 Sum of Mulliken charges =   0.00000
 Mulliken charges with hydrogens summed into heavy atoms:
               1
     1  C    0.071273
     2  C    0.082857
     3  C    0.064589
     4  C    0.071288
     5  N    0.462722
     6  O   -0.375096
     7  O   -0.377634
 Electronic spatial extent (au):  <R**2>=            720.4412
 Charge=              0.0000 electrons
 Dipole moment (field-independent basis, Debye):
    X=              3.6894    Y=             -0.0840    Z=              0.0001  Tot=              3.6903
 Quadrupole moment (field-independent basis, Debye-Ang):
   XX=            -46.5540   YY=            -44.5143   ZZ=            -40.1685
   XY=             -0.1281   XZ=              0.0000   YZ=              0.0000
 Traceless Quadrupole moment (field-independent basis, Debye-Ang):
   XX=             -2.8084   YY=             -0.7687   ZZ=              3.5771
   XY=             -0.1281   XZ=              0.0000   YZ=              0.0000
 Octapole moment (field-independent basis, Debye-Ang**2):
  XXX=              0.9933  YYY=             -0.8409  ZZZ=             -0.0001  XYY=              1.4481
  XXY=             -0.4039  XXZ=              0.0000  XZZ=             -5.0800  YZZ=              0.7339
  YYZ=              0.0008  XYZ=             -0.0001
 Hexadecapole moment (field-independent basis, Debye-Ang**3):
 XXXX=           -403.4845 YYYY=           -288.2994 ZZZZ=           -209.9218 XXXY=             -1.8693
 XXXZ=              0.0008 YYYX=              0.2613 YYYZ=              0.0001 ZZZX=              0.0013
 ZZZY=             -0.0015 XXYY=           -123.6767 XXZZ=           -101.7522 YYZZ=            -81.8314
 XXYZ=             -0.0004 YYXZ=              0.0008 ZZXY=             -0.5360
 N-N= 3.348062851431D+02 E-N=-1.516196541492D+03  KE= 3.596807532507D+02
 No NMR shielding tensors so no spin-rotation constants.
 Leave Link  601 at Thu Jul 22 19:06:12 2021, MaxMem= 17179869184 cpu:        34.8
 (Enter /vol2/users/liuj201281/hxd_yi/bin/Gaussian/g09/l701.exe)
 Compute integral first derivatives.
 ... and contract with generalized density number  0.
 Leave Link  701 at Thu Jul 22 19:06:12 2021, MaxMem= 17179869184 cpu:        45.1
 (Enter /vol2/users/liuj201281/hxd_yi/bin/Gaussian/g09/l702.exe)
 L702 exits ... SP integral derivatives will be done elsewhere.
 Leave Link  702 at Thu Jul 22 19:06:12 2021, MaxMem= 17179869184 cpu:         2.4
 (Enter /vol2/users/liuj201281/hxd_yi/bin/Gaussian/g09/l703.exe)
 Compute integral first derivatives, UseDBF=F ICtDFT=           0.
 Integral derivatives from FoFJK, PRISM(SPDF).
 Calling FoFJK, ICntrl=      2127 FMM=F ISym2X=0 I1Cent= 0 IOpClX= 0 NMat=1 NMatS=1 NMatT=0.
 FoFJK:  IHMeth= 1 ICntrl=    2127 DoSepK=F KAlg= 0 I1Cent=   0 FoldK=F
 IRaf=         0 NMat=   1 IRICut=       1 DoRegI=T DoRafI=F ISym2E= 0.
 FoFCou: FMM=F IPFlag=           0 FMFlag=      100000 FMFlg1=         800
         NFxFlg=           0 DoJE=F BraDBF=F KetDBF=F FulRan=T
         wScrn=  0.000000 ICntrl=    2127 IOpCl=  0 I1Cent=           0 NGrid=           0
         NMat0=    1 NMatS0=      1 NMatT0=    0 NMatD0=    1 NMtDS0=    0 NMtDT0=    0
 Symmetry not used in FoFCou.
 Leave Link  703 at Thu Jul 22 19:06:13 2021, MaxMem= 17179869184 cpu:        67.0
 (Enter /vol2/users/liuj201281/hxd_yi/bin/Gaussian/g09/l716.exe)
 Dipole        = 1.45151316D+00-3.30645757D-02 2.35841020D-05
 ***** Axes restored to original set *****
 -------------------------------------------------------------------
 Center     Atomic                   Forces (Hartrees/Bohr)
 Number     Number              X              Y              Z
 -------------------------------------------------------------------
      1        6           0.000015404   -0.000096474    0.000077869
      2        6          -0.000161467    0.000058754    0.000012337
      3        6          -0.000044826    0.000035942   -0.000041643
      4        6           0.000000735   -0.000081314   -0.000054269
      5        7           0.000199682    0.000103927   -0.000006823
      6        8           0.000042825   -0.000230319    0.000000753
      7        8           0.000094822    0.000121599    0.000000994
      8        1          -0.000007396    0.000014090   -0.000010551
      9        1          -0.000006943    0.000008803    0.000001250
     10        1          -0.000031011    0.000026912   -0.000032191
     11        1          -0.000009047    0.000003914    0.000000890
     12        1          -0.000031860   -0.000022832    0.000000317
     13        1          -0.000023833    0.000017222    0.000031725
     14        1          -0.000001695    0.000012663    0.000002507
     15        1          -0.000026693    0.000019812    0.000029275
     16        1          -0.000008697    0.000007302   -0.000012440
 -------------------------------------------------------------------
 Cartesian Forces:  Max     0.000230319 RMS     0.000064290
 Leave Link  716 at Thu Jul 22 19:06:13 2021, MaxMem= 17179869184 cpu:         3.5
 (Enter /vol2/users/liuj201281/hxd_yi/bin/Gaussian/g09/l103.exe)

 GradGradGradGradGradGradGradGradGradGradGradGradGradGradGradGradGradGrad
 Berny optimization.
 FormGI is forming the generalized inverse of G from B-inverse, IUseBI=4.
 Internal  Forces:  Max     0.000337446 RMS     0.000058116
 Search for a local minimum.
 Step number   1 out of a maximum of   85
 All quantities printed in internal units (Hartrees-Bohrs-Radians)
 RMS Force = .58116D-04 SwitMx=.10000D-02 MixMth= 2
 Mixed Optimization -- En-DIIS/RFO-DIIS
 Second derivative matrix not updated -- first step.
 ITU=  0
     Eigenvalues ---    0.00230   0.00230   0.00315   0.00315   0.00421
     Eigenvalues ---    0.03997   0.05493   0.05502   0.05503   0.05560
     Eigenvalues ---    0.05718   0.05718   0.05799   0.06018   0.15022
     Eigenvalues ---    0.15315   0.16000   0.16000   0.16000   0.16000
     Eigenvalues ---    0.16000   0.16000   0.16000   0.16000   0.16000
     Eigenvalues ---    0.25000   0.25000   0.27517   0.29048   0.29048
     Eigenvalues ---    0.29786   0.34317   0.34337   0.34339   0.34375
     Eigenvalues ---    0.34376   0.34608   0.34615   0.34662   0.34662
     Eigenvalues ---    0.91741   0.92568
 RFO step:  Lambda=-1.01986399D-06 EMin= 2.30000000D-03
 Linear search not attempted -- first point.
 Iteration  1 RMS(Cart)=  0.00059946 RMS(Int)=  0.00000010
 Iteration  2 RMS(Cart)=  0.00000014 RMS(Int)=  0.00000004
 ITry= 1 IFail=0 DXMaxC= 2.63D-03 DCOld= 1.00D+10 DXMaxT= 3.00D-01 DXLimC= 3.00D+00 Rises=F
 Variable       Old X    -DE/DX   Delta X   Delta X   Delta X     New X
                                 (Linear)    (Quad)   (Total)
    R1        2.89902   0.00004   0.00000   0.00015   0.00015   2.89917
    R2        2.06228  -0.00001   0.00000  -0.00002  -0.00002   2.06225
    R3        2.06765   0.00001   0.00000   0.00002   0.00002   2.06767
    R4        2.06702  -0.00004   0.00000  -0.00010  -0.00010   2.06692
    R5        2.88391   0.00000   0.00000  -0.00001  -0.00001   2.88390
    R6        2.89904   0.00004   0.00000   0.00014   0.00014   2.89917
    R7        2.93206  -0.00034   0.00000  -0.00123  -0.00123   2.93084
    R8        2.06316   0.00000   0.00000   0.00001   0.00001   2.06316
    R9        2.06798  -0.00003   0.00000  -0.00008  -0.00008   2.06790
   R10        2.06304   0.00004   0.00000   0.00012   0.00012   2.06315
   R11        2.06227  -0.00001   0.00000  -0.00003  -0.00003   2.06225
   R12        2.06700  -0.00003   0.00000  -0.00009  -0.00009   2.06691
   R13        2.06762   0.00002   0.00000   0.00005   0.00005   2.06767
   R14        2.32141   0.00018   0.00000   0.00020   0.00020   2.32161
   R15        2.31772   0.00007   0.00000   0.00007   0.00007   2.31779
    A1        1.93299  -0.00001   0.00000  -0.00008  -0.00008   1.93291
    A2        1.93868   0.00000   0.00000   0.00000   0.00000   1.93867
    A3        1.90527  -0.00005   0.00000  -0.00031  -0.00031   1.90496
    A4        1.89917   0.00001   0.00000   0.00008   0.00008   1.89925
    A5        1.89971   0.00003   0.00000   0.00019   0.00019   1.89990
    A6        1.88707   0.00002   0.00000   0.00013   0.00013   1.88721
    A7        1.95501   0.00003   0.00000   0.00043   0.00043   1.95544
    A8        1.94588  -0.00003   0.00000   0.00002   0.00002   1.94590
    A9        1.85051   0.00000   0.00000  -0.00019  -0.00019   1.85032
   A10        1.95506   0.00003   0.00000   0.00038   0.00038   1.95544
   A11        1.90009  -0.00004   0.00000  -0.00049  -0.00049   1.89960
   A12        1.85058   0.00000   0.00000  -0.00025  -0.00025   1.85033
   A13        1.94559   0.00001   0.00000   0.00007   0.00007   1.94566
   A14        1.89489  -0.00004   0.00000  -0.00026  -0.00026   1.89464
   A15        1.94568   0.00000   0.00000  -0.00001  -0.00001   1.94567
   A16        1.89471   0.00002   0.00000   0.00009   0.00009   1.89481
   A17        1.88702   0.00000   0.00000   0.00002   0.00002   1.88704
   A18        1.89474   0.00002   0.00000   0.00009   0.00009   1.89483
   A19        1.93291   0.00000   0.00000  -0.00002  -0.00002   1.93289
   A20        1.90523  -0.00004   0.00000  -0.00029  -0.00029   1.90494
   A21        1.93862   0.00001   0.00000   0.00005   0.00005   1.93867
   A22        1.89981   0.00002   0.00000   0.00012   0.00012   1.89993
   A23        1.89923   0.00000   0.00000   0.00003   0.00003   1.89926
   A24        1.88709   0.00002   0.00000   0.00012   0.00012   1.88721
   A25        2.03555  -0.00010   0.00000  -0.00041  -0.00041   2.03514
   A26        2.07061  -0.00012   0.00000  -0.00047  -0.00047   2.07015
   A27        2.17702   0.00022   0.00000   0.00088   0.00088   2.17790
    D1        3.08155  -0.00002   0.00000  -0.00078  -0.00078   3.08077
    D2       -0.99513   0.00002   0.00000   0.00009   0.00009  -0.99503
    D3        1.01119   0.00001   0.00000  -0.00031  -0.00031   1.01088
    D4        0.96899  -0.00003   0.00000  -0.00082  -0.00082   0.96817
    D5       -3.10769   0.00002   0.00000   0.00005   0.00005  -3.10764
    D6       -1.10137   0.00000   0.00000  -0.00035  -0.00035  -1.10172
    D7       -1.11027  -0.00002   0.00000  -0.00079  -0.00079  -1.11106
    D8        1.09624   0.00002   0.00000   0.00008   0.00008   1.09632
    D9        3.10255   0.00001   0.00000  -0.00032  -0.00032   3.10224
   D10       -3.09608   0.00000   0.00000   0.00028   0.00028  -3.09580
   D11        1.10082   0.00000   0.00000   0.00029   0.00029   1.10111
   D12       -0.98555   0.00001   0.00000   0.00035   0.00035  -0.98520
   D13        0.98559  -0.00001   0.00000  -0.00039  -0.00039   0.98519
   D14       -1.10070  -0.00001   0.00000  -0.00039  -0.00039  -1.10109
   D15        3.09611   0.00000   0.00000  -0.00033  -0.00033   3.09579
   D16       -1.05531   0.00000   0.00000   0.00000   0.00000  -1.05531
   D17       -3.14159   0.00000   0.00000   0.00000   0.00000  -3.14159
   D18        1.05522   0.00000   0.00000   0.00006   0.00006   1.05529
   D19        0.99508  -0.00002   0.00000  -0.00002  -0.00002   0.99506
   D20       -1.09633  -0.00002   0.00000   0.00002   0.00002  -1.09631
   D21        3.10763  -0.00002   0.00000   0.00003   0.00003   3.10766
   D22       -3.08163   0.00003   0.00000   0.00087   0.00087  -3.08075
   D23        1.11015   0.00003   0.00000   0.00092   0.00092   1.11107
   D24       -0.96907   0.00003   0.00000   0.00092   0.00092  -0.96815
   D25       -1.01119  -0.00001   0.00000   0.00034   0.00034  -1.01086
   D26       -3.10260  -0.00001   0.00000   0.00038   0.00038  -3.10222
   D27        1.10136  -0.00001   0.00000   0.00039   0.00039   1.10175
   D28       -1.03534   0.00002   0.00000   0.00033   0.00033  -1.03501
   D29        2.10625   0.00001   0.00000  -0.00018  -0.00018   2.10607
   D30        3.14152   0.00000   0.00000   0.00019   0.00019  -3.14147
   D31       -0.00007   0.00000   0.00000  -0.00032  -0.00032  -0.00039
   D32        1.03510  -0.00001   0.00000   0.00014   0.00014   1.03524
   D33       -2.10649  -0.00001   0.00000  -0.00037  -0.00037  -2.10686
         Item               Value     Threshold  Converged?
 Maximum Force            0.000337     0.000450     YES
 RMS     Force            0.000058     0.000300     YES
 Maximum Displacement     0.002633     0.001800     NO 
 RMS     Displacement     0.000599     0.001200     YES
 Predicted change in Energy=-5.099752D-07
 Lowest energy point so far.  Saving SCF results.
 GradGradGradGradGradGradGradGradGradGradGradGradGradGradGradGradGradGrad

 Leave Link  103 at Thu Jul 22 19:06:13 2021, MaxMem= 17179869184 cpu:        18.0
 (Enter /vol2/users/liuj201281/hxd_yi/bin/Gaussian/g09/l202.exe)
                          Input orientation:                          
 ---------------------------------------------------------------------
 Center     Atomic      Atomic             Coordinates (Angstroms)
 Number     Number       Type             X           Y           Z
 ---------------------------------------------------------------------
      1          6           0        0.976961   -0.754181    1.268170
      2          6           0        0.565315    0.004740   -0.000011
      3          6           0        1.080166    1.441365   -0.000146
      4          6           0        0.977095   -0.754471   -1.267976
      5          7           0       -0.985435    0.028485   -0.000088
      6          8           0       -1.552371   -1.061422    0.000139
      7          8           0       -1.556207    1.114106    0.000187
      8          1           0        0.547238   -1.757287    1.275048
      9          1           0        0.649943   -0.223941    2.167667
     10          1           0        2.067193   -0.836439    1.299036
     11          1           0        0.743604    1.986543   -0.884164
     12          1           0        2.174228    1.419177   -0.000094
     13          1           0        0.743504    1.986749    0.883701
     14          1           0        0.547348   -1.757564   -1.274661
     15          1           0        2.067329   -0.836737   -1.298683
     16          1           0        0.650188   -0.224421   -2.167625
 ---------------------------------------------------------------------
                    Distance matrix (angstroms):
                    1          2          3          4          5
     1  C    0.000000
     2  C    1.534177   0.000000
     3  C    2.537656   1.526093   0.000000
     4  C    2.536146   1.534177   2.537659   0.000000
     5  N    2.464152   1.550932   2.502586   2.464160   0.000000
     6  O    2.846018   2.370927   3.632381   2.846143   1.228541
     7  O    3.393408   2.394065   2.656607   3.393735   1.226521
     8  H    1.091297   2.175050   3.484466   2.767198   2.676573
     9  H    1.094162   2.181350   2.767263   3.491724   2.727149
    10  H    1.093767   2.156558   2.801871   2.790087   3.428463
    11  H    3.492644   2.177396   1.091779   2.777587   2.757744
    12  H    2.786652   2.142249   1.094287   2.786646   3.452172
    13  H    2.777592   2.177397   1.091774   3.492645   2.757737
    14  H    2.767189   2.175033   3.484455   1.091294   2.676552
    15  H    2.790063   2.156542   2.801863   1.093764   3.428458
    16  H    3.491721   2.181345   2.767253   1.094162   2.727167
                    6          7          8          9         10
     6  O    0.000000
     7  O    2.175532   0.000000
     8  H    2.553033   3.780827   0.000000
     9  H    3.201521   3.369782   1.777208   0.000000
    10  H    3.852142   4.315166   1.777302   1.771517   0.000000
    11  H    3.917088   2.613876   4.326317   3.769440   3.806241
    12  H    4.476707   3.742888   3.789855   3.118087   2.605186
    13  H    3.917023   2.613575   3.769546   2.558216   3.145638
    14  H    2.553144   3.781093   2.549709   3.769900   3.127670
    15  H    3.852226   4.315421   3.127647   3.794744   2.597719
    16  H    3.201724   3.370348   3.769917   4.335292   3.794761
                   11         12         13         14         15
    11  H    0.000000
    12  H    1.774871   0.000000
    13  H    1.767865   1.774881   0.000000
    14  H    3.769528   3.789847   4.326301   0.000000
    15  H    3.145629   2.605169   3.806229   1.777313   0.000000
    16  H    2.558195   3.118060   3.769426   1.777213   1.771519
                   16
    16  H    0.000000
 Stoichiometry    C4H9NO2
 Framework group  C1[X(C4H9NO2)]
 Deg. of freedom    42
 Full point group                 C1      NOp   1
 RotChk:  IX=0 Diff= 2.95D-04
 Largest Abelian subgroup         C1      NOp   1
 Largest concise Abelian subgroup C1      NOp   1
                         Standard orientation:                         
 ---------------------------------------------------------------------
 Center     Atomic      Atomic             Coordinates (Angstroms)
 Number     Number       Type             X           Y           Z
 ---------------------------------------------------------------------
      1          6           0        0.976742   -0.754006    1.268127
      2          6           0        0.564937    0.004829   -0.000055
      3          6           0        1.079487    1.441561   -0.000189
      4          6           0        0.976876   -0.754296   -1.268019
      5          7           0       -0.985818    0.028249   -0.000132
      6          8           0       -1.552526   -1.061777    0.000095
      7          8           0       -1.556818    1.113750    0.000144
      8          1           0        0.547229   -1.757202    1.275004
      9          1           0        0.649612   -0.223834    2.167624
     10          1           0        2.066991   -0.836035    1.298993
     11          1           0        0.742810    1.986669   -0.884207
     12          1           0        2.173553    1.419603   -0.000138
     13          1           0        0.742710    1.986875    0.883658
     14          1           0        0.547338   -1.757479   -1.274705
     15          1           0        2.067127   -0.836333   -1.298726
     16          1           0        0.649858   -0.224315   -2.167668
 ---------------------------------------------------------------------
 Rotational constants (GHZ):      3.3578694      2.4906601      2.0988667
 Leave Link  202 at Thu Jul 22 19:06:13 2021, MaxMem= 17179869184 cpu:         1.4
 (Enter /vol2/users/liuj201281/hxd_yi/bin/Gaussian/g09/l301.exe)
 Standard basis: 6-31G(d,p) (6D, 7F)
 Ernie: Thresh=  0.10000D-02 Tol=  0.10000D-05 Strict=F.
 There are   150 symmetry adapted cartesian basis functions of A   symmetry.
 There are   150 symmetry adapted basis functions of A   symmetry.
   150 basis functions,   259 primitive gaussians,   150 cartesian basis functions
    28 alpha electrons       28 beta electrons
       nuclear repulsion energy       334.8452987964 Hartrees.
 IExCor=  402 DFT=T Ex+Corr=B3LYP ExCW=0 ScaHFX=  0.200000
 ScaDFX=  0.800000  0.720000  1.000000  0.810000 ScalE2=  1.000000  1.000000
 IRadAn=      0 IRanWt=     -1 IRanGd=            0 ICorTp=0 IEmpDi=  4
 NAtoms=   16 NActive=   16 NUniq=   16 SFac= 1.00D+00 NAtFMM=   60 NAOKFM=F Big=F
 Integral buffers will be    131072 words long.
 Raffenetti 2 integral format.
 Two-electron integral symmetry is turned on.
 Leave Link  301 at Thu Jul 22 19:06:13 2021, MaxMem= 17179869184 cpu:         5.4
 (Enter /vol2/users/liuj201281/hxd_yi/bin/Gaussian/g09/l302.exe)
 NPDir=0 NMtPBC=     1 NCelOv=     1 NCel=       1 NClECP=     1 NCelD=      1
         NCelK=      1 NCelE2=     1 NClLst=     1 CellRange=     0.0.
 One-electron integrals computed using PRISM.
 NBasis=   150 RedAO= T EigKep=  2.53D-03  NBF=   150
 NBsUse=   150 1.00D-06 EigRej= -1.00D+00 NBFU=   150
 Precomputing XC quadrature grid using
 IXCGrd= 4 IRadAn=           0 IRanWt=          -1 IRanGd=           0 AccXCQ= 0.00D+00.
 Generated NRdTot=       0 NPtTot=           0 NUsed=           0 NTot=          32
 NSgBfM=   150   150   150   150   150 MxSgAt=    16 MxSgA2=    16.
 Leave Link  302 at Thu Jul 22 19:06:14 2021, MaxMem= 17179869184 cpu:        46.8
 (Enter /vol2/users/liuj201281/hxd_yi/bin/Gaussian/g09/l303.exe)
 DipDrv:  MaxL=1.
 Leave Link  303 at Thu Jul 22 19:06:14 2021, MaxMem= 17179869184 cpu:         3.5
 (Enter /vol2/users/liuj201281/hxd_yi/bin/Gaussian/g09/l401.exe)
 Initial guess from the checkpoint file:  "/vol2/users/liuj201281/HOFBenchmark/IsodesmicSplit/Sample60/Ring26/Running/Gau-246315.chk"
 B after Tr=     0.000000    0.000000    0.000000
         Rot=    1.000000   -0.000001   -0.000013   -0.000096 Ang=  -0.01 deg.
 Guess basis will be translated and rotated to current coordinates.
 JPrj=2 DoOrth=T DoCkMO=T.
 Leave Link  401 at Thu Jul 22 19:06:14 2021, MaxMem= 17179869184 cpu:        14.9
 (Enter /vol2/users/liuj201281/hxd_yi/bin/Gaussian/g09/l502.exe)
 Closed shell SCF:
 Using DIIS extrapolation, IDIIS=  1040.
 Integral symmetry usage will be decided dynamically.
 Keep R1 ints in memory in canonical form, NReq=65961262.
 IVT=      106387 IEndB=      106387 NGot= 17179869184 MDV= 17115629323
 LenX= 17115629323 LenY= 17115606382
 Requested convergence on RMS density matrix=1.00D-08 within 128 cycles.
 Requested convergence on MAX density matrix=1.00D-06.
 Requested convergence on             energy=1.00D-06.
 No special actions if energy rises.
 FoFCou: FMM=F IPFlag=           0 FMFlag=           0 FMFlg1=           0
         NFxFlg=           0 DoJE=F BraDBF=F KetDBF=F FulRan=T
         wScrn=  0.000000 ICntrl=     600 IOpCl=  0 I1Cent=           0 NGrid=           0
         NMat0=    1 NMatS0=  11325 NMatT0=    0 NMatD0=    1 NMtDS0=    0 NMtDT0=    0
 Symmetry not used in FoFCou.

 Cycle   1  Pass 1  IDiag  1:
 E= -362.974240160266    
 DIIS: error= 4.55D-05 at cycle   1 NSaved=   1.
 NSaved= 1 IEnMin= 1 EnMin= -362.974240160266     IErMin= 1 ErrMin= 4.55D-05
 ErrMax= 4.55D-05  0.00D+00 EMaxC= 1.00D-01 BMatC= 3.39D-07 BMatP= 3.39D-07
 IDIUse=1 WtCom= 1.00D+00 WtEn= 0.00D+00
 Coeff-Com:  0.100D+01
 Coeff:      0.100D+01
 Gap=     1.897 Goal=   None    Shift=    0.000
 RMSDP=7.37D-06 MaxDP=1.36D-04              OVMax= 2.58D-04

 Cycle   2  Pass 1  IDiag  1:
 E= -362.974240743863     Delta-E=       -0.000000583598 Rises=F Damp=F
 DIIS: error= 9.45D-06 at cycle   2 NSaved=   2.
 NSaved= 2 IEnMin= 2 EnMin= -362.974240743863     IErMin= 2 ErrMin= 9.45D-06
 ErrMax= 9.45D-06  0.00D+00 EMaxC= 1.00D-01 BMatC= 1.19D-08 BMatP= 3.39D-07
 IDIUse=1 WtCom= 1.00D+00 WtEn= 0.00D+00
 Coeff-Com:  0.113D-02 0.999D+00
 Coeff:      0.113D-02 0.999D+00
 Gap=     0.227 Goal=   None    Shift=    0.000
 RMSDP=1.33D-06 MaxDP=3.30D-05 DE=-5.84D-07 OVMax= 4.49D-05

 Cycle   3  Pass 1  IDiag  1:
 E= -362.974240749058     Delta-E=       -0.000000005195 Rises=F Damp=F
 DIIS: error= 5.39D-06 at cycle   3 NSaved=   3.
 NSaved= 3 IEnMin= 3 EnMin= -362.974240749058     IErMin= 3 ErrMin= 5.39D-06
 ErrMax= 5.39D-06  0.00D+00 EMaxC= 1.00D-01 BMatC= 8.81D-09 BMatP= 1.19D-08
 IDIUse=1 WtCom= 1.00D+00 WtEn= 0.00D+00
 Coeff-Com: -0.303D-01 0.471D+00 0.559D+00
 Coeff:     -0.303D-01 0.471D+00 0.559D+00
 Gap=     0.227 Goal=   None    Shift=    0.000
 RMSDP=7.24D-07 MaxDP=2.29D-05 DE=-5.20D-09 OVMax= 2.86D-05

 Cycle   4  Pass 1  IDiag  1:
 E= -362.974240755490     Delta-E=       -0.000000006432 Rises=F Damp=F
 DIIS: error= 4.86D-06 at cycle   4 NSaved=   4.
 NSaved= 4 IEnMin= 4 EnMin= -362.974240755490     IErMin= 4 ErrMin= 4.86D-06
 ErrMax= 4.86D-06  0.00D+00 EMaxC= 1.00D-01 BMatC= 1.64D-09 BMatP= 8.81D-09
 IDIUse=1 WtCom= 1.00D+00 WtEn= 0.00D+00
 Coeff-Com: -0.173D-01 0.206D+00 0.343D+00 0.468D+00
 Coeff:     -0.173D-01 0.206D+00 0.343D+00 0.468D+00
 Gap=     0.227 Goal=   None    Shift=    0.000
 RMSDP=3.23D-07 MaxDP=1.34D-05 DE=-6.43D-09 OVMax= 2.74D-05

 Cycle   5  Pass 1  IDiag  1:
 E= -362.974240756308     Delta-E=       -0.000000000818 Rises=F Damp=F
 DIIS: error= 3.79D-06 at cycle   5 NSaved=   5.
 NSaved= 5 IEnMin= 5 EnMin= -362.974240756308     IErMin= 5 ErrMin= 3.79D-06
 ErrMax= 3.79D-06  0.00D+00 EMaxC= 1.00D-01 BMatC= 6.97D-10 BMatP= 1.64D-09
 IDIUse=1 WtCom= 1.00D+00 WtEn= 0.00D+00
 Coeff-Com: -0.810D-02 0.833D-01 0.181D+00 0.382D+00 0.362D+00
 Coeff:     -0.810D-02 0.833D-01 0.181D+00 0.382D+00 0.362D+00
 Gap=     0.227 Goal=   None    Shift=    0.000
 RMSDP=1.47D-07 MaxDP=6.06D-06 DE=-8.18D-10 OVMax= 1.30D-05

 Cycle   6  Pass 1  IDiag  1:
 E= -362.974240756865     Delta-E=       -0.000000000557 Rises=F Damp=F
 DIIS: error= 2.75D-07 at cycle   6 NSaved=   6.
 NSaved= 6 IEnMin= 6 EnMin= -362.974240756865     IErMin= 6 ErrMin= 2.75D-07
 ErrMax= 2.75D-07  0.00D+00 EMaxC= 1.00D-01 BMatC= 1.02D-11 BMatP= 6.97D-10
 IDIUse=1 WtCom= 1.00D+00 WtEn= 0.00D+00
 Coeff-Com: -0.105D-02 0.397D-02 0.263D-01 0.956D-01 0.150D+00 0.725D+00
 Coeff:     -0.105D-02 0.397D-02 0.263D-01 0.956D-01 0.150D+00 0.725D+00
 Gap=     0.227 Goal=   None    Shift=    0.000
 RMSDP=2.92D-08 MaxDP=7.08D-07 DE=-5.57D-10 OVMax= 1.48D-06

 Cycle   7  Pass 1  IDiag  1:
 E= -362.974240756871     Delta-E=       -0.000000000005 Rises=F Damp=F
 DIIS: error= 1.12D-07 at cycle   7 NSaved=   7.
 NSaved= 7 IEnMin= 7 EnMin= -362.974240756871     IErMin= 7 ErrMin= 1.12D-07
 ErrMax= 1.12D-07  0.00D+00 EMaxC= 1.00D-01 BMatC= 1.75D-12 BMatP= 1.02D-11
 IDIUse=1 WtCom= 1.00D+00 WtEn= 0.00D+00
 Coeff-Com:  0.240D-03-0.581D-02-0.322D-02 0.147D-01 0.472D-01 0.383D+00
 Coeff-Com:  0.564D+00
 Coeff:      0.240D-03-0.581D-02-0.322D-02 0.147D-01 0.472D-01 0.383D+00
 Coeff:      0.564D+00
 Gap=     0.227 Goal=   None    Shift=    0.000
 RMSDP=1.03D-08 MaxDP=2.18D-07 DE=-5.34D-12 OVMax= 4.97D-07

 Cycle   8  Pass 1  IDiag  1:
 E= -362.974240756873     Delta-E=       -0.000000000002 Rises=F Damp=F
 DIIS: error= 3.23D-08 at cycle   8 NSaved=   8.
 NSaved= 8 IEnMin= 8 EnMin= -362.974240756873     IErMin= 8 ErrMin= 3.23D-08
 ErrMax= 3.23D-08  0.00D+00 EMaxC= 1.00D-01 BMatC= 1.78D-13 BMatP= 1.75D-12
 IDIUse=1 WtCom= 1.00D+00 WtEn= 0.00D+00
 Coeff-Com:  0.190D-03-0.340D-02-0.347D-02 0.134D-02 0.159D-01 0.157D+00
 Coeff-Com:  0.310D+00 0.522D+00
 Coeff:      0.190D-03-0.340D-02-0.347D-02 0.134D-02 0.159D-01 0.157D+00
 Coeff:      0.310D+00 0.522D+00
 Gap=     0.227 Goal=   None    Shift=    0.000
 RMSDP=2.94D-09 MaxDP=1.12D-07 DE=-2.39D-12 OVMax= 1.52D-07

 SCF Done:  E(RB3LYP) =  -362.974240757     A.U. after    8 cycles
            NFock=  8  Conv=0.29D-08     -V/T= 2.0092
 KE= 3.596813247030D+02 PE=-1.516274937054D+03 EE= 4.587740727976D+02
 Leave Link  502 at Thu Jul 22 19:06:17 2021, MaxMem= 17179869184 cpu:       191.0
 (Enter /vol2/users/liuj201281/hxd_yi/bin/Gaussian/g09/l701.exe)
 Compute integral first derivatives.
 ... and contract with generalized density number  0.
 Leave Link  701 at Thu Jul 22 19:06:17 2021, MaxMem= 17179869184 cpu:        52.0
 (Enter /vol2/users/liuj201281/hxd_yi/bin/Gaussian/g09/l702.exe)
 L702 exits ... SP integral derivatives will be done elsewhere.
 Leave Link  702 at Thu Jul 22 19:06:17 2021, MaxMem= 17179869184 cpu:         2.4
 (Enter /vol2/users/liuj201281/hxd_yi/bin/Gaussian/g09/l703.exe)
 Compute integral first derivatives, UseDBF=F ICtDFT=           0.
 Integral derivatives from FoFJK, PRISM(SPDF).
 Calling FoFJK, ICntrl=      2127 FMM=F ISym2X=0 I1Cent= 0 IOpClX= 0 NMat=1 NMatS=1 NMatT=0.
 FoFJK:  IHMeth= 1 ICntrl=    2127 DoSepK=F KAlg= 0 I1Cent=   0 FoldK=F
 IRaf=         0 NMat=   1 IRICut=       1 DoRegI=T DoRafI=F ISym2E= 0.
 FoFCou: FMM=F IPFlag=           0 FMFlag=      100000 FMFlg1=         800
         NFxFlg=           0 DoJE=F BraDBF=F KetDBF=F FulRan=T
         wScrn=  0.000000 ICntrl=    2127 IOpCl=  0 I1Cent=           0 NGrid=           0
         NMat0=    1 NMatS0=      1 NMatT0=    0 NMatD0=    1 NMtDS0=    0 NMtDT0=    0
 Symmetry not used in FoFCou.
 Leave Link  703 at Thu Jul 22 19:06:18 2021, MaxMem= 17179869184 cpu:        65.3
 (Enter /vol2/users/liuj201281/hxd_yi/bin/Gaussian/g09/l716.exe)
 Dipole        = 1.44993936D+00-3.28133602D-02-1.34642347D-04
 ***** Axes restored to original set *****
 -------------------------------------------------------------------
 Center     Atomic                   Forces (Hartrees/Bohr)
 Number     Number              X              Y              Z
 -------------------------------------------------------------------
      1        6           0.000062948   -0.000029719    0.000028185
      2        6          -0.000187005    0.000046677   -0.000020986
      3        6           0.000066179   -0.000002726   -0.000002829
      4        6           0.000066776   -0.000024652   -0.000021415
      5        7           0.000209120    0.000031708    0.000074623
      6        8          -0.000122325    0.000010039   -0.000027705
      7        8          -0.000113810   -0.000071181   -0.000024952
      8        1           0.000003908    0.000015094   -0.000012421
      9        1          -0.000001899    0.000004937   -0.000007515
     10        1           0.000005065    0.000008090    0.000002443
     11        1          -0.000003018   -0.000010289    0.000007135
     12        1           0.000007651    0.000011669    0.000000300
     13        1          -0.000002412   -0.000010213   -0.000005816
     14        1           0.000004043    0.000012169    0.000010501
     15        1           0.000006186    0.000004312   -0.000005857
     16        1          -0.000001405    0.000004085    0.000006311
 -------------------------------------------------------------------
 Cartesian Forces:  Max     0.000209120 RMS     0.000053897
 Leave Link  716 at Thu Jul 22 19:06:18 2021, MaxMem= 17179869184 cpu:         2.8
 (Enter /vol2/users/liuj201281/hxd_yi/bin/Gaussian/g09/l103.exe)

 GradGradGradGradGradGradGradGradGradGradGradGradGradGradGradGradGradGrad
 Berny optimization.
 Using GEDIIS/GDIIS optimizer.
 FormGI is forming the generalized inverse of G from B-inverse, IUseBI=4.
 Internal  Forces:  Max     0.000190837 RMS     0.000031079
 Search for a local minimum.
 Step number   2 out of a maximum of   85
 All quantities printed in internal units (Hartrees-Bohrs-Radians)
 RMS Force = .31079D-04 SwitMx=.10000D-02 MixMth= 2
 Mixed Optimization -- En-DIIS/RFO-DIIS
 Swapping is turned off.
 Update second derivatives using D2CorX and points    1    2
 DE= -3.11D-07 DEPred=-5.10D-07 R= 6.11D-01
 Trust test= 6.11D-01 RLast= 3.18D-03 DXMaxT set to 3.00D-01
 ITU=  0  0
     Eigenvalues ---    0.00230   0.00235   0.00315   0.00320   0.00421
     Eigenvalues ---    0.04675   0.05494   0.05503   0.05513   0.05566
     Eigenvalues ---    0.05719   0.05720   0.05800   0.05998   0.15014
     Eigenvalues ---    0.15313   0.15525   0.16000   0.16000   0.16000
     Eigenvalues ---    0.16000   0.16000   0.16000   0.16000   0.16143
     Eigenvalues ---    0.23894   0.25008   0.28753   0.29048   0.29770
     Eigenvalues ---    0.34023   0.34328   0.34337   0.34348   0.34374
     Eigenvalues ---    0.34455   0.34590   0.34626   0.34662   0.37506
     Eigenvalues ---    0.89830   0.92595
 En-DIIS/RFO-DIIS IScMMF=        0 using points:     2    1
 RFO step:  Lambda=-1.45899906D-07.
 NNeg= 0 NP= 2 Switch=  2.50D-03 Rises=F DC=  3.11D-07 SmlDif=  1.00D-05
 RMS Error=  0.9296978317D-04 NUsed= 2 EDIIS=F
 DidBck=T Rises=F RFO-DIIS coefs:    0.67914    0.32086
 Iteration  1 RMS(Cart)=  0.00140985 RMS(Int)=  0.00000567
 Iteration  2 RMS(Cart)=  0.00000486 RMS(Int)=  0.00000346
 Iteration  3 RMS(Cart)=  0.00000000 RMS(Int)=  0.00000346
 ITry= 1 IFail=0 DXMaxC= 7.67D-03 DCOld= 1.00D+10 DXMaxT= 3.00D-01 DXLimC= 3.00D+00 Rises=F
 Variable       Old X    -DE/DX   Delta X   Delta X   Delta X     New X
                                 (Linear)    (Quad)   (Total)
    R1        2.89917   0.00003  -0.00005   0.00019   0.00014   2.89932
    R2        2.06225  -0.00001   0.00001  -0.00005  -0.00004   2.06221
    R3        2.06767   0.00000  -0.00001   0.00001   0.00000   2.06767
    R4        2.06692   0.00000   0.00003  -0.00008  -0.00004   2.06687
    R5        2.88390   0.00001   0.00000   0.00002   0.00002   2.88392
    R6        2.89917   0.00003  -0.00004   0.00018   0.00014   2.89931
    R7        2.93084   0.00003   0.00039  -0.00092  -0.00053   2.93031
    R8        2.06316  -0.00001   0.00000  -0.00002  -0.00002   2.06314
    R9        2.06790   0.00001   0.00003  -0.00004  -0.00002   2.06788
   R10        2.06315  -0.00001  -0.00004   0.00007   0.00003   2.06319
   R11        2.06225  -0.00001   0.00001  -0.00004  -0.00004   2.06221
   R12        2.06691   0.00000   0.00003  -0.00006  -0.00003   2.06688
   R13        2.06767   0.00000  -0.00002   0.00003   0.00002   2.06768
   R14        2.32161   0.00004  -0.00006   0.00019   0.00013   2.32173
   R15        2.31779  -0.00001  -0.00002   0.00005   0.00003   2.31782
    A1        1.93291  -0.00002   0.00003  -0.00014  -0.00012   1.93280
    A2        1.93867  -0.00001   0.00000  -0.00005  -0.00005   1.93862
    A3        1.90496   0.00001   0.00010  -0.00022  -0.00012   1.90484
    A4        1.89925   0.00001  -0.00003   0.00010   0.00007   1.89932
    A5        1.89990   0.00001  -0.00006   0.00021   0.00014   1.90004
    A6        1.88721   0.00000  -0.00004   0.00012   0.00008   1.88729
    A7        1.95544  -0.00002  -0.00014   0.00013   0.00000   1.95543
    A8        1.94590   0.00000  -0.00001  -0.00019  -0.00020   1.94570
    A9        1.85032   0.00000   0.00006   0.00000   0.00007   1.85039
   A10        1.95544  -0.00002  -0.00012   0.00009  -0.00003   1.95541
   A11        1.89960   0.00003   0.00016  -0.00002   0.00013   1.89973
   A12        1.85033   0.00001   0.00008  -0.00002   0.00006   1.85039
   A13        1.94566  -0.00001  -0.00002   0.00002   0.00000   1.94566
   A14        1.89464   0.00001   0.00008  -0.00014  -0.00006   1.89458
   A15        1.94567  -0.00001   0.00000  -0.00005  -0.00005   1.94562
   A16        1.89481   0.00000  -0.00003   0.00008   0.00005   1.89485
   A17        1.88704   0.00001  -0.00001   0.00003   0.00003   1.88706
   A18        1.89483   0.00000  -0.00003   0.00007   0.00004   1.89487
   A19        1.93289  -0.00002   0.00001  -0.00009  -0.00008   1.93281
   A20        1.90494   0.00001   0.00009  -0.00017  -0.00008   1.90486
   A21        1.93867  -0.00001  -0.00002  -0.00001  -0.00002   1.93865
   A22        1.89993   0.00000  -0.00004   0.00013   0.00009   1.90001
   A23        1.89926   0.00001  -0.00001   0.00005   0.00004   1.89930
   A24        1.88721   0.00000  -0.00004   0.00010   0.00006   1.88728
   A25        2.03514   0.00008   0.00013  -0.00011   0.00001   2.03515
   A26        2.07015   0.00011   0.00015  -0.00008   0.00005   2.07020
   A27        2.17790  -0.00019  -0.00028   0.00019  -0.00011   2.17779
    D1        3.08077   0.00002   0.00025  -0.00006   0.00019   3.08096
    D2       -0.99503  -0.00002  -0.00003   0.00001  -0.00002  -0.99505
    D3        1.01088  -0.00001   0.00010  -0.00011  -0.00001   1.01087
    D4        0.96817   0.00003   0.00026  -0.00006   0.00021   0.96838
    D5       -3.10764  -0.00001  -0.00002   0.00002   0.00000  -3.10764
    D6       -1.10172  -0.00001   0.00011  -0.00010   0.00001  -1.10171
    D7       -1.11106   0.00003   0.00025  -0.00004   0.00021  -1.11084
    D8        1.09632  -0.00001  -0.00003   0.00004   0.00001   1.09633
    D9        3.10224  -0.00001   0.00010  -0.00008   0.00002   3.10226
   D10       -3.09580  -0.00001  -0.00009  -0.00003  -0.00013  -3.09592
   D11        1.10111  -0.00002  -0.00009  -0.00005  -0.00014   1.10096
   D12       -0.98520  -0.00002  -0.00011  -0.00001  -0.00012  -0.98533
   D13        0.98519   0.00002   0.00013   0.00005   0.00017   0.98537
   D14       -1.10109   0.00002   0.00012   0.00003   0.00015  -1.10093
   D15        3.09579   0.00002   0.00011   0.00007   0.00017   3.09596
   D16       -1.05531   0.00000   0.00000   0.00003   0.00003  -1.05528
   D17       -3.14159   0.00000   0.00000   0.00002   0.00002  -3.14157
   D18        1.05529   0.00000  -0.00002   0.00006   0.00003   1.05532
   D19        0.99506   0.00002   0.00001   0.00010   0.00011   0.99516
   D20       -1.09631   0.00001  -0.00001   0.00011   0.00010  -1.09621
   D21        3.10766   0.00001  -0.00001   0.00009   0.00008   3.10774
   D22       -3.08075  -0.00002  -0.00028   0.00020  -0.00008  -3.08084
   D23        1.11107  -0.00003  -0.00029   0.00020  -0.00009   1.11098
   D24       -0.96815  -0.00003  -0.00030   0.00019  -0.00011  -0.96826
   D25       -1.01086   0.00001  -0.00011   0.00021   0.00010  -1.01076
   D26       -3.10222   0.00001  -0.00012   0.00021   0.00009  -3.10213
   D27        1.10175   0.00001  -0.00012   0.00020   0.00007   1.10182
   D28       -1.03501  -0.00002  -0.00011  -0.00536  -0.00547  -1.04048
   D29        2.10607   0.00002   0.00006   0.00489   0.00495   2.11102
   D30       -3.14147  -0.00002  -0.00006  -0.00551  -0.00557   3.13614
   D31       -0.00039   0.00002   0.00010   0.00475   0.00485   0.00446
   D32        1.03524  -0.00002  -0.00005  -0.00560  -0.00564   1.02960
   D33       -2.10686   0.00002   0.00012   0.00466   0.00478  -2.10208
         Item               Value     Threshold  Converged?
 Maximum Force            0.000191     0.000450     YES
 RMS     Force            0.000031     0.000300     YES
 Maximum Displacement     0.007672     0.001800     NO 
 RMS     Displacement     0.001410     0.001200     NO 
 Predicted change in Energy=-3.240369D-07
 Lowest energy point so far.  Saving SCF results.
 GradGradGradGradGradGradGradGradGradGradGradGradGradGradGradGradGradGrad

 Leave Link  103 at Thu Jul 22 19:06:18 2021, MaxMem= 17179869184 cpu:        18.5
 (Enter /vol2/users/liuj201281/hxd_yi/bin/Gaussian/g09/l202.exe)
                          Input orientation:                          
 ---------------------------------------------------------------------
 Center     Atomic      Atomic             Coordinates (Angstroms)
 Number     Number       Type             X           Y           Z
 ---------------------------------------------------------------------
      1          6           0        0.977728   -0.754207    1.268638
      2          6           0        0.565162    0.004827    0.000732
      3          6           0        1.080152    1.441413    0.000252
      4          6           0        0.976300   -0.754507   -1.267456
      5          7           0       -0.985309    0.028510    0.001605
      6          8           0       -1.552250   -1.061457   -0.003921
      7          8           0       -1.556185    1.114084   -0.003016
      8          1           0        0.548024   -1.757298    1.275612
      9          1           0        0.651240   -0.224027    2.168366
     10          1           0        2.067971   -0.836306    1.298664
     11          1           0        0.743073    1.986608   -0.883546
     12          1           0        2.174201    1.419059   -0.000384
     13          1           0        0.744081    1.986803    0.884343
     14          1           0        0.546503   -1.757561   -1.273777
[...]
 ! D8    D(10,1,2,4)            62.8114         -DE/DX =    0.0                 !
 ! D9    D(10,1,2,5)           177.7496         -DE/DX =    0.0                 !
 ! D10   D(1,2,3,11)          -177.3911         -DE/DX =    0.0                 !
 ! D11   D(1,2,3,12)            63.0725         -DE/DX =    0.0                 !
 ! D12   D(1,2,3,13)           -56.4641         -DE/DX =    0.0                 !
 ! D13   D(4,2,3,11)            56.4645         -DE/DX =    0.0                 !
 ! D14   D(4,2,3,12)           -63.072          -DE/DX =    0.0                 !
 ! D15   D(4,2,3,13)           177.3914         -DE/DX =    0.0                 !
 ! D16   D(5,2,3,11)           -60.4635         -DE/DX =    0.0                 !
 ! D17   D(5,2,3,12)           180.0001         -DE/DX =    0.0                 !
 ! D18   D(5,2,3,13)            60.4635         -DE/DX =    0.0                 !
 ! D19   D(1,2,4,14)            57.0177         -DE/DX =    0.0                 !
 ! D20   D(1,2,4,15)           -62.81           -DE/DX =    0.0                 !
 ! D21   D(1,2,4,16)           178.0587         -DE/DX =    0.0                 !
 ! D22   D(3,2,4,14)          -176.5379         -DE/DX =    0.0                 !
 ! D23   D(3,2,4,15)            63.6344         -DE/DX =    0.0                 !
 ! D24   D(3,2,4,16)           -55.4969         -DE/DX =    0.0                 !
 ! D25   D(5,2,4,14)           -57.9202         -DE/DX =    0.0                 !
 ! D26   D(5,2,4,15)          -177.7479         -DE/DX =    0.0                 !
 ! D27   D(5,2,4,16)            63.1208         -DE/DX =    0.0                 !
 ! D28   D(1,2,5,6)            -59.3099         -DE/DX =    0.0                 !
 ! D29   D(1,2,5,7)            120.6906         -DE/DX =    0.0                 !
 ! D30   D(3,2,5,6)           -180.0055         -DE/DX =    0.0                 !
 ! D31   D(3,2,5,7)             -0.005          -DE/DX =    0.0                 !
 ! D32   D(4,2,5,6)             59.2993         -DE/DX =    0.0                 !
 ! D33   D(4,2,5,7)           -120.7002         -DE/DX =    0.0                 !
 --------------------------------------------------------------------------------
 GradGradGradGradGradGradGradGradGradGradGradGradGradGradGradGradGradGrad

 Leave Link  103 at Thu Jul 22 19:06:45 2021, MaxMem= 17179869184 cpu:        14.8
 (Enter /vol2/users/liuj201281/hxd_yi/bin/Gaussian/g09/l9999.exe)
 1\1\GINC-FN1\Freq\RB3LYP\6-31G(d,p)\C4H9N1O2\LIUJ201281\22-Jul-2021\0\
 \#P Geom=AllCheck Guess=TCheck SCRF=Check GenChk RB3LYP/6-31G(d,p) Fre
 q\\Frag_44\\0,1\C,0.9770238099,-0.754166343,1.2681437544\C,0.565072110
 2,0.0048263903,0.0000292332\C,1.0802894338,1.4413361498,-0.00012578\C,
 0.9770802916,-0.7544460865,-1.2678978814\N,-0.9855615219,0.0284881023,
 -0.0000005222\O,-1.552636631,-1.0613974288,0.0000095265\O,-1.556634794
 5,1.1139579353,-0.0000404007\H,0.5474170368,-1.7573023548,1.2748855413
 \H,0.649977237,-0.2240301485,2.1676910752\H,2.067267218,-0.8362020364,
 1.2988495992\H,0.7438083484,1.9865715515,-0.8841223528\H,2.1743488509,
 1.418889234,-0.0001061566\H,0.7437667539,1.9867647995,0.8837495093\H,0
 .5474601596,-1.7575751119,-1.2744551317\H,2.0673248785,-0.8365106275,-
 1.2985240768\H,0.6500968187,-0.2245040253,-2.1675859369\\Version=ES64L
 -G09RevD.01\State=1-A\HF=-362.9742409\RMSD=2.956e-09\RMSF=1.693e-05\Ze
 roPoint=0.1347563\Thermal=0.1427388\Dipole=1.4504978,-0.0329666,0.0000
 418\DipoleDeriv=0.0082034,-0.0236885,0.02014,-0.0357155,-0.0039915,0.0
 347374,0.0254232,0.0257047,0.0320569,0.2445488,0.0611011,-0.0000183,0.
 0937651,0.2621232,0.0000007,-0.0000283,-0.0000032,0.276295,0.0447428,0
 .0025692,-0.0000029,-0.0365983,-0.0470792,0.0000085,0.0000077,0.000011
 1,0.0259054,0.0082143,-0.0236946,-0.0201359,-0.0357214,-0.0040151,-0.0
 347396,-0.0254062,-0.0257037,0.0320689,1.0309641,-0.0420028,0.0000342,
 -0.0239617,1.4066153,-0.0000312,0.0000263,-0.0000297,0.06732,-0.681039
 4,-0.3381969,0.0000022,-0.0723352,-0.8716433,0.0000118,-0.0000052,0.00
 00042,-0.2475414,-0.6657376,0.3364979,-0.0000153,0.0722853,-0.8713101,
 0.0000191,-0.0000114,0.0000259,-0.1843772,0.0712738,-0.0648437,0.00613
 41,-0.041342,-0.0559653,0.0218963,-0.0082322,-0.0074956,0.0497109,0.05
 37607,0.0363425,0.045407,0.0356841,0.0120776,-0.079326,0.0209263,-0.04
 16113,-0.0844861,-0.1182915,0.0217424,-0.0124858,0.0164444,0.0759742,0
 .011704,-0.0019117,0.0101417,0.0503594,0.0634807,0.0293251,-0.0476388,
 0.0002302,0.006085,0.0517023,-0.0388238,0.0686378,-0.0524424,-0.130352
 1,-0.0177314,-0.0000024,0.0162379,0.0529589,0.0000031,-0.0000043,0.000
 0037,0.0719878,0.0634851,0.0293419,0.0476368,0.000243,0.0060607,-0.051
 7148,0.0388273,-0.0686496,-0.0524119,0.0712807,-0.0648435,-0.0061223,-
 0.0413397,-0.0559631,-0.0218725,0.00824,0.0075133,0.0497144,-0.1182972
 ,0.0217513,0.0124726,0.0164475,0.0759707,-0.0117066,0.0018971,-0.01014
 54,0.0503626,0.0537633,0.03633,-0.0454051,0.0356761,0.0121019,0.079307
 6,-0.0209247,0.0415962,-0.0845223\Polar=57.4077,-0.4426887,61.5159263,
 0.0001494,-0.0002328,49.6881967\PG=C01 [X(C4H9N1O2)]\NImag=0\\0.579677
 87,0.02297980,0.56547491,-0.02946907,0.05239793,0.50361352,-0.08015422
 ,0.00810533,-0.01763885,0.36723026,0.00792162,-0.10330061,0.04116389,0
 .01774287,0.53820899,-0.01960112,0.04138482,-0.14658108,-0.00000518,-0
 .00000357,0.48092965,0.00634670,0.00810811,0.00130540,-0.08366574,-0.0
 2349693,0.00000235,0.56894801,-0.00511033,-0.02147354,0.00559238,-0.03
 270053,-0.18075362,0.00001052,-0.04479612,0.49637289,0.00995033,0.0287
 4128,-0.00140572,0.00000401,0.00001208,-0.08116552,0.00000976,-0.00000
 103,0.59887501,0.00521640,-0.00520402,-0.00687364,-0.08015538,0.007927
 37,0.01960161,0.00634743,-0.00511268,-0.00994915,0.57967157,-0.0052030
 7,0.00872130,0.01275705,0.00811133,-0.10331856,-0.04139396,0.00810901,
 -0.02148203,-0.02873728,0.02299089,0.56545487,0.00687666,-0.01276622,-
 0.03308362,0.01764108,-0.04117433,-0.14656255,-0.00130667,-0.00558872,
 -0.00139899,0.02946579,-0.05240395,0.50364209,-0.02193924,0.01197820,-
 0.01463441,-0.07247768,-0.00613723,0.00000218,-0.02180719,-0.01085937,
 0.00000020,-0.02194137,0.01198161,0.01462965,0.64110175,0.01810178,0.0
 0032662,0.00072391,-0.00197920,-0.07612039,-0.00000051,-0.03447290,0.0
 0158584,-0.00000069,0.01810901,0.00032612,-0.00072282,-0.00501718,0.99
 392618,-0.03703299,0.00221408,0.00011953,-0.00000007,-0.00000039,-0.09
 542700,0.00000397,-0.00000054,-0.00122552,0.03702713,-0.00221325,0.000
 12260,0.00000960,-0.00001736,0.25090931,-0.00244190,-0.00208942,0.0012
 3050,-0.01705543,-0.03976053,0.00000046,-0.00970094,0.00330859,-0.0000
 0067,-0.00244249,-0.00208927,-0.00122972,-0.25431150,-0.19280598,0.000
 00059,0.24043447,0.00181419,-0.00277354,0.00287079,-0.01628516,-0.0118
 7867,-0.00000015,-0.00315590,0.00085196,-0.00000007,0.00181529,-0.0027
 7442,-0.00287034,-0.19874366,-0.44521664,0.00000381,0.22504742,0.57141
 656,0.00116074,0.00118750,-0.00043346,0.00000019,-0.00000098,0.0163688
 3,-0.00000037,0.00000058,0.00210369,-0.00115971,-0.00118737,-0.0004330
 9,0.00000015,0.00000326,-0.07420574,-0.00000191,-0.00000623,0.02998537
 ,-0.00571636,-0.00025691,0.00324304,-0.01495380,0.03706223,-0.00000128
 ,-0.00435165,0.00251417,-0.00000061,-0.00571717,-0.00025768,-0.0032431
 8,-0.25979775,0.19813266,-0.00000851,0.05093554,-0.01122849,0.00000062
 ,0.24449302,0.00170047,0.00011950,-0.00216864,0.01482261,-0.01287004,0
 .00000166,-0.00447140,-0.00183253,-0.00000030,0.00170051,0.00011993,0.
 00216829,0.20289671,-0.45179371,0.00001337,0.01251457,-0.11951074,0.00
 000372,-0.22797716,0.57805472,0.00346598,0.00010728,-0.00179516,-0.000
 00076,0.00000229,0.02274769,-0.00000009,-0.00000024,-0.00189082,-0.003
 46576,-0.00010794,-0.00179541,-0.00000918,0.00001396,-0.07076780,0.000
 00019,0.00000283,0.02524389,0.00000976,-0.00001839,0.02332549,-0.09099
 741,-0.10247289,0.00183844,0.00273814,0.00988959,-0.00024100,-0.000788
 96,0.00077481,-0.00142001,-0.00005957,-0.00026905,0.00042237,0.0013181
 0,0.00216064,0.00080305,-0.00204669,-0.00040559,-0.00071077,0.00007195
 ,-0.00084816,-0.00028555,0.09497174,-0.09915410,-0.27962588,-0.0007941
 2,-0.00554126,-0.01581623,-0.00000592,0.00189024,-0.00034479,0.0034531
 9,0.00014644,0.00062064,-0.00116319,-0.00262187,-0.00397868,-0.0002571
 0,-0.00005624,0.00293777,-0.00139225,0.00017528,0.00133990,0.00016832,
 0.10959165,0.30158392,-0.00008127,-0.00354054,-0.04924695,0.01223122,0
 .02584674,-0.00039492,-0.00248426,0.00174961,-0.00467028,0.00050337,0.
 00084412,0.00168053,0.00157410,0.00160747,0.00079588,-0.00044417,-0.00
 133402,-0.00030778,-0.00005129,-0.00073608,0.00014136,0.00055105,-0.00
 085631,0.05212959,-0.07382677,0.03982466,0.06726270,0.00116551,-0.0051
 7232,-0.00944460,-0.00021919,-0.00018261,0.00039564,-0.00032037,0.0010
 4767,-0.00148966,0.00148028,-0.00083774,-0.00069415,-0.00033379,-0.000
 07605,0.00023395,0.00004472,0.00015485,0.00024512,0.00432742,-0.005883
 59,-0.01186499,0.07462645,0.04037435,-0.11545547,-0.10855989,-0.006153
 14,0.00790290,0.01405739,-0.00042447,0.00129107,0.00056302,0.00113854,
 -0.00156702,0.00264270,-0.00055677,0.00109696,-0.00050256,-0.00040552,
 -0.00002620,0.00010693,-0.00026213,-0.00007402,-0.00009613,0.01113233,
 -0.01245584,-0.02395662,-0.04496659,0.12031739,0.06572604,-0.10625855,
 -0.22462296,0.00795268,-0.01385804,-0.02219413,0.00007611,-0.00167084,
 0.00086431,-0.00258329,0.00409309,-0.00369833,0.00250243,-0.00116175,0
 .00015740,-0.00078038,-0.00018470,0.00020083,-0.00075562,0.00094710,0.
 00015860,-0.00059124,0.00072688,0.00127861,-0.07129767,0.11542689,0.24
 594049,-0.31501327,0.01906920,-0.00587282,-0.00982063,-0.00009233,0.00
 048664,-0.00008908,-0.00060327,0.00058636,0.00020845,-0.00021287,0.000
 88563,0.00123309,-0.00075880,-0.00125754,-0.00005310,0.00095262,-0.000
 29741,-0.00048451,0.00071388,0.00000655,-0.01060083,0.00192507,0.00007
 732,-0.00811883,-0.00004974,-0.00048790,0.34086476,0.01864520,-0.04851
 729,-0.00005178,0.01752095,-0.00255712,0.00112054,0.00027071,0.0004108
 3,-0.00049713,-0.00031507,0.00025334,-0.00093911,-0.00191863,-0.003409
 16,0.00376364,0.00004054,0.00163350,-0.00120123,0.00122592,0.00013899,
 -0.00068915,-0.02994059,0.00509692,-0.00056218,0.01632980,-0.00157089,
 0.00131876,-0.02103955,0.04872906,-0.00393393,0.00025958,-0.04735879,-
 0.02805275,0.00089662,-0.00152850,0.00003815,-0.00078926,0.00073853,-0
 .00046483,-0.00035804,0.00143453,0.00065329,0.00277154,-0.00580764,-0.
 00088429,-0.00042956,0.00082039,-0.00208092,0.00096044,0.00093498,-0.0
 0004614,-0.00028275,-0.00116628,0.02709394,-0.00070075,0.00193540,0.00
 652991,-0.00257005,0.05045662,-0.00100139,-0.00202653,-0.00006290,0.00
 262514,-0.00608858,0.01090793,-0.07322503,0.04314386,-0.07154263,-0.00
 005111,0.00039700,0.00008307,0.00107052,-0.00124723,0.00071790,0.00019
 922,0.00069046,-0.00008822,-0.00174495,0.00025344,0.00017657,0.0005553
 7,-0.00057311,0.00043755,-0.00007540,0.00004132,-0.00026022,0.00030893
 ,-0.00019626,0.00006930,0.07654208,-0.00338566,-0.00545420,-0.00150060
 ,0.01099997,-0.01520027,0.02608295,0.04106742,-0.11399531,0.10683022,0
 .00042820,0.00140678,0.00158567,0.00175015,-0.00142096,0.00033688,0.00
 003697,0.00072472,-0.00019119,-0.00047850,0.00156799,-0.00060487,0.000
 52002,-0.00083772,0.00179878,-0.00016054,0.00012593,0.00005574,0.00004
 341,0.00021593,-0.00033261,-0.04462391,0.12448247,0.00046832,0.0002585
 3,0.00073674,0.00146737,-0.00076863,-0.00005301,-0.06968815,0.10882853
 ,-0.22969542,0.00032454,-0.00062219,0.00070870,-0.00137063,0.00251360,
 0.00012760,0.00030570,-0.00095587,-0.00014491,-0.00032929,-0.00192057,
 0.00076179,-0.00029904,0.00013427,0.00023154,-0.00012963,-0.00019285,0
 .00041167,-0.00006717,-0.00015679,-0.00001804,0.07749646,-0.11833324,0
 .24476691,0.00007218,0.00102167,-0.00042663,-0.01218468,0.00166747,-0.
 00000020,-0.31346624,0.00647441,-0.00000530,0.00007215,0.00102177,0.00
 042642,0.00096923,0.00129822,0.00000011,-0.00094759,-0.00158741,0.,-0.
 00066528,-0.00173399,0.00000010,0.00030080,-0.00009873,-0.00006842,-0.
 00001797,-0.00006904,-0.00003347,0.00070001,-0.00033231,0.00027158,-0.
 00821983,0.00003654,0.00068592,0.34062464,-0.00008296,0.00124583,-0.00
 030522,-0.03147353,0.00138658,-0.00000086,0.00855219,-0.04794893,0.000
 00028,-0.00008298,0.00124586,0.00030485,0.00059618,-0.00760749,0.00000
 087,-0.00335643,-0.00065585,-0.00000012,0.00068903,0.00176636,-0.00000
 014,0.00015547,0.00020715,-0.00032401,0.00003190,-0.00008484,0.0000824
 0,0.00016321,-0.00049274,0.00047786,0.01584340,-0.00039901,-0.00189490
 ,-0.00723501,0.05210638,0.00025028,-0.00002857,-0.00006895,0.00000303,
 -0.00000050,-0.00198164,-0.00000488,0.00000027,-0.04843315,-0.00025020
 ,0.00002827,-0.00006906,0.00000015,0.00000059,-0.00007338,0.00000029,0
 .00000014,0.00023421,0.00000010,0.00000005,0.00093925,-0.00012205,-0.0
 0012658,-0.00007629,0.00017466,0.00003293,-0.00001583,0.00002095,0.000
 51010,0.00005622,-0.02683685,-0.00103864,0.00133902,0.00000575,-0.0000
 0104,0.04684587,-0.00005099,0.00039690,-0.00008325,0.00262610,-0.00609
 077,-0.01090612,-0.07323059,0.04316012,0.07153372,-0.00100143,-0.00202
 645,0.00006325,0.00107025,-0.00124739,-0.00071764,0.00019928,0.0006907
 0,0.00008818,-0.00174586,0.00025313,-0.00017671,-0.00005625,-0.0000146
 7,-0.00016352,0.00029932,0.00014319,-0.00001082,-0.00000882,0.00011239
 ,0.00014307,0.00278212,-0.00585623,-0.00886871,-0.00822016,0.01584904,
 0.02683231,0.07654812,0.00042816,0.00140656,-0.00158555,0.01100072,-0.
 01520673,-0.02607890,0.04108305,-0.11403809,-0.10684352,-0.00338595,-0
 .00545403,0.00150181,0.00175031,-0.00142213,-0.00033679,0.00003691,0.0
 0072522,0.00019106,-0.00047833,0.00156882,0.00060502,-0.00022115,0.000
 38916,0.00022244,-0.00016125,-0.00028390,0.00118014,0.00000454,-0.0001
 2725,0.00007836,-0.00585468,0.00880678,0.01320159,0.00003636,-0.000398
 63,0.00103929,-0.04464184,0.12453038,-0.00032461,0.00062211,0.00070890
 ,-0.00146954,0.00077107,-0.00004846,0.06967907,-0.10884039,-0.22962932
 ,-0.00046769,-0.00025734,0.00073645,0.00137038,-0.00251353,0.00012779,
 -0.00030571,0.00095588,-0.00014498,0.00032956,0.00192057,0.00076139,-0
 .00004940,-0.00005819,0.00012318,0.00015444,0.00008061,0.00038695,-0.0
 0010948,0.00006919,-0.00000802,0.00887082,-0.01320833,-0.01967523,-0.0
 0068635,0.00189608,0.00133947,-0.07748728,0.11834673,0.24469640,-0.000
 05961,-0.00026910,-0.00042230,0.00273921,0.00989086,0.00023880,-0.0007
 8928,0.00077521,0.00142009,-0.09099953,-0.10247818,-0.00181944,0.00131
 815,0.00216045,-0.00080328,-0.00204798,-0.00040521,0.00071120,0.000072
 05,-0.00084842,0.00028548,0.00038861,-0.00006412,-0.00006314,-0.000078
 90,0.00017033,-0.00003725,-0.00004350,-0.00017356,-0.00005019,-0.00005
 625,-0.00022114,0.00004943,0.00030077,0.00015546,0.00012202,0.00055540
 ,0.00052022,0.00029897,0.09497578,0.00014628,0.00062069,0.00116364,-0.
 00554416,-0.01582160,0.00000923,0.00189094,-0.00034599,-0.00345416,-0.
 09915868,-0.27962639,0.00083572,-0.00262235,-0.00397936,0.00025738,-0.
 00005651,0.00293859,0.00139207,0.00017527,0.00134026,-0.00016836,-0.00
 006390,0.00070804,-0.00049451,0.00021327,0.00016448,0.00007027,0.00006
 575,0.00001122,-0.00002983,-0.00001463,0.00038913,0.00005813,-0.000098
 72,0.00020726,0.00012652,-0.00057321,-0.00083817,-0.00013408,0.1095966
 9,0.30158529,-0.00050349,-0.00084411,0.00168033,-0.01223055,-0.0258418
 4,-0.00038955,0.00248401,-0.00175052,-0.00466893,0.00009967,0.00358199
 ,-0.04924932,-0.00157342,-0.00160642,0.00079570,0.00044450,0.00133327,
 -0.00030838,0.00005120,0.00073589,0.00014144,0.00006285,0.00049420,-0.
 00067139,0.00019101,0.00025375,0.00024467,-0.00003748,0.00001115,-0.00
 009152,0.00016352,-0.00022253,0.00012322,0.00006845,0.00032396,-0.0000
 7639,-0.00043742,-0.00179855,0.00023196,-0.00057131,0.00081041,0.05213
 049,0.00020850,-0.00021313,-0.00088574,-0.00982204,-0.00009236,-0.0004
 8726,-0.00008913,-0.00060342,-0.00058613,-0.31501031,0.01907567,0.0058
 5371,0.00123293,-0.00075896,0.00125760,-0.00005325,0.00095293,0.000297
 48,-0.00048470,0.00071419,-0.00000663,-0.00004350,0.00006576,0.0000374
 9,0.00037378,0.00000951,0.00004354,0.00054358,-0.00019043,0.00042003,-
 0.00000883,0.00000456,0.00010945,0.00069999,0.00016307,-0.00002095,0.0
 0030891,0.00004342,0.00006719,-0.01060163,0.00192526,-0.00007834,0.340
 86264,-0.00031499,0.00025365,0.00093933,0.01752709,-0.00255799,-0.0011
 1960,0.00027051,0.00041108,0.00049714,0.01865156,-0.04851806,0.0000532
 1,-0.00191879,-0.00341063,-0.00376435,0.00004033,0.00163382,0.00120131
 ,0.00122654,0.00013888,0.00068932,-0.00017355,0.00001123,-0.00001118,-
 0.00003918,-0.00019828,0.00012523,-0.00019060,0.00038295,0.00000080,0.
 00011237,-0.00012722,-0.00006911,-0.00033211,-0.00049310,-0.00050992,-
 0.00019629,0.00021604,0.00015671,-0.02994040,0.00509770,0.00055904,-0.
 02104659,0.04873143,0.00046492,0.00035834,0.00143429,0.02804789,-0.000
 89672,-0.00152638,-0.00003829,0.00078928,0.00073811,0.00391467,-0.0002
 5854,-0.04735914,-0.00065228,-0.00277214,-0.00580592,0.00088410,0.0004
 2925,0.00082014,0.00208080,-0.00096031,0.00093481,0.00005024,0.0000298
 3,-0.00009154,-0.00029375,-0.00004753,0.00035238,-0.00041999,-0.000000
 86,-0.00075028,-0.00014310,-0.00007832,-0.00000799,-0.00027139,-0.0004
 7765,0.00005646,-0.00006923,0.00033255,-0.00001814,0.00005204,0.000281
 58,-0.00116644,-0.00650873,0.00256914,0.05045563,-0.00032050,0.0010481
 2,0.00148954,0.00116524,-0.00517096,0.00944679,-0.00021912,-0.00018282
 ,-0.00039559,-0.07381727,0.03980164,-0.06725895,0.00148042,-0.00083738
 ,0.00069424,-0.00033385,-0.00007615,-0.00023411,0.00004474,0.00015477,
 -0.00024506,-0.00007891,0.00021324,-0.00019106,0.00067372,-0.00012218,
 0.00053709,0.00037376,-0.00003910,0.00029378,0.00029940,-0.00016128,-0
 .00015456,-0.00001802,0.00003196,-0.00017462,-0.00007542,-0.00016051,0
 .00012964,0.00432670,-0.00588129,0.01186682,-0.00811695,0.01632409,-0.
 02709792,0.07461607,0.00113924,-0.00156853,-0.00264311,-0.00615391,0.0
 0790336,-0.01406363,-0.00042444,0.00129118,-0.00056303,0.04035157,-0.1
 1540835,0.10853642,-0.00055731,0.00109743,0.00050232,-0.00040544,-0.00
 002608,-0.00010705,-0.00026190,-0.00007430,0.00009619,0.00017036,0.000
 16442,-0.00025372,-0.00012227,0.00081774,-0.00089263,0.00000950,-0.000
 19829,0.00004765,0.00014307,-0.00028503,-0.00008052,-0.00006911,-0.000
 08484,-0.00003292,0.00004137,0.00012597,0.00019290,0.01113090,-0.01245
 116,0.02396032,-0.00004949,-0.00157149,0.00070210,-0.04494215,0.120267
 96,0.00258322,-0.00409346,-0.00369662,-0.00794977,0.01385231,-0.022193
 42,-0.00007613,0.00167038,0.00086401,-0.06572248,0.10623533,-0.2246753
 8,-0.00250221,0.00116089,0.00015718,0.00078052,0.00018498,0.00020099,0
 .00075562,-0.00094681,0.00015850,0.00003721,-0.00007027,0.00024475,-0.
 00053699,0.00089213,-0.00140006,-0.00004355,-0.00012510,0.00035240,0.0
 0001079,-0.00117993,0.00038740,0.00003342,-0.00008235,-0.00001580,0.00
 026019,-0.00005568,0.00041167,0.00058889,-0.00072402,0.00127410,0.0004
 8728,-0.00131708,0.00193400,0.07129398,-0.11540129,0.24599630\\-0.0000
 2132,0.00000080,-0.00000849,0.00007823,-0.00000739,0.00000182,-0.00001
 630,0.00000148,-0.00000748,-0.00002254,0.00000094,0.00001095,-0.000062
 05,-0.00000200,0.00000282,0.00002705,-0.00000174,-0.00000148,0.0000279
 2,0.00001999,-0.00000090,-0.00000378,-0.00000119,0.00000085,-0.0000008
 6,0.00000083,0.00000202,-0.00000556,-0.00000372,-0.00000332,0.00000581
 ,0.00000057,-0.00000013,0.00000068,-0.00000812,-0.00000061,0.00000209,
 0.00000309,0.00000637,-0.00000306,-0.00000008,-0.00000158,-0.00000510,
 -0.00000437,0.00000318,-0.00000121,0.00000091,-0.00000403\\\@


 IT IS THE BEHAVIOR AND DISTRIBUTION OF THE ELECTRONS 
 AROUND THE NUCLEUS THAT GIVES THE FUNDAMENTAL 
 CHARACTER OF AN ATOM:  IT MUST BE THE SAME FOR MOLECULES.

                               -- C. A. COULSON, 1951
 Job cpu time:       0 days  0 hours 30 minutes  1.7 seconds.
 File lengths (MBytes):  RWF=     44 Int=      0 D2E=      0 Chk=      3 Scr=      1
 Normal termination of Gaussian 09 at Thu Jul 22 19:06:45 2021.
