 Entering Gaussian System, Link 0=g09
 Input=B3LYP6-31Gdp.Frag_1089.gjf
 Output=B3LYP6-31Gdp.Frag_1089.log
 Initial command:
 /public/home/users/caep010/software/Gaussian09/g09/l1.exe "/public/home/users/caep010/.cache/gau_scr/Gau-122958.inp" -scrdir="/public/home/users/caep010/.cache/gau_scr/"
 Entering Link 1 = /public/home/users/caep010/software/Gaussian09/g09/l1.exe PID=    122959.
  
 Copyright (c) 1988,1990,1992,1993,1995,1998,2003,2009,2015,
            Gaussian, Inc.  All Rights Reserved.
  
 This is part of the Gaussian(R) 09 program.  It is based on
 the Gaussian(R) 03 system (copyright 2003, Gaussian, Inc.),
 the Gaussian(R) 98 system (copyright 1998, Gaussian, Inc.),
 the Gaussian(R) 94 system (copyright 1995, Gaussian, Inc.),
 the Gaussian 92(TM) system (copyright 1992, Gaussian, Inc.),
 the Gaussian 90(TM) system (copyright 1990, Gaussian, Inc.),
 the Gaussian 88(TM) system (copyright 1988, Gaussian, Inc.),
 the Gaussian 86(TM) system (copyright 1986, Carnegie Mellon
 University), and the Gaussian 82(TM) system (copyright 1983,
 Carnegie Mellon University). Gaussian is a federally registered
 trademark of Gaussian, Inc.
  
 This software contains proprietary and confidential information,
 including trade secrets, belonging to Gaussian, Inc.
  
 This software is provided under written license and may be
 used, copied, transmitted, or stored only in accord with that
 written license.
  
 The following legend is applicable only to US Government
 contracts under FAR:
  
                    RESTRICTED RIGHTS LEGEND
  
 Use, reproduction and disclosure by the US Government is
 subject to restrictions as set forth in subparagraphs (a)
 and (c) of the Commercial Computer Software - Restricted
 Rights clause in FAR 52.227-19.
  
 Gaussian, Inc.
 340 Quinnipiac St., Bldg. 40, Wallingford CT 06492
  
  
 ---------------------------------------------------------------
 Warning -- This program may not be used in any manner that
 competes with the business of Gaussian, Inc. or will provide
 assistance to any competitor of Gaussian, Inc.  The licensee
 of this program is prohibited from giving any competitor of
 Gaussian, Inc. access to this program.  By using this program,
 the user acknowledges that Gaussian, Inc. is engaged in the
 business of creating and licensing software in the field of
 computational chemistry and represents and warrants to the
 licensee that it is not a competitor of Gaussian, Inc. and that
 it will not use this program in any manner prohibited above.
 ---------------------------------------------------------------
  

 Cite this work as:
 Gaussian 09, Revision E.01,
 M. J. Frisch, G. W. Trucks, H. B. Schlegel, G. E. Scuseria, 
 M. A. Robb, J. R. Cheeseman, G. Scalmani, V. Barone, B. Mennucci, 
 G. A. Petersson, H. Nakatsuji, M. Caricato, X. Li, H. P. Hratchian, 
 A. F. Izmaylov, J. Bloino, G. Zheng, J. L. Sonnenberg, M. Hada, 
 M. Ehara, K. Toyota, R. Fukuda, J. Hasegawa, M. Ishida, T. Nakajima, 
 Y. Honda, O. Kitao, H. Nakai, T. Vreven, J. A. Montgomery, Jr., 
 J. E. Peralta, F. Ogliaro, M. Bearpark, J. J. Heyd, E. Brothers, 
 K. N. Kudin, V. N. Staroverov, T. Keith, R. Kobayashi, J. Normand, 
 K. Raghavachari, A. Rendell, J. C. Burant, S. S. Iyengar, J. Tomasi, 
 M. Cossi, N. Rega, J. M. Millam, M. Klene, J. E. Knox, J. B. Cross, 
 V. Bakken, C. Adamo, J. Jaramillo, R. Gomperts, R. E. Stratmann, 
 O. Yazyev, A. J. Austin, R. Cammi, C. Pomelli, J. W. Ochterski, 
 R. L. Martin, K. Morokuma, V. G. Zakrzewski, G. A. Voth, 
 P. Salvador, J. J. Dannenberg, S. Dapprich, A. D. Daniels, 
 O. Farkas, J. B. Foresman, J. V. Ortiz, J. Cioslowski, 
 and D. J. Fox, Gaussian, Inc., Wallingford CT, 2013.
 
 ******************************************
 Gaussian 09:  ES64L-G09RevE.01 30-Nov-2015
                 8-Sep-2022 
 ******************************************
 %nproc=32
 Will use up to   32 processors via shared memory.
 %mem=180GB
 %chk=B3LYP6-31Gdp.Frag_1089.chk
 ----------------------------
 #P OPT Freq B3LYP/6-31G(d,p)
 ----------------------------
 1/14=-1,18=20,19=15,26=3,38=1/1,3;
 2/9=110,12=2,17=6,18=5,40=1/2;
 3/5=1,6=6,7=101,11=2,16=1,25=1,30=1,71=1,74=-5/1,2,3;
 4//1;
 5/5=2,38=5/2;
 6/7=2,8=2,9=2,10=2,28=1/1;
 7//1,2,3,16;
 1/14=-1,18=20,19=15,26=3/3(2);
 2/9=110/2;
 99//99;
 2/9=110/2;
 3/5=1,6=6,7=101,11=2,16=1,25=1,30=1,71=1,74=-5/1,2,3;
 4/5=5,16=3,69=1/1;
 5/5=2,38=5/2;
 7//1,2,3,16;
 1/14=-1,18=20,19=15,26=3/3(-5);
 2/9=110/2;
 6/7=2,8=2,9=2,10=2,19=2,28=1/1;
 99/9=1/99;
 Leave Link    1 at Thu Sep  8 14:51:22 2022, MaxMem= 24159191040 cpu:         2.3
 (Enter /public/home/users/caep010/software/Gaussian09/g09/l101.exe)
 ---------
 Frag_1089
 ---------
 Symbolic Z-matrix:
 Charge =  0 Multiplicity = 1
 C                    -0.75614  -1.01299   1.07183 
 N                    -0.68197  -0.25116  -0.16451 
 C                    -1.60789   0.87537  -0.13471 
 C                     0.69373   0.09891  -0.56537 
 N                     1.49993   0.84238   0.41074 
 N                     1.43575  -1.0921   -0.92169 
 O                     0.55778   0.92273  -1.7003 
 H                    -0.05882  -1.85426   1.04734 
 H                    -0.54156  -0.41463   1.97919 
 H                    -1.76679  -1.41698   1.18612 
 H                    -2.61862   0.4958    0.04582 
 H                    -1.5947    1.3922   -1.09249 
 H                    -1.38059   1.60469   0.66564 
 H                     1.19727   1.81019   0.39892 
 H                     1.35768   0.48592   1.35176 
 H                     0.81393  -1.86398  -1.1269 
 H                     2.11629  -1.344    -0.21854 
 H                     1.33472   0.72202  -2.23274 
 
 NAtoms=     18 NQM=       18 NQMF=       0 NMMI=      0 NMMIF=      0
                NMic=       0 NMicF=      0.
                    Isotopes and Nuclear Properties:
 (Nuclear quadrupole moments (NQMom) in fm**2, nuclear magnetic moments (NMagM)
  in nuclear magnetons)

  Atom         1           2           3           4           5           6           7           8           9          10
 IAtWgt=          12          14          12          12          14          14          16           1           1           1
 AtmWgt=  12.0000000  14.0030740  12.0000000  12.0000000  14.0030740  14.0030740  15.9949146   1.0078250   1.0078250   1.0078250
 NucSpn=           0           2           0           0           2           2           0           1           1           1
 AtZEff=   0.0000000   0.0000000   0.0000000   0.0000000   0.0000000   0.0000000   0.0000000   0.0000000   0.0000000   0.0000000
 NQMom=    0.0000000   2.0440000   0.0000000   0.0000000   2.0440000   2.0440000   0.0000000   0.0000000   0.0000000   0.0000000
 NMagM=    0.0000000   0.4037610   0.0000000   0.0000000   0.4037610   0.4037610   0.0000000   2.7928460   2.7928460   2.7928460
 AtZNuc=   6.0000000   7.0000000   6.0000000   6.0000000   7.0000000   7.0000000   8.0000000   1.0000000   1.0000000   1.0000000

  Atom        11          12          13          14          15          16          17          18
 IAtWgt=           1           1           1           1           1           1           1           1
 AtmWgt=   1.0078250   1.0078250   1.0078250   1.0078250   1.0078250   1.0078250   1.0078250   1.0078250
 NucSpn=           1           1           1           1           1           1           1           1
 AtZEff=   0.0000000   0.0000000   0.0000000   0.0000000   0.0000000   0.0000000   0.0000000   0.0000000
 NQMom=    0.0000000   0.0000000   0.0000000   0.0000000   0.0000000   0.0000000   0.0000000   0.0000000
 NMagM=    2.7928460   2.7928460   2.7928460   2.7928460   2.7928460   2.7928460   2.7928460   2.7928460
 AtZNuc=   1.0000000   1.0000000   1.0000000   1.0000000   1.0000000   1.0000000   1.0000000   1.0000000
 Leave Link  101 at Thu Sep  8 14:51:22 2022, MaxMem= 24159191040 cpu:        10.2
 (Enter /public/home/users/caep010/software/Gaussian09/g09/l103.exe)

 GradGradGradGradGradGradGradGradGradGradGradGradGradGradGradGradGradGrad
 Berny optimization.
 Initialization pass.
                           ----------------------------
                           !    Initial Parameters    !
                           ! (Angstroms and Degrees)  !
 --------------------------                            --------------------------
 ! Name  Definition              Value          Derivative Info.                !
 --------------------------------------------------------------------------------
 ! R1    R(1,2)                  1.4541         estimate D2E/DX2                !
 ! R2    R(1,8)                  1.093          estimate D2E/DX2                !
 ! R3    R(1,9)                  1.1079         estimate D2E/DX2                !
 ! R4    R(1,10)                 1.0944         estimate D2E/DX2                !
 ! R5    R(2,3)                  1.4585         estimate D2E/DX2                !
 ! R6    R(2,4)                  1.4751         estimate D2E/DX2                !
 ! R7    R(3,11)                 1.0946         estimate D2E/DX2                !
 ! R8    R(3,12)                 1.0884         estimate D2E/DX2                !
 ! R9    R(3,13)                 1.1064         estimate D2E/DX2                !
 ! R10   R(4,5)                  1.4682         estimate D2E/DX2                !
 ! R11   R(4,6)                  1.4478         estimate D2E/DX2                !
 ! R12   R(4,7)                  1.409          estimate D2E/DX2                !
 ! R13   R(5,14)                 1.0141         estimate D2E/DX2                !
 ! R14   R(5,15)                 1.0163         estimate D2E/DX2                !
 ! R15   R(6,16)                 1.0122         estimate D2E/DX2                !
 ! R16   R(6,17)                 1.0105         estimate D2E/DX2                !
 ! R17   R(7,18)                 0.963          estimate D2E/DX2                !
 ! A1    A(2,1,8)              110.5894         estimate D2E/DX2                !
 ! A2    A(2,1,9)              113.7982         estimate D2E/DX2                !
 ! A3    A(2,1,10)             109.2261         estimate D2E/DX2                !
 ! A4    A(8,1,9)              108.0889         estimate D2E/DX2                !
 ! A5    A(8,1,10)             107.9022         estimate D2E/DX2                !
 ! A6    A(9,1,10)             107.0202         estimate D2E/DX2                !
 ! A7    A(1,2,3)              110.7879         estimate D2E/DX2                !
 ! A8    A(1,2,4)              113.7646         estimate D2E/DX2                !
 ! A9    A(3,2,4)              114.4762         estimate D2E/DX2                !
 ! A10   A(2,3,11)             108.7667         estimate D2E/DX2                !
 ! A11   A(2,3,12)             109.9437         estimate D2E/DX2                !
 ! A12   A(2,3,13)             113.172          estimate D2E/DX2                !
 ! A13   A(11,3,12)            108.7219         estimate D2E/DX2                !
 ! A14   A(11,3,13)            107.3955         estimate D2E/DX2                !
 ! A15   A(12,3,13)            108.7265         estimate D2E/DX2                !
 ! A16   A(2,4,5)              116.8485         estimate D2E/DX2                !
 ! A17   A(2,4,6)              110.4655         estimate D2E/DX2                !
 ! A18   A(2,4,7)              105.5265         estimate D2E/DX2                !
 ! A19   A(5,4,6)              107.3839         estimate D2E/DX2                !
 ! A20   A(5,4,7)              107.0042         estimate D2E/DX2                !
 ! A21   A(6,4,7)              109.4025         estimate D2E/DX2                !
 ! A22   A(4,5,14)             108.1578         estimate D2E/DX2                !
 ! A23   A(4,5,15)             111.1703         estimate D2E/DX2                !
 ! A24   A(14,5,15)            107.6839         estimate D2E/DX2                !
 ! A25   A(4,6,16)             111.246          estimate D2E/DX2                !
 ! A26   A(4,6,17)             112.2726         estimate D2E/DX2                !
 ! A27   A(16,6,17)            111.3899         estimate D2E/DX2                !
 ! A28   A(4,7,18)             104.2202         estimate D2E/DX2                !
 ! D1    D(8,1,2,3)           -179.8155         estimate D2E/DX2                !
 ! D2    D(8,1,2,4)            -49.1701         estimate D2E/DX2                !
 ! D3    D(9,1,2,3)            -57.9333         estimate D2E/DX2                !
 ! D4    D(9,1,2,4)             72.7121         estimate D2E/DX2                !
 ! D5    D(10,1,2,3)            61.579          estimate D2E/DX2                !
 ! D6    D(10,1,2,4)          -167.7757         estimate D2E/DX2                !
 ! D7    D(1,2,3,11)           -56.9183         estimate D2E/DX2                !
 ! D8    D(1,2,3,12)          -175.8598         estimate D2E/DX2                !
 ! D9    D(1,2,3,13)            62.3496         estimate D2E/DX2                !
 ! D10   D(4,2,3,11)           172.8099         estimate D2E/DX2                !
 ! D11   D(4,2,3,12)            53.8684         estimate D2E/DX2                !
 ! D12   D(4,2,3,13)           -67.9222         estimate D2E/DX2                !
 ! D13   D(1,2,4,5)            -56.2231         estimate D2E/DX2                !
 ! D14   D(1,2,4,6)             66.8934         estimate D2E/DX2                !
 ! D15   D(1,2,4,7)           -174.9622         estimate D2E/DX2                !
 ! D16   D(3,2,4,5)             72.5709         estimate D2E/DX2                !
 ! D17   D(3,2,4,6)           -164.3126         estimate D2E/DX2                !
 ! D18   D(3,2,4,7)            -46.1682         estimate D2E/DX2                !
 ! D19   D(2,4,5,14)           -77.0891         estimate D2E/DX2                !
 ! D20   D(2,4,5,15)            40.9346         estimate D2E/DX2                !
 ! D21   D(6,4,5,14)           158.2221         estimate D2E/DX2                !
 ! D22   D(6,4,5,15)           -83.7543         estimate D2E/DX2                !
 ! D23   D(7,4,5,14)            40.8507         estimate D2E/DX2                !
 ! D24   D(7,4,5,15)           158.8743         estimate D2E/DX2                !
 ! D25   D(2,4,6,16)            19.0222         estimate D2E/DX2                !
 ! D26   D(2,4,6,17)          -106.5761         estimate D2E/DX2                !
 ! D27   D(5,4,6,16)           147.4823         estimate D2E/DX2                !
 ! D28   D(5,4,6,17)            21.884          estimate D2E/DX2                !
 ! D29   D(7,4,6,16)           -96.7226         estimate D2E/DX2                !
 ! D30   D(7,4,6,17)           137.6791         estimate D2E/DX2                !
 ! D31   D(2,4,7,18)          -147.471          estimate D2E/DX2                !
 ! D32   D(5,4,7,18)            87.4204         estimate D2E/DX2                !
 ! D33   D(6,4,7,18)           -28.6166         estimate D2E/DX2                !
 --------------------------------------------------------------------------------
 Trust Radius=3.00D-01 FncErr=1.00D-07 GrdErr=1.00D-06
 Number of steps in this run=     88 maximum allowed number of steps=    108.
 GradGradGradGradGradGradGradGradGradGradGradGradGradGradGradGradGradGrad

 Leave Link  103 at Thu Sep  8 14:51:22 2022, MaxMem= 24159191040 cpu:         0.4
 (Enter /public/home/users/caep010/software/Gaussian09/g09/l202.exe)
                          Input orientation:                          
 ---------------------------------------------------------------------
 Center     Atomic      Atomic             Coordinates (Angstroms)
 Number     Number       Type             X           Y           Z
 ---------------------------------------------------------------------
      1          6           0       -0.756140   -1.012987    1.071831
      2          7           0       -0.681968   -0.251164   -0.164505
      3          6           0       -1.607890    0.875366   -0.134711
      4          6           0        0.693729    0.098914   -0.565373
      5          7           0        1.499932    0.842379    0.410744
      6          7           0        1.435746   -1.092095   -0.921688
      7          8           0        0.557782    0.922729   -1.700302
      8          1           0       -0.058815   -1.854261    1.047344
      9          1           0       -0.541563   -0.414633    1.979188
     10          1           0       -1.766793   -1.416975    1.186118
     11          1           0       -2.618622    0.495795    0.045820
     12          1           0       -1.594700    1.392201   -1.092491
     13          1           0       -1.380588    1.604690    0.665635
     14          1           0        1.197274    1.810186    0.398916
     15          1           0        1.357680    0.485920    1.351761
     16          1           0        0.813930   -1.863978   -1.126900
     17          1           0        2.116293   -1.344004   -0.218544
     18          1           0        1.334715    0.722019   -2.232744
 ---------------------------------------------------------------------
                    Distance matrix (angstroms):
                    1          2          3          4          5
     1  C    0.000000
     2  N    1.454099   0.000000
     3  C    2.397311   1.458523   0.000000
     4  C    2.453341   1.475057   2.466941   0.000000
     5  N    2.994876   2.507476   3.155498   1.468165   0.000000
     6  N    2.963906   2.401084   3.708633   1.447775   2.349826
     7  O    3.627411   2.296449   2.672724   1.408977   2.313140
     8  H    1.092979   2.104000   3.353767   2.642361   3.179122
     9  H    1.107866   2.154497   2.696242   2.874799   2.864925
    10  H    1.094389   2.088096   2.650409   3.379321   4.046897
    11  H    2.607290   2.086340   1.094644   3.391569   4.149190
    12  H    3.342514   2.096398   1.088409   2.680924   3.484073
    13  H    2.721610   2.149743   1.106406   2.843507   2.990566
    14  H    3.498421   2.845726   3.004595   2.027773   1.014097
    15  H    2.606399   2.646227   3.340041   2.065432   1.016273
    16  H    2.832618   2.401059   3.788622   2.045166   3.187368
    17  H    3.166309   3.004577   4.336147   2.055722   2.357154
    18  H    4.278100   3.048230   3.617206   1.891890   2.651379
                    6          7          8          9         10
     6  N    0.000000
     7  O    2.331647   0.000000
     8  H    2.586831   3.954924   0.000000
     9  H    3.575442   4.066417   1.781546   0.000000
    10  H    3.847681   4.382840   1.768521   1.770547   0.000000
    11  H    4.460422   3.649761   3.616411   2.980095   2.384236
    12  H    3.922308   2.285392   4.180592   3.716041   3.621208
    13  H    4.209986   3.133689   3.722516   2.550892   3.090391
    14  H    3.197514   2.367118   3.927644   3.235836   4.451960
    15  H    2.768537   3.185236   2.752376   2.193578   3.662073
    16  H    1.012211   2.856595   2.342886   3.685885   3.494280
    17  H    1.010452   3.124523   2.567865   3.571828   4.129983
    18  H    2.240555   0.963018   4.397513   4.748975   5.087560
                   11         12         13         14         15
    11  H    0.000000
    12  H    1.774179   0.000000
    13  H    1.773851   1.783817   0.000000
    14  H    4.051341   3.192824   2.599758   0.000000
    15  H    4.185279   3.938561   3.036532   1.639306   0.000000
    16  H    4.327380   4.050356   4.478923   3.996817   3.458532
    17  H    5.086666   4.692768   4.658835   3.342868   2.527840
    18  H    4.568578   3.214155   4.068486   2.851076   3.592346
                   16         17         18
    16  H    0.000000
    17  H    1.670818   0.000000
    18  H    2.860330   2.989367   0.000000
 Stoichiometry    C3H11N3O
 Framework group  C1[X(C3H11N3O)]
 Deg. of freedom    48
 Full point group                 C1      NOp   1
 Largest Abelian subgroup         C1      NOp   1
 Largest concise Abelian subgroup C1      NOp   1
                         Standard orientation:                         
 ---------------------------------------------------------------------
 Center     Atomic      Atomic             Coordinates (Angstroms)
 Number     Number       Type             X           Y           Z
 ---------------------------------------------------------------------
      1          6           0       -1.470680   -1.241646    0.018172
      2          7           0       -0.792356   -0.031704   -0.418082
      3          6           0       -1.569639    1.152035   -0.068967
      4          6           0        0.626915    0.030139   -0.021045
      5          7           0        0.920827   -0.097929    1.411688
      6          7           0        1.390627   -0.987446   -0.711925
      7          8           0        1.075364    1.304444   -0.421366
      8          1           0       -0.883996   -2.126328   -0.242105
      9          1           0       -1.674562   -1.272123    1.106689
     10          1           0       -2.436554   -1.316794   -0.490875
     11          1           0       -2.565246    1.063841   -0.515322
     12          1           0       -1.086828    2.043374   -0.465254
     13          1           0       -1.706078    1.277163    1.021841
     14          1           0        0.705933    0.786610    1.858681
     15          1           0        0.339575   -0.811160    1.843267
     16          1           0        0.899247   -1.321819   -1.531261
     17          1           0        1.652265   -1.749754   -0.102461
     18          1           0        2.000073    1.167824   -0.652994
 ---------------------------------------------------------------------
 Rotational constants (GHZ):      3.3489002      2.4302631      1.9997877
 Leave Link  202 at Thu Sep  8 14:51:23 2022, MaxMem= 24159191040 cpu:         0.4
 (Enter /public/home/users/caep010/software/Gaussian09/g09/l301.exe)
 Standard basis: 6-31G(d,p) (6D, 7F)
 Ernie: Thresh=  0.10000D-02 Tol=  0.10000D-05 Strict=F.
 There are   160 symmetry adapted cartesian basis functions of A   symmetry.
 There are   160 symmetry adapted basis functions of A   symmetry.
   160 basis functions,   273 primitive gaussians,   160 cartesian basis functions
    29 alpha electrons       29 beta electrons
       nuclear repulsion energy       360.6261492068 Hartrees.
 IExCor=  402 DFT=T Ex+Corr=B3LYP ExCW=0 ScaHFX=  0.200000
 ScaDFX=  0.800000  0.720000  1.000000  0.810000 ScalE2=  1.000000  1.000000
 IRadAn=      0 IRanWt=     -1 IRanGd=            0 ICorTp=0 IEmpDi=  4
 NAtoms=   18 NActive=   18 NUniq=   18 SFac= 1.00D+00 NAtFMM=   60 NAOKFM=F Big=F
 Integral buffers will be    131072 words long.
 Raffenetti 2 integral format.
 Two-electron integral symmetry is turned on.
 Leave Link  301 at Thu Sep  8 14:51:23 2022, MaxMem= 24159191040 cpu:         2.0
 (Enter /public/home/users/caep010/software/Gaussian09/g09/l302.exe)
 NPDir=0 NMtPBC=     1 NCelOv=     1 NCel=       1 NClECP=     1 NCelD=      1
         NCelK=      1 NCelE2=     1 NClLst=     1 CellRange=     0.0.
 One-electron integrals computed using PRISM.
 NBasis=   160 RedAO= T EigKep=  2.01D-03  NBF=   160
 NBsUse=   160 1.00D-06 EigRej= -1.00D+00 NBFU=   160
 Precomputing XC quadrature grid using
 IXCGrd= 4 IRadAn=           0 IRanWt=          -1 IRanGd=           0 AccXCQ= 0.00D+00.
 Generated NRdTot=       0 NPtTot=           0 NUsed=           0 NTot=          32
 NSgBfM=   160   160   160   160   160 MxSgAt=    18 MxSgA2=    18.
 Leave Link  302 at Thu Sep  8 14:51:23 2022, MaxMem= 24159191040 cpu:        11.6
 (Enter /public/home/users/caep010/software/Gaussian09/g09/l303.exe)
 DipDrv:  MaxL=1.
 Leave Link  303 at Thu Sep  8 14:51:23 2022, MaxMem= 24159191040 cpu:         0.8
 (Enter /public/home/users/caep010/software/Gaussian09/g09/l401.exe)
 ExpMin= 1.61D-01 ExpMax= 5.48D+03 ExpMxC= 8.25D+02 IAcc=1 IRadAn=         1 AccDes= 0.00D+00
 Harris functional with IExCor=  402 and IRadAn=       1 diagonalized for initial guess.
 HarFok:  IExCor=  402 AccDes= 0.00D+00 IRadAn=         1 IDoV= 1 UseB2=F ITyADJ=14
 ICtDFT=  3500011 ScaDFX=  1.000000  1.000000  1.000000  1.000000
 FoFCou: FMM=F IPFlag=           0 FMFlag=      100000 FMFlg1=           0
         NFxFlg=           0 DoJE=T BraDBF=F KetDBF=T FulRan=T
         wScrn=  0.000000 ICntrl=     500 IOpCl=  0 I1Cent=   200000004 NGrid=           0
         NMat0=    1 NMatS0=      1 NMatT0=    0 NMatD0=    1 NMtDS0=    0 NMtDT0=    0
 Petite list used in FoFCou.
 Harris En= -360.441958722704    
 JPrj=0 DoOrth=F DoCkMO=F.
 Leave Link  401 at Thu Sep  8 14:51:24 2022, MaxMem= 24159191040 cpu:        11.0
 (Enter /public/home/users/caep010/software/Gaussian09/g09/l502.exe)
 Closed shell SCF:
 Using DIIS extrapolation, IDIIS=  1040.
 Integral symmetry usage will be decided dynamically.
 Keep R1 ints in memory in canonical form, NReq=85141887.
 IVT=      101687 IEndB=      101687 NGot= 24159191040 MDV= 24076135714
 LenX= 24076135714 LenY= 24076109673
 Requested convergence on RMS density matrix=1.00D-08 within 128 cycles.
 Requested convergence on MAX density matrix=1.00D-06.
 Requested convergence on             energy=1.00D-06.
 No special actions if energy rises.
 FoFCou: FMM=F IPFlag=           0 FMFlag=           0 FMFlg1=           0
         NFxFlg=           0 DoJE=F BraDBF=F KetDBF=F FulRan=T
         wScrn=  0.000000 ICntrl=     600 IOpCl=  0 I1Cent=           0 NGrid=           0
         NMat0=    1 NMatS0=  12880 NMatT0=    0 NMatD0=    1 NMtDS0=    0 NMtDT0=    0
 Symmetry not used in FoFCou.
 Integral accuracy reduced to 1.0D-05 until final iterations.

 Cycle   1  Pass 0  IDiag  1:
 E= -360.161345873352    
 DIIS: error= 2.70D-02 at cycle   1 NSaved=   1.
 NSaved= 1 IEnMin= 1 EnMin= -360.161345873352     IErMin= 1 ErrMin= 2.70D-02
 ErrMax= 2.70D-02  0.00D+00 EMaxC= 1.00D-01 BMatC= 2.94D-01 BMatP= 2.94D-01
 IDIUse=3 WtCom= 7.30D-01 WtEn= 2.70D-01
 Coeff-Com:  0.100D+01
 Coeff-En:   0.100D+01
 Coeff:      0.100D+01
 Gap=     0.224 Goal=   None    Shift=    0.000
 GapD=    0.224 DampG=1.000 DampE=0.500 DampFc=0.5000 IDamp=-1.
 Damping current iteration by 5.00D-01
 RMSDP=6.62D-03 MaxDP=1.53D-01              OVMax= 1.57D-01

 Cycle   2  Pass 0  IDiag  1:
 E= -360.269556560100     Delta-E=       -0.108210686748 Rises=F Damp=T
 DIIS: error= 7.34D-03 at cycle   2 NSaved=   2.
 NSaved= 2 IEnMin= 2 EnMin= -360.269556560100     IErMin= 2 ErrMin= 7.34D-03
 ErrMax= 7.34D-03  0.00D+00 EMaxC= 1.00D-01 BMatC= 1.37D-02 BMatP= 2.94D-01
 IDIUse=3 WtCom= 9.27D-01 WtEn= 7.34D-02
 Coeff-Com:  0.111D+00 0.889D+00
 Coeff-En:   0.181D+00 0.819D+00
 Coeff:      0.116D+00 0.884D+00
 Gap=     0.277 Goal=   None    Shift=    0.000
 RMSDP=1.01D-03 MaxDP=2.08D-02 DE=-1.08D-01 OVMax= 8.71D-02

 Cycle   3  Pass 0  IDiag  1:
 E= -360.416434427096     Delta-E=       -0.146877866996 Rises=F Damp=F
 DIIS: error= 1.99D-03 at cycle   3 NSaved=   3.
 NSaved= 3 IEnMin= 3 EnMin= -360.416434427096     IErMin= 3 ErrMin= 1.99D-03
 ErrMax= 1.99D-03  0.00D+00 EMaxC= 1.00D-01 BMatC= 1.99D-03 BMatP= 1.37D-02
 IDIUse=3 WtCom= 9.80D-01 WtEn= 1.99D-02
 Coeff-Com:  0.134D-01 0.234D+00 0.753D+00
 Coeff-En:   0.000D+00 0.000D+00 0.100D+01
 Coeff:      0.131D-01 0.229D+00 0.758D+00
 Gap=     0.276 Goal=   None    Shift=    0.000
 RMSDP=3.70D-04 MaxDP=1.18D-02 DE=-1.47D-01 OVMax= 1.04D-02

 Cycle   4  Pass 0  IDiag  1:
 E= -360.417275882221     Delta-E=       -0.000841455125 Rises=F Damp=F
 DIIS: error= 1.48D-03 at cycle   4 NSaved=   4.
 NSaved= 4 IEnMin= 4 EnMin= -360.417275882221     IErMin= 4 ErrMin= 1.48D-03
 ErrMax= 1.48D-03  0.00D+00 EMaxC= 1.00D-01 BMatC= 9.81D-04 BMatP= 1.99D-03
 IDIUse=3 WtCom= 9.85D-01 WtEn= 1.48D-02
 Coeff-Com: -0.102D-02 0.434D-01 0.417D+00 0.540D+00
 Coeff-En:   0.000D+00 0.000D+00 0.330D+00 0.670D+00
 Coeff:     -0.100D-02 0.428D-01 0.416D+00 0.542D+00
 Gap=     0.275 Goal=   None    Shift=    0.000
 RMSDP=1.79D-04 MaxDP=5.69D-03 DE=-8.41D-04 OVMax= 5.39D-03

 Cycle   5  Pass 0  IDiag  1:
 E= -360.418053397318     Delta-E=       -0.000777515097 Rises=F Damp=F
 DIIS: error= 2.74D-04 at cycle   5 NSaved=   5.
 NSaved= 5 IEnMin= 5 EnMin= -360.418053397318     IErMin= 5 ErrMin= 2.74D-04
 ErrMax= 2.74D-04  0.00D+00 EMaxC= 1.00D-01 BMatC= 3.10D-05 BMatP= 9.81D-04
 IDIUse=3 WtCom= 9.97D-01 WtEn= 2.74D-03
 Coeff-Com: -0.800D-03 0.457D-02 0.134D+00 0.235D+00 0.628D+00
 Coeff-En:   0.000D+00 0.000D+00 0.000D+00 0.000D+00 0.100D+01
 Coeff:     -0.798D-03 0.456D-02 0.134D+00 0.234D+00 0.629D+00
 Gap=     0.275 Goal=   None    Shift=    0.000
 RMSDP=3.71D-05 MaxDP=9.36D-04 DE=-7.78D-04 OVMax= 1.18D-03

 Cycle   6  Pass 0  IDiag  1:
 E= -360.418074475394     Delta-E=       -0.000021078076 Rises=F Damp=F
 DIIS: error= 1.05D-04 at cycle   6 NSaved=   6.
 NSaved= 6 IEnMin= 6 EnMin= -360.418074475394     IErMin= 6 ErrMin= 1.05D-04
 ErrMax= 1.05D-04  0.00D+00 EMaxC= 1.00D-01 BMatC= 3.90D-06 BMatP= 3.10D-05
 IDIUse=3 WtCom= 9.99D-01 WtEn= 1.05D-03
 Coeff-Com: -0.368D-03-0.357D-03 0.506D-01 0.996D-01 0.350D+00 0.501D+00
 Coeff-En:   0.000D+00 0.000D+00 0.000D+00 0.000D+00 0.958D-02 0.990D+00
 Coeff:     -0.368D-03-0.357D-03 0.505D-01 0.995D-01 0.349D+00 0.502D+00
 Gap=     0.275 Goal=   None    Shift=    0.000
 RMSDP=1.11D-05 MaxDP=2.22D-04 DE=-2.11D-05 OVMax= 3.27D-04

 Cycle   7  Pass 0  IDiag  1:
 E= -360.418077687172     Delta-E=       -0.000003211778 Rises=F Damp=F
 DIIS: error= 7.82D-06 at cycle   7 NSaved=   7.
 NSaved= 7 IEnMin= 7 EnMin= -360.418077687172     IErMin= 7 ErrMin= 7.82D-06
 ErrMax= 7.82D-06  0.00D+00 EMaxC= 1.00D-01 BMatC= 3.17D-08 BMatP= 3.90D-06
 IDIUse=1 WtCom= 1.00D+00 WtEn= 0.00D+00
 Coeff-Com: -0.327D-04-0.315D-03 0.883D-02 0.187D-01 0.733D-01 0.142D+00
 Coeff-Com:  0.757D+00
 Coeff:     -0.327D-04-0.315D-03 0.883D-02 0.187D-01 0.733D-01 0.142D+00
 Coeff:      0.757D+00
 Gap=     0.275 Goal=   None    Shift=    0.000
 RMSDP=1.68D-06 MaxDP=2.93D-05 DE=-3.21D-06 OVMax= 4.71D-05

 Initial convergence to 1.0D-05 achieved.  Increase integral accuracy.
 Cycle   8  Pass 1  IDiag  1:
 E= -360.418133199290     Delta-E=       -0.000055512117 Rises=F Damp=F
 DIIS: error= 1.33D-05 at cycle   1 NSaved=   1.
 NSaved= 1 IEnMin= 1 EnMin= -360.418133199290     IErMin= 1 ErrMin= 1.33D-05
 ErrMax= 1.33D-05  0.00D+00 EMaxC= 1.00D-01 BMatC= 4.56D-08 BMatP= 4.56D-08
 IDIUse=1 WtCom= 1.00D+00 WtEn= 0.00D+00
 Coeff-Com:  0.100D+01
 Coeff:      0.100D+01
 Gap=     0.275 Goal=   None    Shift=    0.000
 RMSDP=1.68D-06 MaxDP=2.93D-05 DE=-5.55D-05 OVMax= 6.93D-05

 Cycle   9  Pass 1  IDiag  1:
 E= -360.418133248752     Delta-E=       -0.000000049463 Rises=F Damp=F
 DIIS: error= 3.08D-06 at cycle   2 NSaved=   2.
 NSaved= 2 IEnMin= 2 EnMin= -360.418133248752     IErMin= 2 ErrMin= 3.08D-06
 ErrMax= 3.08D-06  0.00D+00 EMaxC= 1.00D-01 BMatC= 4.83D-09 BMatP= 4.56D-08
 IDIUse=1 WtCom= 1.00D+00 WtEn= 0.00D+00
 Coeff-Com:  0.122D+00 0.878D+00
 Coeff:      0.122D+00 0.878D+00
 Gap=     0.275 Goal=   None    Shift=    0.000
 RMSDP=9.14D-07 MaxDP=2.31D-05 DE=-4.95D-08 OVMax= 2.54D-05

 Cycle  10  Pass 1  IDiag  1:
 E= -360.418133248683     Delta-E=        0.000000000069 Rises=F Damp=F
 DIIS: error= 3.38D-06 at cycle   3 NSaved=   3.
 NSaved= 3 IEnMin= 2 EnMin= -360.418133248752     IErMin= 2 ErrMin= 3.08D-06
 ErrMax= 3.38D-06  0.00D+00 EMaxC= 1.00D-01 BMatC= 5.32D-09 BMatP= 4.83D-09
 IDIUse=1 WtCom= 1.00D+00 WtEn= 0.00D+00
 Coeff-Com: -0.163D-01 0.516D+00 0.500D+00
 Coeff:     -0.163D-01 0.516D+00 0.500D+00
 Gap=     0.275 Goal=   None    Shift=    0.000
 RMSDP=4.74D-07 MaxDP=1.31D-05 DE= 6.91D-11 OVMax= 1.49D-05

 Cycle  11  Pass 1  IDiag  1:
 E= -360.418133253118     Delta-E=       -0.000000004435 Rises=F Damp=F
 DIIS: error= 5.19D-07 at cycle   4 NSaved=   4.
 NSaved= 4 IEnMin= 4 EnMin= -360.418133253118     IErMin= 4 ErrMin= 5.19D-07
 ErrMax= 5.19D-07  0.00D+00 EMaxC= 1.00D-01 BMatC= 1.19D-10 BMatP= 4.83D-09
 IDIUse=1 WtCom= 1.00D+00 WtEn= 0.00D+00
 Coeff-Com: -0.123D-01 0.206D+00 0.233D+00 0.574D+00
 Coeff:     -0.123D-01 0.206D+00 0.233D+00 0.574D+00
 Gap=     0.275 Goal=   None    Shift=    0.000
 RMSDP=8.64D-08 MaxDP=2.09D-06 DE=-4.44D-09 OVMax= 3.04D-06

 Cycle  12  Pass 1  IDiag  1:
 E= -360.418133253226     Delta-E=       -0.000000000107 Rises=F Damp=F
 DIIS: error= 1.04D-07 at cycle   5 NSaved=   5.
 NSaved= 5 IEnMin= 5 EnMin= -360.418133253226     IErMin= 5 ErrMin= 1.04D-07
 ErrMax= 1.04D-07  0.00D+00 EMaxC= 1.00D-01 BMatC= 5.77D-12 BMatP= 1.19D-10
 IDIUse=1 WtCom= 1.00D+00 WtEn= 0.00D+00
 Coeff-Com: -0.477D-02 0.696D-01 0.814D-01 0.257D+00 0.597D+00
 Coeff:     -0.477D-02 0.696D-01 0.814D-01 0.257D+00 0.597D+00
 Gap=     0.275 Goal=   None    Shift=    0.000
 RMSDP=1.62D-08 MaxDP=4.70D-07 DE=-1.07D-10 OVMax= 4.78D-07

 Cycle  13  Pass 1  IDiag  1:
 E= -360.418133253231     Delta-E=       -0.000000000006 Rises=F Damp=F
 DIIS: error= 4.15D-08 at cycle   6 NSaved=   6.
 NSaved= 6 IEnMin= 6 EnMin= -360.418133253231     IErMin= 6 ErrMin= 4.15D-08
 ErrMax= 4.15D-08  0.00D+00 EMaxC= 1.00D-01 BMatC= 6.50D-13 BMatP= 5.77D-12
 IDIUse=1 WtCom= 1.00D+00 WtEn= 0.00D+00
 Coeff-Com: -0.518D-03 0.301D-02 0.431D-02 0.377D-01 0.275D+00 0.681D+00
 Coeff:     -0.518D-03 0.301D-02 0.431D-02 0.377D-01 0.275D+00 0.681D+00
 Gap=     0.275 Goal=   None    Shift=    0.000
 RMSDP=5.45D-09 MaxDP=1.39D-07 DE=-5.68D-12 OVMax= 2.09D-07

 SCF Done:  E(RB3LYP) =  -360.418133253     A.U. after   13 cycles
            NFock= 13  Conv=0.54D-08     -V/T= 2.0091
 KE= 3.571736057740D+02 PE=-1.561953678769D+03 EE= 4.837357905351D+02
 Leave Link  502 at Thu Sep  8 14:51:27 2022, MaxMem= 24159191040 cpu:        66.0
 (Enter /public/home/users/caep010/software/Gaussian09/g09/l601.exe)
 Copying SCF densities to generalized density rwf, IOpCl= 0 IROHF=0.

 **********************************************************************

            Population analysis using the SCF density.

 **********************************************************************

 Orbital symmetries:
       Occupied  (A) (A) (A) (A) (A) (A) (A) (A) (A) (A) (A) (A)
                 (A) (A) (A) (A) (A) (A) (A) (A) (A) (A) (A) (A)
                 (A) (A) (A) (A) (A)
       Virtual   (A) (A) (A) (A) (A) (A) (A) (A) (A) (A) (A) (A)
                 (A) (A) (A) (A) (A) (A) (A) (A) (A) (A) (A) (A)
                 (A) (A) (A) (A) (A) (A) (A) (A) (A) (A) (A) (A)
                 (A) (A) (A) (A) (A) (A) (A) (A) (A) (A) (A) (A)
                 (A) (A) (A) (A) (A) (A) (A) (A) (A) (A) (A) (A)
                 (A) (A) (A) (A) (A) (A) (A) (A) (A) (A) (A) (A)
                 (A) (A) (A) (A) (A) (A) (A) (A) (A) (A) (A) (A)
                 (A) (A) (A) (A) (A) (A) (A) (A) (A) (A) (A) (A)
                 (A) (A) (A) (A) (A) (A) (A) (A) (A) (A) (A) (A)
                 (A) (A) (A) (A) (A) (A) (A) (A) (A) (A) (A) (A)
                 (A) (A) (A) (A) (A) (A) (A) (A) (A) (A) (A)
 The electronic state is 1-A.
 Alpha  occ. eigenvalues --  -19.13496 -14.32193 -14.31534 -14.31189 -10.31042
 Alpha  occ. eigenvalues --  -10.20639 -10.19353  -1.04186  -0.92276  -0.87064
 Alpha  occ. eigenvalues --   -0.84227  -0.70195  -0.66391  -0.57547  -0.53258
 Alpha  occ. eigenvalues --   -0.50759  -0.49187  -0.45983  -0.44484  -0.42438
 Alpha  occ. eigenvalues --   -0.41671  -0.38624  -0.37964  -0.36938  -0.34548
 Alpha  occ. eigenvalues --   -0.28356  -0.26756  -0.24881  -0.20924
 Alpha virt. eigenvalues --    0.06581   0.10581   0.12178   0.13280   0.13930
 Alpha virt. eigenvalues --    0.14924   0.15335   0.17378   0.18139   0.19614
 Alpha virt. eigenvalues --    0.20039   0.20226   0.24953   0.26615   0.28601
 Alpha virt. eigenvalues --    0.29694   0.32447   0.52238   0.54172   0.56200
 Alpha virt. eigenvalues --    0.57202   0.57438   0.61772   0.66669   0.69015
 Alpha virt. eigenvalues --    0.71180   0.71929   0.74224   0.75343   0.77279
 Alpha virt. eigenvalues --    0.78889   0.79514   0.82206   0.83995   0.85285
 Alpha virt. eigenvalues --    0.86029   0.86545   0.88515   0.91262   0.91513
 Alpha virt. eigenvalues --    0.92649   0.94623   0.96336   0.96949   0.99307
 Alpha virt. eigenvalues --    0.99811   1.04539   1.05666   1.10004   1.15264
 Alpha virt. eigenvalues --    1.23696   1.25490   1.30620   1.33547   1.40581
 Alpha virt. eigenvalues --    1.44589   1.49212   1.50890   1.60533   1.61431
 Alpha virt. eigenvalues --    1.68059   1.72070   1.73180   1.80216   1.84188
 Alpha virt. eigenvalues --    1.84957   1.89829   1.90306   1.92245   1.97764
 Alpha virt. eigenvalues --    1.98349   1.99918   2.01820   2.03650   2.05186
 Alpha virt. eigenvalues --    2.06339   2.09181   2.10535   2.12692   2.13658
 Alpha virt. eigenvalues --    2.15957   2.17709   2.19736   2.23975   2.24664
 Alpha virt. eigenvalues --    2.26782   2.36585   2.39026   2.40575   2.43846
 Alpha virt. eigenvalues --    2.47243   2.49302   2.51610   2.53160   2.57191
 Alpha virt. eigenvalues --    2.58716   2.61938   2.63706   2.66583   2.71877
 Alpha virt. eigenvalues --    2.72341   2.74514   2.77612   2.83628   2.85386
 Alpha virt. eigenvalues --    2.86615   2.91133   2.92301   2.96142   3.00984
 Alpha virt. eigenvalues --    3.02954   3.08207   3.10883   3.17693   3.22006
 Alpha virt. eigenvalues --    3.30676   3.33342   3.40127   3.42600   3.44494
 Alpha virt. eigenvalues --    3.47858   3.48796   3.50872   3.53119   3.90927
 Alpha virt. eigenvalues --    4.00820   4.10155   4.24301   4.49822   4.53571
 Alpha virt. eigenvalues --    4.69923
          Condensed to atoms (all electrons):
               1          2          3          4          5          6
     1  C    4.848775   0.309567  -0.054507  -0.037285  -0.004220  -0.011277
     2  N    0.309567   6.970129   0.314262   0.329495  -0.106139  -0.090073
     3  C   -0.054507   0.314262   4.822310  -0.037629  -0.004754   0.005330
     4  C   -0.037285   0.329495  -0.037629   4.381072   0.312637   0.332513
     5  N   -0.004220  -0.106139  -0.004754   0.312637   6.905886  -0.095063
     6  N   -0.011277  -0.090073   0.005330   0.332513  -0.095063   6.847412
     7  O    0.003390  -0.067927  -0.011598   0.252126  -0.083657  -0.068630
     8  H    0.376699  -0.043020   0.006463  -0.002175  -0.002065   0.015003
     9  H    0.348727  -0.051408  -0.007718  -0.007937   0.007305  -0.000448
    10  H    0.392870  -0.038553  -0.003206   0.004186  -0.000003   0.000356
    11  H   -0.004215  -0.037532   0.386569   0.004308  -0.000147  -0.000137
    12  H    0.005520  -0.032986   0.391769  -0.006270  -0.000122   0.000288
    13  H   -0.009456  -0.054855   0.353794  -0.004869   0.009605  -0.000179
    14  H    0.000031  -0.001060   0.001722  -0.029783   0.331211   0.006771
    15  H    0.001606  -0.003977   0.000408  -0.029013   0.316739   0.001189
    16  H   -0.000961   0.008427   0.000011  -0.031932   0.007244   0.329691
    17  H   -0.000733   0.004240  -0.000222  -0.024693   0.002692   0.326307
    18  H   -0.000270   0.007571   0.000084  -0.022103   0.002667   0.009706
               7          8          9         10         11         12
     1  C    0.003390   0.376699   0.348727   0.392870  -0.004215   0.005520
     2  N   -0.067927  -0.043020  -0.051408  -0.038553  -0.037532  -0.032986
     3  C   -0.011598   0.006463  -0.007718  -0.003206   0.386569   0.391769
     4  C    0.252126  -0.002175  -0.007937   0.004186   0.004308  -0.006270
     5  N   -0.083657  -0.002065   0.007305  -0.000003  -0.000147  -0.000122
     6  N   -0.068630   0.015003  -0.000448   0.000356  -0.000137   0.000288
     7  O    8.215668   0.000276  -0.000136  -0.000074   0.000273   0.012864
     8  H    0.000276   0.626170  -0.045939  -0.024308   0.000062  -0.000262
     9  H   -0.000136  -0.045939   0.710383  -0.045106  -0.002213  -0.000305
    10  H   -0.000074  -0.024308  -0.045106   0.596683   0.005149   0.000095
    11  H    0.000273   0.000062  -0.002213   0.005149   0.619137  -0.023889
    12  H    0.012864  -0.000262  -0.000305   0.000095  -0.023889   0.548637
    13  H   -0.000849  -0.000407   0.015665  -0.001836  -0.046961  -0.038659
    14  H    0.005115   0.000053   0.000216  -0.000005  -0.000023   0.000167
    15  H    0.005270   0.000319   0.007085  -0.000189  -0.000016  -0.000091
    16  H    0.001616   0.000954   0.000443  -0.000363  -0.000077  -0.000055
    17  H    0.003735   0.001101   0.000109  -0.000009   0.000001  -0.000016
    18  H    0.284601  -0.000035   0.000001   0.000006   0.000006  -0.000198
              13         14         15         16         17         18
     1  C   -0.009456   0.000031   0.001606  -0.000961  -0.000733  -0.000270
     2  N   -0.054855  -0.001060  -0.003977   0.008427   0.004240   0.007571
     3  C    0.353794   0.001722   0.000408   0.000011  -0.000222   0.000084
     4  C   -0.004869  -0.029783  -0.029013  -0.031932  -0.024693  -0.022103
     5  N    0.009605   0.331211   0.316739   0.007244   0.002692   0.002667
     6  N   -0.000179   0.006771   0.001189   0.329691   0.326307   0.009706
     7  O   -0.000849   0.005115   0.005270   0.001616   0.003735   0.284601
     8  H   -0.000407   0.000053   0.000319   0.000954   0.001101  -0.000035
     9  H    0.015665   0.000216   0.007085   0.000443   0.000109   0.000001
    10  H   -0.001836  -0.000005  -0.000189  -0.000363  -0.000009   0.000006
    11  H   -0.046961  -0.000023  -0.000016  -0.000077   0.000001   0.000006
    12  H   -0.038659   0.000167  -0.000091  -0.000055  -0.000016  -0.000198
    13  H    0.710758   0.001436   0.000588   0.000071   0.000010  -0.000019
    14  H    0.001436   0.461248  -0.027594  -0.000325  -0.000222  -0.000858
    15  H    0.000588  -0.027594   0.495934  -0.000340  -0.000205  -0.000249
    16  H    0.000071  -0.000325  -0.000340   0.461229  -0.027239   0.000095
    17  H    0.000010  -0.000222  -0.000205  -0.027239   0.466155   0.000161
    18  H   -0.000019  -0.000858  -0.000249   0.000095   0.000161   0.402887
 Mulliken charges:
               1
     1  C   -0.164260
     2  N   -0.416160
     3  C   -0.163087
     4  C    0.617354
     5  N   -0.599818
     6  N   -0.608761
     7  O   -0.552062
     8  H    0.091111
     9  H    0.071277
    10  H    0.114308
    11  H    0.099706
    12  H    0.143512
    13  H    0.066164
    14  H    0.251899
    15  H    0.232535
    16  H    0.251510
    17  H    0.248827
    18  H    0.315946
 Sum of Mulliken charges =  -0.00000
 Mulliken charges with hydrogens summed into heavy atoms:
               1
     1  C    0.112436
     2  N   -0.416160
     3  C    0.146294
     4  C    0.617354
     5  N   -0.115384
     6  N   -0.108424
     7  O   -0.236116
 Electronic spatial extent (au):  <R**2>=            754.5239
 Charge=              0.0000 electrons
 Dipole moment (field-independent basis, Debye):
    X=             -1.1124    Y=             -1.5710    Z=              0.7582  Tot=              2.0689
 Quadrupole moment (field-independent basis, Debye-Ang):
   XX=            -44.3693   YY=            -41.0505   ZZ=            -43.5598
   XY=              0.2512   XZ=             -1.8570   YZ=              1.2132
 Traceless Quadrupole moment (field-independent basis, Debye-Ang):
   XX=             -1.3761   YY=              1.9427   ZZ=             -0.5666
   XY=              0.2512   XZ=             -1.8570   YZ=              1.2132
 Octapole moment (field-independent basis, Debye-Ang**2):
  XXX=              3.7167  YYY=             -5.8850  ZZZ=              2.2628  XYY=              6.2537
  XXY=              5.9663  XXZ=             -6.5217  XZZ=              1.0236  YZZ=              0.3258
  YYZ=             -0.6560  XYZ=             -0.3673
 Hexadecapole moment (field-independent basis, Debye-Ang**3):
 XXXX=           -455.0299 YYYY=           -299.4773 ZZZZ=           -171.8853 XXXY=             20.7732
 XXXZ=             -2.8265 YYYX=             -8.1229 YYYZ=              1.7878 ZZZX=             -8.0869
 ZZZY=              6.3519 XXYY=           -117.8683 XXZZ=           -119.3285 YYZZ=            -74.8458
 XXYZ=             -5.4136 YYXZ=              0.0610 ZZXY=              4.2814
 N-N= 3.606261492068D+02 E-N=-1.561953673866D+03  KE= 3.571736057740D+02
 No NMR shielding tensors so no spin-rotation constants.
 Leave Link  601 at Thu Sep  8 14:51:27 2022, MaxMem= 24159191040 cpu:        10.7
 (Enter /public/home/users/caep010/software/Gaussian09/g09/l701.exe)
 Compute integral first derivatives.
 ... and contract with generalized density number  0.
 Leave Link  701 at Thu Sep  8 14:51:28 2022, MaxMem= 24159191040 cpu:        10.6
 (Enter /public/home/users/caep010/software/Gaussian09/g09/l702.exe)
 L702 exits ... SP integral derivatives will be done elsewhere.
 Leave Link  702 at Thu Sep  8 14:51:28 2022, MaxMem= 24159191040 cpu:         0.5
 (Enter /public/home/users/caep010/software/Gaussian09/g09/l703.exe)
 Compute integral first derivatives, UseDBF=F ICtDFT=           0.
 Integral derivatives from FoFJK, PRISM(SPDF).
 Calling FoFJK, ICntrl=      2127 FMM=F ISym2X=0 I1Cent= 0 IOpClX= 0 NMat=1 NMatS=1 NMatT=0.
 FoFJK:  IHMeth= 1 ICntrl=    2127 DoSepK=F KAlg= 0 I1Cent=   0 FoldK=F
 IRaf=         0 NMat=   1 IRICut=       1 DoRegI=T DoRafI=F ISym2E= 0.
 FoFCou: FMM=F IPFlag=           0 FMFlag=      100000 FMFlg1=         800
         NFxFlg=           0 DoJE=F BraDBF=F KetDBF=F FulRan=T
         wScrn=  0.000000 ICntrl=    2127 IOpCl=  0 I1Cent=           0 NGrid=           0
         NMat0=    1 NMatS0=      1 NMatT0=    0 NMatD0=    1 NMtDS0=    0 NMtDT0=    0
 Symmetry not used in FoFCou.
 Leave Link  703 at Thu Sep  8 14:51:28 2022, MaxMem= 24159191040 cpu:        15.9
 (Enter /public/home/users/caep010/software/Gaussian09/g09/l716.exe)
 Dipole        =-4.37635170D-01-6.18068810D-01 2.98300661D-01
 ***** Axes restored to original set *****
 -------------------------------------------------------------------
 Center     Atomic                   Forces (Hartrees/Bohr)
 Number     Number              X              Y              Z
 -------------------------------------------------------------------
      1        6          -0.000267417   -0.000075829    0.001181023
      2        7          -0.000965439   -0.001371802   -0.001091691
      3        6          -0.000842505    0.000860588    0.000363125
      4        6           0.001671116   -0.000011283    0.000685470
      5        7           0.000484876   -0.000332917   -0.000710720
      6        7           0.000043776    0.000498586   -0.000402800
      7        8          -0.003364363    0.002333538    0.000193367
      8        1          -0.000026321   -0.000104541   -0.000043658
      9        1           0.000116739   -0.000088171    0.000327724
     10        1           0.000098330   -0.000128221   -0.000012791
     11        1          -0.000051119    0.000003384   -0.000139054
     12        1           0.000024188   -0.000044635   -0.000128815
     13        1           0.000024285    0.000267649    0.000084378
     14        1          -0.000338788    0.001216494   -0.000248748
     15        1           0.000091068   -0.000647015    0.001389450
     16        1          -0.001053639   -0.000952643   -0.000749395
     17        1           0.001248969   -0.000268193    0.000886748
     18        1           0.003106244   -0.001154989   -0.001583614
 -------------------------------------------------------------------
 Cartesian Forces:  Max     0.003364363 RMS     0.000973533
 Leave Link  716 at Thu Sep  8 14:51:29 2022, MaxMem= 24159191040 cpu:         0.7
 (Enter /public/home/users/caep010/software/Gaussian09/g09/l103.exe)

 GradGradGradGradGradGradGradGradGradGradGradGradGradGradGradGradGradGrad
 Berny optimization.
 FormGI is forming the generalized inverse of G from B-inverse, IUseBI=4.
 Internal  Forces:  Max     0.003618670 RMS     0.000688108
 Search for a local minimum.
 Step number   1 out of a maximum of   88
 All quantities printed in internal units (Hartrees-Bohrs-Radians)
 RMS Force = .68811D-03 SwitMx=.10000D-02 MixMth= 2
 Mixed Optimization -- En-DIIS/RFO-DIIS
 Second derivative matrix not updated -- first step.
 ITU=  0
     Eigenvalues ---    0.00699   0.00790   0.00918   0.00976   0.01060
     Eigenvalues ---    0.01573   0.02305   0.03799   0.04335   0.05849
     Eigenvalues ---    0.07059   0.07154   0.07555   0.07619   0.08069
     Eigenvalues ---    0.08838   0.16000   0.16000   0.16000   0.16000
     Eigenvalues ---    0.16000   0.16000   0.16000   0.16000   0.16000
     Eigenvalues ---    0.16000   0.16000   0.17510   0.17959   0.18580
     Eigenvalues ---    0.18700   0.32827   0.32984   0.34281   0.34310
     Eigenvalues ---    0.34471   0.34997   0.35142   0.35961   0.37150
     Eigenvalues ---    0.37713   0.38538   0.44165   0.44938   0.45293
     Eigenvalues ---    0.45604   0.45897   0.54829
 RFO step:  Lambda=-1.10072155D-04 EMin= 6.98925278D-03
 Linear search not attempted -- first point.
 Iteration  1 RMS(Cart)=  0.01103315 RMS(Int)=  0.00003558
 Iteration  2 RMS(Cart)=  0.00005061 RMS(Int)=  0.00000327
 Iteration  3 RMS(Cart)=  0.00000000 RMS(Int)=  0.00000327
 ITry= 1 IFail=0 DXMaxC= 4.05D-02 DCOld= 1.00D+10 DXMaxT= 3.00D-01 DXLimC= 3.00D+00 Rises=F
 Variable       Old X    -DE/DX   Delta X   Delta X   Delta X     New X
                                 (Linear)    (Quad)   (Total)
    R1        2.74785   0.00146   0.00000   0.00386   0.00386   2.75171
    R2        2.06543   0.00007   0.00000   0.00020   0.00020   2.06563
    R3        2.09356   0.00025   0.00000   0.00075   0.00075   2.09431
    R4        2.06810  -0.00005   0.00000  -0.00014  -0.00014   2.06795
    R5        2.75621   0.00137   0.00000   0.00367   0.00367   2.75988
    R6        2.78745   0.00208   0.00000   0.00591   0.00591   2.79337
    R7        2.06858   0.00003   0.00000   0.00009   0.00009   2.06866
    R8        2.05680   0.00009   0.00000   0.00025   0.00025   2.05705
    R9        2.09080   0.00024   0.00000   0.00072   0.00072   2.09152
   R10        2.77443   0.00053   0.00000   0.00149   0.00149   2.77592
   R11        2.73590   0.00078   0.00000   0.00201   0.00201   2.73791
   R12        2.66258   0.00184   0.00000   0.00416   0.00416   2.66675
   R13        1.91637   0.00127   0.00000   0.00281   0.00281   1.91918
   R14        1.92048   0.00150   0.00000   0.00333   0.00333   1.92381
   R15        1.91280   0.00152   0.00000   0.00333   0.00333   1.91613
   R16        1.90948   0.00153   0.00000   0.00333   0.00333   1.91281
   R17        1.81984   0.00362   0.00000   0.00660   0.00660   1.82644
    A1        1.93015  -0.00015   0.00000  -0.00139  -0.00139   1.92876
    A2        1.98615   0.00039   0.00000   0.00292   0.00291   1.98907
    A3        1.90636   0.00006   0.00000   0.00039   0.00039   1.90675
    A4        1.88651  -0.00013   0.00000  -0.00085  -0.00084   1.88566
    A5        1.88325  -0.00012   0.00000  -0.00171  -0.00171   1.88154
    A6        1.86786  -0.00007   0.00000   0.00045   0.00045   1.86830
    A7        1.93361  -0.00001   0.00000  -0.00075  -0.00076   1.93286
    A8        1.98557  -0.00010   0.00000  -0.00125  -0.00126   1.98431
    A9        1.99799   0.00005   0.00000  -0.00038  -0.00039   1.99760
   A10        1.89834   0.00002   0.00000   0.00022   0.00021   1.89855
   A11        1.91888  -0.00022   0.00000  -0.00178  -0.00178   1.91710
   A12        1.97522   0.00023   0.00000   0.00180   0.00180   1.97702
   A13        1.89756  -0.00004   0.00000  -0.00102  -0.00102   1.89654
   A14        1.87441   0.00002   0.00000   0.00097   0.00097   1.87538
   A15        1.89764  -0.00002   0.00000  -0.00022  -0.00022   1.89742
   A16        2.03939  -0.00004   0.00000   0.00037   0.00037   2.03976
   A17        1.92799  -0.00019   0.00000  -0.00107  -0.00107   1.92692
   A18        1.84179   0.00027   0.00000   0.00164   0.00164   1.84342
   A19        1.87420   0.00026   0.00000   0.00128   0.00128   1.87548
   A20        1.86757  -0.00013   0.00000  -0.00056  -0.00056   1.86702
   A21        1.90943  -0.00020   0.00000  -0.00187  -0.00187   1.90757
   A22        1.88771  -0.00020   0.00000  -0.00025  -0.00026   1.88745
   A23        1.94029   0.00029   0.00000   0.00277   0.00277   1.94306
   A24        1.87944   0.00014   0.00000   0.00291   0.00290   1.88234
   A25        1.94161  -0.00012   0.00000   0.00113   0.00112   1.94273
   A26        1.95953   0.00024   0.00000   0.00339   0.00337   1.96290
   A27        1.94412   0.00021   0.00000   0.00453   0.00451   1.94863
   A28        1.81899  -0.00110   0.00000  -0.00685  -0.00685   1.81213
    D1       -3.13837  -0.00007   0.00000  -0.00134  -0.00134  -3.13971
    D2       -0.85818  -0.00009   0.00000  -0.00366  -0.00366  -0.86184
    D3       -1.01113  -0.00007   0.00000  -0.00140  -0.00140  -1.01252
    D4        1.26907  -0.00009   0.00000  -0.00372  -0.00372   1.26534
    D5        1.07476   0.00013   0.00000   0.00135   0.00135   1.07611
    D6       -2.92824   0.00011   0.00000  -0.00097  -0.00097  -2.92921
    D7       -0.99341  -0.00017   0.00000  -0.00274  -0.00274  -0.99615
    D8       -3.06933  -0.00000   0.00000  -0.00058  -0.00058  -3.06991
    D9        1.08821   0.00002   0.00000  -0.00024  -0.00024   1.08797
   D10        3.01610  -0.00006   0.00000   0.00006   0.00006   3.01616
   D11        0.94018   0.00010   0.00000   0.00222   0.00222   0.94240
   D12       -1.18547   0.00012   0.00000   0.00256   0.00257  -1.18290
   D13       -0.98128   0.00007   0.00000   0.01436   0.01436  -0.96692
   D14        1.16751   0.00024   0.00000   0.01548   0.01548   1.18299
   D15       -3.05367   0.00006   0.00000   0.01365   0.01365  -3.04001
   D16        1.26660   0.00001   0.00000   0.01174   0.01174   1.27834
   D17       -2.86780   0.00018   0.00000   0.01286   0.01286  -2.85493
   D18       -0.80579   0.00000   0.00000   0.01103   0.01103  -0.79476
   D19       -1.34546  -0.00017   0.00000   0.00065   0.00065  -1.34481
   D20        0.71444   0.00004   0.00000   0.00564   0.00564   0.72008
   D21        2.76150  -0.00011   0.00000   0.00075   0.00075   2.76224
   D22       -1.46179   0.00011   0.00000   0.00574   0.00574  -1.45605
   D23        0.71298   0.00005   0.00000   0.00256   0.00256   0.71553
   D24        2.77288   0.00027   0.00000   0.00754   0.00754   2.78043
   D25        0.33200   0.00026   0.00000   0.00959   0.00960   0.34160
   D26       -1.86010  -0.00010   0.00000   0.00008   0.00008  -1.86002
   D27        2.57405   0.00027   0.00000   0.01024   0.01025   2.58430
   D28        0.38195  -0.00009   0.00000   0.00073   0.00073   0.38268
   D29       -1.68813   0.00017   0.00000   0.00932   0.00932  -1.67881
   D30        2.40295  -0.00020   0.00000  -0.00019  -0.00020   2.40275
   D31       -2.57385   0.00007   0.00000   0.00091   0.00091  -2.57295
   D32        1.52577   0.00004   0.00000  -0.00015  -0.00015   1.52562
   D33       -0.49945  -0.00011   0.00000  -0.00040  -0.00040  -0.49986
         Item               Value     Threshold  Converged?
 Maximum Force            0.003619     0.000450     NO 
 RMS     Force            0.000688     0.000300     NO 
 Maximum Displacement     0.040509     0.001800     NO 
 RMS     Displacement     0.011037     0.001200     NO 
 Predicted change in Energy=-5.516074D-05
 Lowest energy point so far.  Saving SCF results.
 GradGradGradGradGradGradGradGradGradGradGradGradGradGradGradGradGradGrad

 Leave Link  103 at Thu Sep  8 14:51:29 2022, MaxMem= 24159191040 cpu:         2.5
 (Enter /public/home/users/caep010/software/Gaussian09/g09/l202.exe)
                          Input orientation:                          
 ---------------------------------------------------------------------
 Center     Atomic      Atomic             Coordinates (Angstroms)
 Number     Number       Type             X           Y           Z
 ---------------------------------------------------------------------
      1          6           0       -0.755878   -1.007159    1.080835
      2          7           0       -0.683448   -0.253377   -0.162917
      3          6           0       -1.613653    0.872313   -0.140496
      4          6           0        0.694760    0.099590   -0.564151
      5          7           0        1.503042    0.837594    0.415567
      6          7           0        1.435019   -1.091006   -0.929713
      7          8           0        0.559751    0.930794   -1.696541
      8          1           0       -0.056983   -1.847383    1.060701
      9          1           0       -0.541747   -0.404222    1.985743
     10          1           0       -1.764980   -1.414030    1.197849
     11          1           0       -2.623798    0.491191    0.040333
     12          1           0       -1.600530    1.381669   -1.102427
     13          1           0       -1.389598    1.609026    0.654504
     14          1           0        1.199612    1.806775    0.410001
     15          1           0        1.367662    0.473617    1.356624
     16          1           0        0.811385   -1.860047   -1.148337
     17          1           0        2.118334   -1.351712   -0.229936
     18          1           0        1.341053    0.726468   -2.227540
 ---------------------------------------------------------------------
                    Distance matrix (angstroms):
                    1          2          3          4          5
     1  C    0.000000
     2  N    1.456143   0.000000
     3  C    2.399967   1.460467   0.000000
     4  C    2.456670   1.478185   2.470902   0.000000
     5  N    2.991390   2.511096   3.166102   1.468952   0.000000
     6  N    2.974789   2.403643   3.711050   1.448841   2.352426
     7  O    3.633230   2.302131   2.673646   1.411181   2.315056
     8  H    1.093086   2.104888   3.356017   2.644989   3.171589
     9  H    1.108261   2.158605   2.701744   2.878322   2.861595
    10  H    1.094313   2.090097   2.653569   3.383195   4.044965
    11  H    2.610905   2.088218   1.094690   3.395818   4.158318
    12  H    3.344633   2.096926   1.088543   2.683621   3.497497
    13  H    2.725395   2.152991   1.106784   2.847466   3.003259
    14  H    3.491731   2.849277   3.015083   2.029366   1.015585
    15  H    2.603493   2.654162   3.359846   2.069316   1.018035
    16  H    2.855335   2.405611   3.789768   2.048182   3.193971
    17  H    3.177725   3.010118   4.345344   2.060229   2.363963
    18  H    4.283448   3.053092   3.620402   1.891436   2.650397
                    6          7          8          9         10
     6  N    0.000000
     7  O    2.332765   0.000000
     8  H    2.599985   3.962450   0.000000
     9  H    3.588755   4.068757   1.781408   0.000000
    10  H    3.856275   4.390907   1.767444   1.771097   0.000000
    11  H    4.462996   3.653077   3.619202   2.986858   2.388991
    12  H    3.918994   2.285405   4.181918   3.721186   3.624120
    13  H    4.216442   3.128478   3.726610   2.558166   3.094349
    14  H    3.201154   2.369447   3.918586   3.225493   4.447819
    15  H    2.771267   3.191167   2.739384   2.193681   3.660855
    16  H    1.013972   2.855283   2.373619   3.711179   3.513000
    17  H    1.012213   3.128888   2.577486   3.589290   4.137943
    18  H    2.235262   0.966510   4.403605   4.751332   5.095337
                   11         12         13         14         15
    11  H    0.000000
    12  H    1.773677   0.000000
    13  H    1.774827   1.784094   0.000000
    14  H    4.060281   3.210755   2.608236   0.000000
    15  H    4.202938   3.960007   3.063431   1.643669   0.000000
    16  H    4.329173   4.040812   4.486538   4.003088   3.468466
    17  H    5.094817   4.697080   4.674804   3.351061   2.532292
    18  H    4.573691   3.216843   4.067129   2.853715   3.593170
                   16         17         18
    16  H    0.000000
    17  H    1.676299   0.000000
    18  H    2.852242   2.985535   0.000000
 Stoichiometry    C3H11N3O
 Framework group  C1[X(C3H11N3O)]
 Deg. of freedom    48
 Full point group                 C1      NOp   1
 RotChk:  IX=0 Diff= 1.13D-02
 Largest Abelian subgroup         C1      NOp   1
 Largest concise Abelian subgroup C1      NOp   1
                         Standard orientation:                         
 ---------------------------------------------------------------------
 Center     Atomic      Atomic             Coordinates (Angstroms)
 Number     Number       Type             X           Y           Z
 ---------------------------------------------------------------------
      1          6           0       -1.473387   -1.242630    0.017300
      2          7           0       -0.794106   -0.031129   -0.419957
      3          6           0       -1.572449    1.153741   -0.068917
      4          6           0        0.627605    0.030033   -0.019921
      5          7           0        0.921281   -0.116141    1.411934
      6          7           0        1.394716   -0.976101   -0.725877
      7          8           0        1.075448    1.312115   -0.403500
      8          1           0       -0.886794   -2.126733   -0.245584
      9          1           0       -1.676440   -1.276805    1.106265
     10          1           0       -2.439187   -1.318405   -0.491631
     11          1           0       -2.567641    1.067000   -0.516592
     12          1           0       -1.088533    2.044524   -0.465474
     13          1           0       -1.709130    1.279769    1.022141
     14          1           0        0.702332    0.762902    1.871017
     15          1           0        0.346034   -0.841298    1.835765
     16          1           0        0.908398   -1.294601   -1.556655
     17          1           0        1.660256   -1.749364   -0.129112
     18          1           0        2.003276    1.172829   -0.635613
 ---------------------------------------------------------------------
 Rotational constants (GHZ):      3.3425332      2.4221571      1.9945877
 Leave Link  202 at Thu Sep  8 14:51:29 2022, MaxMem= 24159191040 cpu:         0.2
 (Enter /public/home/users/caep010/software/Gaussian09/g09/l301.exe)
 Standard basis: 6-31G(d,p) (6D, 7F)
 Ernie: Thresh=  0.10000D-02 Tol=  0.10000D-05 Strict=F.
 There are   160 symmetry adapted cartesian basis functions of A   symmetry.
 There are   160 symmetry adapted basis functions of A   symmetry.
   160 basis functions,   273 primitive gaussians,   160 cartesian basis functions
    29 alpha electrons       29 beta electrons
       nuclear repulsion energy       360.1616534051 Hartrees.
 IExCor=  402 DFT=T Ex+Corr=B3LYP ExCW=0 ScaHFX=  0.200000
 ScaDFX=  0.800000  0.720000  1.000000  0.810000 ScalE2=  1.000000  1.000000
 IRadAn=      0 IRanWt=     -1 IRanGd=            0 ICorTp=0 IEmpDi=  4
 NAtoms=   18 NActive=   18 NUniq=   18 SFac= 1.00D+00 NAtFMM=   60 NAOKFM=F Big=F
 Integral buffers will be    131072 words long.
 Raffenetti 2 integral format.
 Two-electron integral symmetry is turned on.
 Leave Link  301 at Thu Sep  8 14:51:29 2022, MaxMem= 24159191040 cpu:         1.6
 (Enter /public/home/users/caep010/software/Gaussian09/g09/l302.exe)
 NPDir=0 NMtPBC=     1 NCelOv=     1 NCel=       1 NClECP=     1 NCelD=      1
         NCelK=      1 NCelE2=     1 NClLst=     1 CellRange=     0.0.
 One-electron integrals computed using PRISM.
 NBasis=   160 RedAO= T EigKep=  2.03D-03  NBF=   160
 NBsUse=   160 1.00D-06 EigRej= -1.00D+00 NBFU=   160
 Precomputing XC quadrature grid using
 IXCGrd= 4 IRadAn=           0 IRanWt=          -1 IRanGd=           0 AccXCQ= 0.00D+00.
 Generated NRdTot=       0 NPtTot=           0 NUsed=           0 NTot=          32
 NSgBfM=   160   160   160   160   160 MxSgAt=    18 MxSgA2=    18.
 Leave Link  302 at Thu Sep  8 14:51:29 2022, MaxMem= 24159191040 cpu:        11.2
 (Enter /public/home/users/caep010/software/Gaussian09/g09/l303.exe)
 DipDrv:  MaxL=1.
 Leave Link  303 at Thu Sep  8 14:51:29 2022, MaxMem= 24159191040 cpu:         0.7
 (Enter /public/home/users/caep010/software/Gaussian09/g09/l401.exe)
 Initial guess from the checkpoint file:  "B3LYP6-31Gdp.Frag_1089.chk"
 B after Tr=     0.000000    0.000000    0.000000
         Rot=    0.999990   -0.004450    0.000189   -0.000361 Ang=  -0.51 deg.
 Guess basis will be translated and rotated to current coordinates.
 JPrj=2 DoOrth=T DoCkMO=T.
 Generating alternative initial guess.
 ExpMin= 1.61D-01 ExpMax= 5.48D+03 ExpMxC= 8.25D+02 IAcc=1 IRadAn=         1 AccDes= 0.00D+00
 Harris functional with IExCor=  402 and IRadAn=       1 diagonalized for initial guess.
 HarFok:  IExCor=  402 AccDes= 0.00D+00 IRadAn=         1 IDoV= 1 UseB2=F ITyADJ=14
 ICtDFT=  3500011 ScaDFX=  1.000000  1.000000  1.000000  1.000000
 FoFCou: FMM=F IPFlag=           0 FMFlag=      100000 FMFlg1=           0
         NFxFlg=           0 DoJE=T BraDBF=F KetDBF=T FulRan=T
         wScrn=  0.000000 ICntrl=     500 IOpCl=  0 I1Cent=   200000004 NGrid=           0
         NMat0=    1 NMatS0=      1 NMatT0=    0 NMatD0=    1 NMtDS0=    0 NMtDT0=    0
 Petite list used in FoFCou.
 Harris En= -360.441593674733    
 Leave Link  401 at Thu Sep  8 14:51:30 2022, MaxMem= 24159191040 cpu:        12.5
 (Enter /public/home/users/caep010/software/Gaussian09/g09/l502.exe)
 Closed shell SCF:
 Using DIIS extrapolation, IDIIS=  1040.
 Integral symmetry usage will be decided dynamically.
 Keep R1 ints in memory in canonical form, NReq=85141887.
 IVT=      101687 IEndB=      101687 NGot= 24159191040 MDV= 24076135714
 LenX= 24076135714 LenY= 24076109673
 Requested convergence on RMS density matrix=1.00D-08 within 128 cycles.
 Requested convergence on MAX density matrix=1.00D-06.
 Requested convergence on             energy=1.00D-06.
 No special actions if energy rises.
 FoFCou: FMM=F IPFlag=           0 FMFlag=           0 FMFlg1=           0
         NFxFlg=           0 DoJE=F BraDBF=F KetDBF=F FulRan=T
         wScrn=  0.000000 ICntrl=     600 IOpCl=  0 I1Cent=           0 NGrid=           0
         NMat0=    1 NMatS0=  12880 NMatT0=    0 NMatD0=    1 NMtDS0=    0 NMtDT0=    0
 Symmetry not used in FoFCou.
 Integral accuracy reduced to 1.0D-05 until final iterations.

 Cycle   1  Pass 0  IDiag  1:
 E= -360.418024444267    
 DIIS: error= 4.99D-04 at cycle   1 NSaved=   1.
 NSaved= 1 IEnMin= 1 EnMin= -360.418024444267     IErMin= 1 ErrMin= 4.99D-04
 ErrMax= 4.99D-04  0.00D+00 EMaxC= 1.00D-01 BMatC= 7.42D-05 BMatP= 7.42D-05
 IDIUse=3 WtCom= 9.95D-01 WtEn= 4.99D-03
 Coeff-Com:  0.100D+01
 Coeff-En:   0.100D+01
 Coeff:      0.100D+01
 Gap=     1.465 Goal=   None    Shift=    0.000
 RMSDP=8.73D-05 MaxDP=1.43D-03              OVMax= 2.66D-03

 Cycle   2  Pass 0  IDiag  1:
 E= -360.418147393587     Delta-E=       -0.000122949320 Rises=F Damp=F
 DIIS: error= 6.98D-05 at cycle   2 NSaved=   2.
 NSaved= 2 IEnMin= 2 EnMin= -360.418147393587     IErMin= 2 ErrMin= 6.98D-05
 ErrMax= 6.98D-05  0.00D+00 EMaxC= 1.00D-01 BMatC= 2.41D-06 BMatP= 7.42D-05
 IDIUse=1 WtCom= 1.00D+00 WtEn= 0.00D+00
 Coeff-Com: -0.119D-01 0.101D+01
 Coeff:     -0.119D-01 0.101D+01
 Gap=     0.275 Goal=   None    Shift=    0.000
 RMSDP=1.90D-05 MaxDP=5.01D-04 DE=-1.23D-04 OVMax= 4.61D-04

 Cycle   3  Pass 0  IDiag  1:
 E= -360.418147808548     Delta-E=       -0.000000414962 Rises=F Damp=F
 DIIS: error= 8.83D-05 at cycle   3 NSaved=   3.
 NSaved= 3 IEnMin= 3 EnMin= -360.418147808548     IErMin= 2 ErrMin= 6.98D-05
 ErrMax= 8.83D-05  0.00D+00 EMaxC= 1.00D-01 BMatC= 2.72D-06 BMatP= 2.41D-06
 IDIUse=1 WtCom= 1.00D+00 WtEn= 0.00D+00
 Coeff-Com: -0.355D-01 0.539D+00 0.496D+00
 Coeff:     -0.355D-01 0.539D+00 0.496D+00
 Gap=     0.275 Goal=   None    Shift=    0.000
 RMSDP=1.04D-05 MaxDP=3.09D-04 DE=-4.15D-07 OVMax= 2.97D-04

 Cycle   4  Pass 0  IDiag  1:
 E= -360.418149908209     Delta-E=       -0.000002099661 Rises=F Damp=F
 DIIS: error= 1.30D-05 at cycle   4 NSaved=   4.
 NSaved= 4 IEnMin= 4 EnMin= -360.418149908209     IErMin= 4 ErrMin= 1.30D-05
 ErrMax= 1.30D-05  0.00D+00 EMaxC= 1.00D-01 BMatC= 6.84D-08 BMatP= 2.41D-06
 IDIUse=1 WtCom= 1.00D+00 WtEn= 0.00D+00
 Coeff-Com: -0.133D-01 0.161D+00 0.207D+00 0.645D+00
 Coeff:     -0.133D-01 0.161D+00 0.207D+00 0.645D+00
 Gap=     0.275 Goal=   None    Shift=    0.000
 RMSDP=1.99D-06 MaxDP=5.03D-05 DE=-2.10D-06 OVMax= 5.75D-05

 Initial convergence to 1.0D-05 achieved.  Increase integral accuracy.
 Cycle   5  Pass 1  IDiag  1:
 E= -360.418190613381     Delta-E=       -0.000040705172 Rises=F Damp=F
 DIIS: error= 1.28D-05 at cycle   1 NSaved=   1.
 NSaved= 1 IEnMin= 1 EnMin= -360.418190613381     IErMin= 1 ErrMin= 1.28D-05
 ErrMax= 1.28D-05  0.00D+00 EMaxC= 1.00D-01 BMatC= 5.20D-08 BMatP= 5.20D-08
 IDIUse=1 WtCom= 1.00D+00 WtEn= 0.00D+00
 Coeff-Com:  0.100D+01
 Coeff:      0.100D+01
 Gap=     0.275 Goal=   None    Shift=    0.000
 RMSDP=1.99D-06 MaxDP=5.03D-05 DE=-4.07D-05 OVMax= 7.79D-05

 Cycle   6  Pass 1  IDiag  1:
 E= -360.418190654619     Delta-E=       -0.000000041238 Rises=F Damp=F
 DIIS: error= 8.05D-06 at cycle   2 NSaved=   2.
 NSaved= 2 IEnMin= 2 EnMin= -360.418190654619     IErMin= 2 ErrMin= 8.05D-06
 ErrMax= 8.05D-06  0.00D+00 EMaxC= 1.00D-01 BMatC= 2.23D-08 BMatP= 5.20D-08
 IDIUse=1 WtCom= 1.00D+00 WtEn= 0.00D+00
 Coeff-Com:  0.351D+00 0.649D+00
 Coeff:      0.351D+00 0.649D+00
 Gap=     0.275 Goal=   None    Shift=    0.000
 RMSDP=1.30D-06 MaxDP=3.50D-05 DE=-4.12D-08 OVMax= 3.81D-05

 Cycle   7  Pass 1  IDiag  1:
 E= -360.418190665025     Delta-E=       -0.000000010406 Rises=F Damp=F
 DIIS: error= 5.42D-06 at cycle   3 NSaved=   3.
 NSaved= 3 IEnMin= 3 EnMin= -360.418190665025     IErMin= 3 ErrMin= 5.42D-06
 ErrMax= 5.42D-06  0.00D+00 EMaxC= 1.00D-01 BMatC= 9.73D-09 BMatP= 2.23D-08
 IDIUse=1 WtCom= 1.00D+00 WtEn= 0.00D+00
 Coeff-Com: -0.142D-01 0.396D+00 0.618D+00
 Coeff:     -0.142D-01 0.396D+00 0.618D+00
 Gap=     0.275 Goal=   None    Shift=    0.000
 RMSDP=5.45D-07 MaxDP=1.63D-05 DE=-1.04D-08 OVMax= 1.65D-05

 Cycle   8  Pass 1  IDiag  1:
 E= -360.418190672387     Delta-E=       -0.000000007362 Rises=F Damp=F
 DIIS: error= 6.50D-07 at cycle   4 NSaved=   4.
 NSaved= 4 IEnMin= 4 EnMin= -360.418190672387     IErMin= 4 ErrMin= 6.50D-07
 ErrMax= 6.50D-07  0.00D+00 EMaxC= 1.00D-01 BMatC= 1.83D-10 BMatP= 9.73D-09
 IDIUse=1 WtCom= 1.00D+00 WtEn= 0.00D+00
 Coeff-Com: -0.138D-01 0.171D+00 0.289D+00 0.553D+00
 Coeff:     -0.138D-01 0.171D+00 0.289D+00 0.553D+00
 Gap=     0.275 Goal=   None    Shift=    0.000
 RMSDP=9.79D-08 MaxDP=1.98D-06 DE=-7.36D-09 OVMax= 2.54D-06

 Cycle   9  Pass 1  IDiag  1:
 E= -360.418190672545     Delta-E=       -0.000000000158 Rises=F Damp=F
 DIIS: error= 1.47D-07 at cycle   5 NSaved=   5.
 NSaved= 5 IEnMin= 5 EnMin= -360.418190672545     IErMin= 5 ErrMin= 1.47D-07
 ErrMax= 1.47D-07  0.00D+00 EMaxC= 1.00D-01 BMatC= 6.11D-12 BMatP= 1.83D-10
 IDIUse=1 WtCom= 1.00D+00 WtEn= 0.00D+00
 Coeff-Com: -0.498D-02 0.501D-01 0.880D-01 0.223D+00 0.644D+00
 Coeff:     -0.498D-02 0.501D-01 0.880D-01 0.223D+00 0.644D+00
 Gap=     0.275 Goal=   None    Shift=    0.000
 RMSDP=2.29D-08 MaxDP=5.95D-07 DE=-1.58D-10 OVMax= 6.22D-07

 Cycle  10  Pass 1  IDiag  1:
 E= -360.418190672552     Delta-E=       -0.000000000007 Rises=F Damp=F
 DIIS: error= 2.97D-08 at cycle   6 NSaved=   6.
 NSaved= 6 IEnMin= 6 EnMin= -360.418190672552     IErMin= 6 ErrMin= 2.97D-08
 ErrMax= 2.97D-08  0.00D+00 EMaxC= 1.00D-01 BMatC= 3.94D-13 BMatP= 6.11D-12
 IDIUse=1 WtCom= 1.00D+00 WtEn= 0.00D+00
 Coeff-Com: -0.468D-03 0.161D-02 0.422D-02 0.245D-01 0.225D+00 0.745D+00
 Coeff:     -0.468D-03 0.161D-02 0.422D-02 0.245D-01 0.225D+00 0.745D+00
 Gap=     0.275 Goal=   None    Shift=    0.000
 RMSDP=6.74D-09 MaxDP=1.45D-07 DE=-7.28D-12 OVMax= 2.57D-07

 SCF Done:  E(RB3LYP) =  -360.418190673     A.U. after   10 cycles
            NFock= 10  Conv=0.67D-08     -V/T= 2.0092
 KE= 3.571321938339D+02 PE=-1.561008451466D+03 EE= 4.832964135548D+02
 Leave Link  502 at Thu Sep  8 14:51:33 2022, MaxMem= 24159191040 cpu:        61.0
 (Enter /public/home/users/caep010/software/Gaussian09/g09/l701.exe)
 Compute integral first derivatives.
 ... and contract with generalized density number  0.
 Leave Link  701 at Thu Sep  8 14:51:34 2022, MaxMem= 24159191040 cpu:        11.1
 (Enter /public/home/users/caep010/software/Gaussian09/g09/l702.exe)
 L702 exits ... SP integral derivatives will be done elsewhere.
 Leave Link  702 at Thu Sep  8 14:51:34 2022, MaxMem= 24159191040 cpu:         0.6
 (Enter /public/home/users/caep010/software/Gaussian09/g09/l703.exe)
 Compute integral first derivatives, UseDBF=F ICtDFT=           0.
 Integral derivatives from FoFJK, PRISM(SPDF).
 Calling FoFJK, ICntrl=      2127 FMM=F ISym2X=0 I1Cent= 0 IOpClX= 0 NMat=1 NMatS=1 NMatT=0.
 FoFJK:  IHMeth= 1 ICntrl=    2127 DoSepK=F KAlg= 0 I1Cent=   0 FoldK=F
 IRaf=         0 NMat=   1 IRICut=       1 DoRegI=T DoRafI=F ISym2E= 0.
 FoFCou: FMM=F IPFlag=           0 FMFlag=      100000 FMFlg1=         800
         NFxFlg=           0 DoJE=F BraDBF=F KetDBF=F FulRan=T
         wScrn=  0.000000 ICntrl=    2127 IOpCl=  0 I1Cent=           0 NGrid=           0
         NMat0=    1 NMatS0=      1 NMatT0=    0 NMatD0=    1 NMtDS0=    0 NMtDT0=    0
 Symmetry not used in FoFCou.
 Leave Link  703 at Thu Sep  8 14:51:34 2022, MaxMem= 24159191040 cpu:        16.7
 (Enter /public/home/users/caep010/software/Gaussian09/g09/l716.exe)
 Dipole        =-4.31241641D-01-6.28397436D-01 2.90771592D-01
 ***** Axes restored to original set *****
 -------------------------------------------------------------------
 Center     Atomic                   Forces (Hartrees/Bohr)
 Number     Number              X              Y              Z
 -------------------------------------------------------------------
      1        6           0.000137279    0.000076982    0.000400595
      2        7          -0.000490530   -0.000380375   -0.000427496
      3        6          -0.000182404    0.000464528    0.000154868
      4        6           0.001006137   -0.000149041    0.000846640
      5        7          -0.000168793   -0.000211168   -0.000281029
      6        7          -0.000074436    0.000051227    0.000298001
      7        8          -0.000561070    0.000484892   -0.000190886
      8        1           0.000102128   -0.000098036   -0.000148913
      9        1           0.000007745    0.000002487   -0.000187868
     10        1           0.000009174    0.000018800   -0.000116319
     11        1           0.000059002   -0.000085815   -0.000009845
     12        1           0.000042214   -0.000010652   -0.000021633
     13        1           0.000038763   -0.000070913   -0.000086221
     14        1          -0.000035876   -0.000098193   -0.000034221
     15        1           0.000011259   -0.000010610   -0.000173875
     16        1          -0.000104265    0.000213993    0.000100161
     17        1          -0.000089781    0.000023151   -0.000111459
     18        1           0.000293452   -0.000221257   -0.000010501
 -------------------------------------------------------------------
 Cartesian Forces:  Max     0.001006137 RMS     0.000272075
 Leave Link  716 at Thu Sep  8 14:51:35 2022, MaxMem= 24159191040 cpu:         0.5
 (Enter /public/home/users/caep010/software/Gaussian09/g09/l103.exe)

 GradGradGradGradGradGradGradGradGradGradGradGradGradGradGradGradGradGrad
 Berny optimization.
 Using GEDIIS/GDIIS optimizer.
 FormGI is forming the generalized inverse of G from B-inverse, IUseBI=4.
 Internal  Forces:  Max     0.000594429 RMS     0.000163304
 Search for a local minimum.
 Step number   2 out of a maximum of   88
 All quantities printed in internal units (Hartrees-Bohrs-Radians)
 RMS Force = .16330D-03 SwitMx=.10000D-02 MixMth= 2
 Mixed Optimization -- En-DIIS/RFO-DIIS
 Swapping is turned off.
 Update second derivatives using D2CorX and points    1    2
 DE= -5.74D-05 DEPred=-5.52D-05 R= 1.04D+00
 TightC=F SS=  1.41D+00  RLast= 4.28D-02 DXNew= 5.0454D-01 1.2829D-01
 Trust test= 1.04D+00 RLast= 4.28D-02 DXMaxT set to 3.00D-01
 ITU=  1  0
     Eigenvalues ---    0.00747   0.00784   0.00918   0.00976   0.01068
     Eigenvalues ---    0.01573   0.02283   0.03817   0.04328   0.05845
     Eigenvalues ---    0.07031   0.07143   0.07490   0.07614   0.08020
     Eigenvalues ---    0.08892   0.14497   0.16000   0.16000   0.16000
     Eigenvalues ---    0.16000   0.16000   0.16000   0.16000   0.16000
     Eigenvalues ---    0.16000   0.16255   0.17686   0.17890   0.18466
     Eigenvalues ---    0.18844   0.32819   0.32990   0.33666   0.34282
     Eigenvalues ---    0.34315   0.34560   0.34998   0.36277   0.36956
     Eigenvalues ---    0.37810   0.39558   0.43375   0.45090   0.45394
     Eigenvalues ---    0.45758   0.47936   0.53941
 En-DIIS/RFO-DIIS IScMMF=        0 using points:     2    1
 RFO step:  Lambda=-4.65021034D-06.
 NNeg= 0 NP= 2 Switch=  2.50D-03 Rises=F DC=  5.74D-05 SmlDif=  1.00D-05
 RMS Error=  0.4024642238D-03 NUsed= 2 EDIIS=F
 DidBck=F Rises=F RFO-DIIS coefs:    1.00310   -0.00310
 Iteration  1 RMS(Cart)=  0.00450781 RMS(Int)=  0.00000621
 Iteration  2 RMS(Cart)=  0.00001020 RMS(Int)=  0.00000059
 Iteration  3 RMS(Cart)=  0.00000000 RMS(Int)=  0.00000059
 ITry= 1 IFail=0 DXMaxC= 1.56D-02 DCOld= 1.00D+10 DXMaxT= 3.00D-01 DXLimC= 3.00D+00 Rises=F
 Variable       Old X    -DE/DX   Delta X   Delta X   Delta X     New X
                                 (Linear)    (Quad)   (Total)
    R1        2.75171  -0.00005   0.00001   0.00031   0.00032   2.75203
    R2        2.06563   0.00015   0.00000   0.00045   0.00045   2.06609
    R3        2.09431  -0.00015   0.00000  -0.00037  -0.00037   2.09394
    R4        2.06795  -0.00003  -0.00000  -0.00011  -0.00011   2.06784
    R5        2.75988   0.00024   0.00001   0.00107   0.00108   2.76096
    R6        2.79337   0.00017   0.00002   0.00114   0.00116   2.79452
    R7        2.06866  -0.00002   0.00000  -0.00005  -0.00005   2.06862
    R8        2.05705   0.00001   0.00000   0.00006   0.00006   2.05711
    R9        2.09152  -0.00011   0.00000  -0.00025  -0.00025   2.09127
   R10        2.77592  -0.00059   0.00000  -0.00149  -0.00149   2.77443
   R11        2.73791  -0.00045   0.00001  -0.00095  -0.00094   2.73697
   R12        2.66675   0.00035   0.00001   0.00126   0.00127   2.66802
   R13        1.91918  -0.00007   0.00001   0.00015   0.00016   1.91934
   R14        1.92381  -0.00016   0.00001   0.00001   0.00002   1.92383
   R15        1.91613  -0.00013   0.00001   0.00009   0.00010   1.91623
   R16        1.91281  -0.00014   0.00001   0.00007   0.00008   1.91288
   R17        1.82644   0.00029   0.00002   0.00127   0.00129   1.82773
    A1        1.92876  -0.00017  -0.00000  -0.00133  -0.00134   1.92743
    A2        1.98907  -0.00009   0.00001  -0.00013  -0.00012   1.98895
    A3        1.90675  -0.00008   0.00000  -0.00046  -0.00046   1.90629
    A4        1.88566   0.00014  -0.00000   0.00073   0.00073   1.88639
    A5        1.88154   0.00009  -0.00001   0.00014   0.00014   1.88168
    A6        1.86830   0.00013   0.00000   0.00114   0.00114   1.86944
    A7        1.93286   0.00025  -0.00000   0.00054   0.00053   1.93339
    A8        1.98431  -0.00039  -0.00000  -0.00295  -0.00295   1.98136
    A9        1.99760   0.00008  -0.00000  -0.00022  -0.00023   1.99737
   A10        1.89855  -0.00014   0.00000  -0.00087  -0.00087   1.89768
   A11        1.91710  -0.00004  -0.00001  -0.00047  -0.00048   1.91662
   A12        1.97702  -0.00002   0.00001   0.00013   0.00013   1.97715
   A13        1.89654   0.00008  -0.00000   0.00028   0.00028   1.89681
   A14        1.87538   0.00010   0.00000   0.00077   0.00078   1.87615
   A15        1.89742   0.00003  -0.00000   0.00020   0.00020   1.89762
   A16        2.03976   0.00027   0.00000   0.00160   0.00161   2.04136
   A17        1.92692  -0.00026  -0.00000  -0.00205  -0.00205   1.92486
   A18        1.84342  -0.00009   0.00001  -0.00059  -0.00059   1.84283
   A19        1.87548  -0.00001   0.00000   0.00021   0.00021   1.87570
   A20        1.86702  -0.00006  -0.00000   0.00015   0.00015   1.86717
   A21        1.90757   0.00018  -0.00001   0.00075   0.00075   1.90831
   A22        1.88745  -0.00011  -0.00000  -0.00089  -0.00089   1.88656
   A23        1.94306  -0.00008   0.00001  -0.00031  -0.00030   1.94276
   A24        1.88234   0.00007   0.00001   0.00046   0.00047   1.88281
[...]
 027652,-0.0826931,-0.1876132,-0.433471,-0.1602744,-0.1042766,-0.154951
 1,-0.4146207,-0.6021192,0.2499479,0.2108852,0.1417213,-0.6013869,-0.01
 23576,0.342603,-0.1640409,-0.5514288,-0.4473329,-0.0451037,-0.0175755,
 -0.0539756,-0.6701122,0.2623493,0.0075313,0.2071133,-0.9066811,-0.0001
 77,0.1378481,-0.0519437,0.1013598,-0.0711183,0.0015791,-0.009765,-0.01
 27133,0.0440061,0.0208687,-0.0273131,-0.0744991,-0.040907,-0.0699724,-
 0.1442513,-0.022511,-0.0140807,-0.221605,-0.1246516,-0.1016553,0.05475
 49,-0.0633134,0.0346283,0.0108135,0.0078787,0.0193061,0.024324,-0.1616
 945,-0.0253311,0.0268041,-0.0757345,0.006013,0.005568,0.0680866,-0.013
 4844,0.0579982,0.1141804,0.0003795,-0.0184087,0.0306091,0.0039389,0.05
 4562,-0.0319275,0.0665946,-0.0368693,-0.0098714,-0.0303724,-0.0782339,
 0.0635742,-0.146375,-0.0839677,0.0038973,-0.1726102,-0.1084494,0.23717
 21,0.1626039,0.0021721,0.0778093,0.0900457,-0.0190515,-0.0373575,-0.03
 71348,0.1405368,0.3073541,0.0026634,0.0950882,-0.0166855,0.1102977,0.0
 438964,0.0173848,0.0361607,-0.0187807,0.1502194,-0.0969358,-0.0764118,
 -0.0456455,0.0940074,-0.0017257,-0.0828803,0.0749765,0.2742503,0.23393
 82,-0.0177287,-0.0565249,0.0283907,0.1338877,0.0100619,-0.1442446,0.06
 67452,0.1157448,0.1823548,0.0268733,0.0450793,0.0486267,0.3243039,-0.0
 436041,-0.0081868,-0.0153418,0.3404647\Polar=58.6317432,-2.3750943,57.
 3774561,-2.8829203,-2.5813356,55.9885223\PG=C01 [X(C3H11N3O1)]\NImag=0
 \\0.60902267,-0.01872098,0.55580751,-0.01166450,0.02114810,0.47148461,
 -0.09953239,0.00720865,0.01600044,0.46940378,0.00682724,-0.10860361,0.
 08505226,-0.08259953,0.42637697,0.00790854,0.04371657,-0.16722562,-0.0
 7266104,-0.13878655,0.39078044,0.00102874,0.00804946,-0.00659424,-0.13
 333381,0.04784324,0.00311695,0.54859654,0.01447583,-0.02754629,0.00162
 124,0.06661158,-0.15872751,0.02574375,0.05377118,0.50798305,-0.0235684
 8,0.03087294,-0.00898992,0.02505764,-0.00122024,-0.07724025,-0.0131381
 9,-0.04755380,0.59284408,0.00020922,-0.01786714,0.01373689,-0.13268866
 ,0.01080591,0.02701816,-0.03385546,0.00777878,0.00024787,0.46738560,-0
 .02015800,-0.00845473,0.00451069,-0.01037383,-0.09251214,0.02162112,0.
 02523257,0.01034867,-0.01192986,-0.03441988,0.54104346,0.02854059,0.01
 316142,-0.01608527,0.00256321,0.01214128,-0.07939411,0.00685740,-0.011
 45881,0.00117674,-0.01129789,-0.00806134,0.52283767,-0.00103752,0.0039
 3755,-0.00627517,-0.04155498,-0.03170433,-0.02081407,0.00441418,-0.006
 06518,0.00020690,-0.09047227,-0.00802089,-0.01324780,0.19407562,-0.000
 19041,0.00133234,-0.00328328,-0.02176584,-0.00456741,-0.00646088,0.001
 07613,-0.00291278,-0.00024237,-0.03618295,-0.12916267,-0.02641627,-0.0
 4623661,0.66731202,-0.00011683,0.00014330,-0.00241724,-0.00732596,-0.0
 0328401,0.00700896,0.00074019,-0.00095300,-0.00087843,-0.04936164,-0.0
 2633435,-0.12141339,0.03334421,-0.06899044,0.59430220,-0.00054487,0.00
 097483,-0.00207176,-0.03805536,0.03416073,0.00894053,-0.00283485,-0.00
 411333,0.00491108,-0.12198305,0.03154245,0.00923653,0.01053331,-0.0175
 8355,-0.00811449,0.57129547,-0.00007523,-0.00320135,0.00175650,0.01228
 350,-0.00057812,-0.00194728,0.00006386,0.00117628,-0.00070933,0.059112
 85,-0.17077451,-0.05430786,0.00408363,-0.03568123,-0.01728858,0.014603
 49,0.60864473,0.00104525,0.00172124,-0.00079061,0.00943913,-0.00925686
 ,0.00413370,0.00146695,0.00271046,-0.00010445,-0.01458391,-0.00391434,
 -0.09111536,0.00472288,-0.03355069,-0.00686037,0.28095488,0.04233069,0
 .33879422,-0.00573752,0.00136059,-0.00055200,-0.00273894,-0.02625311,0
 .03655164,-0.00414192,-0.00019806,0.00129575,-0.09706915,0.00451739,0.
 01547920,0.00255005,0.01169691,-0.02716019,-0.00311171,0.02621703,-0.0
 1421602,0.45418005,-0.00128267,0.00262447,-0.00046215,-0.00979729,-0.0
 0825541,0.02129900,0.00227572,-0.00135836,0.00018475,0.02668455,-0.110
 66938,0.03717612,0.00197106,0.00914129,-0.00178234,0.02991906,-0.03846
 524,0.02911185,-0.13333123,0.19571871,0.00518993,-0.00087489,0.0005473
 1,0.01165999,0.02164765,-0.02448896,0.00145876,0.00200974,-0.00168351,
 -0.01733767,0.05747916,-0.16121110,-0.01513700,0.02347451,-0.05397899,
 -0.00925285,0.01403741,0.01091353,-0.20780029,-0.06175169,0.40680331,-
 0.15884456,0.13112565,0.00520535,0.00144594,-0.00146960,-0.00185704,0.
 00030963,-0.00045378,-0.00013058,-0.00105720,-0.00105141,0.00006073,0.
 00015587,0.00014891,0.00013900,-0.00087395,-0.00085545,0.00136174,0.00
 026760,0.00039616,-0.00032953,0.16954912,0.12765620,-0.20182747,-0.007
 86307,0.01110055,-0.01540557,0.00366002,-0.00208899,-0.00109859,0.0042
 7807,0.00383223,-0.00198063,-0.00059311,-0.00115250,0.00021971,0.00022
 074,0.00073808,0.00209685,-0.00251332,-0.00057786,0.00045269,-0.000159
 66,-0.14473388,0.22055099,0.01077302,-0.01363994,-0.05132984,-0.022719
 66,0.02453230,-0.00029031,0.00218499,0.00275297,-0.00492486,-0.0015142
 1,0.00196345,0.00129162,0.00037960,-0.00011170,0.00006641,0.00040320,-
 0.00076268,0.00017090,0.00006841,-0.00072608,0.00023929,-0.00739853,0.
 00486475,0.05742977,-0.06117145,-0.02565389,-0.03380790,0.00267493,0.0
 0383051,-0.00016259,0.00047494,-0.00168305,-0.00114135,-0.00004858,0.0
 0118360,0.00149607,0.00072668,-0.00000228,0.00052719,-0.00013578,-0.00
 035659,0.00039793,-0.00000258,-0.00009056,-0.00030161,0.00527935,0.012
 18404,0.01702412,0.05945032,-0.02540488,-0.13022083,-0.10054524,0.0052
 7947,0.01264588,0.01614411,-0.00052086,0.00449474,0.00247470,0.0001826
 4,0.00019469,0.00030482,0.00069769,0.00009300,0.00047758,0.00030580,0.
 00045723,-0.00062196,-0.00004912,-0.00012117,0.00003983,-0.00691334,-0
 .01360324,-0.01837614,0.03021615,0.13371549,-0.03535962,-0.10310003,-0
 .18336037,-0.00236025,-0.00338918,-0.04120760,0.00382143,-0.00443259,0
 .00101397,-0.01033198,-0.00398336,-0.00109547,0.00134480,0.00136534,0.
 00226411,0.00137663,-0.00001125,0.00032797,0.00167843,0.00125555,0.000
 17610,-0.00013587,-0.00200948,-0.00005746,0.03998551,0.11090179,0.2179
 1487,-0.27766626,-0.08953713,0.02105617,0.00006425,0.00030911,0.004580
 35,0.00064634,0.00140502,-0.00081200,0.00106485,0.00047009,-0.00111622
 ,-0.00008027,-0.00001246,-0.00016847,-0.00036429,-0.00071453,0.0008029
 4,0.00011909,-0.00025892,0.00036965,-0.01678994,-0.00756152,0.00074228
 ,-0.00576090,-0.00165400,-0.00039491,0.29737099,-0.08612979,-0.0815143
 2,0.00688394,-0.01667396,-0.00736586,0.00779000,-0.00238462,0.00027180
 ,-0.00006885,0.00233357,-0.00339369,0.00059358,-0.00034494,0.00044402,
 0.00028471,0.00050756,0.00097178,-0.00095380,-0.00083129,0.00007216,0.
 00105521,0.02329393,0.01112711,-0.00214735,-0.01908780,-0.00734629,-0.
 00036863,0.09810013,0.08716346,0.01480234,0.00528422,-0.04675120,0.032
 62877,0.01390602,-0.01174054,0.00170267,-0.00093766,0.00050547,-0.0042
 1336,0.00320371,-0.00303468,0.00064841,0.00006611,0.00079573,0.0002376
 1,0.00023274,0.00003384,0.00181810,0.00042303,-0.00137825,0.00166150,-
 0.00004908,-0.00059218,-0.02410620,-0.00910803,0.00243018,-0.02456823,
 -0.01366084,0.05923206,0.00014631,-0.00186648,0.00132392,-0.02560118,-
 0.00110605,0.00703426,-0.26475633,-0.08827305,0.03874707,0.00157983,0.
 00340968,-0.00263702,-0.00045860,-0.00039794,0.00005852,-0.00144398,0.
 00050088,0.00070069,0.00001262,-0.00011707,0.00007855,0.00060563,0.000
 12623,0.00011534,-0.00020353,-0.00012500,-0.00044152,0.00045600,0.0008
 9738,-0.00072064,0.29405843,0.00183352,0.00124187,-0.00068546,0.032058
 98,0.00709585,-0.00622300,-0.09587896,-0.08590761,0.01796630,0.0010204
 1,-0.00549549,0.00220171,0.00032206,0.00080924,0.00024750,0.00165009,-
 0.00002803,-0.00103034,-0.00084651,0.00053339,0.00031804,0.00001372,0.
 00033680,-0.00035139,-0.00031416,-0.00042847,0.00017704,-0.00044112,-0
 .00014047,0.00021839,0.09149371,0.09398210,-0.00157713,0.00001026,0.00
 019935,0.00194783,0.00079789,-0.00115486,0.03965509,0.01636727,-0.0561
 1786,-0.00114801,0.00050088,-0.00105824,0.00013552,0.00034443,0.000649
 41,0.00027556,-0.00025694,0.00012027,0.00135021,-0.00040103,-0.0002136
 4,0.00000505,-0.00022603,-0.00008621,-0.00009581,-0.00010824,-0.000003
 52,0.00001745,0.00025999,0.00030955,-0.04492109,-0.01698551,0.05532020
 ,-0.00406454,0.00272600,0.00062789,-0.00047883,0.01345289,-0.02037509,
 -0.04822285,-0.00725465,0.01033966,0.00098168,0.00191419,-0.00393891,-
 0.00048948,-0.00037677,0.00062613,0.00048015,-0.00065858,0.00042709,-0
 .00351064,-0.00039552,0.00215885,0.00041892,0.00106643,-0.00110352,0.0
 0001691,-0.00014158,0.00016383,0.00052557,0.00010907,0.00009938,0.0017
 0719,-0.01266416,0.02665263,0.05178245,0.00466993,-0.00310584,-0.00094
 661,0.00007431,-0.01727912,0.02395199,-0.00194185,-0.10585043,0.107720
 34,-0.00115829,-0.00091391,0.00235321,0.00026307,0.00040775,-0.0002017
 2,-0.00004667,0.00037479,-0.00033317,-0.00146115,0.00087505,-0.0002810
 0,0.00025712,-0.00074525,0.00164119,0.00019491,0.00004612,0.00052587,0
 .00010958,0.00024515,-0.00034100,-0.00010431,-0.00493672,0.00949152,-0
 .00100400,0.11966596,-0.00015118,-0.00021226,0.00102492,-0.00212588,0.
 00039093,0.00357263,0.00237583,0.11498512,-0.27237560,0.00059698,0.001
 30332,-0.00070706,-0.00026703,-0.00003376,0.00014776,-0.00029196,-0.00
 020803,0.00006435,0.00391502,-0.00090502,-0.00155128,0.00017553,-0.000
 03023,0.00023663,0.00018614,-0.00019345,0.00037263,0.00009347,-0.00011
 393,-0.00006583,0.00023755,-0.00004671,-0.00178832,-0.00698011,-0.1238
 7181,0.28996053,0.00032723,-0.00111530,0.00314766,0.00295310,0.0222716
 6,0.01735449,-0.06547364,-0.03598303,-0.04113125,0.00341774,0.00263415
 ,0.00136663,0.00112479,-0.00069746,-0.00056402,-0.00096249,-0.00031833
 ,-0.00017738,-0.00010652,-0.00031695,-0.00007079,-0.00001025,-0.000114
 02,-0.00003447,0.00009965,-0.00098917,-0.00084692,-0.00030108,0.000076
 36,-0.00048630,-0.00650260,-0.01864644,-0.02280991,0.00029945,0.000576
 59,0.00165825,0.06632821,-0.00039454,0.00219732,-0.00615061,0.00824879
 ,-0.03022662,-0.01797096,-0.03710874,-0.14072534,-0.10302626,-0.006156
 49,-0.00289505,0.00108696,0.00099682,0.00163039,0.00115110,0.00148333,
 0.00002289,-0.00000576,0.00024147,0.00082585,-0.00036954,0.00028785,0.
 00037691,0.00064678,0.00017228,0.00045208,0.00231684,-0.00027269,-0.00
 014905,0.00020556,-0.00442038,-0.00741786,-0.00965336,0.00344587,0.011
 23455,0.00945984,0.03326878,0.16408453,0.00079947,0.00248235,0.0024290
 1,0.00783394,-0.00542242,0.00118723,-0.04269958,-0.10169260,-0.1739168
 9,-0.00366012,-0.00217477,-0.00005350,0.00078281,0.00105054,0.00087393
 ,0.00071976,0.00001033,0.00004796,0.00072416,0.00053108,0.00012239,0.0
 0015664,-0.00016312,0.00013134,0.00032440,-0.00181984,0.00101288,-0.00
 020337,-0.00012860,-0.00000820,0.00076355,0.00420612,0.00358464,-0.009
 09394,-0.01945029,-0.01878687,0.04306341,0.12223458,0.18344498,-0.0003
 0002,-0.00012629,0.00030817,-0.00099822,0.00090247,-0.00016652,-0.0005
 1513,-0.00107457,-0.00112027,0.00109977,-0.02525965,-0.00334601,-0.055
 18737,0.14851772,-0.01572310,0.00024240,0.00046744,-0.00136776,-0.0011
 0872,-0.00145798,0.00239612,-0.00002636,0.00016338,-0.00000392,0.00006
 055,-0.00025378,0.00004734,0.00007554,0.00000952,-0.00013050,0.0001321
 5,0.00042340,0.00027176,-0.00005056,0.00002897,-0.00008002,-0.00112671
 ,0.00038023,0.00057338,0.05920697,0.00001262,-0.00045880,-0.00001887,0
 .00096612,0.00131658,0.00063623,-0.00012818,-0.00007785,-0.00052097,0.
 01116177,-0.02173185,-0.00052708,0.09916598,-0.39278147,0.00662024,-0.
 00330448,-0.00148634,-0.00240758,-0.00008341,0.00234410,0.00341094,0.0
 0000192,0.00020168,-0.00004750,-0.00003874,-0.00006232,0.00012837,0.00
 002968,0.00009354,-0.00002234,0.00004901,0.00022486,0.00017461,0.00000
 410,0.00006967,0.00008122,-0.00029417,0.00027492,0.00036267,-0.1144192
 0,0.42285677,0.00046259,0.00038428,-0.00007197,-0.00039111,0.00037322,
 -0.00027399,-0.00020125,0.00042553,0.00094582,0.01257539,-0.02650879,0
 .00355928,-0.01215090,-0.00534387,-0.05699732,-0.00377635,-0.00436694,
 -0.00422352,0.00129294,0.00249987,0.00093716,-0.00002959,-0.00014368,-
 0.00019143,-0.00007312,0.00007217,0.00003570,0.00004038,0.00001078,0.0
 0006612,-0.00008433,0.00005992,-0.00020779,-0.00030482,-0.00006629,-0.
 00022172,-0.00007439,-0.00019429,-0.00016879,0.01381885,-0.00331399,0.
 05826471,-0.00105394,-0.00226401,-0.00209284,0.00160209,0.00091684,0.0
 0207027,-0.00090023,0.00048146,-0.00032516,-0.00092873,0.00742243,-0.0
 2133606,-0.02203137,-0.03845495,0.07406206,-0.00078170,0.00094864,0.00
 114278,-0.00023577,-0.00046461,-0.00657140,0.00008073,0.00031274,0.000
 12914,-0.00143314,-0.00031688,0.00174205,0.00012392,0.00047265,0.00058
 971,0.00012680,0.00000600,0.00003935,0.00022288,-0.00004867,0.00015664
 ,-0.00013703,0.00009678,-0.00006270,-0.00261525,0.00635683,-0.01139572
 ,0.02852646,-0.00105053,0.00035197,-0.00043461,-0.00056408,-0.00050176
 ,0.00024566,-0.00017369,0.00045057,0.00055682,0.00786343,0.00973367,-0
 .01475885,-0.01827340,-0.11276405,0.11222810,-0.00086607,-0.00047556,0
 .00034112,-0.00248748,0.00207417,-0.00368669,-0.00001324,-0.00065390,-
 0.00024157,-0.00071279,-0.00005634,0.00033762,0.00020902,-0.00019876,0
 .00012572,-0.00004897,-0.00002868,-0.00008468,0.00002686,-0.00016937,-
 0.00008640,-0.00000910,-0.00017742,-0.00020722,-0.00821863,-0.01074576
 ,0.03790582,0.02365965,0.11441396,0.00083484,0.00030795,0.00159558,0.0
 0176691,0.00145039,0.00025974,-0.00026349,0.00022822,-0.00026361,0.010
 72695,0.01392788,-0.01991755,0.02488707,0.12451248,-0.36495560,-0.0008
 3690,-0.00131536,0.00117710,-0.00417234,-0.00163463,-0.00626983,-0.000
 01082,-0.00026034,-0.00008434,0.00002670,0.00004030,0.00027579,0.00021
 740,-0.00002341,0.00036825,-0.00002508,-0.00001833,0.00008576,0.000229
 37,-0.00013014,0.00002511,-0.00020322,0.00007394,-0.00001654,0.0038625
 1,-0.00386122,0.00047938,-0.03727358,-0.13219607,0.38732294,-0.0004133
 0,0.00003697,0.00219064,-0.00023216,-0.00061196,-0.00028119,-0.0006908
 8,0.00044934,-0.00036482,0.01375548,0.01638036,0.00707944,-0.00060322,
 0.00272070,0.00116285,-0.20591390,-0.18195711,-0.08242825,-0.00085312,
 0.00007205,-0.00008191,-0.00016539,0.00019435,0.00036368,-0.00003907,-
 0.00002421,-0.00045924,0.00000451,0.00010900,-0.00003611,0.00010500,-0
 .00001026,0.00002499,0.00009635,-0.00008827,0.00005716,0.00030074,-0.0
 0042159,-0.00010808,0.00054430,0.00089096,0.00078244,0.00016624,0.0001
 0690,0.00011258,0.20686092,0.00000236,0.00074826,-0.00109458,-0.002236
 99,0.00248376,0.00150014,0.00065292,-0.00029784,0.00076309,-0.02665715
 ,-0.01908564,-0.00380320,0.00164865,-0.00434232,-0.00157586,-0.1681754
 0,-0.27771876,-0.07412103,0.00223593,-0.00131991,0.00184388,0.00003671
 ,0.00021896,-0.00006991,-0.00004497,-0.00001329,0.00045237,-0.00015515
 ,0.00013412,0.00010497,-0.00006686,0.00008660,0.00004206,-0.00003468,0
 .00000924,-0.00005664,-0.00034115,0.00058393,0.00027260,0.00018645,-0.
 00036930,-0.00150088,0.00015116,-0.00052216,-0.00049292,0.18365653,0.2
 8984909,0.00094287,-0.00141144,-0.00094768,-0.00195451,0.00189414,-0.0
 0027914,-0.00015222,-0.00025831,0.00055260,-0.00268863,-0.01295664,-0.
 00614480,0.00125986,-0.00554723,0.00102922,-0.05027889,-0.03612258,-0.
 03170352,-0.00246777,0.00163572,-0.00242397,0.00035090,0.00065414,-0.0
 0168032,-0.00028312,0.00046847,0.00010294,-0.00033515,0.00033046,0.000
 13246,-0.00023582,0.00019464,0.00011541,-0.00004285,0.00016317,-0.0000
 1255,-0.00021691,0.00033814,0.00011791,0.00006400,-0.00093115,-0.00110
 402,-0.00059504,0.00040110,0.00011715,0.06915166,0.07234393,0.04771912
 ,-0.00026798,0.00177109,-0.00056968,-0.00283081,0.00244966,0.00095231,
 -0.00022503,0.00016287,0.00105721,-0.01356350,0.00586480,-0.01350443,-
 0.00015152,-0.00336280,0.00016124,-0.20264397,0.06494726,-0.18805588,0
 .00089401,-0.00276520,0.00192583,-0.00038056,-0.00112026,0.00059030,0.
 00008127,-0.00028549,0.00019498,0.00038254,-0.00040080,0.00004069,-0.0
 0006254,0.00003844,-0.00000671,0.00006697,-0.00009024,-0.00000660,-0.0
 0020691,0.00015888,0.00000300,0.00005499,-0.00072085,-0.00060914,0.000
 11158,0.00067175,0.00073795,-0.01269228,0.00903402,-0.01353786,0.23089
 935,-0.00016133,0.00041051,-0.00010227,0.00009528,-0.00047539,-0.00037
 432,0.00011974,0.00024203,0.00007525,0.01611224,-0.00086643,0.02835832
 ,-0.00106015,0.00214242,-0.00096435,0.07858021,-0.08586524,0.05630609,
 0.00313887,-0.00950834,0.00115737,-0.00007539,-0.00002412,-0.00007864,
 0.00014545,-0.00011591,-0.00022033,0.00003124,-0.00005428,-0.00013298,
 0.00003077,-0.00004329,-0.00009500,-0.00019712,-0.00001247,0.00003821,
 0.00006246,-0.00005442,-0.00010680,-0.00125476,0.00027217,0.00046571,0
 .00118836,-0.00078103,-0.00094309,-0.02098085,0.01007440,-0.02157028,-
 0.07705250,0.08408577,0.00030760,-0.00008071,0.00011577,0.00262232,-0.
 00263691,-0.00063213,0.00071770,0.00013477,-0.00067750,0.01501565,-0.0
 0684641,0.00279907,0.00100330,-0.00077333,0.00029988,-0.23252965,0.062
 56360,-0.22219723,-0.00117035,0.00377528,-0.00009983,0.00075168,0.0001
 8301,-0.00023295,0.,-0.00010032,-0.00015384,-0.00016363,0.00009752,-0.
 00005374,0.00013891,-0.00016041,0.00000535,0.00002361,0.00004544,-0.00
 002029,-0.00002456,-0.00010872,-0.00007037,0.00002670,0.00003358,-0.00
 025254,0.00084363,-0.00068505,-0.00053550,0.00310781,0.00610746,-0.006
 99596,0.21082931,-0.06109963,0.22829090,-0.00009980,-0.00003959,0.0000
 3095,-0.00009876,-0.00002568,0.00079004,-0.00052023,-0.00003737,-0.000
 13110,0.00217243,-0.00128805,-0.00225546,-0.00151389,0.00110364,-0.002
 28666,-0.00290142,0.00170725,-0.00163307,-0.33940682,0.08895942,0.2316
 4537,0.00003542,-0.00002521,0.00000021,-0.00006956,-0.00000345,-0.0000
 2469,0.00012915,-0.00005598,0.00003218,0.00009881,-0.00005874,0.000183
 22,0.00021838,-0.00023102,0.00045019,-0.00002367,-0.00000667,0.0000832
 6,0.00051166,0.00035003,0.00011812,-0.00084355,-0.00011960,-0.00061684
 ,-0.00023022,0.00010763,0.00101950,0.00053440,0.00127746,-0.00150004,0
 .34200768,-0.00190934,0.00021900,0.00061404,0.00008431,-0.00542053,0.0
 0545441,0.00114108,-0.00046454,0.00037942,-0.02444650,0.00661562,0.022
 54909,-0.00022851,-0.00132024,0.00000137,-0.00037615,0.00052983,-0.003
 81261,0.11671102,-0.04496407,-0.05935027,0.00000412,-0.00024294,0.0001
 5146,0.00005786,-0.00013139,0.00005407,-0.00005636,-0.00036042,0.00048
 144,0.00001845,0.00011591,-0.00017810,-0.00001836,0.00008482,-0.000500
 41,-0.00006488,-0.00003762,0.00001539,0.00098529,0.00005940,-0.0007585
 4,-0.00046442,0.00005044,0.00033434,-0.00052291,-0.00051914,0.00037370
 ,0.00069934,0.00057360,-0.00044917,-0.09161406,0.04521226,0.00083070,0
 .00008664,0.00057320,-0.00198176,0.00181009,-0.00301519,-0.00104898,0.
 00030768,0.00013420,0.03621951,-0.00180035,-0.03043383,-0.00082339,-0.
 00005961,0.00006371,0.00009707,-0.00363443,0.00121122,0.19336508,-0.03
 022930,-0.16643972,0.00002384,0.00015038,-0.00009608,0.00000365,-0.000
 05055,-0.00004889,-0.00015811,0.00015921,-0.00024905,-0.00013285,-0.00
 008851,0.00024049,0.00049080,-0.00027070,0.00012497,0.00004968,-0.0000
 3425,0.00006887,0.00056926,0.00020284,-0.00057509,-0.00112312,0.000239
 21,0.00033618,-0.00027365,-0.00071549,0.00140513,-0.00020251,-0.000713
 26,0.00041091,-0.22590521,0.03464037,0.19628897\\-0.00001562,0.0000057
 4,0.00004715,-0.00001704,-0.00005038,0.00001386,-0.00003781,0.00003773
 ,0.00003037,-0.00007773,-0.00004005,0.00006488,0.00008962,0.00001078,0
 .00001254,0.00005254,0.00000900,-0.00001614,-0.00003696,0.00004996,-0.
 00002160,0.00001223,-0.00000089,-0.00000430,0.00000094,-0.00000084,-0.
 00001557,0.00000845,-0.00001011,0.00000330,0.00000244,-0.00002675,-0.0
 0000635,-0.00000348,-0.00001726,-0.00000291,-0.00000052,-0.00002074,-0
 .00001551,-0.00003155,0.00001463,-0.00001135,-0.00001919,0.00001470,-0
 .00000291,-0.00000772,0.00002142,-0.00000276,-0.00000384,0.00002307,-0
 .00000685,0.00008523,-0.00002002,-0.00006583\\\@


 TWO ROADS DIVERGED IN A WOOD, AND I--
 I TOOK THE ONE LESS TRAVELED BY,
 AND THAT HAS MADE ALL THE DIFFERENCE.

                       -- ROBERT FROST
 Job cpu time:       0 days  0 hours  8 minutes 40.3 seconds.
 File lengths (MBytes):  RWF=     54 Int=      0 D2E=      0 Chk=      3 Scr=      1
 Normal termination of Gaussian 09 at Thu Sep  8 14:52:06 2022.
