 Entering Gaussian System, Link 0=g09
 Input=B3LYP6-31Gxx.Frag_221.gjf
 Output=B3LYP6-31Gxx.Frag_221.log
 Initial command:
 /public/home/users/caep010/software/Gaussian09/g09/l1.exe "/public/home/users/caep010/.cache/gau_scr/Gau-227292.inp" -scrdir="/public/home/users/caep010/.cache/gau_scr/"
 Entering Link 1 = /public/home/users/caep010/software/Gaussian09/g09/l1.exe PID=    227293.
  
 Copyright (c) 1988,1990,1992,1993,1995,1998,2003,2009,2015,
            Gaussian, Inc.  All Rights Reserved.
  
 This is part of the Gaussian(R) 09 program.  It is based on
 the Gaussian(R) 03 system (copyright 2003, Gaussian, Inc.),
 the Gaussian(R) 98 system (copyright 1998, Gaussian, Inc.),
 the Gaussian(R) 94 system (copyright 1995, Gaussian, Inc.),
 the Gaussian 92(TM) system (copyright 1992, Gaussian, Inc.),
 the Gaussian 90(TM) system (copyright 1990, Gaussian, Inc.),
 the Gaussian 88(TM) system (copyright 1988, Gaussian, Inc.),
 the Gaussian 86(TM) system (copyright 1986, Carnegie Mellon
 University), and the Gaussian 82(TM) system (copyright 1983,
 Carnegie Mellon University). Gaussian is a federally registered
 trademark of Gaussian, Inc.
  
 This software contains proprietary and confidential information,
 including trade secrets, belonging to Gaussian, Inc.
  
 This software is provided under written license and may be
 used, copied, transmitted, or stored only in accord with that
 written license.
  
 The following legend is applicable only to US Government
 contracts under FAR:
  
                    RESTRICTED RIGHTS LEGEND
  
 Use, reproduction and disclosure by the US Government is
 subject to restrictions as set forth in subparagraphs (a)
 and (c) of the Commercial Computer Software - Restricted
 Rights clause in FAR 52.227-19.
  
 Gaussian, Inc.
 340 Quinnipiac St., Bldg. 40, Wallingford CT 06492
  
  
 ---------------------------------------------------------------
 Warning -- This program may not be used in any manner that
 competes with the business of Gaussian, Inc. or will provide
 assistance to any competitor of Gaussian, Inc.  The licensee
 of this program is prohibited from giving any competitor of
 Gaussian, Inc. access to this program.  By using this program,
 the user acknowledges that Gaussian, Inc. is engaged in the
 business of creating and licensing software in the field of
 computational chemistry and represents and warrants to the
 licensee that it is not a competitor of Gaussian, Inc. and that
 it will not use this program in any manner prohibited above.
 ---------------------------------------------------------------
  

 Cite this work as:
 Gaussian 09, Revision E.01,
 M. J. Frisch, G. W. Trucks, H. B. Schlegel, G. E. Scuseria, 
 M. A. Robb, J. R. Cheeseman, G. Scalmani, V. Barone, B. Mennucci, 
 G. A. Petersson, H. Nakatsuji, M. Caricato, X. Li, H. P. Hratchian, 
 A. F. Izmaylov, J. Bloino, G. Zheng, J. L. Sonnenberg, M. Hada, 
 M. Ehara, K. Toyota, R. Fukuda, J. Hasegawa, M. Ishida, T. Nakajima, 
 Y. Honda, O. Kitao, H. Nakai, T. Vreven, J. A. Montgomery, Jr., 
 J. E. Peralta, F. Ogliaro, M. Bearpark, J. J. Heyd, E. Brothers, 
 K. N. Kudin, V. N. Staroverov, T. Keith, R. Kobayashi, J. Normand, 
 K. Raghavachari, A. Rendell, J. C. Burant, S. S. Iyengar, J. Tomasi, 
 M. Cossi, N. Rega, J. M. Millam, M. Klene, J. E. Knox, J. B. Cross, 
 V. Bakken, C. Adamo, J. Jaramillo, R. Gomperts, R. E. Stratmann, 
 O. Yazyev, A. J. Austin, R. Cammi, C. Pomelli, J. W. Ochterski, 
 R. L. Martin, K. Morokuma, V. G. Zakrzewski, G. A. Voth, 
 P. Salvador, J. J. Dannenberg, S. Dapprich, A. D. Daniels, 
 O. Farkas, J. B. Foresman, J. V. Ortiz, J. Cioslowski, 
 and D. J. Fox, Gaussian, Inc., Wallingford CT, 2013.
 
 ******************************************
 Gaussian 09:  ES64L-G09RevE.01 30-Nov-2015
                21-Aug-2021 
 ******************************************
 %nproc=32
 Will use up to   32 processors via shared memory.
 %mem=180GB
 -------------------------
 #P OPT Freq B3LYP/6-31G**
 -------------------------
 1/14=-1,18=20,19=15,26=3,38=1/1,3;
 2/9=110,12=2,17=6,18=5,40=1/2;
 3/5=1,6=6,7=101,11=2,16=1,25=1,30=1,71=1,74=-5/1,2,3;
 4//1;
 5/5=2,38=5/2;
 6/7=2,8=2,9=2,10=2,28=1/1;
 7//1,2,3,16;
 1/14=-1,18=20,19=15,26=3/3(2);
 2/9=110/2;
 99//99;
 2/9=110/2;
 3/5=1,6=6,7=101,11=2,16=1,25=1,30=1,71=1,74=-5/1,2,3;
 4/5=5,16=3,69=1/1;
 5/5=2,38=5/2;
 7//1,2,3,16;
 1/14=-1,18=20,19=15,26=3/3(-5);
 2/9=110/2;
 6/7=2,8=2,9=2,10=2,19=2,28=1/1;
 99/9=1/99;
 Leave Link    1 at Sat Aug 21 01:33:35 2021, MaxMem= 24159191040 cpu:        10.1
 (Enter /public/home/users/caep010/software/Gaussian09/g09/l101.exe)
 --------
 Frag_221
 --------
 Symbolic Z-matrix:
 Charge =  0 Multiplicity = 1
 C                    -0.932    -0.3852   -0.036 
 C                     0.2319    0.596     0.0224 
 C                     1.5106   -0.1226    0.0384 
 N                     2.5196   -0.6893    0.0511 
 H                    -0.8718   -1.0027   -0.9581 
 H                    -1.8899    0.1763   -0.0475 
 H                    -0.9218   -1.0512    0.8536 
 H                     0.2016    1.2635   -0.8645 
 H                     0.1518    1.2152    0.9406 
 
 NAtoms=      9 NQM=        9 NQMF=       0 NMMI=      0 NMMIF=      0
                NMic=       0 NMicF=      0.
                    Isotopes and Nuclear Properties:
 (Nuclear quadrupole moments (NQMom) in fm**2, nuclear magnetic moments (NMagM)
  in nuclear magnetons)

  Atom         1           2           3           4           5           6           7           8           9
 IAtWgt=          12          12          12          14           1           1           1           1           1
 AtmWgt=  12.0000000  12.0000000  12.0000000  14.0030740   1.0078250   1.0078250   1.0078250   1.0078250   1.0078250
 NucSpn=           0           0           0           2           1           1           1           1           1
 AtZEff=   0.0000000   0.0000000   0.0000000   0.0000000   0.0000000   0.0000000   0.0000000   0.0000000   0.0000000
 NQMom=    0.0000000   0.0000000   0.0000000   2.0440000   0.0000000   0.0000000   0.0000000   0.0000000   0.0000000
 NMagM=    0.0000000   0.0000000   0.0000000   0.4037610   2.7928460   2.7928460   2.7928460   2.7928460   2.7928460
 AtZNuc=   6.0000000   6.0000000   6.0000000   7.0000000   1.0000000   1.0000000   1.0000000   1.0000000   1.0000000
 Leave Link  101 at Sat Aug 21 01:33:36 2021, MaxMem= 24159191040 cpu:        26.1
 (Enter /public/home/users/caep010/software/Gaussian09/g09/l103.exe)

 GradGradGradGradGradGradGradGradGradGradGradGradGradGradGradGradGradGrad
 Berny optimization.
 Initialization pass.
                           ----------------------------
                           !    Initial Parameters    !
                           ! (Angstroms and Degrees)  !
 --------------------------                            --------------------------
 ! Name  Definition              Value          Derivative Info.                !
 --------------------------------------------------------------------------------
 ! R1    R(1,2)                  1.5234         estimate D2E/DX2                !
 ! R2    R(1,5)                  1.1114         estimate D2E/DX2                !
 ! R3    R(1,6)                  1.1104         estimate D2E/DX2                !
 ! R4    R(1,7)                  1.1113         estimate D2E/DX2                !
 ! R5    R(2,3)                  1.4669         estimate D2E/DX2                !
 ! R6    R(2,8)                  1.1104         estimate D2E/DX2                !
 ! R7    R(2,9)                  1.1104         estimate D2E/DX2                !
 ! R8    R(3,4)                  1.1573         estimate D2E/DX2                !
 ! A1    A(2,1,5)              110.3819         estimate D2E/DX2                !
 ! A2    A(2,1,6)              109.4984         estimate D2E/DX2                !
 ! A3    A(2,1,7)              110.3824         estimate D2E/DX2                !
 ! A4    A(5,1,6)              108.608          estimate D2E/DX2                !
 ! A5    A(5,1,7)              109.3101         estimate D2E/DX2                !
 ! A6    A(6,1,7)              108.6176         estimate D2E/DX2                !
 ! A7    A(1,2,3)              110.5417         estimate D2E/DX2                !
 ! A8    A(1,2,8)              109.615          estimate D2E/DX2                !
 ! A9    A(1,2,9)              109.6186         estimate D2E/DX2                !
 ! A10   A(3,2,8)              109.0853         estimate D2E/DX2                !
 ! A11   A(3,2,9)              109.0899         estimate D2E/DX2                !
 ! A12   A(8,2,9)              108.8618         estimate D2E/DX2                !
 ! A13   L(2,3,4,7,-1)         180.0119         estimate D2E/DX2                !
 ! A14   L(2,3,4,7,-2)         180.0114         estimate D2E/DX2                !
 ! D1    D(5,1,2,3)            -60.4764         estimate D2E/DX2                !
 ! D2    D(5,1,2,8)             59.8038         estimate D2E/DX2                !
 ! D3    D(5,1,2,9)            179.2354         estimate D2E/DX2                !
 ! D4    D(6,1,2,3)           -179.9926         estimate D2E/DX2                !
 ! D5    D(6,1,2,8)            -59.7123         estimate D2E/DX2                !
 ! D6    D(6,1,2,9)             59.7193         estimate D2E/DX2                !
 ! D7    D(7,1,2,3)             60.4791         estimate D2E/DX2                !
 ! D8    D(7,1,2,8)           -179.2407         estimate D2E/DX2                !
 ! D9    D(7,1,2,9)            -59.8091         estimate D2E/DX2                !
 --------------------------------------------------------------------------------
 Trust Radius=3.00D-01 FncErr=1.00D-07 GrdErr=1.00D-06
 Number of steps in this run=     41 maximum allowed number of steps=    100.
 GradGradGradGradGradGradGradGradGradGradGradGradGradGradGradGradGradGrad

 Leave Link  103 at Sat Aug 21 01:33:36 2021, MaxMem= 24159191040 cpu:         1.0
 (Enter /public/home/users/caep010/software/Gaussian09/g09/l202.exe)
                          Input orientation:                          
 ---------------------------------------------------------------------
 Center     Atomic      Atomic             Coordinates (Angstroms)
 Number     Number       Type             X           Y           Z
 ---------------------------------------------------------------------
      1          6           0       -0.932000   -0.385200   -0.036000
      2          6           0        0.231900    0.596000    0.022400
      3          6           0        1.510600   -0.122600    0.038400
      4          7           0        2.519600   -0.689300    0.051100
      5          1           0       -0.871800   -1.002700   -0.958100
      6          1           0       -1.889900    0.176300   -0.047500
      7          1           0       -0.921800   -1.051200    0.853600
      8          1           0        0.201600    1.263500   -0.864500
      9          1           0        0.151800    1.215200    0.940600
 ---------------------------------------------------------------------
                    Distance matrix (angstroms):
                    1          2          3          4          5
     1  C    0.000000
     2  C    1.523426   0.000000
     3  C    2.457802   1.466873   0.000000
     4  N    3.466065   2.624193   1.157321   0.000000
     5  H    1.111395   2.176092   2.728263   3.552224   0.000000
     6  H    1.110399   2.164040   3.414692   4.494739   1.804373
     7  H    1.111327   2.176048   2.728263   3.552212   1.813039
     8  H    2.165565   1.110435   2.109498   3.166208   2.509305
     9  H    2.165560   1.110367   2.109505   3.166198   3.093849
                    6          7          8          9
     6  H    0.000000
     7  H    1.804427   0.000000
     8  H    2.494768   3.093821   0.000000
     9  H    2.494833   2.509334   1.806433   0.000000
 Stoichiometry    C3H5N
 Framework group  C1[X(C3H5N)]
 Deg. of freedom    21
 Full point group                 C1      NOp   1
 Largest Abelian subgroup         C1      NOp   1
 Largest concise Abelian subgroup C1      NOp   1
                         Standard orientation:                         
 ---------------------------------------------------------------------
 Center     Atomic      Atomic             Coordinates (Angstroms)
 Number     Number       Type             X           Y           Z
 ---------------------------------------------------------------------
      1          6           0        1.525281   -0.461271   -0.000022
      2          6           0        0.495511    0.661406   -0.000022
      3          6           0       -0.864677    0.112221    0.000023
      4          7           0       -1.937936   -0.320797   -0.000007
      5          1           0        1.408610   -1.093526    0.906533
      6          1           0        2.547181   -0.026868    0.000079
      7          1           0        1.408613   -1.093507   -0.906506
      8          1           0        0.632236    1.292652    0.903250
      9          1           0        0.632223    1.292696   -0.903183
 ---------------------------------------------------------------------
 Rotational constants (GHZ):     27.3946264      4.7539212      4.2772775
 Leave Link  202 at Sat Aug 21 01:33:37 2021, MaxMem= 24159191040 cpu:         2.3
 (Enter /public/home/users/caep010/software/Gaussian09/g09/l301.exe)
 Standard basis: 6-31G(d,p) (6D, 7F)
 Ernie: Thresh=  0.10000D-02 Tol=  0.10000D-05 Strict=F.
 There are    85 symmetry adapted cartesian basis functions of A   symmetry.
 There are    85 symmetry adapted basis functions of A   symmetry.
    85 basis functions,   147 primitive gaussians,    85 cartesian basis functions
    15 alpha electrons       15 beta electrons
       nuclear repulsion energy       102.8152561083 Hartrees.
 IExCor=  402 DFT=T Ex+Corr=B3LYP ExCW=0 ScaHFX=  0.200000
 ScaDFX=  0.800000  0.720000  1.000000  0.810000 ScalE2=  1.000000  1.000000
 IRadAn=      0 IRanWt=     -1 IRanGd=            0 ICorTp=0 IEmpDi=  4
 NAtoms=    9 NActive=    9 NUniq=    9 SFac= 1.00D+00 NAtFMM=   60 NAOKFM=F Big=F
 Integral buffers will be    131072 words long.
 Raffenetti 2 integral format.
 Two-electron integral symmetry is turned on.
 Leave Link  301 at Sat Aug 21 01:33:37 2021, MaxMem= 24159191040 cpu:         3.2
 (Enter /public/home/users/caep010/software/Gaussian09/g09/l302.exe)
 NPDir=0 NMtPBC=     1 NCelOv=     1 NCel=       1 NClECP=     1 NCelD=      1
         NCelK=      1 NCelE2=     1 NClLst=     1 CellRange=     0.0.
 One-electron integrals computed using PRISM.
 NBasis=    85 RedAO= T EigKep=  1.41D-03  NBF=    85
 NBsUse=    85 1.00D-06 EigRej= -1.00D+00 NBFU=    85
 Precomputing XC quadrature grid using
 IXCGrd= 4 IRadAn=           0 IRanWt=          -1 IRanGd=           0 AccXCQ= 0.00D+00.
 Generated NRdTot=       0 NPtTot=           0 NUsed=           0 NTot=          32
 NSgBfM=    85    85    85    85    85 MxSgAt=     9 MxSgA2=     9.
 Leave Link  302 at Sat Aug 21 01:33:38 2021, MaxMem= 24159191040 cpu:        13.4
 (Enter /public/home/users/caep010/software/Gaussian09/g09/l303.exe)
 DipDrv:  MaxL=1.
 Leave Link  303 at Sat Aug 21 01:33:38 2021, MaxMem= 24159191040 cpu:         3.3
 (Enter /public/home/users/caep010/software/Gaussian09/g09/l401.exe)
 ExpMin= 1.61D-01 ExpMax= 4.17D+03 ExpMxC= 6.27D+02 IAcc=1 IRadAn=         1 AccDes= 0.00D+00
 Harris functional with IExCor=  402 and IRadAn=       1 diagonalized for initial guess.
 HarFok:  IExCor=  402 AccDes= 0.00D+00 IRadAn=         1 IDoV= 1 UseB2=F ITyADJ=14
 ICtDFT=  3500011 ScaDFX=  1.000000  1.000000  1.000000  1.000000
 FoFCou: FMM=F IPFlag=           0 FMFlag=      100000 FMFlg1=           0
         NFxFlg=           0 DoJE=T BraDBF=F KetDBF=T FulRan=T
         wScrn=  0.000000 ICntrl=     500 IOpCl=  0 I1Cent=   200000004 NGrid=           0
         NMat0=    1 NMatS0=      1 NMatT0=    0 NMatD0=    1 NMtDS0=    0 NMtDT0=    0
 Petite list used in FoFCou.
 Harris En= -172.095626219918    
 JPrj=0 DoOrth=F DoCkMO=F.
 Leave Link  401 at Sat Aug 21 01:33:38 2021, MaxMem= 24159191040 cpu:        11.4
 (Enter /public/home/users/caep010/software/Gaussian09/g09/l502.exe)
 Closed shell SCF:
 Using DIIS extrapolation, IDIIS=  1040.
 Integral symmetry usage will be decided dynamically.
 Keep R1 ints in memory in canonical form, NReq=7631389.
 IVT=       43589 IEndB=       43589 NGot= 24159191040 MDV= 24152466112
 LenX= 24152466112 LenY= 24152458446
 Requested convergence on RMS density matrix=1.00D-08 within 128 cycles.
 Requested convergence on MAX density matrix=1.00D-06.
 Requested convergence on             energy=1.00D-06.
 No special actions if energy rises.
 FoFCou: FMM=F IPFlag=           0 FMFlag=           0 FMFlg1=           0
         NFxFlg=           0 DoJE=F BraDBF=F KetDBF=F FulRan=T
         wScrn=  0.000000 ICntrl=     600 IOpCl=  0 I1Cent=           0 NGrid=           0
         NMat0=    1 NMatS0=   3655 NMatT0=    0 NMatD0=    1 NMtDS0=    0 NMtDT0=    0
 Symmetry not used in FoFCou.
 Integral accuracy reduced to 1.0D-05 until final iterations.

 Cycle   1  Pass 0  IDiag  1:
 E= -171.956371245154    
 DIIS: error= 2.56D-02 at cycle   1 NSaved=   1.
 NSaved= 1 IEnMin= 1 EnMin= -171.956371245154     IErMin= 1 ErrMin= 2.56D-02
 ErrMax= 2.56D-02  0.00D+00 EMaxC= 1.00D-01 BMatC= 1.14D-01 BMatP= 1.14D-01
 IDIUse=3 WtCom= 7.44D-01 WtEn= 2.56D-01
 Coeff-Com:  0.100D+01
 Coeff-En:   0.100D+01
 Coeff:      0.100D+01
 Gap=     0.344 Goal=   None    Shift=    0.000
 GapD=    0.344 DampG=1.000 DampE=0.500 DampFc=0.5000 IDamp=-1.
 Damping current iteration by 5.00D-01
 RMSDP=9.10D-03 MaxDP=1.99D-01              OVMax= 2.03D-01

 Cycle   2  Pass 0  IDiag  1:
 E= -171.999346106103     Delta-E=       -0.042974860948 Rises=F Damp=T
 DIIS: error= 1.09D-02 at cycle   2 NSaved=   2.
 NSaved= 2 IEnMin= 2 EnMin= -171.999346106103     IErMin= 2 ErrMin= 1.09D-02
 ErrMax= 1.09D-02  0.00D+00 EMaxC= 1.00D-01 BMatC= 1.53D-02 BMatP= 1.14D-01
 IDIUse=3 WtCom= 8.91D-01 WtEn= 1.09D-01
 Coeff-Com:  0.173D+00 0.827D+00
 Coeff-En:   0.244D+00 0.756D+00
 Coeff:      0.181D+00 0.819D+00
 Gap=     0.395 Goal=   None    Shift=    0.000
 RMSDP=2.46D-03 MaxDP=5.06D-02 DE=-4.30D-02 OVMax= 1.69D-01

 Cycle   3  Pass 0  IDiag  1:
 E= -172.053218007959     Delta-E=       -0.053871901856 Rises=F Damp=F
 DIIS: error= 1.65D-02 at cycle   3 NSaved=   3.
 NSaved= 3 IEnMin= 3 EnMin= -172.053218007959     IErMin= 2 ErrMin= 1.09D-02
 ErrMax= 1.65D-02  0.00D+00 EMaxC= 1.00D-01 BMatC= 2.28D-02 BMatP= 1.53D-02
 IDIUse=2 WtCom= 0.00D+00 WtEn= 1.00D+00
 Coeff-En:   0.000D+00 0.000D+00 0.100D+01
 Coeff:      0.000D+00 0.000D+00 0.100D+01
 Gap=     0.336 Goal=   None    Shift=    0.000
 RMSDP=4.83D-03 MaxDP=9.60D-02 DE=-5.39D-02 OVMax= 1.76D-01

 Cycle   4  Pass 0  IDiag  1:
 E= -171.943512517367     Delta-E=        0.109705490592 Rises=F Damp=F
 DIIS: error= 3.88D-02 at cycle   4 NSaved=   4.
 NSaved= 4 IEnMin= 3 EnMin= -172.053218007959     IErMin= 2 ErrMin= 1.09D-02
 ErrMax= 3.88D-02  0.00D+00 EMaxC= 1.00D-01 BMatC= 1.46D-01 BMatP= 1.53D-02
 IDIUse=2 WtCom= 0.00D+00 WtEn= 1.00D+00
 Coeff-En:   0.000D+00 0.000D+00 0.802D+00 0.198D+00
 Coeff:      0.000D+00 0.000D+00 0.802D+00 0.198D+00
 Gap=     0.371 Goal=   None    Shift=    0.000
 RMSDP=2.60D-03 MaxDP=5.00D-02 DE= 1.10D-01 OVMax= 9.09D-02

 Cycle   5  Pass 0  IDiag  1:
 E= -172.063247951128     Delta-E=       -0.119735433761 Rises=F Damp=F
 DIIS: error= 1.17D-02 at cycle   5 NSaved=   5.
 NSaved= 5 IEnMin= 5 EnMin= -172.063247951128     IErMin= 2 ErrMin= 1.09D-02
 ErrMax= 1.17D-02  0.00D+00 EMaxC= 1.00D-01 BMatC= 1.22D-02 BMatP= 1.53D-02
 IDIUse=3 WtCom= 8.83D-01 WtEn= 1.17D-01
 Coeff-Com: -0.503D-02 0.314D-01 0.296D+00-0.126D+00 0.804D+00
 Coeff-En:   0.000D+00 0.000D+00 0.384D+00 0.000D+00 0.616D+00
 Coeff:     -0.444D-02 0.277D-01 0.306D+00-0.111D+00 0.782D+00
 Gap=     0.355 Goal=   None    Shift=    0.000
 RMSDP=1.00D-03 MaxDP=1.93D-02 DE=-1.20D-01 OVMax= 3.58D-02

 Cycle   6  Pass 0  IDiag  1:
 E= -172.074139493969     Delta-E=       -0.010891542841 Rises=F Damp=F
 DIIS: error= 2.13D-04 at cycle   6 NSaved=   6.
 NSaved= 6 IEnMin= 6 EnMin= -172.074139493969     IErMin= 6 ErrMin= 2.13D-04
 ErrMax= 2.13D-04  0.00D+00 EMaxC= 1.00D-01 BMatC= 4.22D-06 BMatP= 1.22D-02
 IDIUse=3 WtCom= 9.98D-01 WtEn= 2.13D-03
 Coeff-Com: -0.131D-02 0.257D-02 0.957D-01-0.319D-01 0.245D+00 0.690D+00
 Coeff-En:   0.000D+00 0.000D+00 0.000D+00 0.000D+00 0.000D+00 0.100D+01
 Coeff:     -0.131D-02 0.257D-02 0.955D-01-0.318D-01 0.245D+00 0.690D+00
 Gap=     0.355 Goal=   None    Shift=    0.000
 RMSDP=3.21D-05 MaxDP=7.92D-04 DE=-1.09D-02 OVMax= 8.13D-04

 Cycle   7  Pass 0  IDiag  1:
 E= -172.074142932654     Delta-E=       -0.000003438685 Rises=F Damp=F
 DIIS: error= 5.68D-05 at cycle   7 NSaved=   7.
 NSaved= 7 IEnMin= 7 EnMin= -172.074142932654     IErMin= 7 ErrMin= 5.68D-05
 ErrMax= 5.68D-05  0.00D+00 EMaxC= 1.00D-01 BMatC= 4.02D-07 BMatP= 4.22D-06
 IDIUse=1 WtCom= 1.00D+00 WtEn= 0.00D+00
 Coeff-Com: -0.231D-03 0.165D-03 0.210D-01-0.793D-02 0.555D-01 0.252D+00
 Coeff-Com:  0.680D+00
 Coeff:     -0.231D-03 0.165D-03 0.210D-01-0.793D-02 0.555D-01 0.252D+00
 Coeff:      0.680D+00
 Gap=     0.356 Goal=   None    Shift=    0.000
 RMSDP=7.76D-06 MaxDP=1.75D-04 DE=-3.44D-06 OVMax= 1.97D-04

 Initial convergence to 1.0D-05 achieved.  Increase integral accuracy.
 Cycle   8  Pass 1  IDiag  1:
 E= -172.074079059418     Delta-E=        0.000063873236 Rises=F Damp=F
 DIIS: error= 1.27D-05 at cycle   1 NSaved=   1.
 NSaved= 1 IEnMin= 1 EnMin= -172.074079059418     IErMin= 1 ErrMin= 1.27D-05
 ErrMax= 1.27D-05  0.00D+00 EMaxC= 1.00D-01 BMatC= 2.15D-08 BMatP= 2.15D-08
 IDIUse=1 WtCom= 1.00D+00 WtEn= 0.00D+00
 Coeff-Com:  0.100D+01
 Coeff:      0.100D+01
 Gap=     0.356 Goal=   None    Shift=    0.000
 RMSDP=7.76D-06 MaxDP=1.75D-04 DE= 6.39D-05 OVMax= 1.15D-04

 Cycle   9  Pass 1  IDiag  1:
 E= -172.074079023968     Delta-E=        0.000000035450 Rises=F Damp=F
 DIIS: error= 2.60D-05 at cycle   2 NSaved=   2.
 NSaved= 2 IEnMin= 1 EnMin= -172.074079059418     IErMin= 1 ErrMin= 1.27D-05
 ErrMax= 2.60D-05  0.00D+00 EMaxC= 1.00D-01 BMatC= 6.72D-08 BMatP= 2.15D-08
 IDIUse=1 WtCom= 1.00D+00 WtEn= 0.00D+00
 Coeff-Com:  0.661D+00 0.339D+00
 Coeff:      0.661D+00 0.339D+00
 Gap=     0.356 Goal=   None    Shift=    0.000
 RMSDP=2.84D-06 MaxDP=5.78D-05 DE= 3.55D-08 OVMax= 9.92D-05

 Cycle  10  Pass 1  IDiag  1:
 E= -172.074079079725     Delta-E=       -0.000000055757 Rises=F Damp=F
 DIIS: error= 6.11D-06 at cycle   3 NSaved=   3.
 NSaved= 3 IEnMin= 3 EnMin= -172.074079079725     IErMin= 3 ErrMin= 6.11D-06
 ErrMax= 6.11D-06  0.00D+00 EMaxC= 1.00D-01 BMatC= 3.56D-09 BMatP= 2.15D-08
 IDIUse=1 WtCom= 1.00D+00 WtEn= 0.00D+00
 Coeff-Com:  0.117D+00 0.189D+00 0.694D+00
 Coeff:      0.117D+00 0.189D+00 0.694D+00
 Gap=     0.356 Goal=   None    Shift=    0.000
 RMSDP=7.16D-07 MaxDP=1.48D-05 DE=-5.58D-08 OVMax= 2.38D-05

 Cycle  11  Pass 1  IDiag  1:
 E= -172.074079082462     Delta-E=       -0.000000002737 Rises=F Damp=F
 DIIS: error= 1.41D-06 at cycle   4 NSaved=   4.
 NSaved= 4 IEnMin= 4 EnMin= -172.074079082462     IErMin= 4 ErrMin= 1.41D-06
 ErrMax= 1.41D-06  0.00D+00 EMaxC= 1.00D-01 BMatC= 3.73D-10 BMatP= 3.56D-09
 IDIUse=1 WtCom= 1.00D+00 WtEn= 0.00D+00
 Coeff-Com: -0.645D-02 0.620D-01 0.354D+00 0.590D+00
 Coeff:     -0.645D-02 0.620D-01 0.354D+00 0.590D+00
 Gap=     0.356 Goal=   None    Shift=    0.000
 RMSDP=2.16D-07 MaxDP=4.03D-06 DE=-2.74D-09 OVMax= 5.11D-06

 Cycle  12  Pass 1  IDiag  1:
 E= -172.074079082814     Delta-E=       -0.000000000351 Rises=F Damp=F
 DIIS: error= 2.07D-07 at cycle   5 NSaved=   5.
 NSaved= 5 IEnMin= 5 EnMin= -172.074079082814     IErMin= 5 ErrMin= 2.07D-07
 ErrMax= 2.07D-07  0.00D+00 EMaxC= 1.00D-01 BMatC= 7.34D-12 BMatP= 3.73D-10
 IDIUse=1 WtCom= 1.00D+00 WtEn= 0.00D+00
 Coeff-Com: -0.677D-02 0.181D-01 0.112D+00 0.234D+00 0.642D+00
 Coeff:     -0.677D-02 0.181D-01 0.112D+00 0.234D+00 0.642D+00
 Gap=     0.356 Goal=   None    Shift=    0.000
 RMSDP=3.30D-08 MaxDP=5.37D-07 DE=-3.51D-10 OVMax= 7.45D-07

 Cycle  13  Pass 1  IDiag  1:
 E= -172.074079082821     Delta-E=       -0.000000000007 Rises=F Damp=F
 DIIS: error= 2.91D-08 at cycle   6 NSaved=   6.
 NSaved= 6 IEnMin= 6 EnMin= -172.074079082821     IErMin= 6 ErrMin= 2.91D-08
 ErrMax= 2.91D-08  0.00D+00 EMaxC= 1.00D-01 BMatC= 1.84D-13 BMatP= 7.34D-12
 IDIUse=1 WtCom= 1.00D+00 WtEn= 0.00D+00
 Coeff-Com: -0.216D-02 0.461D-02 0.273D-01 0.635D-01 0.216D+00 0.691D+00
 Coeff:     -0.216D-02 0.461D-02 0.273D-01 0.635D-01 0.216D+00 0.691D+00
 Gap=     0.356 Goal=   None    Shift=    0.000
 RMSDP=6.96D-09 MaxDP=1.24D-07 DE=-7.28D-12 OVMax= 1.19D-07

 SCF Done:  E(RB3LYP) =  -172.074079083     A.U. after   13 cycles
            NFock= 13  Conv=0.70D-08     -V/T= 2.0102
 KE= 1.703404891085D+02 PE=-6.043939327669D+02 EE= 1.591641084672D+02
 Leave Link  502 at Sat Aug 21 01:33:39 2021, MaxMem= 24159191040 cpu:        27.0
 (Enter /public/home/users/caep010/software/Gaussian09/g09/l601.exe)
 Copying SCF densities to generalized density rwf, IOpCl= 0 IROHF=0.

 **********************************************************************

            Population analysis using the SCF density.

 **********************************************************************

 Orbital symmetries:
       Occupied  (A) (A) (A) (A) (A) (A) (A) (A) (A) (A) (A) (A)
                 (A) (A) (A)
       Virtual   (A) (A) (A) (A) (A) (A) (A) (A) (A) (A) (A) (A)
                 (A) (A) (A) (A) (A) (A) (A) (A) (A) (A) (A) (A)
                 (A) (A) (A) (A) (A) (A) (A) (A) (A) (A) (A) (A)
                 (A) (A) (A) (A) (A) (A) (A) (A) (A) (A) (A) (A)
                 (A) (A) (A) (A) (A) (A) (A) (A) (A) (A) (A) (A)
                 (A) (A) (A) (A) (A) (A) (A) (A) (A) (A)
 The electronic state is 1-A.
 Alpha  occ. eigenvalues --  -14.33005 -10.24365 -10.22521 -10.21021  -0.90200
 Alpha  occ. eigenvalues --   -0.80788  -0.66679  -0.51892  -0.48678  -0.42786
 Alpha  occ. eigenvalues --   -0.39511  -0.38656  -0.35345  -0.32297  -0.32283
 Alpha virt. eigenvalues --    0.03268   0.03890   0.08748   0.12796   0.12848
 Alpha virt. eigenvalues --    0.14927   0.18390   0.18617   0.22965   0.31232
 Alpha virt. eigenvalues --    0.50787   0.52190   0.52704   0.56670   0.58570
 Alpha virt. eigenvalues --    0.61581   0.68245   0.70468   0.72449   0.78336
 Alpha virt. eigenvalues --    0.79638   0.82652   0.84190   0.85894   0.87777
 Alpha virt. eigenvalues --    0.90717   0.92354   1.03309   1.24599   1.29110
 Alpha virt. eigenvalues --    1.30559   1.44586   1.52153   1.53800   1.57284
 Alpha virt. eigenvalues --    1.64196   1.67388   1.74594   1.84134   1.89677
 Alpha virt. eigenvalues --    1.94140   1.99398   2.00549   2.01782   2.05543
 Alpha virt. eigenvalues --    2.07060   2.08095   2.21504   2.28587   2.32364
 Alpha virt. eigenvalues --    2.37991   2.47658   2.50131   2.64980   2.70115
 Alpha virt. eigenvalues --    2.74517   2.79397   2.82470   2.91821   2.92108
 Alpha virt. eigenvalues --    3.07104   3.18196   3.30110   3.31945   3.41721
 Alpha virt. eigenvalues --    3.46957   4.03348   4.19764   4.43665   4.71331
          Condensed to atoms (all electrons):
               1          2          3          4          5          6
     1  C    4.919975   0.354700  -0.043835  -0.001318   0.389481   0.377693
     2  C    0.354700   5.013485   0.294776  -0.087291  -0.033563  -0.031644
     3  C   -0.043835   0.294776   4.611154   0.873005  -0.005159   0.005022
     4  N   -0.001318  -0.087291   0.873005   6.681544   0.000149  -0.000009
     5  H    0.389481  -0.033563  -0.005159   0.000149   0.572566  -0.027437
     6  H    0.377693  -0.031644   0.005022  -0.000009  -0.027437   0.593411
     7  H    0.389490  -0.033568  -0.005157   0.000150  -0.027223  -0.027428
     8  H   -0.035341   0.384035  -0.033349  -0.000636  -0.004422  -0.003369
     9  H   -0.035340   0.384051  -0.033350  -0.000637   0.004688  -0.003369
               7          8          9
     1  C    0.389490  -0.035341  -0.035340
     2  C   -0.033568   0.384035   0.384051
     3  C   -0.005157  -0.033349  -0.033350
     4  N    0.000150  -0.000636  -0.000637
     5  H   -0.027223  -0.004422   0.004688
     6  H   -0.027428  -0.003369  -0.003369
     7  H    0.572534   0.004688  -0.004421
     8  H    0.004688   0.562125  -0.028505
     9  H   -0.004421  -0.028505   0.562095
 Mulliken charges:
               1
     1  C   -0.315504
     2  C   -0.244981
     3  C    0.336893
     4  N   -0.464956
     5  H    0.130920
     6  H    0.117131
     7  H    0.130936
     8  H    0.154774
     9  H    0.154787
 Sum of Mulliken charges =  -0.00000
 Mulliken charges with hydrogens summed into heavy atoms:
               1
     1  C    0.063483
     2  C    0.064580
     3  C    0.336893
     4  N   -0.464956
 Electronic spatial extent (au):  <R**2>=            311.9817
 Charge=             -0.0000 electrons
 Dipole moment (field-independent basis, Debye):
    X=              3.6707    Y=              1.2501    Z=              0.0000  Tot=              3.8777
 Quadrupole moment (field-independent basis, Debye-Ang):
   XX=            -30.5883   YY=            -23.7032   ZZ=            -23.4909
   XY=             -1.1627   XZ=              0.0001   YZ=             -0.0000
 Traceless Quadrupole moment (field-independent basis, Debye-Ang):
   XX=             -4.6608   YY=              2.2242   ZZ=              2.4366
   XY=             -1.1627   XZ=              0.0001   YZ=             -0.0000
 Octapole moment (field-independent basis, Debye-Ang**2):
  XXX=             17.9294  YYY=              1.3991  ZZZ=             -0.0002  XYY=              1.5708
  XXY=              3.8052  XXZ=              0.0004  XZZ=              0.9179  YZZ=              0.5752
  YYZ=             -0.0003  XYZ=              0.0000
 Hexadecapole moment (field-independent basis, Debye-Ang**3):
 XXXX=           -337.0835 YYYY=            -72.2155 ZZZZ=            -36.2363 XXXY=             -5.1224
 XXXZ=              0.0012 YYYX=              0.2388 YYYZ=             -0.0002 ZZZX=             -0.0000
 ZZZY=              0.0001 XXYY=            -64.8139 XXZZ=            -57.6017 YYZZ=            -15.6517
 XXYZ=             -0.0000 YYXZ=             -0.0002 ZZXY=             -0.0914
 N-N= 1.028152561083D+02 E-N=-6.043939381282D+02  KE= 1.703404891085D+02
 No NMR shielding tensors so no spin-rotation constants.
 Leave Link  601 at Sat Aug 21 01:33:41 2021, MaxMem= 24159191040 cpu:        18.6
 (Enter /public/home/users/caep010/software/Gaussian09/g09/l701.exe)
 Compute integral first derivatives.
 ... and contract with generalized density number  0.
 Leave Link  701 at Sat Aug 21 01:33:41 2021, MaxMem= 24159191040 cpu:        15.3
 (Enter /public/home/users/caep010/software/Gaussian09/g09/l702.exe)
 L702 exits ... SP integral derivatives will be done elsewhere.
 Leave Link  702 at Sat Aug 21 01:33:41 2021, MaxMem= 24159191040 cpu:         0.8
 (Enter /public/home/users/caep010/software/Gaussian09/g09/l703.exe)
 Compute integral first derivatives, UseDBF=F ICtDFT=           0.
 Integral derivatives from FoFJK, PRISM(SPDF).
 Calling FoFJK, ICntrl=      2127 FMM=F ISym2X=0 I1Cent= 0 IOpClX= 0 NMat=1 NMatS=1 NMatT=0.
 FoFJK:  IHMeth= 1 ICntrl=    2127 DoSepK=F KAlg= 0 I1Cent=   0 FoldK=F
 IRaf=         0 NMat=   1 IRICut=       1 DoRegI=T DoRafI=F ISym2E= 0.
 FoFCou: FMM=F IPFlag=           0 FMFlag=      100000 FMFlg1=         800
         NFxFlg=           0 DoJE=F BraDBF=F KetDBF=F FulRan=T
         wScrn=  0.000000 ICntrl=    2127 IOpCl=  0 I1Cent=           0 NGrid=           0
         NMat0=    1 NMatS0=      1 NMatT0=    0 NMatD0=    1 NMtDS0=    0 NMtDT0=    0
 Symmetry not used in FoFCou.
 Leave Link  703 at Sat Aug 21 01:33:42 2021, MaxMem= 24159191040 cpu:        13.5
 (Enter /public/home/users/caep010/software/Gaussian09/g09/l716.exe)
 Dipole        = 1.44416481D+00 4.91830723D-01 1.88204321D-06
 ***** Axes restored to original set *****
 -------------------------------------------------------------------
 Center     Atomic                   Forces (Hartrees/Bohr)
 Number     Number              X              Y              Z
 -------------------------------------------------------------------
      1        6          -0.014396948   -0.009186266   -0.000682404
      2        6           0.001879530    0.007032211    0.000197834
      3        6          -0.004350942    0.009638351    0.000146828
      4        7           0.006835713   -0.005045692    0.000051014
      5        1          -0.002133206    0.004817921    0.010743436
      6        1           0.008149630   -0.006745943    0.000053650
      7        1          -0.001553628    0.005369678   -0.010539720
      8        1           0.002529787   -0.003196069    0.009255477
      9        1           0.003040065   -0.002684191   -0.009226115
 -------------------------------------------------------------------
 Cartesian Forces:  Max     0.014396948 RMS     0.006470671
 Leave Link  716 at Sat Aug 21 01:33:42 2021, MaxMem= 24159191040 cpu:         2.2
 (Enter /public/home/users/caep010/software/Gaussian09/g09/l103.exe)

 GradGradGradGradGradGradGradGradGradGradGradGradGradGradGradGradGradGrad
 Berny optimization.
 FormGI is forming the generalized inverse of G from B-inverse, IUseBI=4.
 Internal  Forces:  Max     0.011705994 RMS     0.005481506
 Search for a local minimum.
 Step number   1 out of a maximum of   41
 All quantities printed in internal units (Hartrees-Bohrs-Radians)
 RMS Force = .54815D-02 SwitMx=.10000D-02 MixMth= 1
 Mixed Optimization -- RFO/linear search
 Second derivative matrix not updated -- first step.
 ITU=  0
     Eigenvalues ---    0.00456   0.04902   0.04902   0.05683   0.05722
     Eigenvalues ---    0.05816   0.06092   0.16000   0.16000   0.16000
     Eigenvalues ---    0.16000   0.16000   0.22413   0.30039   0.32453
     Eigenvalues ---    0.32460   0.32554   0.32558   0.32561   0.36117
     Eigenvalues ---    1.29563
 RFO step:  Lambda=-3.21997251D-03 EMin= 4.56064490D-03
 Linear search not attempted -- first point.
 Iteration  1 RMS(Cart)=  0.03123070 RMS(Int)=  0.00044612
 Iteration  2 RMS(Cart)=  0.00055419 RMS(Int)=  0.00017252
 Iteration  3 RMS(Cart)=  0.00000026 RMS(Int)=  0.00017252
 ITry= 1 IFail=0 DXMaxC= 6.84D-02 DCOld= 1.00D+10 DXMaxT= 3.00D-01 DXLimC= 3.00D+00 Rises=F
 Variable       Old X    -DE/DX   Delta X   Delta X   Delta X     New X
                                 (Linear)    (Quad)   (Total)
    R1        2.87886   0.01131   0.00000   0.03724   0.03724   2.91610
    R2        2.10023  -0.01171   0.00000  -0.03572  -0.03572   2.06452
    R3        2.09835  -0.01044   0.00000  -0.03176  -0.03176   2.06659
    R4        2.10010  -0.01167   0.00000  -0.03560  -0.03560   2.06451
    R5        2.77199  -0.00008   0.00000  -0.00022  -0.00022   2.77176
    R6        2.09842  -0.00938   0.00000  -0.02854  -0.02854   2.06988
    R7        2.09829  -0.00935   0.00000  -0.02842  -0.02842   2.06987
    R8        2.18702   0.00843   0.00000   0.00649   0.00649   2.19351
    A1        1.92653   0.00243   0.00000   0.01401   0.01393   1.94045
    A2        1.91111   0.00167   0.00000   0.01201   0.01190   1.92300
    A3        1.92654   0.00244   0.00000   0.01402   0.01394   1.94047
    A4        1.89557  -0.00186   0.00000  -0.00960  -0.00971   1.88585
    A5        1.90782  -0.00296   0.00000  -0.02151  -0.02155   1.88627
    A6        1.89573  -0.00187   0.00000  -0.00972  -0.00983   1.88591
    A7        1.92932   0.00745   0.00000   0.03529   0.03480   1.96412
    A8        1.91314   0.00297   0.00000   0.01863   0.01838   1.93152
    A9        1.91320   0.00296   0.00000   0.01858   0.01833   1.93153
   A10        1.90390  -0.00464   0.00000  -0.01949  -0.01995   1.88395
   A11        1.90398  -0.00465   0.00000  -0.01956  -0.02002   1.88396
   A12        1.90000  -0.00433   0.00000  -0.03490  -0.03491   1.86508
   A13        3.14180  -0.00209   0.00000  -0.03998  -0.03998   3.10182
   A14        3.14179  -0.00077   0.00000  -0.01473  -0.01473   3.12707
    D1       -1.05551   0.00026   0.00000   0.00425   0.00427  -1.05124
    D2        1.04377   0.00110   0.00000   0.01432   0.01446   1.05823
    D3        3.12825  -0.00058   0.00000  -0.00570  -0.00580   3.12245
    D4       -3.14146  -0.00001   0.00000  -0.00009  -0.00009  -3.14156
    D5       -1.04218   0.00084   0.00000   0.00998   0.01010  -1.03208
    D6        1.04230  -0.00084   0.00000  -0.01005  -0.01016   1.03213
    D7        1.05556  -0.00026   0.00000  -0.00430  -0.00432   1.05124
    D8       -3.12834   0.00059   0.00000   0.00577   0.00587  -3.12247
    D9       -1.04387  -0.00110   0.00000  -0.01426  -0.01439  -1.05825
         Item               Value     Threshold  Converged?
 Maximum Force            0.011706     0.000450     NO 
 RMS     Force            0.005482     0.000300     NO 
 Maximum Displacement     0.068368     0.001800     NO 
 RMS     Displacement     0.030949     0.001200     NO 
 Predicted change in Energy=-1.635503D-03
 Lowest energy point so far.  Saving SCF results.
 GradGradGradGradGradGradGradGradGradGradGradGradGradGradGradGradGradGrad

 Leave Link  103 at Sat Aug 21 01:33:43 2021, MaxMem= 24159191040 cpu:        11.1
 (Enter /public/home/users/caep010/software/Gaussian09/g09/l202.exe)
                          Input orientation:                          
 ---------------------------------------------------------------------
 Center     Atomic      Atomic             Coordinates (Angstroms)
 Number     Number       Type             X           Y           Z
 ---------------------------------------------------------------------
      1          6           0       -0.950296   -0.392492   -0.036786
      2          6           0        0.237556    0.590785    0.021768
      3          6           0        1.534298   -0.094470    0.037679
      4          7           0        2.537242   -0.678559    0.054893
      5          1           0       -0.907979   -1.009438   -0.937415
      6          1           0       -1.895338    0.157723   -0.047032
      7          1           0       -0.955172   -1.057691    0.829829
      8          1           0        0.223312    1.266061   -0.840528
      9          1           0        0.176376    1.218082    0.917591
 ---------------------------------------------------------------------
                    Distance matrix (angstroms):
                    1          2          3          4          5
     1  C    0.000000
     2  C    1.543132   0.000000
     3  C    2.503512   1.466754   0.000000
     4  N    3.500452   2.626954   1.160756   0.000000
     5  H    1.092495   2.189291   2.784365   3.600514   0.000000
     6  H    1.093593   2.177503   3.439940   4.511932   1.769159
     7  H    1.092491   2.189301   2.784377   3.597391   1.768532
     8  H    2.184983   1.095333   2.083501   3.152396   2.543049
     9  H    2.184988   1.095328   2.083504   3.148839   3.094950
                    6          7          8          9
     6  H    0.000000
     7  H    1.769189   0.000000
     8  H    2.519271   3.094954   0.000000
     9  H    2.519298   2.543078   1.759400   0.000000
 Stoichiometry    C3H5N
 Framework group  C1[X(C3H5N)]
 Deg. of freedom    21
 Full point group                 C1      NOp   1
 RotChk:  IX=2 Diff= 2.07D-02
 Largest Abelian subgroup         C1      NOp   1
 Largest concise Abelian subgroup C1      NOp   1
                         Standard orientation:                         
 ---------------------------------------------------------------------
 Center     Atomic      Atomic             Coordinates (Angstroms)
 Number     Number       Type             X           Y           Z
 ---------------------------------------------------------------------
      1          6           0        1.553991   -0.453725   -0.000015
      2          6           0        0.484458    0.658640   -0.000632
      3          6           0       -0.881734    0.124900    0.002612
      4          7           0       -1.944661   -0.341496   -0.001139
      5          1           0        1.464366   -1.086977    0.885707
      6          1           0        2.555387   -0.014240   -0.002455
      7          1           0        1.461605   -1.090636   -0.882820
      8          1           0        0.596871    1.303521    0.877574
      9          1           0        0.594114    1.299908   -0.881821
 ---------------------------------------------------------------------
 Rotational constants (GHZ):     27.4579937      4.6769487      4.2048041
 Leave Link  202 at Sat Aug 21 01:33:43 2021, MaxMem= 24159191040 cpu:         0.8
 (Enter /public/home/users/caep010/software/Gaussian09/g09/l301.exe)
 Standard basis: 6-31G(d,p) (6D, 7F)
 Ernie: Thresh=  0.10000D-02 Tol=  0.10000D-05 Strict=F.
 There are    85 symmetry adapted cartesian basis functions of A   symmetry.
 There are    85 symmetry adapted basis functions of A   symmetry.
    85 basis functions,   147 primitive gaussians,    85 cartesian basis functions
    15 alpha electrons       15 beta electrons
       nuclear repulsion energy       102.5371218124 Hartrees.
 IExCor=  402 DFT=T Ex+Corr=B3LYP ExCW=0 ScaHFX=  0.200000
 ScaDFX=  0.800000  0.720000  1.000000  0.810000 ScalE2=  1.000000  1.000000
 IRadAn=      0 IRanWt=     -1 IRanGd=            0 ICorTp=0 IEmpDi=  4
 NAtoms=    9 NActive=    9 NUniq=    9 SFac= 1.00D+00 NAtFMM=   60 NAOKFM=F Big=F
 Integral buffers will be    131072 words long.
 Raffenetti 2 integral format.
 Two-electron integral symmetry is turned on.
 Leave Link  301 at Sat Aug 21 01:33:43 2021, MaxMem= 24159191040 cpu:         1.6
 (Enter /public/home/users/caep010/software/Gaussian09/g09/l302.exe)
 NPDir=0 NMtPBC=     1 NCelOv=     1 NCel=       1 NClECP=     1 NCelD=      1
         NCelK=      1 NCelE2=     1 NClLst=     1 CellRange=     0.0.
 One-electron integrals computed using PRISM.
 NBasis=    85 RedAO= T EigKep=  1.43D-03  NBF=    85
 NBsUse=    85 1.00D-06 EigRej= -1.00D+00 NBFU=    85
 Precomputing XC quadrature grid using
 IXCGrd= 4 IRadAn=           0 IRanWt=          -1 IRanGd=           0 AccXCQ= 0.00D+00.
 Generated NRdTot=       0 NPtTot=           0 NUsed=           0 NTot=          32
 NSgBfM=    85    85    85    85    85 MxSgAt=     9 MxSgA2=     9.
 Leave Link  302 at Sat Aug 21 01:33:43 2021, MaxMem= 24159191040 cpu:        10.8
 (Enter /public/home/users/caep010/software/Gaussian09/g09/l303.exe)
 DipDrv:  MaxL=1.
 Leave Link  303 at Sat Aug 21 01:33:43 2021, MaxMem= 24159191040 cpu:         0.7
 (Enter /public/home/users/caep010/software/Gaussian09/g09/l401.exe)
 Initial guess from the checkpoint file:  "/public/home/users/caep010/.cache/gau_scr/Gau-227293.chk"
 B after Tr=     0.000000    0.000000    0.000000
         Rot=    0.999988    0.000491   -0.000081   -0.004867 Ang=   0.56 deg.
 Guess basis will be translated and rotated to current coordinates.
 JPrj=2 DoOrth=T DoCkMO=T.
 Generating alternative initial guess.
 ExpMin= 1.61D-01 ExpMax= 4.17D+03 ExpMxC= 6.27D+02 IAcc=1 IRadAn=         1 AccDes= 0.00D+00
 Harris functional with IExCor=  402 and IRadAn=       1 diagonalized for initial guess.
 HarFok:  IExCor=  402 AccDes= 0.00D+00 IRadAn=         1 IDoV= 1 UseB2=F ITyADJ=14
 ICtDFT=  3500011 ScaDFX=  1.000000  1.000000  1.000000  1.000000
 FoFCou: FMM=F IPFlag=           0 FMFlag=      100000 FMFlg1=           0
         NFxFlg=           0 DoJE=T BraDBF=F KetDBF=T FulRan=T
         wScrn=  0.000000 ICntrl=     500 IOpCl=  0 I1Cent=   200000004 NGrid=           0
         NMat0=    1 NMatS0=      1 NMatT0=    0 NMatD0=    1 NMtDS0=    0 NMtDT0=    0
 Petite list used in FoFCou.
 Harris En= -172.100989077540    
 Leave Link  401 at Sat Aug 21 01:33:44 2021, MaxMem= 24159191040 cpu:        21.6
 (Enter /public/home/users/caep010/software/Gaussian09/g09/l502.exe)
 Closed shell SCF:
 Using DIIS extrapolation, IDIIS=  1040.
 Integral symmetry usage will be decided dynamically.
 Keep R1 ints in memory in canonical form, NReq=7631389.
 IVT=       43589 IEndB=       43589 NGot= 24159191040 MDV= 24152466112
 LenX= 24152466112 LenY= 24152458446
 Requested convergence on RMS density matrix=1.00D-08 within 128 cycles.
 Requested convergence on MAX density matrix=1.00D-06.
 Requested convergence on             energy=1.00D-06.
 No special actions if energy rises.
 FoFCou: FMM=F IPFlag=           0 FMFlag=           0 FMFlg1=           0
         NFxFlg=           0 DoJE=F BraDBF=F KetDBF=F FulRan=T
         wScrn=  0.000000 ICntrl=     600 IOpCl=  0 I1Cent=           0 NGrid=           0
         NMat0=    1 NMatS0=   3655 NMatT0=    0 NMatD0=    1 NMtDS0=    0 NMtDT0=    0
 Symmetry not used in FoFCou.
 Integral accuracy reduced to 1.0D-05 until final iterations.

 Cycle   1  Pass 0  IDiag  1:
 E= -172.074805304824    
 DIIS: error= 1.88D-03 at cycle   1 NSaved=   1.
 NSaved= 1 IEnMin= 1 EnMin= -172.074805304824     IErMin= 1 ErrMin= 1.88D-03
 ErrMax= 1.88D-03  0.00D+00 EMaxC= 1.00D-01 BMatC= 5.15D-04 BMatP= 5.15D-04
 IDIUse=3 WtCom= 9.81D-01 WtEn= 1.88D-02
 Coeff-Com:  0.100D+01
 Coeff-En:   0.100D+01
 Coeff:      0.100D+01
 Gap=     2.338 Goal=   None    Shift=    0.000
 GapD=    2.338 DampG=2.000 DampE=1.000 DampFc=2.0000 IDamp=-1.
 RMSDP=4.82D-04 MaxDP=6.27D-03              OVMax= 1.02D-02

 Cycle   2  Pass 0  IDiag  1:
 E= -172.075490743913     Delta-E=       -0.000685439089 Rises=F Damp=F
 DIIS: error= 7.70D-04 at cycle   2 NSaved=   2.
 NSaved= 2 IEnMin= 2 EnMin= -172.075490743913     IErMin= 2 ErrMin= 7.70D-04
 ErrMax= 7.70D-04  0.00D+00 EMaxC= 1.00D-01 BMatC= 6.46D-05 BMatP= 5.15D-04
 IDIUse=3 WtCom= 9.92D-01 WtEn= 7.70D-03
 Coeff-Com:  0.160D+00 0.840D+00
 Coeff-En:   0.000D+00 0.100D+01
 Coeff:      0.158D+00 0.842D+00
 Gap=     0.355 Goal=   None    Shift=    0.000
 RMSDP=1.76D-04 MaxDP=2.73D-03 DE=-6.85D-04 OVMax= 4.84D-03

 Cycle   3  Pass 0  IDiag  1:
 E= -172.075464630907     Delta-E=        0.000026113006 Rises=F Damp=F
 DIIS: error= 9.56D-04 at cycle   3 NSaved=   3.
 NSaved= 3 IEnMin= 2 EnMin= -172.075490743913     IErMin= 2 ErrMin= 7.70D-04
 ErrMax= 9.56D-04  0.00D+00 EMaxC= 1.00D-01 BMatC= 9.97D-05 BMatP= 6.46D-05
 IDIUse=3 WtCom= 2.44D-01 WtEn= 7.56D-01
 Coeff-Com:  0.263D-01 0.553D+00 0.421D+00
 Coeff-En:   0.000D+00 0.575D+00 0.425D+00
 Coeff:      0.643D-02 0.570D+00 0.424D+00
 Gap=     0.355 Goal=   None    Shift=    0.000
 RMSDP=1.21D-04 MaxDP=2.35D-03 DE= 2.61D-05 OVMax= 4.32D-03

 Cycle   4  Pass 0  IDiag  1:
 E= -172.075544335162     Delta-E=       -0.000079704255 Rises=F Damp=F
 DIIS: error= 3.57D-04 at cycle   4 NSaved=   4.
 NSaved= 4 IEnMin= 4 EnMin= -172.075544335162     IErMin= 4 ErrMin= 3.57D-04
 ErrMax= 3.57D-04  0.00D+00 EMaxC= 1.00D-01 BMatC= 1.46D-05 BMatP= 6.46D-05
 IDIUse=3 WtCom= 9.96D-01 WtEn= 3.57D-03
 Coeff-Com: -0.660D-02 0.260D+00 0.288D+00 0.458D+00
 Coeff-En:   0.000D+00 0.000D+00 0.112D+00 0.888D+00
 Coeff:     -0.657D-02 0.260D+00 0.287D+00 0.460D+00
 Gap=     0.355 Goal=   None    Shift=    0.000
 RMSDP=3.87D-05 MaxDP=7.54D-04 DE=-7.97D-05 OVMax= 1.29D-03

 Cycle   5  Pass 0  IDiag  1:
 E= -172.075556419397     Delta-E=       -0.000012084235 Rises=F Damp=F
 DIIS: error= 6.04D-05 at cycle   5 NSaved=   5.
 NSaved= 5 IEnMin= 5 EnMin= -172.075556419397     IErMin= 5 ErrMin= 6.04D-05
 ErrMax= 6.04D-05  0.00D+00 EMaxC= 1.00D-01 BMatC= 6.39D-07 BMatP= 1.46D-05
 IDIUse=1 WtCom= 1.00D+00 WtEn= 0.00D+00
 Coeff-Com: -0.672D-02 0.670D-01 0.960D-01 0.234D+00 0.609D+00
 Coeff:     -0.672D-02 0.670D-01 0.960D-01 0.234D+00 0.609D+00
 Gap=     0.355 Goal=   None    Shift=    0.000
 RMSDP=7.68D-06 MaxDP=1.36D-04 DE=-1.21D-05 OVMax= 1.95D-04

 Initial convergence to 1.0D-05 achieved.  Increase integral accuracy.
 Cycle   6  Pass 1  IDiag  1:
 E= -172.075517554995     Delta-E=        0.000038864403 Rises=F Damp=F
 DIIS: error= 8.59D-06 at cycle   1 NSaved=   1.
 NSaved= 1 IEnMin= 1 EnMin= -172.075517554995     IErMin= 1 ErrMin= 8.59D-06
 ErrMax= 8.59D-06  0.00D+00 EMaxC= 1.00D-01 BMatC= 8.79D-09 BMatP= 8.79D-09
 IDIUse=1 WtCom= 1.00D+00 WtEn= 0.00D+00
 Coeff-Com:  0.100D+01
 Coeff:      0.100D+01
 Gap=     0.355 Goal=   None    Shift=    0.000
 RMSDP=7.68D-06 MaxDP=1.36D-04 DE= 3.89D-05 OVMax= 3.85D-05

 Cycle   7  Pass 1  IDiag  1:
 E= -172.075517563328     Delta-E=       -0.000000008334 Rises=F Damp=F
 DIIS: error= 4.79D-06 at cycle   2 NSaved=   2.
 NSaved= 2 IEnMin= 2 EnMin= -172.075517563328     IErMin= 2 ErrMin= 4.79D-06
 ErrMax= 4.79D-06  0.00D+00 EMaxC= 1.00D-01 BMatC= 3.06D-09 BMatP= 8.79D-09
 IDIUse=1 WtCom= 1.00D+00 WtEn= 0.00D+00
 Coeff-Com:  0.312D+00 0.688D+00
 Coeff:      0.312D+00 0.688D+00
 Gap=     0.355 Goal=   None    Shift=    0.000
 RMSDP=1.18D-06 MaxDP=2.34D-05 DE=-8.33D-09 OVMax= 3.57D-05

 Cycle   8  Pass 1  IDiag  1:
 E= -172.075517562733     Delta-E=        0.000000000596 Rises=F Damp=F
 DIIS: error= 6.41D-06 at cycle   3 NSaved=   3.
 NSaved= 3 IEnMin= 2 EnMin= -172.075517563328     IErMin= 2 ErrMin= 4.79D-06
 ErrMax= 6.41D-06  0.00D+00 EMaxC= 1.00D-01 BMatC= 4.01D-09 BMatP= 3.06D-09
 IDIUse=1 WtCom= 1.00D+00 WtEn= 0.00D+00
 Coeff-Com:  0.595D-01 0.518D+00 0.423D+00
 Coeff:      0.595D-01 0.518D+00 0.423D+00
 Gap=     0.355 Goal=   None    Shift=    0.000
 RMSDP=6.92D-07 MaxDP=1.48D-05 DE= 5.96D-10 OVMax= 2.48D-05

 Cycle   9  Pass 1  IDiag  1:
 E= -172.075517565902     Delta-E=       -0.000000003169 Rises=F Damp=F
 DIIS: error= 1.65D-06 at cycle   4 NSaved=   4.
 NSaved= 4 IEnMin= 4 EnMin= -172.075517565902     IErMin= 4 ErrMin= 1.65D-06
 ErrMax= 1.65D-06  0.00D+00 EMaxC= 1.00D-01 BMatC= 3.16D-10 BMatP= 3.06D-09
 IDIUse=1 WtCom= 1.00D+00 WtEn= 0.00D+00
 Coeff-Com: -0.123D-01 0.223D+00 0.270D+00 0.519D+00
 Coeff:     -0.123D-01 0.223D+00 0.270D+00 0.519D+00
 Gap=     0.355 Goal=   None    Shift=    0.000
 RMSDP=1.79D-07 MaxDP=2.80D-06 DE=-3.17D-09 OVMax= 5.72D-06

 Cycle  10  Pass 1  IDiag  1:
 E= -172.075517566190     Delta-E=       -0.000000000288 Rises=F Damp=F
 DIIS: error= 2.37D-07 at cycle   5 NSaved=   5.
 NSaved= 5 IEnMin= 5 EnMin= -172.075517566190     IErMin= 5 ErrMin= 2.37D-07
 ErrMax= 2.37D-07  0.00D+00 EMaxC= 1.00D-01 BMatC= 6.50D-12 BMatP= 3.16D-10
 IDIUse=1 WtCom= 1.00D+00 WtEn= 0.00D+00
 Coeff-Com: -0.731D-02 0.815D-01 0.104D+00 0.242D+00 0.580D+00
 Coeff:     -0.731D-02 0.815D-01 0.104D+00 0.242D+00 0.580D+00
 Gap=     0.355 Goal=   None    Shift=    0.000
 RMSDP=2.89D-08 MaxDP=6.12D-07 DE=-2.88D-10 OVMax= 6.67D-07

 Cycle  11  Pass 1  IDiag  1:
 E= -172.075517566198     Delta-E=       -0.000000000008 Rises=F Damp=F
 DIIS: error= 3.05D-08 at cycle   6 NSaved=   6.
 NSaved= 6 IEnMin= 6 EnMin= -172.075517566198     IErMin= 6 ErrMin= 3.05D-08
 ErrMax= 3.05D-08  0.00D+00 EMaxC= 1.00D-01 BMatC= 1.28D-13 BMatP= 6.50D-12
 IDIUse=1 WtCom= 1.00D+00 WtEn= 0.00D+00
 Coeff-Com: -0.175D-02 0.147D-01 0.187D-01 0.517D-01 0.176D+00 0.740D+00
 Coeff:     -0.175D-02 0.147D-01 0.187D-01 0.517D-01 0.176D+00 0.740D+00
 Gap=     0.355 Goal=   None    Shift=    0.000
 RMSDP=6.23D-09 MaxDP=9.72D-08 DE=-7.73D-12 OVMax= 9.98D-08

 SCF Done:  E(RB3LYP) =  -172.075517566     A.U. after   11 cycles
            NFock= 11  Conv=0.62D-08     -V/T= 2.0099
 KE= 1.703904867457D+02 PE=-6.038733577764D+02 EE= 1.588702316521D+02
 Leave Link  502 at Sat Aug 21 01:33:45 2021, MaxMem= 24159191040 cpu:        19.0
 (Enter /public/home/users/caep010/software/Gaussian09/g09/l701.exe)
 Compute integral first derivatives.
 ... and contract with generalized density number  0.
 Leave Link  701 at Sat Aug 21 01:33:45 2021, MaxMem= 24159191040 cpu:        10.7
 (Enter /public/home/users/caep010/software/Gaussian09/g09/l702.exe)
 L702 exits ... SP integral derivatives will be done elsewhere.
 Leave Link  702 at Sat Aug 21 01:33:46 2021, MaxMem= 24159191040 cpu:         0.7
 (Enter /public/home/users/caep010/software/Gaussian09/g09/l703.exe)
 Compute integral first derivatives, UseDBF=F ICtDFT=           0.
 Integral derivatives from FoFJK, PRISM(SPDF).
 Calling FoFJK, ICntrl=      2127 FMM=F ISym2X=0 I1Cent= 0 IOpClX= 0 NMat=1 NMatS=1 NMatT=0.
 FoFJK:  IHMeth= 1 ICntrl=    2127 DoSepK=F KAlg= 0 I1Cent=   0 FoldK=F
 IRaf=         0 NMat=   1 IRICut=       1 DoRegI=T DoRafI=F ISym2E= 0.
 FoFCou: FMM=F IPFlag=           0 FMFlag=      100000 FMFlg1=         800
         NFxFlg=           0 DoJE=F BraDBF=F KetDBF=F FulRan=T
         wScrn=  0.000000 ICntrl=    2127 IOpCl=  0 I1Cent=           0 NGrid=           0
         NMat0=    1 NMatS0=      1 NMatT0=    0 NMatD0=    1 NMtDS0=    0 NMtDT0=    0
 Symmetry not used in FoFCou.
 Leave Link  703 at Sat Aug 21 01:33:46 2021, MaxMem= 24159191040 cpu:         9.2
 (Enter /public/home/users/caep010/software/Gaussian09/g09/l716.exe)
 Dipole        = 1.45659303D+00 5.02704821D-01 4.64421417D-04
 ***** Axes restored to original set *****
 -------------------------------------------------------------------
 Center     Atomic                   Forces (Hartrees/Bohr)
 Number     Number              X              Y              Z
 -------------------------------------------------------------------
      1        6           0.000139661    0.000716817    0.000011329
      2        6          -0.000305356   -0.001381236   -0.000283435
      3        6          -0.001474846   -0.001998055    0.000364870
      4        7           0.000757175    0.000862950   -0.000178619
      5        1           0.000713049    0.000056930   -0.000265356
      6        1           0.000663745    0.000892420    0.000043840
      7        1           0.000704856    0.000043975    0.000307926
      8        1          -0.000640069    0.000422830   -0.000148590
      9        1          -0.000558216    0.000383369    0.000148035
 -------------------------------------------------------------------
 Cartesian Forces:  Max     0.001998055 RMS     0.000714166
 Leave Link  716 at Sat Aug 21 01:33:46 2021, MaxMem= 24159191040 cpu:         0.5
 (Enter /public/home/users/caep010/software/Gaussian09/g09/l103.exe)

 GradGradGradGradGradGradGradGradGradGradGradGradGradGradGradGradGradGrad
 Berny optimization.
 Using GEDIIS/GDIIS optimizer.
 FormGI is forming the generalized inverse of G from B-inverse, IUseBI=4.
 Internal  Forces:  Max     0.002800153 RMS     0.000817741
 Search for a local minimum.
 Step number   2 out of a maximum of   41
 All quantities printed in internal units (Hartrees-Bohrs-Radians)
 RMS Force = .81774D-03 SwitMx=.10000D-02 MixMth= 2
 Mixed Optimization -- En-DIIS/RFO-DIIS
 Update second derivatives using D2CorX and points    1    2
 DE= -1.44D-03 DEPred=-1.64D-03 R= 8.80D-01
 TightC=F SS=  1.41D+00  RLast= 1.19D-01 DXNew= 5.0454D-01 3.5789D-01
 Trust test= 8.80D-01 RLast= 1.19D-01 DXMaxT set to 3.58D-01
 ITU=  1  0
 Use linear search instead of GDIIS.
     Eigenvalues ---    0.00456   0.04899   0.05147   0.05395   0.05555
     Eigenvalues ---    0.05668   0.05878   0.15811   0.16000   0.16000
     Eigenvalues ---    0.16000   0.16869   0.22474   0.30346   0.32415
     Eigenvalues ---    0.32456   0.32508   0.32558   0.33364   0.36120
     Eigenvalues ---    1.29230
 RFO step:  Lambda=-1.27419324D-04 EMin= 4.56064476D-03
 Quartic linear search produced a step of -0.09776.
 Iteration  1 RMS(Cart)=  0.01288801 RMS(Int)=  0.00028550
 Iteration  2 RMS(Cart)=  0.00028544 RMS(Int)=  0.00001627
 Iteration  3 RMS(Cart)=  0.00000004 RMS(Int)=  0.00001627
 ITry= 1 IFail=0 DXMaxC= 4.02D-02 DCOld= 1.00D+10 DXMaxT= 3.58D-01 DXLimC= 3.00D+00 Rises=F
 Variable       Old X    -DE/DX   Delta X   Delta X   Delta X     New X
                                 (Linear)    (Quad)   (Total)
    R1        2.91610  -0.00280  -0.00364  -0.00320  -0.00684   2.90925
    R2        2.06452   0.00022   0.00349  -0.00439  -0.00090   2.06362
    R3        2.06659  -0.00013   0.00310  -0.00479  -0.00168   2.06491
    R4        2.06451   0.00021   0.00348  -0.00438  -0.00090   2.06361
    R5        2.77176  -0.00010   0.00002  -0.00029  -0.00027   2.77149
    R6        2.06988   0.00039   0.00279  -0.00292  -0.00013   2.06975
    R7        2.06987   0.00037   0.00278  -0.00294  -0.00016   2.06971
    R8        2.19351   0.00022  -0.00063   0.00105   0.00042   2.19393
    A1        1.94045  -0.00061  -0.00136  -0.00162  -0.00298   1.93747
    A2        1.92300  -0.00123  -0.00116  -0.00503  -0.00619   1.91682
    A3        1.94047  -0.00062  -0.00136  -0.00171  -0.00307   1.93740
    A4        1.88585   0.00099   0.00095   0.00447   0.00543   1.89128
    A5        1.88627   0.00061   0.00211  -0.00013   0.00197   1.88824
    A6        1.88591   0.00100   0.00096   0.00445   0.00541   1.89132
    A7        1.96412  -0.00052  -0.00340   0.00379   0.00044   1.96456
    A8        1.93152  -0.00040  -0.00180  -0.00034  -0.00212   1.92940
    A9        1.93153  -0.00034  -0.00179  -0.00023  -0.00201   1.92952
   A10        1.88395   0.00068   0.00195   0.00233   0.00432   1.88827
   A11        1.88396   0.00058   0.00196   0.00129   0.00330   1.88726
   A12        1.86508   0.00007   0.00341  -0.00732  -0.00392   1.86116
   A13        3.10182   0.00246   0.00391   0.03924   0.04314   3.14496
   A14        3.12707   0.00043   0.00144   0.00573   0.00717   3.13423
    D1       -1.05124   0.00001  -0.00042   0.00068   0.00027  -1.05098
    D2        1.05823   0.00024  -0.00141   0.00604   0.00461   1.06284
    D3        3.12245  -0.00014   0.00057  -0.00342  -0.00284   3.11961
    D4       -3.14156  -0.00003   0.00001  -0.00057  -0.00056   3.14107
    D5       -1.03208   0.00020  -0.00099   0.00478   0.00378  -1.02830
    D6        1.03213  -0.00018   0.00099  -0.00467  -0.00366   1.02847
    D7        1.05124  -0.00006   0.00042  -0.00173  -0.00131   1.04993
    D8       -3.12247   0.00017  -0.00057   0.00362   0.00303  -3.11944
    D9       -1.05825  -0.00021   0.00141  -0.00584  -0.00441  -1.06267
         Item               Value     Threshold  Converged?
 Maximum Force            0.002800     0.000450     NO 
 RMS     Force            0.000818     0.000300     NO 
 Maximum Displacement     0.040212     0.001800     NO 
 RMS     Displacement     0.012862     0.001200     NO 
 Predicted change in Energy=-8.117339D-05
 Lowest energy point so far.  Saving SCF results.
 GradGradGradGradGradGradGradGradGradGradGradGradGradGradGradGradGradGrad

 Leave Link  103 at Sat Aug 21 01:33:46 2021, MaxMem= 24159191040 cpu:         6.6
 (Enter /public/home/users/caep010/software/Gaussian09/g09/l202.exe)
                          Input orientation:                          
 ---------------------------------------------------------------------
 Center     Atomic      Atomic             Coordinates (Angstroms)
 Number     Number       Type             X           Y           Z
 ---------------------------------------------------------------------
      1          6           0       -0.954078   -0.391644   -0.036818
      2          6           0        0.236760    0.582247    0.022644
      3          6           0        1.529492   -0.110153    0.042006
      4          7           0        2.553434   -0.657280    0.049699
      5          1           0       -0.910848   -1.008433   -0.936934
      6          1           0       -1.891567    0.169578   -0.048794
      7          1           0       -0.961126   -1.054770    0.830772
      8          1           0        0.223860    1.258287   -0.838989
      9          1           0        0.174076    1.212169    0.916414
 ---------------------------------------------------------------------
                    Distance matrix (angstroms):
                    1          2          3          4          5
     1  C    0.000000
     2  C    1.539511   0.000000
     3  C    2.500714   1.466611   0.000000
     4  N    3.518620   2.627573   1.160975   0.000000
     5  H    1.092019   2.183588   2.778577   3.619117   0.000000
     6  H    1.092703   2.169141   3.433677   4.522326   1.771528
     7  H    1.092016   2.183535   2.778062   3.622183   1.769028
     8  H    2.180204   1.095266   2.086494   3.144214   2.536765
     9  H    2.180275   1.095243   2.085732   3.147599   3.089180
                    6          7          8          9
     6  H    0.000000
     7  H    1.771549   0.000000
     8  H    2.506936   3.089098   0.000000
     9  H    2.507091   2.536736   1.756715   0.000000
 Stoichiometry    C3H5N
 Framework group  C1[X(C3H5N)]
 Deg. of freedom    21
 Full point group                 C1      NOp   1
 RotChk:  IX=0 Diff= 7.84D-03
 Largest Abelian subgroup         C1      NOp   1
 Largest concise Abelian subgroup C1      NOp   1
                         Standard orientation:                         
 ---------------------------------------------------------------------
 Center     Atomic      Atomic             Coordinates (Angstroms)
 Number     Number       Type             X           Y           Z
 ---------------------------------------------------------------------
      1          6           0        1.561391   -0.447170    0.000043
      2          6           0        0.483089    0.651628    0.000751
      3          6           0       -0.877686    0.104613   -0.003153
      4          7           0       -1.955197   -0.327606    0.001430
      5          1           0        1.472542   -1.083465    0.883071
      6          1           0        2.554636    0.008306    0.002493
      7          1           0        1.475130   -1.079683   -0.885951
      8          1           0        0.590442    1.294994    0.880617
      9          1           0        0.592858    1.298663   -0.876092
 ---------------------------------------------------------------------
 Rotational constants (GHZ):     28.1098858      4.6428795      4.1917701
 Leave Link  202 at Sat Aug 21 01:33:46 2021, MaxMem= 24159191040 cpu:         0.3
 (Enter /public/home/users/caep010/software/Gaussian09/g09/l301.exe)
 Standard basis: 6-31G(d,p) (6D, 7F)
 Ernie: Thresh=  0.10000D-02 Tol=  0.10000D-05 Strict=F.
 There are    85 symmetry adapted cartesian basis functions of A   symmetry.
 There are    85 symmetry adapted basis functions of A   symmetry.
    85 basis functions,   147 primitive gaussians,    85 cartesian basis functions
    15 alpha electrons       15 beta electrons
       nuclear repulsion energy       102.5578444380 Hartrees.
 IExCor=  402 DFT=T Ex+Corr=B3LYP ExCW=0 ScaHFX=  0.200000
 ScaDFX=  0.800000  0.720000  1.000000  0.810000 ScalE2=  1.000000  1.000000
 IRadAn=      0 IRanWt=     -1 IRanGd=            0 ICorTp=0 IEmpDi=  4
 NAtoms=    9 NActive=    9 NUniq=    9 SFac= 1.00D+00 NAtFMM=   60 NAOKFM=F Big=F
 Integral buffers will be    131072 words long.
 Raffenetti 2 integral format.
 Two-electron integral symmetry is turned on.
 Leave Link  301 at Sat Aug 21 01:33:46 2021, MaxMem= 24159191040 cpu:         1.8
 (Enter /public/home/users/caep010/software/Gaussian09/g09/l302.exe)
 NPDir=0 NMtPBC=     1 NCelOv=     1 NCel=       1 NClECP=     1 NCelD=      1
         NCelK=      1 NCelE2=     1 NClLst=     1 CellRange=     0.0.
 One-electron integrals computed using PRISM.
 NBasis=    85 RedAO= T EigKep=  1.42D-03  NBF=    85
 NBsUse=    85 1.00D-06 EigRej= -1.00D+00 NBFU=    85
 Precomputing XC quadrature grid using
 IXCGrd= 4 IRadAn=           0 IRanWt=          -1 IRanGd=           0 AccXCQ= 0.00D+00.
 Generated NRdTot=       0 NPtTot=           0 NUsed=           0 NTot=          32
 NSgBfM=    85    85    85    85    85 MxSgAt=     9 MxSgA2=     9.
 Leave Link  302 at Sat Aug 21 01:33:47 2021, MaxMem= 24159191040 cpu:        11.5
 (Enter /public/home/users/caep010/software/Gaussian09/g09/l303.exe)
 DipDrv:  MaxL=1.
 Leave Link  303 at Sat Aug 21 01:33:47 2021, MaxMem= 24159191040 cpu:         0.6
 (Enter /public/home/users/caep010/software/Gaussian09/g09/l401.exe)
 Initial guess from the checkpoint file:  "/public/home/users/caep010/.cache/gau_scr/Gau-227293.chk"
 B after Tr=     0.000000    0.000000   -0.000000
         Rot=    0.999999   -0.000959    0.000150   -0.000455 Ang=  -0.12 deg.
 Guess basis will be translated and rotated to current coordinates.
 JPrj=2 DoOrth=T DoCkMO=T.
 Generating alternative initial guess.
 ExpMin= 1.61D-01 ExpMax= 4.17D+03 ExpMxC= 6.27D+02 IAcc=1 IRadAn=         1 AccDes= 0.00D+00
 Harris functional with IExCor=  402 and IRadAn=       1 diagonalized for initial guess.
 HarFok:  IExCor=  402 AccDes= 0.00D+00 IRadAn=         1 IDoV= 1 UseB2=F ITyADJ=14
 ICtDFT=  3500011 ScaDFX=  1.000000  1.000000  1.000000  1.000000
 FoFCou: FMM=F IPFlag=           0 FMFlag=      100000 FMFlg1=           0
         NFxFlg=           0 DoJE=T BraDBF=F KetDBF=T FulRan=T
         wScrn=  0.000000 ICntrl=     500 IOpCl=  0 I1Cent=   200000004 NGrid=           0
         NMat0=    1 NMatS0=      1 NMatT0=    0 NMatD0=    1 NMtDS0=    0 NMtDT0=    0
 Petite list used in FoFCou.
 Harris En= -172.101371151450    
 Leave Link  401 at Sat Aug 21 01:33:47 2021, MaxMem= 24159191040 cpu:        11.1
 (Enter /public/home/users/caep010/software/Gaussian09/g09/l502.exe)
 Closed shell SCF:
 Using DIIS extrapolation, IDIIS=  1040.
 Integral symmetry usage will be decided dynamically.
 Keep R1 ints in memory in canonical form, NReq=7631389.
 IVT=       43589 IEndB=       43589 NGot= 24159191040 MDV= 24152466112
 LenX= 24152466112 LenY= 24152458446
 Requested convergence on RMS density matrix=1.00D-08 within 128 cycles.
 Requested convergence on MAX density matrix=1.00D-06.
 Requested convergence on             energy=1.00D-06.
 No special actions if energy rises.
 FoFCou: FMM=F IPFlag=           0 FMFlag=           0 FMFlg1=           0
         NFxFlg=           0 DoJE=F BraDBF=F KetDBF=F FulRan=T
         wScrn=  0.000000 ICntrl=     600 IOpCl=  0 I1Cent=           0 NGrid=           0
         NMat0=    1 NMatS0=   3655 NMatT0=    0 NMatD0=    1 NMtDS0=    0 NMtDT0=    0
 Symmetry not used in FoFCou.
 Integral accuracy reduced to 1.0D-05 until final iterations.

 Cycle   1  Pass 0  IDiag  1:
 E= -172.074852834377    
 DIIS: error= 2.68D-03 at cycle   1 NSaved=   1.
 NSaved= 1 IEnMin= 1 EnMin= -172.074852834377     IErMin= 1 ErrMin= 2.68D-03
 ErrMax= 2.68D-03  0.00D+00 EMaxC= 1.00D-01 BMatC= 4.25D-04 BMatP= 4.25D-04
 IDIUse=3 WtCom= 9.73D-01 WtEn= 2.68D-02
 Coeff-Com:  0.100D+01
 Coeff-En:   0.100D+01
 Coeff:      0.100D+01
 Gap=     2.334 Goal=   None    Shift=    0.000
 GapD=    2.334 DampG=2.000 DampE=1.000 DampFc=2.0000 IDamp=-1.
 RMSDP=4.63D-04 MaxDP=8.07D-03              OVMax= 1.38D-02

 Cycle   2  Pass 0  IDiag  1:
 E= -172.075590718901     Delta-E=       -0.000737884524 Rises=F Damp=F
 DIIS: error= 2.38D-04 at cycle   2 NSaved=   2.
 NSaved= 2 IEnMin= 2 EnMin= -172.075590718901     IErMin= 2 ErrMin= 2.38D-04
 ErrMax= 2.38D-04  0.00D+00 EMaxC= 1.00D-01 BMatC= 8.04D-06 BMatP= 4.25D-04
 IDIUse=3 WtCom= 9.98D-01 WtEn= 2.38D-03
 Coeff-Com: -0.670D-01 0.107D+01
 Coeff-En:   0.000D+00 0.100D+01
 Coeff:     -0.669D-01 0.107D+01
 Gap=     0.354 Goal=   None    Shift=    0.000
 RMSDP=5.67D-05 MaxDP=7.53D-04 DE=-7.38D-04 OVMax= 1.31D-03

 Cycle   3  Pass 0  IDiag  1:
 E= -172.075599275223     Delta-E=       -0.000008556322 Rises=F Damp=F
 DIIS: error= 1.56D-04 at cycle   3 NSaved=   3.
 NSaved= 3 IEnMin= 3 EnMin= -172.075599275223     IErMin= 3 ErrMin= 1.56D-04
 ErrMax= 1.56D-04  0.00D+00 EMaxC= 1.00D-01 BMatC= 3.03D-06 BMatP= 8.04D-06
 IDIUse=3 WtCom= 9.98D-01 WtEn= 1.56D-03
 Coeff-Com: -0.336D-01 0.423D+00 0.610D+00
 Coeff-En:   0.000D+00 0.000D+00 0.100D+01
 Coeff:     -0.336D-01 0.422D+00 0.611D+00
 Gap=     0.354 Goal=   None    Shift=    0.000
 RMSDP=2.77D-05 MaxDP=4.83D-04 DE=-8.56D-06 OVMax= 8.35D-04

 Cycle   4  Pass 0  IDiag  1:
 E= -172.075600885385     Delta-E=       -0.000001610162 Rises=F Damp=F
 DIIS: error= 1.36D-04 at cycle   4 NSaved=   4.
 NSaved= 4 IEnMin= 4 EnMin= -172.075600885385     IErMin= 4 ErrMin= 1.36D-04
 ErrMax= 1.36D-04  0.00D+00 EMaxC= 1.00D-01 BMatC= 1.59D-06 BMatP= 3.03D-06
 IDIUse=3 WtCom= 9.99D-01 WtEn= 1.36D-03
 Coeff-Com: -0.157D-01 0.187D+00 0.425D+00 0.404D+00
 Coeff-En:   0.000D+00 0.000D+00 0.327D+00 0.673D+00
 Coeff:     -0.157D-01 0.187D+00 0.425D+00 0.404D+00
 Gap=     0.354 Goal=   None    Shift=    0.000
 RMSDP=1.45D-05 MaxDP=2.95D-04 DE=-1.61D-06 OVMax= 5.17D-04

 Cycle   5  Pass 0  IDiag  1:
 E= -172.075602182032     Delta-E=       -0.000001296647 Rises=F Damp=F
 DIIS: error= 4.08D-05 at cycle   5 NSaved=   5.
 NSaved= 5 IEnMin= 5 EnMin= -172.075602182032     IErMin= 5 ErrMin= 4.08D-05
 ErrMax= 4.08D-05  0.00D+00 EMaxC= 1.00D-01 BMatC= 1.69D-07 BMatP= 1.59D-06
 IDIUse=1 WtCom= 1.00D+00 WtEn= 0.00D+00
 Coeff-Com: -0.417D-02 0.437D-01 0.182D+00 0.274D+00 0.505D+00
 Coeff:     -0.417D-02 0.437D-01 0.182D+00 0.274D+00 0.505D+00
 Gap=     0.354 Goal=   None    Shift=    0.000
 RMSDP=3.98D-06 MaxDP=7.40D-05 DE=-1.30D-06 OVMax= 1.22D-04

 Initial convergence to 1.0D-05 achieved.  Increase integral accuracy.
 Cycle   6  Pass 1  IDiag  1:
 E= -172.075569211716     Delta-E=        0.000032970315 Rises=F Damp=F
 DIIS: error= 9.27D-06 at cycle   1 NSaved=   1.
 NSaved= 1 IEnMin= 1 EnMin= -172.075569211716     IErMin= 1 ErrMin= 9.27D-06
 ErrMax= 9.27D-06  0.00D+00 EMaxC= 1.00D-01 BMatC= 1.17D-08 BMatP= 1.17D-08
 IDIUse=1 WtCom= 1.00D+00 WtEn= 0.00D+00
 Coeff-Com:  0.100D+01
 Coeff:      0.100D+01
 Gap=     0.354 Goal=   None    Shift=    0.000
 RMSDP=3.98D-06 MaxDP=7.40D-05 DE= 3.30D-05 OVMax= 5.06D-05

 Cycle   7  Pass 1  IDiag  1:
 E= -172.075569217645     Delta-E=       -0.000000005929 Rises=F Damp=F
 DIIS: error= 7.33D-06 at cycle   2 NSaved=   2.
 NSaved= 2 IEnMin= 2 EnMin= -172.075569217645     IErMin= 2 ErrMin= 7.33D-06
 ErrMax= 7.33D-06  0.00D+00 EMaxC= 1.00D-01 BMatC= 7.86D-09 BMatP= 1.17D-08
 IDIUse=1 WtCom= 1.00D+00 WtEn= 0.00D+00
 Coeff-Com:  0.434D+00 0.566D+00
 Coeff:      0.434D+00 0.566D+00
 Gap=     0.354 Goal=   None    Shift=    0.000
 RMSDP=1.37D-06 MaxDP=2.62D-05 DE=-5.93D-09 OVMax= 4.56D-05

 Cycle   8  Pass 1  IDiag  1:
 E= -172.075569220552     Delta-E=       -0.000000002907 Rises=F Damp=F
 DIIS: error= 7.71D-06 at cycle   3 NSaved=   3.
 NSaved= 3 IEnMin= 3 EnMin= -172.075569220552     IErMin= 2 ErrMin= 7.33D-06
 ErrMax= 7.71D-06  0.00D+00 EMaxC= 1.00D-01 BMatC= 4.98D-09 BMatP= 7.86D-09
 IDIUse=1 WtCom= 1.00D+00 WtEn= 0.00D+00
 Coeff-Com:  0.111D+00 0.423D+00 0.466D+00
 Coeff:      0.111D+00 0.423D+00 0.466D+00
 Gap=     0.354 Goal=   None    Shift=    0.000
 RMSDP=8.01D-07 MaxDP=1.67D-05 DE=-2.91D-09 OVMax= 2.91D-05

 Cycle   9  Pass 1  IDiag  1:
 E= -172.075569224324     Delta-E=       -0.000000003772 Rises=F Damp=F
 DIIS: error= 2.25D-06 at cycle   4 NSaved=   4.
 NSaved= 4 IEnMin= 4 EnMin= -172.075569224324     IErMin= 4 ErrMin= 2.25D-06
 ErrMax= 2.25D-06  0.00D+00 EMaxC= 1.00D-01 BMatC= 5.57D-10 BMatP= 4.98D-09
 IDIUse=1 WtCom= 1.00D+00 WtEn= 0.00D+00
 Coeff-Com: -0.359D-02 0.183D+00 0.310D+00 0.511D+00
 Coeff:     -0.359D-02 0.183D+00 0.310D+00 0.511D+00
 Gap=     0.354 Goal=   None    Shift=    0.000
 RMSDP=2.52D-07 MaxDP=4.02D-06 DE=-3.77D-09 OVMax= 7.31D-06

 Cycle  10  Pass 1  IDiag  1:
 E= -172.075569224841     Delta-E=       -0.000000000516 Rises=F Damp=F
 DIIS: error= 2.59D-07 at cycle   5 NSaved=   5.
 NSaved= 5 IEnMin= 5 EnMin= -172.075569224841     IErMin= 5 ErrMin= 2.59D-07
 ErrMax= 2.59D-07  0.00D+00 EMaxC= 1.00D-01 BMatC= 7.37D-12 BMatP= 5.57D-10
 IDIUse=1 WtCom= 1.00D+00 WtEn= 0.00D+00
 Coeff-Com: -0.730D-02 0.539D-01 0.101D+00 0.207D+00 0.645D+00
 Coeff:     -0.730D-02 0.539D-01 0.101D+00 0.207D+00 0.645D+00
 Gap=     0.354 Goal=   None    Shift=    0.000
 RMSDP=2.81D-08 MaxDP=5.14D-07 DE=-5.16D-10 OVMax= 6.58D-07

 Cycle  11  Pass 1  IDiag  1:
 E= -172.075569224848     Delta-E=       -0.000000000008 Rises=F Damp=F
 DIIS: error= 1.77D-08 at cycle   6 NSaved=   6.
 NSaved= 6 IEnMin= 6 EnMin= -172.075569224848     IErMin= 6 ErrMin= 1.77D-08
 ErrMax= 1.77D-08  0.00D+00 EMaxC= 1.00D-01 BMatC= 2.87D-14 BMatP= 7.37D-12
 IDIUse=1 WtCom= 1.00D+00 WtEn= 0.00D+00
 Coeff-Com: -0.901D-03 0.333D-02 0.593D-02 0.138D-01 0.566D-01 0.921D+00
 Coeff:     -0.901D-03 0.333D-02 0.593D-02 0.138D-01 0.566D-01 0.921D+00
 Gap=     0.354 Goal=   None    Shift=    0.000
 RMSDP=3.93D-09 MaxDP=3.97D-08 DE=-7.67D-12 OVMax= 9.07D-08

 SCF Done:  E(RB3LYP) =  -172.075569225     A.U. after   11 cycles
            NFock= 11  Conv=0.39D-08     -V/T= 2.0098
 KE= 1.703991021536D+02 PE=-6.039192574654D+02 EE= 1.588867416490D+02
 Leave Link  502 at Sat Aug 21 01:33:48 2021, MaxMem= 24159191040 cpu:        22.2
 (Enter /public/home/users/caep010/software/Gaussian09/g09/l701.exe)
 Compute integral first derivatives.
 ... and contract with generalized density number  0.
 Leave Link  701 at Sat Aug 21 01:33:49 2021, MaxMem= 24159191040 cpu:        10.5
 (Enter /public/home/users/caep010/software/Gaussian09/g09/l702.exe)
 L702 exits ... SP integral derivatives will be done elsewhere.
 Leave Link  702 at Sat Aug 21 01:33:49 2021, MaxMem= 24159191040 cpu:         0.5
 (Enter /public/home/users/caep010/software/Gaussian09/g09/l703.exe)
 Compute integral first derivatives, UseDBF=F ICtDFT=           0.
 Integral derivatives from FoFJK, PRISM(SPDF).
 Calling FoFJK, ICntrl=      2127 FMM=F ISym2X=0 I1Cent= 0 IOpClX= 0 NMat=1 NMatS=1 NMatT=0.
 FoFJK:  IHMeth= 1 ICntrl=    2127 DoSepK=F KAlg= 0 I1Cent=   0 FoldK=F
 IRaf=         0 NMat=   1 IRICut=       1 DoRegI=T DoRafI=F ISym2E= 0.
 FoFCou: FMM=F IPFlag=           0 FMFlag=      100000 FMFlg1=         800
         NFxFlg=           0 DoJE=F BraDBF=F KetDBF=F FulRan=T
         wScrn=  0.000000 ICntrl=    2127 IOpCl=  0 I1Cent=           0 NGrid=           0
         NMat0=    1 NMatS0=      1 NMatT0=    0 NMatD0=    1 NMtDS0=    0 NMtDT0=    0
 Symmetry not used in FoFCou.
 Leave Link  703 at Sat Aug 21 01:33:49 2021, MaxMem= 24159191040 cpu:         9.1
 (Enter /public/home/users/caep010/software/Gaussian09/g09/l716.exe)
 Dipole        = 1.46174813D+00 4.92996896D-01-6.63414212D-04
 ***** Axes restored to original set *****
 -------------------------------------------------------------------
 Center     Atomic                   Forces (Hartrees/Bohr)
 Number     Number              X              Y              Z
 -------------------------------------------------------------------
      1        6           0.000042290    0.000609041    0.000033290
      2        6          -0.000317011   -0.001536373    0.000273401
      3        6           0.000859289    0.001142614   -0.000565617
      4        7          -0.000656137   -0.000317506    0.000252576
      5        1           0.000125642   -0.000241917   -0.000449967
      6        1          -0.000264354    0.000290209    0.000002001
      7        1           0.000080001   -0.000271146    0.000443118
      8        1           0.000171140    0.000135718   -0.000458089
      9        1          -0.000040859    0.000189360    0.000469288
 -------------------------------------------------------------------
 Cartesian Forces:  Max     0.001536373 RMS     0.000512473
 Leave Link  716 at Sat Aug 21 01:33:49 2021, MaxMem= 24159191040 cpu:         0.6
 (Enter /public/home/users/caep010/software/Gaussian09/g09/l103.exe)

 GradGradGradGradGradGradGradGradGradGradGradGradGradGradGradGradGradGrad
 Berny optimization.
 Using GEDIIS/GDIIS optimizer.
 FormGI is forming the generalized inverse of G from B-inverse, IUseBI=4.
 Internal  Forces:  Max     0.001394522 RMS     0.000367293
 Search for a local minimum.
 Step number   3 out of a maximum of   41
 All quantities printed in internal units (Hartrees-Bohrs-Radians)
 RMS Force = .36729D-03 SwitMx=.10000D-02 MixMth= 2
 Mixed Optimization -- En-DIIS/RFO-DIIS
 Swapping is turned off.
 Update second derivatives using D2CorX and points    1    2    3
 DE= -5.17D-05 DEPred=-8.12D-05 R= 6.36D-01
 TightC=F SS=  1.41D+00  RLast= 4.72D-02 DXNew= 6.0189D-01 1.4150D-01
 Trust test= 6.36D-01 RLast= 4.72D-02 DXMaxT set to 3.58D-01
 ITU=  1  1  0
     Eigenvalues ---    0.00456   0.04868   0.05379   0.05570   0.05716
     Eigenvalues ---    0.05802   0.07980   0.15211   0.16000   0.16000
     Eigenvalues ---    0.16027   0.16396   0.23068   0.30597   0.32440
     Eigenvalues ---    0.32457   0.32507   0.32560   0.33278   0.36151
     Eigenvalues ---    1.29513
 En-DIIS/RFO-DIIS IScMMF=        0 using points:     3    2
 RFO step:  Lambda=-1.03570180D-05.
 NNeg= 0 NP= 2 Switch=  2.50D-03 Rises=F DC=  5.17D-05 SmlDif=  1.00D-05
 RMS Error=  0.9657258256D-03 NUsed= 2 EDIIS=F
 DidBck=T Rises=F RFO-DIIS coefs:    0.73163    0.26837
 Iteration  1 RMS(Cart)=  0.00417821 RMS(Int)=  0.00003217
 Iteration  2 RMS(Cart)=  0.00003251 RMS(Int)=  0.00000107
 Iteration  3 RMS(Cart)=  0.00000000 RMS(Int)=  0.00000107
 ITry= 1 IFail=0 DXMaxC= 1.27D-02 DCOld= 1.00D+10 DXMaxT= 3.58D-01 DXLimC= 3.00D+00 Rises=F
 Variable       Old X    -DE/DX   Delta X   Delta X   Delta X     New X
                                 (Linear)    (Quad)   (Total)
    R1        2.90925  -0.00023   0.00184  -0.00322  -0.00139   2.90787
    R2        2.06362   0.00051   0.00024   0.00111   0.00136   2.06497
    R3        2.06491   0.00037   0.00045   0.00050   0.00096   2.06586
    R4        2.06361   0.00052   0.00024   0.00112   0.00136   2.06497
    R5        2.77149  -0.00022   0.00007  -0.00051  -0.00044   2.77105
    R6        2.06975   0.00044   0.00003   0.00116   0.00119   2.07095
    R7        2.06971   0.00049   0.00004   0.00126   0.00130   2.07101
    R8        2.19393  -0.00043  -0.00011  -0.00015  -0.00026   2.19367
    A1        1.93747  -0.00013   0.00080  -0.00172  -0.00092   1.93655
    A2        1.91682  -0.00010   0.00166  -0.00268  -0.00102   1.91580
    A3        1.93740  -0.00010   0.00082  -0.00161  -0.00078   1.93662
    A4        1.89128   0.00012  -0.00146   0.00250   0.00104   1.89232
    A5        1.88824   0.00011  -0.00053   0.00131   0.00079   1.88903
    A6        1.89132   0.00011  -0.00145   0.00245   0.00100   1.89232
    A7        1.96456   0.00070  -0.00012   0.00195   0.00184   1.96639
    A8        1.92940  -0.00006   0.00057  -0.00117  -0.00060   1.92880
    A9        1.92952  -0.00020   0.00054  -0.00132  -0.00078   1.92874
   A10        1.88827  -0.00040  -0.00116  -0.00023  -0.00139   1.88689
   A11        1.88726  -0.00020  -0.00088   0.00105   0.00017   1.88742
   A12        1.86116   0.00013   0.00105  -0.00034   0.00071   1.86187
   A13        3.14496  -0.00139  -0.01158  -0.00460  -0.01617   3.12879
   A14        3.13423   0.00004  -0.00192   0.00314   0.00122   3.13545
    D1       -1.05098   0.00006  -0.00007   0.00096   0.00089  -1.05009
    D2        1.06284  -0.00002  -0.00124   0.00118  -0.00005   1.06279
    D3        3.11961  -0.00002   0.00076  -0.00079  -0.00003   3.11958
    D4        3.14107   0.00005   0.00015   0.00069   0.00084  -3.14128
    D5       -1.02830  -0.00002  -0.00101   0.00091  -0.00011  -1.02841
    D6        1.02847  -0.00003   0.00098  -0.00107  -0.00009   1.02838
    D7        1.04993   0.00005   0.00035   0.00039   0.00075   1.05067
    D8       -3.11944  -0.00002  -0.00081   0.00061  -0.00020  -3.11964
    D9       -1.06267  -0.00003   0.00118  -0.00136  -0.00018  -1.06285
         Item               Value     Threshold  Converged?
 Maximum Force            0.001395     0.000450     NO 
 RMS     Force            0.000367     0.000300     NO 
 Maximum Displacement     0.012733     0.001800     NO 
 RMS     Displacement     0.004181     0.001200     NO 
 Predicted change in Energy=-1.445648D-05
 Lowest energy point so far.  Saving SCF results.
 GradGradGradGradGradGradGradGradGradGradGradGradGradGradGradGradGradGrad

 Leave Link  103 at Sat Aug 21 01:33:49 2021, MaxMem= 24159191040 cpu:         1.4
 (Enter /public/home/users/caep010/software/Gaussian09/g09/l202.exe)
                          Input orientation:                          
 ---------------------------------------------------------------------
 Center     Atomic      Atomic             Coordinates (Angstroms)
 Number     Number       Type             X           Y           Z
 ---------------------------------------------------------------------
[...]
     27 -0.414018D-03 -0.260209D-04  0.219282D-04 -0.218301D-03  0.848946D-04
               21            22            23            24            25 
     21  0.236988D+00
     22 -0.810039D-03  0.550740D-01
     23 -0.864938D-03 -0.445560D-02  0.156151D+00
     24  0.123825D-02  0.471749D-02 -0.138870D+00  0.227734D+00
     25  0.449056D-03 -0.846747D-04 -0.111453D-02 -0.849926D-03  0.561482D-01
     26  0.683638D-04 -0.203554D-02  0.125519D-01  0.162832D-01 -0.114435D-01
     27  0.743404D-03  0.191457D-02 -0.145747D-01 -0.209417D-01 -0.150199D-01
               26            27 
     26  0.141512D+00
     27  0.133804D+00  0.241234D+00
 FormGI is forming the generalized inverse of G from B-inverse, IUseBI=4.
 Force constants in internal coordinates: 
                1             2             3             4             5 
      1  0.277250D+00
      2  0.480304D-02  0.344573D+00
      3  0.402121D-02  0.217626D-02  0.343401D+00
      4  0.480252D-02  0.232385D-02  0.217684D-02  0.344573D+00
      5  0.167256D-01 -0.105409D-03 -0.199511D-03 -0.105744D-03  0.325416D+00
      6  0.577298D-02  0.414093D-03  0.419622D-03 -0.102744D-02  0.800322D-02
      7  0.577099D-02 -0.102506D-02  0.419376D-03  0.415782D-03  0.798598D-02
      8 -0.270695D-02  0.562815D-03 -0.365007D-03  0.562614D-03  0.606999D-02
      9  0.175499D-01  0.650494D-03 -0.523036D-02 -0.534009D-02 -0.322760D-02
     10  0.150318D-01 -0.504687D-02  0.119842D-02 -0.504702D-02  0.649880D-02
     11  0.175399D-01 -0.533818D-02 -0.523098D-02  0.651434D-03 -0.323159D-02
     12 -0.170440D-01  0.492668D-02  0.482037D-02 -0.333481D-04 -0.840374D-03
     13 -0.180150D-01  0.518934D-02  0.574782D-04  0.519028D-02  0.165172D-02
     14 -0.170418D-01 -0.335984D-04  0.482103D-02  0.492625D-02 -0.839120D-03
     15  0.203548D-01 -0.176136D-02  0.471010D-02 -0.175695D-02  0.730808D-02
     16  0.149056D-01 -0.705499D-03 -0.120734D-02  0.336836D-02 -0.135240D-01
     17  0.149202D-01  0.336087D-02 -0.120654D-02 -0.713629D-03 -0.135226D-01
     18 -0.186232D-01  0.451030D-03 -0.142683D-02 -0.519065D-03  0.975538D-02
     19 -0.186541D-01 -0.506562D-03 -0.142800D-02  0.460718D-03  0.975345D-02
     20 -0.161520D-01 -0.846928D-03  0.323290D-03 -0.846708D-03  0.780036D-03
     21 -0.320017D-02 -0.267435D-03  0.142803D-03 -0.494856D-03  0.206693D-03
     22 -0.121908D-02 -0.267455D-03  0.490737D-04  0.104387D-03  0.562215D-04
     23 -0.362438D-03  0.535030D-03  0.345956D-02 -0.394672D-02  0.111534D-02
     24  0.363564D-03 -0.601092D-03  0.400892D-02 -0.342126D-02  0.902862D-02
     25 -0.107123D-02  0.122050D-05  0.290989D-02 -0.281923D-02 -0.679581D-02
     26 -0.745821D-05 -0.274015D-02  0.000000D+00  0.274613D-02  0.000000D+00
     27  0.718543D-03 -0.387627D-02  0.549620D-03  0.327158D-02  0.791242D-02
     28 -0.716247D-03 -0.327396D-02 -0.549411D-03  0.387362D-02 -0.791202D-02
     29  0.349077D-03  0.395269D-02 -0.345952D-02 -0.528779D-03 -0.111659D-02
     30  0.107508D-02  0.281657D-02 -0.291017D-02 -0.332160D-05  0.679670D-02
     31 -0.359712D-03  0.341888D-02 -0.400920D-02  0.598711D-03 -0.902774D-02
                6             7             8             9            10 
      6  0.335441D+00
      7  0.321336D-02  0.335382D+00
      8 -0.225482D-02 -0.225886D-02  0.126859D+01
      9 -0.128401D-02  0.353108D-02  0.444243D-03  0.107855D+00
     10 -0.105202D-02 -0.104963D-02  0.145952D-02 -0.201290D-01  0.106015D+00
     11  0.353481D-02 -0.128842D-02  0.445146D-03 -0.213478D-01 -0.201331D-01
     12  0.403860D-03 -0.860493D-03 -0.926474D-03 -0.405782D-01 -0.408868D-01
     13 -0.792526D-03 -0.786756D-03 -0.587310D-03 -0.416598D-01  0.133922D-01
     14 -0.860395D-03  0.404184D-03 -0.927223D-03  0.132644D-01 -0.408912D-01
     15 -0.512954D-02 -0.511741D-02 -0.115106D-02 -0.660010D-02  0.169778D-01
     16 -0.471202D-03 -0.569420D-02 -0.678391D-03 -0.672050D-02 -0.731141D-02
     17 -0.569090D-02 -0.463711D-03 -0.670864D-03  0.171454D-01 -0.731105D-02
     18  0.573255D-02  0.669244D-03  0.123387D-02  0.443878D-02 -0.360597D-02
     19  0.672623D-03  0.571661D-02  0.122076D-02 -0.462166D-02 -0.360752D-02
     20  0.571686D-02  0.571567D-02  0.188691D-03 -0.371384D-02  0.436169D-02
     21  0.129964D-02  0.767728D-04  0.182854D-02  0.583251D-03 -0.337547D-02
     22 -0.845281D-03  0.132629D-02  0.574283D-03 -0.926724D-03 -0.116548D-02
     23 -0.391334D-02  0.340381D-02  0.694753D-04  0.159636D-02  0.500164D-02
     24 -0.420297D-03 -0.331800D-02  0.377713D-03 -0.203824D-02  0.684551D-02
     25  0.281509D-02 -0.812842D-04 -0.226736D-03 -0.153618D-03  0.315603D-02
     26 -0.292113D-02  0.291639D-02 -0.410482D-05 -0.322930D-02  0.000000D+00
     27  0.571919D-03 -0.380542D-02  0.304133D-03 -0.686389D-02  0.184393D-02
     28  0.380730D-02 -0.568706D-03 -0.300317D-03 -0.497927D-02 -0.184555D-02
     29 -0.340957D-02  0.390964D-02 -0.774736D-04  0.682831D-02 -0.500195D-02
     30  0.834742D-04 -0.281217D-02  0.230764D-03  0.319371D-02 -0.315809D-02
     31  0.331886D-02  0.424548D-03 -0.373685D-03  0.507833D-02 -0.684757D-02
               11            12            13            14            15 
     11  0.107844D+00
     12  0.132654D-01  0.515254D-01
     13 -0.416493D-01  0.971837D-02  0.530393D-01
     14 -0.405735D-01  0.974485D-02  0.971522D-02  0.515284D-01
     15 -0.659200D-02 -0.395956D-02  0.400028D-02 -0.396179D-02  0.126502D+00
     16  0.171338D-01  0.416063D-02 -0.391150D-02 -0.348076D-02 -0.227354D-01
     17 -0.670732D-02 -0.348295D-02 -0.393286D-02  0.415828D-02 -0.227943D-01
     18 -0.460516D-02  0.342183D-03  0.547697D-03  0.302884D-02 -0.504390D-01
     19  0.441964D-02  0.303300D-02  0.577700D-03  0.346422D-03 -0.504137D-01
     20 -0.371358D-02  0.175320D-03  0.284162D-02  0.175217D-03  0.129746D-01
     21 -0.402160D-03  0.138748D-02  0.785301D-04  0.185598D-02 -0.182902D-01
     22  0.826623D-03  0.998957D-03  0.156642D-03  0.159730D-03 -0.624124D-02
     23 -0.683764D-02  0.533443D-02 -0.562861D-02  0.655324D-03  0.189002D-02
     24 -0.507324D-02  0.601435D-02 -0.496051D-02 -0.664148D-03  0.799546D-02
     25 -0.318825D-02  0.665136D-02 -0.632011D-02 -0.270749D-04 -0.424122D-02
     26  0.321827D-02 -0.659438D-02  0.881791D-05  0.659651D-02  0.825271D-05
     27  0.498266D-02 -0.591446D-02  0.676917D-03  0.527703D-02  0.611369D-02
     28  0.686765D-02 -0.527745D-02 -0.682685D-03  0.591411D-02 -0.612299D-02
     29 -0.160618D-02 -0.653421D-03  0.564438D-02 -0.533155D-02 -0.187716D-02
     30  0.158212D-03  0.264972D-04  0.631248D-02 -0.665102D-02  0.422828D-02
     31  0.204320D-02  0.663508D-03  0.495288D-02 -0.601395D-02 -0.800840D-02
               16            17            18            19            20 
     16  0.102757D+00
     17 -0.161148D-01  0.102737D+00
     18 -0.424720D-01  0.138867D-01  0.614824D-01
     19  0.138737D-01 -0.424528D-01  0.131948D-01  0.614623D-01
     20 -0.384719D-01 -0.384572D-01  0.946668D-02  0.946655D-02  0.489323D-01
     21 -0.103479D-02  0.410417D-02  0.125322D-01  0.553901D-02 -0.170946D-02
     22  0.506554D-02 -0.403570D-02 -0.311062D-02  0.930827D-02 -0.595961D-03
     23 -0.610407D-02  0.408996D-02 -0.721230D-02  0.661201D-02  0.688427D-03
     24 -0.302922D-02 -0.525755D-02  0.672807D-02 -0.125622D-02 -0.565229D-02
     25  0.323448D-02  0.101657D-02  0.677564D-03 -0.730513D-02  0.702901D-02
     26 -0.228906D-02  0.229177D-02 -0.811648D-02  0.810226D-02  0.000000D+00
     27  0.785791D-03 -0.705575D-02  0.582389D-02  0.234030D-03 -0.634066D-02
     28  0.704950D-02 -0.781628D-03 -0.226615D-03 -0.581488D-02  0.634064D-02
     29 -0.408254D-02  0.610222D-02 -0.663194D-02  0.720601D-02 -0.688606D-03
     30 -0.100769D-02 -0.324530D-02  0.730843D-02 -0.662216D-03 -0.702933D-02
     31  0.525602D-02  0.302882D-02  0.125792D-02 -0.671113D-02  0.565198D-02
               21            22            23            24            25 
     21  0.863993D-01
     22 -0.102723D-02  0.549066D-01
     23 -0.193896D-02  0.319116D-02  0.158244D-01
     24  0.823831D-03 -0.148686D-02  0.351508D-02  0.154960D-01
     25  0.617910D-03 -0.158382D-02  0.311532D-02  0.337177D-02  0.146911D-01
     26 -0.184978D-02  0.328995D-02  0.493722D-02 -0.710853D-02 -0.710669D-02
     27  0.913011D-03 -0.138807D-02 -0.737207D-02  0.487235D-02 -0.685024D-02
     28  0.707090D-03 -0.148504D-02 -0.777183D-02 -0.725184D-02  0.446913D-02
     29 -0.171878D-02  0.332195D-02  0.521670D-02 -0.749928D-02 -0.709591D-02
     30  0.104401D-02 -0.135607D-02 -0.709258D-02  0.448159D-02 -0.683946D-02
     31  0.838089D-03 -0.145303D-02 -0.749234D-02 -0.764259D-02  0.447992D-02
               26            27            28            29            30 
     26  0.151889D-01
     27  0.314314D-02  0.153876D-01
     28  0.314497D-02  0.366496D-02  0.153859D-01
     29  0.494083D-02 -0.777516D-02 -0.737178D-02  0.158319D-01
     30 -0.710492D-02  0.446926D-02 -0.685179D-02  0.311587D-02  0.146900D-01
     31 -0.710308D-02 -0.725333D-02  0.486918D-02  0.351925D-02  0.336900D-02
               31 
     31  0.154915D-01
 Leave Link  716 at Sat Aug 21 01:34:01 2021, MaxMem= 24159191040 cpu:         7.5
 (Enter /public/home/users/caep010/software/Gaussian09/g09/l103.exe)

 GradGradGradGradGradGradGradGradGradGradGradGradGradGradGradGradGradGrad
 Berny optimization.
 Red2BG is reusing G-inverse.
 Internal  Forces:  Max     0.000146540 RMS     0.000057841
 Search for a local minimum.
 Step number   1 out of a maximum of    2
 All quantities printed in internal units (Hartrees-Bohrs-Radians)
 Second derivative matrix not updated -- analytic derivatives used.
 ITU=  0
     Eigenvalues ---    0.00246   0.04508   0.04623   0.04665   0.04992
     Eigenvalues ---    0.06021   0.08156   0.12104   0.12738   0.12765
     Eigenvalues ---    0.14326   0.17976   0.19475   0.29728   0.32485
     Eigenvalues ---    0.33286   0.34243   0.34308   0.34957   0.35092
     Eigenvalues ---    1.26866
 Angle between quadratic step and forces=  35.62 degrees.
 Linear search not attempted -- first point.
 Iteration  1 RMS(Cart)=  0.00085058 RMS(Int)=  0.00000036
 Iteration  2 RMS(Cart)=  0.00000040 RMS(Int)=  0.00000006
 ITry= 1 IFail=0 DXMaxC= 2.27D-03 DCOld= 1.00D+10 DXMaxT= 3.00D-01 DXLimC= 3.00D+00 Rises=F
 Variable       Old X    -DE/DX   Delta X   Delta X   Delta X     New X
                                 (Linear)    (Quad)   (Total)
    R1        2.90787   0.00015   0.00000   0.00031   0.00031   2.90818
    R2        2.06497   0.00003   0.00000   0.00010   0.00010   2.06507
    R3        2.06586   0.00001   0.00000   0.00004   0.00004   2.06591
    R4        2.06497   0.00003   0.00000   0.00009   0.00009   2.06507
    R5        2.77105  -0.00009   0.00000  -0.00032  -0.00032   2.77074
    R6        2.07095   0.00009   0.00000   0.00028   0.00028   2.07123
    R7        2.07101   0.00006   0.00000   0.00022   0.00022   2.07123
    R8        2.19367  -0.00008   0.00000  -0.00006  -0.00006   2.19361
    A1        1.93655   0.00007   0.00000   0.00043   0.00043   1.93698
    A2        1.91580  -0.00002   0.00000  -0.00027  -0.00027   1.91553
    A3        1.93662   0.00005   0.00000   0.00036   0.00036   1.93699
    A4        1.89232  -0.00002   0.00000  -0.00013  -0.00013   1.89219
    A5        1.88903  -0.00005   0.00000  -0.00028  -0.00028   1.88875
    A6        1.89232  -0.00002   0.00000  -0.00013  -0.00013   1.89219
    A7        1.96639   0.00013   0.00000   0.00092   0.00092   1.96731
    A8        1.92880   0.00001   0.00000   0.00007   0.00007   1.92887
    A9        1.92874   0.00005   0.00000   0.00012   0.00012   1.92887
   A10        1.88689  -0.00005   0.00000  -0.00012  -0.00012   1.88677
   A11        1.88742  -0.00011   0.00000  -0.00065  -0.00065   1.88677
   A12        1.86187  -0.00004   0.00000  -0.00043  -0.00043   1.86144
   A13        3.12879   0.00005   0.00000   0.00080   0.00080   3.12959
   A14        3.13545  -0.00005   0.00000  -0.00069  -0.00069   3.13476
    D1       -1.05009  -0.00002   0.00000  -0.00038  -0.00038  -1.05047
    D2        1.06279   0.00001   0.00000   0.00015   0.00015   1.06294
    D3        3.11958  -0.00000   0.00000  -0.00026  -0.00026   3.11932
    D4       -3.14128  -0.00002   0.00000  -0.00031  -0.00031  -3.14159
    D5       -1.02841   0.00001   0.00000   0.00022   0.00022  -1.02819
    D6        1.02838  -0.00000   0.00000  -0.00019  -0.00019   1.02819
    D7        1.05067  -0.00001   0.00000  -0.00020  -0.00020   1.05047
    D8       -3.11964   0.00002   0.00000   0.00033   0.00033  -3.11931
    D9       -1.06285   0.00000   0.00000  -0.00009  -0.00009  -1.06293
         Item               Value     Threshold  Converged?
 Maximum Force            0.000147     0.000450     YES
 RMS     Force            0.000058     0.000300     YES
 Maximum Displacement     0.002270     0.001800     NO 
 RMS     Displacement     0.000851     0.001200     YES
 Predicted change in Energy=-2.624418D-07
 GradGradGradGradGradGradGradGradGradGradGradGradGradGradGradGradGradGrad

 Leave Link  103 at Sat Aug 21 01:34:01 2021, MaxMem= 24159191040 cpu:         4.3
 (Enter /public/home/users/caep010/software/Gaussian09/g09/l9999.exe)
 1\1\GINC-B1816\Freq\RB3LYP\6-31G(d,p)\C3H5N1\ROOT\21-Aug-2021\0\\#P Ge
 om=AllCheck Guess=TCheck SCRF=Check GenChk RB3LYP/6-31G(d,p) Freq\\Fra
 g_221\\0,1\C,-0.9527924244,-0.3918157339,-0.0367659432\C,0.2363036956,
 0.5830756719,0.0221511803\C,1.5310092321,-0.1051958873,0.0390649294\N,
 2.5483966763,-0.6640178675,0.052823702\H,-0.9086318264,-1.0080907805,-
 0.938058076\H,-1.8908599374,0.1694470119,-0.0476522129\H,-0.9575321826
 ,-1.0554903624,0.8313288999\H,0.2213428552,1.2595426641,-0.8399163005\
 H,0.1727639116,1.2125452838,0.9170238209\\Version=ES64L-G09RevE.01\Sta
 te=1-A\HF=-172.0755831\RMSD=4.503e-09\RMSF=5.468e-05\ZeroPoint=0.07449
 69\Thermal=0.0791737\Dipole=-1.3962089,0.6541656,-0.021222\DipoleDeriv
 =0.12213,0.0133105,0.0010585,0.098232,0.0660143,0.0018731,0.0033443,-0
 .0004954,0.09655,0.118479,0.023237,-0.0014142,0.0006559,0.1547175,-0.0
 008924,-0.0017684,-0.0003546,0.1900704,0.1263775,-0.0599963,-0.0001357
 ,-0.0988469,0.0538215,-0.0029028,-0.0013342,-0.0017779,0.0654527,-0.31
 8249,-0.0258262,-0.0005513,0.0109787,-0.2884052,0.0008297,0.0003492,-0
 .0001335,-0.3141177,0.0453378,-0.0089514,0.0251988,-0.0365435,-0.00130
 72,-0.0752277,-0.0061215,-0.0861041,-0.0530828,-0.123863,0.0620513,-0.
 0038598,0.0629908,0.0000996,-0.0002911,-0.0038208,-0.0003225,0.0759548
 ,0.0461301,-0.0125354,-0.0205182,-0.0411352,-0.0099926,0.0754244,0.009
 2857,0.0878378,-0.0452015,-0.0086224,0.0016594,0.0131277,-0.0000076,0.
 0085781,0.063037,0.0045593,0.0846481,-0.0034437,-0.0077198,0.0070511,-
 0.0129058,0.0036757,0.0164739,-0.0618501,-0.0044936,-0.0832981,-0.0121
 821\Polar=43.8738352,-5.7076542,31.138161,0.3143015,-0.0510459,27.0798
 974\PG=C01 [X(C3H5N1)]\NImag=0\\0.50853398,-0.06198988,0.53863080,-0.0
 0375922,-0.00293578,0.58411051,-0.13325191,-0.04983743,-0.00285581,0.4
 6142950,-0.05589878,-0.12334304,-0.00275758,-0.03155550,0.51435982,-0.
 00301873,-0.00259103,-0.07828690,-0.00387606,-0.00235995,0.56997201,-0
 .03975527,0.00934660,-0.00081821,-0.21307979,0.08003172,-0.00159643,1.
 24473595,-0.01361906,0.01703465,0.00011027,0.07960475,-0.11557229,0.00
 107357,-0.61786897,0.44839594,-0.00142924,0.00074580,-0.00109166,-0.00
 167113,0.00111559,-0.07502844,0.01534995,-0.00823903,0.10831058,0.0040
 0596,0.00232594,0.00015870,0.00024910,0.01160396,-0.00025906,-0.979587
 54,0.51530734,-0.01270796,0.97933662,0.00087673,-0.00488231,-0.0001197
 1,0.00965285,0.01201896,0.00008808,0.51718185,-0.31975140,0.00702114,-
 0.52720087,0.30695964,0.00012017,-0.00007982,0.00052613,-0.00024989,0.
 00011063,0.01935722,-0.01272226,0.00700345,-0.03825755,0.01296126,-0.0
 0713781,0.01876947,-0.04915445,0.01007465,0.01317652,-0.00067926,-0.01
 588070,-0.02329035,0.00220758,-0.00092643,-0.00126986,-0.00031274,0.00
 045949,0.00040067,0.05194720,0.00836733,-0.13244840,-0.12413915,0.0004
 0697,-0.01246777,-0.01694652,0.00121989,0.00022477,0.00019455,-0.00048
 713,0.00029171,0.00009610,-0.00544176,0.14194008,0.01124725,-0.1252799
 9,-0.23613388,-0.00040157,0.00099431,0.00109851,0.00015064,-0.00027252
 ,0.00008336,-0.00018594,0.00031594,0.00004271,-0.01280126,0.13696500,0
 .25114034,-0.24340691,0.11989250,-0.00215224,-0.02116475,0.01259984,-0
 .00021645,-0.00372701,-0.00408128,-0.00023564,0.00001868,0.00063246,0.
 00001584,0.00005313,-0.00004752,0.00025415,0.26507465,0.12243321,-0.12
 296655,0.00141010,-0.02106897,0.01076577,-0.00026390,-0.00401898,-0.00
 334234,-0.00022157,-0.00052736,0.00151428,0.00002353,0.01457200,-0.009
 17002,0.00205391,-0.12901208,0.13084952,-0.00208530,0.00134066,-0.0493
 4273,-0.00111828,0.00066446,-0.00105918,-0.00023237,-0.00022231,0.0007
 8358,-0.00001543,0.00005565,0.00007241,0.02427793,-0.01351334,0.001667
 74,0.00257411,-0.00131591,0.04686978,-0.04838660,0.00342370,-0.0028032
 6,-0.00195424,-0.01699553,0.02221716,0.00214252,-0.00101088,0.00133181
 ,-0.00029976,0.00049752,-0.00039418,-0.00087524,-0.00101479,0.00182350
 ,0.00138829,0.01595803,-0.02349231,0.05113536,0.00168292,-0.14609748,0
 .12927321,-0.00052468,-0.01325443,0.01613836,0.00123311,0.00021961,-0.
 00012210,-0.00049057,0.00031295,-0.00010855,-0.00005506,0.01305229,-0.
 01523599,-0.00076114,-0.00977443,0.01291466,0.00188087,0.15690140,-0.0
 0096822,0.13050817,-0.22325378,0.00020696,-0.00270699,0.00316317,0.000
 02911,0.00022422,0.00015537,0.00014131,-0.00027441,0.00000889,-0.00079
 483,0.01697753,-0.01997881,-0.00030763,-0.00178680,0.00093574,0.002054
 29,-0.14214514,0.23698777,0.00008035,-0.01717785,0.02167459,-0.0453253
 6,0.00484676,-0.00366240,-0.00559206,0.02207350,-0.02739135,-0.0018740
 6,-0.00113576,0.00363231,0.00098090,0.00073497,-0.00039669,0.00086262,
 0.00082287,0.00032152,-0.00412174,-0.00367336,-0.00081004,0.05507403,-
 0.00140005,-0.01337664,0.01624762,0.00342792,-0.14291902,0.12679194,0.
 00618950,-0.01393387,0.01282778,-0.00028282,0.00181184,-0.00125875,0.0
 0086330,0.00023733,-0.00004708,0.00038506,0.00106822,-0.00025179,-0.00
 361278,-0.00159036,-0.00086494,-0.00445560,0.15615057,0.00054472,-0.00
 216530,0.00277721,-0.00264275,0.12664625,-0.21341198,-0.00409463,-0.00
 078829,0.00197019,0.00208356,-0.00036167,-0.00014300,0.00027839,-0.000
 07152,0.00072631,0.00048187,0.00012665,0.00005073,-0.00051871,-0.00079
 934,0.00123825,0.00471749,-0.13887004,0.22773402,0.00133484,-0.0160582
 4,-0.02262108,-0.04622329,0.01124823,0.01370233,-0.00734438,0.02052104
 ,0.02802341,-0.00153626,-0.00096426,-0.00376391,-0.00416713,-0.0037379
 6,0.00030992,0.00090130,0.00084129,-0.00022987,0.00097141,0.00070790,0
 .00044906,-0.00008467,-0.00111453,-0.00084993,0.05614818,-0.00045241,-
 0.01255103,-0.01708896,0.00989409,-0.12958799,-0.12193054,0.00668528,-
 0.01327507,-0.01332215,-0.00024849,0.00172433,0.00135123,-0.00366549,-
 0.00165999,0.00050641,0.00039217,0.00105555,0.00032792,0.00087386,0.00
 023045,0.00006836,-0.00203554,0.01255194,0.01628325,-0.01144347,0.1415
 1181,-0.00065143,0.00045730,0.00069509,0.01260854,-0.12170672,-0.22580
 441,0.00393421,0.00111063,0.00307457,-0.00217643,0.00041280,-0.0003762
 8,0.00002279,0.00043736,0.00135371,-0.00041402,-0.00002602,0.00002193,
 -0.00021830,0.00008489,0.00074340,0.00191457,-0.01457473,-0.02094174,-
 0.01501993,0.13380449,0.24123373\\0.00003788,0.00000287,0.00000887,-0.
 00009931,0.00014667,0.00004737,-0.00000988,-0.00005672,-0.00010562,0.0
 0006257,-0.00003830,0.00003843,0.00004160,0.00004319,0.00000909,0.0000
 1122,-0.00001322,-0.00000029,0.00003439,0.00004002,-0.00000533,-0.0000
 1281,-0.00008044,0.00005145,-0.00006566,-0.00004409,-0.00004397\\\@


 ONE BIG VICE IN A MAN IS APT TO KEEP OUT MANY SMALLER ONES.

                           -- BRET HARTE
 Job cpu time:       0 days  0 hours  3 minutes 20.0 seconds.
 File lengths (MBytes):  RWF=     10 Int=      0 D2E=      0 Chk=      2 Scr=      1
 Normal termination of Gaussian 09 at Sat Aug 21 01:34:02 2021.
