 Entering Gaussian System, Link 0=g09
 Input=B3LYP6-31Gdp.Frag_1148.gjf
 Output=B3LYP6-31Gdp.Frag_1148.log
 Initial command:
 /public/home/users/caep010/software/Gaussian09/g09/l1.exe "/public/home/users/caep010/.cache/gau_scr/Gau-183509.inp" -scrdir="/public/home/users/caep010/.cache/gau_scr/"
 Entering Link 1 = /public/home/users/caep010/software/Gaussian09/g09/l1.exe PID=    183510.
  
 Copyright (c) 1988,1990,1992,1993,1995,1998,2003,2009,2015,
            Gaussian, Inc.  All Rights Reserved.
  
 This is part of the Gaussian(R) 09 program.  It is based on
 the Gaussian(R) 03 system (copyright 2003, Gaussian, Inc.),
 the Gaussian(R) 98 system (copyright 1998, Gaussian, Inc.),
 the Gaussian(R) 94 system (copyright 1995, Gaussian, Inc.),
 the Gaussian 92(TM) system (copyright 1992, Gaussian, Inc.),
 the Gaussian 90(TM) system (copyright 1990, Gaussian, Inc.),
 the Gaussian 88(TM) system (copyright 1988, Gaussian, Inc.),
 the Gaussian 86(TM) system (copyright 1986, Carnegie Mellon
 University), and the Gaussian 82(TM) system (copyright 1983,
 Carnegie Mellon University). Gaussian is a federally registered
 trademark of Gaussian, Inc.
  
 This software contains proprietary and confidential information,
 including trade secrets, belonging to Gaussian, Inc.
  
 This software is provided under written license and may be
 used, copied, transmitted, or stored only in accord with that
 written license.
  
 The following legend is applicable only to US Government
 contracts under FAR:
  
                    RESTRICTED RIGHTS LEGEND
  
 Use, reproduction and disclosure by the US Government is
 subject to restrictions as set forth in subparagraphs (a)
 and (c) of the Commercial Computer Software - Restricted
 Rights clause in FAR 52.227-19.
  
 Gaussian, Inc.
 340 Quinnipiac St., Bldg. 40, Wallingford CT 06492
  
  
 ---------------------------------------------------------------
 Warning -- This program may not be used in any manner that
 competes with the business of Gaussian, Inc. or will provide
 assistance to any competitor of Gaussian, Inc.  The licensee
 of this program is prohibited from giving any competitor of
 Gaussian, Inc. access to this program.  By using this program,
 the user acknowledges that Gaussian, Inc. is engaged in the
 business of creating and licensing software in the field of
 computational chemistry and represents and warrants to the
 licensee that it is not a competitor of Gaussian, Inc. and that
 it will not use this program in any manner prohibited above.
 ---------------------------------------------------------------
  

 Cite this work as:
 Gaussian 09, Revision E.01,
 M. J. Frisch, G. W. Trucks, H. B. Schlegel, G. E. Scuseria, 
 M. A. Robb, J. R. Cheeseman, G. Scalmani, V. Barone, B. Mennucci, 
 G. A. Petersson, H. Nakatsuji, M. Caricato, X. Li, H. P. Hratchian, 
 A. F. Izmaylov, J. Bloino, G. Zheng, J. L. Sonnenberg, M. Hada, 
 M. Ehara, K. Toyota, R. Fukuda, J. Hasegawa, M. Ishida, T. Nakajima, 
 Y. Honda, O. Kitao, H. Nakai, T. Vreven, J. A. Montgomery, Jr., 
 J. E. Peralta, F. Ogliaro, M. Bearpark, J. J. Heyd, E. Brothers, 
 K. N. Kudin, V. N. Staroverov, T. Keith, R. Kobayashi, J. Normand, 
 K. Raghavachari, A. Rendell, J. C. Burant, S. S. Iyengar, J. Tomasi, 
 M. Cossi, N. Rega, J. M. Millam, M. Klene, J. E. Knox, J. B. Cross, 
 V. Bakken, C. Adamo, J. Jaramillo, R. Gomperts, R. E. Stratmann, 
 O. Yazyev, A. J. Austin, R. Cammi, C. Pomelli, J. W. Ochterski, 
 R. L. Martin, K. Morokuma, V. G. Zakrzewski, G. A. Voth, 
 P. Salvador, J. J. Dannenberg, S. Dapprich, A. D. Daniels, 
 O. Farkas, J. B. Foresman, J. V. Ortiz, J. Cioslowski, 
 and D. J. Fox, Gaussian, Inc., Wallingford CT, 2013.
 
 ******************************************
 Gaussian 09:  ES64L-G09RevE.01 30-Nov-2015
                 8-Sep-2022 
 ******************************************
 %nproc=32
 Will use up to   32 processors via shared memory.
 %mem=180GB
 %chk=B3LYP6-31Gdp.Frag_1148.chk
 ----------------------------
 #P OPT Freq B3LYP/6-31G(d,p)
 ----------------------------
 1/14=-1,18=20,19=15,26=3,38=1/1,3;
 2/9=110,12=2,17=6,18=5,40=1/2;
 3/5=1,6=6,7=101,11=2,16=1,25=1,30=1,71=1,74=-5/1,2,3;
 4//1;
 5/5=2,38=5/2;
 6/7=2,8=2,9=2,10=2,28=1/1;
 7//1,2,3,16;
 1/14=-1,18=20,19=15,26=3/3(2);
 2/9=110/2;
 99//99;
 2/9=110/2;
 3/5=1,6=6,7=101,11=2,16=1,25=1,30=1,71=1,74=-5/1,2,3;
 4/5=5,16=3,69=1/1;
 5/5=2,38=5/2;
 7//1,2,3,16;
 1/14=-1,18=20,19=15,26=3/3(-5);
 2/9=110/2;
 6/7=2,8=2,9=2,10=2,19=2,28=1/1;
 99/9=1/99;
 Leave Link    1 at Thu Sep  8 14:47:39 2022, MaxMem= 24159191040 cpu:         2.3
 (Enter /public/home/users/caep010/software/Gaussian09/g09/l101.exe)
 ---------
 Frag_1148
 ---------
 Symbolic Z-matrix:
 Charge =  0 Multiplicity = 1
 N                     2.55288  -0.60129  -0.65215 
 C                     1.5052   -0.4288   -0.19869 
 C                     0.15491  -0.19263   0.35424 
 N                    -0.03454   1.25213   0.47077 
 N                    -0.79176  -0.99434  -0.41897 
 H                     0.14746  -0.59427   1.37468 
 H                    -0.04758   1.68482  -0.44849 
 H                    -0.92695   1.44587   0.91468 
 H                    -1.72065  -0.90883  -0.01792 
 H                    -0.83886  -0.66276  -1.37826 
 
 NAtoms=     10 NQM=       10 NQMF=       0 NMMI=      0 NMMIF=      0
                NMic=       0 NMicF=      0.
                    Isotopes and Nuclear Properties:
 (Nuclear quadrupole moments (NQMom) in fm**2, nuclear magnetic moments (NMagM)
  in nuclear magnetons)

  Atom         1           2           3           4           5           6           7           8           9          10
 IAtWgt=          14          12          12          14          14           1           1           1           1           1
 AtmWgt=  14.0030740  12.0000000  12.0000000  14.0030740  14.0030740   1.0078250   1.0078250   1.0078250   1.0078250   1.0078250
 NucSpn=           2           0           0           2           2           1           1           1           1           1
 AtZEff=   0.0000000   0.0000000   0.0000000   0.0000000   0.0000000   0.0000000   0.0000000   0.0000000   0.0000000   0.0000000
 NQMom=    2.0440000   0.0000000   0.0000000   2.0440000   2.0440000   0.0000000   0.0000000   0.0000000   0.0000000   0.0000000
 NMagM=    0.4037610   0.0000000   0.0000000   0.4037610   0.4037610   2.7928460   2.7928460   2.7928460   2.7928460   2.7928460
 AtZNuc=   7.0000000   6.0000000   6.0000000   7.0000000   7.0000000   1.0000000   1.0000000   1.0000000   1.0000000   1.0000000
 Leave Link  101 at Thu Sep  8 14:47:39 2022, MaxMem= 24159191040 cpu:        10.2
 (Enter /public/home/users/caep010/software/Gaussian09/g09/l103.exe)

 GradGradGradGradGradGradGradGradGradGradGradGradGradGradGradGradGradGrad
 Berny optimization.
 Initialization pass.
                           ----------------------------
                           !    Initial Parameters    !
                           ! (Angstroms and Degrees)  !
 --------------------------                            --------------------------
 ! Name  Definition              Value          Derivative Info.                !
 --------------------------------------------------------------------------------
 ! R1    R(1,2)                  1.1546         estimate D2E/DX2                !
 ! R2    R(2,3)                  1.4781         estimate D2E/DX2                !
 ! R3    R(3,4)                  1.4618         estimate D2E/DX2                !
 ! R4    R(3,5)                  1.4618         estimate D2E/DX2                !
 ! R5    R(3,6)                  1.0967         estimate D2E/DX2                !
 ! R6    R(4,7)                  1.0161         estimate D2E/DX2                !
 ! R7    R(4,8)                  1.0154         estimate D2E/DX2                !
 ! R8    R(5,9)                  1.0154         estimate D2E/DX2                !
 ! R9    R(5,10)                 1.0161         estimate D2E/DX2                !
 ! A1    A(2,3,4)              107.8266         estimate D2E/DX2                !
 ! A2    A(2,3,5)              107.8249         estimate D2E/DX2                !
 ! A3    A(2,3,6)              107.2033         estimate D2E/DX2                !
 ! A4    A(4,3,5)              120.0197         estimate D2E/DX2                !
 ! A5    A(4,3,6)              106.6739         estimate D2E/DX2                !
 ! A6    A(5,3,6)              106.6741         estimate D2E/DX2                !
 ! A7    A(3,4,7)              110.5136         estimate D2E/DX2                !
 ! A8    A(3,4,8)              109.7147         estimate D2E/DX2                !
 ! A9    A(7,4,8)              107.638          estimate D2E/DX2                !
 ! A10   A(3,5,9)              109.715          estimate D2E/DX2                !
 ! A11   A(3,5,10)             110.5138         estimate D2E/DX2                !
 ! A12   A(9,5,10)             107.6388         estimate D2E/DX2                !
 ! A13   L(1,2,3,10,-1)        179.0555         estimate D2E/DX2                !
 ! A14   L(1,2,3,10,-2)        181.0938         estimate D2E/DX2                !
 ! D1    D(2,3,4,7)             65.768          estimate D2E/DX2                !
 ! D2    D(2,3,4,8)           -175.6943         estimate D2E/DX2                !
 ! D3    D(5,3,4,7)            -58.0927         estimate D2E/DX2                !
 ! D4    D(5,3,4,8)             60.445          estimate D2E/DX2                !
 ! D5    D(6,3,4,7)           -179.3573         estimate D2E/DX2                !
 ! D6    D(6,3,4,8)            -60.8196         estimate D2E/DX2                !
 ! D7    D(2,3,5,9)            175.6933         estimate D2E/DX2                !
 ! D8    D(2,3,5,10)           -65.7677         estimate D2E/DX2                !
 ! D9    D(4,3,5,9)            -60.4451         estimate D2E/DX2                !
 ! D10   D(4,3,5,10)            58.0938         estimate D2E/DX2                !
 ! D11   D(6,3,5,9)             60.8194         estimate D2E/DX2                !
 ! D12   D(6,3,5,10)           179.3583         estimate D2E/DX2                !
 --------------------------------------------------------------------------------
 Trust Radius=3.00D-01 FncErr=1.00D-07 GrdErr=1.00D-06
 Number of steps in this run=     45 maximum allowed number of steps=    100.
 GradGradGradGradGradGradGradGradGradGradGradGradGradGradGradGradGradGrad

 Leave Link  103 at Thu Sep  8 14:47:39 2022, MaxMem= 24159191040 cpu:         0.7
 (Enter /public/home/users/caep010/software/Gaussian09/g09/l202.exe)
                          Input orientation:                          
 ---------------------------------------------------------------------
 Center     Atomic      Atomic             Coordinates (Angstroms)
 Number     Number       Type             X           Y           Z
 ---------------------------------------------------------------------
      1          7           0        2.552875   -0.601293   -0.652154
      2          6           0        1.505195   -0.428800   -0.198687
      3          6           0        0.154908   -0.192625    0.354244
      4          7           0       -0.034544    1.252131    0.470765
      5          7           0       -0.791760   -0.994340   -0.418967
      6          1           0        0.147464   -0.594267    1.374684
      7          1           0       -0.047582    1.684817   -0.448486
      8          1           0       -0.926950    1.445865    0.914678
      9          1           0       -1.720645   -0.908832   -0.017917
     10          1           0       -0.838861   -0.662756   -1.378261
 ---------------------------------------------------------------------
                    Distance matrix (angstroms):
                    1          2          3          4          5
     1  N    0.000000
     2  C    1.154565   0.000000
     3  C    2.632507   1.478102   0.000000
     4  N    3.375036   2.375814   1.461776   0.000000
     5  N    3.375714   2.375786   1.461774   2.532120   0.000000
     6  H    3.145493   2.084780   1.096663   2.063827   2.063828
     7  H    3.468452   2.634557   2.051869   1.016076   2.780747
     8  H    4.330704   3.266386   2.041850   1.015372   2.784149
     9  H    4.331260   3.266367   2.041851   2.784153   1.015372
    10  H    3.469133   2.634526   2.051871   2.780758   1.016076
                    6          7          8          9         10
     6  H    0.000000
     7  H    2.925101   0.000000
     8  H    2.351193   1.639696   0.000000
     9  H    2.351195   3.116335   2.654107   0.000000
    10  H    2.925104   2.646073   3.116346   1.639705   0.000000
 Stoichiometry    C2H5N3
 Framework group  C1[X(C2H5N3)]
 Deg. of freedom    24
 Full point group                 C1      NOp   1
 Largest Abelian subgroup         C1      NOp   1
 Largest concise Abelian subgroup C1      NOp   1
                         Standard orientation:                         
 ---------------------------------------------------------------------
 Center     Atomic      Atomic             Coordinates (Angstroms)
 Number     Number       Type             X           Y           Z
 ---------------------------------------------------------------------
      1          7           0        2.187671   -0.000153   -0.124816
      2          6           0        1.057182   -0.000626    0.109736
      3          6           0       -0.396409   -0.000013    0.377800
      4          7           0       -0.940706    1.266289   -0.109036
      5          7           0       -0.941748   -1.265831   -0.109122
      6          1           0       -0.525394    0.000005    1.466851
      7          1           0       -0.859912    1.323261   -1.120291
      8          1           0       -1.926886    1.327678    0.124759
      9          1           0       -1.927978   -1.326429    0.124669
     10          1           0       -0.860986   -1.322812   -1.120380
 ---------------------------------------------------------------------
 Rotational constants (GHZ):      8.5513707      4.1086745      3.0110368
 Leave Link  202 at Thu Sep  8 14:47:40 2022, MaxMem= 24159191040 cpu:         0.6
 (Enter /public/home/users/caep010/software/Gaussian09/g09/l301.exe)
 Standard basis: 6-31G(d,p) (6D, 7F)
 Ernie: Thresh=  0.10000D-02 Tol=  0.10000D-05 Strict=F.
 There are   100 symmetry adapted cartesian basis functions of A   symmetry.
 There are   100 symmetry adapted basis functions of A   symmetry.
   100 basis functions,   175 primitive gaussians,   100 cartesian basis functions
    19 alpha electrons       19 beta electrons
       nuclear repulsion energy       161.0043591963 Hartrees.
 IExCor=  402 DFT=T Ex+Corr=B3LYP ExCW=0 ScaHFX=  0.200000
 ScaDFX=  0.800000  0.720000  1.000000  0.810000 ScalE2=  1.000000  1.000000
 IRadAn=      0 IRanWt=     -1 IRanGd=            0 ICorTp=0 IEmpDi=  4
 NAtoms=   10 NActive=   10 NUniq=   10 SFac= 1.00D+00 NAtFMM=   60 NAOKFM=F Big=F
 Integral buffers will be    131072 words long.
 Raffenetti 2 integral format.
 Two-electron integral symmetry is turned on.
 Leave Link  301 at Thu Sep  8 14:47:40 2022, MaxMem= 24159191040 cpu:         2.2
 (Enter /public/home/users/caep010/software/Gaussian09/g09/l302.exe)
 NPDir=0 NMtPBC=     1 NCelOv=     1 NCel=       1 NClECP=     1 NCelD=      1
         NCelK=      1 NCelE2=     1 NClLst=     1 CellRange=     0.0.
 One-electron integrals computed using PRISM.
 NBasis=   100 RedAO= T EigKep=  1.23D-03  NBF=   100
 NBsUse=   100 1.00D-06 EigRej= -1.00D+00 NBFU=   100
 Precomputing XC quadrature grid using
 IXCGrd= 4 IRadAn=           0 IRanWt=          -1 IRanGd=           0 AccXCQ= 0.00D+00.
 Generated NRdTot=       0 NPtTot=           0 NUsed=           0 NTot=          32
 NSgBfM=   100   100   100   100   100 MxSgAt=    10 MxSgA2=    10.
 Leave Link  302 at Thu Sep  8 14:47:40 2022, MaxMem= 24159191040 cpu:        11.5
 (Enter /public/home/users/caep010/software/Gaussian09/g09/l303.exe)
 DipDrv:  MaxL=1.
 Leave Link  303 at Thu Sep  8 14:47:40 2022, MaxMem= 24159191040 cpu:         1.3
 (Enter /public/home/users/caep010/software/Gaussian09/g09/l401.exe)
 ExpMin= 1.61D-01 ExpMax= 4.17D+03 ExpMxC= 6.27D+02 IAcc=1 IRadAn=         1 AccDes= 0.00D+00
 Harris functional with IExCor=  402 and IRadAn=       1 diagonalized for initial guess.
 HarFok:  IExCor=  402 AccDes= 0.00D+00 IRadAn=         1 IDoV= 1 UseB2=F ITyADJ=14
 ICtDFT=  3500011 ScaDFX=  1.000000  1.000000  1.000000  1.000000
 FoFCou: FMM=F IPFlag=           0 FMFlag=      100000 FMFlg1=           0
         NFxFlg=           0 DoJE=T BraDBF=F KetDBF=T FulRan=T
         wScrn=  0.000000 ICntrl=     500 IOpCl=  0 I1Cent=   200000004 NGrid=           0
         NMat0=    1 NMatS0=      1 NMatT0=    0 NMatD0=    1 NMtDS0=    0 NMtDT0=    0
 Petite list used in FoFCou.
 Harris En= -243.454839841171    
 JPrj=0 DoOrth=F DoCkMO=F.
 Leave Link  401 at Thu Sep  8 14:47:41 2022, MaxMem= 24159191040 cpu:        13.2
 (Enter /public/home/users/caep010/software/Gaussian09/g09/l502.exe)
 Closed shell SCF:
 Using DIIS extrapolation, IDIIS=  1040.
 Integral symmetry usage will be decided dynamically.
 Keep R1 ints in memory in canonical form, NReq=13729312.
 IVT=       52505 IEndB=       52505 NGot= 24159191040 MDV= 24146384761
 LenX= 24146384761 LenY= 24146374320
 Requested convergence on RMS density matrix=1.00D-08 within 128 cycles.
 Requested convergence on MAX density matrix=1.00D-06.
 Requested convergence on             energy=1.00D-06.
 No special actions if energy rises.
 FoFCou: FMM=F IPFlag=           0 FMFlag=           0 FMFlg1=           0
         NFxFlg=           0 DoJE=F BraDBF=F KetDBF=F FulRan=T
         wScrn=  0.000000 ICntrl=     600 IOpCl=  0 I1Cent=           0 NGrid=           0
         NMat0=    1 NMatS0=   5050 NMatT0=    0 NMatD0=    1 NMtDS0=    0 NMtDT0=    0
 Symmetry not used in FoFCou.
 Integral accuracy reduced to 1.0D-05 until final iterations.

 Cycle   1  Pass 0  IDiag  1:
 E= -243.305725786235    
 DIIS: error= 2.97D-02 at cycle   1 NSaved=   1.
 NSaved= 1 IEnMin= 1 EnMin= -243.305725786235     IErMin= 1 ErrMin= 2.97D-02
 ErrMax= 2.97D-02  0.00D+00 EMaxC= 1.00D-01 BMatC= 1.66D-01 BMatP= 1.66D-01
 IDIUse=3 WtCom= 7.03D-01 WtEn= 2.97D-01
 Coeff-Com:  0.100D+01
 Coeff-En:   0.100D+01
 Coeff:      0.100D+01
 Gap=     0.224 Goal=   None    Shift=    0.000
 GapD=    0.224 DampG=1.000 DampE=0.500 DampFc=0.5000 IDamp=-1.
 Damping current iteration by 5.00D-01
 RMSDP=8.92D-03 MaxDP=2.00D-01              OVMax= 2.11D-01

 Cycle   2  Pass 0  IDiag  1:
 E= -243.351868678288     Delta-E=       -0.046142892053 Rises=F Damp=T
 DIIS: error= 1.15D-02 at cycle   2 NSaved=   2.
 NSaved= 2 IEnMin= 2 EnMin= -243.351868678288     IErMin= 2 ErrMin= 1.15D-02
 ErrMax= 1.15D-02  0.00D+00 EMaxC= 1.00D-01 BMatC= 2.13D-02 BMatP= 1.66D-01
 IDIUse=3 WtCom= 8.85D-01 WtEn= 1.15D-01
 Coeff-Com:  0.192D+00 0.808D+00
 Coeff-En:   0.306D+00 0.694D+00
 Coeff:      0.205D+00 0.795D+00
 Gap=     0.259 Goal=   None    Shift=    0.000
 RMSDP=2.40D-03 MaxDP=5.56D-02 DE=-4.61D-02 OVMax= 1.83D-01

 Cycle   3  Pass 0  IDiag  1:
 E= -243.425496747753     Delta-E=       -0.073628069465 Rises=F Damp=F
 DIIS: error= 1.57D-02 at cycle   3 NSaved=   3.
 NSaved= 3 IEnMin= 3 EnMin= -243.425496747753     IErMin= 2 ErrMin= 1.15D-02
 ErrMax= 1.57D-02  0.00D+00 EMaxC= 1.00D-01 BMatC= 2.72D-02 BMatP= 2.13D-02
 IDIUse=2 WtCom= 0.00D+00 WtEn= 1.00D+00
 Coeff-En:   0.000D+00 0.000D+00 0.100D+01
 Coeff:      0.000D+00 0.000D+00 0.100D+01
 Gap=     0.290 Goal=   None    Shift=    0.000
 RMSDP=4.54D-03 MaxDP=1.07D-01 DE=-7.36D-02 OVMax= 1.86D-01

 Cycle   4  Pass 0  IDiag  1:
 E= -243.296891470055     Delta-E=        0.128605277697 Rises=F Damp=F
 DIIS: error= 4.15D-02 at cycle   4 NSaved=   4.
 NSaved= 4 IEnMin= 3 EnMin= -243.425496747753     IErMin= 2 ErrMin= 1.15D-02
 ErrMax= 4.15D-02  0.00D+00 EMaxC= 1.00D-01 BMatC= 1.72D-01 BMatP= 2.13D-02
 IDIUse=2 WtCom= 0.00D+00 WtEn= 1.00D+00
 Coeff-En:   0.000D+00 0.000D+00 0.802D+00 0.198D+00
 Coeff:      0.000D+00 0.000D+00 0.802D+00 0.198D+00
 Gap=     0.276 Goal=   None    Shift=    0.000
 RMSDP=2.45D-03 MaxDP=5.60D-02 DE= 1.29D-01 OVMax= 9.89D-02

 Cycle   5  Pass 0  IDiag  1:
 E= -243.437011907441     Delta-E=       -0.140120437386 Rises=F Damp=F
 DIIS: error= 1.17D-02 at cycle   5 NSaved=   5.
 NSaved= 5 IEnMin= 5 EnMin= -243.437011907441     IErMin= 2 ErrMin= 1.15D-02
 ErrMax= 1.17D-02  0.00D+00 EMaxC= 1.00D-01 BMatC= 1.47D-02 BMatP= 2.13D-02
 IDIUse=3 WtCom= 8.83D-01 WtEn= 1.17D-01
 Coeff-Com: -0.482D-02 0.296D-01 0.299D+00-0.125D+00 0.800D+00
 Coeff-En:   0.000D+00 0.000D+00 0.387D+00 0.000D+00 0.613D+00
 Coeff:     -0.426D-02 0.262D-01 0.310D+00-0.110D+00 0.779D+00
 Gap=     0.268 Goal=   None    Shift=    0.000
 RMSDP=9.50D-04 MaxDP=2.17D-02 DE=-1.40D-01 OVMax= 3.93D-02

 Cycle   6  Pass 0  IDiag  1:
 E= -243.449862062423     Delta-E=       -0.012850154982 Rises=F Damp=F
 DIIS: error= 2.18D-04 at cycle   6 NSaved=   6.
 NSaved= 6 IEnMin= 6 EnMin= -243.449862062423     IErMin= 6 ErrMin= 2.18D-04
 ErrMax= 2.18D-04  0.00D+00 EMaxC= 1.00D-01 BMatC= 4.95D-06 BMatP= 1.47D-02
 IDIUse=3 WtCom= 9.98D-01 WtEn= 2.18D-03
 Coeff-Com: -0.140D-02 0.138D-02 0.965D-01-0.306D-01 0.240D+00 0.694D+00
 Coeff-En:   0.000D+00 0.000D+00 0.000D+00 0.000D+00 0.000D+00 0.100D+01
 Coeff:     -0.140D-02 0.138D-02 0.963D-01-0.305D-01 0.240D+00 0.695D+00
 Gap=     0.269 Goal=   None    Shift=    0.000
 RMSDP=3.17D-05 MaxDP=9.40D-04 DE=-1.29D-02 OVMax= 7.85D-04

 Cycle   7  Pass 0  IDiag  1:
 E= -243.449865930235     Delta-E=       -0.000003867812 Rises=F Damp=F
 DIIS: error= 6.60D-05 at cycle   7 NSaved=   7.
 NSaved= 7 IEnMin= 7 EnMin= -243.449865930235     IErMin= 7 ErrMin= 6.60D-05
 ErrMax= 6.60D-05  0.00D+00 EMaxC= 1.00D-01 BMatC= 5.21D-07 BMatP= 4.95D-06
 IDIUse=1 WtCom= 1.00D+00 WtEn= 0.00D+00
 Coeff-Com: -0.200D-03-0.526D-04 0.198D-01-0.740D-02 0.507D-01 0.228D+00
 Coeff-Com:  0.709D+00
 Coeff:     -0.200D-03-0.526D-04 0.198D-01-0.740D-02 0.507D-01 0.228D+00
 Coeff:      0.709D+00
 Gap=     0.269 Goal=   None    Shift=    0.000
 RMSDP=7.20D-06 MaxDP=2.00D-04 DE=-3.87D-06 OVMax= 2.10D-04

 Initial convergence to 1.0D-05 achieved.  Increase integral accuracy.
 Cycle   8  Pass 1  IDiag  1:
 E= -243.449855326917     Delta-E=        0.000010603318 Rises=F Damp=F
 DIIS: error= 1.22D-05 at cycle   1 NSaved=   1.
 NSaved= 1 IEnMin= 1 EnMin= -243.449855326917     IErMin= 1 ErrMin= 1.22D-05
 ErrMax= 1.22D-05  0.00D+00 EMaxC= 1.00D-01 BMatC= 2.48D-08 BMatP= 2.48D-08
 IDIUse=1 WtCom= 1.00D+00 WtEn= 0.00D+00
 Coeff-Com:  0.100D+01
 Coeff:      0.100D+01
 Gap=     0.269 Goal=   None    Shift=    0.000
 RMSDP=7.20D-06 MaxDP=2.00D-04 DE= 1.06D-05 OVMax= 1.41D-04

 Cycle   9  Pass 1  IDiag  1:
 E= -243.449855271580     Delta-E=        0.000000055337 Rises=F Damp=F
 DIIS: error= 2.83D-05 at cycle   2 NSaved=   2.
 NSaved= 2 IEnMin= 1 EnMin= -243.449855326917     IErMin= 1 ErrMin= 1.22D-05
 ErrMax= 2.83D-05  0.00D+00 EMaxC= 1.00D-01 BMatC= 9.28D-08 BMatP= 2.48D-08
 IDIUse=1 WtCom= 1.00D+00 WtEn= 0.00D+00
 Coeff-Com:  0.676D+00 0.324D+00
 Coeff:      0.676D+00 0.324D+00
 Gap=     0.269 Goal=   None    Shift=    0.000
 RMSDP=2.72D-06 MaxDP=6.40D-05 DE= 5.53D-08 OVMax= 1.14D-04

 Cycle  10  Pass 1  IDiag  1:
 E= -243.449855348951     Delta-E=       -0.000000077370 Rises=F Damp=F
 DIIS: error= 5.16D-06 at cycle   3 NSaved=   3.
 NSaved= 3 IEnMin= 3 EnMin= -243.449855348951     IErMin= 3 ErrMin= 5.16D-06
 ErrMax= 5.16D-06  0.00D+00 EMaxC= 1.00D-01 BMatC= 3.07D-09 BMatP= 2.48D-08
 IDIUse=1 WtCom= 1.00D+00 WtEn= 0.00D+00
 Coeff-Com:  0.128D+00 0.165D+00 0.707D+00
 Coeff:      0.128D+00 0.165D+00 0.707D+00
 Gap=     0.269 Goal=   None    Shift=    0.000
 RMSDP=6.68D-07 MaxDP=1.63D-05 DE=-7.74D-08 OVMax= 2.10D-05

 Cycle  11  Pass 1  IDiag  1:
 E= -243.449855351389     Delta-E=       -0.000000002438 Rises=F Damp=F
 DIIS: error= 1.54D-06 at cycle   4 NSaved=   4.
 NSaved= 4 IEnMin= 4 EnMin= -243.449855351389     IErMin= 4 ErrMin= 1.54D-06
 ErrMax= 1.54D-06  0.00D+00 EMaxC= 1.00D-01 BMatC= 3.02D-10 BMatP= 3.07D-09
 IDIUse=1 WtCom= 1.00D+00 WtEn= 0.00D+00
 Coeff-Com: -0.581D-02 0.479D-01 0.344D+00 0.614D+00
 Coeff:     -0.581D-02 0.479D-01 0.344D+00 0.614D+00
 Gap=     0.269 Goal=   None    Shift=    0.000
 RMSDP=1.98D-07 MaxDP=4.52D-06 DE=-2.44D-09 OVMax= 3.57D-06

 Cycle  12  Pass 1  IDiag  1:
 E= -243.449855351651     Delta-E=       -0.000000000262 Rises=F Damp=F
 DIIS: error= 2.82D-07 at cycle   5 NSaved=   5.
 NSaved= 5 IEnMin= 5 EnMin= -243.449855351651     IErMin= 5 ErrMin= 2.82D-07
 ErrMax= 2.82D-07  0.00D+00 EMaxC= 1.00D-01 BMatC= 1.52D-11 BMatP= 3.02D-10
 IDIUse=1 WtCom= 1.00D+00 WtEn= 0.00D+00
 Coeff-Com: -0.728D-02 0.175D-01 0.145D+00 0.305D+00 0.540D+00
 Coeff:     -0.728D-02 0.175D-01 0.145D+00 0.305D+00 0.540D+00
 Gap=     0.269 Goal=   None    Shift=    0.000
 RMSDP=3.61D-08 MaxDP=6.42D-07 DE=-2.62D-10 OVMax= 7.61D-07

 Cycle  13  Pass 1  IDiag  1:
 E= -243.449855351667     Delta-E=       -0.000000000016 Rises=F Damp=F
 DIIS: error= 3.89D-08 at cycle   6 NSaved=   6.
 NSaved= 6 IEnMin= 6 EnMin= -243.449855351667     IErMin= 6 ErrMin= 3.89D-08
 ErrMax= 3.89D-08  0.00D+00 EMaxC= 1.00D-01 BMatC= 2.43D-13 BMatP= 1.52D-11
 IDIUse=1 WtCom= 1.00D+00 WtEn= 0.00D+00
 Coeff-Com: -0.200D-02 0.295D-02 0.294D-01 0.672D-01 0.174D+00 0.728D+00
 Coeff:     -0.200D-02 0.295D-02 0.294D-01 0.672D-01 0.174D+00 0.728D+00
 Gap=     0.269 Goal=   None    Shift=    0.000
 RMSDP=6.29D-09 MaxDP=7.34D-08 DE=-1.57D-11 OVMax= 1.19D-07

 SCF Done:  E(RB3LYP) =  -243.449855352     A.U. after   13 cycles
            NFock= 13  Conv=0.63D-08     -V/T= 2.0091
 KE= 2.412484224668D+02 PE=-8.887037844847D+02 EE= 2.430011474699D+02
 Leave Link  502 at Thu Sep  8 14:47:42 2022, MaxMem= 24159191040 cpu:        26.4
 (Enter /public/home/users/caep010/software/Gaussian09/g09/l601.exe)
 Copying SCF densities to generalized density rwf, IOpCl= 0 IROHF=0.

 **********************************************************************

            Population analysis using the SCF density.

 **********************************************************************

 Orbital symmetries:
       Occupied  (A) (A) (A) (A) (A) (A) (A) (A) (A) (A) (A) (A)
                 (A) (A) (A) (A) (A) (A) (A)
       Virtual   (A) (A) (A) (A) (A) (A) (A) (A) (A) (A) (A) (A)
                 (A) (A) (A) (A) (A) (A) (A) (A) (A) (A) (A) (A)
                 (A) (A) (A) (A) (A) (A) (A) (A) (A) (A) (A) (A)
                 (A) (A) (A) (A) (A) (A) (A) (A) (A) (A) (A) (A)
                 (A) (A) (A) (A) (A) (A) (A) (A) (A) (A) (A) (A)
                 (A) (A) (A) (A) (A) (A) (A) (A) (A) (A) (A) (A)
                 (A) (A) (A) (A) (A) (A) (A) (A) (A)
 The electronic state is 1-A.
 Alpha  occ. eigenvalues --  -14.34391 -14.34391 -14.33361 -10.29466 -10.22461
 Alpha  occ. eigenvalues --   -0.95424  -0.89753  -0.86718  -0.70860  -0.57078
 Alpha  occ. eigenvalues --   -0.50339  -0.48770  -0.47809  -0.42219  -0.35740
 Alpha  occ. eigenvalues --   -0.33296  -0.33238  -0.30741  -0.25174
 Alpha virt. eigenvalues --    0.01684   0.03536   0.07791   0.10197   0.11727
 Alpha virt. eigenvalues --    0.13347   0.16346   0.18499   0.23182   0.27639
 Alpha virt. eigenvalues --    0.34227   0.54323   0.55387   0.56198   0.58963
 Alpha virt. eigenvalues --    0.64402   0.67177   0.68169   0.68723   0.71954
 Alpha virt. eigenvalues --    0.74969   0.76661   0.78061   0.83169   0.83942
 Alpha virt. eigenvalues --    0.86349   0.87692   0.89502   0.93562   0.94189
 Alpha virt. eigenvalues --    0.97216   1.00474   1.24732   1.28836   1.28841
 Alpha virt. eigenvalues --    1.31670   1.48165   1.53004   1.53296   1.56573
 Alpha virt. eigenvalues --    1.59559   1.64097   1.73057   1.85943   1.89161
 Alpha virt. eigenvalues --    1.91546   1.92295   1.94898   1.97029   2.04131
 Alpha virt. eigenvalues --    2.04249   2.08397   2.19234   2.22313   2.25633
 Alpha virt. eigenvalues --    2.32501   2.33377   2.34590   2.44335   2.48095
 Alpha virt. eigenvalues --    2.52262   2.62069   2.62733   2.69994   2.73556
 Alpha virt. eigenvalues --    2.81875   2.90036   2.95352   2.98134   3.01586
 Alpha virt. eigenvalues --    3.19421   3.27244   3.28584   3.31133   3.49193
 Alpha virt. eigenvalues --    3.50922   3.84814   4.06034   4.06596   4.26543
 Alpha virt. eigenvalues --    4.74683
          Condensed to atoms (all electrons):
               1          2          3          4          5          6
     1  N    6.680981   0.870176  -0.082710  -0.003270  -0.003254  -0.000021
     2  C    0.870176   4.657314   0.265102  -0.067811  -0.067792  -0.036241
     3  C   -0.082710   0.265102   4.827423   0.326696   0.326626   0.399812
     4  N   -0.003270  -0.067811   0.326696   6.789966  -0.092656  -0.052045
     5  N   -0.003254  -0.067792   0.326626  -0.092656   6.790044  -0.052044
     6  H   -0.000021  -0.036241   0.399812  -0.052045  -0.052044   0.574160
     7  H    0.000651  -0.006568  -0.029460   0.327921  -0.001038   0.006821
     8  H    0.000004   0.007970  -0.035701   0.332700   0.000946  -0.004519
     9  H    0.000003   0.007964  -0.035693   0.000946   0.332699  -0.004520
    10  H    0.000650  -0.006571  -0.029456  -0.001037   0.327919   0.006821
               7          8          9         10
     1  N    0.000651   0.000004   0.000003   0.000650
     2  C   -0.006568   0.007970   0.007964  -0.006571
     3  C   -0.029460  -0.035701  -0.035693  -0.029456
     4  N    0.327921   0.332700   0.000946  -0.001037
     5  N   -0.001038   0.000946   0.332699   0.327919
     6  H    0.006821  -0.004519  -0.004520   0.006821
     7  H    0.479868  -0.029388   0.000173   0.005095
     8  H   -0.029388   0.479789   0.003710   0.000173
     9  H    0.000173   0.003710   0.479797  -0.029389
    10  H    0.005095   0.000173  -0.029389   0.479868
 Mulliken charges:
               1
     1  N   -0.463209
     2  C    0.376456
     3  C    0.067361
     4  N   -0.561411
     5  N   -0.561450
     6  H    0.161774
     7  H    0.245926
     8  H    0.244315
     9  H    0.244311
    10  H    0.245926
 Sum of Mulliken charges =  -0.00000
 Mulliken charges with hydrogens summed into heavy atoms:
               1
     1  N   -0.463209
     2  C    0.376456
     3  C    0.229135
     4  N   -0.071170
     5  N   -0.071213
 Electronic spatial extent (au):  <R**2>=            418.7314
 Charge=             -0.0000 electrons
 Dipole moment (field-independent basis, Debye):
    X=             -5.2175    Y=              0.0009    Z=             -0.7009  Tot=              5.2643
 Quadrupole moment (field-independent basis, Debye-Ang):
   XX=            -32.0130   YY=            -33.9850   ZZ=            -26.0133
   XY=             -0.0037   XZ=              1.2549   YZ=             -0.0004
 Traceless Quadrupole moment (field-independent basis, Debye-Ang):
   XX=             -1.3426   YY=             -3.3146   ZZ=              4.6571
   XY=             -0.0037   XZ=              1.2549   YZ=             -0.0004
 Octapole moment (field-independent basis, Debye-Ang**2):
  XXX=            -39.6365  YYY=              0.0075  ZZZ=             -2.8147  XYY=             -3.7461
  XXY=              0.0051  XXZ=              2.0672  XZZ=             -4.5603  YZZ=              0.0010
  YYZ=             -5.1957  XYZ=             -0.0024
 Hexadecapole moment (field-independent basis, Debye-Ang**3):
 XXXX=           -345.7536 YYYY=           -185.0758 ZZZZ=            -43.0268 XXXY=              0.0053
 XXXZ=              2.7432 YYYX=             -0.0221 YYYZ=             -0.0032 ZZZX=              2.8439
 ZZZY=             -0.0004 XXYY=            -69.9001 XXZZ=            -60.3675 YYZZ=            -30.8158
 XXYZ=              0.0038 YYXZ=              3.6737 ZZXY=              0.0018
 N-N= 1.610043591963D+02 E-N=-8.887037909196D+02  KE= 2.412484224668D+02
 No NMR shielding tensors so no spin-rotation constants.
 Leave Link  601 at Thu Sep  8 14:47:42 2022, MaxMem= 24159191040 cpu:        10.7
 (Enter /public/home/users/caep010/software/Gaussian09/g09/l701.exe)
 Compute integral first derivatives.
 ... and contract with generalized density number  0.
 Leave Link  701 at Thu Sep  8 14:47:43 2022, MaxMem= 24159191040 cpu:        11.6
 (Enter /public/home/users/caep010/software/Gaussian09/g09/l702.exe)
 L702 exits ... SP integral derivatives will be done elsewhere.
 Leave Link  702 at Thu Sep  8 14:47:43 2022, MaxMem= 24159191040 cpu:         0.5
 (Enter /public/home/users/caep010/software/Gaussian09/g09/l703.exe)
 Compute integral first derivatives, UseDBF=F ICtDFT=           0.
 Integral derivatives from FoFJK, PRISM(SPDF).
 Calling FoFJK, ICntrl=      2127 FMM=F ISym2X=0 I1Cent= 0 IOpClX= 0 NMat=1 NMatS=1 NMatT=0.
 FoFJK:  IHMeth= 1 ICntrl=    2127 DoSepK=F KAlg= 0 I1Cent=   0 FoldK=F
 IRaf=         0 NMat=   1 IRICut=       1 DoRegI=T DoRafI=F ISym2E= 0.
 FoFCou: FMM=F IPFlag=           0 FMFlag=      100000 FMFlg1=         800
         NFxFlg=           0 DoJE=F BraDBF=F KetDBF=F FulRan=T
         wScrn=  0.000000 ICntrl=    2127 IOpCl=  0 I1Cent=           0 NGrid=           0
         NMat0=    1 NMatS0=      1 NMatT0=    0 NMatD0=    1 NMtDS0=    0 NMtDT0=    0
 Symmetry not used in FoFCou.
 Leave Link  703 at Thu Sep  8 14:47:43 2022, MaxMem= 24159191040 cpu:        11.0
 (Enter /public/home/users/caep010/software/Gaussian09/g09/l716.exe)
 Dipole        =-2.05271077D+00 3.54756428D-04-2.75746068D-01
 ***** Axes restored to original set *****
 -------------------------------------------------------------------
 Center     Atomic                   Forces (Hartrees/Bohr)
 Number     Number              X              Y              Z
 -------------------------------------------------------------------
      1        7           0.011375582   -0.001810318   -0.005173698
      2        6          -0.009138669    0.001224755    0.004844233
      3        6          -0.001620725    0.000362007    0.000392411
      4        7           0.000779658   -0.000273244    0.000480910
      5        7           0.000670910   -0.000560317    0.000372416
      6        1           0.000082761   -0.000049677    0.000053057
      7        1           0.000153580    0.000664629   -0.001201974
      8        1          -0.001041921    0.000436658    0.000936050
      9        1          -0.001285222   -0.000281417    0.000646835
     10        1           0.000024043    0.000286923   -0.001350239
 -------------------------------------------------------------------
 Cartesian Forces:  Max     0.011375582 RMS     0.003059350
 Leave Link  716 at Thu Sep  8 14:47:43 2022, MaxMem= 24159191040 cpu:         0.7
 (Enter /public/home/users/caep010/software/Gaussian09/g09/l103.exe)

 GradGradGradGradGradGradGradGradGradGradGradGradGradGradGradGradGradGrad
 Berny optimization.
 FormGI is forming the generalized inverse of G from B-inverse, IUseBI=4.
 Internal  Forces:  Max     0.012626586 RMS     0.002237165
 Search for a local minimum.
 Step number   1 out of a maximum of   45
 All quantities printed in internal units (Hartrees-Bohrs-Radians)
 RMS Force = .22372D-02 SwitMx=.10000D-02 MixMth= 1
 Mixed Optimization -- RFO/linear search
 Second derivative matrix not updated -- first step.
 ITU=  0
     Eigenvalues ---    0.00875   0.00875   0.01056   0.01056   0.04305
     Eigenvalues ---    0.04305   0.05203   0.06586   0.12049   0.16000
     Eigenvalues ---    0.16000   0.16000   0.16000   0.20025   0.23521
     Eigenvalues ---    0.34054   0.34788   0.36743   0.36743   0.44970
     Eigenvalues ---    0.44970   0.45085   0.45085   1.31418
 RFO step:  Lambda=-2.02798521D-04 EMin= 8.74602123D-03
 Linear search not attempted -- first point.
 Iteration  1 RMS(Cart)=  0.01195488 RMS(Int)=  0.00025947
 Iteration  2 RMS(Cart)=  0.00029394 RMS(Int)=  0.00000620
 Iteration  3 RMS(Cart)=  0.00000008 RMS(Int)=  0.00000620
 ITry= 1 IFail=0 DXMaxC= 4.30D-02 DCOld= 1.00D+10 DXMaxT= 3.00D-01 DXLimC= 3.00D+00 Rises=F
 Variable       Old X    -DE/DX   Delta X   Delta X   Delta X     New X
                                 (Linear)    (Quad)   (Total)
    R1        2.18181   0.01263   0.00000   0.00961   0.00961   2.19142
    R2        2.79321   0.00226   0.00000   0.00650   0.00650   2.79971
    R3        2.76236   0.00085   0.00000   0.00231   0.00231   2.76466
    R4        2.76235   0.00086   0.00000   0.00234   0.00234   2.76469
    R5        2.07239   0.00007   0.00000   0.00019   0.00019   2.07259
    R6        1.92010   0.00137   0.00000   0.00304   0.00304   1.92314
    R7        1.91877   0.00141   0.00000   0.00312   0.00312   1.92190
    R8        1.91877   0.00141   0.00000   0.00312   0.00312   1.92190
    R9        1.92011   0.00137   0.00000   0.00304   0.00304   1.92314
    A1        1.88193  -0.00006   0.00000   0.00086   0.00085   1.88278
    A2        1.88190  -0.00005   0.00000   0.00096   0.00095   1.88285
    A3        1.87105  -0.00016   0.00000  -0.00338  -0.00338   1.86767
    A4        2.09474   0.00051   0.00000   0.00313   0.00313   2.09787
    A5        1.86181  -0.00015   0.00000  -0.00120  -0.00120   1.86061
    A6        1.86181  -0.00016   0.00000  -0.00121  -0.00121   1.86061
    A7        1.92883   0.00014   0.00000   0.00233   0.00232   1.93115
    A8        1.91488   0.00034   0.00000   0.00364   0.00363   1.91851
    A9        1.87864   0.00002   0.00000   0.00307   0.00305   1.88169
   A10        1.91489   0.00035   0.00000   0.00367   0.00366   1.91855
   A11        1.92883   0.00014   0.00000   0.00233   0.00232   1.93115
   A12        1.87865   0.00002   0.00000   0.00304   0.00302   1.88167
   A13        3.12511  -0.00046   0.00000  -0.04306  -0.04306   3.08205
   A14        3.16068   0.00023   0.00000   0.02137   0.02137   3.18206
    D1        1.14787   0.00009   0.00000   0.00582   0.00582   1.15369
    D2       -3.06644   0.00041   0.00000   0.01328   0.01329  -3.05316
    D3       -1.01391  -0.00019   0.00000   0.00128   0.00127  -1.01264
    D4        1.05496   0.00014   0.00000   0.00874   0.00874   1.06370
    D5       -3.13038  -0.00021   0.00000   0.00174   0.00174  -3.12864
    D6       -1.06150   0.00012   0.00000   0.00920   0.00921  -1.05229
    D7        3.06643  -0.00040   0.00000  -0.01319  -0.01319   3.05323
    D8       -1.14786  -0.00008   0.00000  -0.00575  -0.00574  -1.15361
    D9       -1.05497  -0.00014   0.00000  -0.00869  -0.00869  -1.06366
   D10        1.01393   0.00018   0.00000  -0.00125  -0.00124   1.01269
   D11        1.06150  -0.00012   0.00000  -0.00915  -0.00916   1.05234
   D12        3.13039   0.00020   0.00000  -0.00171  -0.00171   3.12869
         Item               Value     Threshold  Converged?
 Maximum Force            0.012627     0.000450     NO 
 RMS     Force            0.002237     0.000300     NO 
 Maximum Displacement     0.042951     0.001800     NO 
 RMS     Displacement     0.011968     0.001200     NO 
 Predicted change in Energy=-1.017759D-04
 Lowest energy point so far.  Saving SCF results.
 GradGradGradGradGradGradGradGradGradGradGradGradGradGradGradGradGradGrad

 Leave Link  103 at Thu Sep  8 14:47:43 2022, MaxMem= 24159191040 cpu:         2.0
 (Enter /public/home/users/caep010/software/Gaussian09/g09/l202.exe)
                          Input orientation:                          
 ---------------------------------------------------------------------
 Center     Atomic      Atomic             Coordinates (Angstroms)
 Number     Number       Type             X           Y           Z
 ---------------------------------------------------------------------
      1          7           0        2.547047   -0.601452   -0.674883
      2          6           0        1.511197   -0.432488   -0.181679
      3          6           0        0.152701   -0.191387    0.358067
      4          7           0       -0.034868    1.255015    0.472518
      5          7           0       -0.789149   -0.996301   -0.420033
      6          1           0        0.137574   -0.591180    1.379259
      7          1           0       -0.042980    1.689729   -0.447611
      8          1           0       -0.926706    1.454578    0.918768
      9          1           0       -1.722012   -0.919115   -0.022357
     10          1           0       -0.832703   -0.667499   -1.382152
 ---------------------------------------------------------------------
                    Distance matrix (angstroms):
                    1          2          3          4          5
     1  N    0.000000
     2  C    1.159648   0.000000
     3  C    2.639703   1.481542   0.000000
     4  N    3.380722   2.380327   1.462997   0.000000
     5  N    3.369133   2.380397   1.463013   2.536535   0.000000
     6  H    3.166254   2.085318   1.096766   2.064062   2.064072
     7  H    3.465458   2.643859   2.055725   1.017683   2.787882
     8  H    4.339809   3.273434   2.046633   1.017025   2.796089
     9  H    4.330308   3.273504   2.046670   2.796104   1.017024
    10  H    3.453592   2.643905   2.055739   2.787903   1.017683
                    6          7          8          9         10
     6  H    0.000000
     7  H    2.927900   0.000000
     8  H    2.351567   1.644159   0.000000
     9  H    2.351623   3.131463   2.674443   0.000000
    10  H    2.927909   2.655853   3.131498   1.644148   0.000000
 Stoichiometry    C2H5N3
 Framework group  C1[X(C2H5N3)]
 Deg. of freedom    24
 Full point group                 C1      NOp   1
 RotChk:  IX=3 Diff= 1.04D-02
 Largest Abelian subgroup         C1      NOp   1
 Largest concise Abelian subgroup C1      NOp   1
                         Standard orientation:                         
 ---------------------------------------------------------------------
 Center     Atomic      Atomic             Coordinates (Angstroms)
 Number     Number       Type             X           Y           Z
 ---------------------------------------------------------------------
      1          7           0        2.187511    0.002892   -0.135544
      2          6           0        1.059352    0.010517    0.132755
      3          6           0       -0.401489    0.000219    0.379340
      4          7           0       -0.948987    1.264305   -0.113297
      5          7           0       -0.930937   -1.272165   -0.111709
      6          1           0       -0.543300   -0.000110    1.466900
      7          1           0       -0.859553    1.323957   -1.125287
      8          1           0       -1.937920    1.326359    0.115832
      9          1           0       -1.918899   -1.348016    0.117454
     10          1           0       -0.840613   -1.331828   -1.123618
 ---------------------------------------------------------------------
 Rotational constants (GHZ):      8.4949025      4.1027668      3.0064145
 Leave Link  202 at Thu Sep  8 14:47:43 2022, MaxMem= 24159191040 cpu:         0.5
 (Enter /public/home/users/caep010/software/Gaussian09/g09/l301.exe)
 Standard basis: 6-31G(d,p) (6D, 7F)
 Ernie: Thresh=  0.10000D-02 Tol=  0.10000D-05 Strict=F.
 There are   100 symmetry adapted cartesian basis functions of A   symmetry.
 There are   100 symmetry adapted basis functions of A   symmetry.
   100 basis functions,   175 primitive gaussians,   100 cartesian basis functions
    19 alpha electrons       19 beta electrons
       nuclear repulsion energy       160.7117199905 Hartrees.
 IExCor=  402 DFT=T Ex+Corr=B3LYP ExCW=0 ScaHFX=  0.200000
 ScaDFX=  0.800000  0.720000  1.000000  0.810000 ScalE2=  1.000000  1.000000
 IRadAn=      0 IRanWt=     -1 IRanGd=            0 ICorTp=0 IEmpDi=  4
 NAtoms=   10 NActive=   10 NUniq=   10 SFac= 1.00D+00 NAtFMM=   60 NAOKFM=F Big=F
 Integral buffers will be    131072 words long.
 Raffenetti 2 integral format.
 Two-electron integral symmetry is turned on.
 Leave Link  301 at Thu Sep  8 14:47:44 2022, MaxMem= 24159191040 cpu:         1.5
 (Enter /public/home/users/caep010/software/Gaussian09/g09/l302.exe)
 NPDir=0 NMtPBC=     1 NCelOv=     1 NCel=       1 NClECP=     1 NCelD=      1
         NCelK=      1 NCelE2=     1 NClLst=     1 CellRange=     0.0.
 One-electron integrals computed using PRISM.
 NBasis=   100 RedAO= T EigKep=  1.27D-03  NBF=   100
 NBsUse=   100 1.00D-06 EigRej= -1.00D+00 NBFU=   100
 Precomputing XC quadrature grid using
 IXCGrd= 4 IRadAn=           0 IRanWt=          -1 IRanGd=           0 AccXCQ= 0.00D+00.
 Generated NRdTot=       0 NPtTot=           0 NUsed=           0 NTot=          32
 NSgBfM=   100   100   100   100   100 MxSgAt=    10 MxSgA2=    10.
 Leave Link  302 at Thu Sep  8 14:47:44 2022, MaxMem= 24159191040 cpu:        10.7
 (Enter /public/home/users/caep010/software/Gaussian09/g09/l303.exe)
 DipDrv:  MaxL=1.
 Leave Link  303 at Thu Sep  8 14:47:44 2022, MaxMem= 24159191040 cpu:         0.6
 (Enter /public/home/users/caep010/software/Gaussian09/g09/l401.exe)
 Initial guess from the checkpoint file:  "B3LYP6-31Gdp.Frag_1148.chk"
 B after Tr=    -0.000000   -0.000000    0.000000
         Rot=    0.999997    0.000527    0.000895   -0.002413 Ang=   0.30 deg.
 Guess basis will be translated and rotated to current coordinates.
 JPrj=2 DoOrth=T DoCkMO=T.
 Generating alternative initial guess.
 ExpMin= 1.61D-01 ExpMax= 4.17D+03 ExpMxC= 6.27D+02 IAcc=1 IRadAn=         1 AccDes= 0.00D+00
 Harris functional with IExCor=  402 and IRadAn=       1 diagonalized for initial guess.
 HarFok:  IExCor=  402 AccDes= 0.00D+00 IRadAn=         1 IDoV= 1 UseB2=F ITyADJ=14
 ICtDFT=  3500011 ScaDFX=  1.000000  1.000000  1.000000  1.000000
 FoFCou: FMM=F IPFlag=           0 FMFlag=      100000 FMFlg1=           0
         NFxFlg=           0 DoJE=T BraDBF=F KetDBF=T FulRan=T
         wScrn=  0.000000 ICntrl=     500 IOpCl=  0 I1Cent=   200000004 NGrid=           0
         NMat0=    1 NMatS0=      1 NMatT0=    0 NMatD0=    1 NMtDS0=    0 NMtDT0=    0
 Petite list used in FoFCou.
 Harris En= -243.453698709594    
 Leave Link  401 at Thu Sep  8 14:47:44 2022, MaxMem= 24159191040 cpu:        11.5
 (Enter /public/home/users/caep010/software/Gaussian09/g09/l502.exe)
 Closed shell SCF:
 Using DIIS extrapolation, IDIIS=  1040.
 Integral symmetry usage will be decided dynamically.
 Keep R1 ints in memory in canonical form, NReq=13729312.
 IVT=       52505 IEndB=       52505 NGot= 24159191040 MDV= 24146384761
 LenX= 24146384761 LenY= 24146374320
 Requested convergence on RMS density matrix=1.00D-08 within 128 cycles.
 Requested convergence on MAX density matrix=1.00D-06.
 Requested convergence on             energy=1.00D-06.
 No special actions if energy rises.
 FoFCou: FMM=F IPFlag=           0 FMFlag=           0 FMFlg1=           0
         NFxFlg=           0 DoJE=F BraDBF=F KetDBF=F FulRan=T
         wScrn=  0.000000 ICntrl=     600 IOpCl=  0 I1Cent=           0 NGrid=           0
         NMat0=    1 NMatS0=   5050 NMatT0=    0 NMatD0=    1 NMtDS0=    0 NMtDT0=    0
 Symmetry not used in FoFCou.
 Integral accuracy reduced to 1.0D-05 until final iterations.

 Cycle   1  Pass 0  IDiag  1:
 E= -243.449132026377    
 DIIS: error= 2.03D-03 at cycle   1 NSaved=   1.
 NSaved= 1 IEnMin= 1 EnMin= -243.449132026377     IErMin= 1 ErrMin= 2.03D-03
 ErrMax= 2.03D-03  0.00D+00 EMaxC= 1.00D-01 BMatC= 4.40D-04 BMatP= 4.40D-04
 IDIUse=3 WtCom= 9.80D-01 WtEn= 2.03D-02
 Coeff-Com:  0.100D+01
 Coeff-En:   0.100D+01
 Coeff:      0.100D+01
 Gap=     1.748 Goal=   None    Shift=    0.000
 GapD=    1.748 DampG=2.000 DampE=1.000 DampFc=2.0000 IDamp=-1.
 RMSDP=4.42D-04 MaxDP=8.75D-03              OVMax= 1.34D-02

 Cycle   2  Pass 0  IDiag  1:
 E= -243.449877544632     Delta-E=       -0.000745518255 Rises=F Damp=F
 DIIS: error= 3.22D-04 at cycle   2 NSaved=   2.
 NSaved= 2 IEnMin= 2 EnMin= -243.449877544632     IErMin= 2 ErrMin= 3.22D-04
 ErrMax= 3.22D-04  0.00D+00 EMaxC= 1.00D-01 BMatC= 1.21D-05 BMatP= 4.40D-04
 IDIUse=3 WtCom= 9.97D-01 WtEn= 3.22D-03
 Coeff-Com: -0.373D-01 0.104D+01
 Coeff-En:   0.000D+00 0.100D+01
 Coeff:     -0.371D-01 0.104D+01
 Gap=     0.268 Goal=   None    Shift=    0.000
 RMSDP=8.24D-05 MaxDP=2.24D-03 DE=-7.46D-04 OVMax= 1.60D-03

 Cycle   3  Pass 0  IDiag  1:
 E= -243.449883512629     Delta-E=       -0.000005967998 Rises=F Damp=F
 DIIS: error= 2.83D-04 at cycle   3 NSaved=   3.
 NSaved= 3 IEnMin= 3 EnMin= -243.449883512629     IErMin= 3 ErrMin= 2.83D-04
 ErrMax= 2.83D-04  0.00D+00 EMaxC= 1.00D-01 BMatC= 1.05D-05 BMatP= 1.21D-05
 IDIUse=3 WtCom= 9.97D-01 WtEn= 2.83D-03
 Coeff-Com: -0.377D-01 0.517D+00 0.521D+00
 Coeff-En:   0.000D+00 0.296D+00 0.704D+00
 Coeff:     -0.376D-01 0.516D+00 0.522D+00
 Gap=     0.268 Goal=   None    Shift=    0.000
 RMSDP=4.74D-05 MaxDP=1.32D-03 DE=-5.97D-06 OVMax= 1.65D-03

 Cycle   4  Pass 0  IDiag  1:
 E= -243.449888963452     Delta-E=       -0.000005450823 Rises=F Damp=F
 DIIS: error= 2.09D-04 at cycle   4 NSaved=   4.
 NSaved= 4 IEnMin= 4 EnMin= -243.449888963452     IErMin= 4 ErrMin= 2.09D-04
 ErrMax= 2.09D-04  0.00D+00 EMaxC= 1.00D-01 BMatC= 4.67D-06 BMatP= 1.05D-05
 IDIUse=3 WtCom= 9.98D-01 WtEn= 2.09D-03
 Coeff-Com: -0.217D-01 0.252D+00 0.392D+00 0.378D+00
 Coeff-En:   0.000D+00 0.000D+00 0.318D+00 0.682D+00
 Coeff:     -0.216D-01 0.251D+00 0.391D+00 0.379D+00
 Gap=     0.268 Goal=   None    Shift=    0.000
 RMSDP=1.77D-05 MaxDP=4.36D-04 DE=-5.45D-06 OVMax= 7.89D-04

 Cycle   5  Pass 0  IDiag  1:
 E= -243.449892942933     Delta-E=       -0.000003979481 Rises=F Damp=F
 DIIS: error= 2.91D-05 at cycle   5 NSaved=   5.
 NSaved= 5 IEnMin= 5 EnMin= -243.449892942933     IErMin= 5 ErrMin= 2.91D-05
 ErrMax= 2.91D-05  0.00D+00 EMaxC= 1.00D-01 BMatC= 9.88D-08 BMatP= 4.67D-06
 IDIUse=1 WtCom= 1.00D+00 WtEn= 0.00D+00
 Coeff-Com: -0.374D-02 0.363D-01 0.103D+00 0.171D+00 0.694D+00
 Coeff:     -0.374D-02 0.363D-01 0.103D+00 0.171D+00 0.694D+00
 Gap=     0.268 Goal=   None    Shift=    0.000
 RMSDP=3.61D-06 MaxDP=6.07D-05 DE=-3.98D-06 OVMax= 8.60D-05

 Initial convergence to 1.0D-05 achieved.  Increase integral accuracy.
 Cycle   6  Pass 1  IDiag  1:
 E= -243.449879073555     Delta-E=        0.000013869378 Rises=F Damp=F
 DIIS: error= 1.03D-05 at cycle   1 NSaved=   1.
 NSaved= 1 IEnMin= 1 EnMin= -243.449879073555     IErMin= 1 ErrMin= 1.03D-05
 ErrMax= 1.03D-05  0.00D+00 EMaxC= 1.00D-01 BMatC= 1.74D-08 BMatP= 1.74D-08
 IDIUse=1 WtCom= 1.00D+00 WtEn= 0.00D+00
 Coeff-Com:  0.100D+01
 Coeff:      0.100D+01
 Gap=     0.268 Goal=   None    Shift=    0.000
 RMSDP=3.61D-06 MaxDP=6.07D-05 DE= 1.39D-05 OVMax= 5.52D-05

 Cycle   7  Pass 1  IDiag  1:
 E= -243.449879075368     Delta-E=       -0.000000001813 Rises=F Damp=F
 DIIS: error= 1.14D-05 at cycle   2 NSaved=   2.
 NSaved= 2 IEnMin= 2 EnMin= -243.449879075368     IErMin= 1 ErrMin= 1.03D-05
 ErrMax= 1.14D-05  0.00D+00 EMaxC= 1.00D-01 BMatC= 1.94D-08 BMatP= 1.74D-08
 IDIUse=1 WtCom= 1.00D+00 WtEn= 0.00D+00
 Coeff-Com:  0.516D+00 0.484D+00
 Coeff:      0.516D+00 0.484D+00
 Gap=     0.268 Goal=   None    Shift=    0.000
 RMSDP=1.47D-06 MaxDP=3.57D-05 DE=-1.81D-09 OVMax= 3.92D-05

 Cycle   8  Pass 1  IDiag  1:
 E= -243.449879090266     Delta-E=       -0.000000014898 Rises=F Damp=F
 DIIS: error= 2.90D-06 at cycle   3 NSaved=   3.
 NSaved= 3 IEnMin= 3 EnMin= -243.449879090266     IErMin= 3 ErrMin= 2.90D-06
 ErrMax= 2.90D-06  0.00D+00 EMaxC= 1.00D-01 BMatC= 1.75D-09 BMatP= 1.74D-08
 IDIUse=1 WtCom= 1.00D+00 WtEn= 0.00D+00
 Coeff-Com:  0.648D-01 0.232D+00 0.703D+00
 Coeff:      0.648D-01 0.232D+00 0.703D+00
 Gap=     0.268 Goal=   None    Shift=    0.000
 RMSDP=5.32D-07 MaxDP=1.24D-05 DE=-1.49D-08 OVMax= 2.16D-05

 Cycle   9  Pass 1  IDiag  1:
 E= -243.449879090725     Delta-E=       -0.000000000458 Rises=F Damp=F
 DIIS: error= 3.34D-06 at cycle   4 NSaved=   4.
 NSaved= 4 IEnMin= 4 EnMin= -243.449879090725     IErMin= 3 ErrMin= 2.90D-06
 ErrMax= 3.34D-06  0.00D+00 EMaxC= 1.00D-01 BMatC= 1.24D-09 BMatP= 1.75D-09
 IDIUse=1 WtCom= 1.00D+00 WtEn= 0.00D+00
 Coeff-Com: -0.666D-02 0.124D+00 0.533D+00 0.350D+00
 Coeff:     -0.666D-02 0.124D+00 0.533D+00 0.350D+00
 Gap=     0.268 Goal=   None    Shift=    0.000
 RMSDP=2.86D-07 MaxDP=6.94D-06 DE=-4.58D-10 OVMax= 1.19D-05

 Cycle  10  Pass 1  IDiag  1:
 E= -243.449879091767     Delta-E=       -0.000000001042 Rises=F Damp=F
 DIIS: error= 3.59D-07 at cycle   5 NSaved=   5.
 NSaved= 5 IEnMin= 5 EnMin= -243.449879091767     IErMin= 5 ErrMin= 3.59D-07
 ErrMax= 3.59D-07  0.00D+00 EMaxC= 1.00D-01 BMatC= 1.97D-11 BMatP= 1.24D-09
 IDIUse=1 WtCom= 1.00D+00 WtEn= 0.00D+00
 Coeff-Com: -0.886D-02 0.517D-01 0.244D+00 0.187D+00 0.526D+00
 Coeff:     -0.886D-02 0.517D-01 0.244D+00 0.187D+00 0.526D+00
 Gap=     0.268 Goal=   None    Shift=    0.000
 RMSDP=4.44D-08 MaxDP=9.01D-07 DE=-1.04D-09 OVMax= 1.05D-06

 Cycle  11  Pass 1  IDiag  1:
 E= -243.449879091781     Delta-E=       -0.000000000014 Rises=F Damp=F
 DIIS: error= 6.40D-08 at cycle   6 NSaved=   6.
 NSaved= 6 IEnMin= 6 EnMin= -243.449879091781     IErMin= 6 ErrMin= 6.40D-08
 ErrMax= 6.40D-08  0.00D+00 EMaxC= 1.00D-01 BMatC= 1.23D-12 BMatP= 1.97D-11
 IDIUse=1 WtCom= 1.00D+00 WtEn= 0.00D+00
 Coeff-Com: -0.412D-02 0.158D-01 0.800D-01 0.630D-01 0.259D+00 0.586D+00
 Coeff:     -0.412D-02 0.158D-01 0.800D-01 0.630D-01 0.259D+00 0.586D+00
 Gap=     0.268 Goal=   None    Shift=    0.000
 RMSDP=1.04D-08 MaxDP=2.37D-07 DE=-1.39D-11 OVMax= 2.51D-07

 Cycle  12  Pass 1  IDiag  1:
 E= -243.449879091783     Delta-E=       -0.000000000002 Rises=F Damp=F
 DIIS: error= 1.02D-08 at cycle   7 NSaved=   7.
 NSaved= 7 IEnMin= 7 EnMin= -243.449879091783     IErMin= 7 ErrMin= 1.02D-08
 ErrMax= 1.02D-08  0.00D+00 EMaxC= 1.00D-01 BMatC= 2.84D-14 BMatP= 1.23D-12
 IDIUse=1 WtCom= 1.00D+00 WtEn= 0.00D+00
 Coeff-Com: -0.119D-03-0.593D-03-0.198D-02-0.273D-02 0.345D-02 0.116D+00
 Coeff-Com:  0.886D+00
 Coeff:     -0.119D-03-0.593D-03-0.198D-02-0.273D-02 0.345D-02 0.116D+00
 Coeff:      0.886D+00
 Gap=     0.268 Goal=   None    Shift=    0.000
 RMSDP=2.27D-09 MaxDP=4.60D-08 DE=-2.44D-12 OVMax= 7.05D-08

 SCF Done:  E(RB3LYP) =  -243.449879092     A.U. after   12 cycles
            NFock= 12  Conv=0.23D-08     -V/T= 2.0093
 KE= 2.411966236132D+02 PE=-8.880874907243D+02 EE= 2.427292680287D+02
 Leave Link  502 at Thu Sep  8 14:47:46 2022, MaxMem= 24159191040 cpu:        30.6
 (Enter /public/home/users/caep010/software/Gaussian09/g09/l701.exe)
 Compute integral first derivatives.
 ... and contract with generalized density number  0.
 Leave Link  701 at Thu Sep  8 14:47:46 2022, MaxMem= 24159191040 cpu:        10.3
 (Enter /public/home/users/caep010/software/Gaussian09/g09/l702.exe)
 L702 exits ... SP integral derivatives will be done elsewhere.
 Leave Link  702 at Thu Sep  8 14:47:46 2022, MaxMem= 24159191040 cpu:         0.6
 (Enter /public/home/users/caep010/software/Gaussian09/g09/l703.exe)
 Compute integral first derivatives, UseDBF=F ICtDFT=           0.
 Integral derivatives from FoFJK, PRISM(SPDF).
 Calling FoFJK, ICntrl=      2127 FMM=F ISym2X=0 I1Cent= 0 IOpClX= 0 NMat=1 NMatS=1 NMatT=0.
 FoFJK:  IHMeth= 1 ICntrl=    2127 DoSepK=F KAlg= 0 I1Cent=   0 FoldK=F
 IRaf=         0 NMat=   1 IRICut=       1 DoRegI=T DoRafI=F ISym2E= 0.
 FoFCou: FMM=F IPFlag=           0 FMFlag=      100000 FMFlg1=         800
         NFxFlg=           0 DoJE=F BraDBF=F KetDBF=F FulRan=T
         wScrn=  0.000000 ICntrl=    2127 IOpCl=  0 I1Cent=           0 NGrid=           0
         NMat0=    1 NMatS0=      1 NMatT0=    0 NMatD0=    1 NMtDS0=    0 NMtDT0=    0
 Symmetry not used in FoFCou.
 Leave Link  703 at Thu Sep  8 14:47:47 2022, MaxMem= 24159191040 cpu:         8.9
 (Enter /public/home/users/caep010/software/Gaussian09/g09/l716.exe)
 Dipole        =-2.05348173D+00-6.53324895D-03-2.70429491D-01
 ***** Axes restored to original set *****
 -------------------------------------------------------------------
 Center     Atomic                   Forces (Hartrees/Bohr)
 Number     Number              X              Y              Z
 -------------------------------------------------------------------
      1        7           0.000967166   -0.000213739    0.001179688
      2        6          -0.001413720    0.000441950   -0.002825490
      3        6          -0.000610709   -0.000032777    0.001708344
      4        7           0.000274821   -0.000313083   -0.000313742
      5        7           0.000638444    0.000285247   -0.000151820
      6        1          -0.000375814    0.000104829    0.000082252
      7        1           0.000010564   -0.000098343    0.000110849
      8        1           0.000188485   -0.000153137   -0.000027859
      9        1           0.000259850    0.000008949    0.000099018
     10        1           0.000060913   -0.000029896    0.000138761
 -------------------------------------------------------------------
 Cartesian Forces:  Max     0.002825490 RMS     0.000752078
 Leave Link  716 at Thu Sep  8 14:47:47 2022, MaxMem= 24159191040 cpu:         0.6
 (Enter /public/home/users/caep010/software/Gaussian09/g09/l103.exe)

 GradGradGradGradGradGradGradGradGradGradGradGradGradGradGradGradGradGrad
 Berny optimization.
 Using GEDIIS/GDIIS optimizer.
 FormGI is forming the generalized inverse of G from B-inverse, IUseBI=4.
 Internal  Forces:  Max     0.003074857 RMS     0.000604860
 Search for a local minimum.
 Step number   2 out of a maximum of   45
 All quantities printed in internal units (Hartrees-Bohrs-Radians)
 RMS Force = .60486D-03 SwitMx=.10000D-02 MixMth= 2
 Mixed Optimization -- En-DIIS/RFO-DIIS
 Update second derivatives using D2CorX and points    1    2
 DE= -2.37D-05 DEPred=-1.02D-04 R= 2.33D-01
 Trust test= 2.33D-01 RLast= 5.76D-02 DXMaxT set to 3.00D-01
 ITU=  0  0
 Use linear search instead of GDIIS.
     Eigenvalues ---    0.00822   0.00875   0.01047   0.02589   0.04255
     Eigenvalues ---    0.04407   0.05292   0.07025   0.12071   0.15998
     Eigenvalues ---    0.16000   0.16000   0.16114   0.20075   0.22985
     Eigenvalues ---    0.32859   0.34058   0.36740   0.37538   0.43864
     Eigenvalues ---    0.44970   0.45039   0.45085   0.97060
 RFO step:  Lambda=-2.72531546D-04 EMin= 8.22257000D-03
 Quartic linear search produced a step of -0.43390.
 Iteration  1 RMS(Cart)=  0.03216955 RMS(Int)=  0.00158541
 Iteration  2 RMS(Cart)=  0.00162413 RMS(Int)=  0.00000710
 Iteration  3 RMS(Cart)=  0.00000246 RMS(Int)=  0.00000689
 Iteration  4 RMS(Cart)=  0.00000000 RMS(Int)=  0.00000689
 ITry= 1 IFail=0 DXMaxC= 1.13D-01 DCOld= 1.00D+10 DXMaxT= 3.00D-01 DXLimC= 3.00D+00 Rises=F
 Variable       Old X    -DE/DX   Delta X   Delta X   Delta X     New X
                                 (Linear)    (Quad)   (Total)
    R1        2.19142   0.00040  -0.00417   0.01730   0.01313   2.20454
    R2        2.79971   0.00016  -0.00282   0.01184   0.00902   2.80873
    R3        2.76466  -0.00064  -0.00100   0.00313   0.00213   2.76679
    R4        2.76469  -0.00082  -0.00102   0.00291   0.00190   2.76659
    R5        2.07259   0.00004  -0.00008   0.00042   0.00033   2.07292
    R6        1.92314  -0.00014  -0.00132   0.00523   0.00391   1.92706
    R7        1.92190  -0.00021  -0.00136   0.00530   0.00395   1.92585
    R8        1.92190  -0.00020  -0.00135   0.00531   0.00396   1.92586
    R9        1.92314  -0.00014  -0.00132   0.00523   0.00391   1.92705
    A1        1.88278  -0.00023  -0.00037  -0.00008  -0.00045   1.88234
    A2        1.88285  -0.00047  -0.00041  -0.00059  -0.00101   1.88184
    A3        1.86767   0.00044   0.00147  -0.00310  -0.00164   1.86604
    A4        2.09787   0.00050  -0.00136   0.00604   0.00468   2.10255
    A5        1.86061  -0.00012   0.00052  -0.00167  -0.00115   1.85946
    A6        1.86061  -0.00008   0.00052  -0.00162  -0.00110   1.85951
    A7        1.93115  -0.00003  -0.00101   0.00399   0.00297   1.93412
    A8        1.91851  -0.00017  -0.00157   0.00581   0.00422   1.92273
    A9        1.88169   0.00010  -0.00132   0.00568   0.00434   1.88603
   A10        1.91855  -0.00025  -0.00159   0.00559   0.00400   1.92254
   A11        1.93115  -0.00003  -0.00101   0.00401   0.00299   1.93414
   A12        1.88167   0.00014  -0.00131   0.00584   0.00450   1.88618
   A13        3.08205   0.00307   0.01868   0.08635   0.10503   3.18708
   A14        3.18206  -0.00084  -0.00927  -0.00671  -0.01598   3.16607
    D1        1.15369  -0.00025  -0.00252   0.00894   0.00641   1.16010
    D2       -3.05316  -0.00026  -0.00577   0.02212   0.01636  -3.03680
    D3       -1.01264   0.00024  -0.00055   0.00511   0.00455  -1.00809
    D4        1.06370   0.00023  -0.00379   0.01829   0.01450   1.07821
    D5       -3.12864   0.00009  -0.00075   0.00450   0.00374  -3.12489
    D6       -1.05229   0.00008  -0.00400   0.01768   0.01369  -1.03860
    D7        3.05323   0.00018   0.00572  -0.02263  -0.01691   3.03633
    D8       -1.15361   0.00018   0.00249  -0.00938  -0.00688  -1.16049
    D9       -1.06366  -0.00019   0.00377  -0.01855  -0.01478  -1.07844
   D10        1.01269  -0.00019   0.00054  -0.00530  -0.00476   1.00793
   D11        1.05234  -0.00006   0.00397  -0.01797  -0.01400   1.03834
   D12        3.12869  -0.00007   0.00074  -0.00473  -0.00398   3.12471
         Item               Value     Threshold  Converged?
 Maximum Force            0.003075     0.000450     NO 
 RMS     Force            0.000605     0.000300     NO 
 Maximum Displacement     0.112771     0.001800     NO 
 RMS     Displacement     0.032351     0.001200     NO 
 Predicted change in Energy=-1.711342D-04
 Lowest energy point so far.  Saving SCF results.
 GradGradGradGradGradGradGradGradGradGradGradGradGradGradGradGradGradGrad

 Leave Link  103 at Thu Sep  8 14:47:47 2022, MaxMem= 24159191040 cpu:         2.0
 (Enter /public/home/users/caep010/software/Gaussian09/g09/l202.exe)
                          Input orientation:                          
 ---------------------------------------------------------------------
 Center     Atomic      Atomic             Coordinates (Angstroms)
 Number     Number       Type             X           Y           Z
 ---------------------------------------------------------------------
      1          7           0        2.590276   -0.595105   -0.615207
      2          6           0        1.505133   -0.436756   -0.217297
      3          6           0        0.149980   -0.192172    0.342056
      4          7           0       -0.030347    1.255623    0.464634
      5          7           0       -0.803105   -0.996662   -0.424605
      6          1           0        0.148501   -0.594544    1.362535
      7          1           0       -0.054568    1.696908   -0.454377
      8          1           0       -0.909518    1.461375    0.937200
      9          1           0       -1.731021   -0.933360   -0.007988
     10          1           0       -0.865232   -0.665406   -1.387053
 ---------------------------------------------------------------------
                    Distance matrix (angstroms):
                    1          2          3          4          5
     1  N    0.000000
     2  C    1.166595   0.000000
     3  C    2.652122   1.486316   0.000000
     4  N    3.385102   2.384716   1.464122   0.000000
     5  N    3.422370   2.384205   1.464017   2.541789   0.000000
     6  H    3.142250   2.088353   1.096943   2.064299   2.064248
     7  H    3.503482   2.653562   2.060283   1.019755   2.795803
     8  H    4.345991   3.281204   2.052060   1.019115   2.812078
     9  H    4.376841   3.280718   2.051842   2.811994   1.019119
    10  H    3.541360   2.653156   2.060200   2.795734   1.019753
                    6          7          8          9         10
     6  H    0.000000
     7  H    2.931409   0.000000
     8  H    2.350982   1.650122   0.000000
     9  H    2.350687   3.150883   2.702407   0.000000
    10  H    2.931366   2.666006   3.150764   1.650215   0.000000
 Stoichiometry    C2H5N3
 Framework group  C1[X(C2H5N3)]
 Deg. of freedom    24
 Full point group                 C1      NOp   1
 RotChk:  IX=0 Diff= 3.79D-02
 Largest Abelian subgroup         C1      NOp   1
 Largest concise Abelian subgroup C1      NOp   1
                         Standard orientation:                         
 ---------------------------------------------------------------------
 Center     Atomic      Atomic             Coordinates (Angstroms)
 Number     Number       Type             X           Y           Z
 ---------------------------------------------------------------------
      1          7           0        2.209195   -0.009079   -0.110590
      2          6           0        1.059488   -0.033746    0.085651
      3          6           0       -0.399111   -0.000737    0.369434
      4          7           0       -0.919558    1.283120   -0.104376
      5          7           0       -0.977148   -1.258012   -0.108559
      6          1           0       -0.512051    0.000045    1.460548
      7          1           0       -0.859906    1.345603   -1.120465
      8          1           0       -1.898050    1.385235    0.161560
      9          1           0       -1.959215   -1.316476    0.157391
     10          1           0       -0.920457   -1.319712   -1.124864
 ---------------------------------------------------------------------
 Rotational constants (GHZ):      8.5022772      4.0518721      2.9681174
 Leave Link  202 at Thu Sep  8 14:47:47 2022, MaxMem= 24159191040 cpu:         0.2
 (Enter /public/home/users/caep010/software/Gaussian09/g09/l301.exe)
 Standard basis: 6-31G(d,p) (6D, 7F)
 Ernie: Thresh=  0.10000D-02 Tol=  0.10000D-05 Strict=F.
 There are   100 symmetry adapted cartesian basis functions of A   symmetry.
 There are   100 symmetry adapted basis functions of A   symmetry.
   100 basis functions,   175 primitive gaussians,   100 cartesian basis functions
    19 alpha electrons       19 beta electrons
       nuclear repulsion energy       160.1817793031 Hartrees.
 IExCor=  402 DFT=T Ex+Corr=B3LYP ExCW=0 ScaHFX=  0.200000
 ScaDFX=  0.800000  0.720000  1.000000  0.810000 ScalE2=  1.000000  1.000000
 IRadAn=      0 IRanWt=     -1 IRanGd=            0 ICorTp=0 IEmpDi=  4
 NAtoms=   10 NActive=   10 NUniq=   10 SFac= 1.00D+00 NAtFMM=   60 NAOKFM=F Big=F
 Integral buffers will be    131072 words long.
 Raffenetti 2 integral format.
 Two-electron integral symmetry is turned on.
 Leave Link  301 at Thu Sep  8 14:47:47 2022, MaxMem= 24159191040 cpu:         1.6
 (Enter /public/home/users/caep010/software/Gaussian09/g09/l302.exe)
 NPDir=0 NMtPBC=     1 NCelOv=     1 NCel=       1 NClECP=     1 NCelD=      1
         NCelK=      1 NCelE2=     1 NClLst=     1 CellRange=     0.0.
 One-electron integrals computed using PRISM.
 NBasis=   100 RedAO= T EigKep=  1.28D-03  NBF=   100
 NBsUse=   100 1.00D-06 EigRej= -1.00D+00 NBFU=   100
 Precomputing XC quadrature grid using
 IXCGrd= 4 IRadAn=           0 IRanWt=          -1 IRanGd=           0 AccXCQ= 0.00D+00.
 Generated NRdTot=       0 NPtTot=           0 NUsed=           0 NTot=          32
 NSgBfM=   100   100   100   100   100 MxSgAt=    10 MxSgA2=    10.
 Leave Link  302 at Thu Sep  8 14:47:47 2022, MaxMem= 24159191040 cpu:        10.7
 (Enter /public/home/users/caep010/software/Gaussian09/g09/l303.exe)
 DipDrv:  MaxL=1.
 Leave Link  303 at Thu Sep  8 14:47:47 2022, MaxMem= 24159191040 cpu:         0.7
 (Enter /public/home/users/caep010/software/Gaussian09/g09/l401.exe)
 Initial guess from the checkpoint file:  "B3LYP6-31Gdp.Frag_1148.chk"
 B after Tr=    -0.000000    0.000000   -0.000000
         Rot=    0.999951   -0.002003   -0.001966    0.009514 Ang=  -1.14 deg.
 Guess basis will be translated and rotated to current coordinates.
 JPrj=2 DoOrth=T DoCkMO=T.
 Generating alternative initial guess.
 ExpMin= 1.61D-01 ExpMax= 4.17D+03 ExpMxC= 6.27D+02 IAcc=1 IRadAn=         1 AccDes= 0.00D+00
 Harris functional with IExCor=  402 and IRadAn=       1 diagonalized for initial guess.
 HarFok:  IExCor=  402 AccDes= 0.00D+00 IRadAn=         1 IDoV= 1 UseB2=F ITyADJ=14
 ICtDFT=  3500011 ScaDFX=  1.000000  1.000000  1.000000  1.000000
 FoFCou: FMM=F IPFlag=           0 FMFlag=      100000 FMFlg1=           0
         NFxFlg=           0 DoJE=T BraDBF=F KetDBF=T FulRan=T
         wScrn=  0.000000 ICntrl=     500 IOpCl=  0 I1Cent=   200000004 NGrid=           0
         NMat0=    1 NMatS0=      1 NMatT0=    0 NMatD0=    1 NMtDS0=    0 NMtDT0=    0
 Petite list used in FoFCou.
 Harris En= -243.452333768326    
 Leave Link  401 at Thu Sep  8 14:47:48 2022, MaxMem= 24159191040 cpu:        12.0
 (Enter /public/home/users/caep010/software/Gaussian09/g09/l502.exe)
 Closed shell SCF:
 Using DIIS extrapolation, IDIIS=  1040.
 Integral symmetry usage will be decided dynamically.
 Keep R1 ints in memory in canonical form, NReq=13729312.
 IVT=       52505 IEndB=       52505 NGot= 24159191040 MDV= 24146384761
 LenX= 24146384761 LenY= 24146374320
 Requested convergence on RMS density matrix=1.00D-08 within 128 cycles.
 Requested convergence on MAX density matrix=1.00D-06.
 Requested convergence on             energy=1.00D-06.
 No special actions if energy rises.
 FoFCou: FMM=F IPFlag=           0 FMFlag=           0 FMFlg1=           0
         NFxFlg=           0 DoJE=F BraDBF=F KetDBF=F FulRan=T
         wScrn=  0.000000 ICntrl=     600 IOpCl=  0 I1Cent=           0 NGrid=           0
         NMat0=    1 NMatS0=   5050 NMatT0=    0 NMatD0=    1 NMtDS0=    0 NMtDT0=    0
 Symmetry not used in FoFCou.
 Integral accuracy reduced to 1.0D-05 until final iterations.

 Cycle   1  Pass 0  IDiag  1:
 E= -243.444777779603    
 DIIS: error= 4.34D-03 at cycle   1 NSaved=   1.
 NSaved= 1 IEnMin= 1 EnMin= -243.444777779603     IErMin= 1 ErrMin= 4.34D-03
 ErrMax= 4.34D-03  0.00D+00 EMaxC= 1.00D-01 BMatC= 2.76D-03 BMatP= 2.76D-03
 IDIUse=3 WtCom= 9.57D-01 WtEn= 4.34D-02
 Coeff-Com:  0.100D+01
 Coeff-En:   0.100D+01
 Coeff:      0.100D+01
 Gap=     1.760 Goal=   None    Shift=    0.000
 GapD=    1.760 DampG=2.000 DampE=1.000 DampFc=2.0000 IDamp=-1.
 RMSDP=1.02D-03 MaxDP=2.11D-02              OVMax= 3.37D-02

 Cycle   2  Pass 0  IDiag  1:
 E= -243.449539024199     Delta-E=       -0.004761244597 Rises=F Damp=F
 DIIS: error= 6.93D-04 at cycle   2 NSaved=   2.
 NSaved= 2 IEnMin= 2 EnMin= -243.449539024199     IErMin= 2 ErrMin= 6.93D-04
 ErrMax= 6.93D-04  0.00D+00 EMaxC= 1.00D-01 BMatC= 5.96D-05 BMatP= 2.76D-03
 IDIUse=3 WtCom= 9.93D-01 WtEn= 6.93D-03
 Coeff-Com: -0.598D-01 0.106D+01
 Coeff-En:   0.000D+00 0.100D+01
 Coeff:     -0.594D-01 0.106D+01
 Gap=     0.264 Goal=   None    Shift=    0.000
 RMSDP=1.63D-04 MaxDP=3.80D-03 DE=-4.76D-03 OVMax= 4.82D-03

 Cycle   3  Pass 0  IDiag  1:
 E= -243.449534922124     Delta-E=        0.000004102075 Rises=F Damp=F
 DIIS: error= 9.25D-04 at cycle   3 NSaved=   3.
 NSaved= 3 IEnMin= 2 EnMin= -243.449539024199     IErMin= 2 ErrMin= 6.93D-04
 ErrMax= 9.25D-04  0.00D+00 EMaxC= 1.00D-01 BMatC= 1.00D-04 BMatP= 5.96D-05
 IDIUse=3 WtCom= 2.47D-01 WtEn= 7.53D-01
 Coeff-Com: -0.478D-01 0.643D+00 0.405D+00
 Coeff-En:   0.000D+00 0.518D+00 0.482D+00
 Coeff:     -0.118D-01 0.549D+00 0.463D+00
 Gap=     0.265 Goal=   None    Shift=    0.000
 RMSDP=1.31D-04 MaxDP=3.28D-03 DE= 4.10D-06 OVMax= 5.39D-03

 Cycle   4  Pass 0  IDiag  1:
 E= -243.449580025529     Delta-E=       -0.000045103405 Rises=F Damp=F
 DIIS: error= 6.62D-04 at cycle   4 NSaved=   4.
 NSaved= 4 IEnMin= 4 EnMin= -243.449580025529     IErMin= 4 ErrMin= 6.62D-04
 ErrMax= 6.62D-04  0.00D+00 EMaxC= 1.00D-01 BMatC= 4.66D-05 BMatP= 5.96D-05
 IDIUse=3 WtCom= 9.93D-01 WtEn= 6.62D-03
 Coeff-Com: -0.172D-01 0.189D+00 0.381D+00 0.446D+00
 Coeff-En:   0.000D+00 0.000D+00 0.366D+00 0.634D+00
 Coeff:     -0.171D-01 0.188D+00 0.381D+00 0.448D+00
 Gap=     0.265 Goal=   None    Shift=    0.000
 RMSDP=5.47D-05 MaxDP=1.31D-03 DE=-4.51D-05 OVMax= 2.36D-03

 Cycle   5  Pass 0  IDiag  1:
 E= -243.449620346139     Delta-E=       -0.000040320611 Rises=F Damp=F
 DIIS: error= 4.70D-05 at cycle   5 NSaved=   5.
 NSaved= 5 IEnMin= 5 EnMin= -243.449620346139     IErMin= 5 ErrMin= 4.70D-05
 ErrMax= 4.70D-05  0.00D+00 EMaxC= 1.00D-01 BMatC= 5.71D-07 BMatP= 4.66D-05
 IDIUse=1 WtCom= 1.00D+00 WtEn= 0.00D+00
 Coeff-Com: -0.409D-02 0.354D-01 0.151D+00 0.216D+00 0.602D+00
 Coeff:     -0.409D-02 0.354D-01 0.151D+00 0.216D+00 0.602D+00
 Gap=     0.265 Goal=   None    Shift=    0.000
 RMSDP=8.35D-06 MaxDP=1.83D-04 DE=-4.03D-05 OVMax= 1.97D-04

 Initial convergence to 1.0D-05 achieved.  Increase integral accuracy.
 Cycle   6  Pass 1  IDiag  1:
 E= -243.449623079270     Delta-E=       -0.000002733130 Rises=F Damp=F
 DIIS: error= 2.15D-05 at cycle   1 NSaved=   1.
 NSaved= 1 IEnMin= 1 EnMin= -243.449623079270     IErMin= 1 ErrMin= 2.15D-05
 ErrMax= 2.15D-05  0.00D+00 EMaxC= 1.00D-01 BMatC= 7.35D-08 BMatP= 7.35D-08
 IDIUse=1 WtCom= 1.00D+00 WtEn= 0.00D+00
 Coeff-Com:  0.100D+01
 Coeff:      0.100D+01
 Gap=     0.265 Goal=   None    Shift=    0.000
 RMSDP=8.35D-06 MaxDP=1.83D-04 DE=-2.73D-06 OVMax= 1.47D-04

 Cycle   7  Pass 1  IDiag  1:
 E= -243.449623029571     Delta-E=        0.000000049699 Rises=F Damp=F
 DIIS: error= 3.48D-05 at cycle   2 NSaved=   2.
 NSaved= 2 IEnMin= 1 EnMin= -243.449623079270     IErMin= 1 ErrMin= 2.15D-05
 ErrMax= 3.48D-05  0.00D+00 EMaxC= 1.00D-01 BMatC= 1.37D-07 BMatP= 7.35D-08
 IDIUse=1 WtCom= 1.00D+00 WtEn= 0.00D+00
 Coeff-Com:  0.581D+00 0.419D+00
 Coeff:      0.581D+00 0.419D+00
 Gap=     0.265 Goal=   None    Shift=    0.000
 RMSDP=3.38D-06 MaxDP=7.80D-05 DE= 4.97D-08 OVMax= 9.86D-05

 Cycle   8  Pass 1  IDiag  1:
 E= -243.449623144123     Delta-E=       -0.000000114552 Rises=F Damp=F
 DIIS: error= 3.35D-06 at cycle   3 NSaved=   3.
 NSaved= 3 IEnMin= 3 EnMin= -243.449623144123     IErMin= 3 ErrMin= 3.35D-06
 ErrMax= 3.35D-06  0.00D+00 EMaxC= 1.00D-01 BMatC= 2.06D-09 BMatP= 7.35D-08
 IDIUse=1 WtCom= 1.00D+00 WtEn= 0.00D+00
 Coeff-Com:  0.156D+00 0.159D+00 0.685D+00
 Coeff:      0.156D+00 0.159D+00 0.685D+00
 Gap=     0.265 Goal=   None    Shift=    0.000
 RMSDP=5.76D-07 MaxDP=1.30D-05 DE=-1.15D-07 OVMax= 2.34D-05

 Cycle   9  Pass 1  IDiag  1:
 E= -243.449623144592     Delta-E=       -0.000000000470 Rises=F Damp=F
 DIIS: error= 3.89D-06 at cycle   4 NSaved=   4.
 NSaved= 4 IEnMin= 4 EnMin= -243.449623144592     IErMin= 3 ErrMin= 3.35D-06
 ErrMax= 3.89D-06  0.00D+00 EMaxC= 1.00D-01 BMatC= 1.64D-09 BMatP= 2.06D-09
 IDIUse=1 WtCom= 1.00D+00 WtEn= 0.00D+00
 Coeff-Com:  0.481D-01 0.692D-01 0.498D+00 0.384D+00
 Coeff:      0.481D-01 0.692D-01 0.498D+00 0.384D+00
 Gap=     0.265 Goal=   None    Shift=    0.000
 RMSDP=3.66D-07 MaxDP=9.14D-06 DE=-4.70D-10 OVMax= 1.57D-05

 Cycle  10  Pass 1  IDiag  1:
 E= -243.449623145903     Delta-E=       -0.000000001311 Rises=F Damp=F
 DIIS: error= 9.55D-07 at cycle   5 NSaved=   5.
 NSaved= 5 IEnMin= 5 EnMin= -243.449623145903     IErMin= 5 ErrMin= 9.55D-07
 ErrMax= 9.55D-07  0.00D+00 EMaxC= 1.00D-01 BMatC= 1.09D-10 BMatP= 1.64D-09
 IDIUse=1 WtCom= 1.00D+00 WtEn= 0.00D+00
 Coeff-Com: -0.788D-02 0.702D-02 0.172D+00 0.237D+00 0.592D+00
 Coeff:     -0.788D-02 0.702D-02 0.172D+00 0.237D+00 0.592D+00
 Gap=     0.265 Goal=   None    Shift=    0.000
 RMSDP=1.04D-07 MaxDP=1.92D-06 DE=-1.31D-09 OVMax= 3.25D-06

 Cycle  11  Pass 1  IDiag  1:
 E= -243.449623145994     Delta-E=       -0.000000000091 Rises=F Damp=F
 DIIS: error= 1.76D-07 at cycle   6 NSaved=   6.
 NSaved= 6 IEnMin= 6 EnMin= -243.449623145994     IErMin= 6 ErrMin= 1.76D-07
 ErrMax= 1.76D-07  0.00D+00 EMaxC= 1.00D-01 BMatC= 6.95D-12 BMatP= 1.09D-10
 IDIUse=1 WtCom= 1.00D+00 WtEn= 0.00D+00
 Coeff-Com: -0.836D-02-0.136D-02 0.604D-01 0.100D+00 0.319D+00 0.530D+00
 Coeff:     -0.836D-02-0.136D-02 0.604D-01 0.100D+00 0.319D+00 0.530D+00
 Gap=     0.265 Goal=   None    Shift=    0.000
 RMSDP=2.43D-08 MaxDP=4.90D-07 DE=-9.13D-11 OVMax= 5.35D-07

 Cycle  12  Pass 1  IDiag  1:
 E= -243.449623146001     Delta-E=       -0.000000000007 Rises=F Damp=F
 DIIS: error= 1.74D-08 at cycle   7 NSaved=   7.
 NSaved= 7 IEnMin= 7 EnMin= -243.449623146001     IErMin= 7 ErrMin= 1.74D-08
 ErrMax= 1.74D-08  0.00D+00 EMaxC= 1.00D-01 BMatC= 7.38D-14 BMatP= 6.95D-12
 IDIUse=1 WtCom= 1.00D+00 WtEn= 0.00D+00
 Coeff-Com: -0.884D-03-0.536D-03 0.111D-02 0.475D-03 0.922D-02 0.689D-01
 Coeff-Com:  0.922D+00
 Coeff:     -0.884D-03-0.536D-03 0.111D-02 0.475D-03 0.922D-02 0.689D-01
 Coeff:      0.922D+00
 Gap=     0.265 Goal=   None    Shift=    0.000
 RMSDP=4.22D-09 MaxDP=7.54D-08 DE=-6.93D-12 OVMax= 1.10D-07

 SCF Done:  E(RB3LYP) =  -243.449623146     A.U. after   12 cycles
            NFock= 12  Conv=0.42D-08     -V/T= 2.0096
 KE= 2.411348566459D+02 PE=-8.869918934167D+02 EE= 2.422256343217D+02
 Leave Link  502 at Thu Sep  8 14:47:49 2022, MaxMem= 24159191040 cpu:        26.8
 (Enter /public/home/users/caep010/software/Gaussian09/g09/l701.exe)
 Compute integral first derivatives.
 ... and contract with generalized density number  0.
 Leave Link  701 at Thu Sep  8 14:47:49 2022, MaxMem= 24159191040 cpu:        10.5
 (Enter /public/home/users/caep010/software/Gaussian09/g09/l702.exe)
 L702 exits ... SP integral derivatives will be done elsewhere.
 Leave Link  702 at Thu Sep  8 14:47:49 2022, MaxMem= 24159191040 cpu:         0.6
 (Enter /public/home/users/caep010/software/Gaussian09/g09/l703.exe)
 Compute integral first derivatives, UseDBF=F ICtDFT=           0.
 Integral derivatives from FoFJK, PRISM(SPDF).
 Calling FoFJK, ICntrl=      2127 FMM=F ISym2X=0 I1Cent= 0 IOpClX= 0 NMat=1 NMatS=1 NMatT=0.
 FoFJK:  IHMeth= 1 ICntrl=    2127 DoSepK=F KAlg= 0 I1Cent=   0 FoldK=F
 IRaf=         0 NMat=   1 IRICut=       1 DoRegI=T DoRafI=F ISym2E= 0.
 FoFCou: FMM=F IPFlag=           0 FMFlag=      100000 FMFlg1=         800
         NFxFlg=           0 DoJE=F BraDBF=F KetDBF=F FulRan=T
         wScrn=  0.000000 ICntrl=    2127 IOpCl=  0 I1Cent=           0 NGrid=           0
         NMat0=    1 NMatS0=      1 NMatT0=    0 NMatD0=    1 NMtDS0=    0 NMtDT0=    0
 Symmetry not used in FoFCou.
 Leave Link  703 at Thu Sep  8 14:47:50 2022, MaxMem= 24159191040 cpu:         9.2
 (Enter /public/home/users/caep010/software/Gaussian09/g09/l716.exe)
 Dipole        =-2.08637266D+00 2.14156353D-02-2.67071980D-01
 ***** Axes restored to original set *****
 -------------------------------------------------------------------
 Center     Atomic                   Forces (Hartrees/Bohr)
 Number     Number              X              Y              Z
 -------------------------------------------------------------------
      1        7          -0.015786475    0.001456880    0.003374924
      2        6           0.014552047   -0.000280672   -0.000553400
      3        6          -0.000578936   -0.000208421   -0.002537577
      4        7          -0.000802043   -0.000312504   -0.001287193
      5        7          -0.000844820    0.001223791   -0.000389852
      6        1           0.000402925   -0.000062046   -0.000276791
      7        1          -0.000307841   -0.000977455    0.001837339
      8        1           0.001641006   -0.000727616   -0.001203309
      9        1           0.001912699    0.000268573   -0.001031778
     10        1          -0.000188561   -0.000380531    0.002067637
 -------------------------------------------------------------------
 Cartesian Forces:  Max     0.015786475 RMS     0.004103012
 Leave Link  716 at Thu Sep  8 14:47:50 2022, MaxMem= 24159191040 cpu:         0.6
 (Enter /public/home/users/caep010/software/Gaussian09/g09/l103.exe)

 GradGradGradGradGradGradGradGradGradGradGradGradGradGradGradGradGradGrad
 Berny optimization.
 Using GEDIIS/GDIIS optimizer.
 FormGI is forming the generalized inverse of G from B-inverse, IUseBI=4.
 Internal  Forces:  Max     0.016032241 RMS     0.003011852
 Search for a local minimum.
 Step number   3 out of a maximum of   45
 All quantities printed in internal units (Hartrees-Bohrs-Radians)
 RMS Force = .30119D-02 SwitMx=.10000D-02 MixMth= 1
 Mixed Optimization -- RFO/linear search
 Update second derivatives using D2CorX and points    1    3    2
 DE=  2.56D-04 DEPred=-1.71D-04 R=-1.50D+00
 Trust test=-1.50D+00 RLast= 1.15D-01 DXMaxT set to 1.50D-01
 ITU= -1  0  0
 Use linear search instead of GDIIS.
 Energy rises -- skip Quadratic/GDIIS search.
 Quartic linear search produced a step of -0.71849.
 Iteration  1 RMS(Cart)=  0.02315675 RMS(Int)=  0.00083955
[...]
     30  0.168297D-01  0.956202D-02 -0.775915D-02 -0.907886D-03  0.681305D-02
     31  0.181291D-01  0.897208D-02 -0.988255D-02 -0.402601D-03  0.753161D-02
     32 -0.655429D-02 -0.311585D-03 -0.310941D-03 -0.152344D-01  0.395528D-02
     33 -0.525489D-02 -0.901529D-03 -0.243434D-02 -0.147291D-01  0.467383D-02
     34 -0.104680D-01 -0.814728D-02  0.110773D-01  0.165490D-01 -0.134375D-01
     35 -0.916862D-02 -0.873722D-02  0.895388D-02  0.170543D-01 -0.127190D-01
               16            17            18            19            20 
     16  0.140193D+00
     17 -0.335419D-01  0.135833D+00
     18 -0.506257D-01 -0.499246D-01  0.580375D-01
     19  0.485247D-03  0.255164D-02 -0.669267D-03  0.135830D+00
     20  0.220229D-02  0.464340D-03 -0.623187D-03 -0.335176D-01  0.140191D+00
     21 -0.635603D-03 -0.661895D-03  0.569227D-03 -0.499285D-01 -0.506382D-01
     22 -0.945015D-03  0.318652D-03  0.129210D-03 -0.328609D-02 -0.798883D-03
     23  0.139980D-03  0.271371D-02 -0.171279D-02 -0.707703D-03  0.316268D-03
     24 -0.370201D-02 -0.256125D-02 -0.311719D-02  0.293129D-02 -0.178803D-02
     25 -0.101734D-03  0.652882D-03  0.553928D-02  0.401996D-02 -0.891425D-03
     26 -0.530281D-03 -0.303340D-02 -0.440049D-02 -0.547539D-02  0.423095D-02
     27  0.307000D-02  0.180730D-03  0.425599D-02 -0.438672D-02  0.512756D-02
     28 -0.110672D-02 -0.391693D-04 -0.548359D-02  0.102554D-02 -0.387976D-02
     29  0.249356D-02  0.317497D-02  0.317288D-02  0.211421D-02 -0.298315D-02
     30  0.914951D-03 -0.401011D-02  0.959886D-03 -0.671018D-03  0.122738D-03
     31  0.180938D-02 -0.292540D-02  0.852154D-03  0.255090D-02  0.372038D-02
     32 -0.513767D-02  0.437915D-02  0.341394D-04 -0.168509D-03 -0.307970D-02
     33 -0.424324D-02  0.546387D-02 -0.735926D-04  0.305341D-02  0.517947D-03
     34  0.297833D-02 -0.211345D-02 -0.808520D-03 -0.317361D-02 -0.249690D-02
     35  0.387276D-02 -0.102874D-02 -0.916252D-03  0.483114D-04  0.110074D-02
               21            22            23            24            25 
     21  0.580423D-01
     22  0.224280D-02  0.808146D-01
     23  0.327139D-03  0.238574D-02  0.507309D-01
     24 -0.859715D-03 -0.534094D-02  0.698259D-03  0.194427D-01
     25 -0.970545D-03 -0.556909D-02  0.382565D-03  0.116548D-01  0.188597D-01
     26  0.833430D-04  0.257912D-02  0.341627D-03 -0.225359D-02 -0.994943D-02
     27 -0.274868D-04  0.235097D-02  0.259335D-04 -0.100415D-01 -0.274450D-02
     28  0.919341D-03  0.203782D-02 -0.269592D-03 -0.324588D-02 -0.107477D-01
     29  0.808511D-03  0.180967D-02 -0.585286D-03 -0.110338D-01 -0.354273D-02
     30 -0.553697D-02  0.184373D-02 -0.402408D-02 -0.631984D-03 -0.140998D-02
     31  0.311616D-02  0.204218D-02 -0.386957D-02 -0.957254D-03 -0.624300D-03
     32 -0.426000D-02 -0.635834D-03  0.168199D-02  0.197262D-02  0.157952D-02
     33  0.439313D-02 -0.437381D-03  0.183649D-02  0.164735D-02  0.236520D-02
     34 -0.317222D-02 -0.109906D-02  0.130161D-02 -0.926129D-03 -0.140541D-02
     35  0.548091D-02 -0.900606D-03  0.145612D-02 -0.125140D-02 -0.619728D-03
               26            27            28            29            30 
     26  0.166609D-01
     27  0.896501D-02  0.162621D-01
     28 -0.988921D-03 -0.849070D-02  0.174386D-01
     29 -0.868476D-02 -0.119366D-02  0.993678D-02  0.174279D-01
     30  0.235267D-02  0.157468D-02 -0.624923D-03 -0.140292D-02  0.188415D-01
     31  0.163195D-02  0.196490D-02 -0.125911D-02 -0.926159D-03  0.116411D-01
     32 -0.527843D-02 -0.567154D-02  0.275757D-02  0.236446D-02 -0.273376D-02
     33 -0.599916D-02 -0.528132D-02  0.212338D-02  0.284122D-02 -0.993415D-02
     34  0.284626D-02  0.236698D-02 -0.106670D-02 -0.154597D-02 -0.354364D-02
     35  0.212553D-02  0.275720D-02 -0.170089D-02 -0.106921D-02 -0.107440D-01
               31            32            33            34            35 
     31  0.194325D-01
     32 -0.100340D-01  0.162564D-01
     33 -0.224254D-02  0.895611D-02  0.166477D-01
     34 -0.110350D-01 -0.119307D-02 -0.868446D-02  0.174297D-01
     35 -0.324357D-02 -0.849331D-02 -0.992859D-03  0.993827D-02  0.174387D-01
 Leave Link  716 at Thu Sep  8 14:48:10 2022, MaxMem= 24159191040 cpu:         1.2
 (Enter /public/home/users/caep010/software/Gaussian09/g09/l103.exe)

 GradGradGradGradGradGradGradGradGradGradGradGradGradGradGradGradGradGrad
 Berny optimization.
 Red2BG is reusing G-inverse.
 Internal  Forces:  Max     0.000028600 RMS     0.000012562
 Search for a local minimum.
 Step number   1 out of a maximum of    2
 All quantities printed in internal units (Hartrees-Bohrs-Radians)
 Second derivative matrix not updated -- analytic derivatives used.
 ITU=  0
     Eigenvalues ---    0.00273   0.00421   0.02306   0.02827   0.04604
     Eigenvalues ---    0.05861   0.06252   0.08477   0.10445   0.13924
     Eigenvalues ---    0.14308   0.14596   0.17385   0.19213   0.24412
     Eigenvalues ---    0.29633   0.32519   0.32835   0.38341   0.44627
     Eigenvalues ---    0.44829   0.45132   0.45178   1.27583
 Angle between quadratic step and forces=  68.51 degrees.
 Linear search not attempted -- first point.
 Iteration  1 RMS(Cart)=  0.00060812 RMS(Int)=  0.00000034
 Iteration  2 RMS(Cart)=  0.00000036 RMS(Int)=  0.00000002
 ITry= 1 IFail=0 DXMaxC= 1.74D-03 DCOld= 1.00D+10 DXMaxT= 3.00D-01 DXLimC= 3.00D+00 Rises=F
 Variable       Old X    -DE/DX   Delta X   Delta X   Delta X     New X
                                 (Linear)    (Quad)   (Total)
    R1        2.19159   0.00003   0.00000   0.00002   0.00002   2.19162
    R2        2.80110  -0.00002   0.00000  -0.00000  -0.00000   2.80109
    R3        2.76285  -0.00003   0.00000  -0.00013  -0.00013   2.76272
    R4        2.76285  -0.00002   0.00000  -0.00013  -0.00013   2.76272
    R5        2.07250   0.00001   0.00000   0.00001   0.00001   2.07252
    R6        1.92275   0.00000   0.00000  -0.00002  -0.00002   1.92274
    R7        1.92150  -0.00001   0.00000  -0.00004  -0.00004   1.92146
    R8        1.92150  -0.00001   0.00000  -0.00004  -0.00004   1.92146
    R9        1.92275   0.00000   0.00000  -0.00002  -0.00002   1.92274
    A1        1.88153  -0.00000   0.00000  -0.00004  -0.00004   1.88149
    A2        1.88154  -0.00000   0.00000  -0.00005  -0.00005   1.88149
    A3        1.86816  -0.00001   0.00000  -0.00006  -0.00006   1.86809
    A4        2.09878  -0.00000   0.00000   0.00003   0.00003   2.09881
    A5        1.86123   0.00001   0.00000   0.00005   0.00005   1.86128
    A6        1.86122   0.00001   0.00000   0.00006   0.00006   1.86128
    A7        1.93155   0.00002   0.00000   0.00021   0.00021   1.93176
    A8        1.91862  -0.00001   0.00000   0.00009   0.00009   1.91871
    A9        1.88224   0.00000   0.00000   0.00018   0.00018   1.88242
   A10        1.91861  -0.00001   0.00000   0.00010   0.00010   1.91871
   A11        1.93155   0.00002   0.00000   0.00021   0.00021   1.93176
   A12        1.88223   0.00000   0.00000   0.00018   0.00018   1.88241
   A13        3.12061  -0.00003   0.00000  -0.00031  -0.00031   3.12029
   A14        3.16446   0.00000   0.00000  -0.00001  -0.00001   3.16446
    D1        1.15964   0.00000   0.00000   0.00110   0.00110   1.16074
    D2       -3.04620   0.00001   0.00000   0.00151   0.00151  -3.04470
    D3       -1.00441   0.00001   0.00000   0.00118   0.00118  -1.00323
    D4        1.07293   0.00002   0.00000   0.00159   0.00159   1.07452
    D5       -3.12242  -0.00000   0.00000   0.00104   0.00104  -3.12139
    D6       -1.04508   0.00000   0.00000   0.00144   0.00144  -1.04364
    D7        3.04615  -0.00001   0.00000  -0.00144  -0.00144   3.04470
    D8       -1.15971   0.00000   0.00000  -0.00102  -0.00102  -1.16073
    D9       -1.07299  -0.00002   0.00000  -0.00152  -0.00152  -1.07451
   D10        1.00434  -0.00001   0.00000  -0.00110  -0.00110   1.00324
   D11        1.04502  -0.00000   0.00000  -0.00137  -0.00137   1.04365
   D12        3.12235   0.00000   0.00000  -0.00096  -0.00096   3.12139
         Item               Value     Threshold  Converged?
 Maximum Force            0.000029     0.000450     YES
 RMS     Force            0.000013     0.000300     YES
 Maximum Displacement     0.001736     0.001800     YES
 RMS     Displacement     0.000608     0.001200     YES
 Predicted change in Energy=-6.139134D-08
 Optimization completed.
    -- Stationary point found.
                           ----------------------------
                           !   Optimized Parameters   !
                           ! (Angstroms and Degrees)  !
 --------------------------                            --------------------------
 ! Name  Definition              Value          Derivative Info.                !
 --------------------------------------------------------------------------------
 ! R1    R(1,2)                  1.1597         -DE/DX =    0.0                 !
 ! R2    R(2,3)                  1.4823         -DE/DX =    0.0                 !
 ! R3    R(3,4)                  1.462          -DE/DX =    0.0                 !
 ! R4    R(3,5)                  1.462          -DE/DX =    0.0                 !
 ! R5    R(3,6)                  1.0967         -DE/DX =    0.0                 !
 ! R6    R(4,7)                  1.0175         -DE/DX =    0.0                 !
 ! R7    R(4,8)                  1.0168         -DE/DX =    0.0                 !
 ! R8    R(5,9)                  1.0168         -DE/DX =    0.0                 !
 ! R9    R(5,10)                 1.0175         -DE/DX =    0.0                 !
 ! A1    A(2,3,4)              107.8036         -DE/DX =    0.0                 !
 ! A2    A(2,3,5)              107.8043         -DE/DX =    0.0                 !
 ! A3    A(2,3,6)              107.0374         -DE/DX =    0.0                 !
 ! A4    A(4,3,5)              120.2515         -DE/DX =    0.0                 !
 ! A5    A(4,3,6)              106.6405         -DE/DX =    0.0                 !
 ! A6    A(5,3,6)              106.6403         -DE/DX =    0.0                 !
 ! A7    A(3,4,7)              110.6699         -DE/DX =    0.0                 !
 ! A8    A(3,4,8)              109.9288         -DE/DX =    0.0                 !
 ! A9    A(7,4,8)              107.8442         -DE/DX =    0.0                 !
 ! A10   A(3,5,9)              109.9284         -DE/DX =    0.0                 !
 ! A11   A(3,5,10)             110.6698         -DE/DX =    0.0                 !
 ! A12   A(9,5,10)             107.8439         -DE/DX =    0.0                 !
 ! A13   L(1,2,3,10,-1)        178.7977         -DE/DX =    0.0                 !
 ! A14   L(1,2,3,10,-2)        181.3103         -DE/DX =    0.0                 !
 ! D1    D(2,3,4,7)             66.4427         -DE/DX =    0.0                 !
 ! D2    D(2,3,4,8)           -174.5346         -DE/DX =    0.0                 !
 ! D3    D(5,3,4,7)            -57.5485         -DE/DX =    0.0                 !
 ! D4    D(5,3,4,8)             61.4743         -DE/DX =    0.0                 !
 ! D5    D(6,3,4,7)           -178.9015         -DE/DX =    0.0                 !
 ! D6    D(6,3,4,8)            -59.8788         -DE/DX =    0.0                 !
 ! D7    D(2,3,5,9)            174.5313         -DE/DX =    0.0                 !
 ! D8    D(2,3,5,10)           -66.4465         -DE/DX =    0.0                 !
 ! D9    D(4,3,5,9)            -61.4779         -DE/DX =    0.0                 !
 ! D10   D(4,3,5,10)            57.5443         -DE/DX =    0.0                 !
 ! D11   D(6,3,5,9)             59.8753         -DE/DX =    0.0                 !
 ! D12   D(6,3,5,10)           178.8975         -DE/DX =    0.0                 !
 --------------------------------------------------------------------------------
 GradGradGradGradGradGradGradGradGradGradGradGradGradGradGradGradGradGrad

 Leave Link  103 at Thu Sep  8 14:48:10 2022, MaxMem= 24159191040 cpu:         1.1
 (Enter /public/home/users/caep010/software/Gaussian09/g09/l9999.exe)
 1\1\GINC-B1521\Freq\RB3LYP\6-31G(d,p)\C2H5N3\ROOT\08-Sep-2022\0\\#P Ge
 om=AllCheck Guess=TCheck SCRF=Check GenChk RB3LYP/6-31G(d,p) Freq\\Fra
 g_1148\\0,1\N,2.5605798074,-0.6048096375,-0.6509863458\C,1.5083744812,
 -0.4309863037,-0.1952998841\C,0.1520614755,-0.1908308727,0.3523175514\
 N,-0.0336468609,1.2547107609,0.4684255414\N,-0.7917184067,-0.994814693
 4,-0.4225662005\H,0.1420306868,-0.5917566604,1.3730801657\H,-0.0521273
 273,1.6894623129,-0.4513073743\H,-0.9196653446,1.4547126932,0.92546457
 5\H,-1.7214610894,-0.9246447499,-0.0168948876\H,-0.844327422,-0.661142
 8495,-1.3823341413\\Version=ES64L-G09RevE.01\State=1-A\HF=-243.4499488
 \RMSD=1.950e-09\RMSF=1.916e-05\ZeroPoint=0.0806776\Thermal=0.0863425\D
 ipole=-1.9911688,0.5944119,0.1930118\DipoleDeriv=-0.2518537,0.0060199,
 -0.0405608,-0.0028123,-0.2864892,0.013946,-0.0182968,0.0064365,-0.2826
 547,-0.0583495,0.0213082,0.0039901,0.0190617,0.0108199,-0.0188481,0.00
 95411,-0.0207333,0.0540419,0.8559541,0.0490321,0.1491169,0.0297397,1.0
 77018,0.2263535,0.1978965,0.2099263,0.4783102,-0.4562549,-0.1144542,-0
 .1365486,-0.1233085,-0.8221264,-0.2392994,-0.1035237,-0.2073373,-0.328
 4049,-0.4583432,-0.1212335,-0.1169723,-0.1284343,-0.8389675,-0.1799313
 ,-0.1094562,-0.2255611,-0.3094544,-0.0176402,0.0021263,0.0190959,0.011
 2703,-0.001741,0.022935,-0.0039652,0.0307079,-0.063,0.223454,0.1233586
 ,-0.0100742,0.0520723,0.1845645,-0.0050339,0.0071284,0.0870458,0.02540
 47,0.0132883,0.0965448,0.1262015,0.0075504,0.1708404,0.0602912,0.02979
 81,0.098949,0.2320233,0.0127618,0.0038191,0.0371497,0.1390747,0.290622
 2,-0.0475561,0.0167928,-0.0468548,0.1127544,0.1369833,-0.0665214,-0.03
 13983,-0.0042141,0.2154592,0.1671431,-0.0259151,0.067421,0.0809795\Pol
 ar=46.3097128,-2.2234483,32.6454315,-6.0179457,1.8541973,33.0667926\PG
 =C01 [X(C2H5N3)]\NImag=0\\1.05378286,-0.17144236,0.04575347,-0.4481235
 9,0.07462284,0.21016450,-1.05871320,0.16944825,0.44268233,1.33133306,0
 .17020271,-0.06287768,-0.07382405,-0.20408161,0.14785698,0.44081992,-0
 .07318970,-0.22479107,-0.51879386,0.09110692,0.32630918,0.00789033,0.0
 0107718,0.00211399,-0.21013822,0.02596475,0.06677353,0.50577896,-0.001
 47203,0.01431366,-0.00066117,0.03123120,-0.06277304,-0.00588961,-0.020
 53396,0.43638221,0.00851400,-0.00282291,0.01343955,0.05351146,-0.00141
 510,-0.09653291,-0.03509925,-0.06537607,0.59848146,-0.00095379,-0.0024
 3449,0.00115766,-0.01327970,0.03683563,0.00505676,-0.07977788,0.053009
 32,0.02505768,0.44064229,-0.00027882,0.00142141,0.00048074,0.01601476,
 -0.01892554,-0.00701697,-0.00069844,-0.18826883,-0.00307554,-0.1304291
 8,0.43530107,0.00149077,0.00165316,-0.00033523,0.01057702,-0.02059503,
 -0.00183919,0.01393279,0.02017103,-0.09516467,-0.19152087,-0.12505345,
 0.55989444,0.00070227,0.00180747,0.00271145,-0.04316077,-0.01930483,-0
 .01705843,-0.13860703,-0.07012713,-0.04069633,0.00841971,-0.00866639,-
 0.00361405,0.59626247,0.00022107,0.00088385,-0.00011113,-0.00991889,0.
 00069044,0.00111674,-0.01786146,-0.08658377,-0.01318407,-0.03104240,-0
 .04161269,-0.02941350,0.05907488,0.18952906,0.00093541,-0.00079820,-0.
 00145713,0.00629894,0.00496495,0.00843044,-0.02592538,-0.03765533,-0.1
 3802652,-0.00762388,-0.01501572,0.00376427,-0.06169861,-0.05993799,0.6
 5005204,-0.00222374,0.00193276,-0.00268288,-0.00415198,-0.01098613,0.0
 3148289,-0.05226781,-0.00169160,0.01338946,0.00304531,0.00372838,-0.00
 632249,-0.00043417,0.00294887,-0.02820425,0.05742551,0.00137040,-0.000
 27978,0.00044886,-0.00158669,0.00304214,-0.00570116,0.00183647,-0.0764
 3354,0.08650702,-0.00285081,-0.02497693,0.03216015,-0.00262832,0.00400
 120,-0.02037591,0.00383727,0.09989111,-0.00126238,-0.00003020,0.001508
 72,0.00775062,0.00229676,-0.01214212,0.00448229,0.08950845,-0.27135032
 ,0.00003307,0.00090274,0.00348411,-0.00386940,0.00053957,-0.02201505,-
 0.00313190,-0.09102587,0.29761117,-0.00053509,-0.00054602,0.00065460,0
 .00103597,0.00094138,-0.00221964,-0.00212220,-0.00389891,-0.00816769,-
 0.03348066,0.03521757,-0.01174672,-0.00042531,0.00165360,0.00156817,0.
 00102861,0.00282730,0.00007356,0.03570749,0.00034502,0.00009987,-0.000
 41629,-0.00142808,0.00046388,0.00067702,0.00269052,-0.02049988,0.03915
 100,0.01602799,-0.10689654,0.12840056,-0.00007510,0.00452042,-0.000586
 86,0.00199519,-0.00627145,-0.00112026,-0.01773626,0.12616771,-0.000043
 19,0.00001458,-0.00010050,-0.00045951,0.00017069,0.00045542,-0.0036012
 4,-0.00767806,0.00184565,0.02466345,0.15806738,-0.36153112,0.00091928,
 -0.00108900,0.00224659,-0.00027992,-0.00044944,0.00198977,-0.01317131,
 -0.15600148,0.37149753,0.00007652,-0.00008272,0.00003752,-0.00020909,0
 .00274146,0.00000599,-0.00689192,-0.00862190,-0.00235620,-0.32786895,0
 .08425447,0.18532510,0.00181191,-0.00057241,-0.00048721,0.00006569,0.0
 0024972,-0.00043302,-0.00177763,-0.00084060,-0.00845129,0.33447226,0.0
 0038294,0.00099594,-0.00039534,0.00195331,-0.00747464,-0.00008440,0.03
 736694,-0.01085617,-0.01889600,0.05737606,-0.06072727,-0.00926036,-0.0
 0122928,0.00298798,0.00101290,-0.00049071,0.00110060,0.00028328,-0.017
 23177,0.00369003,0.00629157,-0.07700770,0.07147735,-0.00143385,-0.0003
 4817,0.00034924,0.00107565,0.00074184,0.00155983,0.00214904,-0.0039346
 3,-0.00165636,0.14092518,-0.01047579,-0.11144455,-0.00087868,0.0024909
 7,-0.00003094,-0.00087733,0.00008845,0.00021985,0.03306719,-0.00873617
 ,-0.01622017,-0.17416491,0.02170433,0.12745927,0.00037403,0.00011120,0
 .00041881,-0.00433408,-0.00254742,-0.00368814,-0.02281002,0.00878091,0
 .01211317,0.00347251,0.00082783,0.00041809,-0.36331922,0.00262401,0.14
 054079,0.00073640,0.00030807,-0.00027266,-0.00019230,-0.00039080,-0.00
 000299,0.00024491,-0.00105662,-0.00008152,0.38334932,0.00068723,-0.000
 15127,0.00005265,-0.00244640,0.00010699,-0.00182577,-0.02551352,-0.005
 64985,0.00564452,0.00187687,0.00173695,0.00155851,0.05029319,-0.011628
 38,-0.02680570,0.00110177,0.00009307,0.00029159,-0.00045509,-0.0004981
 2,0.00014941,-0.00018273,-0.00083903,-0.00110782,-0.01301818,0.0206579
 2,-0.00074272,0.00089234,0.00119816,-0.00301969,-0.00323823,-0.0018958
 9,-0.02191457,0.00062885,0.00905530,-0.00018124,0.00041452,-0.00044117
 ,0.13245087,-0.00789817,-0.12509358,0.00003700,0.00053157,0.00055689,0
 .00022645,0.00000253,-0.00001798,0.00055455,-0.00024756,0.00019383,-0.
 14462395,0.01406859,0.12940261,-0.00040018,0.00012872,0.00103010,0.001
 61800,0.00023406,-0.00237903,-0.00105421,0.01332411,-0.02626631,-0.000
 21885,0.00002983,0.00146035,-0.06124986,-0.00712728,-0.02540397,-0.003
 22382,-0.00336341,-0.00337018,0.00076113,-0.00058787,0.00042673,0.0000
 7631,-0.00006316,0.00021924,0.00247845,-0.01234314,0.03721331,0.061213
 05,-0.00001615,-0.00015947,-0.00019711,0.00081417,-0.00010952,0.000806
 92,-0.00432848,0.00036923,-0.02653284,0.00163102,0.00294838,0.00037894
 ,-0.00914449,-0.06278810,0.15519787,-0.00237581,-0.00016641,-0.0016460
 5,-0.00077179,-0.00077591,0.00052436,0.00006240,-0.00035479,-0.0004230
 2,0.00436099,-0.00382828,-0.00515444,0.00976814,0.06486487,-0.00015437
 ,0.00000627,0.00002375,0.00037705,-0.00020876,0.00044628,-0.00291120,0
 .01088655,-0.02009119,0.00243219,0.00077209,0.00361311,-0.00826611,0.1
 0748657,-0.37787012,-0.00341059,-0.00218367,0.00013698,-0.00028461,-0.
 00137005,-0.00016519,-0.00003053,-0.00040842,-0.00042999,-0.00482160,0
 .00797403,-0.01295817,0.01706976,-0.12295461,0.40729454\\-0.00002032,0
 .00000975,0.00001479,0.00003485,-0.00000817,-0.00005119,0.00003318,-0.
 00000107,-0.00001168,-0.00000108,0.00002401,0.00004084,-0.00001913,-0.
 00003801,0.00001530,-0.00000099,0.00000265,-0.00000544,-0.00000100,-0.
 00000945,0.00000189,-0.00001534,0.00000573,-0.00000743,-0.00001378,0.0
 0000968,-0.00000488,0.00000361,0.00000489,0.00000781\\\@


 TIME IS NATURE'S WAY OF MAKING SURE EVERYTHING
 DOESN'T HAPPEN AT ONCE.
                     - WOODY ALLEN
 Job cpu time:       0 days  0 hours  3 minutes 33.7 seconds.
 File lengths (MBytes):  RWF=     15 Int=      0 D2E=      0 Chk=      2 Scr=      1
 Normal termination of Gaussian 09 at Thu Sep  8 14:48:10 2022.
