 Entering Gaussian System, Link 0=g09
 Input=B3LYP6-31Gdp.Frag_678.gjf
 Output=B3LYP6-31Gdp.Frag_678.log
 Initial command:
 /public/home/users/caep010/software/Gaussian09/g09/l1.exe "/public/home/users/caep010/.cache/gau_scr/Gau-131112.inp" -scrdir="/public/home/users/caep010/.cache/gau_scr/"
 Entering Link 1 = /public/home/users/caep010/software/Gaussian09/g09/l1.exe PID=    131113.
  
 Copyright (c) 1988,1990,1992,1993,1995,1998,2003,2009,2015,
            Gaussian, Inc.  All Rights Reserved.
  
 This is part of the Gaussian(R) 09 program.  It is based on
 the Gaussian(R) 03 system (copyright 2003, Gaussian, Inc.),
 the Gaussian(R) 98 system (copyright 1998, Gaussian, Inc.),
 the Gaussian(R) 94 system (copyright 1995, Gaussian, Inc.),
 the Gaussian 92(TM) system (copyright 1992, Gaussian, Inc.),
 the Gaussian 90(TM) system (copyright 1990, Gaussian, Inc.),
 the Gaussian 88(TM) system (copyright 1988, Gaussian, Inc.),
 the Gaussian 86(TM) system (copyright 1986, Carnegie Mellon
 University), and the Gaussian 82(TM) system (copyright 1983,
 Carnegie Mellon University). Gaussian is a federally registered
 trademark of Gaussian, Inc.
  
 This software contains proprietary and confidential information,
 including trade secrets, belonging to Gaussian, Inc.
  
 This software is provided under written license and may be
 used, copied, transmitted, or stored only in accord with that
 written license.
  
 The following legend is applicable only to US Government
 contracts under FAR:
  
                    RESTRICTED RIGHTS LEGEND
  
 Use, reproduction and disclosure by the US Government is
 subject to restrictions as set forth in subparagraphs (a)
 and (c) of the Commercial Computer Software - Restricted
 Rights clause in FAR 52.227-19.
  
 Gaussian, Inc.
 340 Quinnipiac St., Bldg. 40, Wallingford CT 06492
  
  
 ---------------------------------------------------------------
 Warning -- This program may not be used in any manner that
 competes with the business of Gaussian, Inc. or will provide
 assistance to any competitor of Gaussian, Inc.  The licensee
 of this program is prohibited from giving any competitor of
 Gaussian, Inc. access to this program.  By using this program,
 the user acknowledges that Gaussian, Inc. is engaged in the
 business of creating and licensing software in the field of
 computational chemistry and represents and warrants to the
 licensee that it is not a competitor of Gaussian, Inc. and that
 it will not use this program in any manner prohibited above.
 ---------------------------------------------------------------
  

 Cite this work as:
 Gaussian 09, Revision E.01,
 M. J. Frisch, G. W. Trucks, H. B. Schlegel, G. E. Scuseria, 
 M. A. Robb, J. R. Cheeseman, G. Scalmani, V. Barone, B. Mennucci, 
 G. A. Petersson, H. Nakatsuji, M. Caricato, X. Li, H. P. Hratchian, 
 A. F. Izmaylov, J. Bloino, G. Zheng, J. L. Sonnenberg, M. Hada, 
 M. Ehara, K. Toyota, R. Fukuda, J. Hasegawa, M. Ishida, T. Nakajima, 
 Y. Honda, O. Kitao, H. Nakai, T. Vreven, J. A. Montgomery, Jr., 
 J. E. Peralta, F. Ogliaro, M. Bearpark, J. J. Heyd, E. Brothers, 
 K. N. Kudin, V. N. Staroverov, T. Keith, R. Kobayashi, J. Normand, 
 K. Raghavachari, A. Rendell, J. C. Burant, S. S. Iyengar, J. Tomasi, 
 M. Cossi, N. Rega, J. M. Millam, M. Klene, J. E. Knox, J. B. Cross, 
 V. Bakken, C. Adamo, J. Jaramillo, R. Gomperts, R. E. Stratmann, 
 O. Yazyev, A. J. Austin, R. Cammi, C. Pomelli, J. W. Ochterski, 
 R. L. Martin, K. Morokuma, V. G. Zakrzewski, G. A. Voth, 
 P. Salvador, J. J. Dannenberg, S. Dapprich, A. D. Daniels, 
 O. Farkas, J. B. Foresman, J. V. Ortiz, J. Cioslowski, 
 and D. J. Fox, Gaussian, Inc., Wallingford CT, 2013.
 
 ******************************************
 Gaussian 09:  ES64L-G09RevE.01 30-Nov-2015
                 8-Sep-2022 
 ******************************************
 %nproc=32
 Will use up to   32 processors via shared memory.
 %mem=180GB
 %chk=B3LYP6-31Gdp.Frag_678.chk
 ----------------------------
 #P OPT Freq B3LYP/6-31G(d,p)
 ----------------------------
 1/14=-1,18=20,19=15,26=3,38=1/1,3;
 2/9=110,12=2,17=6,18=5,40=1/2;
 3/5=1,6=6,7=101,11=2,16=1,25=1,30=1,71=1,74=-5/1,2,3;
 4//1;
 5/5=2,38=5/2;
 6/7=2,8=2,9=2,10=2,28=1/1;
 7//1,2,3,16;
 1/14=-1,18=20,19=15,26=3/3(2);
 2/9=110/2;
 99//99;
 2/9=110/2;
 3/5=1,6=6,7=101,11=2,16=1,25=1,30=1,71=1,74=-5/1,2,3;
 4/5=5,16=3,69=1/1;
 5/5=2,38=5/2;
 7//1,2,3,16;
 1/14=-1,18=20,19=15,26=3/3(-5);
 2/9=110/2;
 6/7=2,8=2,9=2,10=2,19=2,28=1/1;
 99/9=1/99;
 Leave Link    1 at Thu Sep  8 15:15:58 2022, MaxMem= 24159191040 cpu:         2.2
 (Enter /public/home/users/caep010/software/Gaussian09/g09/l101.exe)
 --------
 Frag_678
 --------
 Symbolic Z-matrix:
 Charge =  0 Multiplicity = 1
 C                     1.89032   0.33578  -0.84716 
 C                     1.11367   0.09104   0.20847 
 O                     1.59531  -0.28826   1.42658 
 C                    -0.40747   0.1584    0.23673 
 C                    -1.00311   0.60484  -1.10307 
 C                    -0.97171  -1.21325   0.65124 
 O                    -0.71143   1.13444   1.24221 
 H                     2.9703    0.24166  -0.78455 
 H                     1.48131   0.64133  -1.7977 
 H                     2.55771  -0.30737   1.38548 
 H                    -0.63356   1.59575  -1.37633 
 H                    -2.09308   0.66262  -1.01054 
 H                    -0.77493  -0.09882  -1.90865 
 H                    -0.71978  -1.98234  -0.08543 
 H                    -0.5683   -1.50905   1.62054 
 H                    -2.0647   -1.16114   0.72125 
 H                    -1.66055   1.09457   1.40103 
 
 NAtoms=     17 NQM=       17 NQMF=       0 NMMI=      0 NMMIF=      0
                NMic=       0 NMicF=      0.
                    Isotopes and Nuclear Properties:
 (Nuclear quadrupole moments (NQMom) in fm**2, nuclear magnetic moments (NMagM)
  in nuclear magnetons)

  Atom         1           2           3           4           5           6           7           8           9          10
 IAtWgt=          12          12          16          12          12          12          16           1           1           1
 AtmWgt=  12.0000000  12.0000000  15.9949146  12.0000000  12.0000000  12.0000000  15.9949146   1.0078250   1.0078250   1.0078250
 NucSpn=           0           0           0           0           0           0           0           1           1           1
 AtZEff=   0.0000000   0.0000000   0.0000000   0.0000000   0.0000000   0.0000000   0.0000000   0.0000000   0.0000000   0.0000000
 NQMom=    0.0000000   0.0000000   0.0000000   0.0000000   0.0000000   0.0000000   0.0000000   0.0000000   0.0000000   0.0000000
 NMagM=    0.0000000   0.0000000   0.0000000   0.0000000   0.0000000   0.0000000   0.0000000   2.7928460   2.7928460   2.7928460
 AtZNuc=   6.0000000   6.0000000   8.0000000   6.0000000   6.0000000   6.0000000   8.0000000   1.0000000   1.0000000   1.0000000

  Atom        11          12          13          14          15          16          17
 IAtWgt=           1           1           1           1           1           1           1
 AtmWgt=   1.0078250   1.0078250   1.0078250   1.0078250   1.0078250   1.0078250   1.0078250
 NucSpn=           1           1           1           1           1           1           1
 AtZEff=   0.0000000   0.0000000   0.0000000   0.0000000   0.0000000   0.0000000   0.0000000
 NQMom=    0.0000000   0.0000000   0.0000000   0.0000000   0.0000000   0.0000000   0.0000000
 NMagM=    2.7928460   2.7928460   2.7928460   2.7928460   2.7928460   2.7928460   2.7928460
 AtZNuc=   1.0000000   1.0000000   1.0000000   1.0000000   1.0000000   1.0000000   1.0000000
 Leave Link  101 at Thu Sep  8 15:15:58 2022, MaxMem= 24159191040 cpu:        10.9
 (Enter /public/home/users/caep010/software/Gaussian09/g09/l103.exe)

 GradGradGradGradGradGradGradGradGradGradGradGradGradGradGradGradGradGrad
 Berny optimization.
 Initialization pass.
                           ----------------------------
                           !    Initial Parameters    !
                           ! (Angstroms and Degrees)  !
 --------------------------                            --------------------------
 ! Name  Definition              Value          Derivative Info.                !
 --------------------------------------------------------------------------------
 ! R1    R(1,2)                  1.3332         estimate D2E/DX2                !
 ! R2    R(1,8)                  1.0859         estimate D2E/DX2                !
 ! R3    R(1,9)                  1.079          estimate D2E/DX2                !
 ! R4    R(2,3)                  1.3637         estimate D2E/DX2                !
 ! R5    R(2,4)                  1.5229         estimate D2E/DX2                !
 ! R6    R(3,10)                 0.9635         estimate D2E/DX2                !
 ! R7    R(4,5)                  1.5327         estimate D2E/DX2                !
 ! R8    R(4,6)                  1.54           estimate D2E/DX2                !
 ! R9    R(4,7)                  1.4339         estimate D2E/DX2                !
 ! R10   R(5,11)                 1.0923         estimate D2E/DX2                !
 ! R11   R(5,12)                 1.0954         estimate D2E/DX2                !
 ! R12   R(5,13)                 1.0937         estimate D2E/DX2                !
 ! R13   R(6,14)                 1.0944         estimate D2E/DX2                !
 ! R14   R(6,15)                 1.0908         estimate D2E/DX2                !
 ! R15   R(6,16)                 1.0965         estimate D2E/DX2                !
 ! R16   R(7,17)                 0.9631         estimate D2E/DX2                !
 ! A1    A(2,1,8)              121.1856         estimate D2E/DX2                !
 ! A2    A(2,1,9)              121.9182         estimate D2E/DX2                !
 ! A3    A(8,1,9)              116.895          estimate D2E/DX2                !
 ! A4    A(1,2,3)              123.5445         estimate D2E/DX2                !
 ! A5    A(1,2,4)              126.0472         estimate D2E/DX2                !
 ! A6    A(3,2,4)              110.3958         estimate D2E/DX2                !
 ! A7    A(2,3,10)             108.676          estimate D2E/DX2                !
 ! A8    A(2,4,5)              112.6332         estimate D2E/DX2                !
 ! A9    A(2,4,6)              109.3641         estimate D2E/DX2                !
 ! A10   A(2,4,7)              104.7651         estimate D2E/DX2                !
 ! A11   A(5,4,6)              110.6301         estimate D2E/DX2                !
 ! A12   A(5,4,7)              109.4098         estimate D2E/DX2                !
 ! A13   A(6,4,7)              109.8692         estimate D2E/DX2                !
 ! A14   A(4,5,11)             110.5758         estimate D2E/DX2                !
 ! A15   A(4,5,12)             109.1602         estimate D2E/DX2                !
 ! A16   A(4,5,13)             112.0486         estimate D2E/DX2                !
 ! A17   A(11,5,12)            108.0543         estimate D2E/DX2                !
 ! A18   A(11,5,13)            109.1966         estimate D2E/DX2                !
 ! A19   A(12,5,13)            107.6824         estimate D2E/DX2                !
 ! A20   A(4,6,14)             111.1261         estimate D2E/DX2                !
 ! A21   A(4,6,15)             110.1951         estimate D2E/DX2                !
 ! A22   A(4,6,16)             109.8822         estimate D2E/DX2                !
 ! A23   A(14,6,15)            108.8115         estimate D2E/DX2                !
 ! A24   A(14,6,16)            107.8098         estimate D2E/DX2                !
 ! A25   A(15,6,16)            108.9538         estimate D2E/DX2                !
 ! A26   A(4,7,17)             107.2384         estimate D2E/DX2                !
 ! D1    D(8,1,2,3)              0.0245         estimate D2E/DX2                !
 ! D2    D(8,1,2,4)           -178.564          estimate D2E/DX2                !
 ! D3    D(9,1,2,3)           -179.5654         estimate D2E/DX2                !
 ! D4    D(9,1,2,4)              1.8461         estimate D2E/DX2                !
 ! D5    D(1,2,3,10)             2.2247         estimate D2E/DX2                !
 ! D6    D(4,2,3,10)          -178.9929         estimate D2E/DX2                !
 ! D7    D(1,2,4,5)             -2.264          estimate D2E/DX2                !
 ! D8    D(1,2,4,6)            121.1823         estimate D2E/DX2                !
 ! D9    D(1,2,4,7)           -121.0955         estimate D2E/DX2                !
 ! D10   D(3,2,4,5)            178.9911         estimate D2E/DX2                !
 ! D11   D(3,2,4,6)            -57.5626         estimate D2E/DX2                !
 ! D12   D(3,2,4,7)             60.1596         estimate D2E/DX2                !
 ! D13   D(2,4,5,11)           -59.5673         estimate D2E/DX2                !
 ! D14   D(2,4,5,12)          -178.3103         estimate D2E/DX2                !
 ! D15   D(2,4,5,13)            62.5035         estimate D2E/DX2                !
 ! D16   D(6,4,5,11)           177.6933         estimate D2E/DX2                !
 ! D17   D(6,4,5,12)            58.9503         estimate D2E/DX2                !
 ! D18   D(6,4,5,13)           -60.2359         estimate D2E/DX2                !
 ! D19   D(7,4,5,11)            56.5155         estimate D2E/DX2                !
 ! D20   D(7,4,5,12)           -62.2276         estimate D2E/DX2                !
 ! D21   D(7,4,5,13)           178.5862         estimate D2E/DX2                !
 ! D22   D(2,4,6,14)           -63.4739         estimate D2E/DX2                !
 ! D23   D(2,4,6,15)            57.2206         estimate D2E/DX2                !
 ! D24   D(2,4,6,16)           177.2896         estimate D2E/DX2                !
 ! D25   D(5,4,6,14)            61.1486         estimate D2E/DX2                !
 ! D26   D(5,4,6,15)          -178.1568         estimate D2E/DX2                !
 ! D27   D(5,4,6,16)           -58.0879         estimate D2E/DX2                !
 ! D28   D(7,4,6,14)          -177.9459         estimate D2E/DX2                !
 ! D29   D(7,4,6,15)           -57.2514         estimate D2E/DX2                !
 ! D30   D(7,4,6,16)            62.8176         estimate D2E/DX2                !
 ! D31   D(2,4,7,17)          -170.1802         estimate D2E/DX2                !
 ! D32   D(5,4,7,17)            68.8346         estimate D2E/DX2                !
 ! D33   D(6,4,7,17)           -52.8031         estimate D2E/DX2                !
 --------------------------------------------------------------------------------
 Trust Radius=3.00D-01 FncErr=1.00D-07 GrdErr=1.00D-06
 Number of steps in this run=     85 maximum allowed number of steps=    102.
 GradGradGradGradGradGradGradGradGradGradGradGradGradGradGradGradGradGrad

 Leave Link  103 at Thu Sep  8 15:15:58 2022, MaxMem= 24159191040 cpu:         0.6
 (Enter /public/home/users/caep010/software/Gaussian09/g09/l202.exe)
                          Input orientation:                          
 ---------------------------------------------------------------------
 Center     Atomic      Atomic             Coordinates (Angstroms)
 Number     Number       Type             X           Y           Z
 ---------------------------------------------------------------------
      1          6           0        1.890323    0.335779   -0.847162
      2          6           0        1.113671    0.091042    0.208467
      3          8           0        1.595305   -0.288255    1.426575
      4          6           0       -0.407471    0.158397    0.236733
      5          6           0       -1.003106    0.604839   -1.103067
      6          6           0       -0.971709   -1.213247    0.651235
      7          8           0       -0.711427    1.134438    1.242213
      8          1           0        2.970296    0.241664   -0.784548
      9          1           0        1.481314    0.641330   -1.797704
     10          1           0        2.557710   -0.307368    1.385482
     11          1           0       -0.633562    1.595748   -1.376325
     12          1           0       -2.093078    0.662615   -1.010537
     13          1           0       -0.774934   -0.098824   -1.908653
     14          1           0       -0.719778   -1.982344   -0.085428
     15          1           0       -0.568300   -1.509047    1.620536
     16          1           0       -2.064704   -1.161139    0.721253
     17          1           0       -1.660549    1.094571    1.401032
 ---------------------------------------------------------------------
                    Distance matrix (angstroms):
                    1          2          3          4          5
     1  C    0.000000
     2  C    1.333206   0.000000
     3  O    2.376202   1.363681   0.000000
     4  C    2.546792   1.522895   2.371989   0.000000
     5  C    2.917158   2.542608   3.734762   1.532696   0.000000
     6  C    3.582723   2.499204   2.836604   1.539995   2.526657
     7  O    3.431100   2.342710   2.716442   1.433888   2.421960
     8  H    1.085873   2.110882   2.657156   3.529767   4.002658
     9  H    1.078972   2.112510   3.357543   2.817741   2.579960
    10  H    2.417383   1.905084   0.963471   3.213854   4.438965
    11  H    2.870110   2.797951   4.046426   2.172338   1.092306
    12  H    4.000125   3.477917   4.521929   2.156662   1.095417
    13  H    2.901592   2.843427   4.096055   2.191774   1.093697
    14  H    3.573032   2.783314   3.242792   2.187258   2.794527
    15  H    3.941794   2.717214   2.491815   2.172820   3.474994
    16  H    4.510313   3.454414   3.828194   2.173098   2.752056
    17  H    4.270695   3.182071   3.537435   1.949928   2.634878
                    6          7          8          9         10
     6  C    0.000000
     7  O    2.434877   0.000000
     8  H    4.440455   4.296497   0.000000
     9  H    3.931168   3.780524   1.844800   0.000000
    10  H    3.717060   3.575834   2.276114   3.491608   0.000000
    11  H    3.480775   2.660002   3.895066   2.358214   4.629649
    12  H    2.745508   2.684485   5.085865   3.660104   5.320865
    13  H    2.798872   3.384217   3.925085   2.377140   4.690558
    14  H    1.094373   3.387777   4.364817   3.828885   3.963716
    15  H    1.090771   2.674253   4.622887   4.528731   3.357264
    16  H    1.096474   2.715222   5.439349   4.708321   4.747298
    17  H    2.522443   0.963144   5.191236   4.506511   4.445153
                   11         12         13         14         15
    11  H    0.000000
    12  H    1.770515   0.000000
    13  H    1.781834   1.767457   0.000000
    14  H    3.804812   3.120511   2.621991   0.000000
    15  H    4.315691   3.736791   3.806127   1.776871   0.000000
    16  H    3.748123   2.515150   3.115835   1.770293   1.780161
    17  H    3.003264   2.487837   3.628019   3.544294   2.831963
                   16         17
    16  H    0.000000
    17  H    2.390328   0.000000
 Stoichiometry    C5H10O2
 Framework group  C1[X(C5H10O2)]
 Deg. of freedom    45
 Full point group                 C1      NOp   1
 Largest Abelian subgroup         C1      NOp   1
 Largest concise Abelian subgroup C1      NOp   1
                         Standard orientation:                         
 ---------------------------------------------------------------------
 Center     Atomic      Atomic             Coordinates (Angstroms)
 Number     Number       Type             X           Y           Z
 ---------------------------------------------------------------------
      1          6           0       -1.666801    1.205910    0.117985
      2          6           0       -0.944615    0.091079    0.003811
      3          8           0       -1.490853   -1.156051   -0.073110
      4          6           0        0.575629    0.007593   -0.029302
      5          6           0        1.243457    1.385887    0.029582
      6          6           0        1.063538   -0.881695    1.129445
      7          8           0        0.880117   -0.616234   -1.283958
      8          1           0       -2.751456    1.171755    0.156409
      9          1           0       -1.207028    2.180637    0.169899
     10          1           0       -2.450748   -1.073398   -0.066204
     11          1           0        0.927931    2.001767   -0.815561
     12          1           0        2.330271    1.261554   -0.028002
     13          1           0        1.018179    1.911778    0.961709
     14          1           0        0.808961   -0.441649    2.098569
     15          1           0        0.609014   -1.870961    1.062057
     16          1           0        2.154038   -0.987022    1.085024
     17          1           0        1.819474   -0.828832   -1.276483
 ---------------------------------------------------------------------
 Rotational constants (GHZ):      3.3432413      2.3903314      1.9510156
 Leave Link  202 at Thu Sep  8 15:15:58 2022, MaxMem= 24159191040 cpu:         0.4
 (Enter /public/home/users/caep010/software/Gaussian09/g09/l301.exe)
 Standard basis: 6-31G(d,p) (6D, 7F)
 Ernie: Thresh=  0.10000D-02 Tol=  0.10000D-05 Strict=F.
 There are   155 symmetry adapted cartesian basis functions of A   symmetry.
 There are   155 symmetry adapted basis functions of A   symmetry.
   155 basis functions,   266 primitive gaussians,   155 cartesian basis functions
    28 alpha electrons       28 beta electrons
       nuclear repulsion energy       328.6780582703 Hartrees.
 IExCor=  402 DFT=T Ex+Corr=B3LYP ExCW=0 ScaHFX=  0.200000
 ScaDFX=  0.800000  0.720000  1.000000  0.810000 ScalE2=  1.000000  1.000000
 IRadAn=      0 IRanWt=     -1 IRanGd=            0 ICorTp=0 IEmpDi=  4
 NAtoms=   17 NActive=   17 NUniq=   17 SFac= 1.00D+00 NAtFMM=   60 NAOKFM=F Big=F
 Integral buffers will be    131072 words long.
 Raffenetti 2 integral format.
 Two-electron integral symmetry is turned on.
 Leave Link  301 at Thu Sep  8 15:15:59 2022, MaxMem= 24159191040 cpu:         2.4
 (Enter /public/home/users/caep010/software/Gaussian09/g09/l302.exe)
 NPDir=0 NMtPBC=     1 NCelOv=     1 NCel=       1 NClECP=     1 NCelD=      1
         NCelK=      1 NCelE2=     1 NClLst=     1 CellRange=     0.0.
 One-electron integrals computed using PRISM.
 NBasis=   155 RedAO= T EigKep=  2.13D-03  NBF=   155
 NBsUse=   155 1.00D-06 EigRej= -1.00D+00 NBFU=   155
 Precomputing XC quadrature grid using
 IXCGrd= 4 IRadAn=           0 IRanWt=          -1 IRanGd=           0 AccXCQ= 0.00D+00.
 Generated NRdTot=       0 NPtTot=           0 NUsed=           0 NTot=          32
 NSgBfM=   155   155   155   155   155 MxSgAt=    17 MxSgA2=    17.
 Leave Link  302 at Thu Sep  8 15:15:59 2022, MaxMem= 24159191040 cpu:        13.3
 (Enter /public/home/users/caep010/software/Gaussian09/g09/l303.exe)
 DipDrv:  MaxL=1.
 Leave Link  303 at Thu Sep  8 15:15:59 2022, MaxMem= 24159191040 cpu:         1.3
 (Enter /public/home/users/caep010/software/Gaussian09/g09/l401.exe)
 ExpMin= 1.61D-01 ExpMax= 5.48D+03 ExpMxC= 8.25D+02 IAcc=1 IRadAn=         1 AccDes= 0.00D+00
 Harris functional with IExCor=  402 and IRadAn=       1 diagonalized for initial guess.
 HarFok:  IExCor=  402 AccDes= 0.00D+00 IRadAn=         1 IDoV= 1 UseB2=F ITyADJ=14
 ICtDFT=  3500011 ScaDFX=  1.000000  1.000000  1.000000  1.000000
 FoFCou: FMM=F IPFlag=           0 FMFlag=      100000 FMFlg1=           0
         NFxFlg=           0 DoJE=T BraDBF=F KetDBF=T FulRan=T
         wScrn=  0.000000 ICntrl=     500 IOpCl=  0 I1Cent=   200000004 NGrid=           0
         NMat0=    1 NMatS0=      1 NMatT0=    0 NMatD0=    1 NMtDS0=    0 NMtDT0=    0
 Petite list used in FoFCou.
 Harris En= -347.058682783963    
 JPrj=0 DoOrth=F DoCkMO=F.
 Leave Link  401 at Thu Sep  8 15:16:00 2022, MaxMem= 24159191040 cpu:        10.8
 (Enter /public/home/users/caep010/software/Gaussian09/g09/l502.exe)
 Closed shell SCF:
 Using DIIS extrapolation, IDIIS=  1040.
 Integral symmetry usage will be decided dynamically.
 Keep R1 ints in memory in canonical form, NReq=75084987.
 IVT=       96762 IEndB=       96762 NGot= 24159191040 MDV= 24086004184
 LenX= 24086004184 LenY= 24085979718
 Requested convergence on RMS density matrix=1.00D-08 within 128 cycles.
 Requested convergence on MAX density matrix=1.00D-06.
 Requested convergence on             energy=1.00D-06.
 No special actions if energy rises.
 FoFCou: FMM=F IPFlag=           0 FMFlag=           0 FMFlg1=           0
         NFxFlg=           0 DoJE=F BraDBF=F KetDBF=F FulRan=T
         wScrn=  0.000000 ICntrl=     600 IOpCl=  0 I1Cent=           0 NGrid=           0
         NMat0=    1 NMatS0=  12090 NMatT0=    0 NMatD0=    1 NMtDS0=    0 NMtDT0=    0
 Symmetry not used in FoFCou.
 Integral accuracy reduced to 1.0D-05 until final iterations.

 Cycle   1  Pass 0  IDiag  1:
 E= -346.717875732518    
 DIIS: error= 2.68D-02 at cycle   1 NSaved=   1.
 NSaved= 1 IEnMin= 1 EnMin= -346.717875732518     IErMin= 1 ErrMin= 2.68D-02
 ErrMax= 2.68D-02  0.00D+00 EMaxC= 1.00D-01 BMatC= 2.79D-01 BMatP= 2.79D-01
 IDIUse=3 WtCom= 7.32D-01 WtEn= 2.68D-01
 Coeff-Com:  0.100D+01
 Coeff-En:   0.100D+01
 Coeff:      0.100D+01
 Gap=     0.233 Goal=   None    Shift=    0.000
 GapD=    0.233 DampG=1.000 DampE=0.500 DampFc=0.5000 IDamp=-1.
 Damping current iteration by 5.00D-01
 RMSDP=6.63D-03 MaxDP=1.64D-01              OVMax= 1.82D-01

 Cycle   2  Pass 0  IDiag  1:
 E= -346.838570110424     Delta-E=       -0.120694377906 Rises=F Damp=T
 DIIS: error= 9.46D-03 at cycle   2 NSaved=   2.
 NSaved= 2 IEnMin= 2 EnMin= -346.838570110424     IErMin= 2 ErrMin= 9.46D-03
 ErrMax= 9.46D-03  0.00D+00 EMaxC= 1.00D-01 BMatC= 1.10D-02 BMatP= 2.79D-01
 IDIUse=3 WtCom= 9.05D-01 WtEn= 9.46D-02
 Coeff-Com:  0.766D-01 0.923D+00
 Coeff-En:   0.112D+00 0.888D+00
 Coeff:      0.800D-01 0.920D+00
 Gap=     0.281 Goal=   None    Shift=    0.000
 RMSDP=1.01D-03 MaxDP=2.54D-02 DE=-1.21D-01 OVMax= 1.09D-01

 Cycle   3  Pass 0  IDiag  1:
 E= -346.980329342176     Delta-E=       -0.141759231752 Rises=F Damp=F
 DIIS: error= 3.23D-03 at cycle   3 NSaved=   3.
 NSaved= 3 IEnMin= 3 EnMin= -346.980329342176     IErMin= 3 ErrMin= 3.23D-03
 ErrMax= 3.23D-03  0.00D+00 EMaxC= 1.00D-01 BMatC= 3.75D-03 BMatP= 1.10D-02
 IDIUse=3 WtCom= 9.68D-01 WtEn= 3.23D-02
 Coeff-Com:  0.116D-01 0.336D+00 0.653D+00
 Coeff-En:   0.000D+00 0.000D+00 0.100D+01
 Coeff:      0.112D-01 0.325D+00 0.664D+00
 Gap=     0.259 Goal=   None    Shift=    0.000
 RMSDP=5.45D-04 MaxDP=1.80D-02 DE=-1.42D-01 OVMax= 2.49D-02

 Cycle   4  Pass 0  IDiag  1:
 E= -346.982065947258     Delta-E=       -0.001736605082 Rises=F Damp=F
 DIIS: error= 1.91D-03 at cycle   4 NSaved=   4.
 NSaved= 4 IEnMin= 4 EnMin= -346.982065947258     IErMin= 4 ErrMin= 1.91D-03
 ErrMax= 1.91D-03  0.00D+00 EMaxC= 1.00D-01 BMatC= 1.64D-03 BMatP= 3.75D-03
 IDIUse=3 WtCom= 9.81D-01 WtEn= 1.91D-02
 Coeff-Com: -0.974D-03 0.410D-01 0.400D+00 0.560D+00
 Coeff-En:   0.000D+00 0.000D+00 0.336D+00 0.664D+00
 Coeff:     -0.956D-03 0.402D-01 0.399D+00 0.562D+00
 Gap=     0.260 Goal=   None    Shift=    0.000
 RMSDP=2.60D-04 MaxDP=7.84D-03 DE=-1.74D-03 OVMax= 1.32D-02

 Cycle   5  Pass 0  IDiag  1:
 E= -346.983477536149     Delta-E=       -0.001411588892 Rises=F Damp=F
 DIIS: error= 4.32D-04 at cycle   5 NSaved=   5.
 NSaved= 5 IEnMin= 5 EnMin= -346.983477536149     IErMin= 5 ErrMin= 4.32D-04
 ErrMax= 4.32D-04  0.00D+00 EMaxC= 1.00D-01 BMatC= 4.36D-05 BMatP= 1.64D-03
 IDIUse=3 WtCom= 9.96D-01 WtEn= 4.32D-03
 Coeff-Com: -0.369D-03 0.817D-02 0.171D+00 0.272D+00 0.549D+00
 Coeff-En:   0.000D+00 0.000D+00 0.000D+00 0.000D+00 0.100D+01
 Coeff:     -0.367D-03 0.813D-02 0.171D+00 0.271D+00 0.551D+00
 Gap=     0.259 Goal=   None    Shift=    0.000
 RMSDP=5.71D-05 MaxDP=2.31D-03 DE=-1.41D-03 OVMax= 4.53D-03

 Cycle   6  Pass 0  IDiag  1:
 E= -346.983509578679     Delta-E=       -0.000032042529 Rises=F Damp=F
 DIIS: error= 1.84D-04 at cycle   6 NSaved=   6.
 NSaved= 6 IEnMin= 6 EnMin= -346.983509578679     IErMin= 6 ErrMin= 1.84D-04
 ErrMax= 1.84D-04  0.00D+00 EMaxC= 1.00D-01 BMatC= 1.06D-05 BMatP= 4.36D-05
 IDIUse=3 WtCom= 9.98D-01 WtEn= 1.84D-03
 Coeff-Com: -0.237D-04-0.727D-03 0.556D-01 0.985D-01 0.356D+00 0.490D+00
 Coeff-En:   0.000D+00 0.000D+00 0.000D+00 0.000D+00 0.206D+00 0.794D+00
 Coeff:     -0.237D-04-0.726D-03 0.555D-01 0.983D-01 0.356D+00 0.491D+00
 Gap=     0.260 Goal=   None    Shift=    0.000
 RMSDP=2.03D-05 MaxDP=7.54D-04 DE=-3.20D-05 OVMax= 1.65D-03

 Cycle   7  Pass 0  IDiag  1:
 E= -346.983519242421     Delta-E=       -0.000009663743 Rises=F Damp=F
 DIIS: error= 2.94D-05 at cycle   7 NSaved=   7.
 NSaved= 7 IEnMin= 7 EnMin= -346.983519242421     IErMin= 7 ErrMin= 2.94D-05
 ErrMax= 2.94D-05  0.00D+00 EMaxC= 1.00D-01 BMatC= 2.89D-07 BMatP= 1.06D-05
 IDIUse=1 WtCom= 1.00D+00 WtEn= 0.00D+00
 Coeff-Com:  0.598D-04-0.763D-03 0.215D-01 0.392D-01 0.162D+00 0.250D+00
 Coeff-Com:  0.528D+00
 Coeff:      0.598D-04-0.763D-03 0.215D-01 0.392D-01 0.162D+00 0.250D+00
 Coeff:      0.528D+00
 Gap=     0.260 Goal=   None    Shift=    0.000
 RMSDP=3.89D-06 MaxDP=9.81D-05 DE=-9.66D-06 OVMax= 1.54D-04

 Initial convergence to 1.0D-05 achieved.  Increase integral accuracy.
 Cycle   8  Pass 1  IDiag  1:
 E= -346.983556267710     Delta-E=       -0.000037025289 Rises=F Damp=F
 DIIS: error= 1.76D-05 at cycle   1 NSaved=   1.
 NSaved= 1 IEnMin= 1 EnMin= -346.983556267710     IErMin= 1 ErrMin= 1.76D-05
 ErrMax= 1.76D-05  0.00D+00 EMaxC= 1.00D-01 BMatC= 5.26D-08 BMatP= 5.26D-08
 IDIUse=1 WtCom= 1.00D+00 WtEn= 0.00D+00
 Coeff-Com:  0.100D+01
 Coeff:      0.100D+01
 Gap=     0.260 Goal=   None    Shift=    0.000
 RMSDP=3.89D-06 MaxDP=9.81D-05 DE=-3.70D-05 OVMax= 9.60D-05

 Cycle   9  Pass 1  IDiag  1:
 E= -346.983556312538     Delta-E=       -0.000000044828 Rises=F Damp=F
 DIIS: error= 7.35D-06 at cycle   2 NSaved=   2.
 NSaved= 2 IEnMin= 2 EnMin= -346.983556312538     IErMin= 2 ErrMin= 7.35D-06
 ErrMax= 7.35D-06  0.00D+00 EMaxC= 1.00D-01 BMatC= 1.98D-08 BMatP= 5.26D-08
 IDIUse=1 WtCom= 1.00D+00 WtEn= 0.00D+00
 Coeff-Com:  0.324D+00 0.676D+00
 Coeff:      0.324D+00 0.676D+00
 Gap=     0.260 Goal=   None    Shift=    0.000
 RMSDP=1.40D-06 MaxDP=5.24D-05 DE=-4.48D-08 OVMax= 1.07D-04

 Cycle  10  Pass 1  IDiag  1:
 E= -346.983556319704     Delta-E=       -0.000000007165 Rises=F Damp=F
 DIIS: error= 6.77D-06 at cycle   3 NSaved=   3.
 NSaved= 3 IEnMin= 3 EnMin= -346.983556319704     IErMin= 3 ErrMin= 6.77D-06
 ErrMax= 6.77D-06  0.00D+00 EMaxC= 1.00D-01 BMatC= 1.23D-08 BMatP= 1.98D-08
 IDIUse=1 WtCom= 1.00D+00 WtEn= 0.00D+00
 Coeff-Com: -0.186D-02 0.438D+00 0.563D+00
 Coeff:     -0.186D-02 0.438D+00 0.563D+00
 Gap=     0.260 Goal=   None    Shift=    0.000
 RMSDP=7.58D-07 MaxDP=2.84D-05 DE=-7.17D-09 OVMax= 6.63D-05

 Cycle  11  Pass 1  IDiag  1:
 E= -346.983556330389     Delta-E=       -0.000000010685 Rises=F Damp=F
 DIIS: error= 1.61D-06 at cycle   4 NSaved=   4.
 NSaved= 4 IEnMin= 4 EnMin= -346.983556330389     IErMin= 4 ErrMin= 1.61D-06
 ErrMax= 1.61D-06  0.00D+00 EMaxC= 1.00D-01 BMatC= 1.08D-09 BMatP= 1.23D-08
 IDIUse=1 WtCom= 1.00D+00 WtEn= 0.00D+00
 Coeff-Com: -0.168D-01 0.237D+00 0.352D+00 0.427D+00
 Coeff:     -0.168D-01 0.237D+00 0.352D+00 0.427D+00
 Gap=     0.260 Goal=   None    Shift=    0.000
 RMSDP=2.22D-07 MaxDP=6.87D-06 DE=-1.07D-08 OVMax= 1.42D-05

 Cycle  12  Pass 1  IDiag  1:
 E= -346.983556331440     Delta-E=       -0.000000001052 Rises=F Damp=F
 DIIS: error= 8.57D-08 at cycle   5 NSaved=   5.
 NSaved= 5 IEnMin= 5 EnMin= -346.983556331440     IErMin= 5 ErrMin= 8.57D-08
 ErrMax= 8.57D-08  0.00D+00 EMaxC= 1.00D-01 BMatC= 3.50D-12 BMatP= 1.08D-09
 IDIUse=1 WtCom= 1.00D+00 WtEn= 0.00D+00
 Coeff-Com: -0.362D-02 0.396D-01 0.619D-01 0.104D+00 0.799D+00
 Coeff:     -0.362D-02 0.396D-01 0.619D-01 0.104D+00 0.799D+00
 Gap=     0.260 Goal=   None    Shift=    0.000
 RMSDP=1.82D-08 MaxDP=3.93D-07 DE=-1.05D-09 OVMax= 4.22D-07

 Cycle  13  Pass 1  IDiag  1:
 E= -346.983556331444     Delta-E=       -0.000000000004 Rises=F Damp=F
 DIIS: error= 4.56D-08 at cycle   6 NSaved=   6.
 NSaved= 6 IEnMin= 6 EnMin= -346.983556331444     IErMin= 6 ErrMin= 4.56D-08
 ErrMax= 4.56D-08  0.00D+00 EMaxC= 1.00D-01 BMatC= 8.35D-13 BMatP= 3.50D-12
 IDIUse=1 WtCom= 1.00D+00 WtEn= 0.00D+00
 Coeff-Com: -0.925D-03 0.686D-02 0.115D-01 0.298D-01 0.387D+00 0.566D+00
 Coeff:     -0.925D-03 0.686D-02 0.115D-01 0.298D-01 0.387D+00 0.566D+00
 Gap=     0.260 Goal=   None    Shift=    0.000
 RMSDP=6.37D-09 MaxDP=2.44D-07 DE=-3.64D-12 OVMax= 1.88D-07

 SCF Done:  E(RB3LYP) =  -346.983556331     A.U. after   13 cycles
            NFock= 13  Conv=0.64D-08     -V/T= 2.0090
 KE= 3.438931308921D+02 PE=-1.467078963038D+03 EE= 4.475242175441D+02
 Leave Link  502 at Thu Sep  8 15:16:03 2022, MaxMem= 24159191040 cpu:        62.9
 (Enter /public/home/users/caep010/software/Gaussian09/g09/l601.exe)
 Copying SCF densities to generalized density rwf, IOpCl= 0 IROHF=0.

 **********************************************************************

            Population analysis using the SCF density.

 **********************************************************************

 Orbital symmetries:
       Occupied  (A) (A) (A) (A) (A) (A) (A) (A) (A) (A) (A) (A)
                 (A) (A) (A) (A) (A) (A) (A) (A) (A) (A) (A) (A)
                 (A) (A) (A) (A)
       Virtual   (A) (A) (A) (A) (A) (A) (A) (A) (A) (A) (A) (A)
                 (A) (A) (A) (A) (A) (A) (A) (A) (A) (A) (A) (A)
                 (A) (A) (A) (A) (A) (A) (A) (A) (A) (A) (A) (A)
                 (A) (A) (A) (A) (A) (A) (A) (A) (A) (A) (A) (A)
                 (A) (A) (A) (A) (A) (A) (A) (A) (A) (A) (A) (A)
                 (A) (A) (A) (A) (A) (A) (A) (A) (A) (A) (A) (A)
                 (A) (A) (A) (A) (A) (A) (A) (A) (A) (A) (A) (A)
                 (A) (A) (A) (A) (A) (A) (A) (A) (A) (A) (A) (A)
                 (A) (A) (A) (A) (A) (A) (A) (A) (A) (A) (A) (A)
                 (A) (A) (A) (A) (A) (A) (A) (A) (A) (A) (A) (A)
                 (A) (A) (A) (A) (A) (A) (A)
 The electronic state is 1-A.
 Alpha  occ. eigenvalues --  -19.16956 -19.13513 -10.24612 -10.24001 -10.17543
 Alpha  occ. eigenvalues --  -10.17437 -10.16365  -1.05500  -1.01071  -0.79008
 Alpha  occ. eigenvalues --   -0.72690  -0.68997  -0.63784  -0.55752  -0.49587
 Alpha  occ. eigenvalues --   -0.47895  -0.47414  -0.42305  -0.41822  -0.40578
 Alpha  occ. eigenvalues --   -0.38715  -0.37170  -0.36409  -0.35393  -0.34472
 Alpha  occ. eigenvalues --   -0.31847  -0.26165  -0.22401
 Alpha virt. eigenvalues --    0.03557   0.07004   0.08622   0.12936   0.13883
 Alpha virt. eigenvalues --    0.14692   0.15516   0.16769   0.19130   0.19906
 Alpha virt. eigenvalues --    0.19989   0.22763   0.24812   0.25543   0.27912
 Alpha virt. eigenvalues --    0.33068   0.37571   0.50878   0.52859   0.54204
 Alpha virt. eigenvalues --    0.57340   0.58527   0.59184   0.61920   0.65144
 Alpha virt. eigenvalues --    0.65730   0.67459   0.68415   0.71684   0.75786
 Alpha virt. eigenvalues --    0.77131   0.80218   0.81558   0.82618   0.85586
 Alpha virt. eigenvalues --    0.86655   0.88015   0.90437   0.91297   0.93263
 Alpha virt. eigenvalues --    0.95252   0.97811   0.98075   1.01132   1.02183
 Alpha virt. eigenvalues --    1.05131   1.08508   1.12013   1.16123   1.19571
 Alpha virt. eigenvalues --    1.31089   1.32388   1.39534   1.39980   1.44636
 Alpha virt. eigenvalues --    1.47811   1.51516   1.55382   1.61257   1.61455
 Alpha virt. eigenvalues --    1.63362   1.69770   1.76788   1.80884   1.83291
 Alpha virt. eigenvalues --    1.85968   1.88053   1.90216   1.93059   1.94975
 Alpha virt. eigenvalues --    1.95496   2.00493   2.03803   2.05147   2.05503
 Alpha virt. eigenvalues --    2.09120   2.11206   2.11903   2.13741   2.17468
 Alpha virt. eigenvalues --    2.18712   2.19964   2.23367   2.27808   2.29468
 Alpha virt. eigenvalues --    2.34573   2.36800   2.39627   2.44425   2.48749
 Alpha virt. eigenvalues --    2.52681   2.55099   2.57474   2.58832   2.62681
 Alpha virt. eigenvalues --    2.64252   2.67104   2.70363   2.71430   2.72479
 Alpha virt. eigenvalues --    2.77116   2.81980   2.85028   2.87537   2.88502
 Alpha virt. eigenvalues --    2.90430   2.93877   3.03727   3.09235   3.14567
 Alpha virt. eigenvalues --    3.20242   3.23975   3.35224   3.41818   3.43314
 Alpha virt. eigenvalues --    3.44387   3.47775   3.50888   3.52105   3.64006
 Alpha virt. eigenvalues --    3.93078   4.12865   4.22267   4.45382   4.53371
 Alpha virt. eigenvalues --    4.56981   4.79019
          Condensed to atoms (all electrons):
               1          2          3          4          5          6
     1  C    5.133121   0.636416  -0.071471  -0.065315  -0.007320   0.001125
     2  C    0.636416   4.515161   0.291811   0.377498  -0.062904  -0.051060
     3  O   -0.071471   0.291811   8.085064  -0.068858   0.002787  -0.004915
     4  C   -0.065315   0.377498  -0.068858   4.760008   0.374612   0.351304
     5  C   -0.007320  -0.062904   0.002787   0.374612   5.043365  -0.069439
     6  C    0.001125  -0.051060  -0.004915   0.351304  -0.069439   5.056983
     7  O    0.000115  -0.058176   0.002785   0.216566  -0.049226  -0.047781
     8  H    0.356236  -0.019946  -0.007371   0.005902   0.000045  -0.000168
     9  H    0.365109  -0.008649   0.003561  -0.011059   0.003950   0.000221
    10  H   -0.009499  -0.029636   0.291561   0.008276  -0.000238  -0.000014
    11  H    0.002846  -0.006722  -0.000065  -0.021985   0.371123   0.006328
    12  H    0.000207   0.005149  -0.000056  -0.025543   0.367950  -0.007609
    13  H    0.001271  -0.001171  -0.000057  -0.020749   0.349646  -0.001308
    14  H    0.001053  -0.001065  -0.000261  -0.022599   0.000080   0.354347
    15  H    0.000161  -0.010078   0.008744  -0.025621   0.005777   0.378145
    16  H   -0.000149   0.005153   0.000181  -0.027250  -0.006892   0.364474
    17  H   -0.000260   0.008017  -0.000002  -0.024750  -0.003884  -0.007908
               7          8          9         10         11         12
     1  C    0.000115   0.356236   0.365109  -0.009499   0.002846   0.000207
     2  C   -0.058176  -0.019946  -0.008649  -0.029636  -0.006722   0.005149
     3  O    0.002785  -0.007371   0.003561   0.291561  -0.000065  -0.000056
     4  C    0.216566   0.005902  -0.011059   0.008276  -0.021985  -0.025543
     5  C   -0.049226   0.000045   0.003950  -0.000238   0.371123   0.367950
     6  C   -0.047781  -0.000168   0.000221  -0.000014   0.006328  -0.007609
     7  O    8.192291  -0.000070   0.000138  -0.000159   0.000897  -0.002022
     8  H   -0.000070   0.623838  -0.040014   0.007525  -0.000008  -0.000007
     9  H    0.000138  -0.040014   0.585820  -0.000073   0.001345  -0.000004
    10  H   -0.000159   0.007525  -0.000073   0.419404  -0.000005   0.000005
    11  H    0.000897  -0.000008   0.001345  -0.000005   0.585849  -0.030014
    12  H   -0.002022  -0.000007  -0.000004   0.000005  -0.030014   0.624065
    13  H    0.004100   0.000021   0.000984  -0.000004  -0.029800  -0.028730
    14  H    0.003785  -0.000014  -0.000056  -0.000045  -0.000135   0.000056
    15  H    0.001289   0.000001  -0.000029  -0.000379  -0.000202  -0.000065
    16  H   -0.003056   0.000004  -0.000010   0.000011  -0.000070   0.004278
    17  H    0.277553   0.000007  -0.000012   0.000039  -0.000507   0.003986
              13         14         15         16         17
     1  C    0.001271   0.001053   0.000161  -0.000149  -0.000260
     2  C   -0.001171  -0.001065  -0.010078   0.005153   0.008017
     3  O   -0.000057  -0.000261   0.008744   0.000181  -0.000002
     4  C   -0.020749  -0.022599  -0.025621  -0.027250  -0.024750
     5  C    0.349646   0.000080   0.005777  -0.006892  -0.003884
     6  C   -0.001308   0.354347   0.378145   0.364474  -0.007908
     7  O    0.004100   0.003785   0.001289  -0.003056   0.277553
     8  H    0.000021  -0.000014   0.000001   0.000004   0.000007
     9  H    0.000984  -0.000056  -0.000029  -0.000010  -0.000012
    10  H   -0.000004  -0.000045  -0.000379   0.000011   0.000039
    11  H   -0.029800  -0.000135  -0.000202  -0.000070  -0.000507
    12  H   -0.028730   0.000056  -0.000065   0.004278   0.003986
    13  H    0.619692   0.000561  -0.000123   0.000194  -0.000175
    14  H    0.000561   0.613158  -0.025060  -0.029997  -0.000129
    15  H   -0.000123  -0.025060   0.561228  -0.030292  -0.000485
    16  H    0.000194  -0.029997  -0.030292   0.632344   0.005346
    17  H   -0.000175  -0.000129  -0.000485   0.005346   0.444850
 Mulliken charges:
               1
     1  C   -0.343644
     2  C    0.410202
     3  O   -0.533440
     4  C    0.219562
     5  C   -0.319433
     6  C   -0.322726
     7  O   -0.539030
     8  H    0.074020
     9  H    0.098778
    10  H    0.313232
    11  H    0.121125
    12  H    0.088354
    13  H    0.105645
    14  H    0.106321
    15  H    0.136988
    16  H    0.085731
    17  H    0.298314
 Sum of Mulliken charges =  -0.00000
 Mulliken charges with hydrogens summed into heavy atoms:
               1
     1  C   -0.170846
     2  C    0.410202
     3  O   -0.220208
     4  C    0.219562
     5  C   -0.004309
     6  C    0.006314
     7  O   -0.240716
 Electronic spatial extent (au):  <R**2>=            759.4744
 Charge=             -0.0000 electrons
 Dipole moment (field-independent basis, Debye):
    X=              0.2849    Y=              0.4768    Z=              1.1482  Tot=              1.2755
 Quadrupole moment (field-independent basis, Debye-Ang):
   XX=            -33.3029   YY=            -43.8658   ZZ=            -46.4374
   XY=              0.1734   XZ=             -0.9408   YZ=             -0.5058
 Traceless Quadrupole moment (field-independent basis, Debye-Ang):
   XX=              7.8991   YY=             -2.6638   ZZ=             -5.2354
   XY=              0.1734   XZ=             -0.9408   YZ=             -0.5058
 Octapole moment (field-independent basis, Debye-Ang**2):
  XXX=            -14.3833  YYY=             -5.3249  ZZZ=             -2.7331  XYY=             -0.0047
  XXY=            -13.3822  XXZ=             -7.5021  XZZ=              2.3756  YZZ=             -2.8545
  YYZ=             -1.4993  XYZ=              1.4525
 Hexadecapole moment (field-independent basis, Debye-Ang**3):
 XXXX=           -382.6290 YYYY=           -318.0697 ZZZZ=           -182.9734 XXXY=             18.0586
 XXXZ=            -16.8140 YYYX=              3.6878 YYYZ=              3.1408 ZZZX=             -6.5397
 ZZZY=              4.3740 XXYY=           -126.3623 XXZZ=           -108.5557 YYZZ=            -84.8833
 XXYZ=              7.2331 YYXZ=             -4.3765 ZZXY=              2.6899
 N-N= 3.286780582703D+02 E-N=-1.467078962344D+03  KE= 3.438931308921D+02
 No NMR shielding tensors so no spin-rotation constants.
 Leave Link  601 at Thu Sep  8 15:16:03 2022, MaxMem= 24159191040 cpu:        10.7
 (Enter /public/home/users/caep010/software/Gaussian09/g09/l701.exe)
 Compute integral first derivatives.
 ... and contract with generalized density number  0.
 Leave Link  701 at Thu Sep  8 15:16:04 2022, MaxMem= 24159191040 cpu:        10.8
 (Enter /public/home/users/caep010/software/Gaussian09/g09/l702.exe)
 L702 exits ... SP integral derivatives will be done elsewhere.
 Leave Link  702 at Thu Sep  8 15:16:04 2022, MaxMem= 24159191040 cpu:         0.6
 (Enter /public/home/users/caep010/software/Gaussian09/g09/l703.exe)
 Compute integral first derivatives, UseDBF=F ICtDFT=           0.
 Integral derivatives from FoFJK, PRISM(SPDF).
 Calling FoFJK, ICntrl=      2127 FMM=F ISym2X=0 I1Cent= 0 IOpClX= 0 NMat=1 NMatS=1 NMatT=0.
 FoFJK:  IHMeth= 1 ICntrl=    2127 DoSepK=F KAlg= 0 I1Cent=   0 FoldK=F
 IRaf=         0 NMat=   1 IRICut=       1 DoRegI=T DoRafI=F ISym2E= 0.
 FoFCou: FMM=F IPFlag=           0 FMFlag=      100000 FMFlg1=         800
         NFxFlg=           0 DoJE=F BraDBF=F KetDBF=F FulRan=T
         wScrn=  0.000000 ICntrl=    2127 IOpCl=  0 I1Cent=           0 NGrid=           0
         NMat0=    1 NMatS0=      1 NMatT0=    0 NMatD0=    1 NMtDS0=    0 NMtDT0=    0
 Symmetry not used in FoFCou.
 Leave Link  703 at Thu Sep  8 15:16:04 2022, MaxMem= 24159191040 cpu:        16.0
 (Enter /public/home/users/caep010/software/Gaussian09/g09/l716.exe)
 Dipole        = 1.12100367D-01 1.87581877D-01 4.51750197D-01
 ***** Axes restored to original set *****
 -------------------------------------------------------------------
 Center     Atomic                   Forces (Hartrees/Bohr)
 Number     Number              X              Y              Z
 -------------------------------------------------------------------
      1        6           0.002465164    0.000761583   -0.003430935
      2        6          -0.002685475   -0.000230758    0.001508930
      3        8          -0.001728599   -0.001000042    0.002772958
      4        6          -0.000186783   -0.000975224   -0.000909669
      5        6          -0.000401055    0.000071309   -0.000071755
      6        6          -0.000149550   -0.000062304   -0.000246277
      7        8           0.002812802    0.001592356    0.000614144
      8        1           0.000752615   -0.000060901   -0.000007020
      9        1          -0.000242977    0.000229240   -0.000691067
     10        1           0.003335237    0.000012118   -0.000027672
     11        1           0.000076896    0.000097447   -0.000022125
     12        1          -0.000094266    0.000062181   -0.000091593
     13        1          -0.000049298   -0.000014117   -0.000138940
     14        1          -0.000068176   -0.000133613    0.000016775
     15        1           0.000032071    0.000001890    0.000180730
     16        1          -0.000228152   -0.000079357    0.000077960
     17        1          -0.003640454   -0.000271807    0.000465556
 -------------------------------------------------------------------
 Cartesian Forces:  Max     0.003640454 RMS     0.001241056
 Leave Link  716 at Thu Sep  8 15:16:04 2022, MaxMem= 24159191040 cpu:         0.7
 (Enter /public/home/users/caep010/software/Gaussian09/g09/l103.exe)

 GradGradGradGradGradGradGradGradGradGradGradGradGradGradGradGradGradGrad
 Berny optimization.
 FormGI is forming the generalized inverse of G from B-inverse, IUseBI=4.
 Internal  Forces:  Max     0.005172776 RMS     0.000984148
 Search for a local minimum.
 Step number   1 out of a maximum of   85
 All quantities printed in internal units (Hartrees-Bohrs-Radians)
 RMS Force = .98415D-03 SwitMx=.10000D-02 MixMth= 2
 Mixed Optimization -- En-DIIS/RFO-DIIS
 Second derivative matrix not updated -- first step.
 ITU=  0
     Eigenvalues ---    0.00237   0.00333   0.00463   0.01244   0.01694
     Eigenvalues ---    0.02172   0.02972   0.02972   0.04662   0.05402
     Eigenvalues ---    0.05487   0.05606   0.05740   0.05980   0.07606
     Eigenvalues ---    0.16000   0.16000   0.16000   0.16000   0.16000
     Eigenvalues ---    0.16000   0.16000   0.16000   0.16000   0.16000
     Eigenvalues ---    0.16310   0.17558   0.24995   0.24998   0.28519
     Eigenvalues ---    0.29176   0.30089   0.34075   0.34194   0.34312
     Eigenvalues ---    0.34389   0.34547   0.34724   0.35294   0.36119
     Eigenvalues ---    0.40436   0.52210   0.54733   0.54803   0.58755
 RFO step:  Lambda=-1.53155620D-04 EMin= 2.36894164D-03
 Linear search not attempted -- first point.
 Iteration  1 RMS(Cart)=  0.00681274 RMS(Int)=  0.00001460
 Iteration  2 RMS(Cart)=  0.00001841 RMS(Int)=  0.00000151
 Iteration  3 RMS(Cart)=  0.00000000 RMS(Int)=  0.00000151
 ITry= 1 IFail=0 DXMaxC= 2.24D-02 DCOld= 1.00D+10 DXMaxT= 3.00D-01 DXLimC= 3.00D+00 Rises=F
 Variable       Old X    -DE/DX   Delta X   Delta X   Delta X     New X
                                 (Linear)    (Quad)   (Total)
    R1        2.51939   0.00517   0.00000   0.00880   0.00880   2.52820
    R2        2.05200   0.00075   0.00000   0.00213   0.00213   2.05414
    R3        2.03896   0.00077   0.00000   0.00212   0.00212   2.04108
    R4        2.57698   0.00329   0.00000   0.00631   0.00631   2.58329
    R5        2.87785   0.00190   0.00000   0.00632   0.00632   2.88418
    R6        1.82070   0.00333   0.00000   0.00609   0.00609   1.82678
    R7        2.89637   0.00053   0.00000   0.00181   0.00181   2.89819
    R8        2.91017   0.00040   0.00000   0.00142   0.00142   2.91158
    R9        2.70966   0.00183   0.00000   0.00452   0.00452   2.71418
   R10        2.06416   0.00012   0.00000   0.00034   0.00034   2.06450
   R11        2.07004   0.00009   0.00000   0.00026   0.00026   2.07030
   R12        2.06679   0.00010   0.00000   0.00030   0.00030   2.06709
   R13        2.06806   0.00007   0.00000   0.00020   0.00020   2.06826
   R14        2.06126   0.00017   0.00000   0.00050   0.00050   2.06176
   R15        2.07204   0.00023   0.00000   0.00067   0.00067   2.07270
   R16        1.82008   0.00368   0.00000   0.00671   0.00671   1.82678
    A1        2.11509   0.00003   0.00000   0.00021   0.00021   2.11530
    A2        2.12787   0.00003   0.00000   0.00021   0.00021   2.12809
    A3        2.04020  -0.00007   0.00000  -0.00043  -0.00043   2.03978
    A4        2.15626  -0.00032   0.00000  -0.00129  -0.00129   2.15497
    A5        2.19994  -0.00043   0.00000  -0.00174  -0.00174   2.19820
    A6        1.92677   0.00075   0.00000   0.00301   0.00301   1.92978
    A7        1.89675   0.00016   0.00000   0.00099   0.00099   1.89775
    A8        1.96582  -0.00003   0.00000   0.00048   0.00049   1.96631
    A9        1.90876   0.00005   0.00000   0.00176   0.00176   1.91053
   A10        1.82850   0.00029   0.00000   0.00355   0.00355   1.83204
   A11        1.93086   0.00004   0.00000  -0.00099  -0.00099   1.92987
   A12        1.90956  -0.00025   0.00000  -0.00329  -0.00330   1.90627
   A13        1.91758  -0.00008   0.00000  -0.00136  -0.00137   1.91621
   A14        1.92991  -0.00009   0.00000  -0.00075  -0.00074   1.92917
   A15        1.90521   0.00015   0.00000   0.00104   0.00104   1.90625
   A16        1.95562   0.00014   0.00000   0.00090   0.00090   1.95652
   A17        1.88590  -0.00004   0.00000  -0.00037  -0.00037   1.88554
   A18        1.90584  -0.00004   0.00000  -0.00045  -0.00045   1.90539
   A19        1.87941  -0.00011   0.00000  -0.00041  -0.00041   1.87900
   A20        1.93952   0.00020   0.00000   0.00149   0.00149   1.94100
   A21        1.92327  -0.00011   0.00000  -0.00084  -0.00084   1.92242
   A22        1.91781   0.00012   0.00000   0.00069   0.00069   1.91850
   A23        1.89912  -0.00003   0.00000  -0.00007  -0.00007   1.89905
   A24        1.88164  -0.00012   0.00000  -0.00039  -0.00039   1.88124
   A25        1.90160  -0.00006   0.00000  -0.00091  -0.00091   1.90069
   A26        1.87166  -0.00034   0.00000  -0.00211  -0.00211   1.86955
    D1        0.00043   0.00000   0.00000  -0.00033  -0.00033   0.00010
    D2       -3.11653   0.00001   0.00000   0.00074   0.00074  -3.11579
    D3       -3.13401   0.00000   0.00000  -0.00022  -0.00022  -3.13422
    D4        0.03222   0.00001   0.00000   0.00085   0.00085   0.03307
    D5        0.03883   0.00011   0.00000   0.00488   0.00488   0.04371
    D6       -3.12402   0.00009   0.00000   0.00391   0.00390  -3.12011
    D7       -0.03951  -0.00004   0.00000   0.00632   0.00632  -0.03320
    D8        2.11503   0.00002   0.00000   0.00667   0.00667   2.12170
    D9       -2.11352   0.00010   0.00000   0.00783   0.00783  -2.10568
   D10        3.12398  -0.00002   0.00000   0.00731   0.00731   3.13130
   D11       -1.00466   0.00004   0.00000   0.00767   0.00766  -0.99699
   D12        1.04998   0.00012   0.00000   0.00883   0.00883   1.05881
   D13       -1.03965  -0.00002   0.00000   0.00435   0.00435  -1.03530
   D14       -3.11210  -0.00000   0.00000   0.00460   0.00460  -3.10750
   D15        1.09089  -0.00004   0.00000   0.00386   0.00386   1.09475
   D16        3.10133  -0.00009   0.00000   0.00244   0.00244   3.10378
   D17        1.02888  -0.00007   0.00000   0.00270   0.00270   1.03158
   D18       -1.05132  -0.00011   0.00000   0.00196   0.00196  -1.04935
   D19        0.98638   0.00016   0.00000   0.00692   0.00692   0.99330
   D20       -1.08608   0.00018   0.00000   0.00718   0.00718  -1.07890
   D21        3.11692   0.00013   0.00000   0.00644   0.00644   3.12336
   D22       -1.10783   0.00011   0.00000   0.00135   0.00135  -1.10648
   D23        0.99869   0.00013   0.00000   0.00167   0.00167   1.00036
   D24        3.09429   0.00006   0.00000   0.00045   0.00045   3.09474
   D25        1.06725   0.00013   0.00000   0.00252   0.00252   1.06976
   D26       -3.10942   0.00015   0.00000   0.00284   0.00284  -3.10658
   D27       -1.01382   0.00008   0.00000   0.00162   0.00162  -1.01220
   D28       -3.10574  -0.00021   0.00000  -0.00313  -0.00312  -3.10887
   D29       -0.99922  -0.00020   0.00000  -0.00280  -0.00280  -1.00203
   D30        1.09637  -0.00026   0.00000  -0.00402  -0.00402   1.09235
   D31       -2.97020  -0.00007   0.00000  -0.00178  -0.00178  -2.97198
   D32        1.20139  -0.00007   0.00000  -0.00266  -0.00266   1.19873
   D33       -0.92159   0.00010   0.00000   0.00154   0.00154  -0.92005
         Item               Value     Threshold  Converged?
 Maximum Force            0.005173     0.000450     NO 
 RMS     Force            0.000984     0.000300     NO 
 Maximum Displacement     0.022387     0.001800     NO 
 RMS     Displacement     0.006816     0.001200     NO 
 Predicted change in Energy=-7.664498D-05
 Lowest energy point so far.  Saving SCF results.
 GradGradGradGradGradGradGradGradGradGradGradGradGradGradGradGradGradGrad

 Leave Link  103 at Thu Sep  8 15:16:04 2022, MaxMem= 24159191040 cpu:         2.1
 (Enter /public/home/users/caep010/software/Gaussian09/g09/l202.exe)
                          Input orientation:                          
 ---------------------------------------------------------------------
 Center     Atomic      Atomic             Coordinates (Angstroms)
 Number     Number       Type             X           Y           Z
 ---------------------------------------------------------------------
      1          6           0        1.894914    0.341421   -0.849180
      2          6           0        1.116830    0.089788    0.209661
      3          8           0        1.602707   -0.298130    1.427110
      4          6           0       -0.407655    0.157431    0.237547
      5          6           0       -1.003979    0.602957   -1.103349
      6          6           0       -0.974883   -1.213349    0.653606
      7          8           0       -0.717234    1.136837    1.241455
      8          1           0        2.976077    0.246560   -0.788673
      9          1           0        1.484578    0.653177   -1.798408
     10          1           0        2.568384   -0.313274    1.385488
     11          1           0       -0.630643    1.591968   -1.379044
     12          1           0       -2.093781    0.665626   -1.010368
     13          1           0       -0.779679   -0.102891   -1.908325
     14          1           0       -0.723373   -1.985292   -0.080373
     15          1           0       -0.573427   -1.507119    1.624630
     16          1           0       -2.068245   -1.160064    0.722538
     17          1           0       -1.670590    1.094553    1.395788
 ---------------------------------------------------------------------
                    Distance matrix (angstroms):
                    1          2          3          4          5
     1  C    0.000000
     2  C    1.337863   0.000000
     3  O    2.382416   1.367018   0.000000
     4  C    2.552773   1.526240   2.379948   0.000000
     5  C    2.921743   2.546600   3.742993   1.533655   0.000000
     6  C    3.593245   2.504100   2.842517   1.540744   2.527194
     7  O    3.439005   2.350468   2.734177   1.436282   2.421850
     8  H    1.087002   2.116139   2.663180   3.537048   4.008352
     9  H    1.080093   2.117779   3.364953   2.823371   2.584288
    10  H    2.424032   1.911031   0.966692   3.224305   4.449221
    11  H    2.867588   2.798962   4.053989   2.172783   1.092488
    12  H    4.005094   3.482540   4.531462   2.158373   1.095556
    13  H    2.910782   2.849516   4.103537   2.193385   1.093855
    14  H    3.586096   2.788625   3.244945   2.189067   2.797187
    15  H    3.953422   2.721988   2.497244   2.173064   3.475582
    16  H    4.520108   3.459750   3.836044   2.174527   2.752230
    17  H    4.280176   3.191576   3.557390   1.953132   2.632816
                    6          7          8          9         10
     6  C    0.000000
     7  O    2.436253   0.000000
     8  H    4.452144   4.307500   0.000000
     9  H    3.942746   3.784531   1.846475   0.000000
    10  H    3.728341   3.594280   2.281798   3.499409   0.000000
    11  H    3.481375   2.661138   3.894495   2.351884   4.637495
    12  H    2.747961   2.680976   5.091977   3.664126   5.332369
    13  H    2.799056   3.385549   3.934646   2.389682   4.701383
    14  H    1.094477   3.390422   4.378216   3.845544   3.972413
    15  H    1.091034   2.675445   4.636636   4.540865   3.369485
    16  H    1.096828   2.714822   5.450461   4.718640   4.759715
    17  H    2.522153   0.966693   5.204082   4.511406   4.466653
                   11         12         13         14         15
    11  H    0.000000
    12  H    1.770538   0.000000
    13  H    1.781824   1.767430   0.000000
    14  H    3.806827   3.125744   2.624503   0.000000
    15  H    4.316210   3.738384   3.807384   1.777124   0.000000
    16  H    3.749270   2.517291   3.114395   1.770409   1.780084
    17  H    3.004763   2.480454   3.625570   3.544251   2.832813
                   16         17
    16  H    0.000000
    17  H    2.386355   0.000000
 Stoichiometry    C5H10O2
 Framework group  C1[X(C5H10O2)]
 Deg. of freedom    45
 Full point group                 C1      NOp   1
 RotChk:  IX=0 Diff= 7.64D-03
 Largest Abelian subgroup         C1      NOp   1
 Largest concise Abelian subgroup C1      NOp   1
                         Standard orientation:                         
 ---------------------------------------------------------------------
 Center     Atomic      Atomic             Coordinates (Angstroms)
 Number     Number       Type             X           Y           Z
 ---------------------------------------------------------------------
      1          6           0       -1.672072    1.207833    0.116638
      2          6           0       -0.947427    0.088964    0.003058
      3          8           0       -1.496684   -1.160559   -0.072746
      4          6           0        0.576320    0.007711   -0.028590
      5          6           0        1.243143    1.387137    0.039452
      6          6           0        1.066767   -0.888234    1.124943
      7          8           0        0.888954   -0.606981   -1.288480
      8          1           0       -2.757872    1.173986    0.154909
      9          1           0       -1.211968    2.183681    0.167889
     10          1           0       -2.459757   -1.077020   -0.070262
     11          1           0        0.924190    2.008778   -0.800406
     12          1           0        2.330200    1.265661   -0.022126
     13          1           0        1.019811    1.906457    0.975906
     14          1           0        0.810636   -0.456972    2.097717
     15          1           0        0.615463   -1.878680    1.049467
     16          1           0        2.157905   -0.990649    1.080660
     17          1           0        1.832846   -0.815377   -1.276946
 ---------------------------------------------------------------------
 Rotational constants (GHZ):      3.3362104      2.3781334      1.9409664
 Leave Link  202 at Thu Sep  8 15:16:05 2022, MaxMem= 24159191040 cpu:         0.4
 (Enter /public/home/users/caep010/software/Gaussian09/g09/l301.exe)
 Standard basis: 6-31G(d,p) (6D, 7F)
 Ernie: Thresh=  0.10000D-02 Tol=  0.10000D-05 Strict=F.
 There are   155 symmetry adapted cartesian basis functions of A   symmetry.
 There are   155 symmetry adapted basis functions of A   symmetry.
   155 basis functions,   266 primitive gaussians,   155 cartesian basis functions
    28 alpha electrons       28 beta electrons
       nuclear repulsion energy       328.0518380351 Hartrees.
 IExCor=  402 DFT=T Ex+Corr=B3LYP ExCW=0 ScaHFX=  0.200000
 ScaDFX=  0.800000  0.720000  1.000000  0.810000 ScalE2=  1.000000  1.000000
 IRadAn=      0 IRanWt=     -1 IRanGd=            0 ICorTp=0 IEmpDi=  4
 NAtoms=   17 NActive=   17 NUniq=   17 SFac= 1.00D+00 NAtFMM=   60 NAOKFM=F Big=F
 Integral buffers will be    131072 words long.
 Raffenetti 2 integral format.
 Two-electron integral symmetry is turned on.
 Leave Link  301 at Thu Sep  8 15:16:05 2022, MaxMem= 24159191040 cpu:         1.9
 (Enter /public/home/users/caep010/software/Gaussian09/g09/l302.exe)
 NPDir=0 NMtPBC=     1 NCelOv=     1 NCel=       1 NClECP=     1 NCelD=      1
         NCelK=      1 NCelE2=     1 NClLst=     1 CellRange=     0.0.
 One-electron integrals computed using PRISM.
 NBasis=   155 RedAO= T EigKep=  2.16D-03  NBF=   155
 NBsUse=   155 1.00D-06 EigRej= -1.00D+00 NBFU=   155
 Precomputing XC quadrature grid using
 IXCGrd= 4 IRadAn=           0 IRanWt=          -1 IRanGd=           0 AccXCQ= 0.00D+00.
 Generated NRdTot=       0 NPtTot=           0 NUsed=           0 NTot=          32
 NSgBfM=   155   155   155   155   155 MxSgAt=    17 MxSgA2=    17.
 Leave Link  302 at Thu Sep  8 15:16:05 2022, MaxMem= 24159191040 cpu:        14.4
 (Enter /public/home/users/caep010/software/Gaussian09/g09/l303.exe)
 DipDrv:  MaxL=1.
 Leave Link  303 at Thu Sep  8 15:16:05 2022, MaxMem= 24159191040 cpu:         0.7
 (Enter /public/home/users/caep010/software/Gaussian09/g09/l401.exe)
 Initial guess from the checkpoint file:  "B3LYP6-31Gdp.Frag_678.chk"
 B after Tr=    -0.000000   -0.000000   -0.000000
         Rot=    0.999997   -0.002253    0.000543   -0.000572 Ang=  -0.27 deg.
 Guess basis will be translated and rotated to current coordinates.
 JPrj=2 DoOrth=T DoCkMO=T.
 Generating alternative initial guess.
 ExpMin= 1.61D-01 ExpMax= 5.48D+03 ExpMxC= 8.25D+02 IAcc=1 IRadAn=         1 AccDes= 0.00D+00
 Harris functional with IExCor=  402 and IRadAn=       1 diagonalized for initial guess.
 HarFok:  IExCor=  402 AccDes= 0.00D+00 IRadAn=         1 IDoV= 1 UseB2=F ITyADJ=14
 ICtDFT=  3500011 ScaDFX=  1.000000  1.000000  1.000000  1.000000
 FoFCou: FMM=F IPFlag=           0 FMFlag=      100000 FMFlg1=           0
         NFxFlg=           0 DoJE=T BraDBF=F KetDBF=T FulRan=T
         wScrn=  0.000000 ICntrl=     500 IOpCl=  0 I1Cent=   200000004 NGrid=           0
         NMat0=    1 NMatS0=      1 NMatT0=    0 NMatD0=    1 NMtDS0=    0 NMtDT0=    0
 Petite list used in FoFCou.
 Harris En= -347.057785939311    
 Leave Link  401 at Thu Sep  8 15:16:06 2022, MaxMem= 24159191040 cpu:        12.4
 (Enter /public/home/users/caep010/software/Gaussian09/g09/l502.exe)
 Closed shell SCF:
 Using DIIS extrapolation, IDIIS=  1040.
 Integral symmetry usage will be decided dynamically.
 Keep R1 ints in memory in canonical form, NReq=75084987.
 IVT=       96762 IEndB=       96762 NGot= 24159191040 MDV= 24086004184
 LenX= 24086004184 LenY= 24085979718
 Requested convergence on RMS density matrix=1.00D-08 within 128 cycles.
 Requested convergence on MAX density matrix=1.00D-06.
 Requested convergence on             energy=1.00D-06.
 No special actions if energy rises.
 FoFCou: FMM=F IPFlag=           0 FMFlag=           0 FMFlg1=           0
         NFxFlg=           0 DoJE=F BraDBF=F KetDBF=F FulRan=T
         wScrn=  0.000000 ICntrl=     600 IOpCl=  0 I1Cent=           0 NGrid=           0
         NMat0=    1 NMatS0=  12090 NMatT0=    0 NMatD0=    1 NMtDS0=    0 NMtDT0=    0
 Symmetry not used in FoFCou.
 Integral accuracy reduced to 1.0D-05 until final iterations.

 Cycle   1  Pass 0  IDiag  1:
 E= -346.983516209635    
 DIIS: error= 2.46D-04 at cycle   1 NSaved=   1.
 NSaved= 1 IEnMin= 1 EnMin= -346.983516209635     IErMin= 1 ErrMin= 2.46D-04
 ErrMax= 2.46D-04  0.00D+00 EMaxC= 1.00D-01 BMatC= 4.34D-05 BMatP= 4.34D-05
 IDIUse=3 WtCom= 9.98D-01 WtEn= 2.46D-03
 Coeff-Com:  0.100D+01
 Coeff-En:   0.100D+01
 Coeff:      0.100D+01
 Gap=     1.707 Goal=   None    Shift=    0.000
 RMSDP=7.80D-05 MaxDP=1.34D-03              OVMax= 2.03D-03

 Cycle   2  Pass 0  IDiag  1:
 E= -346.983581719168     Delta-E=       -0.000065509533 Rises=F Damp=F
 DIIS: error= 8.33D-05 at cycle   2 NSaved=   2.
 NSaved= 2 IEnMin= 2 EnMin= -346.983581719168     IErMin= 2 ErrMin= 8.33D-05
 ErrMax= 8.33D-05  0.00D+00 EMaxC= 1.00D-01 BMatC= 3.70D-06 BMatP= 4.34D-05
 IDIUse=1 WtCom= 1.00D+00 WtEn= 0.00D+00
 Coeff-Com:  0.925D-01 0.907D+00
 Coeff:      0.925D-01 0.907D+00
 Gap=     0.258 Goal=   None    Shift=    0.000
 RMSDP=2.35D-05 MaxDP=5.39D-04 DE=-6.55D-05 OVMax= 6.99D-04

 Cycle   3  Pass 0  IDiag  1:
 E= -346.983582675772     Delta-E=       -0.000000956604 Rises=F Damp=F
 DIIS: error= 7.79D-05 at cycle   3 NSaved=   3.
 NSaved= 3 IEnMin= 3 EnMin= -346.983582675772     IErMin= 3 ErrMin= 7.79D-05
 ErrMax= 7.79D-05  0.00D+00 EMaxC= 1.00D-01 BMatC= 3.04D-06 BMatP= 3.70D-06
 IDIUse=1 WtCom= 1.00D+00 WtEn= 0.00D+00
 Coeff-Com: -0.271D-01 0.479D+00 0.548D+00
 Coeff:     -0.271D-01 0.479D+00 0.548D+00
 Gap=     0.258 Goal=   None    Shift=    0.000
 RMSDP=1.21D-05 MaxDP=3.02D-04 DE=-9.57D-07 OVMax= 3.13D-04

 Cycle   4  Pass 0  IDiag  1:
 E= -346.983585404667     Delta-E=       -0.000002728894 Rises=F Damp=F
 DIIS: error= 1.45D-05 at cycle   4 NSaved=   4.
 NSaved= 4 IEnMin= 4 EnMin= -346.983585404667     IErMin= 4 ErrMin= 1.45D-05
 ErrMax= 1.45D-05  0.00D+00 EMaxC= 1.00D-01 BMatC= 1.03D-07 BMatP= 3.04D-06
 IDIUse=1 WtCom= 1.00D+00 WtEn= 0.00D+00
 Coeff-Com: -0.160D-01 0.199D+00 0.269D+00 0.548D+00
 Coeff:     -0.160D-01 0.199D+00 0.269D+00 0.548D+00
 Gap=     0.258 Goal=   None    Shift=    0.000
 RMSDP=2.12D-06 MaxDP=6.53D-05 DE=-2.73D-06 OVMax= 6.38D-05

 Initial convergence to 1.0D-05 achieved.  Increase integral accuracy.
 Cycle   5  Pass 1  IDiag  1:
 E= -346.983627162581     Delta-E=       -0.000041757915 Rises=F Damp=F
 DIIS: error= 1.78D-05 at cycle   1 NSaved=   1.
 NSaved= 1 IEnMin= 1 EnMin= -346.983627162581     IErMin= 1 ErrMin= 1.78D-05
 ErrMax= 1.78D-05  0.00D+00 EMaxC= 1.00D-01 BMatC= 5.17D-08 BMatP= 5.17D-08
 IDIUse=1 WtCom= 1.00D+00 WtEn= 0.00D+00
 Coeff-Com:  0.100D+01
 Coeff:      0.100D+01
 Gap=     0.258 Goal=   None    Shift=    0.000
 RMSDP=2.12D-06 MaxDP=6.53D-05 DE=-4.18D-05 OVMax= 5.59D-05

 Cycle   6  Pass 1  IDiag  1:
 E= -346.983627212187     Delta-E=       -0.000000049606 Rises=F Damp=F
 DIIS: error= 5.62D-06 at cycle   2 NSaved=   2.
 NSaved= 2 IEnMin= 2 EnMin= -346.983627212187     IErMin= 2 ErrMin= 5.62D-06
 ErrMax= 5.62D-06  0.00D+00 EMaxC= 1.00D-01 BMatC= 1.58D-08 BMatP= 5.17D-08
 IDIUse=1 WtCom= 1.00D+00 WtEn= 0.00D+00
 Coeff-Com:  0.290D+00 0.710D+00
 Coeff:      0.290D+00 0.710D+00
 Gap=     0.258 Goal=   None    Shift=    0.000
 RMSDP=1.16D-06 MaxDP=3.01D-05 DE=-4.96D-08 OVMax= 2.96D-05

 Cycle   7  Pass 1  IDiag  1:
 E= -346.983627218726     Delta-E=       -0.000000006539 Rises=F Damp=F
 DIIS: error= 4.24D-06 at cycle   3 NSaved=   3.
 NSaved= 3 IEnMin= 3 EnMin= -346.983627218726     IErMin= 3 ErrMin= 4.24D-06
 ErrMax= 4.24D-06  0.00D+00 EMaxC= 1.00D-01 BMatC= 8.35D-09 BMatP= 1.58D-08
 IDIUse=1 WtCom= 1.00D+00 WtEn= 0.00D+00
 Coeff-Com: -0.141D-01 0.420D+00 0.594D+00
 Coeff:     -0.141D-01 0.420D+00 0.594D+00
 Gap=     0.258 Goal=   None    Shift=    0.000
 RMSDP=4.97D-07 MaxDP=1.74D-05 DE=-6.54D-09 OVMax= 1.40D-05

 Cycle   8  Pass 1  IDiag  1:
 E= -346.983627224757     Delta-E=       -0.000000006031 Rises=F Damp=F
 DIIS: error= 6.91D-07 at cycle   4 NSaved=   4.
 NSaved= 4 IEnMin= 4 EnMin= -346.983627224757     IErMin= 4 ErrMin= 6.91D-07
 ErrMax= 6.91D-07  0.00D+00 EMaxC= 1.00D-01 BMatC= 3.09D-10 BMatP= 8.35D-09
 IDIUse=1 WtCom= 1.00D+00 WtEn= 0.00D+00
 Coeff-Com: -0.147D-01 0.209D+00 0.324D+00 0.483D+00
 Coeff:     -0.147D-01 0.209D+00 0.324D+00 0.483D+00
 Gap=     0.258 Goal=   None    Shift=    0.000
 RMSDP=1.14D-07 MaxDP=4.30D-06 DE=-6.03D-09 OVMax= 6.41D-06

 Cycle   9  Pass 1  IDiag  1:
 E= -346.983627225026     Delta-E=       -0.000000000269 Rises=F Damp=F
 DIIS: error= 1.30D-07 at cycle   5 NSaved=   5.
 NSaved= 5 IEnMin= 5 EnMin= -346.983627225026     IErMin= 5 ErrMin= 1.30D-07
 ErrMax= 1.30D-07  0.00D+00 EMaxC= 1.00D-01 BMatC= 7.36D-12 BMatP= 3.09D-10
 IDIUse=1 WtCom= 1.00D+00 WtEn= 0.00D+00
 Coeff-Com: -0.543D-02 0.654D-01 0.104D+00 0.199D+00 0.637D+00
 Coeff:     -0.543D-02 0.654D-01 0.104D+00 0.199D+00 0.637D+00
 Gap=     0.258 Goal=   None    Shift=    0.000
 RMSDP=2.64D-08 MaxDP=1.15D-06 DE=-2.69D-10 OVMax= 2.34D-06

 Cycle  10  Pass 1  IDiag  1:
 E= -346.983627225040     Delta-E=       -0.000000000013 Rises=F Damp=F
 DIIS: error= 1.08D-07 at cycle   6 NSaved=   6.
 NSaved= 6 IEnMin= 6 EnMin= -346.983627225040     IErMin= 6 ErrMin= 1.08D-07
 ErrMax= 1.08D-07  0.00D+00 EMaxC= 1.00D-01 BMatC= 3.62D-12 BMatP= 7.36D-12
 IDIUse=1 WtCom= 1.00D+00 WtEn= 0.00D+00
 Coeff-Com: -0.120D-02 0.107D-01 0.183D-01 0.584D-01 0.429D+00 0.485D+00
 Coeff:     -0.120D-02 0.107D-01 0.183D-01 0.584D-01 0.429D+00 0.485D+00
 Gap=     0.258 Goal=   None    Shift=    0.000
 RMSDP=1.28D-08 MaxDP=4.76D-07 DE=-1.32D-11 OVMax= 1.05D-06

 Cycle  11  Pass 1  IDiag  1:
 E= -346.983627225039     Delta-E=        0.000000000000 Rises=F Damp=F
 DIIS: error= 1.15D-08 at cycle   7 NSaved=   7.
 NSaved= 7 IEnMin= 6 EnMin= -346.983627225040     IErMin= 7 ErrMin= 1.15D-08
 ErrMax= 1.15D-08  0.00D+00 EMaxC= 1.00D-01 BMatC= 6.32D-14 BMatP= 3.62D-12
 IDIUse=1 WtCom= 1.00D+00 WtEn= 0.00D+00
 Coeff-Com:  0.300D-04-0.196D-02-0.272D-02 0.258D-02 0.872D-01 0.171D+00
 Coeff-Com:  0.744D+00
 Coeff:      0.300D-04-0.196D-02-0.272D-02 0.258D-02 0.872D-01 0.171D+00
 Coeff:      0.744D+00
 Gap=     0.258 Goal=   None    Shift=    0.000
 RMSDP=1.91D-09 MaxDP=4.27D-08 DE= 2.27D-13 OVMax= 8.43D-08

 SCF Done:  E(RB3LYP) =  -346.983627225     A.U. after   11 cycles
            NFock= 11  Conv=0.19D-08     -V/T= 2.0091
 KE= 3.438402852817D+02 PE=-1.465788926716D+03 EE= 4.469131761742D+02
 Leave Link  502 at Thu Sep  8 15:16:09 2022, MaxMem= 24159191040 cpu:        59.7
 (Enter /public/home/users/caep010/software/Gaussian09/g09/l701.exe)
 Compute integral first derivatives.
 ... and contract with generalized density number  0.
 Leave Link  701 at Thu Sep  8 15:16:09 2022, MaxMem= 24159191040 cpu:        10.8
 (Enter /public/home/users/caep010/software/Gaussian09/g09/l702.exe)
 L702 exits ... SP integral derivatives will be done elsewhere.
 Leave Link  702 at Thu Sep  8 15:16:09 2022, MaxMem= 24159191040 cpu:         0.6
 (Enter /public/home/users/caep010/software/Gaussian09/g09/l703.exe)
 Compute integral first derivatives, UseDBF=F ICtDFT=           0.
 Integral derivatives from FoFJK, PRISM(SPDF).
 Calling FoFJK, ICntrl=      2127 FMM=F ISym2X=0 I1Cent= 0 IOpClX= 0 NMat=1 NMatS=1 NMatT=0.
 FoFJK:  IHMeth= 1 ICntrl=    2127 DoSepK=F KAlg= 0 I1Cent=   0 FoldK=F
 IRaf=         0 NMat=   1 IRICut=       1 DoRegI=T DoRafI=F ISym2E= 0.
 FoFCou: FMM=F IPFlag=           0 FMFlag=      100000 FMFlg1=         800
         NFxFlg=           0 DoJE=F BraDBF=F KetDBF=F FulRan=T
         wScrn=  0.000000 ICntrl=    2127 IOpCl=  0 I1Cent=           0 NGrid=           0
         NMat0=    1 NMatS0=      1 NMatT0=    0 NMatD0=    1 NMtDS0=    0 NMtDT0=    0
 Symmetry not used in FoFCou.
 Leave Link  703 at Thu Sep  8 15:16:10 2022, MaxMem= 24159191040 cpu:        14.4
 (Enter /public/home/users/caep010/software/Gaussian09/g09/l716.exe)
 Dipole        = 1.09985929D-01 1.91572454D-01 4.55248971D-01
 ***** Axes restored to original set *****
 -------------------------------------------------------------------
 Center     Atomic                   Forces (Hartrees/Bohr)
 Number     Number              X              Y              Z
 -------------------------------------------------------------------
      1        6          -0.000163866   -0.000070943    0.000246709
      2        6          -0.000153225    0.000285150   -0.000564792
      3        8          -0.000312764   -0.000218995    0.000417295
      4        6          -0.000109079   -0.000614970   -0.000443181
      5        6           0.000220431    0.000051863   -0.000069920
      6        6           0.000201281    0.000122318    0.000033881
      7        8           0.000471781    0.000465995    0.000487588
      8        1          -0.000078227   -0.000026801    0.000091086
      9        1          -0.000090848   -0.000014750    0.000071166
     10        1           0.000068998    0.000146293   -0.000245737
     11        1          -0.000029280    0.000017882   -0.000004810
     12        1           0.000059549   -0.000010411    0.000086521
     13        1           0.000027706    0.000002323   -0.000040571
     14        1           0.000005902    0.000002500    0.000019450
     15        1           0.000009591   -0.000021087    0.000042775
     16        1           0.000025459    0.000050724   -0.000006312
     17        1          -0.000153406   -0.000167091   -0.000121146
 -------------------------------------------------------------------
 Cartesian Forces:  Max     0.000614970 RMS     0.000217623
 Leave Link  716 at Thu Sep  8 15:16:10 2022, MaxMem= 24159191040 cpu:         0.6
 (Enter /public/home/users/caep010/software/Gaussian09/g09/l103.exe)

 GradGradGradGradGradGradGradGradGradGradGradGradGradGradGradGradGradGrad
 Berny optimization.
 Using GEDIIS/GDIIS optimizer.
 FormGI is forming the generalized inverse of G from B-inverse, IUseBI=4.
 Internal  Forces:  Max     0.000734923 RMS     0.000153589
 Search for a local minimum.
 Step number   2 out of a maximum of   85
 All quantities printed in internal units (Hartrees-Bohrs-Radians)
 RMS Force = .15359D-03 SwitMx=.10000D-02 MixMth= 2
 Mixed Optimization -- En-DIIS/RFO-DIIS
 Swapping is turned off.
 Update second derivatives using D2CorX and points    1    2
 DE= -7.09D-05 DEPred=-7.66D-05 R= 9.25D-01
 TightC=F SS=  1.41D+00  RLast= 3.15D-02 DXNew= 5.0454D-01 9.4356D-02
 Trust test= 9.25D-01 RLast= 3.15D-02 DXMaxT set to 3.00D-01
 ITU=  1  0
     Eigenvalues ---    0.00237   0.00335   0.00461   0.01244   0.01692
     Eigenvalues ---    0.02156   0.02972   0.02972   0.04656   0.05400
     Eigenvalues ---    0.05480   0.05601   0.05733   0.06238   0.07604
     Eigenvalues ---    0.15691   0.16000   0.16000   0.16000   0.16000
     Eigenvalues ---    0.16000   0.16000   0.16000   0.16000   0.16173
     Eigenvalues ---    0.16317   0.17522   0.24986   0.25130   0.28560
     Eigenvalues ---    0.29177   0.31600   0.34084   0.34199   0.34314
     Eigenvalues ---    0.34381   0.34546   0.34708   0.35377   0.36157
     Eigenvalues ---    0.39251   0.51252   0.53703   0.54766   0.61862
 En-DIIS/RFO-DIIS IScMMF=        0 using points:     2    1
 RFO step:  Lambda=-3.51549316D-06.
 NNeg= 0 NP= 2 Switch=  2.50D-03 Rises=F DC=  7.09D-05 SmlDif=  1.00D-05
 RMS Error=  0.3312939981D-03 NUsed= 2 EDIIS=F
 DidBck=F Rises=F RFO-DIIS coefs:    0.93800    0.06200
 Iteration  1 RMS(Cart)=  0.00172932 RMS(Int)=  0.00000219
 Iteration  2 RMS(Cart)=  0.00000241 RMS(Int)=  0.00000028
 Iteration  3 RMS(Cart)=  0.00000000 RMS(Int)=  0.00000028
 ITry= 1 IFail=0 DXMaxC= 4.73D-03 DCOld= 1.00D+10 DXMaxT= 3.00D-01 DXLimC= 3.00D+00 Rises=F
 Variable       Old X    -DE/DX   Delta X   Delta X   Delta X     New X
                                 (Linear)    (Quad)   (Total)
    R1        2.52820  -0.00054  -0.00055   0.00012  -0.00042   2.52777
    R2        2.05414  -0.00007  -0.00013   0.00005  -0.00008   2.05405
    R3        2.04108  -0.00003  -0.00013   0.00015   0.00002   2.04110
    R4        2.58329   0.00009  -0.00039   0.00086   0.00047   2.58376
    R5        2.88418  -0.00073  -0.00039  -0.00159  -0.00198   2.88220
    R6        1.82678   0.00008  -0.00038   0.00081   0.00043   1.82722
    R7        2.89819  -0.00006  -0.00011  -0.00000  -0.00012   2.89807
    R8        2.91158  -0.00020  -0.00009  -0.00050  -0.00059   2.91099
    R9        2.71418   0.00039  -0.00028   0.00141   0.00113   2.71531
   R10        2.06450   0.00001  -0.00002   0.00006   0.00003   2.06454
   R11        2.07030  -0.00005  -0.00002  -0.00012  -0.00013   2.07017
   R12        2.06709   0.00004  -0.00002   0.00013   0.00011   2.06720
   R13        2.06826  -0.00001  -0.00001  -0.00001  -0.00003   2.06824
   R14        2.06176   0.00005  -0.00003   0.00018   0.00015   2.06191
   R15        2.07270  -0.00002  -0.00004   0.00001  -0.00003   2.07267
   R16        1.82678   0.00014  -0.00042   0.00099   0.00057   1.82736
    A1        2.11530  -0.00006  -0.00001  -0.00035  -0.00036   2.11494
    A2        2.12809  -0.00008  -0.00001  -0.00046  -0.00047   2.12762
    A3        2.03978   0.00015   0.00003   0.00080   0.00083   2.04061
    A4        2.15497   0.00011   0.00008   0.00027   0.00035   2.15532
    A5        2.19820   0.00004   0.00011  -0.00006   0.00005   2.19825
    A6        1.92978  -0.00015  -0.00019  -0.00021  -0.00040   1.92938
    A7        1.89775  -0.00050  -0.00006  -0.00283  -0.00289   1.89485
    A8        1.96631  -0.00009  -0.00003  -0.00063  -0.00066   1.96565
    A9        1.91053  -0.00003  -0.00011  -0.00028  -0.00038   1.91014
   A10        1.83204  -0.00009  -0.00022  -0.00150  -0.00172   1.83033
   A11        1.92987   0.00016   0.00006   0.00169   0.00175   1.93162
   A12        1.90627   0.00007   0.00020   0.00057   0.00078   1.90704
   A13        1.91621  -0.00004   0.00009  -0.00002   0.00007   1.91627
   A14        1.92917   0.00004   0.00005   0.00017   0.00021   1.92938
   A15        1.90625  -0.00014  -0.00006  -0.00083  -0.00089   1.90536
   A16        1.95652   0.00004  -0.00006   0.00046   0.00040   1.95692
   A17        1.88554   0.00002   0.00002  -0.00013  -0.00010   1.88543
   A18        1.90539  -0.00002   0.00003   0.00002   0.00005   1.90543
   A19        1.87900   0.00006   0.00003   0.00029   0.00032   1.87932
   A20        1.94100   0.00002  -0.00009   0.00033   0.00024   1.94124
   A21        1.92242   0.00002   0.00005   0.00004   0.00010   1.92252
   A22        1.91850  -0.00008  -0.00004  -0.00042  -0.00047   1.91803
   A23        1.89905  -0.00001   0.00000  -0.00001  -0.00001   1.89904
   A24        1.88124   0.00003   0.00002   0.00014   0.00016   1.88141
   A25        1.90069   0.00002   0.00006  -0.00008  -0.00002   1.90067
   A26        1.86955  -0.00040   0.00013  -0.00257  -0.00244   1.86711
    D1        0.00010   0.00000   0.00002   0.00019   0.00021   0.00031
    D2       -3.11579  -0.00000  -0.00005  -0.00002  -0.00006  -3.11586
    D3       -3.13422   0.00000   0.00001   0.00015   0.00016  -3.13406
    D4        0.03307  -0.00000  -0.00005  -0.00006  -0.00011   0.03296
    D5        0.04371   0.00006  -0.00030   0.00313   0.00283   0.04654
    D6       -3.12011   0.00007  -0.00024   0.00332   0.00307  -3.11704
    D7       -0.03320  -0.00004  -0.00039   0.00146   0.00107  -0.03212
    D8        2.12170   0.00009  -0.00041   0.00300   0.00259   2.12429
    D9       -2.10568  -0.00002  -0.00049   0.00204   0.00155  -2.10413
   D10        3.13130  -0.00005  -0.00045   0.00127   0.00082   3.13211
   D11       -0.99699   0.00008  -0.00048   0.00281   0.00233  -0.99466
   D12        1.05881  -0.00003  -0.00055   0.00184   0.00130   1.06011
   D13       -1.03530   0.00002  -0.00027  -0.00168  -0.00195  -1.03725
   D14       -3.10750   0.00005  -0.00029  -0.00112  -0.00140  -3.10891
   D15        1.09475   0.00005  -0.00024  -0.00122  -0.00146   1.09329
   D16        3.10378  -0.00000  -0.00015  -0.00212  -0.00228   3.10150
   D17        1.03158   0.00003  -0.00017  -0.00156  -0.00173   1.02985
   D18       -1.04935   0.00003  -0.00012  -0.00166  -0.00179  -1.05114
   D19        0.99330  -0.00011  -0.00043  -0.00354  -0.00397   0.98934
   D20       -1.07890  -0.00007  -0.00045  -0.00298  -0.00342  -1.08232
   D21        3.12336  -0.00008  -0.00040  -0.00308  -0.00348   3.11988
[...]
 ! D31   D(2,4,7,17)          -170.3142         -DE/DX =    0.0                 !
 ! D32   D(5,4,7,17)            68.7245         -DE/DX =    0.0                 !
 ! D33   D(6,4,7,17)           -52.7935         -DE/DX =    0.0                 !
 --------------------------------------------------------------------------------
 GradGradGradGradGradGradGradGradGradGradGradGradGradGradGradGradGradGrad

 Leave Link  103 at Thu Sep  8 15:16:39 2022, MaxMem= 24159191040 cpu:         2.3
 (Enter /public/home/users/caep010/software/Gaussian09/g09/l9999.exe)
 1\1\GINC-B1161\Freq\RB3LYP\6-31G(d,p)\C5H10O2\ROOT\08-Sep-2022\0\\#P G
 eom=AllCheck Guess=TCheck SCRF=Check GenChk RB3LYP/6-31G(d,p) Freq\\Fr
 ag_678\\0,1\C,1.894358771,0.3429629641,-0.8485885625\C,1.1157069238,0.
 0881279994,0.2084705858\O,1.6011373745,-0.3036181446,1.4254469264\C,-0
 .4075559441,0.155928315,0.2362865605\C,-1.0032511857,0.6022216634,-1.1
 042989141\C,-0.9751726169,-1.213249984,0.6548828745\O,-0.7147500309,1.
 1372198175,1.2409260829\H,2.9753217641,0.2478438846,-0.7870384469\H,1.
 4840318413,0.6576636684,-1.7967685905\H,2.567009453,-0.3118699514,1.38
 33696805\H,-0.6310910419,1.5921009567,-1.3783711833\H,-2.0930798537,0.
 663521103,-1.0113637594\H,-0.777636056,-0.1023488327,-1.9100733293\H,-
 0.7246002398,-1.9867928099,-0.0777185408\H,-0.5735262388,-1.5055258634
 ,1.6262992481\H,-2.0684434639,-1.158865403,0.7241540565\H,-1.668458456
 ,1.094879617,1.3944873116\\Version=ES64L-G09RevE.01\State=1-A\HF=-346.
 983632\RMSD=2.540e-09\RMSF=1.275e-05\ZeroPoint=0.1457001\Thermal=0.154
 1337\Dipole=-0.1129839,-0.3512276,-0.3452948\DipoleDeriv=-0.1620966,-0
 .1122522,0.2449934,-0.0293288,-0.3883647,-0.0399862,0.0613976,-0.01612
 42,-0.362602,0.4152652,-0.030052,0.2014106,-0.0454983,0.1239102,-0.299
 2723,-0.0479029,-0.2874359,1.0593157,-0.3713515,0.1054676,-0.4192102,0
 .001831,-0.4297014,0.2415283,-0.1212292,0.2037238,-1.0806276,0.4662971
 ,-0.0237016,-0.149687,-0.1243905,0.6084891,0.1692259,-0.0376115,0.1229
 48,0.6009859,0.0261342,-0.0004588,-0.0736504,0.030683,0.0296058,0.0901
 57,-0.0134601,0.0149853,-0.0632006,0.0173436,-0.063235,0.0131324,0.028
 051,-0.0578157,-0.0029775,0.0293664,0.0988496,0.0008266,-0.345243,0.09
 36983,0.0974773,0.1234888,-0.7279832,-0.1948718,0.0730892,-0.1604773,-
 0.7595542,-0.1334534,0.0208547,-0.0157481,0.0447966,0.1450062,0.032540
 9,-0.0553601,0.0398982,0.0452077,0.0482301,0.0257679,-0.0641473,0.0143
 295,0.1159492,0.0493946,-0.0472567,0.0443853,-0.0064067,0.113635,-0.01
 04716,0.054024,-0.0234534,0.324216,0.0115449,0.1107566,0.0125193,0.298
 7081,0.0485527,-0.066772,0.0240661,-0.0528331,-0.0848621,0.0552816,0.0
 009176,0.0470195,0.0176223,-0.1692883,0.0209504,-0.0017511,0.007504,0.
 0597861,0.0025008,0.043695,-0.0008954,0.0399135,0.0593735,0.0312752,0.
 0456475,0.0303629,-0.0309421,-0.0865108,0.0205616,-0.0711215,-0.060403
 2,0.0539908,0.0321579,0.037402,0.0238768,-0.0497616,-0.0730807,0.02513
 38,-0.1060438,-0.0283968,0.074123,0.0177316,-0.0491525,0.0143812,0.030
 2806,0.0408133,-0.0410519,0.0624426,-0.0590608,-0.1898547,-0.0082273,0
 .0357492,0.0161188,0.0171068,0.0115773,0.0253058,0.0085807,0.051581,0.
 0483424,-0.0327332,0.019444,-0.0599196,0.3150808,-0.0078652,-0.0263511
 ,-0.013254,0.3060911\Polar=69.3094099,0.6237463,46.8810539,-5.7558211,
 -5.2290759,62.7259524\PG=C01 [X(C5H10O2)]\NImag=0\\0.70804309,-0.01794
 632,0.14096918,-0.08986834,-0.19188682,0.74813758,-0.27258955,-0.04077
 902,0.19159090,0.66545254,-0.04495881,-0.07054121,0.07692288,0.0146646
 7,0.22758603,0.20443036,0.07711870,-0.35864539,-0.14482350,-0.15126255
 ,0.73617449,0.01541594,-0.00381750,0.01173232,-0.13212301,0.02636615,-
 0.07880389,0.65363439,0.00533309,0.00653975,0.02111721,0.01101103,-0.0
 6976325,0.06621974,-0.02681017,0.06776737,-0.01925164,0.02257651,-0.05
 991141,-0.03138032,0.06657942,-0.26294391,0.04716622,-0.10222502,0.366
 30800,-0.01152879,-0.00107668,0.00595266,-0.18370203,-0.00330596,-0.00
 743277,-0.02217403,0.00373460,-0.00920104,0.53449638,-0.00668507,0.006
 10728,-0.00084600,0.00114556,-0.07322409,0.00809370,0.01201695,-0.0012
 6170,0.00090533,-0.00617162,0.44986981,0.02152743,-0.00157207,0.004644
 92,0.00990731,0.00609741,-0.07425662,-0.04053626,0.00385307,-0.0099561
 1,0.01279432,-0.02791142,0.48809001,-0.00284385,-0.00014959,0.00043932
 ,-0.01278439,0.01031620,-0.02915053,-0.00740315,0.00062871,-0.00079464
 ,-0.10148722,0.01283684,-0.03838758,0.56315466,-0.00035104,-0.00122291
 ,-0.00038460,0.00150338,-0.00019085,0.00178730,-0.00014105,0.00078018,
 -0.00012088,0.01547979,-0.08914701,0.03800391,0.01723554,0.58496734,0.
 00144877,-0.00035777,-0.00102388,-0.00871408,0.00146013,0.00165909,0.0
 0288673,0.00002085,0.00089513,-0.03162164,0.03262340,-0.14609085,-0.04
 350043,0.03083917,0.49935335,-0.00289963,0.00100686,-0.00189431,-0.020
 12721,-0.03269786,0.01146224,-0.00150954,-0.00074821,-0.00009545,-0.09
 577981,-0.03824357,0.00884925,0.00597957,0.01085747,-0.00421194,0.5623
 7314,0.00225347,-0.00071469,-0.00080788,-0.01166982,0.00092923,0.00059
 020,0.00028939,-0.00044046,0.00129114,-0.02362654,-0.13935857,0.027737
 05,-0.00402998,-0.01227280,0.01181114,-0.04407845,0.48400323,-0.000407
 49,0.00014850,-0.00054348,0.00445422,0.00153962,0.00174397,-0.00038589
 ,0.00055658,-0.00035357,0.01128240,0.03432915,-0.08760853,0.01018006,0
 .03091745,-0.01068862,0.01910921,0.03004812,0.58744558,-0.00379071,0.0
 0054123,-0.00220552,-0.01872174,0.03088454,0.03339762,-0.00022474,0.00
 093357,0.00090379,-0.09507713,0.03061304,0.03206622,0.00440880,-0.0064
 1802,-0.00675252,0.00425993,-0.00636863,-0.00605964,0.59984157,0.00018
 858,0.00012154,0.00081692,0.01062150,-0.00491781,-0.00726307,0.0005661
 8,0.00097470,-0.00030362,-0.01361843,-0.12447444,-0.05641582,0.0014462
 4,-0.00022968,-0.00873519,0.01096505,-0.04009923,-0.03675388,0.0084027
 6,0.19263062,0.00025532,-0.00040594,0.00207926,0.01139859,-0.00907244,
 -0.01251950,-0.00036251,0.00082537,0.00361806,-0.00637230,-0.06646917,
 -0.12835728,0.01049140,-0.03522118,-0.04087770,0.00256500,-0.00800576,
 -0.00156735,-0.10251127,0.12808519,0.20459823,-0.33261633,0.02633444,-
 0.01539990,-0.01797832,0.00324153,-0.00651677,0.00297254,-0.00035978,-
 0.00096505,0.00179014,-0.00033256,0.00197674,0.00028391,-0.00016286,0.
 00030979,-0.00045221,0.00026910,-0.00002767,-0.00099757,0.00020709,0.0
 0067043,0.35424988,0.02737426,-0.03175851,0.00943509,-0.00728475,0.003
 52373,0.00086400,-0.00079256,-0.00600437,-0.00279415,0.00241924,0.0091
 9320,0.00326139,0.00004657,-0.00028976,-0.00031189,0.00197089,-0.00063
 228,-0.00020970,-0.00297251,-0.00008487,0.00069299,-0.02858000,0.02381
 938,-0.01892936,0.00984029,-0.05545332,0.02621052,-0.00152485,0.002577
 32,0.00114133,-0.00298680,0.00294831,0.00053154,0.00414022,-0.00299591
 ,-0.00080600,-0.00001524,-0.00033583,0.00120725,-0.00046052,0.00017064
 ,-0.00008653,-0.00016315,0.00024658,0.01582542,-0.01064091,0.05083804,
 -0.09958184,0.03677127,-0.10440045,0.01145354,-0.00528891,0.01424227,-
 0.00091672,-0.00063161,0.00535190,0.00052866,-0.00025441,-0.00023805,-
 0.00276308,-0.00008160,0.00078505,-0.00013763,0.00000935,-0.00011550,0
 .00009301,0.00002380,-0.00042346,-0.00715129,0.00794498,-0.02460640,0.
 10112440,0.03510258,-0.05081997,0.08591003,0.00300421,-0.00369371,0.00
 270261,-0.00001280,0.01129679,0.00378414,-0.00075606,-0.00519690,-0.00
 092086,0.00065460,0.00145635,0.00054371,-0.00106852,0.00050617,0.00024
 961,0.00127882,-0.00007117,-0.00064791,-0.00001634,0.00020414,0.001145
 79,-0.03844137,0.04926346,-0.09846777,0.08502112,-0.28221093,-0.013477
 95,0.00547199,-0.01733276,0.00338648,0.00384005,-0.00114169,-0.0015876
 1,-0.00120273,-0.00099929,-0.00101363,0.00047596,0.00022035,-0.0001899
 3,0.00003637,0.00013048,0.00056383,-0.00006946,0.00023075,0.00174084,-
 0.00061239,0.00235150,0.10861763,-0.09151189,0.29728246,0.00505159,-0.
 00196325,0.00527690,-0.02296663,0.00044748,0.00101030,-0.50514447,0.00
 796393,0.00740122,0.00145287,0.00112256,-0.00317002,-0.00062815,-0.000
 16582,0.00066528,0.00046595,0.00017994,0.00000124,0.00032188,-0.000113
 29,-0.00018248,-0.00002511,0.00024792,-0.00076128,-0.00067875,-0.00019
 878,0.00089572,0.52218094,0.00004171,-0.00122422,-0.00088610,0.0157606
 5,-0.00060200,0.00149597,-0.00772321,-0.01094576,0.01077565,0.00052076
 ,0.00194353,0.00268310,0.00050427,0.00021623,-0.00019551,-0.00019694,0
 .00004218,0.00019703,-0.00060181,-0.00001546,0.00023918,-0.00047699,0.
 00053517,0.00039150,-0.00018220,-0.00099322,-0.00044656,-0.00768508,0.
 01078179,-0.00158242,-0.00057664,0.00079067,-0.04725597,0.00220561,-0.
 00287206,0.05842474,0.01021639,-0.04203084,-0.00164501,0.00274733,-0.0
 0623526,-0.00147769,0.00000641,0.00051557,0.00075222,0.00031799,-0.000
 25259,0.00090629,-0.00053002,0.00021177,0.00208841,0.00013684,-0.00087
 676,0.00053096,-0.00035709,0.00043431,-0.01050723,-0.01387064,0.050276
 37,-0.00090905,0.00021883,0.00002319,0.00067527,0.00073358,-0.00045581
 ,0.00025230,-0.00029694,0.00045945,0.00466751,0.01332639,-0.00295376,-
 0.08072208,-0.08679831,0.02335957,-0.00098146,0.00042601,-0.00191081,-
 0.00037542,0.00024021,0.00127812,0.00008648,-0.00007677,0.00005891,-0.
 00113059,0.00078094,0.00016796,-0.00004806,0.00003953,-0.00000101,0.08
 565763,0.00003119,0.00045676,0.00038427,-0.00119711,-0.00011797,0.0009
 9726,0.00012899,0.00039430,-0.00080514,-0.00356670,-0.01055218,0.00088
 265,-0.08480127,-0.27063527,0.05979269,0.00192188,0.00039841,0.0024388
 7,0.00018948,0.00213406,-0.00075664,-0.00010002,0.00027278,-0.00038571
 ,0.00037234,-0.00041278,-0.00068411,0.00012619,-0.00004797,0.00008750,
 0.09324730,0.29117572,-0.00016531,-0.00034375,0.00057636,0.00125622,0.
 00003798,-0.00001777,0.00012538,-0.00034197,0.00022901,0.01113552,0.02
 781275,-0.00741270,0.02287612,0.05695889,-0.06380390,-0.00311299,0.000
 55366,-0.00544299,0.00020272,-0.00115529,0.00339691,-0.00005114,-0.000
 05164,0.00001315,0.00022552,-0.00008797,0.00018718,-0.00007191,-0.0000
 0635,0.00002762,-0.02425099,-0.06638040,0.06691059,0.00003525,-0.00000
 927,0.00011626,0.00136654,0.00048930,-0.00155427,-0.00119691,0.0002707
 5,-0.00065622,-0.01550532,0.00141658,0.00301623,-0.30710316,0.01372830
 ,0.02481642,0.00031007,-0.00103022,0.00087602,0.00264816,-0.00075884,0
 .00063556,-0.00006811,0.00006512,-0.00013097,0.00000139,0.00006581,-0.
 00038206,0.00003385,0.00006766,-0.00015897,-0.01002111,0.00129302,0.00
 105755,0.33363984,-0.00001146,0.00027160,0.00025562,-0.00036882,-0.000
 43278,0.00174632,0.00079793,0.00022680,0.00012606,0.01076844,-0.002292
 18,-0.00172353,0.01295600,-0.04823377,-0.00058960,0.00109301,0.0002826
 1,-0.00051525,-0.00086932,-0.00050239,-0.00054250,0.00000235,0.0002286
 7,-0.00003788,-0.00000969,-0.00043329,-0.00028793,0.00011741,0.0000111
 7,0.00018096,-0.02962064,0.00334839,0.00265839,-0.01568203,0.04805274,
 0.00016456,0.00021363,-0.00018861,0.00080563,0.00153715,-0.00554275,-0
 .00218128,0.00009396,0.00010847,-0.03127970,0.00196028,0.00058478,0.02
 630771,-0.00176672,-0.04979873,-0.00055999,-0.00122559,0.00118191,0.00
 045646,0.00097119,0.00331262,0.00006465,-0.00002171,0.00032990,-0.0000
 3620,-0.00033075,0.00045184,-0.00036605,0.00018511,-0.00044529,0.00760
 188,-0.00133877,-0.00159658,-0.02619162,-0.00048864,0.05430943,-0.0009
 7162,0.00011284,-0.00017207,-0.00003820,-0.00003763,-0.00030723,0.0002
 8634,-0.00013122,0.00055928,0.00267105,-0.00982790,-0.00660383,-0.0592
 6584,0.03754932,0.04202346,-0.00004124,-0.00008097,0.00048009,0.000610
 46,-0.00038581,-0.00419621,0.00005333,-0.00010682,0.00008819,-0.000953
 87,-0.00043163,-0.00029125,-0.00006708,-0.00005307,-0.00002419,0.00202
 573,-0.00710182,-0.00971286,-0.00553626,0.02140529,0.02415730,0.061131
 19,0.00030009,0.00063398,-0.00031932,0.00050080,0.00030215,-0.00080253
 ,-0.00025889,-0.00015429,0.00039702,-0.00362598,0.00541971,0.00618250,
 0.03632056,-0.16200990,-0.12585043,-0.00016742,-0.00015227,-0.00013766
 ,0.00054155,0.00225067,0.00239687,0.00012358,0.00003547,0.00035827,-0.
 00022853,-0.00052019,0.00018441,-0.00005694,0.00000688,-0.00010105,0.0
 0763309,-0.01625428,-0.02155287,-0.00003579,-0.00099127,0.00034294,-0.
 04103106,0.17149409,-0.00003810,0.00039712,0.00042414,0.00087501,-0.00
 000255,-0.00052224,0.00008827,0.00001576,0.00071262,0.00992210,-0.0204
 1902,-0.01419159,0.04012120,-0.12365000,-0.19098148,0.00031021,-0.0004
 8876,0.00085759,-0.00246452,0.00000237,-0.00907887,0.00003613,0.000057
 80,0.00026807,-0.00001625,-0.00038963,0.00043716,-0.00012731,-0.000002
 05,-0.00002846,-0.00268228,0.00578660,0.00726568,0.00043179,-0.0009935
 6,-0.00175614,-0.04541334,0.13829370,0.20569604,-0.00003258,0.00020266
 ,0.00015584,0.00038711,-0.00025438,-0.00067331,-0.00007027,0.00019300,
 0.00009568,0.00191055,-0.00627695,-0.00948379,-0.00004310,0.00045421,-
 0.00006083,-0.06262120,0.04420981,0.04292825,0.00077231,-0.00442243,-0
 .00037474,-0.00001676,-0.00007144,-0.00001625,0.00002168,0.00002062,0.
 00000060,-0.00012070,-0.00005723,-0.00000276,-0.00012590,-0.00002189,-
 0.00015250,0.00005295,0.00012131,0.00009869,0.00040127,0.00000849,-0.0
 0001926,0.06327926,-0.00033739,0.00052987,0.00041212,0.00107037,0.0005
 0184,-0.00084795,-0.00018831,0.00006048,0.00021847,0.00963578,-0.01445
 743,-0.02107476,0.00027814,0.00086007,-0.00049060,0.04279204,-0.178789
 25,-0.12334981,-0.00208975,-0.00921585,-0.00012194,-0.00005435,-0.0001
 1334,0.00005076,0.00000426,-0.00004575,0.00002720,-0.00009420,-0.00008
 510,-0.00009577,-0.00018971,0.00038204,0.00009568,-0.00011338,-0.00007
 145,0.00008768,0.00005476,-0.00002273,0.00111627,-0.04684299,0.1932519
 6,-0.00019107,0.00005721,0.00012099,0.00025864,-0.00037792,0.00031774,
 -0.00030198,0.00033538,-0.00007597,-0.00358281,0.00568837,0.00505845,-
 0.00010316,-0.00004197,-0.00021629,0.04220684,-0.12577898,-0.17018159,
 0.00053121,0.00232645,0.00226351,-0.00003177,0.00002404,0.00001013,0.0
 0002063,0.00000776,-0.00000946,-0.00010077,-0.00014873,0.00008420,-0.0
 0001257,-0.00017750,0.00020178,-0.00006391,0.00004888,-0.00002785,-0.0
 0004628,0.00057396,0.00002450,-0.04681352,0.13759969,0.18073977,-0.000
 12491,0.00006059,-0.00041954,0.00129889,-0.00007052,0.00188514,-0.0022
 6650,-0.00071317,-0.00040145,0.00479113,-0.00294196,0.01257884,-0.0010
 1497,-0.00211218,0.00027734,-0.08724014,0.02826253,-0.09330551,-0.0002
 1684,0.00107418,0.00013825,-0.00004067,-0.00009234,-0.00002491,0.00006
 790,0.00006043,-0.00009683,-0.00001130,0.00014030,-0.00025743,0.000689
 39,-0.00055933,0.00060588,0.00039857,-0.00025319,0.00009783,-0.0001391
 6,0.00002729,-0.00021284,0.00276125,-0.00310923,0.00839466,0.09168929,
 -0.00005665,0.00016795,-0.00017302,0.00146778,0.00003325,0.00116757,-0
 .00046892,-0.00011203,-0.00057017,0.01145268,-0.00828687,0.02767057,-0
 .00308533,-0.00549029,0.00044678,0.02719814,-0.06610562,0.06140655,0.0
 0006741,0.00361764,-0.00115854,-0.00006544,0.00000629,-0.00005624,0.00
 008741,-0.00001342,-0.00011330,0.00012160,0.00035351,-0.00043219,0.000
 57067,-0.00053342,0.00187537,-0.00010684,0.00005545,-0.00032186,-0.000
 12509,0.00021918,0.00010113,-0.00998404,0.00736503,-0.02069787,-0.0280
 5085,0.07060356,0.00007998,-0.00004782,0.00039144,-0.00122059,0.000915
 97,-0.00197222,-0.00103502,-0.00130685,0.00103984,-0.00265943,0.001337
 46,-0.00957439,0.00159480,0.00203097,0.00045752,-0.09038349,0.06453933
 ,-0.26710184,0.00013323,-0.00083897,0.00195032,0.00008853,-0.00002481,
 0.00001917,-0.00006012,-0.00001132,0.00008547,-0.00003768,-0.00031059,
 0.00024482,-0.00045287,0.00031942,-0.00038688,-0.00009986,-0.00011383,
 0.00008259,-0.00000928,-0.00018411,0.00036279,-0.00780359,0.00620026,-
 0.01688961,0.09995307,-0.07086243,0.28695080,-0.00054498,-0.00011437,-
 0.00042615,0.00042377,-0.00263598,0.00058369,-0.00000850,-0.00028635,0
 .00043907,-0.01447358,0.00267070,0.00147702,0.00025169,0.00084063,-0.0
 0088166,-0.30447694,0.01632735,0.01488698,0.00241797,0.00037171,-0.000
 80530,-0.00006460,0.00023869,0.00024426,0.00000199,-0.00013709,0.00004
 298,0.00006922,-0.00001286,0.00016688,0.00039000,-0.00006294,-0.000042
 44,0.00094902,-0.00024124,0.00036383,0.00001670,-0.00009198,-0.0001094
 5,-0.00643740,0.00024634,-0.00013925,-0.01041238,0.00063663,0.00187829
 ,0.33192121,-0.00125187,0.00046692,-0.00033087,-0.00038181,-0.00557226
 ,0.00239559,0.00002467,0.00064392,-0.00033393,-0.03154692,-0.00099817,
 0.00196931,-0.00056254,0.00125062,-0.00127080,0.01683278,-0.04843267,-
 0.00158703,0.00033357,0.00331304,0.00143120,-0.00019637,0.00051940,0.0
 0036816,-0.00003931,-0.00032515,-0.00009472,0.00001251,-0.00000751,0.0
 0004225,0.00012758,0.00015979,-0.00033937,0.00051247,-0.00012383,0.000
 27074,0.00007535,-0.00004591,0.00007951,0.02335979,-0.00087051,0.00024
 431,0.00810214,-0.00146590,-0.00181948,-0.01623623,0.05215548,0.000396
 91,0.00002911,0.00044246,-0.00046299,0.00259893,-0.00144152,-0.0005277
 9,-0.00055797,0.00060269,0.01043325,-0.00072643,-0.00213754,0.00098737
 ,-0.00043176,0.00022729,0.01447738,-0.00069853,-0.04907322,-0.00101209
 ,-0.00061836,-0.00031477,0.00007500,-0.00027816,-0.00011474,0.00005037
 ,0.00013527,0.00005783,0.00000073,-0.00027859,0.00004853,-0.00026140,-
 0.00016443,0.00006771,-0.00030223,0.00052779,-0.00012954,0.00012737,0.
 00007150,-0.00008325,0.02218809,-0.00023796,-0.00107776,-0.02869688,0.
 00138669,0.00444304,-0.01721066,-0.00032391,0.04794363,-0.00011202,0.0
 0060728,-0.00050112,-0.00002659,0.00210660,0.00270646,0.00047633,-0.00
 009124,0.00036924,-0.01258038,-0.00441457,-0.00282005,0.00198037,-0.00
 141775,-0.00082931,0.00287835,-0.00134233,-0.00198596,-0.49596994,-0.0
 1480852,0.08779560,-0.00002531,-0.00033044,0.00005428,0.00002121,0.000
 09456,0.00009099,0.00011396,-0.00008549,0.00004318,-0.00013062,0.00010
 069,0.00007524,-0.00000478,-0.00020535,0.00049630,-0.00018281,0.000041
 15,-0.00070138,-0.00011847,-0.00106239,-0.00002487,-0.00022955,0.00034
 085,0.00003403,-0.00002319,0.00083420,-0.00026242,0.50393346,0.0009736
 4,0.00001667,0.00038047,0.00093139,-0.00382032,-0.00500286,0.00002315,
 -0.00000243,0.00049918,0.03328361,-0.00328401,-0.00872251,-0.00059494,
 0.00019145,0.00026391,0.00256286,0.00083600,0.00072183,-0.05446592,-0.
 02543139,-0.01126878,0.00016662,0.00054489,-0.00002370,-0.00005580,-0.
 00020135,-0.00003401,-0.00006219,0.00003078,0.00002210,-0.00036176,-0.
 00016838,0.00026690,-0.00017263,0.00060353,-0.00016862,0.00011546,-0.0
 0021129,0.00009531,-0.00063855,0.00072012,0.00031694,0.00017532,-0.000
 41428,0.00017680,-0.00151300,-0.00066728,-0.00043319,0.01963277,0.0312
 5728,0.00059817,-0.00021137,0.00036919,0.00057836,-0.00312679,-0.00440
 589,-0.00081687,0.00032425,-0.00004862,0.03333052,-0.00206322,-0.00856
 208,0.00223569,0.00061228,0.00048898,-0.00049150,0.00054101,0.00128360
 ,0.05193071,-0.01935530,-0.02919254,0.00011636,0.00047321,0.00000374,0
 .00007212,-0.00022149,-0.00017521,0.00007334,0.00017756,0.00010742,0.0
 0003241,0.00000344,-0.00021519,-0.00140969,-0.00025130,-0.00087607,-0.
 00065914,0.00014680,0.00059344,-0.00006660,0.00041065,-0.00034255,-0.0
 0051562,0.00033097,-0.00010286,-0.00046809,-0.00070094,0.00053917,-0.0
 8454018,0.02291024,0.04053546\\-0.00000789,-0.00000186,0.00001539,-0.0
 0000939,0.00003573,-0.00005078,-0.00000361,-0.00000613,0.00003756,0.00
 000946,-0.00002458,-0.00002068,0.00001192,-0.00000044,-0.00000137,0.00
 000777,-0.00000515,-0.00000946,0.00000082,0.00001897,0.00000747,-0.000
 00433,-0.00000156,0.00000827,-0.00000779,-0.00000330,0.00000766,0.0000
 1101,-0.00000332,-0.00000966,0.00000276,-0.00000278,0.00000232,-0.0000
 0157,-0.00000327,0.00000288,0.00000105,-0.00000117,0.00000231,0.000000
 81,0.00000160,0.00000270,0.00000277,0.00000447,0.00000219,-0.00000181,
 -0.00000335,0.00000249,-0.00001197,-0.00000388,0.00000073\\\@


 THE FIRST MORNING OF CREATION WROTE WHAT THE LAST DAWN OF
 RECKONING SHALL READ. -- OMAR KHAYYAM
 Job cpu time:       0 days  0 hours  7 minutes 59.6 seconds.
 File lengths (MBytes):  RWF=     48 Int=      0 D2E=      0 Chk=      3 Scr=      1
 Normal termination of Gaussian 09 at Thu Sep  8 15:16:39 2022.
