 Entering Gaussian System, Link 0=g09
 Input=B3LYP6-31Gdp.Frag_688.gjf
 Output=B3LYP6-31Gdp.Frag_688.log
 Initial command:
 /public/home/users/caep010/software/Gaussian09/g09/l1.exe "/public/home/users/caep010/.cache/gau_scr/Gau-186216.inp" -scrdir="/public/home/users/caep010/.cache/gau_scr/"
 Entering Link 1 = /public/home/users/caep010/software/Gaussian09/g09/l1.exe PID=    186217.
  
 Copyright (c) 1988,1990,1992,1993,1995,1998,2003,2009,2015,
            Gaussian, Inc.  All Rights Reserved.
  
 This is part of the Gaussian(R) 09 program.  It is based on
 the Gaussian(R) 03 system (copyright 2003, Gaussian, Inc.),
 the Gaussian(R) 98 system (copyright 1998, Gaussian, Inc.),
 the Gaussian(R) 94 system (copyright 1995, Gaussian, Inc.),
 the Gaussian 92(TM) system (copyright 1992, Gaussian, Inc.),
 the Gaussian 90(TM) system (copyright 1990, Gaussian, Inc.),
 the Gaussian 88(TM) system (copyright 1988, Gaussian, Inc.),
 the Gaussian 86(TM) system (copyright 1986, Carnegie Mellon
 University), and the Gaussian 82(TM) system (copyright 1983,
 Carnegie Mellon University). Gaussian is a federally registered
 trademark of Gaussian, Inc.
  
 This software contains proprietary and confidential information,
 including trade secrets, belonging to Gaussian, Inc.
  
 This software is provided under written license and may be
 used, copied, transmitted, or stored only in accord with that
 written license.
  
 The following legend is applicable only to US Government
 contracts under FAR:
  
                    RESTRICTED RIGHTS LEGEND
  
 Use, reproduction and disclosure by the US Government is
 subject to restrictions as set forth in subparagraphs (a)
 and (c) of the Commercial Computer Software - Restricted
 Rights clause in FAR 52.227-19.
  
 Gaussian, Inc.
 340 Quinnipiac St., Bldg. 40, Wallingford CT 06492
  
  
 ---------------------------------------------------------------
 Warning -- This program may not be used in any manner that
 competes with the business of Gaussian, Inc. or will provide
 assistance to any competitor of Gaussian, Inc.  The licensee
 of this program is prohibited from giving any competitor of
 Gaussian, Inc. access to this program.  By using this program,
 the user acknowledges that Gaussian, Inc. is engaged in the
 business of creating and licensing software in the field of
 computational chemistry and represents and warrants to the
 licensee that it is not a competitor of Gaussian, Inc. and that
 it will not use this program in any manner prohibited above.
 ---------------------------------------------------------------
  

 Cite this work as:
 Gaussian 09, Revision E.01,
 M. J. Frisch, G. W. Trucks, H. B. Schlegel, G. E. Scuseria, 
 M. A. Robb, J. R. Cheeseman, G. Scalmani, V. Barone, B. Mennucci, 
 G. A. Petersson, H. Nakatsuji, M. Caricato, X. Li, H. P. Hratchian, 
 A. F. Izmaylov, J. Bloino, G. Zheng, J. L. Sonnenberg, M. Hada, 
 M. Ehara, K. Toyota, R. Fukuda, J. Hasegawa, M. Ishida, T. Nakajima, 
 Y. Honda, O. Kitao, H. Nakai, T. Vreven, J. A. Montgomery, Jr., 
 J. E. Peralta, F. Ogliaro, M. Bearpark, J. J. Heyd, E. Brothers, 
 K. N. Kudin, V. N. Staroverov, T. Keith, R. Kobayashi, J. Normand, 
 K. Raghavachari, A. Rendell, J. C. Burant, S. S. Iyengar, J. Tomasi, 
 M. Cossi, N. Rega, J. M. Millam, M. Klene, J. E. Knox, J. B. Cross, 
 V. Bakken, C. Adamo, J. Jaramillo, R. Gomperts, R. E. Stratmann, 
 O. Yazyev, A. J. Austin, R. Cammi, C. Pomelli, J. W. Ochterski, 
 R. L. Martin, K. Morokuma, V. G. Zakrzewski, G. A. Voth, 
 P. Salvador, J. J. Dannenberg, S. Dapprich, A. D. Daniels, 
 O. Farkas, J. B. Foresman, J. V. Ortiz, J. Cioslowski, 
 and D. J. Fox, Gaussian, Inc., Wallingford CT, 2013.
 
 ******************************************
 Gaussian 09:  ES64L-G09RevE.01 30-Nov-2015
                 8-Sep-2022 
 ******************************************
 %nproc=32
 Will use up to   32 processors via shared memory.
 %mem=180GB
 %chk=B3LYP6-31Gdp.Frag_688.chk
 ----------------------------
 #P OPT Freq B3LYP/6-31G(d,p)
 ----------------------------
 1/14=-1,18=20,19=15,26=3,38=1/1,3;
 2/9=110,12=2,17=6,18=5,40=1/2;
 3/5=1,6=6,7=101,11=2,16=1,25=1,30=1,71=1,74=-5/1,2,3;
 4//1;
 5/5=2,38=5/2;
 6/7=2,8=2,9=2,10=2,28=1/1;
 7//1,2,3,16;
 1/14=-1,18=20,19=15,26=3/3(2);
 2/9=110/2;
 99//99;
 2/9=110/2;
 3/5=1,6=6,7=101,11=2,16=1,25=1,30=1,71=1,74=-5/1,2,3;
 4/5=5,16=3,69=1/1;
 5/5=2,38=5/2;
 7//1,2,3,16;
 1/14=-1,18=20,19=15,26=3/3(-5);
 2/9=110/2;
 6/7=2,8=2,9=2,10=2,19=2,28=1/1;
 99/9=1/99;
 Leave Link    1 at Thu Sep  8 15:06:41 2022, MaxMem= 24159191040 cpu:         2.6
 (Enter /public/home/users/caep010/software/Gaussian09/g09/l101.exe)
 --------
 Frag_688
 --------
 Symbolic Z-matrix:
 Charge =  0 Multiplicity = 1
 C                    -1.37757  -0.29658  -0.14561 
 C                     0.02376   0.26003  -0.12558 
 N                     0.40579   1.37604  -0.60369 
 C                     1.06712  -0.6051    0.53119 
 N                     2.29492  -0.31233   0.64767 
 H                    -2.07555   0.38487  -0.63741 
 H                    -1.39988  -1.26077  -0.66748 
 H                    -1.7298   -0.48551   0.87551 
 H                    -0.37025   1.889    -1.02625 
 H                     0.71524  -1.55979   0.9343 
 H                     2.44612   0.61004   0.21737 
 
 NAtoms=     11 NQM=       11 NQMF=       0 NMMI=      0 NMMIF=      0
                NMic=       0 NMicF=      0.
                    Isotopes and Nuclear Properties:
 (Nuclear quadrupole moments (NQMom) in fm**2, nuclear magnetic moments (NMagM)
  in nuclear magnetons)

  Atom         1           2           3           4           5           6           7           8           9          10
 IAtWgt=          12          12          14          12          14           1           1           1           1           1
 AtmWgt=  12.0000000  12.0000000  14.0030740  12.0000000  14.0030740   1.0078250   1.0078250   1.0078250   1.0078250   1.0078250
 NucSpn=           0           0           2           0           2           1           1           1           1           1
 AtZEff=   0.0000000   0.0000000   0.0000000   0.0000000   0.0000000   0.0000000   0.0000000   0.0000000   0.0000000   0.0000000
 NQMom=    0.0000000   0.0000000   2.0440000   0.0000000   2.0440000   0.0000000   0.0000000   0.0000000   0.0000000   0.0000000
 NMagM=    0.0000000   0.0000000   0.4037610   0.0000000   0.4037610   2.7928460   2.7928460   2.7928460   2.7928460   2.7928460
 AtZNuc=   6.0000000   6.0000000   7.0000000   6.0000000   7.0000000   1.0000000   1.0000000   1.0000000   1.0000000   1.0000000

  Atom        11
 IAtWgt=           1
 AtmWgt=   1.0078250
 NucSpn=           1
 AtZEff=   0.0000000
 NQMom=    0.0000000
 NMagM=    2.7928460
 AtZNuc=   1.0000000
 Leave Link  101 at Thu Sep  8 15:06:41 2022, MaxMem= 24159191040 cpu:         9.8
 (Enter /public/home/users/caep010/software/Gaussian09/g09/l103.exe)

 GradGradGradGradGradGradGradGradGradGradGradGradGradGradGradGradGradGrad
 Berny optimization.
 Initialization pass.
                           ----------------------------
                           !    Initial Parameters    !
                           ! (Angstroms and Degrees)  !
 --------------------------                            --------------------------
 ! Name  Definition              Value          Derivative Info.                !
 --------------------------------------------------------------------------------
 ! R1    R(1,2)                  1.508          estimate D2E/DX2                !
 ! R2    R(1,6)                  1.0924         estimate D2E/DX2                !
 ! R3    R(1,7)                  1.0966         estimate D2E/DX2                !
 ! R4    R(1,8)                  1.0966         estimate D2E/DX2                !
 ! R5    R(2,3)                  1.2728         estimate D2E/DX2                !
 ! R6    R(2,4)                  1.5061         estimate D2E/DX2                !
 ! R7    R(3,9)                  1.0217         estimate D2E/DX2                !
 ! R8    R(4,5)                  1.2676         estimate D2E/DX2                !
 ! R9    R(4,10)                 1.0944         estimate D2E/DX2                !
 ! R10   R(5,11)                 1.029          estimate D2E/DX2                !
 ! A1    A(2,1,6)              111.6829         estimate D2E/DX2                !
 ! A2    A(2,1,7)              110.4733         estimate D2E/DX2                !
 ! A3    A(2,1,8)              110.4702         estimate D2E/DX2                !
 ! A4    A(6,1,7)              108.7377         estimate D2E/DX2                !
 ! A5    A(6,1,8)              108.7513         estimate D2E/DX2                !
 ! A6    A(7,1,8)              106.5675         estimate D2E/DX2                !
 ! A7    A(1,2,3)              126.6972         estimate D2E/DX2                !
 ! A8    A(1,2,4)              115.9464         estimate D2E/DX2                !
 ! A9    A(3,2,4)              117.3564         estimate D2E/DX2                !
 ! A10   A(2,3,9)              111.5665         estimate D2E/DX2                !
 ! A11   A(2,4,5)              125.338          estimate D2E/DX2                !
 ! A12   A(2,4,10)             116.0374         estimate D2E/DX2                !
 ! A13   A(5,4,10)             118.6246         estimate D2E/DX2                !
 ! A14   A(4,5,11)             108.1165         estimate D2E/DX2                !
 ! D1    D(6,1,2,3)              0.0521         estimate D2E/DX2                !
 ! D2    D(6,1,2,4)           -179.9543         estimate D2E/DX2                !
 ! D3    D(7,1,2,3)            121.2135         estimate D2E/DX2                !
 ! D4    D(7,1,2,4)            -58.793          estimate D2E/DX2                !
 ! D5    D(8,1,2,3)           -121.1245         estimate D2E/DX2                !
 ! D6    D(8,1,2,4)             58.8691         estimate D2E/DX2                !
 ! D7    D(1,2,3,9)              0.0189         estimate D2E/DX2                !
 ! D8    D(4,2,3,9)           -179.9746         estimate D2E/DX2                !
 ! D9    D(1,2,4,5)           -179.9437         estimate D2E/DX2                !
 ! D10   D(1,2,4,10)             0.0331         estimate D2E/DX2                !
 ! D11   D(3,2,4,5)              0.0505         estimate D2E/DX2                !
 ! D12   D(3,2,4,10)          -179.9727         estimate D2E/DX2                !
 ! D13   D(2,4,5,11)            -0.0423         estimate D2E/DX2                !
 ! D14   D(10,4,5,11)          179.9815         estimate D2E/DX2                !
 --------------------------------------------------------------------------------
 Trust Radius=3.00D-01 FncErr=1.00D-07 GrdErr=1.00D-06
 Number of steps in this run=     48 maximum allowed number of steps=    100.
 GradGradGradGradGradGradGradGradGradGradGradGradGradGradGradGradGradGrad

 Leave Link  103 at Thu Sep  8 15:06:41 2022, MaxMem= 24159191040 cpu:         0.4
 (Enter /public/home/users/caep010/software/Gaussian09/g09/l202.exe)
                          Input orientation:                          
 ---------------------------------------------------------------------
 Center     Atomic      Atomic             Coordinates (Angstroms)
 Number     Number       Type             X           Y           Z
 ---------------------------------------------------------------------
      1          6           0       -1.377573   -0.296582   -0.145612
      2          6           0        0.023755    0.260029   -0.125583
      3          7           0        0.405790    1.376041   -0.603692
      4          6           0        1.067117   -0.605104    0.531188
      5          7           0        2.294919   -0.312325    0.647665
      6          1           0       -2.075551    0.384867   -0.637411
      7          1           0       -1.399875   -1.260771   -0.667482
      8          1           0       -1.729797   -0.485505    0.875509
      9          1           0       -0.370246    1.888995   -1.026248
     10          1           0        0.715240   -1.559789    0.934295
     11          1           0        2.446120    0.610044    0.217372
 ---------------------------------------------------------------------
                    Distance matrix (angstroms):
                    1          2          3          4          5
     1  C    0.000000
     2  C    1.507958   0.000000
     3  N    2.487547   1.272801   0.000000
     4  C    2.555338   1.506123   2.377024   0.000000
     5  N    3.757224   2.466513   2.825824   1.267590   0.000000
     6  H    1.092434   2.164402   2.672193   3.496002   4.608525
     7  H    1.096588   2.152489   3.196447   2.820064   4.034931
     8  H    1.096559   2.152429   3.195954   2.820565   4.034878
     9  H    2.562611   1.902620   1.021718   3.272942   3.840690
    10  H    2.672407   2.216581   3.328703   1.094411   2.033152
    11  H    3.946436   2.471433   2.328915   1.864595   1.028970
                    6          7          8          9         10
     6  H    0.000000
     7  H    1.779204   0.000000
     8  H    1.779331   1.758041   0.000000
     9  H    2.306872   3.333148   3.332163   0.000000
    10  H    3.747060   2.669984   2.671282   4.112921   0.000000
    11  H    4.607262   4.367447   4.367111   3.333800   2.866723
                   11
    11  H    0.000000
 Stoichiometry    C3H6N2
 Framework group  C1[X(C3H6N2)]
 Deg. of freedom    27
 Full point group                 C1      NOp   1
 Largest Abelian subgroup         C1      NOp   1
 Largest concise Abelian subgroup C1      NOp   1
                         Standard orientation:                         
 ---------------------------------------------------------------------
 Center     Atomic      Atomic             Coordinates (Angstroms)
 Number     Number       Type             X           Y           Z
 ---------------------------------------------------------------------
      1          6           0       -1.695079   -0.652529    0.000214
      2          6           0       -0.414242    0.143332   -0.000154
      3          7           0       -0.306807    1.411590   -0.000188
      4          6           0        0.860251   -0.659211   -0.000364
      5          7           0        2.031659   -0.174871    0.000340
      6          1           0       -2.573671   -0.003309   -0.000460
      7          1           0       -1.740134   -1.307163   -0.878382
      8          1           0       -1.740300   -1.305962    0.879659
      9          1           0       -1.221904    1.866018    0.000387
     10          1           0        0.742795   -1.747301   -0.000799
     11          1           0        1.953666    0.851138    0.000348
 ---------------------------------------------------------------------
 Rotational constants (GHZ):      9.8945834      4.0564189      2.9289030
 Leave Link  202 at Thu Sep  8 15:06:41 2022, MaxMem= 24159191040 cpu:         0.7
 (Enter /public/home/users/caep010/software/Gaussian09/g09/l301.exe)
 Standard basis: 6-31G(d,p) (6D, 7F)
 Ernie: Thresh=  0.10000D-02 Tol=  0.10000D-05 Strict=F.
 There are   105 symmetry adapted cartesian basis functions of A   symmetry.
 There are   105 symmetry adapted basis functions of A   symmetry.
   105 basis functions,   182 primitive gaussians,   105 cartesian basis functions
    19 alpha electrons       19 beta electrons
       nuclear repulsion energy       161.4539513701 Hartrees.
 IExCor=  402 DFT=T Ex+Corr=B3LYP ExCW=0 ScaHFX=  0.200000
 ScaDFX=  0.800000  0.720000  1.000000  0.810000 ScalE2=  1.000000  1.000000
 IRadAn=      0 IRanWt=     -1 IRanGd=            0 ICorTp=0 IEmpDi=  4
 NAtoms=   11 NActive=   11 NUniq=   11 SFac= 1.00D+00 NAtFMM=   60 NAOKFM=F Big=F
 Integral buffers will be    131072 words long.
 Raffenetti 2 integral format.
 Two-electron integral symmetry is turned on.
 Leave Link  301 at Thu Sep  8 15:06:41 2022, MaxMem= 24159191040 cpu:         1.9
 (Enter /public/home/users/caep010/software/Gaussian09/g09/l302.exe)
 NPDir=0 NMtPBC=     1 NCelOv=     1 NCel=       1 NClECP=     1 NCelD=      1
         NCelK=      1 NCelE2=     1 NClLst=     1 CellRange=     0.0.
 One-electron integrals computed using PRISM.
 NBasis=   105 RedAO= T EigKep=  2.10D-03  NBF=   105
 NBsUse=   105 1.00D-06 EigRej= -1.00D+00 NBFU=   105
 Precomputing XC quadrature grid using
 IXCGrd= 4 IRadAn=           0 IRanWt=          -1 IRanGd=           0 AccXCQ= 0.00D+00.
 Generated NRdTot=       0 NPtTot=           0 NUsed=           0 NTot=          32
 NSgBfM=   105   105   105   105   105 MxSgAt=    11 MxSgA2=    11.
 Leave Link  302 at Thu Sep  8 15:06:42 2022, MaxMem= 24159191040 cpu:        11.8
 (Enter /public/home/users/caep010/software/Gaussian09/g09/l303.exe)
 DipDrv:  MaxL=1.
 Leave Link  303 at Thu Sep  8 15:06:42 2022, MaxMem= 24159191040 cpu:         1.4
 (Enter /public/home/users/caep010/software/Gaussian09/g09/l401.exe)
 ExpMin= 1.61D-01 ExpMax= 4.17D+03 ExpMxC= 6.27D+02 IAcc=1 IRadAn=         1 AccDes= 0.00D+00
 Harris functional with IExCor=  402 and IRadAn=       1 diagonalized for initial guess.
 HarFok:  IExCor=  402 AccDes= 0.00D+00 IRadAn=         1 IDoV= 1 UseB2=F ITyADJ=14
 ICtDFT=  3500011 ScaDFX=  1.000000  1.000000  1.000000  1.000000
 FoFCou: FMM=F IPFlag=           0 FMFlag=      100000 FMFlg1=           0
         NFxFlg=           0 DoJE=T BraDBF=F KetDBF=T FulRan=T
         wScrn=  0.000000 ICntrl=     500 IOpCl=  0 I1Cent=   200000004 NGrid=           0
         NMat0=    1 NMatS0=      1 NMatT0=    0 NMatD0=    1 NMtDS0=    0 NMtDT0=    0
 Petite list used in FoFCou.
 Harris En= -227.418020867114    
 JPrj=0 DoOrth=F DoCkMO=F.
 Leave Link  401 at Thu Sep  8 15:06:42 2022, MaxMem= 24159191040 cpu:         9.6
 (Enter /public/home/users/caep010/software/Gaussian09/g09/l502.exe)
 Closed shell SCF:
 Using DIIS extrapolation, IDIIS=  1040.
 Integral symmetry usage will be decided dynamically.
 Keep R1 ints in memory in canonical form, NReq=16470489.
 IVT=       55780 IEndB=       55780 NGot= 24159191040 MDV= 24143647866
 LenX= 24143647866 LenY= 24143636400
 Requested convergence on RMS density matrix=1.00D-08 within 128 cycles.
 Requested convergence on MAX density matrix=1.00D-06.
 Requested convergence on             energy=1.00D-06.
 No special actions if energy rises.
 FoFCou: FMM=F IPFlag=           0 FMFlag=           0 FMFlg1=           0
         NFxFlg=           0 DoJE=F BraDBF=F KetDBF=F FulRan=T
         wScrn=  0.000000 ICntrl=     600 IOpCl=  0 I1Cent=           0 NGrid=           0
         NMat0=    1 NMatS0=   5565 NMatT0=    0 NMatD0=    1 NMtDS0=    0 NMtDT0=    0
 Symmetry not used in FoFCou.
 Integral accuracy reduced to 1.0D-05 until final iterations.

 Cycle   1  Pass 0  IDiag  1:
 E= -227.265414611223    
 DIIS: error= 2.53D-02 at cycle   1 NSaved=   1.
 NSaved= 1 IEnMin= 1 EnMin= -227.265414611223     IErMin= 1 ErrMin= 2.53D-02
 ErrMax= 2.53D-02  0.00D+00 EMaxC= 1.00D-01 BMatC= 1.48D-01 BMatP= 1.48D-01
 IDIUse=3 WtCom= 7.47D-01 WtEn= 2.53D-01
 Coeff-Com:  0.100D+01
 Coeff-En:   0.100D+01
 Coeff:      0.100D+01
 Gap=     0.187 Goal=   None    Shift=    0.000
 GapD=    0.187 DampG=1.000 DampE=0.500 DampFc=0.5000 IDamp=-1.
 Damping current iteration by 5.00D-01
 RMSDP=8.17D-03 MaxDP=1.31D-01              OVMax= 1.97D-01

 Cycle   2  Pass 0  IDiag  1:
 E= -227.321985300318     Delta-E=       -0.056570689095 Rises=F Damp=T
 DIIS: error= 9.93D-03 at cycle   2 NSaved=   2.
 NSaved= 2 IEnMin= 2 EnMin= -227.321985300318     IErMin= 2 ErrMin= 9.93D-03
 ErrMax= 9.93D-03  0.00D+00 EMaxC= 1.00D-01 BMatC= 1.37D-02 BMatP= 1.48D-01
 IDIUse=3 WtCom= 9.01D-01 WtEn= 9.93D-02
 Coeff-Com:  0.138D+00 0.862D+00
 Coeff-En:   0.206D+00 0.794D+00
 Coeff:      0.145D+00 0.855D+00
 Gap=     0.217 Goal=   None    Shift=    0.000
 RMSDP=1.87D-03 MaxDP=3.79D-02 DE=-5.66D-02 OVMax= 1.64D-01

 Cycle   3  Pass 0  IDiag  1:
 E= -227.392819814977     Delta-E=       -0.070834514659 Rises=F Damp=F
 DIIS: error= 1.14D-02 at cycle   3 NSaved=   3.
 NSaved= 3 IEnMin= 3 EnMin= -227.392819814977     IErMin= 2 ErrMin= 9.93D-03
 ErrMax= 1.14D-02  0.00D+00 EMaxC= 1.00D-01 BMatC= 1.59D-02 BMatP= 1.37D-02
 IDIUse=2 WtCom= 0.00D+00 WtEn= 1.00D+00
 Coeff-En:   0.000D+00 0.000D+00 0.100D+01
 Coeff:      0.000D+00 0.000D+00 0.100D+01
 Gap=     0.196 Goal=   None    Shift=    0.000
 RMSDP=3.23D-03 MaxDP=7.12D-02 DE=-7.08D-02 OVMax= 1.42D-01

 Cycle   4  Pass 0  IDiag  1:
 E= -227.337534176101     Delta-E=        0.055285638876 Rises=F Damp=F
 DIIS: error= 2.94D-02 at cycle   4 NSaved=   4.
 NSaved= 4 IEnMin= 3 EnMin= -227.392819814977     IErMin= 2 ErrMin= 9.93D-03
 ErrMax= 2.94D-02  0.00D+00 EMaxC= 1.00D-01 BMatC= 7.69D-02 BMatP= 1.37D-02
 IDIUse=2 WtCom= 0.00D+00 WtEn= 1.00D+00
 Coeff-En:   0.000D+00 0.000D+00 0.768D+00 0.232D+00
 Coeff:      0.000D+00 0.000D+00 0.768D+00 0.232D+00
 Gap=     0.204 Goal=   None    Shift=    0.000
 RMSDP=1.68D-03 MaxDP=3.64D-02 DE= 5.53D-02 OVMax= 7.13D-02

 Cycle   5  Pass 0  IDiag  1:
 E= -227.403756903237     Delta-E=       -0.066222727135 Rises=F Damp=F
 DIIS: error= 6.60D-03 at cycle   5 NSaved=   5.
 NSaved= 5 IEnMin= 5 EnMin= -227.403756903237     IErMin= 5 ErrMin= 6.60D-03
 ErrMax= 6.60D-03  0.00D+00 EMaxC= 1.00D-01 BMatC= 4.78D-03 BMatP= 1.37D-02
 IDIUse=3 WtCom= 9.34D-01 WtEn= 6.60D-02
 Coeff-Com: -0.124D-01 0.333D-01 0.228D+00-0.131D+00 0.882D+00
 Coeff-En:   0.000D+00 0.000D+00 0.277D+00 0.000D+00 0.723D+00
 Coeff:     -0.116D-01 0.311D-01 0.231D+00-0.123D+00 0.872D+00
 Gap=     0.208 Goal=   None    Shift=    0.000
 RMSDP=5.88D-04 MaxDP=1.28D-02 DE=-6.62D-02 OVMax= 2.47D-02

 Cycle   6  Pass 0  IDiag  1:
 E= -227.408319350628     Delta-E=       -0.004562447391 Rises=F Damp=F
 DIIS: error= 1.88D-04 at cycle   6 NSaved=   6.
 NSaved= 6 IEnMin= 6 EnMin= -227.408319350628     IErMin= 6 ErrMin= 1.88D-04
 ErrMax= 1.88D-04  0.00D+00 EMaxC= 1.00D-01 BMatC= 4.59D-06 BMatP= 4.78D-03
 IDIUse=3 WtCom= 9.98D-01 WtEn= 1.88D-03
 Coeff-Com: -0.551D-02 0.126D-01 0.867D-01-0.550D-01 0.369D+00 0.592D+00
 Coeff-En:   0.000D+00 0.000D+00 0.000D+00 0.000D+00 0.000D+00 0.100D+01
 Coeff:     -0.550D-02 0.125D-01 0.866D-01-0.549D-01 0.368D+00 0.593D+00
 Gap=     0.208 Goal=   None    Shift=    0.000
 RMSDP=2.02D-05 MaxDP=7.15D-04 DE=-4.56D-03 OVMax= 1.07D-03

 Cycle   7  Pass 0  IDiag  1:
 E= -227.408322794004     Delta-E=       -0.000003443377 Rises=F Damp=F
 DIIS: error= 8.33D-05 at cycle   7 NSaved=   7.
 NSaved= 7 IEnMin= 7 EnMin= -227.408322794004     IErMin= 7 ErrMin= 8.33D-05
 ErrMax= 8.33D-05  0.00D+00 EMaxC= 1.00D-01 BMatC= 8.04D-07 BMatP= 4.59D-06
 IDIUse=1 WtCom= 1.00D+00 WtEn= 0.00D+00
 Coeff-Com: -0.187D-02 0.343D-02 0.309D-01-0.186D-01 0.132D+00 0.407D+00
 Coeff-Com:  0.447D+00
 Coeff:     -0.187D-02 0.343D-02 0.309D-01-0.186D-01 0.132D+00 0.407D+00
 Coeff:      0.447D+00
 Gap=     0.208 Goal=   None    Shift=    0.000
 RMSDP=7.63D-06 MaxDP=1.99D-04 DE=-3.44D-06 OVMax= 4.74D-04

 Initial convergence to 1.0D-05 achieved.  Increase integral accuracy.
 Cycle   8  Pass 1  IDiag  1:
 E= -227.408355748359     Delta-E=       -0.000032954354 Rises=F Damp=F
 DIIS: error= 1.57D-05 at cycle   1 NSaved=   1.
 NSaved= 1 IEnMin= 1 EnMin= -227.408355748359     IErMin= 1 ErrMin= 1.57D-05
 ErrMax= 1.57D-05  0.00D+00 EMaxC= 1.00D-01 BMatC= 2.95D-08 BMatP= 2.95D-08
 IDIUse=1 WtCom= 1.00D+00 WtEn= 0.00D+00
 Coeff-Com:  0.100D+01
 Coeff:      0.100D+01
 Gap=     0.208 Goal=   None    Shift=    0.000
 RMSDP=7.63D-06 MaxDP=1.99D-04 DE=-3.30D-05 OVMax= 1.71D-04

 Cycle   9  Pass 1  IDiag  1:
 E= -227.408355702604     Delta-E=        0.000000045755 Rises=F Damp=F
 DIIS: error= 2.93D-05 at cycle   2 NSaved=   2.
 NSaved= 2 IEnMin= 1 EnMin= -227.408355748359     IErMin= 1 ErrMin= 1.57D-05
 ErrMax= 2.93D-05  0.00D+00 EMaxC= 1.00D-01 BMatC= 7.99D-08 BMatP= 2.95D-08
 IDIUse=1 WtCom= 1.00D+00 WtEn= 0.00D+00
 Coeff-Com:  0.629D+00 0.371D+00
 Coeff:      0.629D+00 0.371D+00
 Gap=     0.208 Goal=   None    Shift=    0.000
 RMSDP=2.76D-06 MaxDP=8.58D-05 DE= 4.58D-08 OVMax= 1.33D-04

 Cycle  10  Pass 1  IDiag  1:
 E= -227.408355774861     Delta-E=       -0.000000072257 Rises=F Damp=F
 DIIS: error= 4.16D-06 at cycle   3 NSaved=   3.
 NSaved= 3 IEnMin= 3 EnMin= -227.408355774861     IErMin= 3 ErrMin= 4.16D-06
 ErrMax= 4.16D-06  0.00D+00 EMaxC= 1.00D-01 BMatC= 2.77D-09 BMatP= 2.95D-08
 IDIUse=1 WtCom= 1.00D+00 WtEn= 0.00D+00
 Coeff-Com:  0.262D+00 0.206D+00 0.531D+00
 Coeff:      0.262D+00 0.206D+00 0.531D+00
 Gap=     0.208 Goal=   None    Shift=    0.000
 RMSDP=5.04D-07 MaxDP=1.51D-05 DE=-7.23D-08 OVMax= 1.81D-05

 Cycle  11  Pass 1  IDiag  1:
 E= -227.408355777162     Delta-E=       -0.000000002301 Rises=F Damp=F
 DIIS: error= 9.57D-07 at cycle   4 NSaved=   4.
 NSaved= 4 IEnMin= 4 EnMin= -227.408355777162     IErMin= 4 ErrMin= 9.57D-07
 ErrMax= 9.57D-07  0.00D+00 EMaxC= 1.00D-01 BMatC= 1.92D-10 BMatP= 2.77D-09
 IDIUse=1 WtCom= 1.00D+00 WtEn= 0.00D+00
 Coeff-Com: -0.103D-01 0.221D-01 0.232D+00 0.756D+00
 Coeff:     -0.103D-01 0.221D-01 0.232D+00 0.756D+00
 Gap=     0.208 Goal=   None    Shift=    0.000
 RMSDP=1.35D-07 MaxDP=3.08D-06 DE=-2.30D-09 OVMax= 3.65D-06

 Cycle  12  Pass 1  IDiag  1:
 E= -227.408355777336     Delta-E=       -0.000000000175 Rises=F Damp=F
 DIIS: error= 2.67D-07 at cycle   5 NSaved=   5.
 NSaved= 5 IEnMin= 5 EnMin= -227.408355777336     IErMin= 5 ErrMin= 2.67D-07
 ErrMax= 2.67D-07  0.00D+00 EMaxC= 1.00D-01 BMatC= 1.14D-11 BMatP= 1.92D-10
 IDIUse=1 WtCom= 1.00D+00 WtEn= 0.00D+00
 Coeff-Com: -0.107D-01 0.101D-01 0.126D+00 0.438D+00 0.437D+00
 Coeff:     -0.107D-01 0.101D-01 0.126D+00 0.438D+00 0.437D+00
 Gap=     0.208 Goal=   None    Shift=    0.000
 RMSDP=3.47D-08 MaxDP=1.11D-06 DE=-1.75D-10 OVMax= 1.57D-06

 Cycle  13  Pass 1  IDiag  1:
 E= -227.408355777342     Delta-E=       -0.000000000006 Rises=F Damp=F
 DIIS: error= 9.88D-08 at cycle   6 NSaved=   6.
 NSaved= 6 IEnMin= 6 EnMin= -227.408355777342     IErMin= 6 ErrMin= 9.88D-08
 ErrMax= 9.88D-08  0.00D+00 EMaxC= 1.00D-01 BMatC= 1.44D-12 BMatP= 1.14D-11
 IDIUse=1 WtCom= 1.00D+00 WtEn= 0.00D+00
 Coeff-Com: -0.377D-02 0.280D-02 0.316D-01 0.121D+00 0.273D+00 0.576D+00
 Coeff:     -0.377D-02 0.280D-02 0.316D-01 0.121D+00 0.273D+00 0.576D+00
 Gap=     0.208 Goal=   None    Shift=    0.000
 RMSDP=1.12D-08 MaxDP=3.47D-07 DE=-5.63D-12 OVMax= 6.23D-07

 Cycle  14  Pass 1  IDiag  1:
 E= -227.408355777345     Delta-E=       -0.000000000003 Rises=F Damp=F
 DIIS: error= 1.38D-08 at cycle   7 NSaved=   7.
 NSaved= 7 IEnMin= 7 EnMin= -227.408355777345     IErMin= 7 ErrMin= 1.38D-08
 ErrMax= 1.38D-08  0.00D+00 EMaxC= 1.00D-01 BMatC= 3.03D-14 BMatP= 1.44D-12
 IDIUse=1 WtCom= 1.00D+00 WtEn= 0.00D+00
 Coeff-Com: -0.438D-03 0.259D-03 0.560D-03 0.658D-02 0.451D-01 0.183D+00
 Coeff-Com:  0.765D+00
 Coeff:     -0.438D-03 0.259D-03 0.560D-03 0.658D-02 0.451D-01 0.183D+00
 Coeff:      0.765D+00
 Gap=     0.208 Goal=   None    Shift=    0.000
 RMSDP=2.21D-09 MaxDP=3.64D-08 DE=-2.61D-12 OVMax= 4.61D-08

 SCF Done:  E(RB3LYP) =  -227.408355777     A.U. after   14 cycles
            NFock= 14  Conv=0.22D-08     -V/T= 2.0094
 KE= 2.252850629662D+02 PE=-8.510926647837D+02 EE= 2.369452946700D+02
 Leave Link  502 at Thu Sep  8 15:06:44 2022, MaxMem= 24159191040 cpu:        29.6
 (Enter /public/home/users/caep010/software/Gaussian09/g09/l601.exe)
 Copying SCF densities to generalized density rwf, IOpCl= 0 IROHF=0.

 **********************************************************************

            Population analysis using the SCF density.

 **********************************************************************

 Orbital symmetries:
       Occupied  (A) (A) (A) (A) (A) (A) (A) (A) (A) (A) (A) (A)
                 (A) (A) (A) (A) (A) (A) (A)
       Virtual   (A) (A) (A) (A) (A) (A) (A) (A) (A) (A) (A) (A)
                 (A) (A) (A) (A) (A) (A) (A) (A) (A) (A) (A) (A)
                 (A) (A) (A) (A) (A) (A) (A) (A) (A) (A) (A) (A)
                 (A) (A) (A) (A) (A) (A) (A) (A) (A) (A) (A) (A)
                 (A) (A) (A) (A) (A) (A) (A) (A) (A) (A) (A) (A)
                 (A) (A) (A) (A) (A) (A) (A) (A) (A) (A) (A) (A)
                 (A) (A) (A) (A) (A) (A) (A) (A) (A) (A) (A) (A)
                 (A) (A)
 The electronic state is 1-A.
 Alpha  occ. eigenvalues --  -14.33336 -14.32540 -10.25159 -10.23305 -10.20678
 Alpha  occ. eigenvalues --   -0.93524  -0.88688  -0.75323  -0.64968  -0.56612
 Alpha  occ. eigenvalues --   -0.48497  -0.46817  -0.44598  -0.41424  -0.41279
 Alpha  occ. eigenvalues --   -0.35730  -0.29558  -0.28261  -0.26478
 Alpha virt. eigenvalues --   -0.05681   0.05807   0.07898   0.11751   0.13461
 Alpha virt. eigenvalues --    0.14920   0.17027   0.17944   0.22925   0.31171
 Alpha virt. eigenvalues --    0.33027   0.41199   0.51697   0.54598   0.55008
 Alpha virt. eigenvalues --    0.57283   0.59587   0.60383   0.67111   0.68154
 Alpha virt. eigenvalues --    0.72323   0.73226   0.74504   0.74699   0.80170
 Alpha virt. eigenvalues --    0.82429   0.84396   0.85216   0.87555   0.89777
 Alpha virt. eigenvalues --    0.92152   0.95345   1.01804   1.12326   1.13622
 Alpha virt. eigenvalues --    1.26563   1.26975   1.33894   1.34205   1.44377
 Alpha virt. eigenvalues --    1.51926   1.53986   1.57007   1.67646   1.71822
 Alpha virt. eigenvalues --    1.75844   1.78563   1.80265   1.97675   1.97718
 Alpha virt. eigenvalues --    2.02032   2.04424   2.05402   2.08333   2.15293
 Alpha virt. eigenvalues --    2.18424   2.21637   2.28118   2.28939   2.42380
 Alpha virt. eigenvalues --    2.43195   2.43646   2.47062   2.53397   2.57517
 Alpha virt. eigenvalues --    2.59596   2.60419   2.65688   2.66832   2.72385
 Alpha virt. eigenvalues --    2.81651   2.85580   2.96825   2.99877   3.10123
 Alpha virt. eigenvalues --    3.17143   3.35347   3.39762   3.39830   3.42337
 Alpha virt. eigenvalues --    3.52666   3.90702   4.02718   4.10966   4.36781
 Alpha virt. eigenvalues --    4.57428
          Condensed to atoms (all electrons):
               1          2          3          4          5          6
     1  C    5.141659   0.316028  -0.092652  -0.075118   0.006064   0.366764
     2  C    0.316028   4.797718   0.600940   0.291991  -0.051462  -0.021781
     3  N   -0.092652   0.600940   6.767045  -0.072085  -0.019312  -0.002589
     4  C   -0.075118   0.291991  -0.072085   4.833014   0.596269   0.003162
     5  N    0.006064  -0.051462  -0.019312   0.596269   6.640114  -0.000141
     6  H    0.366764  -0.021781  -0.002589   0.003162  -0.000141   0.581445
     7  H    0.365912  -0.024949   0.002028  -0.000055  -0.000019  -0.025679
     8  H    0.365931  -0.024958   0.002019  -0.000046  -0.000020  -0.025655
     9  H   -0.022994  -0.057685   0.319231   0.010834  -0.000031   0.007905
    10  H    0.003542  -0.084602   0.003105   0.383622  -0.045446  -0.000064
    11  H    0.001738  -0.015807   0.024097  -0.088546   0.331987  -0.000014
               7          8          9         10         11
     1  C    0.365912   0.365931  -0.022994   0.003542   0.001738
     2  C   -0.024949  -0.024958  -0.057685  -0.084602  -0.015807
     3  N    0.002028   0.002019   0.319231   0.003105   0.024097
     4  C   -0.000055  -0.000046   0.010834   0.383622  -0.088546
     5  N   -0.000019  -0.000020  -0.000031  -0.045446   0.331987
     6  H   -0.025679  -0.025655   0.007905  -0.000064  -0.000014
     7  H    0.572497  -0.029336   0.000399   0.001459  -0.000036
     8  H   -0.029336   0.572425   0.000399   0.001452  -0.000036
     9  H    0.000399   0.000399   0.511769  -0.000257  -0.001232
    10  H    0.001459   0.001452  -0.000257   0.632001   0.009182
    11  H   -0.000036  -0.000036  -0.001232   0.009182   0.483400
 Mulliken charges:
               1
     1  C   -0.376874
     2  C    0.274566
     3  N   -0.531830
     4  C    0.116959
     5  N   -0.458004
     6  H    0.116646
     7  H    0.137778
     8  H    0.137824
     9  H    0.231663
    10  H    0.096005
    11  H    0.255266
 Sum of Mulliken charges =  -0.00000
 Mulliken charges with hydrogens summed into heavy atoms:
               1
     1  C    0.015375
     2  C    0.274566
     3  N   -0.300167
     4  C    0.212964
     5  N   -0.202738
 Electronic spatial extent (au):  <R**2>=            435.4117
 Charge=             -0.0000 electrons
 Dipole moment (field-independent basis, Debye):
    X=             -3.6198    Y=             -0.6312    Z=              0.0004  Tot=              3.6744
 Quadrupole moment (field-independent basis, Debye-Ang):
   XX=            -33.2715   YY=            -29.5721   ZZ=            -30.6125
   XY=              0.8040   XZ=             -0.0020   YZ=              0.0028
 Traceless Quadrupole moment (field-independent basis, Debye-Ang):
   XX=             -2.1195   YY=              1.5800   ZZ=              0.5395
   XY=              0.8040   XZ=             -0.0020   YZ=              0.0028
 Octapole moment (field-independent basis, Debye-Ang**2):
  XXX=            -20.9221  YYY=             -1.1891  ZZZ=              0.0029  XYY=             -3.8479
  XXY=             10.8987  XXZ=             -0.0027  XZZ=             -0.7244  YZZ=             -0.3041
  YYZ=              0.0022  XYZ=              0.0011
 Hexadecapole moment (field-independent basis, Debye-Ang**3):
 XXXX=           -406.5183 YYYY=           -164.6015 ZZZZ=            -35.1680 XXXY=             12.1446
 XXXZ=             -0.0045 YYYX=             -9.7390 YYYZ=              0.0121 ZZZX=             -0.0028
 ZZZY=             -0.0011 XXYY=            -79.9016 XXZZ=            -67.5673 YYZZ=            -33.4828
 XXYZ=              0.0039 YYXZ=             -0.0022 ZZXY=              1.7518
 N-N= 1.614539513701D+02 E-N=-8.510926631374D+02  KE= 2.252850629662D+02
 No NMR shielding tensors so no spin-rotation constants.
 Leave Link  601 at Thu Sep  8 15:06:44 2022, MaxMem= 24159191040 cpu:        10.4
 (Enter /public/home/users/caep010/software/Gaussian09/g09/l701.exe)
 Compute integral first derivatives.
 ... and contract with generalized density number  0.
 Leave Link  701 at Thu Sep  8 15:06:45 2022, MaxMem= 24159191040 cpu:        12.4
 (Enter /public/home/users/caep010/software/Gaussian09/g09/l702.exe)
 L702 exits ... SP integral derivatives will be done elsewhere.
 Leave Link  702 at Thu Sep  8 15:06:45 2022, MaxMem= 24159191040 cpu:         0.5
 (Enter /public/home/users/caep010/software/Gaussian09/g09/l703.exe)
 Compute integral first derivatives, UseDBF=F ICtDFT=           0.
 Integral derivatives from FoFJK, PRISM(SPDF).
 Calling FoFJK, ICntrl=      2127 FMM=F ISym2X=0 I1Cent= 0 IOpClX= 0 NMat=1 NMatS=1 NMatT=0.
 FoFJK:  IHMeth= 1 ICntrl=    2127 DoSepK=F KAlg= 0 I1Cent=   0 FoldK=F
 IRaf=         0 NMat=   1 IRICut=       1 DoRegI=T DoRafI=F ISym2E= 0.
 FoFCou: FMM=F IPFlag=           0 FMFlag=      100000 FMFlg1=         800
         NFxFlg=           0 DoJE=F BraDBF=F KetDBF=F FulRan=T
         wScrn=  0.000000 ICntrl=    2127 IOpCl=  0 I1Cent=           0 NGrid=           0
         NMat0=    1 NMatS0=      1 NMatT0=    0 NMatD0=    1 NMtDS0=    0 NMtDT0=    0
 Symmetry not used in FoFCou.
 Leave Link  703 at Thu Sep  8 15:06:45 2022, MaxMem= 24159191040 cpu:         9.2
 (Enter /public/home/users/caep010/software/Gaussian09/g09/l716.exe)
 Dipole        =-1.42413086D+00-2.48342148D-01 1.51119443D-04
 ***** Axes restored to original set *****
 -------------------------------------------------------------------
 Center     Atomic                   Forces (Hartrees/Bohr)
 Number     Number              X              Y              Z
 -------------------------------------------------------------------
      1        6          -0.000576083   -0.000828278    0.000264192
      2        6          -0.002839329   -0.002595145    0.000667069
      3        7           0.003710097    0.003377739   -0.000876864
      4        6          -0.002987908   -0.000688874   -0.000265995
      5        7           0.004157857   -0.000431673    0.001053574
      6        1          -0.000198742    0.000059856   -0.000055695
      7        1          -0.000059973    0.000035783   -0.000169145
      8        1          -0.000125843    0.000145492    0.000057404
      9        1          -0.001213005    0.000438692   -0.000498508
     10        1           0.000169800   -0.000724246    0.000406672
     11        1          -0.000036871    0.001210654   -0.000582703
 -------------------------------------------------------------------
 Cartesian Forces:  Max     0.004157857 RMS     0.001506418
 Leave Link  716 at Thu Sep  8 15:06:45 2022, MaxMem= 24159191040 cpu:         0.7
 (Enter /public/home/users/caep010/software/Gaussian09/g09/l103.exe)

 GradGradGradGradGradGradGradGradGradGradGradGradGradGradGradGradGradGrad
 Berny optimization.
 FormGI is forming the generalized inverse of G from B-inverse, IUseBI=4.
 Internal  Forces:  Max     0.004614074 RMS     0.001155901
 Search for a local minimum.
 Step number   1 out of a maximum of   48
 All quantities printed in internal units (Hartrees-Bohrs-Radians)
 RMS Force = .11559D-02 SwitMx=.10000D-02 MixMth= 1
 Mixed Optimization -- RFO/linear search
 Second derivative matrix not updated -- first step.
 ITU=  0
     Eigenvalues ---    0.00661   0.00685   0.01160   0.01633   0.03374
     Eigenvalues ---    0.03443   0.07065   0.07330   0.16000   0.16000
     Eigenvalues ---    0.16000   0.16000   0.16000   0.16000   0.22000
     Eigenvalues ---    0.25000   0.25000   0.31557   0.31743   0.34062
     Eigenvalues ---    0.34066   0.34308   0.34533   0.42937   0.44065
     Eigenvalues ---    0.75350   0.77062
 RFO step:  Lambda=-9.13410442D-05 EMin= 6.60679232D-03
 Linear search not attempted -- first point.
 Iteration  1 RMS(Cart)=  0.00440101 RMS(Int)=  0.00000719
 Iteration  2 RMS(Cart)=  0.00001088 RMS(Int)=  0.00000030
 Iteration  3 RMS(Cart)=  0.00000000 RMS(Int)=  0.00000030
 ITry= 1 IFail=0 DXMaxC= 1.04D-02 DCOld= 1.00D+10 DXMaxT= 3.00D-01 DXLimC= 3.00D+00 Rises=F
 Variable       Old X    -DE/DX   Delta X   Delta X   Delta X     New X
                                 (Linear)    (Quad)   (Total)
    R1        2.84963   0.00111   0.00000   0.00351   0.00351   2.85313
    R2        2.06440   0.00019   0.00000   0.00055   0.00055   2.06495
    R3        2.07225   0.00005   0.00000   0.00014   0.00014   2.07240
    R4        2.07220   0.00007   0.00000   0.00020   0.00020   2.07239
    R5        2.40524   0.00461   0.00000   0.00612   0.00612   2.41137
    R6        2.84616   0.00154   0.00000   0.00484   0.00484   2.85100
    R7        1.93077   0.00135   0.00000   0.00305   0.00305   1.93382
    R8        2.39540   0.00421   0.00000   0.00547   0.00547   2.40086
    R9        2.06814   0.00073   0.00000   0.00212   0.00212   2.07026
   R10        1.94447   0.00132   0.00000   0.00307   0.00307   1.94754
    A1        1.94923   0.00006   0.00000  -0.00002  -0.00002   1.94921
    A2        1.92812   0.00004   0.00000   0.00049   0.00049   1.92862
    A3        1.92807   0.00006   0.00000   0.00054   0.00054   1.92861
    A4        1.89783  -0.00012   0.00000  -0.00111  -0.00111   1.89672
    A5        1.89807  -0.00014   0.00000  -0.00130  -0.00130   1.89676
    A6        1.85995   0.00009   0.00000   0.00142   0.00141   1.86137
    A7        2.21128   0.00093   0.00000   0.00371   0.00371   2.21500
    A8        2.02365   0.00043   0.00000   0.00171   0.00171   2.02535
    A9        2.04826  -0.00136   0.00000  -0.00542  -0.00542   2.04284
   A10        1.94720  -0.00059   0.00000  -0.00370  -0.00370   1.94350
   A11        2.18756  -0.00025   0.00000  -0.00112  -0.00112   2.18644
   A12        2.02524   0.00057   0.00000   0.00336   0.00336   2.02860
   A13        2.07039  -0.00033   0.00000  -0.00224  -0.00224   2.06814
   A14        1.88699  -0.00045   0.00000  -0.00281  -0.00281   1.88418
    D1        0.00091  -0.00001   0.00000  -0.00031  -0.00031   0.00060
    D2       -3.14080  -0.00001   0.00000  -0.00024  -0.00024  -3.14103
    D3        2.11557  -0.00009   0.00000  -0.00139  -0.00139   2.11418
    D4       -1.02613  -0.00009   0.00000  -0.00132  -0.00132  -1.02745
    D5       -2.11402   0.00009   0.00000   0.00099   0.00099  -2.11303
    D6        1.02746   0.00009   0.00000   0.00106   0.00106   1.02852
    D7        0.00033  -0.00002   0.00000  -0.00043  -0.00043  -0.00010
    D8       -3.14115  -0.00002   0.00000  -0.00050  -0.00050   3.14153
    D9       -3.14061  -0.00001   0.00000  -0.00059  -0.00059  -3.14120
   D10        0.00058   0.00000   0.00000   0.00012   0.00012   0.00070
   D11        0.00088  -0.00001   0.00000  -0.00053  -0.00053   0.00035
   D12       -3.14112   0.00000   0.00000   0.00018   0.00018  -3.14093
   D13       -0.00074   0.00003   0.00000   0.00113   0.00113   0.00039
   D14        3.14127   0.00002   0.00000   0.00040   0.00040  -3.14152
         Item               Value     Threshold  Converged?
 Maximum Force            0.004614     0.000450     NO 
 RMS     Force            0.001156     0.000300     NO 
 Maximum Displacement     0.010423     0.001800     NO 
 RMS     Displacement     0.004405     0.001200     NO 
 Predicted change in Energy=-4.568112D-05
 Lowest energy point so far.  Saving SCF results.
 GradGradGradGradGradGradGradGradGradGradGradGradGradGradGradGradGradGrad

 Leave Link  103 at Thu Sep  8 15:06:45 2022, MaxMem= 24159191040 cpu:         1.8
 (Enter /public/home/users/caep010/software/Gaussian09/g09/l202.exe)
                          Input orientation:                          
 ---------------------------------------------------------------------
 Center     Atomic      Atomic             Coordinates (Angstroms)
 Number     Number       Type             X           Y           Z
 ---------------------------------------------------------------------
      1          6           0       -1.381141   -0.297551   -0.145865
      2          6           0        0.022197    0.259004   -0.125265
      3          7           0        0.410394    1.376766   -0.602960
      4          6           0        1.068452   -0.606465    0.532342
      5          7           0        2.298702   -0.310840    0.647311
      6          1           0       -2.078808    0.384640   -0.637727
      7          1           0       -1.404547   -1.261117   -0.668997
      8          1           0       -1.734760   -0.485630    0.875042
      9          1           0       -0.366361    1.890801   -1.026789
     10          1           0        0.720755   -1.563228    0.937199
     11          1           0        2.445014    0.613520    0.215710
 ---------------------------------------------------------------------
                    Distance matrix (angstroms):
                    1          2          3          4          5
     1  C    0.000000
     2  C    1.509813   0.000000
     3  N    2.494367   1.276041   0.000000
     4  C    2.560449   1.508686   2.378057   0.000000
     5  N    3.764379   2.470642   2.824341   1.270483   0.000000
     6  H    1.092727   2.166247   2.679860   3.500943   4.614934
     7  H    1.096665   2.154532   3.202623   2.826218   4.043482
     8  H    1.096664   2.154528   3.202294   2.826666   4.043665
     9  H    2.568013   1.904333   1.023333   3.275044   3.840885
    10  H    2.681965   2.222013   3.333463   1.095535   2.035295
    11  H    3.949715   2.472244   2.322164   1.866425   1.030596
                    6          7          8          9         10
     6  H    0.000000
     7  H    1.778797   0.000000
     8  H    1.778823   1.759113   0.000000
     9  H    2.313518   3.337728   3.337199   0.000000
    10  H    3.756613   2.681053   2.682282   4.119392   0.000000
    11  H    4.609307   4.372195   4.371883   3.328526   2.869119
                   11
    11  H    0.000000
 Stoichiometry    C3H6N2
 Framework group  C1[X(C3H6N2)]
 Deg. of freedom    27
 Full point group                 C1      NOp   1
 RotChk:  IX=0 Diff= 3.47D-03
 Largest Abelian subgroup         C1      NOp   1
 Largest concise Abelian subgroup C1      NOp   1
                         Standard orientation:                         
 ---------------------------------------------------------------------
 Center     Atomic      Atomic             Coordinates (Angstroms)
 Number     Number       Type             X           Y           Z
 ---------------------------------------------------------------------
      1          6           0       -1.700904   -0.649921    0.000133
      2          6           0       -0.416038    0.142958   -0.000059
      3          7           0       -0.299687    1.413684   -0.000117
      4          6           0        0.859514   -0.662710   -0.000138
      5          7           0        2.033723   -0.177572    0.000108
      6          1           0       -2.577708    0.002204   -0.000389
      7          1           0       -1.748968   -1.303629   -0.879087
      8          1           0       -1.749273   -1.302700    0.880025
      9          1           0       -1.214817    1.871668   -0.000112
     10          1           0        0.744097   -1.752148   -0.000735
     11          1           0        1.952987    0.849856    0.000749
 ---------------------------------------------------------------------
 Rotational constants (GHZ):      9.8692554      4.0446713      2.9206235
 Leave Link  202 at Thu Sep  8 15:06:45 2022, MaxMem= 24159191040 cpu:         0.2
 (Enter /public/home/users/caep010/software/Gaussian09/g09/l301.exe)
 Standard basis: 6-31G(d,p) (6D, 7F)
 Ernie: Thresh=  0.10000D-02 Tol=  0.10000D-05 Strict=F.
 There are   105 symmetry adapted cartesian basis functions of A   symmetry.
 There are   105 symmetry adapted basis functions of A   symmetry.
   105 basis functions,   182 primitive gaussians,   105 cartesian basis functions
    19 alpha electrons       19 beta electrons
       nuclear repulsion energy       161.2106741396 Hartrees.
 IExCor=  402 DFT=T Ex+Corr=B3LYP ExCW=0 ScaHFX=  0.200000
 ScaDFX=  0.800000  0.720000  1.000000  0.810000 ScalE2=  1.000000  1.000000
 IRadAn=      0 IRanWt=     -1 IRanGd=            0 ICorTp=0 IEmpDi=  4
 NAtoms=   11 NActive=   11 NUniq=   11 SFac= 1.00D+00 NAtFMM=   60 NAOKFM=F Big=F
 Integral buffers will be    131072 words long.
 Raffenetti 2 integral format.
 Two-electron integral symmetry is turned on.
 Leave Link  301 at Thu Sep  8 15:06:45 2022, MaxMem= 24159191040 cpu:         1.6
 (Enter /public/home/users/caep010/software/Gaussian09/g09/l302.exe)
 NPDir=0 NMtPBC=     1 NCelOv=     1 NCel=       1 NClECP=     1 NCelD=      1
         NCelK=      1 NCelE2=     1 NClLst=     1 CellRange=     0.0.
 One-electron integrals computed using PRISM.
 NBasis=   105 RedAO= T EigKep=  2.13D-03  NBF=   105
 NBsUse=   105 1.00D-06 EigRej= -1.00D+00 NBFU=   105
 Precomputing XC quadrature grid using
 IXCGrd= 4 IRadAn=           0 IRanWt=          -1 IRanGd=           0 AccXCQ= 0.00D+00.
 Generated NRdTot=       0 NPtTot=           0 NUsed=           0 NTot=          32
 NSgBfM=   105   105   105   105   105 MxSgAt=    11 MxSgA2=    11.
 Leave Link  302 at Thu Sep  8 15:06:46 2022, MaxMem= 24159191040 cpu:        10.9
 (Enter /public/home/users/caep010/software/Gaussian09/g09/l303.exe)
 DipDrv:  MaxL=1.
 Leave Link  303 at Thu Sep  8 15:06:46 2022, MaxMem= 24159191040 cpu:         0.6
 (Enter /public/home/users/caep010/software/Gaussian09/g09/l401.exe)
 Initial guess from the checkpoint file:  "B3LYP6-31Gdp.Frag_688.chk"
 B after Tr=     0.000000    0.000000    0.000000
         Rot=    0.999999   -0.000007    0.000002    0.001243 Ang=  -0.14 deg.
 Guess basis will be translated and rotated to current coordinates.
 JPrj=2 DoOrth=T DoCkMO=T.
 Leave Link  401 at Thu Sep  8 15:06:46 2022, MaxMem= 24159191040 cpu:         3.5
 (Enter /public/home/users/caep010/software/Gaussian09/g09/l502.exe)
 Closed shell SCF:
 Using DIIS extrapolation, IDIIS=  1040.
 Integral symmetry usage will be decided dynamically.
 Keep R1 ints in memory in canonical form, NReq=16470489.
 IVT=       55780 IEndB=       55780 NGot= 24159191040 MDV= 24143647866
 LenX= 24143647866 LenY= 24143636400
 Requested convergence on RMS density matrix=1.00D-08 within 128 cycles.
 Requested convergence on MAX density matrix=1.00D-06.
 Requested convergence on             energy=1.00D-06.
 No special actions if energy rises.
 FoFCou: FMM=F IPFlag=           0 FMFlag=           0 FMFlg1=           0
         NFxFlg=           0 DoJE=F BraDBF=F KetDBF=F FulRan=T
         wScrn=  0.000000 ICntrl=     600 IOpCl=  0 I1Cent=           0 NGrid=           0
         NMat0=    1 NMatS0=   5565 NMatT0=    0 NMatD0=    1 NMtDS0=    0 NMtDT0=    0
 Symmetry not used in FoFCou.

 Cycle   1  Pass 1  IDiag  1:
 E= -227.408380076580    
 DIIS: error= 3.06D-04 at cycle   1 NSaved=   1.
 NSaved= 1 IEnMin= 1 EnMin= -227.408380076580     IErMin= 1 ErrMin= 3.06D-04
 ErrMax= 3.06D-04  0.00D+00 EMaxC= 1.00D-01 BMatC= 1.62D-05 BMatP= 1.62D-05
 IDIUse=3 WtCom= 9.97D-01 WtEn= 3.06D-03
 Coeff-Com:  0.100D+01
 Coeff-En:   0.100D+01
 Coeff:      0.100D+01
 Gap=     2.071 Goal=   None    Shift=    0.000
 RMSDP=8.68D-05 MaxDP=1.30D-03              OVMax= 1.33D-03

 Cycle   2  Pass 1  IDiag  1:
 E= -227.408402051719     Delta-E=       -0.000021975139 Rises=F Damp=F
 DIIS: error= 1.09D-04 at cycle   2 NSaved=   2.
 NSaved= 2 IEnMin= 2 EnMin= -227.408402051719     IErMin= 2 ErrMin= 1.09D-04
 ErrMax= 1.09D-04  0.00D+00 EMaxC= 1.00D-01 BMatC= 2.15D-06 BMatP= 1.62D-05
 IDIUse=3 WtCom= 9.99D-01 WtEn= 1.09D-03
 Coeff-Com:  0.163D+00 0.837D+00
 Coeff-En:   0.000D+00 0.100D+01
 Coeff:      0.163D+00 0.837D+00
 Gap=     0.208 Goal=   None    Shift=    0.000
 RMSDP=2.67D-05 MaxDP=4.85D-04 DE=-2.20D-05 OVMax= 5.12D-04

 Cycle   3  Pass 1  IDiag  1:
 E= -227.408402798280     Delta-E=       -0.000000746561 Rises=F Damp=F
 DIIS: error= 8.49D-05 at cycle   3 NSaved=   3.
 NSaved= 3 IEnMin= 3 EnMin= -227.408402798280     IErMin= 3 ErrMin= 8.49D-05
 ErrMax= 8.49D-05  0.00D+00 EMaxC= 1.00D-01 BMatC= 1.37D-06 BMatP= 2.15D-06
 IDIUse=1 WtCom= 1.00D+00 WtEn= 0.00D+00
 Coeff-Com: -0.147D-01 0.441D+00 0.574D+00
 Coeff:     -0.147D-01 0.441D+00 0.574D+00
 Gap=     0.208 Goal=   None    Shift=    0.000
 RMSDP=1.36D-05 MaxDP=3.39D-04 DE=-7.47D-07 OVMax= 4.08D-04

 Cycle   4  Pass 1  IDiag  1:
 E= -227.408403845993     Delta-E=       -0.000001047713 Rises=F Damp=F
 DIIS: error= 4.35D-05 at cycle   4 NSaved=   4.
 NSaved= 4 IEnMin= 4 EnMin= -227.408403845993     IErMin= 4 ErrMin= 4.35D-05
 ErrMax= 4.35D-05  0.00D+00 EMaxC= 1.00D-01 BMatC= 2.23D-07 BMatP= 1.37D-06
 IDIUse=1 WtCom= 1.00D+00 WtEn= 0.00D+00
 Coeff-Com: -0.173D-01 0.240D+00 0.380D+00 0.397D+00
 Coeff:     -0.173D-01 0.240D+00 0.380D+00 0.397D+00
 Gap=     0.208 Goal=   None    Shift=    0.000
 RMSDP=4.43D-06 MaxDP=1.20D-04 DE=-1.05D-06 OVMax= 1.87D-04

 Cycle   5  Pass 1  IDiag  1:
 E= -227.408404048680     Delta-E=       -0.000000202687 Rises=F Damp=F
 DIIS: error= 6.97D-06 at cycle   5 NSaved=   5.
 NSaved= 5 IEnMin= 5 EnMin= -227.408404048680     IErMin= 5 ErrMin= 6.97D-06
 ErrMax= 6.97D-06  0.00D+00 EMaxC= 1.00D-01 BMatC= 5.64D-09 BMatP= 2.23D-07
 IDIUse=1 WtCom= 1.00D+00 WtEn= 0.00D+00
 Coeff-Com: -0.496D-02 0.485D-01 0.979D-01 0.182D+00 0.676D+00
 Coeff:     -0.496D-02 0.485D-01 0.979D-01 0.182D+00 0.676D+00
 Gap=     0.208 Goal=   None    Shift=    0.000
 RMSDP=8.47D-07 MaxDP=1.41D-05 DE=-2.03D-07 OVMax= 2.00D-05

 Cycle   6  Pass 1  IDiag  1:
 E= -227.408404054029     Delta-E=       -0.000000005349 Rises=F Damp=F
 DIIS: error= 1.19D-06 at cycle   6 NSaved=   6.
 NSaved= 6 IEnMin= 6 EnMin= -227.408404054029     IErMin= 6 ErrMin= 1.19D-06
 ErrMax= 1.19D-06  0.00D+00 EMaxC= 1.00D-01 BMatC= 2.74D-10 BMatP= 5.64D-09
 IDIUse=1 WtCom= 1.00D+00 WtEn= 0.00D+00
 Coeff-Com: -0.150D-02 0.105D-01 0.272D-01 0.676D-01 0.293D+00 0.603D+00
 Coeff:     -0.150D-02 0.105D-01 0.272D-01 0.676D-01 0.293D+00 0.603D+00
 Gap=     0.208 Goal=   None    Shift=    0.000
 RMSDP=2.00D-07 MaxDP=4.57D-06 DE=-5.35D-09 OVMax= 7.58D-06

 Cycle   7  Pass 1  IDiag  1:
 E= -227.408404054215     Delta-E=       -0.000000000185 Rises=F Damp=F
 DIIS: error= 7.17D-07 at cycle   7 NSaved=   7.
 NSaved= 7 IEnMin= 7 EnMin= -227.408404054215     IErMin= 7 ErrMin= 7.17D-07
 ErrMax= 7.17D-07  0.00D+00 EMaxC= 1.00D-01 BMatC= 7.27D-11 BMatP= 2.74D-10
 IDIUse=1 WtCom= 1.00D+00 WtEn= 0.00D+00
 Coeff-Com: -0.286D-03 0.220D-03 0.412D-02 0.187D-01 0.909D-01 0.366D+00
 Coeff-Com:  0.520D+00
 Coeff:     -0.286D-03 0.220D-03 0.412D-02 0.187D-01 0.909D-01 0.366D+00
 Coeff:      0.520D+00
 Gap=     0.208 Goal=   None    Shift=    0.000
 RMSDP=9.10D-08 MaxDP=2.94D-06 DE=-1.85D-10 OVMax= 5.36D-06

 Cycle   8  Pass 1  IDiag  1:
 E= -227.408404054270     Delta-E=       -0.000000000055 Rises=F Damp=F
 DIIS: error= 2.64D-07 at cycle   8 NSaved=   8.
 NSaved= 8 IEnMin= 8 EnMin= -227.408404054270     IErMin= 8 ErrMin= 2.64D-07
 ErrMax= 2.64D-07  0.00D+00 EMaxC= 1.00D-01 BMatC= 1.21D-11 BMatP= 7.27D-11
 IDIUse=1 WtCom= 1.00D+00 WtEn= 0.00D+00
 Coeff-Com: -0.335D-07-0.121D-02-0.759D-03 0.370D-02 0.217D-01 0.154D+00
 Coeff-Com:  0.342D+00 0.481D+00
 Coeff:     -0.335D-07-0.121D-02-0.759D-03 0.370D-02 0.217D-01 0.154D+00
 Coeff:      0.342D+00 0.481D+00
 Gap=     0.208 Goal=   None    Shift=    0.000
 RMSDP=2.76D-08 MaxDP=7.76D-07 DE=-5.55D-11 OVMax= 1.42D-06

 Cycle   9  Pass 1  IDiag  1:
 E= -227.408404054280     Delta-E=       -0.000000000010 Rises=F Damp=F
 DIIS: error= 2.64D-08 at cycle   9 NSaved=   9.
 NSaved= 9 IEnMin= 9 EnMin= -227.408404054280     IErMin= 9 ErrMin= 2.64D-08
 ErrMax= 2.64D-08  0.00D+00 EMaxC= 1.00D-01 BMatC= 1.26D-13 BMatP= 1.21D-11
 IDIUse=1 WtCom= 1.00D+00 WtEn= 0.00D+00
 Coeff-Com:  0.249D-04-0.320D-03-0.537D-03-0.486D-03-0.180D-02 0.952D-02
 Coeff-Com:  0.577D-01 0.117D+00 0.819D+00
 Coeff:      0.249D-04-0.320D-03-0.537D-03-0.486D-03-0.180D-02 0.952D-02
 Coeff:      0.577D-01 0.117D+00 0.819D+00
 Gap=     0.208 Goal=   None    Shift=    0.000
 RMSDP=5.51D-09 MaxDP=8.06D-08 DE=-9.78D-12 OVMax= 2.35D-07

 SCF Done:  E(RB3LYP) =  -227.408404054     A.U. after    9 cycles
            NFock=  9  Conv=0.55D-08     -V/T= 2.0096
 KE= 2.252508987421D+02 PE=-8.505818464842D+02 EE= 2.367118695482D+02
 Leave Link  502 at Thu Sep  8 15:06:47 2022, MaxMem= 24159191040 cpu:        23.5
 (Enter /public/home/users/caep010/software/Gaussian09/g09/l701.exe)
 Compute integral first derivatives.
 ... and contract with generalized density number  0.
 Leave Link  701 at Thu Sep  8 15:06:47 2022, MaxMem= 24159191040 cpu:        11.2
 (Enter /public/home/users/caep010/software/Gaussian09/g09/l702.exe)
 L702 exits ... SP integral derivatives will be done elsewhere.
 Leave Link  702 at Thu Sep  8 15:06:48 2022, MaxMem= 24159191040 cpu:         0.6
 (Enter /public/home/users/caep010/software/Gaussian09/g09/l703.exe)
 Compute integral first derivatives, UseDBF=F ICtDFT=           0.
 Integral derivatives from FoFJK, PRISM(SPDF).
 Calling FoFJK, ICntrl=      2127 FMM=F ISym2X=0 I1Cent= 0 IOpClX= 0 NMat=1 NMatS=1 NMatT=0.
 FoFJK:  IHMeth= 1 ICntrl=    2127 DoSepK=F KAlg= 0 I1Cent=   0 FoldK=F
 IRaf=         0 NMat=   1 IRICut=       1 DoRegI=T DoRafI=F ISym2E= 0.
 FoFCou: FMM=F IPFlag=           0 FMFlag=      100000 FMFlg1=         800
         NFxFlg=           0 DoJE=F BraDBF=F KetDBF=F FulRan=T
         wScrn=  0.000000 ICntrl=    2127 IOpCl=  0 I1Cent=           0 NGrid=           0
         NMat0=    1 NMatS0=      1 NMatT0=    0 NMatD0=    1 NMtDS0=    0 NMtDT0=    0
 Symmetry not used in FoFCou.
 Leave Link  703 at Thu Sep  8 15:06:48 2022, MaxMem= 24159191040 cpu:         9.6
 (Enter /public/home/users/caep010/software/Gaussian09/g09/l716.exe)
 Dipole        =-1.43316007D+00-2.48328454D-01 2.71557286D-04
 ***** Axes restored to original set *****
 -------------------------------------------------------------------
 Center     Atomic                   Forces (Hartrees/Bohr)
 Number     Number              X              Y              Z
 -------------------------------------------------------------------
      1        6           0.000190614   -0.000018102    0.000036281
      2        6          -0.000557350   -0.000412468    0.000106731
      3        7           0.000499475    0.000194777    0.000005483
      4        6          -0.000447214   -0.000015937   -0.000116228
      5        7           0.000375399   -0.000155766    0.000187908
      6        1          -0.000005782    0.000043427   -0.000018812
      7        1           0.000084676    0.000083215   -0.000041614
      8        1           0.000079160    0.000098747   -0.000012127
      9        1          -0.000262100   -0.000015350   -0.000044578
     10        1           0.000178021    0.000083572    0.000000643
     11        1          -0.000134899    0.000113884   -0.000103687
 -------------------------------------------------------------------
 Cartesian Forces:  Max     0.000557350 RMS     0.000207264
 Leave Link  716 at Thu Sep  8 15:06:48 2022, MaxMem= 24159191040 cpu:         0.6
 (Enter /public/home/users/caep010/software/Gaussian09/g09/l103.exe)

 GradGradGradGradGradGradGradGradGradGradGradGradGradGradGradGradGradGrad
 Berny optimization.
 Using GEDIIS/GDIIS optimizer.
 FormGI is forming the generalized inverse of G from B-inverse, IUseBI=4.
 Internal  Forces:  Max     0.000401482 RMS     0.000136745
 Search for a local minimum.
 Step number   2 out of a maximum of   48
 All quantities printed in internal units (Hartrees-Bohrs-Radians)
 RMS Force = .13675D-03 SwitMx=.10000D-02 MixMth= 2
 Mixed Optimization -- En-DIIS/RFO-DIIS
 Update second derivatives using D2CorX and points    1    2
 DE= -4.83D-05 DEPred=-4.57D-05 R= 1.06D+00
 TightC=F SS=  1.41D+00  RLast= 1.50D-02 DXNew= 5.0454D-01 4.5097D-02
 Trust test= 1.06D+00 RLast= 1.50D-02 DXMaxT set to 3.00D-01
 ITU=  1  0
 Use linear search instead of GDIIS.
     Eigenvalues ---    0.00661   0.00685   0.01158   0.01630   0.03375
     Eigenvalues ---    0.03445   0.07067   0.07287   0.14822   0.16000
     Eigenvalues ---    0.16000   0.16000   0.16000   0.16087   0.21902
     Eigenvalues ---    0.24547   0.25155   0.31455   0.33055   0.34063
     Eigenvalues ---    0.34072   0.34519   0.34905   0.42674   0.43719
     Eigenvalues ---    0.74523   0.76666
 RFO step:  Lambda=-2.99722565D-06 EMin= 6.60666756D-03
 Quartic linear search produced a step of  0.07190.
 Iteration  1 RMS(Cart)=  0.00148026 RMS(Int)=  0.00000155
 Iteration  2 RMS(Cart)=  0.00000153 RMS(Int)=  0.00000008
 Iteration  3 RMS(Cart)=  0.00000000 RMS(Int)=  0.00000008
 ITry= 1 IFail=0 DXMaxC= 5.07D-03 DCOld= 1.00D+10 DXMaxT= 3.00D-01 DXLimC= 3.00D+00 Rises=F
 Variable       Old X    -DE/DX   Delta X   Delta X   Delta X     New X
                                 (Linear)    (Quad)   (Total)
    R1        2.85313  -0.00040   0.00025  -0.00149  -0.00124   2.85189
    R2        2.06495   0.00004   0.00004   0.00011   0.00015   2.06510
    R3        2.07240  -0.00006   0.00001  -0.00018  -0.00017   2.07222
    R4        2.07239  -0.00005   0.00001  -0.00018  -0.00017   2.07223
    R5        2.41137   0.00025   0.00044   0.00012   0.00056   2.41192
    R6        2.85100  -0.00004   0.00035  -0.00033   0.00002   2.85102
    R7        1.93382   0.00021   0.00022   0.00039   0.00061   1.93443
    R8        2.40086   0.00023   0.00039   0.00011   0.00050   2.40137
    R9        2.07026  -0.00013   0.00015  -0.00048  -0.00032   2.06994
   R10        1.94754   0.00012   0.00022   0.00019   0.00041   1.94796
    A1        1.94921  -0.00001  -0.00000  -0.00021  -0.00021   1.94900
    A2        1.92862  -0.00010   0.00004  -0.00063  -0.00059   1.92803
    A3        1.92861  -0.00011   0.00004  -0.00067  -0.00063   1.92798
    A4        1.89672   0.00005  -0.00008   0.00025   0.00017   1.89689
    A5        1.89676   0.00004  -0.00009   0.00021   0.00012   1.89688
    A6        1.86137   0.00014   0.00010   0.00113   0.00123   1.86260
    A7        2.21500  -0.00002   0.00027  -0.00022   0.00005   2.21504
    A8        2.02535   0.00016   0.00012   0.00063   0.00075   2.02610
    A9        2.04284  -0.00014  -0.00039  -0.00041  -0.00080   2.04204
   A10        1.94350  -0.00031  -0.00027  -0.00197  -0.00223   1.94127
   A11        2.18644  -0.00011  -0.00008  -0.00050  -0.00058   2.18586
   A12        2.02860   0.00021   0.00024   0.00117   0.00141   2.03001
   A13        2.06814  -0.00010  -0.00016  -0.00066  -0.00083   2.06732
   A14        1.88418  -0.00031  -0.00020  -0.00198  -0.00218   1.88200
    D1        0.00060  -0.00000  -0.00002  -0.00016  -0.00018   0.00042
    D2       -3.14103  -0.00000  -0.00002  -0.00015  -0.00017  -3.14120
    D3        2.11418  -0.00002  -0.00010  -0.00042  -0.00052   2.11367
    D4       -1.02745  -0.00002  -0.00009  -0.00041  -0.00050  -1.02795
    D5       -2.11303   0.00002   0.00007   0.00018   0.00025  -2.11278
    D6        1.02852   0.00002   0.00008   0.00018   0.00026   1.02879
    D7       -0.00010   0.00000  -0.00003   0.00011   0.00007  -0.00003
    D8        3.14153   0.00000  -0.00004   0.00010   0.00006  -3.14159
    D9       -3.14120   0.00000  -0.00004  -0.00011  -0.00015  -3.14135
   D10        0.00070  -0.00001   0.00001  -0.00081  -0.00080  -0.00010
   D11        0.00035   0.00000  -0.00004  -0.00010  -0.00014   0.00022
   D12       -3.14093  -0.00001   0.00001  -0.00080  -0.00079   3.14146
   D13        0.00039  -0.00002   0.00008  -0.00082  -0.00074  -0.00035
   D14       -3.14152  -0.00001   0.00003  -0.00011  -0.00008   3.14159
         Item               Value     Threshold  Converged?
 Maximum Force            0.000401     0.000450     YES
 RMS     Force            0.000137     0.000300     YES
 Maximum Displacement     0.005069     0.001800     NO 
 RMS     Displacement     0.001481     0.001200     NO 
 Predicted change in Energy=-1.693579D-06
 Lowest energy point so far.  Saving SCF results.
 GradGradGradGradGradGradGradGradGradGradGradGradGradGradGradGradGradGrad

 Leave Link  103 at Thu Sep  8 15:06:48 2022, MaxMem= 24159191040 cpu:         1.7
 (Enter /public/home/users/caep010/software/Gaussian09/g09/l202.exe)
                          Input orientation:                          
 ---------------------------------------------------------------------
 Center     Atomic      Atomic             Coordinates (Angstroms)
 Number     Number       Type             X           Y           Z
 ---------------------------------------------------------------------
      1          6           0       -1.381012   -0.297227   -0.146154
      2          6           0        0.021989    0.258372   -0.124930
      3          7           0        0.411072    1.376281   -0.602344
      4          6           0        1.068363   -0.606991    0.532652
      5          7           0        2.298727   -0.310547    0.647227
      6          1           0       -2.078067    0.385694   -0.638043
      7          1           0       -1.404165   -1.260301   -0.670012
      8          1           0       -1.734562   -0.484856    0.874766
      9          1           0       -0.366919    1.889322   -1.025890
     10          1           0        0.722142   -1.563665    0.938520
     11          1           0        2.442332    0.613818    0.214208
 ---------------------------------------------------------------------
                    Distance matrix (angstroms):
                    1          2          3          4          5
     1  C    0.000000
     2  C    1.509157   0.000000
     3  N    2.494054   1.276335   0.000000
     4  C    2.560502   1.508697   2.377733   0.000000
     5  N    3.764321   2.470513   2.823130   1.270749   0.000000
     6  H    1.092805   2.165579   2.679244   3.500853   4.614434
     7  H    1.096574   2.153462   3.201754   2.826059   4.043336
     8  H    1.096576   2.153428   3.201473   2.826366   4.043462
     9  H    2.565798   1.903412   1.023656   3.274243   3.839846
    10  H    2.683959   2.222826   3.333813   1.095364   2.034890
    11  H    3.946875   2.469700   2.318216   1.865361   1.030814
                    6          7          8          9         10
     6  H    0.000000
     7  H    1.778895   0.000000
     8  H    1.778888   1.759777   0.000000
     9  H    2.310704   3.335065   3.334616   0.000000
    10  H    3.758553   2.683390   2.683894   4.119233   0.000000
    11  H    4.605690   4.369177   4.369195   3.325154   2.867945
                   11
    11  H    0.000000
 Stoichiometry    C3H6N2
 Framework group  C1[X(C3H6N2)]
 Deg. of freedom    27
 Full point group                 C1      NOp   1
 RotChk:  IX=0 Diff= 1.07D-04
 Largest Abelian subgroup         C1      NOp   1
 Largest concise Abelian subgroup C1      NOp   1
                         Standard orientation:                         
 ---------------------------------------------------------------------
 Center     Atomic      Atomic             Coordinates (Angstroms)
 Number     Number       Type             X           Y           Z
 ---------------------------------------------------------------------
      1          6           0       -1.700992   -0.649428    0.000029
      2          6           0       -0.416220    0.142350   -0.000037
      3          7           0       -0.299036    1.413294   -0.000010
      4          6           0        0.859473   -0.663115   -0.000107
      5          7           0        2.033566   -0.176998    0.000083
      6          1           0       -2.577339    0.003441   -0.000319
      7          1           0       -1.749046   -1.302396   -0.879629
      8          1           0       -1.749287   -1.301762    0.880147
      9          1           0       -1.215186    1.869959    0.000039
     10          1           0        0.745787   -1.752563   -0.000004
     11          1           0        1.949804    0.850407   -0.000055
 ---------------------------------------------------------------------
 Rotational constants (GHZ):      9.8748988      4.0453290      2.9215003
 Leave Link  202 at Thu Sep  8 15:06:48 2022, MaxMem= 24159191040 cpu:         0.3
 (Enter /public/home/users/caep010/software/Gaussian09/g09/l301.exe)
 Standard basis: 6-31G(d,p) (6D, 7F)
 Ernie: Thresh=  0.10000D-02 Tol=  0.10000D-05 Strict=F.
 There are   105 symmetry adapted cartesian basis functions of A   symmetry.
 There are   105 symmetry adapted basis functions of A   symmetry.
   105 basis functions,   182 primitive gaussians,   105 cartesian basis functions
    19 alpha electrons       19 beta electrons
       nuclear repulsion energy       161.2245058499 Hartrees.
 IExCor=  402 DFT=T Ex+Corr=B3LYP ExCW=0 ScaHFX=  0.200000
 ScaDFX=  0.800000  0.720000  1.000000  0.810000 ScalE2=  1.000000  1.000000
 IRadAn=      0 IRanWt=     -1 IRanGd=            0 ICorTp=0 IEmpDi=  4
 NAtoms=   11 NActive=   11 NUniq=   11 SFac= 1.00D+00 NAtFMM=   60 NAOKFM=F Big=F
 Integral buffers will be    131072 words long.
 Raffenetti 2 integral format.
 Two-electron integral symmetry is turned on.
 Leave Link  301 at Thu Sep  8 15:06:48 2022, MaxMem= 24159191040 cpu:         1.6
 (Enter /public/home/users/caep010/software/Gaussian09/g09/l302.exe)
 NPDir=0 NMtPBC=     1 NCelOv=     1 NCel=       1 NClECP=     1 NCelD=      1
         NCelK=      1 NCelE2=     1 NClLst=     1 CellRange=     0.0.
 One-electron integrals computed using PRISM.
 NBasis=   105 RedAO= T EigKep=  2.13D-03  NBF=   105
 NBsUse=   105 1.00D-06 EigRej= -1.00D+00 NBFU=   105
 Precomputing XC quadrature grid using
 IXCGrd= 4 IRadAn=           0 IRanWt=          -1 IRanGd=           0 AccXCQ= 0.00D+00.
 Generated NRdTot=       0 NPtTot=           0 NUsed=           0 NTot=          32
 NSgBfM=   105   105   105   105   105 MxSgAt=    11 MxSgA2=    11.
 Leave Link  302 at Thu Sep  8 15:06:49 2022, MaxMem= 24159191040 cpu:        10.8
 (Enter /public/home/users/caep010/software/Gaussian09/g09/l303.exe)
 DipDrv:  MaxL=1.
 Leave Link  303 at Thu Sep  8 15:06:49 2022, MaxMem= 24159191040 cpu:         0.9
 (Enter /public/home/users/caep010/software/Gaussian09/g09/l401.exe)
 Initial guess from the checkpoint file:  "B3LYP6-31Gdp.Frag_688.chk"
 B after Tr=    -0.000000   -0.000000    0.000000
         Rot=    1.000000   -0.000008   -0.000001    0.000007 Ang=  -0.00 deg.
 Guess basis will be translated and rotated to current coordinates.
 JPrj=2 DoOrth=T DoCkMO=T.
 Leave Link  401 at Thu Sep  8 15:06:49 2022, MaxMem= 24159191040 cpu:         3.5
 (Enter /public/home/users/caep010/software/Gaussian09/g09/l502.exe)
 Closed shell SCF:
 Using DIIS extrapolation, IDIIS=  1040.
 Integral symmetry usage will be decided dynamically.
 Keep R1 ints in memory in canonical form, NReq=16470489.
 IVT=       55780 IEndB=       55780 NGot= 24159191040 MDV= 24143647866
 LenX= 24143647866 LenY= 24143636400
 Requested convergence on RMS density matrix=1.00D-08 within 128 cycles.
 Requested convergence on MAX density matrix=1.00D-06.
 Requested convergence on             energy=1.00D-06.
 No special actions if energy rises.
 FoFCou: FMM=F IPFlag=           0 FMFlag=           0 FMFlg1=           0
         NFxFlg=           0 DoJE=F BraDBF=F KetDBF=F FulRan=T
         wScrn=  0.000000 ICntrl=     600 IOpCl=  0 I1Cent=           0 NGrid=           0
         NMat0=    1 NMatS0=   5565 NMatT0=    0 NMatD0=    1 NMtDS0=    0 NMtDT0=    0
 Symmetry not used in FoFCou.

 Cycle   1  Pass 1  IDiag  1:
 E= -227.408403741222    
 DIIS: error= 8.24D-05 at cycle   1 NSaved=   1.
 NSaved= 1 IEnMin= 1 EnMin= -227.408403741222     IErMin= 1 ErrMin= 8.24D-05
 ErrMax= 8.24D-05  0.00D+00 EMaxC= 1.00D-01 BMatC= 1.28D-06 BMatP= 1.28D-06
 IDIUse=1 WtCom= 1.00D+00 WtEn= 0.00D+00
 Coeff-Com:  0.100D+01
 Coeff:      0.100D+01
 Gap=     2.074 Goal=   None    Shift=    0.000
 RMSDP=2.06D-05 MaxDP=4.07D-04              OVMax= 4.12D-04

 Cycle   2  Pass 1  IDiag  1:
 E= -227.408405536290     Delta-E=       -0.000001795068 Rises=F Damp=F
 DIIS: error= 3.32D-05 at cycle   2 NSaved=   2.
 NSaved= 2 IEnMin= 2 EnMin= -227.408405536290     IErMin= 2 ErrMin= 3.32D-05
 ErrMax= 3.32D-05  0.00D+00 EMaxC= 1.00D-01 BMatC= 1.34D-07 BMatP= 1.28D-06
 IDIUse=1 WtCom= 1.00D+00 WtEn= 0.00D+00
 Coeff-Com:  0.897D-01 0.910D+00
 Coeff:      0.897D-01 0.910D+00
 Gap=     0.208 Goal=   None    Shift=    0.000
 RMSDP=7.71D-06 MaxDP=1.76D-04 DE=-1.80D-06 OVMax= 3.17D-04

 Cycle   3  Pass 1  IDiag  1:
 E= -227.408405297512     Delta-E=        0.000000238778 Rises=F Damp=F
 DIIS: error= 6.20D-05 at cycle   3 NSaved=   3.
 NSaved= 3 IEnMin= 2 EnMin= -227.408405536290     IErMin= 2 ErrMin= 3.32D-05
 ErrMax= 6.20D-05  0.00D+00 EMaxC= 1.00D-01 BMatC= 4.04D-07 BMatP= 1.34D-07
 IDIUse=1 WtCom= 1.00D+00 WtEn= 0.00D+00
 Coeff-Com: -0.384D-01 0.658D+00 0.380D+00
 Coeff:     -0.384D-01 0.658D+00 0.380D+00
 Gap=     0.208 Goal=   None    Shift=    0.000
 RMSDP=5.22D-06 MaxDP=1.20D-04 DE= 2.39D-07 OVMax= 2.38D-04

 Cycle   4  Pass 1  IDiag  1:
 E= -227.408405655364     Delta-E=       -0.000000357852 Rises=F Damp=F
 DIIS: error= 4.79D-06 at cycle   4 NSaved=   4.
 NSaved= 4 IEnMin= 4 EnMin= -227.408405655364     IErMin= 4 ErrMin= 4.79D-06
 ErrMax= 4.79D-06  0.00D+00 EMaxC= 1.00D-01 BMatC= 3.75D-09 BMatP= 1.34D-07
 IDIUse=1 WtCom= 1.00D+00 WtEn= 0.00D+00
 Coeff-Com: -0.186D-01 0.259D+00 0.179D+00 0.580D+00
 Coeff:     -0.186D-01 0.259D+00 0.179D+00 0.580D+00
 Gap=     0.208 Goal=   None    Shift=    0.000
 RMSDP=6.40D-07 MaxDP=1.20D-05 DE=-3.58D-07 OVMax= 2.06D-05

 Cycle   5  Pass 1  IDiag  1:
 E= -227.408405658867     Delta-E=       -0.000000003503 Rises=F Damp=F
 DIIS: error= 1.30D-06 at cycle   5 NSaved=   5.
 NSaved= 5 IEnMin= 5 EnMin= -227.408405658867     IErMin= 5 ErrMin= 1.30D-06
 ErrMax= 1.30D-06  0.00D+00 EMaxC= 1.00D-01 BMatC= 2.36D-10 BMatP= 3.75D-09
 IDIUse=1 WtCom= 1.00D+00 WtEn= 0.00D+00
 Coeff-Com: -0.430D-02 0.499D-01 0.438D-01 0.255D+00 0.655D+00
 Coeff:     -0.430D-02 0.499D-01 0.438D-01 0.255D+00 0.655D+00
 Gap=     0.208 Goal=   None    Shift=    0.000
 RMSDP=1.80D-07 MaxDP=3.29D-06 DE=-3.50D-09 OVMax= 3.61D-06

 Cycle   6  Pass 1  IDiag  1:
 E= -227.408405659098     Delta-E=       -0.000000000231 Rises=F Damp=F
 DIIS: error= 3.47D-07 at cycle   6 NSaved=   6.
 NSaved= 6 IEnMin= 6 EnMin= -227.408405659098     IErMin= 6 ErrMin= 3.47D-07
 ErrMax= 3.47D-07  0.00D+00 EMaxC= 1.00D-01 BMatC= 1.26D-11 BMatP= 2.36D-10
 IDIUse=1 WtCom= 1.00D+00 WtEn= 0.00D+00
 Coeff-Com: -0.556D-03 0.243D-02 0.491D-02 0.613D-01 0.246D+00 0.686D+00
 Coeff:     -0.556D-03 0.243D-02 0.491D-02 0.613D-01 0.246D+00 0.686D+00
 Gap=     0.208 Goal=   None    Shift=    0.000
 RMSDP=5.80D-08 MaxDP=1.23D-06 DE=-2.31D-10 OVMax= 2.99D-06

 Cycle   7  Pass 1  IDiag  1:
 E= -227.408405659103     Delta-E=       -0.000000000005 Rises=F Damp=F
 DIIS: error= 3.12D-07 at cycle   7 NSaved=   7.
 NSaved= 7 IEnMin= 7 EnMin= -227.408405659103     IErMin= 7 ErrMin= 3.12D-07
 ErrMax= 3.12D-07  0.00D+00 EMaxC= 1.00D-01 BMatC= 1.01D-11 BMatP= 1.26D-11
 IDIUse=1 WtCom= 1.00D+00 WtEn= 0.00D+00
 Coeff-Com:  0.361D-03-0.687D-02-0.403D-02 0.305D-03 0.648D-01 0.496D+00
 Coeff-Com:  0.449D+00
 Coeff:      0.361D-03-0.687D-02-0.403D-02 0.305D-03 0.648D-01 0.496D+00
 Coeff:      0.449D+00
 Gap=     0.208 Goal=   None    Shift=    0.000
 RMSDP=2.78D-08 MaxDP=7.86D-07 DE=-5.12D-12 OVMax= 1.75D-06

 Cycle   8  Pass 1  IDiag  1:
 E= -227.408405659113     Delta-E=       -0.000000000009 Rises=F Damp=F
 DIIS: error= 2.41D-08 at cycle   8 NSaved=   8.
 NSaved= 8 IEnMin= 8 EnMin= -227.408405659113     IErMin= 8 ErrMin= 2.41D-08
 ErrMax= 2.41D-08  0.00D+00 EMaxC= 1.00D-01 BMatC= 1.38D-13 BMatP= 1.01D-11
 IDIUse=1 WtCom= 1.00D+00 WtEn= 0.00D+00
 Coeff-Com:  0.151D-03-0.232D-02-0.153D-02-0.446D-02 0.323D-02 0.108D+00
 Coeff-Com:  0.156D+00 0.741D+00
 Coeff:      0.151D-03-0.232D-02-0.153D-02-0.446D-02 0.323D-02 0.108D+00
 Coeff:      0.156D+00 0.741D+00
 Gap=     0.208 Goal=   None    Shift=    0.000
 RMSDP=5.34D-09 MaxDP=8.35D-08 DE=-9.44D-12 OVMax= 1.97D-07

 SCF Done:  E(RB3LYP) =  -227.408405659     A.U. after    8 cycles
            NFock=  8  Conv=0.53D-08     -V/T= 2.0096
 KE= 2.252508562656D+02 PE=-8.506085665519D+02 EE= 2.367247987774D+02
 Leave Link  502 at Thu Sep  8 15:06:50 2022, MaxMem= 24159191040 cpu:        27.2
 (Enter /public/home/users/caep010/software/Gaussian09/g09/l701.exe)
 Compute integral first derivatives.
 ... and contract with generalized density number  0.
 Leave Link  701 at Thu Sep  8 15:06:50 2022, MaxMem= 24159191040 cpu:        10.6
 (Enter /public/home/users/caep010/software/Gaussian09/g09/l702.exe)
 L702 exits ... SP integral derivatives will be done elsewhere.
 Leave Link  702 at Thu Sep  8 15:06:51 2022, MaxMem= 24159191040 cpu:         0.5
 (Enter /public/home/users/caep010/software/Gaussian09/g09/l703.exe)
 Compute integral first derivatives, UseDBF=F ICtDFT=           0.
 Integral derivatives from FoFJK, PRISM(SPDF).
 Calling FoFJK, ICntrl=      2127 FMM=F ISym2X=0 I1Cent= 0 IOpClX= 0 NMat=1 NMatS=1 NMatT=0.
 FoFJK:  IHMeth= 1 ICntrl=    2127 DoSepK=F KAlg= 0 I1Cent=   0 FoldK=F
 IRaf=         0 NMat=   1 IRICut=       1 DoRegI=T DoRafI=F ISym2E= 0.
 FoFCou: FMM=F IPFlag=           0 FMFlag=      100000 FMFlg1=         800
         NFxFlg=           0 DoJE=F BraDBF=F KetDBF=F FulRan=T
         wScrn=  0.000000 ICntrl=    2127 IOpCl=  0 I1Cent=           0 NGrid=           0
         NMat0=    1 NMatS0=      1 NMatT0=    0 NMatD0=    1 NMtDS0=    0 NMtDT0=    0
 Symmetry not used in FoFCou.
 Leave Link  703 at Thu Sep  8 15:06:51 2022, MaxMem= 24159191040 cpu:         9.2
 (Enter /public/home/users/caep010/software/Gaussian09/g09/l716.exe)
 Dipole        =-1.43562738D+00-2.50563101D-01-4.04329737D-05
 ***** Axes restored to original set *****
 -------------------------------------------------------------------
 Center     Atomic                   Forces (Hartrees/Bohr)
 Number     Number              X              Y              Z
 -------------------------------------------------------------------
      1        6           0.000054990    0.000037245   -0.000005452
      2        6           0.000000828   -0.000136828    0.000051135
      3        7          -0.000041144    0.000029969   -0.000025026
      4        6          -0.000113362   -0.000038674    0.000031539
      5        7           0.000004745    0.000032424   -0.000040652
      6        1          -0.000004739   -0.000009998    0.000004991
      7        1           0.000000215    0.000005528    0.000004459
      8        1           0.000001038   -0.000001633   -0.000006619
      9        1           0.000023632    0.000026685   -0.000007267
     10        1           0.000015651    0.000020852   -0.000013395
     11        1           0.000058146    0.000034430    0.000006286
 -------------------------------------------------------------------
 Cartesian Forces:  Max     0.000136828 RMS     0.000040488
 Leave Link  716 at Thu Sep  8 15:06:51 2022, MaxMem= 24159191040 cpu:         0.6
 (Enter /public/home/users/caep010/software/Gaussian09/g09/l103.exe)

 GradGradGradGradGradGradGradGradGradGradGradGradGradGradGradGradGradGrad
 Berny optimization.
 Using GEDIIS/GDIIS optimizer.
 FormGI is forming the generalized inverse of G from B-inverse, IUseBI=4.
 Internal  Forces:  Max     0.000112265 RMS     0.000031579
 Search for a local minimum.
 Step number   3 out of a maximum of   48
 All quantities printed in internal units (Hartrees-Bohrs-Radians)
 RMS Force = .31579D-04 SwitMx=.10000D-02 MixMth= 2
 Mixed Optimization -- En-DIIS/RFO-DIIS
 Swapping is turned off.
 Update second derivatives using D2CorX and points    1    2    3
 DE= -1.60D-06 DEPred=-1.69D-06 R= 9.48D-01
 TightC=F SS=  1.41D+00  RLast= 4.66D-03 DXNew= 5.0454D-01 1.3981D-02
 Trust test= 9.48D-01 RLast= 4.66D-03 DXMaxT set to 3.00D-01
 ITU=  1  1  0
     Eigenvalues ---    0.00660   0.00685   0.01158   0.01638   0.03375
     Eigenvalues ---    0.03456   0.07073   0.07276   0.14981   0.16000
     Eigenvalues ---    0.16000   0.16000   0.16041   0.18595   0.21567
     Eigenvalues ---    0.23963   0.25152   0.31177   0.32381   0.34028
     Eigenvalues ---    0.34064   0.34412   0.34554   0.42380   0.43804
     Eigenvalues ---    0.72551   0.76412
 En-DIIS/RFO-DIIS IScMMF=        0 using points:     3    2
 RFO step:  Lambda=-7.43461967D-08.
 NNeg= 0 NP= 2 Switch=  2.50D-03 Rises=F DC=  1.60D-06 SmlDif=  1.00D-05
 RMS Error=  0.6522165965D-04 NUsed= 2 EDIIS=F
 DidBck=F Rises=F RFO-DIIS coefs:    0.94021    0.05979
 Iteration  1 RMS(Cart)=  0.00019423 RMS(Int)=  0.00000007
 Iteration  2 RMS(Cart)=  0.00000008 RMS(Int)=  0.00000002
 ITry= 1 IFail=0 DXMaxC= 5.92D-04 DCOld= 1.00D+10 DXMaxT= 3.00D-01 DXLimC= 3.00D+00 Rises=F
 Variable       Old X    -DE/DX   Delta X   Delta X   Delta X     New X
                                 (Linear)    (Quad)   (Total)
    R1        2.85189  -0.00006   0.00007  -0.00031  -0.00023   2.85166
    R2        2.06510  -0.00000  -0.00001   0.00000  -0.00000   2.06510
    R3        2.07222  -0.00001   0.00001  -0.00004  -0.00003   2.07219
    R4        2.07223  -0.00001   0.00001  -0.00004  -0.00003   2.07220
    R5        2.41192   0.00006  -0.00003   0.00012   0.00009   2.41201
    R6        2.85102  -0.00006  -0.00000  -0.00017  -0.00017   2.85086
    R7        1.93443  -0.00000  -0.00004   0.00005   0.00001   1.93444
    R8        2.40137   0.00007  -0.00003   0.00013   0.00010   2.40147
    R9        2.06994  -0.00003   0.00002  -0.00011  -0.00009   2.06985
   R10        1.94796   0.00003  -0.00002   0.00011   0.00009   1.94804
    A1        1.94900   0.00001   0.00001   0.00005   0.00006   1.94906
    A2        1.92803  -0.00000   0.00004  -0.00007  -0.00003   1.92799
    A3        1.92798   0.00000   0.00004  -0.00005  -0.00002   1.92796
    A4        1.89689  -0.00000  -0.00001  -0.00001  -0.00002   1.89688
    A5        1.89688  -0.00001  -0.00001  -0.00002  -0.00002   1.89686
    A6        1.86260  -0.00000  -0.00007   0.00010   0.00003   1.86263
    A7        2.21504  -0.00002  -0.00000  -0.00006  -0.00006   2.21498
    A8        2.02610   0.00003  -0.00004   0.00018   0.00014   2.02624
    A9        2.04204  -0.00001   0.00005  -0.00013  -0.00008   2.04196
[...]
     31  0.000000D+00  0.000000D+00  0.000000D+00  0.000000D+00 -0.228101D-02
     32 -0.141464D-05  0.170182D-05  0.000000D+00  0.000000D+00  0.250035D-02
     33 -0.377050D-05  0.291056D-05 -0.257668D-05  0.000000D+00  0.184578D-02
     34  0.667006D-05 -0.376140D-05  0.000000D+00  0.146351D-05  0.218434D-02
     35 -0.348222D-05  0.217034D-05 -0.236942D-05  0.000000D+00 -0.241082D-02
     36  0.695834D-05 -0.450162D-05  0.106460D-05  0.182895D-05 -0.207225D-02
     37  0.121456D-04  0.709162D-05 -0.161320D-04  0.393156D-05  0.494061D-03
     38 -0.140810D-05 -0.105087D-04  0.767887D-05  0.573062D-05  0.148885D-03
               26            27            28            29            30 
     26  0.133964D-01
     27 -0.680028D-02  0.126717D-01
     28 -0.273885D-02  0.880255D-02  0.137383D-01
     29 -0.680089D-02 -0.396631D-02 -0.783569D-02  0.126711D-01
     30 -0.273946D-02 -0.783549D-02 -0.289998D-02  0.880171D-02  0.137372D-01
     31  0.168058D-03 -0.181841D-03  0.226723D-02 -0.182198D-03  0.226687D-02
     32 -0.392583D-02  0.371823D-02 -0.270795D-02  0.371813D-02 -0.270805D-02
     33 -0.137036D-02  0.136226D-02 -0.185388D-02  0.136233D-02 -0.185380D-02
     34 -0.198200D-02  0.182375D-02 -0.234259D-02  0.182382D-02 -0.234252D-02
     35  0.227421D-02 -0.210983D-02  0.257520D-02 -0.210986D-02  0.257516D-02
     36  0.166257D-02 -0.164833D-02  0.208649D-02 -0.164837D-02  0.208645D-02
     37 -0.623575D-03  0.512643D-03 -0.604993D-03  0.512925D-03 -0.604710D-03
     38  0.000000D+00  0.422261D-04 -0.106659D-03  0.423496D-04 -0.106536D-03
               31            32            33            34            35 
     31  0.228618D-01
     32  0.203932D-01  0.268707D-01
     33 -0.220938D-02  0.103246D-02  0.830664D-02
     34 -0.980305D-03  0.321933D-02 -0.366945D-02  0.945452D-02
     35 -0.116784D-04 -0.473414D-02  0.542061D-02 -0.740816D-02  0.962476D-02
     36  0.121740D-02 -0.254727D-02 -0.655549D-02  0.571581D-02 -0.320401D-02
     37  0.797094D-03  0.192366D-02 -0.387633D-02  0.694487D-02 -0.487925D-02
     38 -0.455967D-03 -0.305892D-03  0.833348D-02 -0.643522D-02  0.819988D-02
               36            37            38 
     36  0.906729D-02
     37  0.594195D-02  0.335352D-01
     38 -0.656883D-02  0.225028D-01  0.375597D-01
 Leave Link  716 at Thu Sep  8 15:06:59 2022, MaxMem= 24159191040 cpu:         1.4
 (Enter /public/home/users/caep010/software/Gaussian09/g09/l103.exe)

 GradGradGradGradGradGradGradGradGradGradGradGradGradGradGradGradGradGrad
 Berny optimization.
 Red2BG is reusing G-inverse.
 Internal  Forces:  Max     0.000112265 RMS     0.000031583
 Search for a local minimum.
 Step number   1 out of a maximum of    2
 All quantities printed in internal units (Hartrees-Bohrs-Radians)
 Second derivative matrix not updated -- analytic derivatives used.
 ITU=  0
     Eigenvalues ---    0.00128   0.00400   0.02269   0.03639   0.04655
     Eigenvalues ---    0.05592   0.05752   0.05880   0.12273   0.13371
     Eigenvalues ---    0.13490   0.13745   0.17236   0.18638   0.19830
     Eigenvalues ---    0.20430   0.21794   0.30699   0.33449   0.33680
     Eigenvalues ---    0.34067   0.34668   0.34964   0.41497   0.43027
     Eigenvalues ---    0.73487   0.75985
 Angle between quadratic step and forces=  57.78 degrees.
 Linear search not attempted -- first point.
 Iteration  1 RMS(Cart)=  0.00025363 RMS(Int)=  0.00000005
 Iteration  2 RMS(Cart)=  0.00000006 RMS(Int)=  0.00000001
 ITry= 1 IFail=0 DXMaxC= 6.11D-04 DCOld= 1.00D+10 DXMaxT= 3.00D-01 DXLimC= 3.00D+00 Rises=F
 Variable       Old X    -DE/DX   Delta X   Delta X   Delta X     New X
                                 (Linear)    (Quad)   (Total)
    R1        2.85189  -0.00006   0.00000  -0.00022  -0.00022   2.85167
    R2        2.06510  -0.00000   0.00000  -0.00001  -0.00001   2.06509
    R3        2.07222  -0.00001   0.00000  -0.00001  -0.00001   2.07222
    R4        2.07223  -0.00001   0.00000  -0.00001  -0.00001   2.07222
    R5        2.41192   0.00006   0.00000   0.00008   0.00008   2.41201
    R6        2.85102  -0.00006   0.00000  -0.00021  -0.00021   2.85081
    R7        1.93443  -0.00000   0.00000  -0.00003  -0.00003   1.93440
    R8        2.40137   0.00007   0.00000   0.00007   0.00007   2.40144
    R9        2.06994  -0.00003   0.00000  -0.00009  -0.00009   2.06985
   R10        1.94796   0.00003   0.00000   0.00003   0.00003   1.94799
    A1        1.94900   0.00001   0.00000   0.00009   0.00009   1.94909
    A2        1.92803  -0.00000   0.00000   0.00001   0.00001   1.92804
    A3        1.92798   0.00000   0.00000   0.00006   0.00006   1.92804
    A4        1.89689  -0.00000   0.00000  -0.00006  -0.00006   1.89683
    A5        1.89688  -0.00001   0.00000  -0.00005  -0.00005   1.89683
    A6        1.86260  -0.00000   0.00000  -0.00007  -0.00007   1.86254
    A7        2.21504  -0.00002   0.00000  -0.00012  -0.00012   2.21492
    A8        2.02610   0.00003   0.00000   0.00017   0.00017   2.02628
    A9        2.04204  -0.00001   0.00000  -0.00005  -0.00005   2.04198
   A10        1.94127   0.00007   0.00000   0.00035   0.00035   1.94162
   A11        2.18586  -0.00002   0.00000  -0.00005  -0.00005   2.18581
   A12        2.03001   0.00001   0.00000   0.00012   0.00012   2.03013
   A13        2.06732   0.00001   0.00000  -0.00007  -0.00007   2.06725
   A14        1.88200   0.00011   0.00000   0.00049   0.00049   1.88249
    D1        0.00042   0.00000   0.00000  -0.00042  -0.00042  -0.00000
    D2       -3.14120  -0.00000   0.00000  -0.00039  -0.00039   3.14159
    D3        2.11367   0.00000   0.00000  -0.00043  -0.00043   2.11324
    D4       -1.02795  -0.00000   0.00000  -0.00040  -0.00040  -1.02835
    D5       -2.11278  -0.00000   0.00000  -0.00046  -0.00046  -2.11324
    D6        1.02879  -0.00000   0.00000  -0.00043  -0.00043   1.02835
    D7       -0.00003   0.00000   0.00000   0.00003   0.00003   0.00000
    D8       -3.14159   0.00000   0.00000  -0.00000  -0.00000   3.14159
    D9       -3.14135  -0.00001   0.00000  -0.00024  -0.00024   3.14159
   D10       -0.00010   0.00001   0.00000   0.00010   0.00010  -0.00000
   D11        0.00022  -0.00001   0.00000  -0.00022  -0.00022  -0.00000
   D12        3.14146   0.00001   0.00000   0.00013   0.00013  -3.14159
   D13       -0.00035   0.00002   0.00000   0.00035   0.00035   0.00000
   D14        3.14159   0.00000   0.00000   0.00000   0.00000   3.14159
         Item               Value     Threshold  Converged?
 Maximum Force            0.000112     0.000450     YES
 RMS     Force            0.000032     0.000300     YES
 Maximum Displacement     0.000611     0.001800     YES
 RMS     Displacement     0.000254     0.001200     YES
 Predicted change in Energy=-7.174900D-08
 Optimization completed.
    -- Stationary point found.
                           ----------------------------
                           !   Optimized Parameters   !
                           ! (Angstroms and Degrees)  !
 --------------------------                            --------------------------
 ! Name  Definition              Value          Derivative Info.                !
 --------------------------------------------------------------------------------
 ! R1    R(1,2)                  1.5092         -DE/DX =   -0.0001              !
 ! R2    R(1,6)                  1.0928         -DE/DX =    0.0                 !
 ! R3    R(1,7)                  1.0966         -DE/DX =    0.0                 !
 ! R4    R(1,8)                  1.0966         -DE/DX =    0.0                 !
 ! R5    R(2,3)                  1.2763         -DE/DX =    0.0001              !
 ! R6    R(2,4)                  1.5087         -DE/DX =   -0.0001              !
 ! R7    R(3,9)                  1.0237         -DE/DX =    0.0                 !
 ! R8    R(4,5)                  1.2707         -DE/DX =    0.0001              !
 ! R9    R(4,10)                 1.0954         -DE/DX =    0.0                 !
 ! R10   R(5,11)                 1.0308         -DE/DX =    0.0                 !
 ! A1    A(2,1,6)              111.6696         -DE/DX =    0.0                 !
 ! A2    A(2,1,7)              110.4677         -DE/DX =    0.0                 !
 ! A3    A(2,1,8)              110.4649         -DE/DX =    0.0                 !
 ! A4    A(6,1,7)              108.6839         -DE/DX =    0.0                 !
 ! A5    A(6,1,8)              108.6832         -DE/DX =    0.0                 !
 ! A6    A(7,1,8)              106.7192         -DE/DX =    0.0                 !
 ! A7    A(1,2,3)              126.9126         -DE/DX =    0.0                 !
 ! A8    A(1,2,4)              116.0873         -DE/DX =    0.0                 !
 ! A9    A(3,2,4)              117.0002         -DE/DX =    0.0                 !
 ! A10   A(2,3,9)              111.2266         -DE/DX =    0.0001              !
 ! A11   A(2,4,5)              125.2406         -DE/DX =    0.0                 !
 ! A12   A(2,4,10)             116.3107         -DE/DX =    0.0                 !
 ! A13   A(5,4,10)             118.4486         -DE/DX =    0.0                 !
 ! A14   A(4,5,11)             107.8304         -DE/DX =    0.0001              !
 ! D1    D(6,1,2,3)              0.024          -DE/DX =    0.0                 !
 ! D2    D(6,1,2,4)            180.0223         -DE/DX =    0.0                 !
 ! D3    D(7,1,2,3)            121.1043         -DE/DX =    0.0                 !
 ! D4    D(7,1,2,4)            -58.8974         -DE/DX =    0.0                 !
 ! D5    D(8,1,2,3)           -121.0533         -DE/DX =    0.0                 !
 ! D6    D(8,1,2,4)             58.945          -DE/DX =    0.0                 !
 ! D7    D(1,2,3,9)             -0.0016         -DE/DX =    0.0                 !
 ! D8    D(4,2,3,9)            180.0001         -DE/DX =    0.0                 !
 ! D9    D(1,2,4,5)            180.0139         -DE/DX =    0.0                 !
 ! D10   D(1,2,4,10)            -0.0059         -DE/DX =    0.0                 !
 ! D11   D(3,2,4,5)              0.0124         -DE/DX =    0.0                 !
 ! D12   D(3,2,4,10)          -180.0073         -DE/DX =    0.0                 !
 ! D13   D(2,4,5,11)            -0.0202         -DE/DX =    0.0                 !
 ! D14   D(10,4,5,11)          180.0            -DE/DX =    0.0                 !
 --------------------------------------------------------------------------------
 GradGradGradGradGradGradGradGradGradGradGradGradGradGradGradGradGradGrad

 Leave Link  103 at Thu Sep  8 15:07:00 2022, MaxMem= 24159191040 cpu:         1.9
 (Enter /public/home/users/caep010/software/Gaussian09/g09/l9999.exe)
 1\1\GINC-B1531\Freq\RB3LYP\6-31G(d,p)\C3H6N2\ROOT\08-Sep-2022\0\\#P Ge
 om=AllCheck Guess=TCheck SCRF=Check GenChk RB3LYP/6-31G(d,p) Freq\\Fra
 g_688\\0,1\C,-1.3810121419,-0.2972274758,-0.1461540584\C,0.0219888598,
 0.2583723561,-0.124929631\N,0.4110717783,1.376281233,-0.6023441273\C,1
 .068362833,-0.6069909661,0.5326520919\N,2.2987273566,-0.3105471118,0.6
 472272225\H,-2.0780670529,0.3856942221,-0.6380425487\H,-1.4041651379,-
 1.2603012651,-0.670011618\H,-1.7345621057,-0.4848563943,0.8747659625\H
 ,-0.3669190315,1.8893224869,-1.0258898435\H,0.7221417369,-1.5636646778
 ,0.9385196158\H,2.4423319053,0.6138175927,0.2142079343\\Version=ES64L-
 G09RevE.01\State=1-A\HF=-227.4084057\RMSD=2.571e-09\RMSF=4.049e-05\Zer
 oPoint=0.0912332\Thermal=0.0969145\Dipole=-1.4295711,-0.0562764,-0.277
 4316\DipoleDeriv=-0.1732599,-0.1409834,0.007462,-0.1112968,-0.0133521,
 0.0445043,-0.007357,0.0382179,0.1020521,0.6675747,0.1503619,0.0386071,
 0.0904647,0.3427684,-0.0853603,0.0686346,-0.0725809,0.1850588,-0.42512
 05,-0.2023729,0.0996358,-0.0366983,-0.6337194,0.1010863,0.0166004,0.06
 56615,-0.4459059,0.1691127,0.0982727,-0.0183049,-0.0652479,0.4216483,-
 0.2133402,0.0637055,-0.1783928,0.1271369,-0.6476187,-0.0185019,-0.0387
 631,0.1115875,-0.3027941,-0.0362882,-0.1040918,-0.0641126,-0.4127334,-
 0.0288677,0.0258434,-0.0339705,0.0862511,-0.0248125,0.0656782,-0.06429
 08,0.0527363,0.0290751,0.037675,-0.0017569,0.0303352,-0.0074929,-0.048
 8879,-0.0689506,-0.0118116,-0.0757839,0.0522033,0.0332437,-0.0425946,0
 .0182917,-0.0108428,0.079155,0.0235175,0.0473587,0.0247716,-0.0713993,
 0.0305339,0.183321,-0.1342694,0.0602447,0.2230864,0.0156637,-0.0725685
 ,0.0419716,0.192083,-0.0006361,-0.0724321,0.0218341,-0.0513503,-0.1054
 725,0.0755943,0.0112873,0.0711276,0.0339202,0.337363,0.020843,0.009142
 ,-0.065619,0.0623804,0.0778949,0.0525332,0.0963836,0.2085092\Polar=52.
 919807,2.7264598,45.6716307,4.6900531,-9.9897817,30.6028303\PG=C01 [X(
 C3H6N2)]\NImag=0\\0.50115122,-0.04626061,0.55823745,0.01662128,-0.0230
 2528,0.54712521,-0.19320274,-0.02441466,-0.01114076,0.54774990,-0.0323
 9983,-0.09774751,0.00005398,0.13326002,0.73588714,-0.00712656,0.001760
 02,-0.08622832,0.01020439,-0.24657885,0.31319175,-0.00872232,-0.040335
 67,0.01078336,-0.15828160,-0.10584978,0.03147394,0.42714519,-0.0156570
 2,-0.01428290,0.02159916,-0.16752808,-0.48471699,0.17856951,0.00636405
 ,0.66412857,-0.00159377,0.01632835,0.02693115,0.06240371,0.19175370,-0
 .14001825,0.07502507,-0.30098713,0.22814995,-0.02474986,0.01405813,-0.
 01398160,-0.13153749,0.01325141,-0.01739638,0.01140871,0.01895145,-0.0
 0610217,0.83208205,-0.00841580,0.01252809,-0.00423264,0.03544552,-0.12
 346797,0.02877824,0.02261377,-0.04133075,0.02330023,0.18225409,0.56418
 199,-0.00271038,0.00056548,0.00680908,-0.02853265,0.02404178,-0.099336
 00,-0.00794052,0.02252060,-0.01749353,0.05454607,-0.16890734,0.2460823
 4,-0.00058612,0.00636733,-0.00298778,-0.04629924,0.00980162,-0.0219437
 6,-0.00098956,-0.00945246,0.00415144,-0.59207899,-0.11567485,-0.058298
 94,0.70301430,0.00283788,-0.00295786,0.00131228,0.01278662,0.02148120,
 0.00865894,0.00392413,-0.00493026,0.00419574,-0.16260962,-0.13992667,0
 .01112112,0.18387406,0.44916494,-0.00121749,0.00207054,-0.00284703,-0.
 02343358,0.00801245,0.02425561,-0.00255472,0.00133469,0.00055013,-0.03
 476262,0.02116721,-0.06644473,0.04383784,-0.15238044,0.15279873,-0.154
 95093,0.10672543,-0.07646989,-0.02059329,0.02219180,-0.01526661,0.0036
 5313,0.00157131,0.00015957,-0.00364796,-0.00526230,0.00139772,-0.00171
 080,0.00136932,-0.00095257,0.16827727,0.10889574,-0.15684887,0.0779733
 2,-0.00988928,0.00723471,-0.00639165,0.00010484,0.00231693,-0.00152434
 ,-0.00196601,-0.00111944,0.00122555,-0.00070593,0.00057851,-0.00067746
 ,-0.11591173,0.16639912,-0.07756025,0.07751028,-0.10340269,0.00083754,
 0.00047029,-0.00133989,0.00089176,-0.00121200,0.00003186,-0.00025434,0
 .00051997,0.00184408,0.00008987,-0.00023331,-0.00033393,0.08449826,-0.
 08560582,0.10628819,-0.04752430,-0.00296377,-0.00597891,0.00288298,-0.
 02995155,-0.01603502,-0.00589492,0.00110327,0.00451886,0.00009160,0.00
 036242,0.00158982,0.00046441,0.00011616,-0.00048575,0.00062120,0.01701
 415,0.01133419,0.04903624,0.00016701,-0.24837479,-0.11256609,-0.001609
 60,-0.01210804,-0.00350775,-0.00299490,0.00124074,0.00103111,0.0007647
 9,-0.00013917,0.00110528,-0.00075480,0.00023871,-0.00021602,-0.0011410
 3,-0.01572547,-0.00990982,0.00462589,0.26919137,-0.00436901,-0.1116752
 9,-0.10464293,0.00074837,0.00254851,0.00044452,0.00109247,0.00026062,-
 0.00105427,-0.00055930,-0.00094407,0.00069810,0.00037277,0.00045638,-0
 .00016943,0.00148632,0.01420950,0.00792625,0.00221867,0.12250140,0.111
 60670,-0.07505594,-0.01148920,0.07913549,-0.00738652,-0.00543796,0.031
 61303,-0.00367066,-0.00323029,-0.00505002,0.00064906,-0.00145592,-0.00
 101866,0.00026793,0.00067325,0.00020545,0.00757113,0.00218943,-0.01978
 324,0.00014735,0.00067067,-0.00076525,0.07800370,-0.01133223,-0.049699
 83,0.04361140,-0.00507824,-0.00496839,0.01351380,-0.00254767,-0.001847
 67,-0.00296756,0.00109794,0.00027411,-0.00045907,-0.00068361,-0.000163
 17,-0.00003260,-0.00796753,-0.00319178,0.01877657,0.01002066,0.0053301
 6,-0.02781701,0.01662575,0.05328281,0.07586752,0.04201683,-0.27577232,
 0.00042760,0.00131858,0.00357176,0.00009167,-0.00146328,-0.00018516,-0
 .00035058,0.00095660,-0.00027281,0.00046459,-0.00022814,0.00042728,0.0
 0427671,0.00071240,-0.01155830,0.00469141,0.00309031,-0.01495049,-0.08
 550070,-0.04563358,0.29853561,0.00238768,-0.00195724,0.00422067,0.0004
 6250,-0.02015719,0.00924175,-0.26107427,0.16637474,-0.13190873,0.00026
 789,-0.00109823,-0.00290517,0.00053544,0.00164417,-0.00008033,0.000277
 85,0.00037544,-0.00022494,0.00020048,0.00015051,-0.00014309,-0.0005339
 3,-0.00028310,0.00000025,0.25528253,0.00285465,-0.00053240,-0.00552278
 ,0.03431235,-0.02803021,0.02365103,0.11332831,-0.12054639,0.06749909,-
 0.00644538,-0.00153536,0.00763502,-0.00020877,0.00079257,-0.00191961,-
 0.00207233,-0.00011453,-0.00016243,-0.00069345,0.00013861,0.00004161,0
 .00103055,0.00115487,-0.00029486,-0.14417478,0.14963039,0.00180868,-0.
 00655341,-0.00909275,-0.01807238,0.01200759,-0.00537202,-0.10530805,0.
 07883765,-0.09628393,-0.00022673,0.00877758,0.01198789,0.00085025,-0.0
 0152299,-0.00200150,0.00100180,0.00036146,0.00047883,-0.00186674,-0.00
 128797,0.00051241,0.00148929,0.00093626,0.00022966,0.12090777,-0.09188
 614,0.09975846,0.00053330,0.00033048,-0.00000601,0.00804047,0.01554934
 ,-0.00757914,-0.00256179,0.00336418,-0.00249876,-0.07182629,-0.0585164
 7,0.02371503,-0.02067055,-0.03527604,0.01482703,0.00032385,-0.00021019
 ,0.00022570,-0.00023123,-0.00005803,-0.00020367,-0.00035672,0.00008230
 ,0.00010184,0.00005421,0.00135215,-0.00055858,0.09126267,-0.00029034,0
 .00024027,-0.00028987,-0.01052495,-0.00965933,0.00611104,0.00300512,-0
 .00195773,0.00224401,-0.05697892,-0.25360036,0.09222727,-0.01211147,-0
 .00577565,-0.00333449,0.00023927,0.00023324,-0.00018548,0.00042188,0.0
 0025009,0.00040345,0.00071950,-0.00008685,-0.00032595,0.00012285,-0.00
 099496,0.00027304,0.07739308,0.26732728,0.00030500,-0.00015559,-0.0000
 6821,0.00550018,0.01167965,0.00232277,-0.00231890,0.00232162,-0.000423
 66,0.02294727,0.09190822,-0.08664597,0.00320499,-0.00829322,-0.0024147
 4,0.00000020,-0.00028195,-0.00009776,-0.00042353,-0.00022612,-0.000346
 34,-0.00023850,0.00006426,0.00011608,0.00005730,0.00053620,-0.00075856
 ,-0.02524250,-0.10362230,0.07433797,0.00072001,-0.00006021,-0.00019585
 ,-0.00183498,-0.00025787,0.00281435,-0.00101191,-0.00186114,0.00089481
 ,-0.02065875,-0.05025223,0.02015768,-0.04194683,-0.00933993,0.00461674
 ,0.00017853,0.00010355,-0.00005455,0.00020618,0.00017947,0.00012171,0.
 00036460,0.00006573,-0.00007031,0.00213963,0.00071669,-0.00002532,-0.0
 0456793,-0.00199603,-0.00379152,0.06641144,-0.00039946,-0.00056162,0.0
 0108652,0.00324030,-0.00390459,-0.00456433,0.00238781,0.00192645,-0.00
 087320,-0.00237788,-0.01586448,0.00892431,-0.06045112,-0.31850232,0.12
 597574,0.00025779,0.00023758,0.00003175,-0.00005566,-0.00004221,0.0000
 1488,-0.00029577,-0.00008425,-0.00014891,-0.00099718,0.00003740,0.0000
 5692,-0.00401079,0.00402400,0.00606923,0.06270197,0.33273404,-0.000025
 03,0.00115807,0.00118883,0.00105756,-0.00530768,-0.01149194,-0.0012360
 9,-0.00178143,-0.00020429,-0.00385961,-0.00132400,0.00277155,0.0302587
 4,0.13691363,-0.10382038,-0.00013152,-0.00000101,0.00016336,0.00043700
 ,-0.00001434,-0.00002452,-0.00008689,0.00000752,-0.00014130,0.00083451
 ,0.00042287,0.00054151,-0.00278094,0.00649927,0.01397844,-0.02446775,-
 0.13657290,0.09703874\\-0.00005496,-0.00003724,0.00000545,-0.00000081,
 0.00013686,-0.00005114,0.00004114,-0.00003002,0.00002505,0.00011340,0.
 00003868,-0.00003153,-0.00000480,-0.00003244,0.00004063,0.00000473,0.0
 0001000,-0.00000499,-0.00000022,-0.00000552,-0.00000446,-0.00000104,0.
 00000163,0.00000662,-0.00002364,-0.00002668,0.00000726,-0.00001565,-0.
 00002084,0.00001339,-0.00005815,-0.00003443,-0.00000628\\\@


 IF GOD HAD MEANT MAN TO SEE THE SUN RISE, HE
 WOULD HAVE SCHEDULED IT FOR A LATER HOUR.
 Job cpu time:       0 days  0 hours  3 minutes 40.1 seconds.
 File lengths (MBytes):  RWF=     17 Int=      0 D2E=      0 Chk=      2 Scr=      1
 Normal termination of Gaussian 09 at Thu Sep  8 15:07:00 2022.
