 Entering Gaussian System, Link 0=g09
 Input=B3LYP6-31Gdp.Frag_647.gjf
 Output=B3LYP6-31Gdp.Frag_647.log
 Initial command:
 /public/home/users/caep010/software/Gaussian09/g09/l1.exe "/public/home/users/caep010/.cache/gau_scr/Gau-53719.inp" -scrdir="/public/home/users/caep010/.cache/gau_scr/"
 Entering Link 1 = /public/home/users/caep010/software/Gaussian09/g09/l1.exe PID=     53720.
  
 Copyright (c) 1988,1990,1992,1993,1995,1998,2003,2009,2015,
            Gaussian, Inc.  All Rights Reserved.
  
 This is part of the Gaussian(R) 09 program.  It is based on
 the Gaussian(R) 03 system (copyright 2003, Gaussian, Inc.),
 the Gaussian(R) 98 system (copyright 1998, Gaussian, Inc.),
 the Gaussian(R) 94 system (copyright 1995, Gaussian, Inc.),
 the Gaussian 92(TM) system (copyright 1992, Gaussian, Inc.),
 the Gaussian 90(TM) system (copyright 1990, Gaussian, Inc.),
 the Gaussian 88(TM) system (copyright 1988, Gaussian, Inc.),
 the Gaussian 86(TM) system (copyright 1986, Carnegie Mellon
 University), and the Gaussian 82(TM) system (copyright 1983,
 Carnegie Mellon University). Gaussian is a federally registered
 trademark of Gaussian, Inc.
  
 This software contains proprietary and confidential information,
 including trade secrets, belonging to Gaussian, Inc.
  
 This software is provided under written license and may be
 used, copied, transmitted, or stored only in accord with that
 written license.
  
 The following legend is applicable only to US Government
 contracts under FAR:
  
                    RESTRICTED RIGHTS LEGEND
  
 Use, reproduction and disclosure by the US Government is
 subject to restrictions as set forth in subparagraphs (a)
 and (c) of the Commercial Computer Software - Restricted
 Rights clause in FAR 52.227-19.
  
 Gaussian, Inc.
 340 Quinnipiac St., Bldg. 40, Wallingford CT 06492
  
  
 ---------------------------------------------------------------
 Warning -- This program may not be used in any manner that
 competes with the business of Gaussian, Inc. or will provide
 assistance to any competitor of Gaussian, Inc.  The licensee
 of this program is prohibited from giving any competitor of
 Gaussian, Inc. access to this program.  By using this program,
 the user acknowledges that Gaussian, Inc. is engaged in the
 business of creating and licensing software in the field of
 computational chemistry and represents and warrants to the
 licensee that it is not a competitor of Gaussian, Inc. and that
 it will not use this program in any manner prohibited above.
 ---------------------------------------------------------------
  

 Cite this work as:
 Gaussian 09, Revision E.01,
 M. J. Frisch, G. W. Trucks, H. B. Schlegel, G. E. Scuseria, 
 M. A. Robb, J. R. Cheeseman, G. Scalmani, V. Barone, B. Mennucci, 
 G. A. Petersson, H. Nakatsuji, M. Caricato, X. Li, H. P. Hratchian, 
 A. F. Izmaylov, J. Bloino, G. Zheng, J. L. Sonnenberg, M. Hada, 
 M. Ehara, K. Toyota, R. Fukuda, J. Hasegawa, M. Ishida, T. Nakajima, 
 Y. Honda, O. Kitao, H. Nakai, T. Vreven, J. A. Montgomery, Jr., 
 J. E. Peralta, F. Ogliaro, M. Bearpark, J. J. Heyd, E. Brothers, 
 K. N. Kudin, V. N. Staroverov, T. Keith, R. Kobayashi, J. Normand, 
 K. Raghavachari, A. Rendell, J. C. Burant, S. S. Iyengar, J. Tomasi, 
 M. Cossi, N. Rega, J. M. Millam, M. Klene, J. E. Knox, J. B. Cross, 
 V. Bakken, C. Adamo, J. Jaramillo, R. Gomperts, R. E. Stratmann, 
 O. Yazyev, A. J. Austin, R. Cammi, C. Pomelli, J. W. Ochterski, 
 R. L. Martin, K. Morokuma, V. G. Zakrzewski, G. A. Voth, 
 P. Salvador, J. J. Dannenberg, S. Dapprich, A. D. Daniels, 
 O. Farkas, J. B. Foresman, J. V. Ortiz, J. Cioslowski, 
 and D. J. Fox, Gaussian, Inc., Wallingford CT, 2013.
 
 ******************************************
 Gaussian 09:  ES64L-G09RevE.01 30-Nov-2015
                 8-Sep-2022 
 ******************************************
 %nproc=32
 Will use up to   32 processors via shared memory.
 %mem=180GB
 %chk=B3LYP6-31Gdp.Frag_647.chk
 ----------------------------
 #P OPT Freq B3LYP/6-31G(d,p)
 ----------------------------
 1/14=-1,18=20,19=15,26=3,38=1/1,3;
 2/9=110,12=2,17=6,18=5,40=1/2;
 3/5=1,6=6,7=101,11=2,16=1,25=1,30=1,71=1,74=-5/1,2,3;
 4//1;
 5/5=2,38=5/2;
 6/7=2,8=2,9=2,10=2,28=1/1;
 7//1,2,3,16;
 1/14=-1,18=20,19=15,26=3/3(2);
 2/9=110/2;
 99//99;
 2/9=110/2;
 3/5=1,6=6,7=101,11=2,16=1,25=1,30=1,71=1,74=-5/1,2,3;
 4/5=5,16=3,69=1/1;
 5/5=2,38=5/2;
 7//1,2,3,16;
 1/14=-1,18=20,19=15,26=3/3(-5);
 2/9=110/2;
 6/7=2,8=2,9=2,10=2,19=2,28=1/1;
 99/9=1/99;
 Leave Link    1 at Thu Sep  8 15:15:55 2022, MaxMem= 24159191040 cpu:         2.0
 (Enter /public/home/users/caep010/software/Gaussian09/g09/l101.exe)
 --------
 Frag_647
 --------
 Symbolic Z-matrix:
 Charge =  0 Multiplicity = 1
 C                    -0.981    -0.83282   0.88417 
 C                    -0.43951   0.24657  -0.06672 
 N                    -0.49334  -0.24837  -1.43434 
 O                    -1.16778   1.44467   0.09526 
 C                     1.0335    0.55988   0.30892 
 N                     1.94833  -0.29363  -0.19803 
 O                     1.28682   1.50007   1.04639 
 H                    -0.87168  -0.5       1.91882 
 H                    -0.45631  -1.78301   0.75613 
 H                    -2.04748  -0.97888   0.68533 
 H                    -1.42076  -0.61972  -1.62061 
 H                    -0.37111   0.53975  -2.06592 
 H                    -0.60178   2.00304   0.65541 
 H                     1.65628  -0.91537  -0.93573 
 H                     2.92583  -0.12209  -0.02909 
 
 NAtoms=     15 NQM=       15 NQMF=       0 NMMI=      0 NMMIF=      0
                NMic=       0 NMicF=      0.
                    Isotopes and Nuclear Properties:
 (Nuclear quadrupole moments (NQMom) in fm**2, nuclear magnetic moments (NMagM)
  in nuclear magnetons)

  Atom         1           2           3           4           5           6           7           8           9          10
 IAtWgt=          12          12          14          16          12          14          16           1           1           1
 AtmWgt=  12.0000000  12.0000000  14.0030740  15.9949146  12.0000000  14.0030740  15.9949146   1.0078250   1.0078250   1.0078250
 NucSpn=           0           0           2           0           0           2           0           1           1           1
 AtZEff=   0.0000000   0.0000000   0.0000000   0.0000000   0.0000000   0.0000000   0.0000000   0.0000000   0.0000000   0.0000000
 NQMom=    0.0000000   0.0000000   2.0440000   0.0000000   0.0000000   2.0440000   0.0000000   0.0000000   0.0000000   0.0000000
 NMagM=    0.0000000   0.0000000   0.4037610   0.0000000   0.0000000   0.4037610   0.0000000   2.7928460   2.7928460   2.7928460
 AtZNuc=   6.0000000   6.0000000   7.0000000   8.0000000   6.0000000   7.0000000   8.0000000   1.0000000   1.0000000   1.0000000

  Atom        11          12          13          14          15
 IAtWgt=           1           1           1           1           1
 AtmWgt=   1.0078250   1.0078250   1.0078250   1.0078250   1.0078250
 NucSpn=           1           1           1           1           1
 AtZEff=   0.0000000   0.0000000   0.0000000   0.0000000   0.0000000
 NQMom=    0.0000000   0.0000000   0.0000000   0.0000000   0.0000000
 NMagM=    2.7928460   2.7928460   2.7928460   2.7928460   2.7928460
 AtZNuc=   1.0000000   1.0000000   1.0000000   1.0000000   1.0000000
 Leave Link  101 at Thu Sep  8 15:15:56 2022, MaxMem= 24159191040 cpu:        10.5
 (Enter /public/home/users/caep010/software/Gaussian09/g09/l103.exe)

 GradGradGradGradGradGradGradGradGradGradGradGradGradGradGradGradGradGrad
 Berny optimization.
 Initialization pass.
                           ----------------------------
                           !    Initial Parameters    !
                           ! (Angstroms and Degrees)  !
 --------------------------                            --------------------------
 ! Name  Definition              Value          Derivative Info.                !
 --------------------------------------------------------------------------------
 ! R1    R(1,2)                  1.537          estimate D2E/DX2                !
 ! R2    R(1,8)                  1.0924         estimate D2E/DX2                !
 ! R3    R(1,9)                  1.093          estimate D2E/DX2                !
 ! R4    R(1,10)                 1.0946         estimate D2E/DX2                !
 ! R5    R(2,3)                  1.4554         estimate D2E/DX2                !
 ! R6    R(2,4)                  1.4114         estimate D2E/DX2                !
 ! R7    R(2,5)                  1.5521         estimate D2E/DX2                !
 ! R8    R(3,11)                 1.0162         estimate D2E/DX2                !
 ! R9    R(3,12)                 1.0173         estimate D2E/DX2                !
 ! R10   R(4,13)                 0.9726         estimate D2E/DX2                !
 ! R11   R(5,6)                  1.35           estimate D2E/DX2                !
 ! R12   R(5,7)                  1.2215         estimate D2E/DX2                !
 ! R13   R(6,14)                 1.008          estimate D2E/DX2                !
 ! R14   R(6,15)                 1.0067         estimate D2E/DX2                !
 ! A1    A(2,1,8)              109.6791         estimate D2E/DX2                !
 ! A2    A(2,1,9)              111.6493         estimate D2E/DX2                !
 ! A3    A(2,1,10)             108.9391         estimate D2E/DX2                !
 ! A4    A(8,1,9)              109.1348         estimate D2E/DX2                !
 ! A5    A(8,1,10)             108.072          estimate D2E/DX2                !
 ! A6    A(9,1,10)             109.295          estimate D2E/DX2                !
 ! A7    A(1,2,3)              109.2376         estimate D2E/DX2                !
 ! A8    A(1,2,4)              110.0804         estimate D2E/DX2                !
 ! A9    A(1,2,5)              109.0489         estimate D2E/DX2                !
 ! A10   A(3,2,4)              112.1744         estimate D2E/DX2                !
 ! A11   A(3,2,5)              109.3399         estimate D2E/DX2                !
 ! A12   A(4,2,5)              106.892          estimate D2E/DX2                !
 ! A13   A(2,3,11)             109.2847         estimate D2E/DX2                !
 ! A14   A(2,3,12)             108.3896         estimate D2E/DX2                !
 ! A15   A(11,3,12)            106.1977         estimate D2E/DX2                !
 ! A16   A(2,4,13)             104.6647         estimate D2E/DX2                !
 ! A17   A(2,5,6)              115.1271         estimate D2E/DX2                !
 ! A18   A(2,5,7)              119.8888         estimate D2E/DX2                !
 ! A19   A(6,5,7)              124.9485         estimate D2E/DX2                !
 ! A20   A(5,6,14)             117.9342         estimate D2E/DX2                !
 ! A21   A(5,6,15)             119.1598         estimate D2E/DX2                !
 ! A22   A(14,6,15)            120.6143         estimate D2E/DX2                !
 ! D1    D(8,1,2,3)            175.6046         estimate D2E/DX2                !
 ! D2    D(8,1,2,4)            -60.8092         estimate D2E/DX2                !
 ! D3    D(8,1,2,5)             56.1605         estimate D2E/DX2                !
 ! D4    D(9,1,2,3)             54.5067         estimate D2E/DX2                !
 ! D5    D(9,1,2,4)            178.093          estimate D2E/DX2                !
 ! D6    D(9,1,2,5)            -64.9373         estimate D2E/DX2                !
 ! D7    D(10,1,2,3)           -66.2942         estimate D2E/DX2                !
 ! D8    D(10,1,2,4)            57.292          estimate D2E/DX2                !
 ! D9    D(10,1,2,5)           174.2618         estimate D2E/DX2                !
 ! D10   D(1,2,3,11)            49.94           estimate D2E/DX2                !
 ! D11   D(1,2,3,12)           165.2658         estimate D2E/DX2                !
 ! D12   D(4,2,3,11)           -72.3984         estimate D2E/DX2                !
 ! D13   D(4,2,3,12)            42.9274         estimate D2E/DX2                !
 ! D14   D(5,2,3,11)           169.2039         estimate D2E/DX2                !
 ! D15   D(5,2,3,12)           -75.4703         estimate D2E/DX2                !
 ! D16   D(1,2,4,13)           100.4606         estimate D2E/DX2                !
 ! D17   D(3,2,4,13)          -137.681          estimate D2E/DX2                !
 ! D18   D(5,2,4,13)           -17.8453         estimate D2E/DX2                !
 ! D19   D(1,2,5,6)             82.5125         estimate D2E/DX2                !
 ! D20   D(1,2,5,7)            -95.4229         estimate D2E/DX2                !
 ! D21   D(3,2,5,6)            -36.868          estimate D2E/DX2                !
 ! D22   D(3,2,5,7)            145.1966         estimate D2E/DX2                !
 ! D23   D(4,2,5,6)           -158.5104         estimate D2E/DX2                !
 ! D24   D(4,2,5,7)             23.5542         estimate D2E/DX2                !
 ! D25   D(2,5,6,14)            14.1748         estimate D2E/DX2                !
 ! D26   D(2,5,6,15)           177.1002         estimate D2E/DX2                !
 ! D27   D(7,5,6,14)          -168.0091         estimate D2E/DX2                !
 ! D28   D(7,5,6,15)            -5.0836         estimate D2E/DX2                !
 --------------------------------------------------------------------------------
 Trust Radius=3.00D-01 FncErr=1.00D-07 GrdErr=1.00D-06
 Number of steps in this run=     74 maximum allowed number of steps=    100.
 GradGradGradGradGradGradGradGradGradGradGradGradGradGradGradGradGradGrad

 Leave Link  103 at Thu Sep  8 15:15:56 2022, MaxMem= 24159191040 cpu:         0.4
 (Enter /public/home/users/caep010/software/Gaussian09/g09/l202.exe)
                          Input orientation:                          
 ---------------------------------------------------------------------
 Center     Atomic      Atomic             Coordinates (Angstroms)
 Number     Number       Type             X           Y           Z
 ---------------------------------------------------------------------
      1          6           0       -0.981003   -0.832817    0.884165
      2          6           0       -0.439507    0.246570   -0.066722
      3          7           0       -0.493343   -0.248365   -1.434340
      4          8           0       -1.167780    1.444670    0.095259
      5          6           0        1.033499    0.559875    0.308921
      6          7           0        1.948332   -0.293634   -0.198034
      7          8           0        1.286820    1.500066    1.046391
      8          1           0       -0.871679   -0.499997    1.918824
      9          1           0       -0.456312   -1.783006    0.756134
     10          1           0       -2.047482   -0.978879    0.685328
     11          1           0       -1.420763   -0.619716   -1.620608
     12          1           0       -0.371106    0.539752   -2.065916
     13          1           0       -0.601782    2.003039    0.655410
     14          1           0        1.656276   -0.915372   -0.935727
     15          1           0        2.925830   -0.122088   -0.029087
 ---------------------------------------------------------------------
                    Distance matrix (angstroms):
                    1          2          3          4          5
     1  C    0.000000
     2  C    1.537036   0.000000
     3  N    2.440259   1.455417   0.000000
     4  O    2.417479   1.411405   2.379266   0.000000
     5  C    2.515694   1.552100   2.454273   2.382046   0.000000
     6  N    3.169050   2.451701   2.737203   3.580206   1.349963
     7  O    3.257558   2.406341   3.518525   2.633018   1.221472
     8  H    1.092355   2.164839   3.383809   2.682311   2.710133
     9  H    1.092955   2.190103   2.674822   3.370584   2.812228
    10  H    1.094645   2.157055   2.728001   2.644929   3.464374
    11  H    2.551997   2.031718   1.016221   2.696273   3.337352
    12  H    3.310423   2.021735   1.017329   2.474721   2.759198
    13  H    2.870229   1.906041   3.073700   0.972573   2.208375
    14  H    3.205318   2.549036   2.305293   3.822044   2.028140
    15  H    4.074618   3.385678   3.698841   4.384956   2.039667
                    6          7          8          9         10
     6  N    0.000000
     7  O    2.281129   0.000000
     8  H    3.532157   3.069285   0.000000
     9  H    2.985126   3.728447   1.780587   0.000000
    10  H    4.149267   4.170504   1.770128   1.784224   0.000000
    11  H    3.671627   4.351708   3.583770   2.816436   2.416426
    12  H    3.092460   3.654774   4.148470   3.656013   3.561716
    13  H    3.536404   1.993155   2.816780   3.790177   3.314028
    14  H    1.007991   3.146368   3.835564   2.842219   4.043473
    15  H    1.006714   2.544482   4.284653   3.848910   5.096892
                   11         12         13         14         15
    11  H    0.000000
    12  H    1.626175   0.000000
    13  H    3.567889   3.098392   0.000000
    14  H    3.166172   2.739524   4.018416   0.000000
    15  H    4.655475   3.931474   4.174775   1.750161   0.000000
 Stoichiometry    C3H8N2O2
 Framework group  C1[X(C3H8N2O2)]
 Deg. of freedom    39
 Full point group                 C1      NOp   1
 Largest Abelian subgroup         C1      NOp   1
 Largest concise Abelian subgroup C1      NOp   1
                         Standard orientation:                         
 ---------------------------------------------------------------------
 Center     Atomic      Atomic             Coordinates (Angstroms)
 Number     Number       Type             X           Y           Z
 ---------------------------------------------------------------------
      1          6           0       -1.136972   -0.131235    1.380024
      2          6           0       -0.592218    0.015842   -0.049693
      3          7           0       -0.973315   -1.151749   -0.830548
      4          8           0       -1.059241    1.217066   -0.625031
      5          6           0        0.955767    0.114290    0.005661
      6          7           0        1.602620   -1.067510    0.091266
      7          8           0        1.496284    1.209654    0.009019
      8          1           0       -0.789504    0.702976    1.993700
      9          1           0       -0.817731   -1.070610    1.838512
     10          1           0       -2.230645   -0.097338    1.348747
     11          1           0       -1.969495   -1.319148   -0.719609
     12          1           0       -0.828980   -0.940433   -1.815165
     13          1           0       -0.314119    1.836416   -0.540777
     14          1           0        1.080260   -1.907012   -0.104751
     15          1           0        2.609276   -1.077187    0.086461
 ---------------------------------------------------------------------
 Rotational constants (GHZ):      3.4484963      2.4664244      2.0449657
 Leave Link  202 at Thu Sep  8 15:15:56 2022, MaxMem= 24159191040 cpu:         0.4
 (Enter /public/home/users/caep010/software/Gaussian09/g09/l301.exe)
 Standard basis: 6-31G(d,p) (6D, 7F)
 Ernie: Thresh=  0.10000D-02 Tol=  0.10000D-05 Strict=F.
 There are   145 symmetry adapted cartesian basis functions of A   symmetry.
 There are   145 symmetry adapted basis functions of A   symmetry.
   145 basis functions,   252 primitive gaussians,   145 cartesian basis functions
    28 alpha electrons       28 beta electrons
       nuclear repulsion energy       334.7075868516 Hartrees.
 IExCor=  402 DFT=T Ex+Corr=B3LYP ExCW=0 ScaHFX=  0.200000
 ScaDFX=  0.800000  0.720000  1.000000  0.810000 ScalE2=  1.000000  1.000000
 IRadAn=      0 IRanWt=     -1 IRanGd=            0 ICorTp=0 IEmpDi=  4
 NAtoms=   15 NActive=   15 NUniq=   15 SFac= 1.00D+00 NAtFMM=   60 NAOKFM=F Big=F
 Integral buffers will be    131072 words long.
 Raffenetti 2 integral format.
 Two-electron integral symmetry is turned on.
 Leave Link  301 at Thu Sep  8 15:15:56 2022, MaxMem= 24159191040 cpu:         1.7
 (Enter /public/home/users/caep010/software/Gaussian09/g09/l302.exe)
 NPDir=0 NMtPBC=     1 NCelOv=     1 NCel=       1 NClECP=     1 NCelD=      1
         NCelK=      1 NCelE2=     1 NClLst=     1 CellRange=     0.0.
 One-electron integrals computed using PRISM.
 NBasis=   145 RedAO= T EigKep=  2.19D-03  NBF=   145
 NBsUse=   145 1.00D-06 EigRej= -1.00D+00 NBFU=   145
 Precomputing XC quadrature grid using
 IXCGrd= 4 IRadAn=           0 IRanWt=          -1 IRanGd=           0 AccXCQ= 0.00D+00.
 Generated NRdTot=       0 NPtTot=           0 NUsed=           0 NTot=          32
 NSgBfM=   145   145   145   145   145 MxSgAt=    15 MxSgA2=    15.
 Leave Link  302 at Thu Sep  8 15:15:56 2022, MaxMem= 24159191040 cpu:        11.1
 (Enter /public/home/users/caep010/software/Gaussian09/g09/l303.exe)
 DipDrv:  MaxL=1.
 Leave Link  303 at Thu Sep  8 15:15:56 2022, MaxMem= 24159191040 cpu:         0.7
 (Enter /public/home/users/caep010/software/Gaussian09/g09/l401.exe)
 ExpMin= 1.61D-01 ExpMax= 5.48D+03 ExpMxC= 8.25D+02 IAcc=1 IRadAn=         1 AccDes= 0.00D+00
 Harris functional with IExCor=  402 and IRadAn=       1 diagonalized for initial guess.
 HarFok:  IExCor=  402 AccDes= 0.00D+00 IRadAn=         1 IDoV= 1 UseB2=F ITyADJ=14
 ICtDFT=  3500011 ScaDFX=  1.000000  1.000000  1.000000  1.000000
 FoFCou: FMM=F IPFlag=           0 FMFlag=      100000 FMFlg1=           0
         NFxFlg=           0 DoJE=T BraDBF=F KetDBF=T FulRan=T
         wScrn=  0.000000 ICntrl=     500 IOpCl=  0 I1Cent=   200000004 NGrid=           0
         NMat0=    1 NMatS0=      1 NMatT0=    0 NMatD0=    1 NMtDS0=    0 NMtDT0=    0
 Petite list used in FoFCou.
 Harris En= -379.149191307269    
 JPrj=0 DoOrth=F DoCkMO=F.
 Leave Link  401 at Thu Sep  8 15:15:57 2022, MaxMem= 24159191040 cpu:        10.5
 (Enter /public/home/users/caep010/software/Gaussian09/g09/l502.exe)
 Closed shell SCF:
 Using DIIS extrapolation, IDIIS=  1040.
 Integral symmetry usage will be decided dynamically.
 Keep R1 ints in memory in canonical form, NReq=57669762.
 IVT=       87362 IEndB=       87362 NGot= 24159191040 MDV= 24103077274
 LenX= 24103077274 LenY= 24103055808
 Requested convergence on RMS density matrix=1.00D-08 within 128 cycles.
 Requested convergence on MAX density matrix=1.00D-06.
 Requested convergence on             energy=1.00D-06.
 No special actions if energy rises.
 FoFCou: FMM=F IPFlag=           0 FMFlag=           0 FMFlg1=           0
         NFxFlg=           0 DoJE=F BraDBF=F KetDBF=F FulRan=T
         wScrn=  0.000000 ICntrl=     600 IOpCl=  0 I1Cent=           0 NGrid=           0
         NMat0=    1 NMatS0=  10585 NMatT0=    0 NMatD0=    1 NMtDS0=    0 NMtDT0=    0
 Symmetry not used in FoFCou.
 Integral accuracy reduced to 1.0D-05 until final iterations.

 Cycle   1  Pass 0  IDiag  1:
 E= -378.876279136279    
 DIIS: error= 2.23D-02 at cycle   1 NSaved=   1.
 NSaved= 1 IEnMin= 1 EnMin= -378.876279136279     IErMin= 1 ErrMin= 2.23D-02
 ErrMax= 2.23D-02  0.00D+00 EMaxC= 1.00D-01 BMatC= 3.01D-01 BMatP= 3.01D-01
 IDIUse=3 WtCom= 7.77D-01 WtEn= 2.23D-01
 Coeff-Com:  0.100D+01
 Coeff-En:   0.100D+01
 Coeff:      0.100D+01
 Gap=     0.197 Goal=   None    Shift=    0.000
 GapD=    0.197 DampG=1.000 DampE=0.500 DampFc=0.5000 IDamp=-1.
 Damping current iteration by 5.00D-01
 RMSDP=7.80D-03 MaxDP=1.99D-01              OVMax= 2.28D-01

 Cycle   2  Pass 0  IDiag  1:
 E= -378.959607262384     Delta-E=       -0.083328126105 Rises=F Damp=T
 DIIS: error= 8.55D-03 at cycle   2 NSaved=   2.
 NSaved= 2 IEnMin= 2 EnMin= -378.959607262384     IErMin= 2 ErrMin= 8.55D-03
 ErrMax= 8.55D-03  0.00D+00 EMaxC= 1.00D-01 BMatC= 2.92D-02 BMatP= 3.01D-01
 IDIUse=3 WtCom= 9.14D-01 WtEn= 8.55D-02
 Coeff-Com:  0.180D+00 0.820D+00
 Coeff-En:   0.288D+00 0.712D+00
 Coeff:      0.189D+00 0.811D+00
 Gap=     0.271 Goal=   None    Shift=    0.000
 RMSDP=1.98D-03 MaxDP=5.19D-02 DE=-8.33D-02 OVMax= 1.51D-01

 Cycle   3  Pass 0  IDiag  1:
 E= -379.098571941523     Delta-E=       -0.138964679139 Rises=F Damp=F
 DIIS: error= 1.37D-02 at cycle   3 NSaved=   3.
 NSaved= 3 IEnMin= 3 EnMin= -379.098571941523     IErMin= 2 ErrMin= 8.55D-03
 ErrMax= 1.37D-02  0.00D+00 EMaxC= 1.00D-01 BMatC= 2.78D-02 BMatP= 2.92D-02
 IDIUse=3 WtCom= 8.63D-01 WtEn= 1.37D-01
 Coeff-Com:  0.782D-01 0.499D+00 0.422D+00
 Coeff-En:   0.000D+00 0.000D+00 0.100D+01
 Coeff:      0.675D-01 0.431D+00 0.501D+00
 Gap=     0.268 Goal=   None    Shift=    0.000
 RMSDP=1.41D-03 MaxDP=4.90D-02 DE=-1.39D-01 OVMax= 7.96D-02

 Cycle   4  Pass 0  IDiag  1:
 E= -379.116453394743     Delta-E=       -0.017881453220 Rises=F Damp=F
 DIIS: error= 6.35D-03 at cycle   4 NSaved=   4.
 NSaved= 4 IEnMin= 4 EnMin= -379.116453394743     IErMin= 4 ErrMin= 6.35D-03
 ErrMax= 6.35D-03  0.00D+00 EMaxC= 1.00D-01 BMatC= 6.39D-03 BMatP= 2.78D-02
 IDIUse=3 WtCom= 9.37D-01 WtEn= 6.35D-02
 Coeff-Com:  0.116D-01 0.645D-01 0.323D+00 0.601D+00
 Coeff-En:   0.000D+00 0.000D+00 0.222D+00 0.778D+00
 Coeff:      0.109D-01 0.604D-01 0.316D+00 0.612D+00
 Gap=     0.265 Goal=   None    Shift=    0.000
 RMSDP=5.50D-04 MaxDP=1.86D-02 DE=-1.79D-02 OVMax= 2.94D-02

 Cycle   5  Pass 0  IDiag  1:
 E= -379.121208172072     Delta-E=       -0.004754777330 Rises=F Damp=F
 DIIS: error= 7.89D-04 at cycle   5 NSaved=   5.
 NSaved= 5 IEnMin= 5 EnMin= -379.121208172072     IErMin= 5 ErrMin= 7.89D-04
 ErrMax= 7.89D-04  0.00D+00 EMaxC= 1.00D-01 BMatC= 2.96D-04 BMatP= 6.39D-03
 IDIUse=3 WtCom= 9.92D-01 WtEn= 7.89D-03
 Coeff-Com:  0.194D-02 0.223D-02 0.145D+00 0.345D+00 0.506D+00
 Coeff-En:   0.000D+00 0.000D+00 0.000D+00 0.000D+00 0.100D+01
 Coeff:      0.192D-02 0.221D-02 0.144D+00 0.342D+00 0.510D+00
 Gap=     0.265 Goal=   None    Shift=    0.000
 RMSDP=1.30D-04 MaxDP=2.73D-03 DE=-4.75D-03 OVMax= 5.39D-03

 Cycle   6  Pass 0  IDiag  1:
 E= -379.121466394782     Delta-E=       -0.000258222709 Rises=F Damp=F
 DIIS: error= 1.19D-04 at cycle   6 NSaved=   6.
 NSaved= 6 IEnMin= 6 EnMin= -379.121466394782     IErMin= 6 ErrMin= 1.19D-04
 ErrMax= 1.19D-04  0.00D+00 EMaxC= 1.00D-01 BMatC= 7.56D-06 BMatP= 2.96D-04
 IDIUse=3 WtCom= 9.99D-01 WtEn= 1.19D-03
 Coeff-Com:  0.136D-03-0.262D-02 0.383D-01 0.968D-01 0.213D+00 0.654D+00
 Coeff-En:   0.000D+00 0.000D+00 0.000D+00 0.000D+00 0.000D+00 0.100D+01
 Coeff:      0.136D-03-0.261D-02 0.383D-01 0.967D-01 0.213D+00 0.655D+00
 Gap=     0.265 Goal=   None    Shift=    0.000
 RMSDP=1.95D-05 MaxDP=4.59D-04 DE=-2.58D-04 OVMax= 5.25D-04

 Cycle   7  Pass 0  IDiag  1:
 E= -379.121472128709     Delta-E=       -0.000005733927 Rises=F Damp=F
 DIIS: error= 4.94D-05 at cycle   7 NSaved=   7.
 NSaved= 7 IEnMin= 7 EnMin= -379.121472128709     IErMin= 7 ErrMin= 4.94D-05
 ErrMax= 4.94D-05  0.00D+00 EMaxC= 1.00D-01 BMatC= 8.15D-07 BMatP= 7.56D-06
 IDIUse=1 WtCom= 1.00D+00 WtEn= 0.00D+00
 Coeff-Com: -0.524D-05-0.139D-02 0.115D-01 0.293D-01 0.839D-01 0.339D+00
 Coeff-Com:  0.538D+00
 Coeff:     -0.524D-05-0.139D-02 0.115D-01 0.293D-01 0.839D-01 0.339D+00
 Coeff:      0.538D+00
 Gap=     0.264 Goal=   None    Shift=    0.000
 RMSDP=6.60D-06 MaxDP=1.47D-04 DE=-5.73D-06 OVMax= 2.03D-04

 Initial convergence to 1.0D-05 achieved.  Increase integral accuracy.
 Cycle   8  Pass 1  IDiag  1:
 E= -379.121463186028     Delta-E=        0.000008942681 Rises=F Damp=F
 DIIS: error= 1.23D-05 at cycle   1 NSaved=   1.
 NSaved= 1 IEnMin= 1 EnMin= -379.121463186028     IErMin= 1 ErrMin= 1.23D-05
 ErrMax= 1.23D-05  0.00D+00 EMaxC= 1.00D-01 BMatC= 6.64D-08 BMatP= 6.64D-08
 IDIUse=1 WtCom= 1.00D+00 WtEn= 0.00D+00
 Coeff-Com:  0.100D+01
 Coeff:      0.100D+01
 Gap=     0.264 Goal=   None    Shift=    0.000
 RMSDP=6.60D-06 MaxDP=1.47D-04 DE= 8.94D-06 OVMax= 8.11D-05

 Cycle   9  Pass 1  IDiag  1:
 E= -379.121463199849     Delta-E=       -0.000000013821 Rises=F Damp=F
 DIIS: error= 1.66D-05 at cycle   2 NSaved=   2.
 NSaved= 2 IEnMin= 2 EnMin= -379.121463199849     IErMin= 1 ErrMin= 1.23D-05
 ErrMax= 1.66D-05  0.00D+00 EMaxC= 1.00D-01 BMatC= 7.13D-08 BMatP= 6.64D-08
 IDIUse=1 WtCom= 1.00D+00 WtEn= 0.00D+00
 Coeff-Com:  0.511D+00 0.489D+00
 Coeff:      0.511D+00 0.489D+00
 Gap=     0.264 Goal=   None    Shift=    0.000
 RMSDP=1.95D-06 MaxDP=4.89D-05 DE=-1.38D-08 OVMax= 6.07D-05

 Cycle  10  Pass 1  IDiag  1:
 E= -379.121463248959     Delta-E=       -0.000000049110 Rises=F Damp=F
 DIIS: error= 5.20D-06 at cycle   3 NSaved=   3.
 NSaved= 3 IEnMin= 3 EnMin= -379.121463248959     IErMin= 3 ErrMin= 5.20D-06
 ErrMax= 5.20D-06  0.00D+00 EMaxC= 1.00D-01 BMatC= 8.03D-09 BMatP= 6.64D-08
 IDIUse=1 WtCom= 1.00D+00 WtEn= 0.00D+00
 Coeff-Com:  0.352D-01 0.248D+00 0.717D+00
 Coeff:      0.352D-01 0.248D+00 0.717D+00
 Gap=     0.264 Goal=   None    Shift=    0.000
 RMSDP=7.17D-07 MaxDP=2.50D-05 DE=-4.91D-08 OVMax= 3.17D-05

 Cycle  11  Pass 1  IDiag  1:
 E= -379.121463253258     Delta-E=       -0.000000004300 Rises=F Damp=F
 DIIS: error= 3.71D-06 at cycle   4 NSaved=   4.
 NSaved= 4 IEnMin= 4 EnMin= -379.121463253258     IErMin= 4 ErrMin= 3.71D-06
 ErrMax= 3.71D-06  0.00D+00 EMaxC= 1.00D-01 BMatC= 2.36D-09 BMatP= 8.03D-09
 IDIUse=1 WtCom= 1.00D+00 WtEn= 0.00D+00
 Coeff-Com: -0.100D-01 0.133D+00 0.477D+00 0.401D+00
 Coeff:     -0.100D-01 0.133D+00 0.477D+00 0.401D+00
 Gap=     0.264 Goal=   None    Shift=    0.000
 RMSDP=3.28D-07 MaxDP=1.19D-05 DE=-4.30D-09 OVMax= 1.55D-05

 Cycle  12  Pass 1  IDiag  1:
 E= -379.121463255035     Delta-E=       -0.000000001777 Rises=F Damp=F
 DIIS: error= 5.21D-07 at cycle   5 NSaved=   5.
 NSaved= 5 IEnMin= 5 EnMin= -379.121463255035     IErMin= 5 ErrMin= 5.21D-07
 ErrMax= 5.21D-07  0.00D+00 EMaxC= 1.00D-01 BMatC= 6.60D-11 BMatP= 2.36D-09
 IDIUse=1 WtCom= 1.00D+00 WtEn= 0.00D+00
 Coeff-Com: -0.787D-02 0.483D-01 0.186D+00 0.213D+00 0.561D+00
 Coeff:     -0.787D-02 0.483D-01 0.186D+00 0.213D+00 0.561D+00
 Gap=     0.264 Goal=   None    Shift=    0.000
 RMSDP=6.32D-08 MaxDP=1.10D-06 DE=-1.78D-09 OVMax= 1.48D-06

 Cycle  13  Pass 1  IDiag  1:
 E= -379.121463255089     Delta-E=       -0.000000000054 Rises=F Damp=F
 DIIS: error= 7.79D-08 at cycle   6 NSaved=   6.
 NSaved= 6 IEnMin= 6 EnMin= -379.121463255089     IErMin= 6 ErrMin= 7.79D-08
 ErrMax= 7.79D-08  0.00D+00 EMaxC= 1.00D-01 BMatC= 2.78D-12 BMatP= 6.60D-11
 IDIUse=1 WtCom= 1.00D+00 WtEn= 0.00D+00
 Coeff-Com: -0.314D-02 0.163D-01 0.634D-01 0.821D-01 0.259D+00 0.583D+00
 Coeff:     -0.314D-02 0.163D-01 0.634D-01 0.821D-01 0.259D+00 0.583D+00
 Gap=     0.264 Goal=   None    Shift=    0.000
 RMSDP=1.27D-08 MaxDP=2.84D-07 DE=-5.35D-11 OVMax= 3.19D-07

 Cycle  14  Pass 1  IDiag  1:
 E= -379.121463255091     Delta-E=       -0.000000000002 Rises=F Damp=F
 DIIS: error= 2.33D-08 at cycle   7 NSaved=   7.
 NSaved= 7 IEnMin= 7 EnMin= -379.121463255091     IErMin= 7 ErrMin= 2.33D-08
 ErrMax= 2.33D-08  0.00D+00 EMaxC= 1.00D-01 BMatC= 2.97D-13 BMatP= 2.78D-12
 IDIUse=1 WtCom= 1.00D+00 WtEn= 0.00D+00
 Coeff-Com: -0.378D-03 0.935D-03 0.334D-02 0.943D-02 0.381D-01 0.265D+00
 Coeff-Com:  0.683D+00
 Coeff:     -0.378D-03 0.935D-03 0.334D-02 0.943D-02 0.381D-01 0.265D+00
 Coeff:      0.683D+00
 Gap=     0.264 Goal=   None    Shift=    0.000
 RMSDP=3.84D-09 MaxDP=8.53D-08 DE=-2.27D-12 OVMax= 9.52D-08

 SCF Done:  E(RB3LYP) =  -379.121463255     A.U. after   14 cycles
            NFock= 14  Conv=0.38D-08     -V/T= 2.0088
 KE= 3.758104314046D+02 PE=-1.556229497687D+03 EE= 4.665900161755D+02
 Leave Link  502 at Thu Sep  8 15:16:00 2022, MaxMem= 24159191040 cpu:        54.8
 (Enter /public/home/users/caep010/software/Gaussian09/g09/l601.exe)
 Copying SCF densities to generalized density rwf, IOpCl= 0 IROHF=0.

 **********************************************************************

            Population analysis using the SCF density.

 **********************************************************************

 Orbital symmetries:
       Occupied  (A) (A) (A) (A) (A) (A) (A) (A) (A) (A) (A) (A)
                 (A) (A) (A) (A) (A) (A) (A) (A) (A) (A) (A) (A)
                 (A) (A) (A) (A)
       Virtual   (A) (A) (A) (A) (A) (A) (A) (A) (A) (A) (A) (A)
                 (A) (A) (A) (A) (A) (A) (A) (A) (A) (A) (A) (A)
                 (A) (A) (A) (A) (A) (A) (A) (A) (A) (A) (A) (A)
                 (A) (A) (A) (A) (A) (A) (A) (A) (A) (A) (A) (A)
                 (A) (A) (A) (A) (A) (A) (A) (A) (A) (A) (A) (A)
                 (A) (A) (A) (A) (A) (A) (A) (A) (A) (A) (A) (A)
                 (A) (A) (A) (A) (A) (A) (A) (A) (A) (A) (A) (A)
                 (A) (A) (A) (A) (A) (A) (A) (A) (A) (A) (A) (A)
                 (A) (A) (A) (A) (A) (A) (A) (A) (A) (A) (A) (A)
                 (A) (A) (A) (A) (A) (A) (A) (A) (A)
 The electronic state is 1-A.
 Alpha  occ. eigenvalues --  -19.13173 -19.12464 -14.36082 -14.32927 -10.28928
 Alpha  occ. eigenvalues --  -10.27216 -10.18118  -1.05404  -1.01089  -0.91865
 Alpha  occ. eigenvalues --   -0.88067  -0.73824  -0.64957  -0.57287  -0.55516
 Alpha  occ. eigenvalues --   -0.50826  -0.49641  -0.47872  -0.43696  -0.41428
 Alpha  occ. eigenvalues --   -0.40195  -0.38318  -0.37501  -0.33847  -0.29429
 Alpha  occ. eigenvalues --   -0.27672  -0.27393  -0.24390
 Alpha virt. eigenvalues --    0.02051   0.07296   0.10194   0.12683   0.13773
 Alpha virt. eigenvalues --    0.14866   0.16117   0.17694   0.18502   0.21903
 Alpha virt. eigenvalues --    0.24662   0.25580   0.29447   0.33974   0.39994
 Alpha virt. eigenvalues --    0.52058   0.53386   0.56688   0.58140   0.60736
 Alpha virt. eigenvalues --    0.64532   0.65083   0.67108   0.68522   0.68764
 Alpha virt. eigenvalues --    0.71334   0.76165   0.77295   0.79648   0.82127
 Alpha virt. eigenvalues --    0.83637   0.84161   0.87049   0.87322   0.89344
 Alpha virt. eigenvalues --    0.90876   0.94111   0.94979   0.96537   1.00022
 Alpha virt. eigenvalues --    1.05113   1.06200   1.11729   1.12597   1.18866
 Alpha virt. eigenvalues --    1.22777   1.27927   1.30665   1.33938   1.40609
 Alpha virt. eigenvalues --    1.46136   1.49781   1.56204   1.59838   1.61037
 Alpha virt. eigenvalues --    1.65989   1.66589   1.75930   1.78648   1.79758
 Alpha virt. eigenvalues --    1.81364   1.86839   1.91335   1.92001   1.95001
 Alpha virt. eigenvalues --    1.97525   2.01719   2.03646   2.04219   2.05818
 Alpha virt. eigenvalues --    2.09318   2.11580   2.14445   2.17366   2.21017
 Alpha virt. eigenvalues --    2.22230   2.26025   2.29112   2.34696   2.35273
 Alpha virt. eigenvalues --    2.38196   2.41639   2.43463   2.45568   2.54059
 Alpha virt. eigenvalues --    2.55554   2.61984   2.64764   2.67372   2.69150
 Alpha virt. eigenvalues --    2.73468   2.74549   2.75101   2.84415   2.87963
 Alpha virt. eigenvalues --    2.88278   2.89802   2.94798   2.99307   3.05398
 Alpha virt. eigenvalues --    3.06658   3.10273   3.20464   3.30070   3.41649
 Alpha virt. eigenvalues --    3.41800   3.44513   3.50456   3.51043   3.56399
 Alpha virt. eigenvalues --    3.95693   4.04629   4.08573   4.21430   4.44527
 Alpha virt. eigenvalues --    4.56991   4.72892
          Condensed to atoms (all electrons):
               1          2          3          4          5          6
     1  C    5.044152   0.348546  -0.079697  -0.059629  -0.049470   0.001475
     2  C    0.348546   4.856036   0.289196   0.258481   0.310451  -0.108037
     3  N   -0.079697   0.289196   6.856732  -0.084466  -0.058970  -0.010488
     4  O   -0.059629   0.258481  -0.084466   8.210064  -0.038772   0.002761
     5  C   -0.049470   0.310451  -0.058970  -0.038772   4.486129   0.268513
     6  N    0.001475  -0.108037  -0.010488   0.002761   0.268513   6.872389
     7  O   -0.003893  -0.077211   0.002026  -0.019131   0.566017  -0.092881
     8  H    0.372230  -0.025997   0.004999   0.001353  -0.002801  -0.000102
     9  H    0.352895  -0.024052   0.002286   0.003990  -0.002649   0.002915
    10  H    0.371370  -0.024196  -0.005475  -0.000501   0.004159  -0.000086
    11  H   -0.010734  -0.026626   0.331076   0.000873   0.005619  -0.000019
    12  H    0.008281  -0.030602   0.321480   0.006583  -0.001642   0.001266
    13  H    0.004304  -0.049466   0.006966   0.279926  -0.006505   0.002261
    14  H    0.000682  -0.001635   0.028538   0.000539  -0.029437   0.332685
    15  H   -0.000294   0.007203   0.000098  -0.000065  -0.012854   0.324600
               7          8          9         10         11         12
     1  C   -0.003893   0.372230   0.352895   0.371370  -0.010734   0.008281
     2  C   -0.077211  -0.025997  -0.024052  -0.024196  -0.026626  -0.030602
     3  N    0.002026   0.004999   0.002286  -0.005475   0.331076   0.321480
     4  O   -0.019131   0.001353   0.003990  -0.000501   0.000873   0.006583
     5  C    0.566017  -0.002801  -0.002649   0.004159   0.005619  -0.001642
     6  N   -0.092881  -0.000102   0.002915  -0.000086  -0.000019   0.001266
     7  O    8.098222   0.003023   0.000033  -0.000071  -0.000123   0.000082
     8  H    0.003023   0.576689  -0.026140  -0.026285  -0.000145  -0.000287
     9  H    0.000033  -0.026140   0.610860  -0.028475  -0.000254  -0.000268
    10  H   -0.000071  -0.026285  -0.028475   0.590511   0.006003  -0.000098
    11  H   -0.000123  -0.000145  -0.000254   0.006003   0.476549  -0.030873
    12  H    0.000082  -0.000287  -0.000268  -0.000098  -0.030873   0.476810
    13  H    0.045247   0.001077  -0.000242  -0.000488  -0.000445   0.000404
    14  H    0.003028  -0.000020   0.000294  -0.000070  -0.000582  -0.000641
    15  H    0.004825  -0.000034  -0.000002   0.000010   0.000026  -0.000095
              13         14         15
     1  C    0.004304   0.000682  -0.000294
     2  C   -0.049466  -0.001635   0.007203
     3  N    0.006966   0.028538   0.000098
     4  O    0.279926   0.000539  -0.000065
     5  C   -0.006505  -0.029437  -0.012854
     6  N    0.002261   0.332685   0.324600
     7  O    0.045247   0.003028   0.004825
     8  H    0.001077  -0.000020  -0.000034
     9  H   -0.000242   0.000294  -0.000002
    10  H   -0.000488  -0.000070   0.000010
    11  H   -0.000445  -0.000582   0.000026
    12  H    0.000404  -0.000641  -0.000095
    13  H    0.397589  -0.000203  -0.000118
    14  H   -0.000203   0.396857  -0.022473
    15  H   -0.000118  -0.022473   0.422647
 Mulliken charges:
               1
     1  C   -0.300219
     2  C    0.297909
     3  N   -0.604303
     4  O   -0.562005
     5  C    0.562212
     6  N   -0.597251
     7  O   -0.529193
     8  H    0.122438
     9  H    0.108810
    10  H    0.113692
    11  H    0.249655
    12  H    0.249599
    13  H    0.319693
    14  H    0.292438
    15  H    0.276525
 Sum of Mulliken charges =  -0.00000
 Mulliken charges with hydrogens summed into heavy atoms:
               1
     1  C    0.044720
     2  C    0.297909
     3  N   -0.105048
     4  O   -0.242312
     5  C    0.562212
     6  N   -0.028288
     7  O   -0.529193
 Electronic spatial extent (au):  <R**2>=            704.6288
 Charge=             -0.0000 electrons
 Dipole moment (field-independent basis, Debye):
    X=             -0.0155    Y=             -3.0568    Z=             -0.1190  Tot=              3.0591
 Quadrupole moment (field-independent basis, Debye-Ang):
   XX=            -39.2974   YY=            -42.4382   ZZ=            -40.1287
   XY=             -2.8091   XZ=             -0.7355   YZ=              1.3264
 Traceless Quadrupole moment (field-independent basis, Debye-Ang):
   XX=              1.3240   YY=             -1.8168   ZZ=              0.4927
   XY=             -2.8091   XZ=             -0.7355   YZ=              1.3264
 Octapole moment (field-independent basis, Debye-Ang**2):
  XXX=              8.3007  YYY=              3.3906  ZZZ=             -9.3202  XYY=              3.0105
  XXY=            -19.1486  XXZ=             -1.7149  XZZ=             -1.2963  YZZ=              0.2782
  YYZ=             -1.7292  XYZ=             -2.7775
 Hexadecapole moment (field-independent basis, Debye-Ang**3):
 XXXX=           -349.7689 YYYY=           -244.0554 ZZZZ=           -177.4642 XXXY=            -15.1165
 XXXZ=              7.4764 YYYX=            -15.6809 YYYZ=             -6.0702 ZZZX=              8.7253
 ZZZY=              6.6087 XXYY=           -111.5800 XXZZ=           -100.6569 YYZZ=            -73.4592
 XXYZ=              6.2115 YYXZ=              0.1261 ZZXY=              4.9879
 N-N= 3.347075868516D+02 E-N=-1.556229500441D+03  KE= 3.758104314046D+02
 No NMR shielding tensors so no spin-rotation constants.
 Leave Link  601 at Thu Sep  8 15:16:00 2022, MaxMem= 24159191040 cpu:        11.4
 (Enter /public/home/users/caep010/software/Gaussian09/g09/l701.exe)
 Compute integral first derivatives.
 ... and contract with generalized density number  0.
 Leave Link  701 at Thu Sep  8 15:16:01 2022, MaxMem= 24159191040 cpu:        10.9
 (Enter /public/home/users/caep010/software/Gaussian09/g09/l702.exe)
 L702 exits ... SP integral derivatives will be done elsewhere.
 Leave Link  702 at Thu Sep  8 15:16:01 2022, MaxMem= 24159191040 cpu:         0.6
 (Enter /public/home/users/caep010/software/Gaussian09/g09/l703.exe)
 Compute integral first derivatives, UseDBF=F ICtDFT=           0.
 Integral derivatives from FoFJK, PRISM(SPDF).
 Calling FoFJK, ICntrl=      2127 FMM=F ISym2X=0 I1Cent= 0 IOpClX= 0 NMat=1 NMatS=1 NMatT=0.
 FoFJK:  IHMeth= 1 ICntrl=    2127 DoSepK=F KAlg= 0 I1Cent=   0 FoldK=F
 IRaf=         0 NMat=   1 IRICut=       1 DoRegI=T DoRafI=F ISym2E= 0.
 FoFCou: FMM=F IPFlag=           0 FMFlag=      100000 FMFlg1=         800
         NFxFlg=           0 DoJE=F BraDBF=F KetDBF=F FulRan=T
         wScrn=  0.000000 ICntrl=    2127 IOpCl=  0 I1Cent=           0 NGrid=           0
         NMat0=    1 NMatS0=      1 NMatT0=    0 NMatD0=    1 NMtDS0=    0 NMtDT0=    0
 Symmetry not used in FoFCou.
 Leave Link  703 at Thu Sep  8 15:16:01 2022, MaxMem= 24159191040 cpu:        14.4
 (Enter /public/home/users/caep010/software/Gaussian09/g09/l716.exe)
 Dipole        =-6.10733931D-03-1.20262642D+00-4.68064147D-02
 ***** Axes restored to original set *****
 -------------------------------------------------------------------
 Center     Atomic                   Forces (Hartrees/Bohr)
 Number     Number              X              Y              Z
 -------------------------------------------------------------------
      1        6          -0.000181295   -0.000081243    0.000022645
      2        6           0.000248479   -0.001951778    0.000388124
      3        7           0.001404232   -0.001035927    0.000377783
      4        8          -0.003138865    0.000258365   -0.001902515
      5        6          -0.001997434   -0.006661509   -0.006660999
      6        7           0.000620692   -0.000900994    0.000080493
      7        8           0.001969619    0.008378754    0.006880661
      8        1          -0.000051929    0.000057267    0.000091081
      9        1           0.000059104   -0.000123643    0.000059474
     10        1          -0.000108897   -0.000004122    0.000031148
     11        1          -0.001168717   -0.000294248   -0.000104827
     12        1           0.000117290    0.001177427   -0.000520239
     13        1           0.001583817    0.001859208    0.002122290
     14        1          -0.000842243   -0.001216769   -0.001425409
     15        1           0.001486147    0.000539213    0.000560290
 -------------------------------------------------------------------
 Cartesian Forces:  Max     0.008378754 RMS     0.002389051
 Leave Link  716 at Thu Sep  8 15:16:01 2022, MaxMem= 24159191040 cpu:         1.2
 (Enter /public/home/users/caep010/software/Gaussian09/g09/l103.exe)

 GradGradGradGradGradGradGradGradGradGradGradGradGradGradGradGradGradGrad
 Berny optimization.
 FormGI is forming the generalized inverse of G from B-inverse, IUseBI=4.
 Internal  Forces:  Max     0.011009289 RMS     0.001565124
 Search for a local minimum.
 Step number   1 out of a maximum of   74
 All quantities printed in internal units (Hartrees-Bohrs-Radians)
 RMS Force = .15651D-02 SwitMx=.10000D-02 MixMth= 1
 Mixed Optimization -- RFO/linear search
 Second derivative matrix not updated -- first step.
 ITU=  0
     Eigenvalues ---    0.00230   0.00276   0.00959   0.01141   0.01541
     Eigenvalues ---    0.02354   0.02681   0.04736   0.05465   0.05788
     Eigenvalues ---    0.05921   0.06494   0.07797   0.16000   0.16000
     Eigenvalues ---    0.16000   0.16000   0.16000   0.16000   0.16000
     Eigenvalues ---    0.16000   0.16981   0.17600   0.24984   0.25000
     Eigenvalues ---    0.27473   0.28783   0.34281   0.34473   0.34542
     Eigenvalues ---    0.37544   0.43782   0.44767   0.44946   0.46311
     Eigenvalues ---    0.46527   0.52855   0.55029   0.94734
 RFO step:  Lambda=-2.32181529D-04 EMin= 2.30000000D-03
 Linear search not attempted -- first point.
 Iteration  1 RMS(Cart)=  0.00615770 RMS(Int)=  0.00003456
 Iteration  2 RMS(Cart)=  0.00004246 RMS(Int)=  0.00001018
 Iteration  3 RMS(Cart)=  0.00000000 RMS(Int)=  0.00001018
 ITry= 1 IFail=0 DXMaxC= 2.01D-02 DCOld= 1.00D+10 DXMaxT= 3.00D-01 DXLimC= 3.00D+00 Rises=F
 Variable       Old X    -DE/DX   Delta X   Delta X   Delta X     New X
                                 (Linear)    (Quad)   (Total)
    R1        2.90458   0.00033   0.00000   0.00113   0.00113   2.90571
    R2        2.06425   0.00010   0.00000   0.00029   0.00029   2.06454
    R3        2.06539   0.00012   0.00000   0.00036   0.00036   2.06574
    R4        2.06858   0.00010   0.00000   0.00030   0.00030   2.06888
    R5        2.75034   0.00027   0.00000   0.00072   0.00072   2.75106
    R6        2.66717   0.00262   0.00000   0.00599   0.00599   2.67316
    R7        2.93304   0.00106   0.00000   0.00386   0.00386   2.93690
    R8        1.92038   0.00119   0.00000   0.00266   0.00266   1.92303
    R9        1.92247   0.00125   0.00000   0.00279   0.00279   1.92526
   R10        1.83790   0.00322   0.00000   0.00608   0.00608   1.84398
   R11        2.55106   0.00216   0.00000   0.00393   0.00393   2.55499
   R12        2.30825   0.01101   0.00000   0.01162   0.01162   2.31987
   R13        1.90483   0.00204   0.00000   0.00441   0.00441   1.90924
   R14        1.90241   0.00163   0.00000   0.00349   0.00349   1.90591
    A1        1.91426  -0.00004   0.00000  -0.00043  -0.00043   1.91383
    A2        1.94865   0.00011   0.00000   0.00091   0.00091   1.94955
    A3        1.90135   0.00002   0.00000   0.00007   0.00007   1.90142
    A4        1.90476  -0.00002   0.00000  -0.00007  -0.00007   1.90469
    A5        1.88621  -0.00004   0.00000  -0.00077  -0.00077   1.88544
    A6        1.90756  -0.00002   0.00000   0.00024   0.00024   1.90780
    A7        1.90656   0.00028   0.00000   0.00100   0.00100   1.90756
    A8        1.92127  -0.00033   0.00000  -0.00113  -0.00114   1.92013
    A9        1.90326   0.00030   0.00000   0.00262   0.00262   1.90588
   A10        1.95781  -0.00001   0.00000  -0.00115  -0.00115   1.95667
   A11        1.90834  -0.00056   0.00000  -0.00401  -0.00401   1.90433
   A12        1.86562   0.00032   0.00000   0.00277   0.00277   1.86839
   A13        1.90738  -0.00023   0.00000  -0.00228  -0.00229   1.90509
   A14        1.89176  -0.00054   0.00000  -0.00424  -0.00425   1.88751
   A15        1.85350   0.00018   0.00000  -0.00071  -0.00073   1.85277
   A16        1.82674   0.00036   0.00000   0.00224   0.00224   1.82898
   A17        2.00935  -0.00006   0.00000  -0.00041  -0.00046   2.00889
   A18        2.09245  -0.00031   0.00000  -0.00140  -0.00144   2.09101
   A19        2.18076   0.00036   0.00000   0.00124   0.00120   2.18196
   A20        2.05834  -0.00009   0.00000  -0.00038  -0.00038   2.05796
   A21        2.07973  -0.00033   0.00000  -0.00189  -0.00189   2.07784
   A22        2.10512   0.00041   0.00000   0.00272   0.00272   2.10784
    D1        3.06488  -0.00006   0.00000   0.00472   0.00472   3.06959
    D2       -1.06132  -0.00010   0.00000   0.00320   0.00320  -1.05812
    D3        0.98019   0.00028   0.00000   0.00743   0.00743   0.98762
    D4        0.95132  -0.00007   0.00000   0.00450   0.00450   0.95583
    D5        3.10831  -0.00011   0.00000   0.00299   0.00299   3.11130
    D6       -1.13337   0.00026   0.00000   0.00722   0.00722  -1.12615
    D7       -1.15705  -0.00012   0.00000   0.00358   0.00358  -1.15348
    D8        0.99993  -0.00017   0.00000   0.00206   0.00206   1.00199
    D9        3.04144   0.00021   0.00000   0.00629   0.00629   3.04773
   D10        0.87162  -0.00002   0.00000   0.00313   0.00313   0.87475
   D11        2.88443  -0.00023   0.00000  -0.00124  -0.00123   2.88320
   D12       -1.26359   0.00021   0.00000   0.00464   0.00464  -1.25895
   D13        0.74923   0.00000   0.00000   0.00027   0.00028   0.74950
   D14        2.95317   0.00018   0.00000   0.00452   0.00452   2.95768
   D15       -1.31721  -0.00003   0.00000   0.00015   0.00015  -1.31705
   D16        1.75337  -0.00012   0.00000  -0.01124  -0.01124   1.74213
   D17       -2.40299   0.00000   0.00000  -0.01155  -0.01155  -2.41453
   D18       -0.31146  -0.00048   0.00000  -0.01536  -0.01536  -0.32682
   D19        1.44012   0.00001   0.00000  -0.00103  -0.00103   1.43908
   D20       -1.66544   0.00019   0.00000   0.01544   0.01543  -1.65002
   D21       -0.64347  -0.00018   0.00000  -0.00143  -0.00142  -0.64489
   D22        2.53416   0.00000   0.00000   0.01504   0.01504   2.54919
   D23       -2.76653  -0.00005   0.00000   0.00059   0.00060  -2.76593
   D24        0.41110   0.00014   0.00000   0.01706   0.01706   0.42816
   D25        0.24740   0.00008   0.00000   0.00798   0.00799   0.25539
   D26        3.09098   0.00014   0.00000   0.01007   0.01008   3.10106
   D27       -2.93231  -0.00013   0.00000  -0.00951  -0.00951  -2.94183
   D28       -0.08873  -0.00007   0.00000  -0.00741  -0.00742  -0.09615
         Item               Value     Threshold  Converged?
 Maximum Force            0.011009     0.000450     NO 
 RMS     Force            0.001565     0.000300     NO 
 Maximum Displacement     0.020143     0.001800     NO 
 RMS     Displacement     0.006172     0.001200     NO 
 Predicted change in Energy=-1.163292D-04
 Lowest energy point so far.  Saving SCF results.
 GradGradGradGradGradGradGradGradGradGradGradGradGradGradGradGradGradGrad

 Leave Link  103 at Thu Sep  8 15:16:02 2022, MaxMem= 24159191040 cpu:         5.1
 (Enter /public/home/users/caep010/software/Gaussian09/g09/l202.exe)
                          Input orientation:                          
 ---------------------------------------------------------------------
 Center     Atomic      Atomic             Coordinates (Angstroms)
 Number     Number       Type             X           Y           Z
 ---------------------------------------------------------------------
      1          6           0       -0.981634   -0.831733    0.885753
      2          6           0       -0.439338    0.246150   -0.067350
      3          7           0       -0.491112   -0.250691   -1.434761
      4          8           0       -1.172002    1.445753    0.091331
      5          6           0        1.036553    0.561069    0.304033
      6          7           0        1.951074   -0.295582   -0.203726
      7          8           0        1.290060    1.497983    1.055682
      8          1           0       -0.877633   -0.494112    1.919567
      9          1           0       -0.453941   -1.781326    0.764193
     10          1           0       -2.047195   -0.981272    0.683727
     11          1           0       -1.420945   -0.619935   -1.620860
     12          1           0       -0.369019    0.540641   -2.064722
     13          1           0       -0.612441    2.005847    0.661732
     14          1           0        1.657563   -0.915852   -0.945258
     15          1           0        2.930011   -0.126844   -0.029344
 ---------------------------------------------------------------------
                    Distance matrix (angstroms):
                    1          2          3          4          5
     1  C    0.000000
     2  C    1.537635   0.000000
     3  N    2.441927   1.455797   0.000000
     4  O    2.419563   1.414575   2.381279   0.000000
     5  C    2.520193   1.554141   2.452778   2.388645   0.000000
     6  N    3.174145   2.454820   2.735276   3.587883   1.352042
     7  O    3.258381   2.412282   3.526009   2.644702   1.227620
     8  H    1.092509   2.165163   3.385287   2.681823   2.717989
     9  H    1.093145   2.191424   2.679482   3.373780   2.814273
    10  H    1.094804   2.157750   2.728211   2.647139   3.468787
    11  H    2.553618   2.031514   1.017626   2.694557   3.337556
    12  H    3.311195   2.020189   1.018805   2.472362   2.754460
    13  H    2.870252   1.912605   3.082526   0.975792   2.221377
    14  H    3.213260   2.553031   2.301925   3.828594   2.031668
    15  H    4.078632   3.390145   3.700624   4.394784   2.041946
                    6          7          8          9         10
     6  N    0.000000
     7  O    2.289088   0.000000
     8  H    3.542509   3.068164   0.000000
     9  H    2.988042   3.725637   1.780822   0.000000
    10  H    4.152577   4.174006   1.769888   1.784663   0.000000
    11  H    3.672055   4.358784   3.584082   2.823545   2.415342
    12  H    3.089564   3.661415   4.147766   3.660806   3.561807
    13  H    3.552070   2.008141   2.811098   3.791873   3.313892
    14  H    1.010324   3.156805   3.848676   2.851266   4.047605
    15  H    1.008563   2.550840   4.293168   3.849434   5.100108
                   11         12         13         14         15
    11  H    0.000000
    12  H    1.628035   0.000000
    13  H    3.571923   3.104775   0.000000
    14  H    3.165631   2.735252   4.033815   0.000000
    15  H    4.659064   3.933433   4.192245   1.755152   0.000000
 Stoichiometry    C3H8N2O2
 Framework group  C1[X(C3H8N2O2)]
 Deg. of freedom    39
 Full point group                 C1      NOp   1
 RotChk:  IX=0 Diff= 9.23D-03
 Largest Abelian subgroup         C1      NOp   1
 Largest concise Abelian subgroup C1      NOp   1
                         Standard orientation:                         
 ---------------------------------------------------------------------
 Center     Atomic      Atomic             Coordinates (Angstroms)
 Number     Number       Type             X           Y           Z
 ---------------------------------------------------------------------
      1          6           0       -1.135511   -0.124813    1.382750
      2          6           0       -0.592837    0.013549   -0.049271
      3          7           0       -0.969287   -1.161421   -0.821977
      4          8           0       -1.069111    1.210326   -0.634000
      5          6           0        0.957201    0.115459   -0.000795
      6          7           0        1.607090   -1.066524    0.091813
      7          8           0        1.496202    1.218379    0.009080
      8          1           0       -0.794560    0.718406    1.987986
      9          1           0       -0.808453   -1.057057    1.850637
     10          1           0       -2.229596   -0.099490    1.352203
     11          1           0       -1.966720   -1.329193   -0.709981
     12          1           0       -0.826137   -0.951579   -1.808607
     13          1           0       -0.330084    1.841521   -0.546801
     14          1           0        1.085448   -1.909588   -0.102833
     15          1           0        2.615637   -1.072212    0.091796
 ---------------------------------------------------------------------
 Rotational constants (GHZ):      3.4373609      2.4600904      2.0378858
 Leave Link  202 at Thu Sep  8 15:16:02 2022, MaxMem= 24159191040 cpu:         0.2
 (Enter /public/home/users/caep010/software/Gaussian09/g09/l301.exe)
 Standard basis: 6-31G(d,p) (6D, 7F)
 Ernie: Thresh=  0.10000D-02 Tol=  0.10000D-05 Strict=F.
 There are   145 symmetry adapted cartesian basis functions of A   symmetry.
 There are   145 symmetry adapted basis functions of A   symmetry.
   145 basis functions,   252 primitive gaussians,   145 cartesian basis functions
    28 alpha electrons       28 beta electrons
       nuclear repulsion energy       334.1481725368 Hartrees.
 IExCor=  402 DFT=T Ex+Corr=B3LYP ExCW=0 ScaHFX=  0.200000
 ScaDFX=  0.800000  0.720000  1.000000  0.810000 ScalE2=  1.000000  1.000000
 IRadAn=      0 IRanWt=     -1 IRanGd=            0 ICorTp=0 IEmpDi=  4
 NAtoms=   15 NActive=   15 NUniq=   15 SFac= 1.00D+00 NAtFMM=   60 NAOKFM=F Big=F
 Integral buffers will be    131072 words long.
 Raffenetti 2 integral format.
 Two-electron integral symmetry is turned on.
 Leave Link  301 at Thu Sep  8 15:16:02 2022, MaxMem= 24159191040 cpu:         1.6
 (Enter /public/home/users/caep010/software/Gaussian09/g09/l302.exe)
 NPDir=0 NMtPBC=     1 NCelOv=     1 NCel=       1 NClECP=     1 NCelD=      1
         NCelK=      1 NCelE2=     1 NClLst=     1 CellRange=     0.0.
 One-electron integrals computed using PRISM.
 NBasis=   145 RedAO= T EigKep=  2.22D-03  NBF=   145
 NBsUse=   145 1.00D-06 EigRej= -1.00D+00 NBFU=   145
 Precomputing XC quadrature grid using
 IXCGrd= 4 IRadAn=           0 IRanWt=          -1 IRanGd=           0 AccXCQ= 0.00D+00.
 Generated NRdTot=       0 NPtTot=           0 NUsed=           0 NTot=          32
 NSgBfM=   145   145   145   145   145 MxSgAt=    15 MxSgA2=    15.
 Leave Link  302 at Thu Sep  8 15:16:02 2022, MaxMem= 24159191040 cpu:        15.8
 (Enter /public/home/users/caep010/software/Gaussian09/g09/l303.exe)
 DipDrv:  MaxL=1.
 Leave Link  303 at Thu Sep  8 15:16:03 2022, MaxMem= 24159191040 cpu:         0.7
 (Enter /public/home/users/caep010/software/Gaussian09/g09/l401.exe)
 Initial guess from the checkpoint file:  "B3LYP6-31Gdp.Frag_647.chk"
 B after Tr=    -0.000000   -0.000000    0.000000
         Rot=    0.999995    0.002585   -0.000435   -0.001641 Ang=   0.35 deg.
 Guess basis will be translated and rotated to current coordinates.
 JPrj=2 DoOrth=T DoCkMO=T.
 Generating alternative initial guess.
 ExpMin= 1.61D-01 ExpMax= 5.48D+03 ExpMxC= 8.25D+02 IAcc=1 IRadAn=         1 AccDes= 0.00D+00
 Harris functional with IExCor=  402 and IRadAn=       1 diagonalized for initial guess.
 HarFok:  IExCor=  402 AccDes= 0.00D+00 IRadAn=         1 IDoV= 1 UseB2=F ITyADJ=14
 ICtDFT=  3500011 ScaDFX=  1.000000  1.000000  1.000000  1.000000
 FoFCou: FMM=F IPFlag=           0 FMFlag=      100000 FMFlg1=           0
         NFxFlg=           0 DoJE=T BraDBF=F KetDBF=T FulRan=T
         wScrn=  0.000000 ICntrl=     500 IOpCl=  0 I1Cent=   200000004 NGrid=           0
         NMat0=    1 NMatS0=      1 NMatT0=    0 NMatD0=    1 NMtDS0=    0 NMtDT0=    0
 Petite list used in FoFCou.
 Harris En= -379.148797388124    
 Leave Link  401 at Thu Sep  8 15:16:03 2022, MaxMem= 24159191040 cpu:        11.8
 (Enter /public/home/users/caep010/software/Gaussian09/g09/l502.exe)
 Closed shell SCF:
 Using DIIS extrapolation, IDIIS=  1040.
 Integral symmetry usage will be decided dynamically.
 Keep R1 ints in memory in canonical form, NReq=57669762.
 IVT=       87362 IEndB=       87362 NGot= 24159191040 MDV= 24103077274
 LenX= 24103077274 LenY= 24103055808
 Requested convergence on RMS density matrix=1.00D-08 within 128 cycles.
 Requested convergence on MAX density matrix=1.00D-06.
 Requested convergence on             energy=1.00D-06.
 No special actions if energy rises.
 FoFCou: FMM=F IPFlag=           0 FMFlag=           0 FMFlg1=           0
         NFxFlg=           0 DoJE=F BraDBF=F KetDBF=F FulRan=T
         wScrn=  0.000000 ICntrl=     600 IOpCl=  0 I1Cent=           0 NGrid=           0
         NMat0=    1 NMatS0=  10585 NMatT0=    0 NMatD0=    1 NMtDS0=    0 NMtDT0=    0
 Symmetry not used in FoFCou.
 Integral accuracy reduced to 1.0D-05 until final iterations.

 Cycle   1  Pass 0  IDiag  1:
 E= -379.121446906914    
 DIIS: error= 4.45D-04 at cycle   1 NSaved=   1.
 NSaved= 1 IEnMin= 1 EnMin= -379.121446906914     IErMin= 1 ErrMin= 4.45D-04
 ErrMax= 4.45D-04  0.00D+00 EMaxC= 1.00D-01 BMatC= 9.02D-05 BMatP= 9.02D-05
 IDIUse=3 WtCom= 9.96D-01 WtEn= 4.45D-03
 Coeff-Com:  0.100D+01
 Coeff-En:   0.100D+01
 Coeff:      0.100D+01
 Gap=     1.608 Goal=   None    Shift=    0.000
 RMSDP=1.32D-04 MaxDP=2.90D-03              OVMax= 3.75D-03

 Cycle   2  Pass 0  IDiag  1:
 E= -379.121582645396     Delta-E=       -0.000135738483 Rises=F Damp=F
 DIIS: error= 1.39D-04 at cycle   2 NSaved=   2.
 NSaved= 2 IEnMin= 2 EnMin= -379.121582645396     IErMin= 2 ErrMin= 1.39D-04
 ErrMax= 1.39D-04  0.00D+00 EMaxC= 1.00D-01 BMatC= 6.24D-06 BMatP= 9.02D-05
 IDIUse=3 WtCom= 9.99D-01 WtEn= 1.39D-03
 Coeff-Com:  0.691D-01 0.931D+00
 Coeff-En:   0.000D+00 0.100D+01
 Coeff:      0.690D-01 0.931D+00
 Gap=     0.263 Goal=   None    Shift=    0.000
 RMSDP=3.30D-05 MaxDP=1.04D-03 DE=-1.36D-04 OVMax= 9.46D-04

 Cycle   3  Pass 0  IDiag  1:
 E= -379.121582565034     Delta-E=        0.000000080362 Rises=F Damp=F
 DIIS: error= 1.50D-04 at cycle   3 NSaved=   3.
 NSaved= 3 IEnMin= 2 EnMin= -379.121582645396     IErMin= 2 ErrMin= 1.39D-04
 ErrMax= 1.50D-04  0.00D+00 EMaxC= 1.00D-01 BMatC= 7.35D-06 BMatP= 6.24D-06
 IDIUse=3 WtCom= 4.50D-01 WtEn= 5.50D-01
 Coeff-Com: -0.242D-01 0.529D+00 0.496D+00
 Coeff-En:   0.000D+00 0.504D+00 0.496D+00
 Coeff:     -0.109D-01 0.515D+00 0.496D+00
 Gap=     0.263 Goal=   None    Shift=    0.000
 RMSDP=2.15D-05 MaxDP=8.42D-04 DE= 8.04D-08 OVMax= 8.62D-04

 Cycle   4  Pass 0  IDiag  1:
 E= -379.121587267031     Delta-E=       -0.000004701997 Rises=F Damp=F
 DIIS: error= 9.68D-05 at cycle   4 NSaved=   4.
 NSaved= 4 IEnMin= 4 EnMin= -379.121587267031     IErMin= 4 ErrMin= 9.68D-05
 ErrMax= 9.68D-05  0.00D+00 EMaxC= 1.00D-01 BMatC= 1.10D-06 BMatP= 6.24D-06
 IDIUse=1 WtCom= 1.00D+00 WtEn= 0.00D+00
 Coeff-Com: -0.191D-01 0.249D+00 0.333D+00 0.437D+00
 Coeff:     -0.191D-01 0.249D+00 0.333D+00 0.437D+00
 Gap=     0.263 Goal=   None    Shift=    0.000
 RMSDP=6.87D-06 MaxDP=2.46D-04 DE=-4.70D-06 OVMax= 3.34D-04

 Initial convergence to 1.0D-05 achieved.  Increase integral accuracy.
 Cycle   5  Pass 1  IDiag  1:
 E= -379.121574481535     Delta-E=        0.000012785496 Rises=F Damp=F
 DIIS: error= 1.37D-05 at cycle   1 NSaved=   1.
 NSaved= 1 IEnMin= 1 EnMin= -379.121574481535     IErMin= 1 ErrMin= 1.37D-05
 ErrMax= 1.37D-05  0.00D+00 EMaxC= 1.00D-01 BMatC= 8.13D-08 BMatP= 8.13D-08
 IDIUse=1 WtCom= 1.00D+00 WtEn= 0.00D+00
 Coeff-Com:  0.100D+01
 Coeff:      0.100D+01
 Gap=     0.263 Goal=   None    Shift=    0.000
 RMSDP=6.87D-06 MaxDP=2.46D-04 DE= 1.28D-05 OVMax= 1.61D-04

 Cycle   6  Pass 1  IDiag  1:
 E= -379.121574458477     Delta-E=        0.000000023058 Rises=F Damp=F
 DIIS: error= 2.71D-05 at cycle   2 NSaved=   2.
 NSaved= 2 IEnMin= 1 EnMin= -379.121574481535     IErMin= 1 ErrMin= 1.37D-05
 ErrMax= 2.71D-05  0.00D+00 EMaxC= 1.00D-01 BMatC= 1.32D-07 BMatP= 8.13D-08
 IDIUse=1 WtCom= 1.00D+00 WtEn= 0.00D+00
 Coeff-Com:  0.572D+00 0.428D+00
 Coeff:      0.572D+00 0.428D+00
 Gap=     0.263 Goal=   None    Shift=    0.000
 RMSDP=2.65D-06 MaxDP=8.88D-05 DE= 2.31D-08 OVMax= 1.46D-04

 Cycle   7  Pass 1  IDiag  1:
 E= -379.121574552656     Delta-E=       -0.000000094179 Rises=F Damp=F
 DIIS: error= 1.04D-05 at cycle   3 NSaved=   3.
 NSaved= 3 IEnMin= 3 EnMin= -379.121574552656     IErMin= 3 ErrMin= 1.04D-05
 ErrMax= 1.04D-05  0.00D+00 EMaxC= 1.00D-01 BMatC= 1.55D-08 BMatP= 8.13D-08
 IDIUse=1 WtCom= 1.00D+00 WtEn= 0.00D+00
 Coeff-Com:  0.112D+00 0.254D+00 0.633D+00
 Coeff:      0.112D+00 0.254D+00 0.633D+00
 Gap=     0.263 Goal=   None    Shift=    0.000
 RMSDP=1.05D-06 MaxDP=4.02D-05 DE=-9.42D-08 OVMax= 4.95D-05

 Cycle   8  Pass 1  IDiag  1:
 E= -379.121574562938     Delta-E=       -0.000000010282 Rises=F Damp=F
 DIIS: error= 2.73D-06 at cycle   4 NSaved=   4.
 NSaved= 4 IEnMin= 4 EnMin= -379.121574562938     IErMin= 4 ErrMin= 2.73D-06
 ErrMax= 2.73D-06  0.00D+00 EMaxC= 1.00D-01 BMatC= 2.78D-09 BMatP= 1.55D-08
 IDIUse=1 WtCom= 1.00D+00 WtEn= 0.00D+00
 Coeff-Com: -0.116D-01 0.932D-01 0.388D+00 0.530D+00
 Coeff:     -0.116D-01 0.932D-01 0.388D+00 0.530D+00
 Gap=     0.263 Goal=   None    Shift=    0.000
 RMSDP=3.15D-07 MaxDP=1.06D-05 DE=-1.03D-08 OVMax= 8.84D-06

 Cycle   9  Pass 1  IDiag  1:
 E= -379.121574564996     Delta-E=       -0.000000002058 Rises=F Damp=F
 DIIS: error= 4.41D-07 at cycle   5 NSaved=   5.
 NSaved= 5 IEnMin= 5 EnMin= -379.121574564996     IErMin= 5 ErrMin= 4.41D-07
 ErrMax= 4.41D-07  0.00D+00 EMaxC= 1.00D-01 BMatC= 6.29D-11 BMatP= 2.78D-09
 IDIUse=1 WtCom= 1.00D+00 WtEn= 0.00D+00
 Coeff-Com: -0.854D-02 0.400D-01 0.187D+00 0.272D+00 0.509D+00
 Coeff:     -0.854D-02 0.400D-01 0.187D+00 0.272D+00 0.509D+00
 Gap=     0.263 Goal=   None    Shift=    0.000
 RMSDP=6.25D-08 MaxDP=1.37D-06 DE=-2.06D-09 OVMax= 1.86D-06

 Cycle  10  Pass 1  IDiag  1:
 E= -379.121574565063     Delta-E=       -0.000000000066 Rises=F Damp=F
 DIIS: error= 1.04D-07 at cycle   6 NSaved=   6.
 NSaved= 6 IEnMin= 6 EnMin= -379.121574565063     IErMin= 6 ErrMin= 1.04D-07
 ErrMax= 1.04D-07  0.00D+00 EMaxC= 1.00D-01 BMatC= 2.52D-12 BMatP= 6.29D-11
 IDIUse=1 WtCom= 1.00D+00 WtEn= 0.00D+00
 Coeff-Com: -0.227D-02 0.663D-02 0.396D-01 0.569D-01 0.197D+00 0.702D+00
 Coeff:     -0.227D-02 0.663D-02 0.396D-01 0.569D-01 0.197D+00 0.702D+00
 Gap=     0.263 Goal=   None    Shift=    0.000
 RMSDP=1.23D-08 MaxDP=3.12D-07 DE=-6.64D-11 OVMax= 3.99D-07

 Cycle  11  Pass 1  IDiag  1:
 E= -379.121574565071     Delta-E=       -0.000000000009 Rises=F Damp=F
 DIIS: error= 1.35D-08 at cycle   7 NSaved=   7.
 NSaved= 7 IEnMin= 7 EnMin= -379.121574565071     IErMin= 7 ErrMin= 1.35D-08
 ErrMax= 1.35D-08  0.00D+00 EMaxC= 1.00D-01 BMatC= 9.14D-14 BMatP= 2.52D-12
 IDIUse=1 WtCom= 1.00D+00 WtEn= 0.00D+00
 Coeff-Com: -0.363D-03 0.324D-03 0.429D-02 0.644D-02 0.414D-01 0.232D+00
 Coeff-Com:  0.716D+00
 Coeff:     -0.363D-03 0.324D-03 0.429D-02 0.644D-02 0.414D-01 0.232D+00
 Coeff:      0.716D+00
 Gap=     0.263 Goal=   None    Shift=    0.000
 RMSDP=2.85D-09 MaxDP=6.13D-08 DE=-8.75D-12 OVMax= 7.37D-08

 SCF Done:  E(RB3LYP) =  -379.121574565     A.U. after   11 cycles
            NFock= 11  Conv=0.29D-08     -V/T= 2.0090
 KE= 3.757520596563D+02 PE=-1.555078290340D+03 EE= 4.660564835816D+02
 Leave Link  502 at Thu Sep  8 15:16:05 2022, MaxMem= 24159191040 cpu:        45.8
 (Enter /public/home/users/caep010/software/Gaussian09/g09/l701.exe)
 Compute integral first derivatives.
 ... and contract with generalized density number  0.
 Leave Link  701 at Thu Sep  8 15:16:06 2022, MaxMem= 24159191040 cpu:        10.8
 (Enter /public/home/users/caep010/software/Gaussian09/g09/l702.exe)
 L702 exits ... SP integral derivatives will be done elsewhere.
 Leave Link  702 at Thu Sep  8 15:16:06 2022, MaxMem= 24159191040 cpu:         0.5
 (Enter /public/home/users/caep010/software/Gaussian09/g09/l703.exe)
 Compute integral first derivatives, UseDBF=F ICtDFT=           0.
 Integral derivatives from FoFJK, PRISM(SPDF).
 Calling FoFJK, ICntrl=      2127 FMM=F ISym2X=0 I1Cent= 0 IOpClX= 0 NMat=1 NMatS=1 NMatT=0.
 FoFJK:  IHMeth= 1 ICntrl=    2127 DoSepK=F KAlg= 0 I1Cent=   0 FoldK=F
 IRaf=         0 NMat=   1 IRICut=       1 DoRegI=T DoRafI=F ISym2E= 0.
 FoFCou: FMM=F IPFlag=           0 FMFlag=      100000 FMFlg1=         800
         NFxFlg=           0 DoJE=F BraDBF=F KetDBF=F FulRan=T
         wScrn=  0.000000 ICntrl=    2127 IOpCl=  0 I1Cent=           0 NGrid=           0
         NMat0=    1 NMatS0=      1 NMatT0=    0 NMatD0=    1 NMtDS0=    0 NMtDT0=    0
 Symmetry not used in FoFCou.
 Leave Link  703 at Thu Sep  8 15:16:06 2022, MaxMem= 24159191040 cpu:        13.4
 (Enter /public/home/users/caep010/software/Gaussian09/g09/l716.exe)
 Dipole        =-1.09380178D-02-1.20783060D+00-4.18369865D-02
 ***** Axes restored to original set *****
 -------------------------------------------------------------------
 Center     Atomic                   Forces (Hartrees/Bohr)
 Number     Number              X              Y              Z
 -------------------------------------------------------------------
      1        6           0.000148444    0.000279978    0.000040313
      2        6           0.000834856   -0.000488808    0.000242731
      3        7           0.000019522   -0.000079931   -0.000059334
      4        8          -0.000361306    0.000560995   -0.000424385
      5        6          -0.000734278   -0.002294282    0.000003812
      6        7           0.000046086    0.000590288   -0.000104923
      7        8           0.000264840    0.001223177    0.000199861
      8        1           0.000040753    0.000020640   -0.000026090
      9        1           0.000023739    0.000021728   -0.000003327
     10        1           0.000026552    0.000046698   -0.000057176
     11        1          -0.000143176    0.000073941   -0.000107919
     12        1          -0.000087464    0.000133201   -0.000067786
     13        1           0.000221536   -0.000368189    0.000230410
     14        1          -0.000234370    0.000122777    0.000038524
     15        1          -0.000065733    0.000157787    0.000095290
 -------------------------------------------------------------------
 Cartesian Forces:  Max     0.002294282 RMS     0.000469713
 Leave Link  716 at Thu Sep  8 15:16:06 2022, MaxMem= 24159191040 cpu:         0.5
 (Enter /public/home/users/caep010/software/Gaussian09/g09/l103.exe)

 GradGradGradGradGradGradGradGradGradGradGradGradGradGradGradGradGradGrad
 Berny optimization.
 Using GEDIIS/GDIIS optimizer.
 FormGI is forming the generalized inverse of G from B-inverse, IUseBI=4.
 Internal  Forces:  Max     0.001108384 RMS     0.000263951
 Search for a local minimum.
 Step number   2 out of a maximum of   74
 All quantities printed in internal units (Hartrees-Bohrs-Radians)
 RMS Force = .26395D-03 SwitMx=.10000D-02 MixMth= 2
 Mixed Optimization -- En-DIIS/RFO-DIIS
 Update second derivatives using D2CorX and points    1    2
 DE= -1.11D-04 DEPred=-1.16D-04 R= 9.57D-01
 TightC=F SS=  1.41D+00  RLast= 4.70D-02 DXNew= 5.0454D-01 1.4105D-01
 Trust test= 9.57D-01 RLast= 4.70D-02 DXMaxT set to 3.00D-01
 ITU=  1  0
 Use linear search instead of GDIIS.
     Eigenvalues ---    0.00231   0.00276   0.00957   0.01320   0.01503
     Eigenvalues ---    0.02354   0.02682   0.04734   0.05458   0.05788
     Eigenvalues ---    0.05931   0.06598   0.07764   0.15639   0.16000
     Eigenvalues ---    0.16000   0.16000   0.16000   0.16000   0.16000
     Eigenvalues ---    0.16259   0.17330   0.17575   0.24876   0.25060
     Eigenvalues ---    0.28006   0.28936   0.34283   0.34475   0.34543
     Eigenvalues ---    0.37468   0.42981   0.44608   0.44891   0.46333
     Eigenvalues ---    0.46537   0.52385   0.56825   0.84166
 RFO step:  Lambda=-6.21689217D-05 EMin= 2.31238253D-03
 Quartic linear search produced a step of -0.03781.
 Iteration  1 RMS(Cart)=  0.00797147 RMS(Int)=  0.00008068
 Iteration  2 RMS(Cart)=  0.00010147 RMS(Int)=  0.00003909
 Iteration  3 RMS(Cart)=  0.00000001 RMS(Int)=  0.00003909
 ITry= 1 IFail=0 DXMaxC= 2.31D-02 DCOld= 1.00D+10 DXMaxT= 3.00D-01 DXLimC= 3.00D+00 Rises=F
 Variable       Old X    -DE/DX   Delta X   Delta X   Delta X     New X
                                 (Linear)    (Quad)   (Total)
    R1        2.90571  -0.00038  -0.00004  -0.00091  -0.00096   2.90475
    R2        2.06454  -0.00001  -0.00001   0.00005   0.00004   2.06458
    R3        2.06574  -0.00001  -0.00001   0.00008   0.00006   2.06581
    R4        2.06888  -0.00002  -0.00001   0.00004   0.00003   2.06891
    R5        2.75106   0.00018  -0.00003   0.00069   0.00066   2.75172
    R6        2.67316   0.00021  -0.00023   0.00231   0.00208   2.67524
    R7        2.93690  -0.00068  -0.00015  -0.00118  -0.00133   2.93557
    R8        1.92303   0.00012  -0.00010   0.00108   0.00098   1.92401
    R9        1.92526   0.00014  -0.00011   0.00115   0.00104   1.92630
   R10        1.84398   0.00005  -0.00023   0.00197   0.00174   1.84572
   R11        2.55499  -0.00072  -0.00015  -0.00006  -0.00021   2.55478
   R12        2.31987   0.00111  -0.00044   0.00469   0.00425   2.32412
   R13        1.90924  -0.00003  -0.00017   0.00129   0.00112   1.91036
   R14        1.90591  -0.00002  -0.00013   0.00102   0.00089   1.90680
    A1        1.91383  -0.00005   0.00002  -0.00043  -0.00041   1.91341
    A2        1.94955  -0.00000  -0.00003   0.00026   0.00022   1.94978
    A3        1.90142  -0.00010  -0.00000  -0.00055  -0.00056   1.90086
    A4        1.90469   0.00002   0.00000   0.00009   0.00009   1.90478
    A5        1.88544   0.00007   0.00003   0.00020   0.00023   1.88567
    A6        1.90780   0.00006  -0.00001   0.00044   0.00043   1.90823
    A7        1.90756   0.00014  -0.00004   0.00246   0.00242   1.90998
    A8        1.92013   0.00008   0.00004  -0.00045  -0.00041   1.91972
    A9        1.90588  -0.00009  -0.00010   0.00078   0.00067   1.90655
   A10        1.95667  -0.00015   0.00004  -0.00161  -0.00157   1.95510
   A11        1.90433   0.00019   0.00015   0.00063   0.00078   1.90511
   A12        1.86839  -0.00018  -0.00010  -0.00183  -0.00194   1.86645
   A13        1.90509   0.00005   0.00009  -0.00084  -0.00075   1.90434
   A14        1.88751  -0.00008   0.00016  -0.00218  -0.00202   1.88549
   A15        1.85277  -0.00008   0.00003  -0.00161  -0.00159   1.85119
   A16        1.82898  -0.00079  -0.00008  -0.00409  -0.00417   1.82480
   A17        2.00889   0.00037   0.00002   0.00188   0.00171   2.01060
   A18        2.09101  -0.00019   0.00005  -0.00065  -0.00077   2.09024
   A19        2.18196  -0.00016  -0.00005   0.00044   0.00021   2.18217
   A20        2.05796  -0.00023   0.00001  -0.00169  -0.00168   2.05628
   A21        2.07784  -0.00008   0.00007  -0.00126  -0.00119   2.07665
   A22        2.10784   0.00029  -0.00010   0.00237   0.00227   2.11010
    D1        3.06959   0.00010  -0.00018   0.00249   0.00231   3.07190
    D2       -1.05812   0.00006  -0.00012   0.00181   0.00169  -1.05643
    D3        0.98762  -0.00017  -0.00028  -0.00021  -0.00049   0.98713
    D4        0.95583   0.00010  -0.00017   0.00250   0.00233   0.95815
    D5        3.11130   0.00007  -0.00011   0.00183   0.00171   3.11301
    D6       -1.12615  -0.00016  -0.00027  -0.00020  -0.00047  -1.12662
    D7       -1.15348   0.00010  -0.00014   0.00215   0.00202  -1.15146
    D8        1.00199   0.00006  -0.00008   0.00148   0.00140   1.00340
    D9        3.04773  -0.00016  -0.00024  -0.00054  -0.00078   3.04696
   D10        0.87475   0.00007  -0.00012   0.00267   0.00255   0.87730
   D11        2.88320  -0.00004   0.00005  -0.00084  -0.00079   2.88241
   D12       -1.25895  -0.00003  -0.00018   0.00260   0.00243  -1.25652
   D13        0.74950  -0.00014  -0.00001  -0.00091  -0.00092   0.74858
   D14        2.95768   0.00016  -0.00017   0.00545   0.00528   2.96297
   D15       -1.31705   0.00005  -0.00001   0.00194   0.00194  -1.31511
   D16        1.74213  -0.00023   0.00043  -0.01280  -0.01238   1.72975
   D17       -2.41453  -0.00010   0.00044  -0.01108  -0.01064  -2.42518
   D18       -0.32682  -0.00007   0.00058  -0.01242  -0.01184  -0.33866
   D19        1.43908   0.00031   0.00004   0.01391   0.01394   1.45303
   D20       -1.65002  -0.00015  -0.00058  -0.01917  -0.01975  -1.66977
   D21       -0.64489   0.00008   0.00005   0.01009   0.01014  -0.63476
   D22        2.54919  -0.00038  -0.00057  -0.02299  -0.02356   2.52563
   D23       -2.76593   0.00025  -0.00002   0.01275   0.01272  -2.75320
   D24        0.42816  -0.00020  -0.00065  -0.02033  -0.02097   0.40719
   D25        0.25539  -0.00021  -0.00030  -0.01671  -0.01702   0.23837
   D26        3.10106  -0.00028  -0.00038  -0.01842  -0.01881   3.08225
   D27       -2.94183   0.00027   0.00036   0.01831   0.01868  -2.92315
   D28       -0.09615   0.00021   0.00028   0.01660   0.01688  -0.07927
         Item               Value     Threshold  Converged?
 Maximum Force            0.001108     0.000450     NO 
 RMS     Force            0.000264     0.000300     YES
 Maximum Displacement     0.023095     0.001800     NO 
 RMS     Displacement     0.007960     0.001200     NO 
 Predicted change in Energy=-3.140281D-05
 Lowest energy point so far.  Saving SCF results.
 GradGradGradGradGradGradGradGradGradGradGradGradGradGradGradGradGradGrad

 Leave Link  103 at Thu Sep  8 15:16:06 2022, MaxMem= 24159191040 cpu:         1.2
 (Enter /public/home/users/caep010/software/Gaussian09/g09/l202.exe)
                          Input orientation:                          
 ---------------------------------------------------------------------
 Center     Atomic      Atomic             Coordinates (Angstroms)
 Number     Number       Type             X           Y           Z
 ---------------------------------------------------------------------
      1          6           0       -0.986803   -0.832586    0.887155
      2          6           0       -0.438282    0.241707   -0.065621
      3          7           0       -0.488145   -0.253332   -1.434130
      4          8           0       -1.167585    1.444996    0.090424
      5          6           0        1.036317    0.554233    0.309953
      6          7           0        1.953852   -0.294314   -0.205619
      7          8           0        1.290304    1.506902    1.045134
      8          1           0       -0.885340   -0.493010    1.920605
      9          1           0       -0.461458   -1.783992    0.769351
     10          1           0       -2.052109   -0.978872    0.681366
     11          1           0       -1.420307   -0.616416   -1.623503
     12          1           0       -0.361634    0.540093   -2.061473
     13          1           0       -0.609311    1.996734    0.671698
     14          1           0        1.657502   -0.917425   -0.944443
     15          1           0        2.933000   -0.114622   -0.040899
 ---------------------------------------------------------------------
                    Distance matrix (angstroms):
                    1          2          3          4          5
     1  C    0.000000
     2  C    1.537129   0.000000
     3  N    2.443882   1.456148   0.000000
     4  O    2.419679   1.415676   2.381223   0.000000
     5  C    2.519810   1.553438   2.453155   2.387223   0.000000
     6  N    3.182977   2.455447   2.733911   3.585555   1.351930
     7  O    3.268543   2.412986   3.522506   2.637521   1.229869
     8  H    1.092531   2.164431   3.386658   2.680502   2.717293
     9  H    1.093178   2.191158   2.683089   3.374303   2.814547
    10  H    1.094818   2.156906   2.729050   2.647024   3.467958
    11  H    2.556963   2.031685   1.018145   2.692738   3.338214
    12  H    3.312022   2.019488   1.019356   2.469629   2.752840
    13  H    2.862512   1.911285   3.084151   0.976710   2.218053
    14  H    3.217809   2.551122   2.298829   3.825323   2.031048
    15  H    4.091651   3.390151   3.696561   4.389129   2.041537
                    6          7          8          9         10
     6  N    0.000000
     7  O    2.291082   0.000000
     8  H    3.552650   3.082129   0.000000
     9  H    3.000571   3.738276   1.780926   0.000000
    10  H    4.159698   4.181283   1.770064   1.784974   0.000000
    11  H    3.674111   4.356319   3.586380   2.829908   2.417223
    12  H    3.082516   3.648921   4.147109   3.664001   3.562039
    13  H    3.548012   1.996979   2.799069   3.784876   3.306962
    14  H    1.010916   3.157627   3.854176   2.859724   4.050709
    15  H    1.009036   2.550933   4.309338   3.868545   5.110764
                   11         12         13         14         15
    11  H    0.000000
    12  H    1.627918   0.000000
    13  H    3.571305   3.106987   0.000000
    14  H    3.166170   2.729290   4.030220   0.000000
    15  H    4.659154   3.919947   4.184924   1.757208   0.000000
 Stoichiometry    C3H8N2O2
 Framework group  C1[X(C3H8N2O2)]
 Deg. of freedom    39
 Full point group                 C1      NOp   1
 RotChk:  IX=0 Diff= 9.50D-03
 Largest Abelian subgroup         C1      NOp   1
 Largest concise Abelian subgroup C1      NOp   1
                         Standard orientation:                         
 ---------------------------------------------------------------------
[...]
 ! A2    A(2,1,9)              111.6953         -DE/DX =    0.0                 !
 ! A3    A(2,1,10)             108.9509         -DE/DX =    0.0                 !
 ! A4    A(8,1,9)              109.1082         -DE/DX =    0.0                 !
 ! A5    A(8,1,10)             108.0705         -DE/DX =    0.0                 !
 ! A6    A(9,1,10)             109.3197         -DE/DX =    0.0                 !
 ! A7    A(1,2,3)              109.4461         -DE/DX =    0.0                 !
 ! A8    A(1,2,4)              110.0616         -DE/DX =    0.0                 !
 ! A9    A(1,2,5)              109.1783         -DE/DX =    0.0                 !
 ! A10   A(3,2,4)              111.9172         -DE/DX =    0.0                 !
 ! A11   A(3,2,5)              109.2419         -DE/DX =    0.0                 !
 ! A12   A(4,2,5)              106.9313         -DE/DX =    0.0                 !
 ! A13   A(2,3,11)             109.1208         -DE/DX =    0.0                 !
 ! A14   A(2,3,12)             108.0207         -DE/DX =    0.0                 !
 ! A15   A(11,3,12)            106.0522         -DE/DX =    0.0                 !
 ! A16   A(2,4,13)             104.5244         -DE/DX =    0.0                 !
 ! A17   A(2,5,6)              115.2402         -DE/DX =    0.0                 !
 ! A18   A(2,5,7)              119.7414         -DE/DX =    0.0                 !
 ! A19   A(6,5,7)              124.9707         -DE/DX =    0.0                 !
 ! A20   A(5,6,14)             117.8626         -DE/DX =    0.0                 !
 ! A21   A(5,6,15)             119.0225         -DE/DX =    0.0                 !
 ! A22   A(14,6,15)            120.9636         -DE/DX =    0.0                 !
 ! D1    D(8,1,2,3)            175.9653         -DE/DX =    0.0                 !
 ! D2    D(8,1,2,4)            -60.6437         -DE/DX =    0.0                 !
 ! D3    D(8,1,2,5)             56.4386         -DE/DX =    0.0                 !
 ! D4    D(9,1,2,3)             54.9086         -DE/DX =    0.0                 !
 ! D5    D(9,1,2,4)            178.2995         -DE/DX =    0.0                 !
 ! D6    D(9,1,2,5)            -64.6181         -DE/DX =    0.0                 !
 ! D7    D(10,1,2,3)           -65.9605         -DE/DX =    0.0                 !
 ! D8    D(10,1,2,4)            57.4305         -DE/DX =    0.0                 !
 ! D9    D(10,1,2,5)           174.5128         -DE/DX =    0.0                 !
 ! D10   D(1,2,3,11)            50.1145         -DE/DX =    0.0                 !
 ! D11   D(1,2,3,12)           164.9831         -DE/DX =    0.0                 !
 ! D12   D(4,2,3,11)           -72.1735         -DE/DX =    0.0                 !
 ! D13   D(4,2,3,12)            42.6952         -DE/DX =    0.0                 !
 ! D14   D(5,2,3,11)           169.602          -DE/DX =    0.0                 !
 ! D15   D(5,2,3,12)           -75.5294         -DE/DX =    0.0                 !
 ! D16   D(1,2,4,13)            98.5308         -DE/DX =    0.0                 !
 ! D17   D(3,2,4,13)          -139.5334         -DE/DX =    0.0                 !
 ! D18   D(5,2,4,13)           -19.9422         -DE/DX =    0.0                 !
 ! D19   D(1,2,5,6)             83.5397         -DE/DX =    0.0                 !
 ! D20   D(1,2,5,7)            -94.0737         -DE/DX =    0.0                 !
 ! D21   D(3,2,5,6)            -36.1132         -DE/DX =    0.0                 !
 ! D22   D(3,2,5,7)            146.2734         -DE/DX =    0.0                 !
 ! D23   D(4,2,5,6)           -157.4135         -DE/DX =    0.0                 !
 ! D24   D(4,2,5,7)             24.973          -DE/DX =    0.0                 !
 ! D25   D(2,5,6,14)            13.9223         -DE/DX =    0.0                 !
 ! D26   D(2,5,6,15)           177.4244         -DE/DX =    0.0                 !
 ! D27   D(7,5,6,14)          -168.6066         -DE/DX =    0.0                 !
 ! D28   D(7,5,6,15)            -5.1045         -DE/DX =    0.0                 !
 --------------------------------------------------------------------------------
 GradGradGradGradGradGradGradGradGradGradGradGradGradGradGradGradGradGrad

 Leave Link  103 at Thu Sep  8 15:16:46 2022, MaxMem= 24159191040 cpu:         1.6
 (Enter /public/home/users/caep010/software/Gaussian09/g09/l9999.exe)
 1\1\GINC-B1376\Freq\RB3LYP\6-31G(d,p)\C3H8N2O2\ROOT\08-Sep-2022\0\\#P 
 Geom=AllCheck Guess=TCheck SCRF=Check GenChk RB3LYP/6-31G(d,p) Freq\\F
 rag_647\\0,1\C,-0.9852988489,-0.8290713355,0.887824699\C,-0.4375451403
 ,0.2423388555,-0.068030021\N,-0.4894219127,-0.2555878565,-1.4351313047
 \O,-1.1661120512,1.4468240874,0.0837248244\C,1.0361282285,0.5550266357
 ,0.3070114054\N,1.9540593399,-0.2905480393,-0.210240493\O,1.2873778743
 ,1.4905820521,1.0626727514\H,-0.881507203,-0.4872949697,1.9202742192\H
 ,-0.4603404171,-1.780922691,0.7714648164\H,-2.0508661729,-0.9758826831
 ,0.6842256974\H,-1.4209468534,-0.6207590328,-1.6218259402\H,-0.3660586
 494,0.5366468849,-2.0640827427\H,-0.611895023,1.9958906918,0.670127793
 4\H,1.6603665277,-0.9095786147,-0.9527130198\H,2.9320603015,-0.1175659
 848,-0.0353046851\\Version=ES64L-G09RevE.01\State=1-A\HF=-379.121593\R
 MSD=1.775e-09\RMSF=2.800e-05\ZeroPoint=0.1251623\Thermal=0.1329803\Dip
 ole=0.2822838,-0.9119968,-0.7418224\DipoleDeriv=0.0175517,-0.0765229,0
 .0569095,0.0012025,0.0099703,0.0468391,-0.0476716,0.0578632,-0.0376106
 ,0.3218773,-0.2158058,-0.0285342,-0.1574356,0.8037972,0.0660929,0.0007
 088,0.0678694,0.7972832,-0.3578177,0.11649,0.0644015,0.0874378,-0.4355
 867,-0.1587222,0.0274872,-0.1905606,-0.6592404,-0.617101,0.2655022,0.1
 033655,0.1017045,-0.8868647,-0.0904193,0.0306897,0.0227579,-0.519488,1
 .0400312,-0.1061579,-0.1154499,-0.2773243,1.0347791,0.5611339,-0.13773
 15,0.6596357,0.6042314,-0.7378277,0.3832997,0.2855804,0.2697371,-0.783
 3729,-0.1149033,0.1025496,-0.0201938,-0.531127,-0.7169369,-0.1564218,-
 0.1445135,0.0692027,-0.8780526,-0.3445496,0.0002993,-0.426687,-0.66278
 87,0.0726766,-0.0128673,-0.0231196,-0.0032545,0.0341298,-0.0600066,-0.
 0061991,-0.022645,-0.0900625,0.0167667,0.0874141,0.0138659,0.0577321,-
 0.09272,0.0060705,0.0211954,-0.0230486,0.0509908,-0.1263431,-0.0471842
 ,-0.0300971,-0.0441077,0.0397569,0.0180286,-0.0399354,0.0065689,0.0383
 853,0.0009428,-0.0981295,-0.0750089,0.0024204,0.2368996,0.0445114,0.00
 07779,0.0100212,0.1587266,0.2077094,-0.0344163,-0.0789518,-0.0492574,0
 .078621,0.1227187,-0.0078593,0.0440929,0.1293833,0.4249088,-0.09954,-0
 .0322182,-0.0117563,0.3118868,0.0003492,0.0074877,-0.0307987,0.2183171
 ,0.2753968,-0.0001613,0.0165947,-0.0194767,0.2858632,-0.0138034,0.0460
 923,-0.0553897,0.2631713,0.1781652,-0.0054991,-0.0128244,-0.0268245,0.
 2408931,-0.0833398,0.0021091,-0.0994856,0.2398283\Polar=54.8368188,-0.
 2878358,49.9669273,0.5735798,6.7858093,47.0240957\PG=C01 [X(C3H8N2O2)]
 \NImag=0\\0.56673746,-0.03778036,0.53149706,0.02807179,0.05985885,0.54
 581708,-0.09760543,-0.02495318,0.01476074,0.48711078,-0.03819402,-0.11
 104282,0.03435895,0.01802050,0.49564168,0.03380888,0.04193908,-0.11435
 028,0.01845455,0.02089819,0.51102204,0.00294366,0.00108137,0.01666037,
 -0.08815007,-0.03025510,-0.03505978,0.49675109,0.00005753,0.00800209,0
 .02589186,-0.01303201,-0.09100187,-0.00638273,0.20392758,0.46974421,-0
 .00244279,-0.00360509,-0.03773154,0.01156861,-0.03968411,-0.18799246,0
 .06218008,-0.10891548,0.50925447,0.00744935,0.00066478,0.00039537,-0.1
 2646268,0.03821427,-0.02565095,0.00912745,0.00092829,0.00402879,0.3359
 4467,0.02331305,-0.04413393,-0.00049371,0.07168693,-0.16529814,0.00518
 017,0.01840954,-0.02905802,-0.02707236,0.02861950,0.40943694,-0.009938
 00,0.01600192,0.00559757,-0.00244560,-0.02254312,-0.07979147,0.0205523
 2,-0.04370340,-0.01387617,0.17556681,0.18301935,0.24446918,-0.01274060
 ,-0.01469106,0.00697369,-0.14397527,-0.00750846,-0.01495612,-0.0023805
 8,-0.00072279,-0.00396803,-0.03237393,0.01502218,-0.00086860,0.6116572
 9,-0.02339879,-0.00522653,-0.00107706,-0.01464796,-0.06864590,0.004981
 21,-0.00661970,-0.00764241,-0.00933613,0.03588975,-0.02113940,-0.00345
 794,-0.01953213,0.71123935,0.02109819,0.00328847,0.00887341,-0.0050048
 3,0.01453832,-0.08016166,-0.03059656,-0.01744450,-0.01682316,-0.004564
 80,-0.00849941,-0.00232128,0.03484548,0.37727248,0.52328579,-0.0024380
 9,0.00124144,-0.00194403,-0.02430872,0.02143242,0.01216939,-0.00656739
 ,-0.00121162,-0.00304040,-0.00834541,0.00161847,-0.00145949,-0.2746891
 3,0.10409414,0.04398988,0.83118652,0.00101236,-0.00228645,0.00073970,0
 .00240887,0.00688265,-0.00123152,-0.00026569,0.00231939,0.00050121,-0.
 00164057,0.00501704,0.00188661,0.10330552,-0.17758804,-0.08334906,-0.0
 0362121,0.44740781,-0.00136171,0.00058083,-0.00005015,-0.00005474,-0.0
 0112022,0.00661212,-0.00406595,0.00055039,0.00196488,-0.00182034,0.004
 04609,0.00274048,0.05418758,-0.09678497,-0.11764276,0.08272783,0.39465
 198,0.42229481,-0.00091603,0.00071114,-0.00152409,-0.00731203,-0.01792
 785,-0.02267364,-0.00434740,-0.00567490,-0.00362416,-0.00800328,-0.009
 79258,-0.00834596,-0.14346133,-0.09659521,-0.08433160,0.02835460,0.032
 65949,0.02935036,0.13584563,0.00044982,0.00188220,-0.00157765,-0.00524
 581,-0.01825684,-0.02251643,-0.00697079,0.00048252,0.00057107,0.005437
 76,0.01043445,0.00565427,-0.10539215,-0.41824541,-0.28095146,0.0138830
 5,-0.05400541,-0.05264411,0.10233973,0.47766383,-0.00297806,0.00078414
 ,-0.00394548,-0.01287224,-0.02399523,-0.00033828,-0.00184046,-0.000009
 02,0.00010726,0.00169936,-0.00072831,0.00346007,-0.08960029,-0.2789078
 1,-0.30314009,0.01381698,-0.05156173,-0.01574439,0.09376462,0.35427386
 ,0.32109826,-0.05045274,-0.00926370,-0.02726757,-0.00045159,0.00530198
 ,0.01189768,-0.00087265,-0.00249781,0.00230324,-0.00064578,0.00086435,
 -0.00068946,0.00024201,0.00119594,0.00192359,0.00002240,-0.00029709,-0
 .00030405,0.00000157,-0.00004612,-0.00095876,0.05112082,-0.00812618,-0
 .07721446,-0.08511384,0.00345183,0.00757759,0.02177453,-0.00199396,-0.
 00309444,0.00376187,-0.00027333,0.00180641,-0.00133167,0.00030884,0.00
 139812,0.00082110,0.00012916,-0.00032815,-0.00019026,0.00037429,-0.000
 13807,-0.00065741,0.01091078,0.07970862,-0.02554613,-0.08099816,-0.289
 04441,-0.00190859,-0.00948648,-0.01881818,0.00200437,0.00423861,-0.002
 55775,-0.00022306,-0.00039629,0.00311142,-0.00104945,-0.00158746,-0.00
 170460,0.00022006,0.00029019,0.00044001,0.00000372,0.00065362,0.001658
 48,0.02643178,0.08827909,0.31331800,-0.11332754,0.11364035,0.01497421,
 0.00491389,-0.00970606,-0.00315759,0.00017725,0.00001128,-0.00037637,0
 .00147779,-0.00340507,0.00179105,0.00066504,-0.00058265,-0.00044478,-0
 .00037987,0.00025962,-0.00002383,-0.00017751,0.00015589,0.00023480,0.0
 0135121,-0.00455036,-0.00010713,0.11792299,0.11115057,-0.25017446,-0.0
 2487374,0.01211679,-0.01594437,-0.00748942,-0.00015021,0.00215078,-0.0
 0090433,-0.00136340,-0.00604272,0.00365439,0.00190434,-0.00177435,-0.0
 0053081,-0.00052974,0.00166600,-0.00039766,-0.00083013,0.00076773,0.00
 039355,0.00390289,-0.00729376,-0.00007490,-0.12356118,0.27117959,0.015
 66991,-0.02771374,-0.05320395,-0.01197083,0.01429987,0.00353720,0.0002
 8152,-0.00081798,0.00006474,0.00081414,0.00591018,-0.00049544,-0.00029
 781,-0.00042520,0.00013760,-0.00001685,0.00010511,-0.00013944,0.000039
 80,-0.00018232,0.00014168,0.01576886,-0.02632674,-0.00075979,-0.017264
 25,0.02784828,0.05190467,-0.29961063,-0.03263919,-0.05098891,-0.015174
 67,-0.00207199,-0.00285354,0.00130915,0.00045702,-0.00065235,0.0025629
 9,0.00078013,0.00010212,0.00150157,-0.00080601,0.00264956,-0.00044307,
 -0.00031737,0.00003870,-0.00018163,-0.00043017,-0.00055952,-0.00175922
 ,0.00016247,-0.00005669,-0.01244989,-0.00288223,-0.00291244,0.32421846
 ,-0.03110818,-0.05091473,-0.00736244,-0.02656974,-0.00628081,-0.002956
 73,0.00110574,0.00039023,-0.00189648,0.00145818,0.00270265,-0.00069185
 ,0.00200145,-0.00306147,0.00405299,-0.00085532,0.00109308,-0.00048754,
 -0.00072472,-0.00026839,-0.00104016,-0.00997688,-0.00199224,-0.0013955
 9,0.02750371,0.00586523,0.00647249,0.03732797,0.05164272,-0.05114744,-
 0.00721333,-0.05688949,0.02409129,0.00494559,0.00158715,0.00039587,0.0
 0036488,0.00217409,-0.00094348,-0.00244422,0.00011219,-0.00120286,0.00
 176266,-0.00393538,0.00094322,-0.00030082,0.00037088,0.00053180,0.0004
 1773,0.00162391,-0.03058740,-0.00315659,-0.00433975,0.00423254,0.00088
 915,-0.00031311,0.05421777,0.00520571,0.05985260,0.00189369,0.00088258
 ,0.00109007,-0.00457105,0.00408840,0.00289945,-0.36141539,-0.15769430,
 -0.06594366,0.00086726,0.00027695,0.00136340,0.00171141,0.00041001,-0.
 00011951,-0.00057281,0.00009622,-0.00061556,-0.00043506,-0.00104580,-0
 .00092577,-0.00001053,-0.00010892,0.00038421,-0.00017634,0.00020102,-0
 .00038585,0.00006450,0.00039277,-0.00041818,0.36903238,0.00133071,0.00
 038324,0.00158272,-0.01330585,-0.00772422,-0.00842143,-0.10912252,-0.0
 7148775,-0.00755282,0.00054436,0.00103754,0.00072326,0.00180031,0.0005
 4810,-0.00071867,0.00129372,0.00009945,0.00086001,0.00036793,0.0003413
 3,0.00049079,-0.00000749,-0.00054655,0.00007922,0.00048357,-0.00036478
 ,0.00029309,-0.00005835,0.00083910,-0.00017326,0.14899763,0.08946200,-
 0.00169988,-0.00045565,0.00175125,-0.04000365,-0.01383189,-0.01022428,
 -0.05228427,-0.01292052,-0.06751232,0.00135443,0.00123498,0.00111640,0
 .00417972,-0.00196973,-0.00627369,-0.00016825,0.00028130,0.00102916,-0
 .00246965,-0.00177733,-0.00062400,0.00050657,-0.00007537,0.00057055,0.
 00001417,0.00012999,-0.00013698,0.00151180,0.00046802,-0.00078898,0.06
 492654,0.01906524,0.07641510,0.00055990,-0.00010107,0.00036442,-0.0013
 2696,0.00488941,0.00537013,-0.04236380,-0.03113488,-0.00497058,-0.0008
 4475,-0.00227829,-0.00156378,0.00199753,-0.00031410,-0.00220598,-0.001
 41521,-0.00040279,0.00150385,-0.00091438,0.00046509,0.00047486,0.00081
 112,-0.00016343,-0.00003197,-0.00008325,-0.00028889,0.00003132,0.00042
 300,0.00014965,-0.00034552,-0.00652239,-0.03056220,0.02517797,0.048403
 58,0.00038413,0.00005820,-0.00174317,0.00442316,0.00829803,-0.01384307
 ,-0.06720155,-0.27607219,0.19388832,-0.00024991,0.00096353,0.00085788,
 -0.00058388,0.00131059,0.00112060,0.00083190,-0.00001495,-0.00088901,0
 .00027319,-0.00082395,-0.00037890,0.00000510,0.00067007,-0.00044281,-0
 .00013364,0.00017105,-0.00022211,0.00006514,-0.00004182,-0.00015704,0.
 00432982,-0.01336498,0.00944272,0.05811275,0.27957832,-0.00175810,-0.0
 0416894,-0.00680791,0.00405842,0.03393790,-0.02849497,0.02176257,0.162
 33803,-0.18230703,-0.00015890,0.00066057,0.00609095,0.00045509,0.00072
 780,0.00006073,0.00014814,-0.00013064,0.00013831,0.00020376,-0.0007059
 1,-0.00013212,0.00098448,0.00160702,-0.00121687,-0.00023530,-0.0001300
 5,0.00040601,0.00007945,-0.00019299,0.00032823,-0.00231032,-0.00615626
 ,0.00512124,-0.02219003,-0.18802617,0.20672789,-0.00185396,0.00123261,
 -0.00091910,0.01778124,0.00649715,0.01292975,-0.00565606,0.00731160,0.
 00542290,-0.17952707,-0.14357580,-0.17270924,-0.00510912,0.01936799,0.
 01152946,0.00204557,-0.00581723,-0.00434137,0.00294890,-0.00966727,-0.
 00235602,0.00040218,-0.00013800,0.00018811,0.00025116,0.00079329,-0.00
 020465,-0.00038441,-0.00039254,0.00010574,-0.00059594,-0.00015562,-0.0
 0047228,0.00093890,-0.00038297,-0.00065555,0.16775115,0.00078923,-0.00
 158017,-0.00045873,-0.01628805,-0.03274336,-0.02616766,0.00161829,-0.0
 0236877,0.00020805,-0.10880494,-0.16506120,-0.14050711,0.00407312,-0.0
 0174774,-0.00330746,-0.00134031,-0.00009587,-0.00041442,-0.00501587,-0
 .00170255,0.00136764,-0.00008064,-0.00045473,0.00076186,0.00015587,0.0
 0009147,0.00053996,0.00023228,0.00013582,-0.00010837,0.00025894,-0.000
 33221,0.00004743,0.00013362,0.00006623,0.00010017,0.12437758,0.2055924
 5,-0.00116011,0.00241478,0.00056404,0.00048086,-0.00664058,-0.00607625
 ,0.00151886,-0.00407611,-0.00169681,-0.15191277,-0.16046171,-0.1694938
 6,-0.00020691,0.00368823,0.00453902,-0.00047513,-0.00230837,-0.0016407
 2,0.00101257,-0.00113428,-0.00520257,-0.00009621,0.00049383,-0.0005242
 6,-0.00005035,0.00079951,-0.00096461,-0.00023846,-0.00025656,0.0000680
 3,0.00003134,-0.00000961,-0.00025163,-0.00030000,-0.00058039,0.0001406
 3,0.15158313,0.16806896,0.18038526,-0.00079734,0.00003181,-0.00061095,
 -0.00135588,0.00358498,0.00575344,0.00067536,-0.00074542,-0.00099535,-
 0.00021333,-0.00206130,-0.00160382,0.02139636,0.00839392,0.01606344,-0
 .10638126,-0.06374282,-0.08392695,-0.00578982,0.00837382,0.00360277,0.
 00030580,0.00004563,-0.00035921,-0.00006515,-0.00025410,0.00037365,-0.
 00013201,-0.00022184,0.00012754,0.00047434,-0.00141288,-0.00054088,0.0
 0058922,0.00003571,-0.00034424,0.00137766,-0.00007821,0.00010393,0.089
 70239,-0.00081875,0.00070934,-0.00019217,0.00083471,-0.00128466,-0.000
 05427,-0.00210508,-0.00280115,0.00030555,-0.00032544,0.00018812,0.0003
 8633,-0.00711024,-0.01925208,-0.01437360,-0.06404295,-0.17510274,-0.20
 003076,0.00479615,0.00328565,-0.00307904,0.00009674,-0.00011784,0.0000
 0999,-0.00026396,-0.00042860,0.00035281,0.00000231,-0.00036302,0.00012
 691,-0.00110207,0.00105690,0.00033431,0.00156281,-0.00081670,-0.000000
 15,0.00005262,-0.00000368,-0.00029092,0.06589528,0.19660935,0.00018840
 ,-0.00061937,-0.00047264,0.00159213,0.00016555,0.00236889,0.00000411,0
 .00056937,-0.00324534,-0.00041539,0.00008885,-0.00091893,-0.00230647,-
 0.00435044,-0.01295666,-0.08523440,-0.21335249,-0.25006431,0.00035208,
 -0.00172052,0.00554426,-0.00000633,0.00010853,-0.00007804,0.00036488,0
 .00067963,-0.00020900,-0.00029634,0.00021263,0.00008566,0.00019283,-0.
 00048976,-0.00041628,-0.00125183,0.00091695,0.00004226,-0.00007830,-0.
 00036768,-0.00022312,0.08307736,0.21220341,0.26051442,0.00015831,-0.00
 005752,-0.00003602,0.00088844,0.00363439,0.00106833,0.00076940,0.00002
 043,0.00051006,-0.00101329,0.00052194,0.00024825,-0.02444125,-0.006855
 19,-0.00483155,-0.43606814,-0.06363730,-0.07129379,0.00438779,-0.00230
 706,-0.00150227,-0.00006461,-0.00002883,0.00004999,-0.00009979,-0.0002
 0903,0.00007351,0.00005586,-0.00009024,-0.00000091,0.00025593,-0.00019
 332,-0.00003234,-0.00025251,0.00009104,-0.00003947,-0.00037020,-0.0000
 3090,-0.00029076,0.00021366,0.00252787,0.00381727,0.45558040,0.0009388
 8,0.00004142,0.00046043,0.00109983,-0.00017696,-0.00570991,-0.00145792
 ,0.00043739,-0.00026928,0.00090070,-0.00085326,0.00005108,0.02712496,0
 .00982717,0.00808102,-0.07292316,-0.05506380,-0.04773035,-0.00496065,-
 0.00141708,0.00304763,-0.00010806,0.00001944,0.00006912,-0.00000737,0.
 00013117,-0.00013372,0.00017800,0.00025364,-0.00015901,0.00001674,0.00
 005282,0.00002652,-0.00006769,0.00001854,0.00013962,0.00049658,0.00020
 431,0.00029321,-0.01784458,-0.00167890,0.00595536,0.06661373,0.0482041
 1,-0.00080494,-0.00009379,-0.00010751,-0.00074611,-0.00584273,0.001120
 43,-0.00151306,0.00031660,0.00017714,0.00183078,-0.00004418,0.00019888
 ,0.01381498,0.00946437,0.00806274,-0.06167694,-0.04622148,-0.05030888,
 -0.00228963,0.00163945,-0.00450698,0.00009359,0.00000589,-0.00005481,0
 .00004793,0.00000641,0.00003043,-0.00004116,-0.00013151,0.00006399,-0.
 00016899,0.00042749,0.00022447,-0.00006286,0.00005621,-0.00009734,-0.0
 0002259,0.00023738,0.00037687,-0.02072072,0.00430160,0.00002883,0.0722
 5971,0.03587828,0.04479175\\-0.00000732,0.00002262,-0.00001583,0.00004
 249,0.00001791,0.00005823,0.00000269,-0.00001725,-0.00003911,0.0000185
 7,0.00002981,0.00001828,-0.00000136,0.00006123,0.00006711,-0.00001916,
 -0.00002803,0.00001670,-0.00001420,-0.00008574,-0.00007573,0.00000058,
 0.00000035,0.00000021,-0.00000588,-0.00000127,0.00000140,0.00000135,0.
 00000191,0.00000163,0.00000329,0.00001138,0.00000196,-0.00000441,-0.00
 000285,0.00000632,-0.00001554,-0.00002250,-0.00002606,0.00001530,0.000
 01126,0.00000054,-0.00001640,0.00000118,-0.00001566\\\@


 CONFIDENCE: THAT QUIET ASSURED FEELING YOU HAVE
 JUST BEFORE YOU FALL FLAT ON YOUR FACE.
 Job cpu time:       0 days  0 hours  6 minutes 32.1 seconds.
 File lengths (MBytes):  RWF=     40 Int=      0 D2E=      0 Chk=      3 Scr=      1
 Normal termination of Gaussian 09 at Thu Sep  8 15:16:47 2022.
