 Entering Gaussian System, Link 0=g09
 Input=B3LYP6-31Gdp.Frag_1131.gjf
 Output=B3LYP6-31Gdp.Frag_1131.log
 Initial command:
 /public/home/users/caep010/software/Gaussian09/g09/l1.exe "/public/home/users/caep010/.cache/gau_scr/Gau-79020.inp" -scrdir="/public/home/users/caep010/.cache/gau_scr/"
 Entering Link 1 = /public/home/users/caep010/software/Gaussian09/g09/l1.exe PID=     79021.
  
 Copyright (c) 1988,1990,1992,1993,1995,1998,2003,2009,2015,
            Gaussian, Inc.  All Rights Reserved.
  
 This is part of the Gaussian(R) 09 program.  It is based on
 the Gaussian(R) 03 system (copyright 2003, Gaussian, Inc.),
 the Gaussian(R) 98 system (copyright 1998, Gaussian, Inc.),
 the Gaussian(R) 94 system (copyright 1995, Gaussian, Inc.),
 the Gaussian 92(TM) system (copyright 1992, Gaussian, Inc.),
 the Gaussian 90(TM) system (copyright 1990, Gaussian, Inc.),
 the Gaussian 88(TM) system (copyright 1988, Gaussian, Inc.),
 the Gaussian 86(TM) system (copyright 1986, Carnegie Mellon
 University), and the Gaussian 82(TM) system (copyright 1983,
 Carnegie Mellon University). Gaussian is a federally registered
 trademark of Gaussian, Inc.
  
 This software contains proprietary and confidential information,
 including trade secrets, belonging to Gaussian, Inc.
  
 This software is provided under written license and may be
 used, copied, transmitted, or stored only in accord with that
 written license.
  
 The following legend is applicable only to US Government
 contracts under FAR:
  
                    RESTRICTED RIGHTS LEGEND
  
 Use, reproduction and disclosure by the US Government is
 subject to restrictions as set forth in subparagraphs (a)
 and (c) of the Commercial Computer Software - Restricted
 Rights clause in FAR 52.227-19.
  
 Gaussian, Inc.
 340 Quinnipiac St., Bldg. 40, Wallingford CT 06492
  
  
 ---------------------------------------------------------------
 Warning -- This program may not be used in any manner that
 competes with the business of Gaussian, Inc. or will provide
 assistance to any competitor of Gaussian, Inc.  The licensee
 of this program is prohibited from giving any competitor of
 Gaussian, Inc. access to this program.  By using this program,
 the user acknowledges that Gaussian, Inc. is engaged in the
 business of creating and licensing software in the field of
 computational chemistry and represents and warrants to the
 licensee that it is not a competitor of Gaussian, Inc. and that
 it will not use this program in any manner prohibited above.
 ---------------------------------------------------------------
  

 Cite this work as:
 Gaussian 09, Revision E.01,
 M. J. Frisch, G. W. Trucks, H. B. Schlegel, G. E. Scuseria, 
 M. A. Robb, J. R. Cheeseman, G. Scalmani, V. Barone, B. Mennucci, 
 G. A. Petersson, H. Nakatsuji, M. Caricato, X. Li, H. P. Hratchian, 
 A. F. Izmaylov, J. Bloino, G. Zheng, J. L. Sonnenberg, M. Hada, 
 M. Ehara, K. Toyota, R. Fukuda, J. Hasegawa, M. Ishida, T. Nakajima, 
 Y. Honda, O. Kitao, H. Nakai, T. Vreven, J. A. Montgomery, Jr., 
 J. E. Peralta, F. Ogliaro, M. Bearpark, J. J. Heyd, E. Brothers, 
 K. N. Kudin, V. N. Staroverov, T. Keith, R. Kobayashi, J. Normand, 
 K. Raghavachari, A. Rendell, J. C. Burant, S. S. Iyengar, J. Tomasi, 
 M. Cossi, N. Rega, J. M. Millam, M. Klene, J. E. Knox, J. B. Cross, 
 V. Bakken, C. Adamo, J. Jaramillo, R. Gomperts, R. E. Stratmann, 
 O. Yazyev, A. J. Austin, R. Cammi, C. Pomelli, J. W. Ochterski, 
 R. L. Martin, K. Morokuma, V. G. Zakrzewski, G. A. Voth, 
 P. Salvador, J. J. Dannenberg, S. Dapprich, A. D. Daniels, 
 O. Farkas, J. B. Foresman, J. V. Ortiz, J. Cioslowski, 
 and D. J. Fox, Gaussian, Inc., Wallingford CT, 2013.
 
 ******************************************
 Gaussian 09:  ES64L-G09RevE.01 30-Nov-2015
                 8-Sep-2022 
 ******************************************
 %nproc=32
 Will use up to   32 processors via shared memory.
 %mem=180GB
 %chk=B3LYP6-31Gdp.Frag_1131.chk
 ----------------------------
 #P OPT Freq B3LYP/6-31G(d,p)
 ----------------------------
 1/14=-1,18=20,19=15,26=3,38=1/1,3;
 2/9=110,12=2,17=6,18=5,40=1/2;
 3/5=1,6=6,7=101,11=2,16=1,25=1,30=1,71=1,74=-5/1,2,3;
 4//1;
 5/5=2,38=5/2;
 6/7=2,8=2,9=2,10=2,28=1/1;
 7//1,2,3,16;
 1/14=-1,18=20,19=15,26=3/3(2);
 2/9=110/2;
 99//99;
 2/9=110/2;
 3/5=1,6=6,7=101,11=2,16=1,25=1,30=1,71=1,74=-5/1,2,3;
 4/5=5,16=3,69=1/1;
 5/5=2,38=5/2;
 7//1,2,3,16;
 1/14=-1,18=20,19=15,26=3/3(-5);
 2/9=110/2;
 6/7=2,8=2,9=2,10=2,19=2,28=1/1;
 99/9=1/99;
 Leave Link    1 at Thu Sep  8 14:48:25 2022, MaxMem= 24159191040 cpu:         2.2
 (Enter /public/home/users/caep010/software/Gaussian09/g09/l101.exe)
 ---------
 Frag_1131
 ---------
 Symbolic Z-matrix:
 Charge =  0 Multiplicity = 1
 C                     1.5114   -0.71797  -0.10682 
 N                     0.62405   0.35113   0.36015 
 O                     1.22916   1.53873  -0.1632 
 N                    -0.6496    0.23487  -0.40655 
 C                    -1.44431  -0.82032   0.22863 
 O                    -1.35877   1.43307  -0.07212 
 H                     2.49742  -0.52721   0.318 
 H                     1.15088  -1.67747   0.267 
 H                     1.57678  -0.74284  -1.20205 
 H                     0.97844   2.19081   0.50076 
 H                    -1.5148   -0.67839   1.31459 
 H                    -0.99958  -1.79179   0.00771 
 H                    -2.4402   -0.7847   -0.21413 
 H                    -1.16086   1.99197  -0.83197 
 
 NAtoms=     14 NQM=       14 NQMF=       0 NMMI=      0 NMMIF=      0
                NMic=       0 NMicF=      0.
                    Isotopes and Nuclear Properties:
 (Nuclear quadrupole moments (NQMom) in fm**2, nuclear magnetic moments (NMagM)
  in nuclear magnetons)

  Atom         1           2           3           4           5           6           7           8           9          10
 IAtWgt=          12          14          16          14          12          16           1           1           1           1
 AtmWgt=  12.0000000  14.0030740  15.9949146  14.0030740  12.0000000  15.9949146   1.0078250   1.0078250   1.0078250   1.0078250
 NucSpn=           0           2           0           2           0           0           1           1           1           1
 AtZEff=   0.0000000   0.0000000   0.0000000   0.0000000   0.0000000   0.0000000   0.0000000   0.0000000   0.0000000   0.0000000
 NQMom=    0.0000000   2.0440000   0.0000000   2.0440000   0.0000000   0.0000000   0.0000000   0.0000000   0.0000000   0.0000000
 NMagM=    0.0000000   0.4037610   0.0000000   0.4037610   0.0000000   0.0000000   2.7928460   2.7928460   2.7928460   2.7928460
 AtZNuc=   6.0000000   7.0000000   8.0000000   7.0000000   6.0000000   8.0000000   1.0000000   1.0000000   1.0000000   1.0000000

  Atom        11          12          13          14
 IAtWgt=           1           1           1           1
 AtmWgt=   1.0078250   1.0078250   1.0078250   1.0078250
 NucSpn=           1           1           1           1
 AtZEff=   0.0000000   0.0000000   0.0000000   0.0000000
 NQMom=    0.0000000   0.0000000   0.0000000   0.0000000
 NMagM=    2.7928460   2.7928460   2.7928460   2.7928460
 AtZNuc=   1.0000000   1.0000000   1.0000000   1.0000000
 Leave Link  101 at Thu Sep  8 14:48:25 2022, MaxMem= 24159191040 cpu:        10.5
 (Enter /public/home/users/caep010/software/Gaussian09/g09/l103.exe)

 GradGradGradGradGradGradGradGradGradGradGradGradGradGradGradGradGradGrad
 Berny optimization.
 Initialization pass.
                           ----------------------------
                           !    Initial Parameters    !
                           ! (Angstroms and Degrees)  !
 --------------------------                            --------------------------
 ! Name  Definition              Value          Derivative Info.                !
 --------------------------------------------------------------------------------
 ! R1    R(1,2)                  1.4657         estimate D2E/DX2                !
 ! R2    R(1,7)                  1.0905         estimate D2E/DX2                !
 ! R3    R(1,8)                  1.091          estimate D2E/DX2                !
 ! R4    R(1,9)                  1.0975         estimate D2E/DX2                !
 ! R5    R(2,3)                  1.4319         estimate D2E/DX2                !
 ! R6    R(2,4)                  1.4911         estimate D2E/DX2                !
 ! R7    R(3,10)                 0.9638         estimate D2E/DX2                !
 ! R8    R(4,5)                  1.4657         estimate D2E/DX2                !
 ! R9    R(4,6)                  1.4319         estimate D2E/DX2                !
 ! R10   R(5,11)                 1.0975         estimate D2E/DX2                !
 ! R11   R(5,12)                 1.091          estimate D2E/DX2                !
 ! R12   R(5,13)                 1.0905         estimate D2E/DX2                !
 ! R13   R(6,14)                 0.9638         estimate D2E/DX2                !
 ! A1    A(2,1,7)              107.1997         estimate D2E/DX2                !
 ! A2    A(2,1,8)              109.4053         estimate D2E/DX2                !
 ! A3    A(2,1,9)              111.7485         estimate D2E/DX2                !
 ! A4    A(7,1,8)              108.6112         estimate D2E/DX2                !
 ! A5    A(7,1,9)              109.8091         estimate D2E/DX2                !
 ! A6    A(8,1,9)              109.9801         estimate D2E/DX2                !
 ! A7    A(1,2,3)              103.4538         estimate D2E/DX2                !
 ! A8    A(1,2,4)              107.2425         estimate D2E/DX2                !
 ! A9    A(3,2,4)              103.75           estimate D2E/DX2                !
 ! A10   A(2,3,10)             101.5028         estimate D2E/DX2                !
 ! A11   A(2,4,5)              107.2425         estimate D2E/DX2                !
 ! A12   A(2,4,6)              103.75           estimate D2E/DX2                !
 ! A13   A(5,4,6)              103.4538         estimate D2E/DX2                !
 ! A14   A(4,5,11)             111.7484         estimate D2E/DX2                !
 ! A15   A(4,5,12)             109.4052         estimate D2E/DX2                !
 ! A16   A(4,5,13)             107.1996         estimate D2E/DX2                !
 ! A17   A(11,5,12)            109.9802         estimate D2E/DX2                !
 ! A18   A(11,5,13)            109.8092         estimate D2E/DX2                !
 ! A19   A(12,5,13)            108.6113         estimate D2E/DX2                !
 ! A20   A(4,6,14)             101.5029         estimate D2E/DX2                !
 ! D1    D(7,1,2,3)             60.7753         estimate D2E/DX2                !
 ! D2    D(7,1,2,4)            170.0526         estimate D2E/DX2                !
 ! D3    D(8,1,2,3)            178.3722         estimate D2E/DX2                !
 ! D4    D(8,1,2,4)            -72.3505         estimate D2E/DX2                !
 ! D5    D(9,1,2,3)            -59.5843         estimate D2E/DX2                !
 ! D6    D(9,1,2,4)             49.6931         estimate D2E/DX2                !
 ! D7    D(1,2,3,10)          -149.8439         estimate D2E/DX2                !
 ! D8    D(4,2,3,10)            98.2979         estimate D2E/DX2                !
 ! D9    D(1,2,4,5)             80.7482         estimate D2E/DX2                !
 ! D10   D(1,2,4,6)           -170.1806         estimate D2E/DX2                !
 ! D11   D(3,2,4,5)           -170.1806         estimate D2E/DX2                !
 ! D12   D(3,2,4,6)            -61.1094         estimate D2E/DX2                !
 ! D13   D(2,4,5,11)            49.6932         estimate D2E/DX2                !
 ! D14   D(2,4,5,12)           -72.3504         estimate D2E/DX2                !
 ! D15   D(2,4,5,13)           170.0528         estimate D2E/DX2                !
 ! D16   D(6,4,5,11)           -59.5841         estimate D2E/DX2                !
 ! D17   D(6,4,5,12)           178.3724         estimate D2E/DX2                !
 ! D18   D(6,4,5,13)            60.7755         estimate D2E/DX2                !
 ! D19   D(2,4,6,14)            98.2978         estimate D2E/DX2                !
 ! D20   D(5,4,6,14)          -149.844          estimate D2E/DX2                !
 --------------------------------------------------------------------------------
 Trust Radius=3.00D-01 FncErr=1.00D-07 GrdErr=1.00D-06
 Number of steps in this run=     63 maximum allowed number of steps=    100.
 GradGradGradGradGradGradGradGradGradGradGradGradGradGradGradGradGradGrad

 Leave Link  103 at Thu Sep  8 14:48:25 2022, MaxMem= 24159191040 cpu:         0.4
 (Enter /public/home/users/caep010/software/Gaussian09/g09/l202.exe)
                          Input orientation:                          
 ---------------------------------------------------------------------
 Center     Atomic      Atomic             Coordinates (Angstroms)
 Number     Number       Type             X           Y           Z
 ---------------------------------------------------------------------
      1          6           0        1.511399   -0.717969   -0.106821
      2          7           0        0.624046    0.351125    0.360148
      3          8           0        1.229157    1.538729   -0.163202
      4          7           0       -0.649604    0.234866   -0.406550
      5          6           0       -1.444311   -0.820315    0.228628
      6          8           0       -1.358767    1.433074   -0.072119
      7          1           0        2.497419   -0.527214    0.318004
      8          1           0        1.150883   -1.677466    0.267003
      9          1           0        1.576779   -0.742837   -1.202054
     10          1           0        0.978441    2.190805    0.500757
     11          1           0       -1.514798   -0.678390    1.314591
     12          1           0       -0.999577   -1.791786    0.007708
     13          1           0       -2.440203   -0.784697   -0.214126
     14          1           0       -1.160864    1.991974   -0.831967
 ---------------------------------------------------------------------
                    Distance matrix (angstroms):
                    1          2          3          4          5
     1  C    0.000000
     2  N    1.465748   0.000000
     3  O    2.274978   1.431942   0.000000
     4  N    2.380686   1.491149   2.299787   0.000000
     5  C    2.976445   2.380687   3.586928   1.465748   0.000000
     6  O    3.586927   2.299786   2.591681   1.431942   2.274979
     7  H    1.090458   2.069488   2.471471   3.318056   3.953623
     8  H    1.091032   2.097955   3.245784   2.711538   2.733352
     9  H    1.097464   2.131884   2.530928   2.558420   3.343627
    10  H    3.018967   1.878773   0.963796   2.701746   3.874355
    11  H    3.343628   2.558421   3.824759   2.131883   1.097464
    12  H    2.733350   2.711537   4.011084   2.097954   1.091032
    13  H    3.953622   3.318057   4.343398   2.069488   1.090459
    14  H    3.874354   2.701745   2.522871   1.878775   3.018969
                    6          7          8          9         10
     6  O    0.000000
     7  H    4.343397   0.000000
     8  H    4.011085   1.771677   0.000000
     9  H    3.824758   1.790153   1.792497   0.000000
    10  H    2.522872   3.119026   3.879162   3.444391   0.000000
    11  H    2.530927   4.136898   3.033389   3.986917   3.887267
    12  H    3.245784   3.731542   2.169051   3.033386   4.474001
    13  H    2.471473   4.972884   3.731544   4.136895   4.588224
    14  H    0.963797   4.588221   4.474003   3.887267   2.528302
                   11         12         13         14
    11  H    0.000000
    12  H    1.792497   0.000000
    13  H    1.790154   1.771678   0.000000
    14  H    3.444390   3.879163   3.119028   0.000000
 Stoichiometry    C2H8N2O2
 Framework group  C1[X(C2H8N2O2)]
 Deg. of freedom    36
 Full point group                 C1      NOp   1
 Largest Abelian subgroup         C1      NOp   1
 Largest concise Abelian subgroup C1      NOp   1
                         Standard orientation:                         
 ---------------------------------------------------------------------
 Center     Atomic      Atomic             Coordinates (Angstroms)
 Number     Number       Type             X           Y           Z
 ---------------------------------------------------------------------
      1          6           0        1.481521    1.106176    0.141059
      2          7           0        0.631582    0.039707   -0.396215
      3          8           0        1.295656   -1.158063    0.021888
      4          7           0       -0.631582    0.039707    0.396215
      5          6           0       -1.481523    1.106175   -0.141059
      6          8           0       -1.295655   -1.158065   -0.021888
      7          1           0        2.466756    0.992528   -0.312258
      8          1           0        1.074129    2.075597   -0.149809
      9          1           0        1.565840    1.047410    1.233700
     10          1           0        1.060511   -1.766019   -0.688040
     11          1           0       -1.565844    1.047406   -1.233700
     12          1           0       -1.074129    2.075596    0.149807
     13          1           0       -2.466757    0.992526    0.312261
     14          1           0       -1.060507   -1.766022    0.688039
 ---------------------------------------------------------------------
 Rotational constants (GHZ):      5.0338444      3.4031275      2.1915978
 Leave Link  202 at Thu Sep  8 14:48:25 2022, MaxMem= 24159191040 cpu:         0.5
 (Enter /public/home/users/caep010/software/Gaussian09/g09/l301.exe)
 Standard basis: 6-31G(d,p) (6D, 7F)
 Ernie: Thresh=  0.10000D-02 Tol=  0.10000D-05 Strict=F.
 There are   130 symmetry adapted cartesian basis functions of A   symmetry.
 There are   130 symmetry adapted basis functions of A   symmetry.
   130 basis functions,   224 primitive gaussians,   130 cartesian basis functions
    25 alpha electrons       25 beta electrons
       nuclear repulsion energy       274.4553778048 Hartrees.
 IExCor=  402 DFT=T Ex+Corr=B3LYP ExCW=0 ScaHFX=  0.200000
 ScaDFX=  0.800000  0.720000  1.000000  0.810000 ScalE2=  1.000000  1.000000
 IRadAn=      0 IRanWt=     -1 IRanGd=            0 ICorTp=0 IEmpDi=  4
 NAtoms=   14 NActive=   14 NUniq=   14 SFac= 1.00D+00 NAtFMM=   60 NAOKFM=F Big=F
 Integral buffers will be    131072 words long.
 Raffenetti 2 integral format.
 Two-electron integral symmetry is turned on.
 Leave Link  301 at Thu Sep  8 14:48:26 2022, MaxMem= 24159191040 cpu:         2.1
 (Enter /public/home/users/caep010/software/Gaussian09/g09/l302.exe)
 NPDir=0 NMtPBC=     1 NCelOv=     1 NCel=       1 NClECP=     1 NCelD=      1
         NCelK=      1 NCelE2=     1 NClLst=     1 CellRange=     0.0.
 One-electron integrals computed using PRISM.
 NBasis=   130 RedAO= T EigKep=  3.80D-03  NBF=   130
 NBsUse=   130 1.00D-06 EigRej= -1.00D+00 NBFU=   130
 Precomputing XC quadrature grid using
 IXCGrd= 4 IRadAn=           0 IRanWt=          -1 IRanGd=           0 AccXCQ= 0.00D+00.
 Generated NRdTot=       0 NPtTot=           0 NUsed=           0 NTot=          32
 NSgBfM=   130   130   130   130   130 MxSgAt=    14 MxSgA2=    14.
 Leave Link  302 at Thu Sep  8 14:48:26 2022, MaxMem= 24159191040 cpu:        11.4
 (Enter /public/home/users/caep010/software/Gaussian09/g09/l303.exe)
 DipDrv:  MaxL=1.
 Leave Link  303 at Thu Sep  8 14:48:26 2022, MaxMem= 24159191040 cpu:         1.7
 (Enter /public/home/users/caep010/software/Gaussian09/g09/l401.exe)
 ExpMin= 1.61D-01 ExpMax= 5.48D+03 ExpMxC= 8.25D+02 IAcc=1 IRadAn=         1 AccDes= 0.00D+00
 Harris functional with IExCor=  402 and IRadAn=       1 diagonalized for initial guess.
 HarFok:  IExCor=  402 AccDes= 0.00D+00 IRadAn=         1 IDoV= 1 UseB2=F ITyADJ=14
 ICtDFT=  3500011 ScaDFX=  1.000000  1.000000  1.000000  1.000000
 FoFCou: FMM=F IPFlag=           0 FMFlag=      100000 FMFlg1=           0
         NFxFlg=           0 DoJE=T BraDBF=F KetDBF=T FulRan=T
         wScrn=  0.000000 ICntrl=     500 IOpCl=  0 I1Cent=   200000004 NGrid=           0
         NMat0=    1 NMatS0=      1 NMatT0=    0 NMatD0=    1 NMtDS0=    0 NMtDT0=    0
 Petite list used in FoFCou.
 Harris En= -340.858606644780    
 JPrj=0 DoOrth=F DoCkMO=F.
 Leave Link  401 at Thu Sep  8 14:48:27 2022, MaxMem= 24159191040 cpu:        11.0
 (Enter /public/home/users/caep010/software/Gaussian09/g09/l502.exe)
 Closed shell SCF:
 Using DIIS extrapolation, IDIIS=  1040.
 Integral symmetry usage will be decided dynamically.
 Keep R1 ints in memory in canonical form, NReq=37455246.
 IVT=       74396 IEndB=       74396 NGot= 24159191040 MDV= 24122859775
 LenX= 24122859775 LenY= 24122842434
 Requested convergence on RMS density matrix=1.00D-08 within 128 cycles.
 Requested convergence on MAX density matrix=1.00D-06.
 Requested convergence on             energy=1.00D-06.
 No special actions if energy rises.
 FoFCou: FMM=F IPFlag=           0 FMFlag=           0 FMFlg1=           0
         NFxFlg=           0 DoJE=F BraDBF=F KetDBF=F FulRan=T
         wScrn=  0.000000 ICntrl=     600 IOpCl=  0 I1Cent=           0 NGrid=           0
         NMat0=    1 NMatS0=   8515 NMatT0=    0 NMatD0=    1 NMtDS0=    0 NMtDT0=    0
 Symmetry not used in FoFCou.
 Integral accuracy reduced to 1.0D-05 until final iterations.

 Cycle   1  Pass 0  IDiag  1:
 E= -340.672647882850    
 DIIS: error= 2.40D-02 at cycle   1 NSaved=   1.
 NSaved= 1 IEnMin= 1 EnMin= -340.672647882850     IErMin= 1 ErrMin= 2.40D-02
 ErrMax= 2.40D-02  0.00D+00 EMaxC= 1.00D-01 BMatC= 1.94D-01 BMatP= 1.94D-01
 IDIUse=3 WtCom= 7.60D-01 WtEn= 2.40D-01
 Coeff-Com:  0.100D+01
 Coeff-En:   0.100D+01
 Coeff:      0.100D+01
 Gap=     0.311 Goal=   None    Shift=    0.000
 GapD=    0.311 DampG=1.000 DampE=0.500 DampFc=0.5000 IDamp=-1.
 Damping current iteration by 5.00D-01
 RMSDP=6.05D-03 MaxDP=1.10D-01              OVMax= 1.41D-01

 Cycle   2  Pass 0  IDiag  1:
 E= -340.735079604861     Delta-E=       -0.062431722010 Rises=F Damp=T
 DIIS: error= 9.84D-03 at cycle   2 NSaved=   2.
 NSaved= 2 IEnMin= 2 EnMin= -340.735079604861     IErMin= 2 ErrMin= 9.84D-03
 ErrMax= 9.84D-03  0.00D+00 EMaxC= 1.00D-01 BMatC= 1.94D-02 BMatP= 1.94D-01
 IDIUse=3 WtCom= 9.02D-01 WtEn= 9.84D-02
 Coeff-Com:  0.159D+00 0.841D+00
 Coeff-En:   0.238D+00 0.762D+00
 Coeff:      0.167D+00 0.833D+00
 Gap=     0.277 Goal=   None    Shift=    0.000
 RMSDP=1.53D-03 MaxDP=2.96D-02 DE=-6.24D-02 OVMax= 9.45D-02

 Cycle   3  Pass 0  IDiag  1:
 E= -340.829434731663     Delta-E=       -0.094355126802 Rises=F Damp=F
 DIIS: error= 6.12D-03 at cycle   3 NSaved=   3.
 NSaved= 3 IEnMin= 3 EnMin= -340.829434731663     IErMin= 3 ErrMin= 6.12D-03
 ErrMax= 6.12D-03  0.00D+00 EMaxC= 1.00D-01 BMatC= 1.10D-02 BMatP= 1.94D-02
 IDIUse=3 WtCom= 9.39D-01 WtEn= 6.12D-02
 Coeff-Com:  0.352D-01 0.422D+00 0.543D+00
 Coeff-En:   0.000D+00 0.000D+00 0.100D+01
 Coeff:      0.331D-01 0.396D+00 0.571D+00
 Gap=     0.280 Goal=   None    Shift=    0.000
 RMSDP=9.88D-04 MaxDP=1.58D-02 DE=-9.44D-02 OVMax= 2.75D-02

 Cycle   4  Pass 0  IDiag  1:
 E= -340.837076969148     Delta-E=       -0.007642237485 Rises=F Damp=F
 DIIS: error= 3.24D-03 at cycle   4 NSaved=   4.
 NSaved= 4 IEnMin= 4 EnMin= -340.837076969148     IErMin= 4 ErrMin= 3.24D-03
 ErrMax= 3.24D-03  0.00D+00 EMaxC= 1.00D-01 BMatC= 2.02D-03 BMatP= 1.10D-02
 IDIUse=3 WtCom= 9.68D-01 WtEn= 3.24D-02
 Coeff-Com:  0.305D-02 0.692D-01 0.313D+00 0.615D+00
 Coeff-En:   0.000D+00 0.000D+00 0.170D+00 0.830D+00
 Coeff:      0.295D-02 0.670D-01 0.308D+00 0.622D+00
 Gap=     0.274 Goal=   None    Shift=    0.000
 RMSDP=3.19D-04 MaxDP=5.07D-03 DE=-7.64D-03 OVMax= 7.56D-03

 Cycle   5  Pass 0  IDiag  1:
 E= -340.838806912098     Delta-E=       -0.001729942950 Rises=F Damp=F
 DIIS: error= 2.82D-04 at cycle   5 NSaved=   5.
 NSaved= 5 IEnMin= 5 EnMin= -340.838806912098     IErMin= 5 ErrMin= 2.82D-04
 ErrMax= 2.82D-04  0.00D+00 EMaxC= 1.00D-01 BMatC= 2.74D-05 BMatP= 2.02D-03
 IDIUse=3 WtCom= 9.97D-01 WtEn= 2.82D-03
 Coeff-Com:  0.402D-03 0.478D-02 0.776D-01 0.210D+00 0.707D+00
 Coeff-En:   0.000D+00 0.000D+00 0.000D+00 0.000D+00 0.100D+01
 Coeff:      0.401D-03 0.477D-02 0.773D-01 0.210D+00 0.708D+00
 Gap=     0.273 Goal=   None    Shift=    0.000
 RMSDP=4.70D-05 MaxDP=6.55D-04 DE=-1.73D-03 OVMax= 1.33D-03

 Cycle   6  Pass 0  IDiag  1:
 E= -340.838826135017     Delta-E=       -0.000019222919 Rises=F Damp=F
 DIIS: error= 1.14D-04 at cycle   6 NSaved=   6.
 NSaved= 6 IEnMin= 6 EnMin= -340.838826135017     IErMin= 6 ErrMin= 1.14D-04
 ErrMax= 1.14D-04  0.00D+00 EMaxC= 1.00D-01 BMatC= 4.47D-06 BMatP= 2.74D-05
 IDIUse=3 WtCom= 9.99D-01 WtEn= 1.14D-03
 Coeff-Com:  0.122D-03-0.148D-02 0.245D-01 0.796D-01 0.383D+00 0.515D+00
 Coeff-En:   0.000D+00 0.000D+00 0.000D+00 0.000D+00 0.290D-01 0.971D+00
 Coeff:      0.122D-03-0.148D-02 0.245D-01 0.795D-01 0.382D+00 0.515D+00
 Gap=     0.273 Goal=   None    Shift=    0.000
 RMSDP=1.67D-05 MaxDP=2.64D-04 DE=-1.92D-05 OVMax= 3.83D-04

 Cycle   7  Pass 0  IDiag  1:
 E= -340.838829837113     Delta-E=       -0.000003702096 Rises=F Damp=F
 DIIS: error= 1.10D-05 at cycle   7 NSaved=   7.
 NSaved= 7 IEnMin= 7 EnMin= -340.838829837113     IErMin= 7 ErrMin= 1.10D-05
 ErrMax= 1.10D-05  0.00D+00 EMaxC= 1.00D-01 BMatC= 2.40D-08 BMatP= 4.47D-06
 IDIUse=1 WtCom= 1.00D+00 WtEn= 0.00D+00
 Coeff-Com:  0.618D-04-0.586D-03 0.139D-02 0.552D-02 0.418D-01 0.969D-01
 Coeff-Com:  0.855D+00
 Coeff:      0.618D-04-0.586D-03 0.139D-02 0.552D-02 0.418D-01 0.969D-01
 Coeff:      0.855D+00
 Gap=     0.273 Goal=   None    Shift=    0.000
 RMSDP=1.51D-06 MaxDP=3.60D-05 DE=-3.70D-06 OVMax= 4.01D-05

 Initial convergence to 1.0D-05 achieved.  Increase integral accuracy.
 Cycle   8  Pass 1  IDiag  1:
 E= -340.838840208001     Delta-E=       -0.000010370888 Rises=F Damp=F
 DIIS: error= 1.80D-05 at cycle   1 NSaved=   1.
 NSaved= 1 IEnMin= 1 EnMin= -340.838840208001     IErMin= 1 ErrMin= 1.80D-05
 ErrMax= 1.80D-05  0.00D+00 EMaxC= 1.00D-01 BMatC= 5.07D-08 BMatP= 5.07D-08
 IDIUse=1 WtCom= 1.00D+00 WtEn= 0.00D+00
 Coeff-Com:  0.100D+01
 Coeff:      0.100D+01
 Gap=     0.273 Goal=   None    Shift=    0.000
 RMSDP=1.51D-06 MaxDP=3.60D-05 DE=-1.04D-05 OVMax= 7.34D-05

 Cycle   9  Pass 1  IDiag  1:
 E= -340.838840261239     Delta-E=       -0.000000053238 Rises=F Damp=F
 DIIS: error= 3.36D-06 at cycle   2 NSaved=   2.
 NSaved= 2 IEnMin= 2 EnMin= -340.838840261239     IErMin= 2 ErrMin= 3.36D-06
 ErrMax= 3.36D-06  0.00D+00 EMaxC= 1.00D-01 BMatC= 2.40D-09 BMatP= 5.07D-08
 IDIUse=1 WtCom= 1.00D+00 WtEn= 0.00D+00
 Coeff-Com:  0.305D-01 0.969D+00
 Coeff:      0.305D-01 0.969D+00
 Gap=     0.273 Goal=   None    Shift=    0.000
 RMSDP=7.26D-07 MaxDP=1.74D-05 DE=-5.32D-08 OVMax= 1.98D-05

 Cycle  10  Pass 1  IDiag  1:
 E= -340.838840259247     Delta-E=        0.000000001992 Rises=F Damp=F
 DIIS: error= 5.44D-06 at cycle   3 NSaved=   3.
 NSaved= 3 IEnMin= 2 EnMin= -340.838840261239     IErMin= 2 ErrMin= 3.36D-06
 ErrMax= 5.44D-06  0.00D+00 EMaxC= 1.00D-01 BMatC= 5.39D-09 BMatP= 2.40D-09
 IDIUse=1 WtCom= 1.00D+00 WtEn= 0.00D+00
 Coeff-Com: -0.246D-01 0.616D+00 0.409D+00
 Coeff:     -0.246D-01 0.616D+00 0.409D+00
 Gap=     0.273 Goal=   None    Shift=    0.000
 RMSDP=4.38D-07 MaxDP=1.07D-05 DE= 1.99D-09 OVMax= 1.12D-05

 Cycle  11  Pass 1  IDiag  1:
 E= -340.838840263063     Delta-E=       -0.000000003816 Rises=F Damp=F
 DIIS: error= 5.12D-07 at cycle   4 NSaved=   4.
 NSaved= 4 IEnMin= 4 EnMin= -340.838840263063     IErMin= 4 ErrMin= 5.12D-07
 ErrMax= 5.12D-07  0.00D+00 EMaxC= 1.00D-01 BMatC= 7.65D-11 BMatP= 2.40D-09
 IDIUse=1 WtCom= 1.00D+00 WtEn= 0.00D+00
 Coeff-Com: -0.131D-01 0.280D+00 0.205D+00 0.529D+00
 Coeff:     -0.131D-01 0.280D+00 0.205D+00 0.529D+00
 Gap=     0.273 Goal=   None    Shift=    0.000
 RMSDP=8.22D-08 MaxDP=1.68D-06 DE=-3.82D-09 OVMax= 2.49D-06

 Cycle  12  Pass 1  IDiag  1:
 E= -340.838840263127     Delta-E=       -0.000000000063 Rises=F Damp=F
 DIIS: error= 1.51D-07 at cycle   5 NSaved=   5.
 NSaved= 5 IEnMin= 5 EnMin= -340.838840263127     IErMin= 5 ErrMin= 1.51D-07
 ErrMax= 1.51D-07  0.00D+00 EMaxC= 1.00D-01 BMatC= 6.62D-12 BMatP= 7.65D-11
 IDIUse=1 WtCom= 1.00D+00 WtEn= 0.00D+00
 Coeff-Com: -0.171D-02 0.238D-01 0.207D-01 0.243D+00 0.714D+00
 Coeff:     -0.171D-02 0.238D-01 0.207D-01 0.243D+00 0.714D+00
 Gap=     0.273 Goal=   None    Shift=    0.000
 RMSDP=2.10D-08 MaxDP=3.44D-07 DE=-6.34D-11 OVMax= 5.48D-07

 Cycle  13  Pass 1  IDiag  1:
 E= -340.838840263127     Delta-E=       -0.000000000001 Rises=F Damp=F
 DIIS: error= 3.10D-08 at cycle   6 NSaved=   6.
 NSaved= 6 IEnMin= 6 EnMin= -340.838840263127     IErMin= 6 ErrMin= 3.10D-08
 ErrMax= 3.10D-08  0.00D+00 EMaxC= 1.00D-01 BMatC= 2.29D-13 BMatP= 6.62D-12
 IDIUse=1 WtCom= 1.00D+00 WtEn= 0.00D+00
 Coeff-Com:  0.103D-03-0.731D-02-0.442D-02 0.696D-01 0.271D+00 0.671D+00
 Coeff:      0.103D-03-0.731D-02-0.442D-02 0.696D-01 0.271D+00 0.671D+00
 Gap=     0.273 Goal=   None    Shift=    0.000
 RMSDP=4.20D-09 MaxDP=9.44D-08 DE=-5.68D-13 OVMax= 1.14D-07

 SCF Done:  E(RB3LYP) =  -340.838840263     A.U. after   13 cycles
            NFock= 13  Conv=0.42D-08     -V/T= 2.0086
 KE= 3.379342551696D+02 PE=-1.347076669031D+03 EE= 3.938481957935D+02
 Leave Link  502 at Thu Sep  8 14:48:28 2022, MaxMem= 24159191040 cpu:        38.6
 (Enter /public/home/users/caep010/software/Gaussian09/g09/l601.exe)
 Copying SCF densities to generalized density rwf, IOpCl= 0 IROHF=0.

 **********************************************************************

            Population analysis using the SCF density.

 **********************************************************************

 Orbital symmetries:
       Occupied  (A) (A) (A) (A) (A) (A) (A) (A) (A) (A) (A) (A)
                 (A) (A) (A) (A) (A) (A) (A) (A) (A) (A) (A) (A)
                 (A)
       Virtual   (A) (A) (A) (A) (A) (A) (A) (A) (A) (A) (A) (A)
                 (A) (A) (A) (A) (A) (A) (A) (A) (A) (A) (A) (A)
                 (A) (A) (A) (A) (A) (A) (A) (A) (A) (A) (A) (A)
                 (A) (A) (A) (A) (A) (A) (A) (A) (A) (A) (A) (A)
                 (A) (A) (A) (A) (A) (A) (A) (A) (A) (A) (A) (A)
                 (A) (A) (A) (A) (A) (A) (A) (A) (A) (A) (A) (A)
                 (A) (A) (A) (A) (A) (A) (A) (A) (A) (A) (A) (A)
                 (A) (A) (A) (A) (A) (A) (A) (A) (A) (A) (A) (A)
                 (A) (A) (A) (A) (A) (A) (A) (A) (A)
 The electronic state is 1-A.
 Alpha  occ. eigenvalues --  -19.17239 -19.17238 -14.39997 -14.39987 -10.20468
 Alpha  occ. eigenvalues --  -10.20468  -1.09525  -1.03885  -0.88555  -0.78247
 Alpha  occ. eigenvalues --   -0.68102  -0.60561  -0.53779  -0.50601  -0.47976
 Alpha  occ. eigenvalues --   -0.44206  -0.42088  -0.41097  -0.40788  -0.38848
 Alpha  occ. eigenvalues --   -0.37850  -0.30986  -0.29701  -0.28059  -0.20908
 Alpha virt. eigenvalues --    0.06439   0.09848   0.10861   0.12428   0.13102
 Alpha virt. eigenvalues --    0.14956   0.16562   0.17625   0.18198   0.18584
 Alpha virt. eigenvalues --    0.19715   0.21878   0.23604   0.52288   0.53456
 Alpha virt. eigenvalues --    0.56807   0.58324   0.59309   0.61639   0.70677
 Alpha virt. eigenvalues --    0.71060   0.74990   0.76070   0.78385   0.81289
 Alpha virt. eigenvalues --    0.81398   0.82639   0.84334   0.85648   0.88310
 Alpha virt. eigenvalues --    0.89518   0.91209   0.94241   0.95111   0.99767
 Alpha virt. eigenvalues --    1.00428   1.05035   1.07548   1.10387   1.11779
 Alpha virt. eigenvalues --    1.23620   1.25523   1.29853   1.30442   1.35836
 Alpha virt. eigenvalues --    1.53350   1.53698   1.61957   1.62575   1.68686
 Alpha virt. eigenvalues --    1.69030   1.70629   1.77213   1.78354   1.84244
 Alpha virt. eigenvalues --    1.90441   1.93547   1.96702   1.98308   2.01280
 Alpha virt. eigenvalues --    2.03385   2.03415   2.05364   2.06239   2.09049
 Alpha virt. eigenvalues --    2.11380   2.14131   2.15334   2.28102   2.32492
 Alpha virt. eigenvalues --    2.34622   2.39437   2.45576   2.48785   2.49198
 Alpha virt. eigenvalues --    2.51682   2.60208   2.63444   2.66491   2.66555
 Alpha virt. eigenvalues --    2.69334   2.73320   2.78268   2.79007   2.81804
 Alpha virt. eigenvalues --    2.88549   2.91448   2.92663   2.93109   3.01547
 Alpha virt. eigenvalues --    3.06551   3.20181   3.21297   3.40844   3.42615
 Alpha virt. eigenvalues --    3.43447   3.44618   3.45978   3.46057   3.85526
 Alpha virt. eigenvalues --    3.88128   4.03247   4.20756   4.46469   4.51952
          Condensed to atoms (all electrons):
               1          2          3          4          5          6
     1  C    4.866064   0.257365  -0.053588  -0.055864  -0.000308   0.004834
     2  N    0.257365   6.923102   0.102882   0.066586  -0.055864  -0.059987
     3  O   -0.053588   0.102882   8.144906  -0.059987   0.004834  -0.002982
     4  N   -0.055864   0.066586  -0.059987   6.923102   0.257365   0.102882
     5  C   -0.000308  -0.055864   0.004834   0.257365   4.866064  -0.053587
     6  O    0.004834  -0.059987  -0.002982   0.102882  -0.053587   8.144907
     7  H    0.380907  -0.029201   0.002231   0.005100  -0.000339  -0.000136
     8  H    0.380158  -0.036070   0.004437   0.001625  -0.000805  -0.000003
     9  H    0.357996  -0.036523   0.001044   0.002964   0.000572  -0.000249
    10  H    0.006083  -0.032579   0.274699   0.001164  -0.000396   0.011446
    11  H    0.000572   0.002964  -0.000249  -0.036523   0.357996   0.001044
    12  H   -0.000805   0.001625  -0.000003  -0.036070   0.380158   0.004437
    13  H   -0.000339   0.005100  -0.000136  -0.029201   0.380907   0.002231
    14  H   -0.000396   0.001164   0.011446  -0.032579   0.006083   0.274699
               7          8          9         10         11         12
     1  C    0.380907   0.380158   0.357996   0.006083   0.000572  -0.000805
     2  N   -0.029201  -0.036070  -0.036523  -0.032579   0.002964   0.001625
     3  O    0.002231   0.004437   0.001044   0.274699  -0.000249  -0.000003
     4  N    0.005100   0.001625   0.002964   0.001164  -0.036523  -0.036070
     5  C   -0.000339  -0.000805   0.000572  -0.000396   0.357996   0.380158
     6  O   -0.000136  -0.000003  -0.000249   0.011446   0.001044   0.004437
     7  H    0.568881  -0.024562  -0.031281   0.000150  -0.000011   0.000074
     8  H   -0.024562   0.598904  -0.036497  -0.000449  -0.000004   0.000333
     9  H   -0.031281  -0.036497   0.626078  -0.000032   0.000497  -0.000004
    10  H    0.000150  -0.000449  -0.000032   0.415354   0.000117  -0.000017
    11  H   -0.000011  -0.000004   0.000497   0.000117   0.626078  -0.036497
    12  H    0.000074   0.000333  -0.000004  -0.000017  -0.036497   0.598904
    13  H    0.000003   0.000074  -0.000011  -0.000005  -0.031281  -0.024562
    14  H   -0.000005  -0.000017   0.000117  -0.001920  -0.000032  -0.000449
              13         14
     1  C   -0.000339  -0.000396
     2  N    0.005100   0.001164
     3  O   -0.000136   0.011446
     4  N   -0.029201  -0.032579
     5  C    0.380907   0.006083
     6  O    0.002231   0.274699
     7  H    0.000003  -0.000005
     8  H    0.000074  -0.000017
     9  H   -0.000011   0.000117
    10  H   -0.000005  -0.001920
    11  H   -0.031281  -0.000032
    12  H   -0.024562  -0.000449
    13  H    0.568882   0.000150
    14  H    0.000150   0.415355
 Mulliken charges:
               1
     1  C   -0.142678
     2  N   -0.110564
     3  O   -0.429535
     4  N   -0.110564
     5  C   -0.142678
     6  O   -0.429535
     7  H    0.128189
     8  H    0.112875
     9  H    0.115328
    10  H    0.326385
    11  H    0.115328
    12  H    0.112875
    13  H    0.128189
    14  H    0.326385
 Sum of Mulliken charges =  -0.00000
 Mulliken charges with hydrogens summed into heavy atoms:
               1
     1  C    0.213714
     2  N   -0.110564
     3  O   -0.103150
     4  N   -0.110564
     5  C    0.213714
     6  O   -0.103150
 Electronic spatial extent (au):  <R**2>=            585.7720
 Charge=             -0.0000 electrons
 Dipole moment (field-independent basis, Debye):
    X=              0.0000    Y=              0.3922    Z=             -0.0000  Tot=              0.3922
 Quadrupole moment (field-independent basis, Debye-Ang):
   XX=            -36.8637   YY=            -29.8900   ZZ=            -37.7784
   XY=             -0.0000   XZ=             -1.9178   YZ=              0.0000
 Traceless Quadrupole moment (field-independent basis, Debye-Ang):
   XX=             -2.0197   YY=              4.9540   ZZ=             -2.9344
   XY=             -0.0000   XZ=             -1.9178   YZ=              0.0000
 Octapole moment (field-independent basis, Debye-Ang**2):
  XXX=              0.0000  YYY=            -20.3764  ZZZ=             -0.0000  XYY=              0.0000
  XXY=              2.6159  XXZ=             -0.0000  XZZ=              0.0000  YZZ=             -6.5852
  YYZ=              0.0000  XYZ=              5.2193
 Hexadecapole moment (field-independent basis, Debye-Ang**3):
 XXXX=           -385.7702 YYYY=           -231.1870 ZZZZ=            -64.1842 XXXY=             -0.0000
 XXXZ=             -9.7092 YYYX=             -0.0000 YYYZ=             -0.0000 ZZZX=             -0.0303
 ZZZY=              0.0000 XXYY=           -106.5348 XXZZ=            -73.8067 YYZZ=            -50.3068
 XXYZ=              0.0000 YYXZ=            -10.3372 ZZXY=             -0.0000
 N-N= 2.744553778048D+02 E-N=-1.347076665705D+03  KE= 3.379342551696D+02
 No NMR shielding tensors so no spin-rotation constants.
 Leave Link  601 at Thu Sep  8 14:48:29 2022, MaxMem= 24159191040 cpu:        10.6
 (Enter /public/home/users/caep010/software/Gaussian09/g09/l701.exe)
 Compute integral first derivatives.
 ... and contract with generalized density number  0.
 Leave Link  701 at Thu Sep  8 14:48:29 2022, MaxMem= 24159191040 cpu:        10.9
 (Enter /public/home/users/caep010/software/Gaussian09/g09/l702.exe)
 L702 exits ... SP integral derivatives will be done elsewhere.
 Leave Link  702 at Thu Sep  8 14:48:29 2022, MaxMem= 24159191040 cpu:         0.6
 (Enter /public/home/users/caep010/software/Gaussian09/g09/l703.exe)
 Compute integral first derivatives, UseDBF=F ICtDFT=           0.
 Integral derivatives from FoFJK, PRISM(SPDF).
 Calling FoFJK, ICntrl=      2127 FMM=F ISym2X=0 I1Cent= 0 IOpClX= 0 NMat=1 NMatS=1 NMatT=0.
 FoFJK:  IHMeth= 1 ICntrl=    2127 DoSepK=F KAlg= 0 I1Cent=   0 FoldK=F
 IRaf=         0 NMat=   1 IRICut=       1 DoRegI=T DoRafI=F ISym2E= 0.
 FoFCou: FMM=F IPFlag=           0 FMFlag=      100000 FMFlg1=         800
         NFxFlg=           0 DoJE=F BraDBF=F KetDBF=F FulRan=T
         wScrn=  0.000000 ICntrl=    2127 IOpCl=  0 I1Cent=           0 NGrid=           0
         NMat0=    1 NMatS0=      1 NMatT0=    0 NMatD0=    1 NMtDS0=    0 NMtDT0=    0
 Symmetry not used in FoFCou.
 Leave Link  703 at Thu Sep  8 14:48:30 2022, MaxMem= 24159191040 cpu:        14.7
 (Enter /public/home/users/caep010/software/Gaussian09/g09/l716.exe)
 Dipole        = 7.76113183D-07 1.54304262D-01-7.09261955D-07
 ***** Axes restored to original set *****
 -------------------------------------------------------------------
 Center     Atomic                   Forces (Hartrees/Bohr)
 Number     Number              X              Y              Z
 -------------------------------------------------------------------
      1        6           0.001057612   -0.000822083   -0.000816770
      2        7          -0.000247451   -0.001535019    0.003281500
      3        8           0.002214393    0.000581142   -0.004012825
      4        7           0.000401933   -0.002003422   -0.003001426
      5        6          -0.000988271   -0.000771556    0.000942373
      6        8          -0.002283981    0.001010483    0.003886628
      7        1          -0.000008104    0.000047225    0.000019871
      8        1           0.000028035   -0.000112730    0.000061583
      9        1           0.000128575   -0.000100273   -0.000027481
     10        1          -0.000995587    0.002141456    0.002819951
     11        1          -0.000119745   -0.000105504    0.000044183
     12        1          -0.000017766   -0.000123257   -0.000042885
     13        1           0.000004466    0.000043970   -0.000026791
     14        1           0.000825891    0.001749568   -0.003127909
 -------------------------------------------------------------------
 Cartesian Forces:  Max     0.004012825 RMS     0.001551723
 Leave Link  716 at Thu Sep  8 14:48:30 2022, MaxMem= 24159191040 cpu:         0.7
 (Enter /public/home/users/caep010/software/Gaussian09/g09/l103.exe)

 GradGradGradGradGradGradGradGradGradGradGradGradGradGradGradGradGradGrad
 Berny optimization.
 FormGI is forming the generalized inverse of G from B-inverse, IUseBI=4.
 Internal  Forces:  Max     0.003651065 RMS     0.001083362
 Search for a local minimum.
 Step number   1 out of a maximum of   63
 All quantities printed in internal units (Hartrees-Bohrs-Radians)
 RMS Force = .10834D-02 SwitMx=.10000D-02 MixMth= 1
 Mixed Optimization -- RFO/linear search
 Second derivative matrix not updated -- first step.
 ITU=  0
     Eigenvalues ---    0.00230   0.00822   0.00822   0.00872   0.00872
     Eigenvalues ---    0.05896   0.05896   0.07299   0.07299   0.07816
     Eigenvalues ---    0.07816   0.15957   0.15957   0.16000   0.16000
     Eigenvalues ---    0.16000   0.16000   0.16000   0.16000   0.16000
     Eigenvalues ---    0.16000   0.18947   0.18947   0.33324   0.33964
     Eigenvalues ---    0.33964   0.34694   0.34694   0.34760   0.34760
     Eigenvalues ---    0.36254   0.36254   0.40712   0.40712   0.54665
     Eigenvalues ---    0.54665
 RFO step:  Lambda=-4.68138366D-04 EMin= 2.30000000D-03
 Linear search not attempted -- first point.
 Iteration  1 RMS(Cart)=  0.11639924 RMS(Int)=  0.00350173
 Iteration  2 RMS(Cart)=  0.00512980 RMS(Int)=  0.00000372
 Iteration  3 RMS(Cart)=  0.00000496 RMS(Int)=  0.00000041
 Iteration  4 RMS(Cart)=  0.00000000 RMS(Int)=  0.00000041
 ITry= 1 IFail=0 DXMaxC= 2.93D-01 DCOld= 1.00D+10 DXMaxT= 3.00D-01 DXLimC= 3.00D+00 Rises=F
 Variable       Old X    -DE/DX   Delta X   Delta X   Delta X     New X
                                 (Linear)    (Quad)   (Total)
    R1        2.76986   0.00169   0.00000   0.00466   0.00466   2.77453
    R2        2.06067   0.00001   0.00000   0.00003   0.00003   2.06069
    R3        2.06175   0.00011   0.00000   0.00032   0.00032   2.06207
    R4        2.07391   0.00004   0.00000   0.00011   0.00011   2.07401
    R5        2.70598   0.00321   0.00000   0.00787   0.00787   2.71385
    R6        2.81786   0.00256   0.00000   0.00767   0.00767   2.82554
    R7        1.82131   0.00365   0.00000   0.00667   0.00667   1.82798
    R8        2.76986   0.00169   0.00000   0.00466   0.00466   2.77453
    R9        2.70598   0.00321   0.00000   0.00787   0.00787   2.71385
   R10        2.07391   0.00004   0.00000   0.00011   0.00011   2.07401
   R11        2.06175   0.00011   0.00000   0.00032   0.00032   2.06207
   R12        2.06067   0.00001   0.00000   0.00002   0.00002   2.06069
   R13        1.82131   0.00365   0.00000   0.00667   0.00667   1.82798
    A1        1.87099  -0.00015   0.00000  -0.00119  -0.00119   1.86979
    A2        1.90948   0.00004   0.00000   0.00036   0.00036   1.90984
    A3        1.95038   0.00026   0.00000   0.00179   0.00179   1.95217
    A4        1.89562  -0.00002   0.00000  -0.00052  -0.00052   1.89510
    A5        1.91653  -0.00007   0.00000  -0.00055  -0.00055   1.91598
    A6        1.91952  -0.00007   0.00000   0.00003   0.00003   1.91955
    A7        1.80561  -0.00001   0.00000   0.00009   0.00009   1.80570
    A8        1.87173   0.00030   0.00000   0.00166   0.00166   1.87340
    A9        1.81078  -0.00016   0.00000  -0.00086  -0.00086   1.80992
   A10        1.77156  -0.00075   0.00000  -0.00468  -0.00468   1.76688
   A11        1.87173   0.00030   0.00000   0.00166   0.00166   1.87340
   A12        1.81078  -0.00016   0.00000  -0.00086  -0.00086   1.80992
   A13        1.80561  -0.00001   0.00000   0.00009   0.00009   1.80570
   A14        1.95038   0.00026   0.00000   0.00179   0.00179   1.95217
   A15        1.90948   0.00004   0.00000   0.00036   0.00036   1.90984
   A16        1.87099  -0.00015   0.00000  -0.00119  -0.00119   1.86979
   A17        1.91952  -0.00007   0.00000   0.00003   0.00003   1.91955
   A18        1.91653  -0.00007   0.00000  -0.00055  -0.00055   1.91598
   A19        1.89562  -0.00002   0.00000  -0.00052  -0.00052   1.89510
   A20        1.77156  -0.00075   0.00000  -0.00468  -0.00468   1.76688
    D1        1.06073   0.00005   0.00000  -0.00056  -0.00056   1.06017
    D2        2.96798  -0.00002   0.00000  -0.00087  -0.00087   2.96711
    D3        3.11318  -0.00004   0.00000  -0.00165  -0.00165   3.11153
    D4       -1.26275  -0.00011   0.00000  -0.00196  -0.00196  -1.26472
    D5       -1.03994   0.00007   0.00000  -0.00017  -0.00017  -1.04011
    D6        0.86731   0.00000   0.00000  -0.00048  -0.00048   0.86682
    D7       -2.61527   0.00030   0.00000   0.01858   0.01858  -2.59669
    D8        1.71562   0.00003   0.00000   0.01705   0.01705   1.73267
    D9        1.40932   0.00043   0.00000   0.16726   0.16726   1.57658
   D10       -2.97021   0.00046   0.00000   0.16762   0.16762  -2.80260
   D11       -2.97021   0.00046   0.00000   0.16762   0.16762  -2.80260
   D12       -1.06656   0.00049   0.00000   0.16797   0.16797  -0.89859
   D13        0.86731   0.00000   0.00000  -0.00049  -0.00048   0.86683
   D14       -1.26275  -0.00011   0.00000  -0.00196  -0.00196  -1.26472
   D15        2.96798  -0.00002   0.00000  -0.00087  -0.00087   2.96711
   D16       -1.03994   0.00007   0.00000  -0.00017  -0.00017  -1.04011
   D17        3.11319  -0.00004   0.00000  -0.00165  -0.00165   3.11153
   D18        1.06073   0.00005   0.00000  -0.00056  -0.00056   1.06017
   D19        1.71562   0.00003   0.00000   0.01705   0.01705   1.73267
   D20       -2.61527   0.00030   0.00000   0.01859   0.01859  -2.59669
         Item               Value     Threshold  Converged?
 Maximum Force            0.003651     0.000450     NO 
 RMS     Force            0.001083     0.000300     NO 
 Maximum Displacement     0.293356     0.001800     NO 
 RMS     Displacement     0.116626     0.001200     NO 
 Predicted change in Energy=-2.607646D-04
 Lowest energy point so far.  Saving SCF results.
 GradGradGradGradGradGradGradGradGradGradGradGradGradGradGradGradGradGrad

 Leave Link  103 at Thu Sep  8 14:48:30 2022, MaxMem= 24159191040 cpu:         3.8
 (Enter /public/home/users/caep010/software/Gaussian09/g09/l202.exe)
                          Input orientation:                          
 ---------------------------------------------------------------------
 Center     Atomic      Atomic             Coordinates (Angstroms)
 Number     Number       Type             X           Y           Z
 ---------------------------------------------------------------------
      1          6           0        1.562152   -0.701911   -0.166082
      2          7           0        0.624810    0.291969    0.371737
      3          8           0        1.177892    1.543442   -0.064518
      4          7           0       -0.645167    0.174783   -0.408698
      5          6           0       -1.496667   -0.799598    0.284977
      6          8           0       -1.307427    1.426645   -0.170666
      7          1           0        2.537364   -0.496093    0.276333
      8          1           0        1.246044   -1.700944    0.138433
      9          1           0        1.631748   -0.647736   -1.260054
     10          1           0        0.908463    2.129951    0.655994
     11          1           0       -1.578183   -0.580476    1.357307
     12          1           0       -1.093229   -1.802920    0.139017
     13          1           0       -2.482975   -0.750989   -0.177586
     14          1           0       -1.084823    1.913774   -0.976194
 ---------------------------------------------------------------------
                    Distance matrix (angstroms):
                    1          2          3          4          5
     1  C    0.000000
     2  N    1.468215   0.000000
     3  O    2.280260   1.436108   0.000000
     4  N    2.387407   1.495209   2.305478   0.000000
     5  C    3.093440   2.387406   3.572849   1.468215   0.000000
     6  O    3.572850   2.305479   2.490325   1.436108   2.280259
     7  H    1.090472   2.070750   2.474681   3.323829   4.045441
     8  H    1.091201   2.100491   3.251442   2.719261   2.890737
     9  H    1.097521   2.135347   2.537036   2.566259   3.492443
    10  H    3.020358   1.881340   0.967328   2.714777   3.808486
    11  H    3.492444   2.566259   3.758798   2.135347   1.097521
    12  H    2.890736   2.719260   4.049390   2.100491   1.091201
    13  H    4.045441   3.323829   4.321937   2.070750   1.090472
    14  H    3.808486   2.714777   2.467423   1.881340   3.020357
                    6          7          8          9         10
     6  O    0.000000
     7  H    4.321938   0.000000
     8  H    4.049391   1.771494   0.000000
     9  H    3.758799   1.789866   1.792702   0.000000
    10  H    2.467423   3.113450   3.880411   3.451076   0.000000
    11  H    2.537035   4.255978   3.273738   4.142313   3.744551
    12  H    3.251442   3.861069   2.341495   3.273736   4.443142
    13  H    2.474681   5.047258   3.861070   4.255977   4.527308
    14  H    0.967328   4.527308   4.443143   3.744552   2.585335
                   11         12         13         14
    11  H    0.000000
    12  H    1.792702   0.000000
    13  H    1.789866   1.771493   0.000000
    14  H    3.451074   3.880410   3.113449   0.000000
 Stoichiometry    C2H8N2O2
 Framework group  C1[X(C2H8N2O2)]
 Deg. of freedom    36
 Full point group                 C1      NOp   1
 RotChk:  IX=0 Diff= 6.16D-03
 Largest Abelian subgroup         C1      NOp   1
 Largest concise Abelian subgroup C1      NOp   1
                         Standard orientation:                         
 ---------------------------------------------------------------------
 Center     Atomic      Atomic             Coordinates (Angstroms)
 Number     Number       Type             X           Y           Z
 ---------------------------------------------------------------------
      1          6           0        1.533106    1.076797    0.204772
      2          7           0        0.631391    0.088653   -0.400322
      3          8           0        1.243155   -1.168119   -0.070666
      4          7           0       -0.631391    0.088654    0.400323
      5          6           0       -1.533104    1.076798   -0.204772
      6          8           0       -1.243157   -1.168117    0.070666
      7          1           0        2.509903    0.949063   -0.262862
      8          1           0        1.170638    2.082057   -0.016112
      9          1           0        1.620213    0.939591    1.290194
     10          1           0        0.988836   -1.707127   -0.832581
     11          1           0       -1.620213    0.939591   -1.290194
     12          1           0       -1.170635    2.082057    0.016111
     13          1           0       -2.509901    0.949066    0.262863
     14          1           0       -0.988838   -1.707126    0.832581
 ---------------------------------------------------------------------
 Rotational constants (GHZ):      5.0425404      3.3628784      2.2027331
 Leave Link  202 at Thu Sep  8 14:48:30 2022, MaxMem= 24159191040 cpu:         0.2
 (Enter /public/home/users/caep010/software/Gaussian09/g09/l301.exe)
 Standard basis: 6-31G(d,p) (6D, 7F)
 Ernie: Thresh=  0.10000D-02 Tol=  0.10000D-05 Strict=F.
 There are   130 symmetry adapted cartesian basis functions of A   symmetry.
 There are   130 symmetry adapted basis functions of A   symmetry.
   130 basis functions,   224 primitive gaussians,   130 cartesian basis functions
    25 alpha electrons       25 beta electrons
       nuclear repulsion energy       274.1445565324 Hartrees.
 IExCor=  402 DFT=T Ex+Corr=B3LYP ExCW=0 ScaHFX=  0.200000
 ScaDFX=  0.800000  0.720000  1.000000  0.810000 ScalE2=  1.000000  1.000000
 IRadAn=      0 IRanWt=     -1 IRanGd=            0 ICorTp=0 IEmpDi=  4
 NAtoms=   14 NActive=   14 NUniq=   14 SFac= 1.00D+00 NAtFMM=   60 NAOKFM=F Big=F
 Integral buffers will be    131072 words long.
 Raffenetti 2 integral format.
 Two-electron integral symmetry is turned on.
 Leave Link  301 at Thu Sep  8 14:48:30 2022, MaxMem= 24159191040 cpu:         1.7
 (Enter /public/home/users/caep010/software/Gaussian09/g09/l302.exe)
 NPDir=0 NMtPBC=     1 NCelOv=     1 NCel=       1 NClECP=     1 NCelD=      1
         NCelK=      1 NCelE2=     1 NClLst=     1 CellRange=     0.0.
 One-electron integrals computed using PRISM.
 NBasis=   130 RedAO= T EigKep=  3.67D-03  NBF=   130
 NBsUse=   130 1.00D-06 EigRej= -1.00D+00 NBFU=   130
 Precomputing XC quadrature grid using
 IXCGrd= 4 IRadAn=           0 IRanWt=          -1 IRanGd=           0 AccXCQ= 0.00D+00.
 Generated NRdTot=       0 NPtTot=           0 NUsed=           0 NTot=          32
 NSgBfM=   130   130   130   130   130 MxSgAt=    14 MxSgA2=    14.
 Leave Link  302 at Thu Sep  8 14:48:31 2022, MaxMem= 24159191040 cpu:        11.8
 (Enter /public/home/users/caep010/software/Gaussian09/g09/l303.exe)
 DipDrv:  MaxL=1.
 Leave Link  303 at Thu Sep  8 14:48:31 2022, MaxMem= 24159191040 cpu:         0.7
 (Enter /public/home/users/caep010/software/Gaussian09/g09/l401.exe)
 Initial guess from the checkpoint file:  "B3LYP6-31Gdp.Frag_1131.chk"
 B after Tr=    -0.000000    0.000000    0.000000
         Rot=    0.999993   -0.000000   -0.003807    0.000001 Ang=  -0.44 deg.
 Guess basis will be translated and rotated to current coordinates.
 JPrj=2 DoOrth=T DoCkMO=T.
 Generating alternative initial guess.
 ExpMin= 1.61D-01 ExpMax= 5.48D+03 ExpMxC= 8.25D+02 IAcc=1 IRadAn=         1 AccDes= 0.00D+00
 Harris functional with IExCor=  402 and IRadAn=       1 diagonalized for initial guess.
 HarFok:  IExCor=  402 AccDes= 0.00D+00 IRadAn=         1 IDoV= 1 UseB2=F ITyADJ=14
 ICtDFT=  3500011 ScaDFX=  1.000000  1.000000  1.000000  1.000000
 FoFCou: FMM=F IPFlag=           0 FMFlag=      100000 FMFlg1=           0
         NFxFlg=           0 DoJE=T BraDBF=F KetDBF=T FulRan=T
         wScrn=  0.000000 ICntrl=     500 IOpCl=  0 I1Cent=   200000004 NGrid=           0
         NMat0=    1 NMatS0=      1 NMatT0=    0 NMatD0=    1 NMtDS0=    0 NMtDT0=    0
 Petite list used in FoFCou.
 Harris En= -340.858058284703    
 Leave Link  401 at Thu Sep  8 14:48:31 2022, MaxMem= 24159191040 cpu:        12.4
 (Enter /public/home/users/caep010/software/Gaussian09/g09/l502.exe)
 Closed shell SCF:
 Using DIIS extrapolation, IDIIS=  1040.
 Integral symmetry usage will be decided dynamically.
 Keep R1 ints in memory in canonical form, NReq=37455246.
 IVT=       74396 IEndB=       74396 NGot= 24159191040 MDV= 24122859775
 LenX= 24122859775 LenY= 24122842434
 Requested convergence on RMS density matrix=1.00D-08 within 128 cycles.
 Requested convergence on MAX density matrix=1.00D-06.
 Requested convergence on             energy=1.00D-06.
 No special actions if energy rises.
 FoFCou: FMM=F IPFlag=           0 FMFlag=           0 FMFlg1=           0
         NFxFlg=           0 DoJE=F BraDBF=F KetDBF=F FulRan=T
         wScrn=  0.000000 ICntrl=     600 IOpCl=  0 I1Cent=           0 NGrid=           0
         NMat0=    1 NMatS0=   8515 NMatT0=    0 NMatD0=    1 NMtDS0=    0 NMtDT0=    0
 Symmetry not used in FoFCou.
 Integral accuracy reduced to 1.0D-05 until final iterations.

 Cycle   1  Pass 0  IDiag  1:
 E= -340.825321701382    
 DIIS: error= 5.97D-03 at cycle   1 NSaved=   1.
 NSaved= 1 IEnMin= 1 EnMin= -340.825321701382     IErMin= 1 ErrMin= 5.97D-03
 ErrMax= 5.97D-03  0.00D+00 EMaxC= 1.00D-01 BMatC= 6.86D-03 BMatP= 6.86D-03
 IDIUse=3 WtCom= 9.40D-01 WtEn= 5.97D-02
 Coeff-Com:  0.100D+01
 Coeff-En:   0.100D+01
 Coeff:      0.100D+01
 Gap=     1.898 Goal=   None    Shift=    0.000
 GapD=    1.898 DampG=2.000 DampE=1.000 DampFc=2.0000 IDamp=-1.
 RMSDP=1.00D-03 MaxDP=1.25D-02              OVMax= 3.66D-02

 Cycle   2  Pass 0  IDiag  1:
 E= -340.837840516715     Delta-E=       -0.012518815333 Rises=F Damp=F
 DIIS: error= 9.18D-04 at cycle   2 NSaved=   2.
 NSaved= 2 IEnMin= 2 EnMin= -340.837840516715     IErMin= 2 ErrMin= 9.18D-04
 ErrMax= 9.18D-04  0.00D+00 EMaxC= 1.00D-01 BMatC= 1.76D-04 BMatP= 6.86D-03
 IDIUse=3 WtCom= 9.91D-01 WtEn= 9.18D-03
 Coeff-Com: -0.575D-01 0.106D+01
 Coeff-En:   0.000D+00 0.100D+01
 Coeff:     -0.570D-01 0.106D+01
 Gap=     0.270 Goal=   None    Shift=    0.000
 RMSDP=1.99D-04 MaxDP=3.95D-03 DE=-1.25D-02 OVMax= 5.29D-03

 Cycle   3  Pass 0  IDiag  1:
 E= -340.837837404036     Delta-E=        0.000003112679 Rises=F Damp=F
 DIIS: error= 1.19D-03 at cycle   3 NSaved=   3.
 NSaved= 3 IEnMin= 2 EnMin= -340.837840516715     IErMin= 2 ErrMin= 9.18D-04
 ErrMax= 1.19D-03  0.00D+00 EMaxC= 1.00D-01 BMatC= 2.88D-04 BMatP= 1.76D-04
 IDIUse=3 WtCom= 2.25D-01 WtEn= 7.75D-01
 Coeff-Com: -0.497D-01 0.626D+00 0.423D+00
 Coeff-En:   0.000D+00 0.505D+00 0.495D+00
 Coeff:     -0.112D-01 0.532D+00 0.479D+00
 Gap=     0.271 Goal=   None    Shift=    0.000
 RMSDP=1.37D-04 MaxDP=2.99D-03 DE= 3.11D-06 OVMax= 3.59D-03

 Cycle   4  Pass 0  IDiag  1:
 E= -340.838026864681     Delta-E=       -0.000189460645 Rises=F Damp=F
 DIIS: error= 4.45D-04 at cycle   4 NSaved=   4.
 NSaved= 4 IEnMin= 4 EnMin= -340.838026864681     IErMin= 4 ErrMin= 4.45D-04
 ErrMax= 4.45D-04  0.00D+00 EMaxC= 1.00D-01 BMatC= 3.95D-05 BMatP= 1.76D-04
 IDIUse=3 WtCom= 9.96D-01 WtEn= 4.45D-03
 Coeff-Com: -0.161D-01 0.169D+00 0.295D+00 0.552D+00
 Coeff-En:   0.000D+00 0.000D+00 0.122D+00 0.878D+00
 Coeff:     -0.160D-01 0.168D+00 0.295D+00 0.553D+00
 Gap=     0.271 Goal=   None    Shift=    0.000
 RMSDP=3.96D-05 MaxDP=8.34D-04 DE=-1.89D-04 OVMax= 1.03D-03

 Cycle   5  Pass 0  IDiag  1:
 E= -340.838055399194     Delta-E=       -0.000028534514 Rises=F Damp=F
 DIIS: error= 7.77D-05 at cycle   5 NSaved=   5.
 NSaved= 5 IEnMin= 5 EnMin= -340.838055399194     IErMin= 5 ErrMin= 7.77D-05
 ErrMax= 7.77D-05  0.00D+00 EMaxC= 1.00D-01 BMatC= 1.46D-06 BMatP= 3.95D-05
 IDIUse=1 WtCom= 1.00D+00 WtEn= 0.00D+00
 Coeff-Com: -0.353D-02 0.244D-01 0.118D+00 0.303D+00 0.557D+00
 Coeff:     -0.353D-02 0.244D-01 0.118D+00 0.303D+00 0.557D+00
 Gap=     0.271 Goal=   None    Shift=    0.000
 RMSDP=9.92D-06 MaxDP=2.11D-04 DE=-2.85D-05 OVMax= 3.30D-04

 Initial convergence to 1.0D-05 achieved.  Increase integral accuracy.
 Cycle   6  Pass 1  IDiag  1:
 E= -340.838049736779     Delta-E=        0.000005662415 Rises=F Damp=F
 DIIS: error= 1.52D-05 at cycle   1 NSaved=   1.
 NSaved= 1 IEnMin= 1 EnMin= -340.838049736779     IErMin= 1 ErrMin= 1.52D-05
 ErrMax= 1.52D-05  0.00D+00 EMaxC= 1.00D-01 BMatC= 8.61D-08 BMatP= 8.61D-08
 IDIUse=1 WtCom= 1.00D+00 WtEn= 0.00D+00
 Coeff-Com:  0.100D+01
 Coeff:      0.100D+01
 Gap=     0.271 Goal=   None    Shift=    0.000
 RMSDP=9.92D-06 MaxDP=2.11D-04 DE= 5.66D-06 OVMax= 8.27D-05

 Cycle   7  Pass 1  IDiag  1:
 E= -340.838049764325     Delta-E=       -0.000000027546 Rises=F Damp=F
 DIIS: error= 1.27D-05 at cycle   2 NSaved=   2.
 NSaved= 2 IEnMin= 2 EnMin= -340.838049764325     IErMin= 2 ErrMin= 1.27D-05
 ErrMax= 1.27D-05  0.00D+00 EMaxC= 1.00D-01 BMatC= 6.92D-08 BMatP= 8.61D-08
 IDIUse=1 WtCom= 1.00D+00 WtEn= 0.00D+00
 Coeff-Com:  0.466D+00 0.534D+00
 Coeff:      0.466D+00 0.534D+00
 Gap=     0.271 Goal=   None    Shift=    0.000
 RMSDP=2.41D-06 MaxDP=5.03D-05 DE=-2.75D-08 OVMax= 7.24D-05

 Cycle   8  Pass 1  IDiag  1:
 E= -340.838049810615     Delta-E=       -0.000000046290 Rises=F Damp=F
 DIIS: error= 7.41D-06 at cycle   3 NSaved=   3.
 NSaved= 3 IEnMin= 3 EnMin= -340.838049810615     IErMin= 3 ErrMin= 7.41D-06
 ErrMax= 7.41D-06  0.00D+00 EMaxC= 1.00D-01 BMatC= 1.50D-08 BMatP= 6.92D-08
 IDIUse=1 WtCom= 1.00D+00 WtEn= 0.00D+00
 Coeff-Com:  0.719D-01 0.318D+00 0.610D+00
 Coeff:      0.719D-01 0.318D+00 0.610D+00
 Gap=     0.271 Goal=   None    Shift=    0.000
 RMSDP=8.34D-07 MaxDP=1.64D-05 DE=-4.63D-08 OVMax= 2.12D-05

 Cycle   9  Pass 1  IDiag  1:
 E= -340.838049821244     Delta-E=       -0.000000010628 Rises=F Damp=F
 DIIS: error= 2.49D-06 at cycle   4 NSaved=   4.
 NSaved= 4 IEnMin= 4 EnMin= -340.838049821244     IErMin= 4 ErrMin= 2.49D-06
 ErrMax= 2.49D-06  0.00D+00 EMaxC= 1.00D-01 BMatC= 1.25D-09 BMatP= 1.50D-08
 IDIUse=1 WtCom= 1.00D+00 WtEn= 0.00D+00
 Coeff-Com: -0.951D-03 0.132D+00 0.328D+00 0.541D+00
 Coeff:     -0.951D-03 0.132D+00 0.328D+00 0.541D+00
 Gap=     0.271 Goal=   None    Shift=    0.000
 RMSDP=2.72D-07 MaxDP=5.38D-06 DE=-1.06D-08 OVMax= 7.70D-06

 Cycle  10  Pass 1  IDiag  1:
 E= -340.838049822200     Delta-E=       -0.000000000956 Rises=F Damp=F
 DIIS: error= 5.79D-07 at cycle   5 NSaved=   5.
 NSaved= 5 IEnMin= 5 EnMin= -340.838049822200     IErMin= 5 ErrMin= 5.79D-07
 ErrMax= 5.79D-07  0.00D+00 EMaxC= 1.00D-01 BMatC= 8.27D-11 BMatP= 1.25D-09
 IDIUse=1 WtCom= 1.00D+00 WtEn= 0.00D+00
 Coeff-Com: -0.767D-02 0.372D-01 0.104D+00 0.271D+00 0.596D+00
 Coeff:     -0.767D-02 0.372D-01 0.104D+00 0.271D+00 0.596D+00
 Gap=     0.271 Goal=   None    Shift=    0.000
 RMSDP=6.54D-08 MaxDP=1.07D-06 DE=-9.56D-10 OVMax= 1.75D-06

 Cycle  11  Pass 1  IDiag  1:
 E= -340.838049822266     Delta-E=       -0.000000000066 Rises=F Damp=F
 DIIS: error= 5.49D-08 at cycle   6 NSaved=   6.
 NSaved= 6 IEnMin= 6 EnMin= -340.838049822266     IErMin= 6 ErrMin= 5.49D-08
 ErrMax= 5.49D-08  0.00D+00 EMaxC= 1.00D-01 BMatC= 5.48D-13 BMatP= 8.27D-11
 IDIUse=1 WtCom= 1.00D+00 WtEn= 0.00D+00
 Coeff-Com: -0.141D-03-0.239D-02-0.100D-01-0.893D-02-0.207D-01 0.104D+01
 Coeff:     -0.141D-03-0.239D-02-0.100D-01-0.893D-02-0.207D-01 0.104D+01
 Gap=     0.271 Goal=   None    Shift=    0.000
 RMSDP=1.12D-08 MaxDP=1.76D-07 DE=-6.62D-11 OVMax= 5.96D-07

 Cycle  12  Pass 1  IDiag  1:
 E= -340.838049822266     Delta-E=        0.000000000000 Rises=F Damp=F
 DIIS: error= 1.31D-08 at cycle   7 NSaved=   7.
 NSaved= 7 IEnMin= 6 EnMin= -340.838049822266     IErMin= 7 ErrMin= 1.31D-08
 ErrMax= 1.31D-08  0.00D+00 EMaxC= 1.00D-01 BMatC= 4.27D-14 BMatP= 5.48D-13
 IDIUse=1 WtCom= 1.00D+00 WtEn= 0.00D+00
 Coeff-Com:  0.247D-03-0.186D-02-0.649D-02-0.120D-01-0.304D-01 0.304D+00
 Coeff-Com:  0.746D+00
 Coeff:      0.247D-03-0.186D-02-0.649D-02-0.120D-01-0.304D-01 0.304D+00
 Coeff:      0.746D+00
 Gap=     0.271 Goal=   None    Shift=    0.000
 RMSDP=2.65D-09 MaxDP=3.13D-08 DE= 0.00D+00 OVMax= 1.09D-07

 SCF Done:  E(RB3LYP) =  -340.838049822     A.U. after   12 cycles
            NFock= 12  Conv=0.26D-08     -V/T= 2.0087
 KE= 3.378982276629D+02 PE=-1.346493547449D+03 EE= 3.936127134316D+02
 Leave Link  502 at Thu Sep  8 14:48:33 2022, MaxMem= 24159191040 cpu:        42.4
 (Enter /public/home/users/caep010/software/Gaussian09/g09/l701.exe)
 Compute integral first derivatives.
 ... and contract with generalized density number  0.
 Leave Link  701 at Thu Sep  8 14:48:34 2022, MaxMem= 24159191040 cpu:        10.6
 (Enter /public/home/users/caep010/software/Gaussian09/g09/l702.exe)
 L702 exits ... SP integral derivatives will be done elsewhere.
 Leave Link  702 at Thu Sep  8 14:48:34 2022, MaxMem= 24159191040 cpu:         0.5
 (Enter /public/home/users/caep010/software/Gaussian09/g09/l703.exe)
 Compute integral first derivatives, UseDBF=F ICtDFT=           0.
 Integral derivatives from FoFJK, PRISM(SPDF).
 Calling FoFJK, ICntrl=      2127 FMM=F ISym2X=0 I1Cent= 0 IOpClX= 0 NMat=1 NMatS=1 NMatT=0.
 FoFJK:  IHMeth= 1 ICntrl=    2127 DoSepK=F KAlg= 0 I1Cent=   0 FoldK=F
 IRaf=         0 NMat=   1 IRICut=       1 DoRegI=T DoRafI=F ISym2E= 0.
 FoFCou: FMM=F IPFlag=           0 FMFlag=      100000 FMFlg1=         800
         NFxFlg=           0 DoJE=F BraDBF=F KetDBF=F FulRan=T
         wScrn=  0.000000 ICntrl=    2127 IOpCl=  0 I1Cent=           0 NGrid=           0
         NMat0=    1 NMatS0=      1 NMatT0=    0 NMatD0=    1 NMtDS0=    0 NMtDT0=    0
 Symmetry not used in FoFCou.
 Leave Link  703 at Thu Sep  8 14:48:34 2022, MaxMem= 24159191040 cpu:        11.5
 (Enter /public/home/users/caep010/software/Gaussian09/g09/l716.exe)
 Dipole        = 2.97283897D-07 1.66054747D-01-1.31930495D-08
 ***** Axes restored to original set *****
 -------------------------------------------------------------------
 Center     Atomic                   Forces (Hartrees/Bohr)
 Number     Number              X              Y              Z
 -------------------------------------------------------------------
      1        6          -0.000695076    0.000554986   -0.000735088
      2        7           0.003693440    0.001986408    0.003351516
      3        8           0.004869529   -0.001339058    0.000264788
      4        7          -0.003828495    0.001107976   -0.003596404
      5        6           0.000639395    0.000721514    0.000633842
      6        8          -0.004733315   -0.001780217   -0.000017878
      7        1           0.000024979   -0.000184674    0.000363704
      8        1          -0.001363430   -0.000605571   -0.000152037
      9        1          -0.000230277   -0.000047762    0.000291761
     10        1          -0.000796030    0.000068013   -0.000957148
     11        1           0.000235553   -0.000072891   -0.000282191
     12        1           0.001409626   -0.000453943    0.000235965
     13        1          -0.000006447   -0.000240993   -0.000329964
     14        1           0.000780551    0.000286214    0.000929133
 -------------------------------------------------------------------
 Cartesian Forces:  Max     0.004869529 RMS     0.001687999
 Leave Link  716 at Thu Sep  8 14:48:34 2022, MaxMem= 24159191040 cpu:         0.5
 (Enter /public/home/users/caep010/software/Gaussian09/g09/l103.exe)

 GradGradGradGradGradGradGradGradGradGradGradGradGradGradGradGradGradGrad
 Berny optimization.
 Using GEDIIS/GDIIS optimizer.
 FormGI is forming the generalized inverse of G from B-inverse, IUseBI=4.
 Internal  Forces:  Max     0.005986197 RMS     0.002039803
 Search for a local minimum.
 Step number   2 out of a maximum of   63
 All quantities printed in internal units (Hartrees-Bohrs-Radians)
 RMS Force = .20398D-02 SwitMx=.10000D-02 MixMth= 1
 Mixed Optimization -- RFO/linear search
 Update second derivatives using D2CorX and points    2    1
 DE=  7.90D-04 DEPred=-2.61D-04 R=-3.03D+00
 Trust test=-3.03D+00 RLast= 3.38D-01 DXMaxT set to 1.50D-01
 ITU= -1  0
 Use linear search instead of GDIIS.
 Energy rises -- skip Quadratic/GDIIS search.
 Quartic linear search produced a step of -0.81502.
 Iteration  1 RMS(Cart)=  0.09475754 RMS(Int)=  0.00232500
 Iteration  2 RMS(Cart)=  0.00341597 RMS(Int)=  0.00000153
 Iteration  3 RMS(Cart)=  0.00000180 RMS(Int)=  0.00000006
 Iteration  4 RMS(Cart)=  0.00000000 RMS(Int)=  0.00000006
 ITry= 1 IFail=0 DXMaxC= 2.39D-01 DCOld= 1.00D+10 DXMaxT= 1.50D-01 DXLimC= 3.00D+00 Rises=T
 Variable       Old X    -DE/DX   Delta X   Delta X   Delta X     New X
                                 (Linear)    (Quad)   (Total)
    R1        2.77453  -0.00117  -0.00380   0.00000  -0.00380   2.77072
    R2        2.06069   0.00014  -0.00002   0.00000  -0.00002   2.06067
    R3        2.06207   0.00091  -0.00026   0.00000  -0.00026   2.06181
    R4        2.07401  -0.00031  -0.00009   0.00000  -0.00009   2.07393
    R5        2.71385   0.00067  -0.00642   0.00000  -0.00642   2.70743
    R6        2.82554   0.00599  -0.00625   0.00000  -0.00625   2.81928
    R7        1.82798  -0.00045  -0.00544   0.00000  -0.00544   1.82255
    R8        2.77453  -0.00117  -0.00380   0.00000  -0.00380   2.77072
    R9        2.71385   0.00067  -0.00642   0.00000  -0.00642   2.70743
   R10        2.07401  -0.00031  -0.00009   0.00000  -0.00009   2.07393
   R11        2.06207   0.00091  -0.00026   0.00000  -0.00026   2.06181
   R12        2.06069   0.00014  -0.00002   0.00000  -0.00002   2.06067
   R13        1.82798  -0.00045  -0.00544   0.00000  -0.00544   1.82255
    A1        1.86979   0.00035   0.00097   0.00000   0.00097   1.87077
    A2        1.90984  -0.00125  -0.00029   0.00000  -0.00029   1.90955
    A3        1.95217  -0.00004  -0.00146   0.00000  -0.00146   1.95071
    A4        1.89510   0.00056   0.00043   0.00000   0.00043   1.89553
    A5        1.91598   0.00031   0.00045   0.00000   0.00045   1.91643
    A6        1.91955   0.00009  -0.00003   0.00000  -0.00002   1.91952
    A7        1.80570  -0.00171  -0.00008   0.00000  -0.00008   1.80563
    A8        1.87340  -0.00453  -0.00135   0.00000  -0.00135   1.87204
    A9        1.80992   0.00462   0.00070   0.00000   0.00070   1.81062
   A10        1.76688   0.00024   0.00381   0.00000   0.00381   1.77069
   A11        1.87340  -0.00453  -0.00135   0.00000  -0.00135   1.87204
   A12        1.80992   0.00462   0.00070   0.00000   0.00070   1.81062
   A13        1.80570  -0.00171  -0.00007   0.00000  -0.00007   1.80563
   A14        1.95217  -0.00004  -0.00146   0.00000  -0.00146   1.95071
   A15        1.90984  -0.00125  -0.00029   0.00000  -0.00029   1.90955
   A16        1.86979   0.00035   0.00097   0.00000   0.00097   1.87077
   A17        1.91955   0.00009  -0.00002   0.00000  -0.00002   1.91952
   A18        1.91598   0.00031   0.00045   0.00000   0.00045   1.91643
   A19        1.89510   0.00056   0.00043   0.00000   0.00043   1.89553
   A20        1.76688   0.00024   0.00381   0.00000   0.00381   1.77069
    D1        1.06017  -0.00089   0.00045   0.00000   0.00045   1.06063
    D2        2.96711   0.00188   0.00071   0.00000   0.00071   2.96782
    D3        3.11153  -0.00069   0.00135   0.00000   0.00135   3.11288
    D4       -1.26472   0.00208   0.00160   0.00000   0.00160  -1.26312
    D5       -1.04011  -0.00147   0.00014   0.00000   0.00014  -1.03997
    D6        0.86682   0.00130   0.00039   0.00000   0.00039   0.86722
    D7       -2.59669  -0.00298  -0.01515   0.00000  -0.01515  -2.61183
    D8        1.73267   0.00091  -0.01389   0.00000  -0.01389   1.71878
    D9        1.57658  -0.00129  -0.13632   0.00000  -0.13632   1.44026
   D10       -2.80260  -0.00293  -0.13661   0.00000  -0.13661  -2.93921
   D11       -2.80260  -0.00293  -0.13661   0.00000  -0.13661  -2.93921
   D12       -0.89859  -0.00456  -0.13690   0.00000  -0.13690  -1.03549
   D13        0.86683   0.00130   0.00039   0.00000   0.00039   0.86722
   D14       -1.26472   0.00208   0.00160   0.00000   0.00160  -1.26312
   D15        2.96711   0.00188   0.00071   0.00000   0.00071   2.96782
   D16       -1.04011  -0.00147   0.00014   0.00000   0.00014  -1.03997
   D17        3.11153  -0.00069   0.00135   0.00000   0.00135   3.11288
   D18        1.06017  -0.00089   0.00046   0.00000   0.00046   1.06063
   D19        1.73267   0.00091  -0.01390   0.00000  -0.01390   1.71877
   D20       -2.59669  -0.00298  -0.01515   0.00000  -0.01515  -2.61183
         Item               Value     Threshold  Converged?
 Maximum Force            0.005986     0.000450     NO 
 RMS     Force            0.002040     0.000300     NO 
 Maximum Displacement     0.238554     0.001800     NO 
 RMS     Displacement     0.095037     0.001200     NO 
 Predicted change in Energy=-3.898743D-05
 GradGradGradGradGradGradGradGradGradGradGradGradGradGradGradGradGradGrad

 Leave Link  103 at Thu Sep  8 14:48:34 2022, MaxMem= 24159191040 cpu:         1.5
 (Enter /public/home/users/caep010/software/Gaussian09/g09/l202.exe)
                          Input orientation:                          
 ---------------------------------------------------------------------
 Center     Atomic      Atomic             Coordinates (Angstroms)
 Number     Number       Type             X           Y           Z
 ---------------------------------------------------------------------
      1          6           0        1.521001   -0.715419   -0.117933
      2          7           0        0.624109    0.340333    0.362408
      3          8           0        1.219983    1.540379   -0.145025
      4          7           0       -0.648717    0.223889   -0.407086
      5          6           0       -1.454173   -0.816892    0.239267
      6          8           0       -1.349646    1.432636   -0.090392
      7          1           0        2.505006   -0.521790    0.310258
      8          1           0        1.168446   -1.682749    0.243171
      9          1           0        1.587637   -0.725644   -1.213335
     10          1           0        0.965456    2.180729    0.529757
     11          1           0       -1.527179   -0.660643    1.323106
     12          1           0       -1.016780   -1.794760    0.032193
     13          1           0       -2.448283   -0.778800   -0.207276
     14          1           0       -1.146858    1.978630   -0.859112
 ---------------------------------------------------------------------
                    Distance matrix (angstroms):
                    1          2          3          4          5
     1  C    0.000000
     2  N    1.466204   0.000000
     3  O    2.275955   1.432713   0.000000
     4  N    2.381929   1.491900   2.300840   0.000000
     5  C    2.998258   2.381929   3.585459   1.466204   0.000000
     6  O    3.585459   2.300839   2.572468   1.432713   2.275955
     7  H    1.090461   2.069722   2.472065   3.319124   3.970796
     8  H    1.091063   2.098424   3.246831   2.712966   2.761858
     9  H    1.097475   2.132524   2.532058   2.559869   3.372089
    10  H    3.019240   1.879251   0.964449   2.704155   3.863253
    11  H    3.372090   2.559870   3.814028   2.132524   1.097474
    12  H    2.761856   2.712965   4.019660   2.098423   1.091063
    13  H    3.970795   3.319125   4.340351   2.069721   1.090461
    14  H    3.863252   2.704154   2.510761   1.879252   3.019241
                    6          7          8          9         10
     6  O    0.000000
     7  H    4.340350   0.000000
     8  H    4.019661   1.771643   0.000000
     9  H    3.814027   1.790100   1.792535   0.000000
    10  H    2.510762   3.118013   3.879408   3.445647   0.000000
    11  H    2.532056   4.159766   3.078531   4.017442   3.862128
    12  H    3.246830   3.755096   2.198243   3.078528   4.470050
    13  H    2.472066   4.986879   3.755098   4.159763   4.577734
    14  H    0.964450   4.577732   4.470051   3.862128   2.536074
                   11         12         13         14
    11  H    0.000000
    12  H    1.792535   0.000000
    13  H    1.790101   1.771644   0.000000
    14  H    3.445646   3.879409   3.118015   0.000000
 Stoichiometry    C2H8N2O2
 Framework group  C1[X(C2H8N2O2)]
 Deg. of freedom    36
 Full point group                 C1      NOp   1
 RotChk:  IX=0 Diff= 4.64D-03
 Largest Abelian subgroup         C1      NOp   1
 Largest concise Abelian subgroup C1      NOp   1
                         Standard orientation:                         
 ---------------------------------------------------------------------
 Center     Atomic      Atomic             Coordinates (Angstroms)
 Number     Number       Type             X           Y           Z
 ---------------------------------------------------------------------
      1          6           0        1.491260    1.101324    0.153392
      2          7           0        0.631575    0.048783   -0.396931
      3          8           0        1.286224   -1.160524    0.005159
      4          7           0       -0.631576    0.048783    0.396931
      5          6           0       -1.491261    1.101323   -0.153392
      6          8           0       -1.286223   -1.160525   -0.005159
      7          1           0        2.475032    0.984991   -0.302420
      8          1           0        1.092022    2.077890   -0.124723
      9          1           0        1.576279    1.028016    1.245110
     10          1           0        1.047353   -1.756115   -0.714823
     11          1           0       -1.576282    1.028012   -1.245110
     12          1           0       -1.092022    2.077888    0.124721
     13          1           0       -2.475032    0.984990    0.302423
     14          1           0       -1.047350   -1.756117    0.714823
 ---------------------------------------------------------------------
 Rotational constants (GHZ):      5.0347049      3.3966868      2.1927765
 Leave Link  202 at Thu Sep  8 14:48:34 2022, MaxMem= 24159191040 cpu:         0.4
 (Enter /public/home/users/caep010/software/Gaussian09/g09/l301.exe)
 Standard basis: 6-31G(d,p) (6D, 7F)
 Ernie: Thresh=  0.10000D-02 Tol=  0.10000D-05 Strict=F.
 There are   130 symmetry adapted cartesian basis functions of A   symmetry.
 There are   130 symmetry adapted basis functions of A   symmetry.
   130 basis functions,   224 primitive gaussians,   130 cartesian basis functions
    25 alpha electrons       25 beta electrons
       nuclear repulsion energy       274.3876811850 Hartrees.
 IExCor=  402 DFT=T Ex+Corr=B3LYP ExCW=0 ScaHFX=  0.200000
 ScaDFX=  0.800000  0.720000  1.000000  0.810000 ScalE2=  1.000000  1.000000
 IRadAn=      0 IRanWt=     -1 IRanGd=            0 ICorTp=0 IEmpDi=  4
 NAtoms=   14 NActive=   14 NUniq=   14 SFac= 1.00D+00 NAtFMM=   60 NAOKFM=F Big=F
 Integral buffers will be    131072 words long.
 Raffenetti 2 integral format.
 Two-electron integral symmetry is turned on.
 Leave Link  301 at Thu Sep  8 14:48:35 2022, MaxMem= 24159191040 cpu:         1.6
 (Enter /public/home/users/caep010/software/Gaussian09/g09/l302.exe)
 NPDir=0 NMtPBC=     1 NCelOv=     1 NCel=       1 NClECP=     1 NCelD=      1
         NCelK=      1 NCelE2=     1 NClLst=     1 CellRange=     0.0.
 One-electron integrals computed using PRISM.
 NBasis=   130 RedAO= T EigKep=  3.78D-03  NBF=   130
 NBsUse=   130 1.00D-06 EigRej= -1.00D+00 NBFU=   130
 Precomputing XC quadrature grid using
 IXCGrd= 4 IRadAn=           0 IRanWt=          -1 IRanGd=           0 AccXCQ= 0.00D+00.
 Generated NRdTot=       0 NPtTot=           0 NUsed=           0 NTot=          32
 NSgBfM=   130   130   130   130   130 MxSgAt=    14 MxSgA2=    14.
 Leave Link  302 at Thu Sep  8 14:48:35 2022, MaxMem= 24159191040 cpu:        13.5
 (Enter /public/home/users/caep010/software/Gaussian09/g09/l303.exe)
 DipDrv:  MaxL=1.
 Leave Link  303 at Thu Sep  8 14:48:35 2022, MaxMem= 24159191040 cpu:         0.7
 (Enter /public/home/users/caep010/software/Gaussian09/g09/l401.exe)
 Lowest energy guess from the checkpoint file:  "B3LYP6-31Gdp.Frag_1131.chk"
 B after Tr=    -0.000000    0.000000   -0.000000
         Rot=    1.000000   -0.000000   -0.000568    0.000000 Ang=  -0.07 deg.
 Guess basis will be translated and rotated to current coordinates.
 B after Tr=     0.000000    0.000000   -0.000000
         Rot=    0.999995    0.000000    0.003238   -0.000000 Ang=   0.37 deg.
 Guess basis will be translated and rotated to current coordinates.
 CkInt1:  FT= 1.85D-01
 Max alpha theta=  3.271 degrees.
 JPrj=2 DoOrth=T DoCkMO=T.
 Leave Link  401 at Thu Sep  8 14:48:35 2022, MaxMem= 24159191040 cpu:         3.8
 (Enter /public/home/users/caep010/software/Gaussian09/g09/l502.exe)
 Closed shell SCF:
 Using DIIS extrapolation, IDIIS=  1040.
 Integral symmetry usage will be decided dynamically.
 Keep R1 ints in memory in canonical form, NReq=37455246.
 IVT=       74396 IEndB=       74396 NGot= 24159191040 MDV= 24122859775
 LenX= 24122859775 LenY= 24122842434
 Requested convergence on RMS density matrix=1.00D-08 within 128 cycles.
 Requested convergence on MAX density matrix=1.00D-06.
 Requested convergence on             energy=1.00D-06.
 No special actions if energy rises.
 FoFCou: FMM=F IPFlag=           0 FMFlag=           0 FMFlg1=           0
         NFxFlg=           0 DoJE=F BraDBF=F KetDBF=F FulRan=T
         wScrn=  0.000000 ICntrl=     600 IOpCl=  0 I1Cent=           0 NGrid=           0
         NMat0=    1 NMatS0=   8515 NMatT0=    0 NMatD0=    1 NMtDS0=    0 NMtDT0=    0
 Symmetry not used in FoFCou.
 Integral accuracy reduced to 1.0D-05 until final iterations.

 Cycle   1  Pass 0  IDiag  1:
 E= -340.838867568356    
[...]
   D12       -1.01984   0.00000   0.00000  -0.00004  -0.00004  -1.01988
   D13        0.89021  -0.00000   0.00000  -0.00022  -0.00022   0.88999
   D14       -1.23744  -0.00000   0.00000  -0.00025  -0.00025  -1.23768
   D15        2.99326  -0.00000   0.00000  -0.00024  -0.00024   2.99302
   D16       -1.01313   0.00000   0.00000  -0.00020  -0.00020  -1.01333
   D17       -3.14078   0.00000   0.00000  -0.00022  -0.00022  -3.14100
   D18        1.08992   0.00000   0.00000  -0.00022  -0.00022   1.08970
   D19        1.70219   0.00001   0.00000   0.00016   0.00016   1.70235
   D20       -2.63814  -0.00000   0.00000   0.00012   0.00012  -2.63802
         Item               Value     Threshold  Converged?
 Maximum Force            0.000032     0.000450     YES
 RMS     Force            0.000011     0.000300     YES
 Maximum Displacement     0.000638     0.001800     YES
 RMS     Displacement     0.000193     0.001200     YES
 Predicted change in Energy=-1.264137D-08
 Optimization completed.
    -- Stationary point found.
                           ----------------------------
                           !   Optimized Parameters   !
                           ! (Angstroms and Degrees)  !
 --------------------------                            --------------------------
 ! Name  Definition              Value          Derivative Info.                !
 --------------------------------------------------------------------------------
 ! R1    R(1,2)                  1.4684         -DE/DX =    0.0                 !
 ! R2    R(1,7)                  1.0906         -DE/DX =    0.0                 !
 ! R3    R(1,8)                  1.0914         -DE/DX =    0.0                 !
 ! R4    R(1,9)                  1.097          -DE/DX =    0.0                 !
 ! R5    R(2,3)                  1.4376         -DE/DX =    0.0                 !
 ! R6    R(2,4)                  1.5015         -DE/DX =    0.0                 !
 ! R7    R(3,10)                 0.9675         -DE/DX =    0.0                 !
 ! R8    R(4,5)                  1.4684         -DE/DX =    0.0                 !
 ! R9    R(4,6)                  1.4376         -DE/DX =    0.0                 !
 ! R10   R(5,11)                 1.097          -DE/DX =    0.0                 !
 ! R11   R(5,12)                 1.0914         -DE/DX =    0.0                 !
 ! R12   R(5,13)                 1.0906         -DE/DX =    0.0                 !
 ! R13   R(6,14)                 0.9675         -DE/DX =    0.0                 !
 ! A1    A(2,1,7)              107.2043         -DE/DX =    0.0                 !
 ! A2    A(2,1,8)              109.3039         -DE/DX =    0.0                 !
 ! A3    A(2,1,9)              111.7473         -DE/DX =    0.0                 !
 ! A4    A(7,1,8)              108.6563         -DE/DX =    0.0                 !
 ! A5    A(7,1,9)              109.918          -DE/DX =    0.0                 !
 ! A6    A(8,1,9)              109.9267         -DE/DX =    0.0                 !
 ! A7    A(1,2,3)              103.1865         -DE/DX =    0.0                 !
 ! A8    A(1,2,4)              106.8227         -DE/DX =    0.0                 !
 ! A9    A(3,2,4)              103.7814         -DE/DX =    0.0                 !
 ! A10   A(2,3,10)             101.1505         -DE/DX =    0.0                 !
 ! A11   A(2,4,5)              106.8227         -DE/DX =    0.0                 !
 ! A12   A(2,4,6)              103.7814         -DE/DX =    0.0                 !
 ! A13   A(5,4,6)              103.1865         -DE/DX =    0.0                 !
 ! A14   A(4,5,11)             111.7473         -DE/DX =    0.0                 !
 ! A15   A(4,5,12)             109.3039         -DE/DX =    0.0                 !
 ! A16   A(4,5,13)             107.2043         -DE/DX =    0.0                 !
 ! A17   A(11,5,12)            109.9267         -DE/DX =    0.0                 !
 ! A18   A(11,5,13)            109.918          -DE/DX =    0.0                 !
 ! A19   A(12,5,13)            108.6563         -DE/DX =    0.0                 !
 ! A20   A(4,6,14)             101.1505         -DE/DX =    0.0                 !
 ! D1    D(7,1,2,3)             62.4477         -DE/DX =    0.0                 !
 ! D2    D(7,1,2,4)            171.5011         -DE/DX =    0.0                 !
 ! D3    D(8,1,2,3)           -179.9534         -DE/DX =    0.0                 !
 ! D4    D(8,1,2,4)            -70.9            -DE/DX =    0.0                 !
 ! D5    D(9,1,2,3)            -58.0481         -DE/DX =    0.0                 !
 ! D6    D(9,1,2,4)             51.0053         -DE/DX =    0.0                 !
 ! D7    D(1,2,3,10)          -151.1544         -DE/DX =    0.0                 !
 ! D8    D(4,2,3,10)            97.5285         -DE/DX =    0.0                 !
 ! D9    D(1,2,4,5)             84.2965         -DE/DX =    0.0                 !
 ! D10   D(1,2,4,6)           -167.068          -DE/DX =    0.0                 !
 ! D11   D(3,2,4,5)           -167.068          -DE/DX =    0.0                 !
 ! D12   D(3,2,4,6)            -58.4326         -DE/DX =    0.0                 !
 ! D13   D(2,4,5,11)            51.0053         -DE/DX =    0.0                 !
 ! D14   D(2,4,5,12)           -70.9            -DE/DX =    0.0                 !
 ! D15   D(2,4,5,13)           171.5011         -DE/DX =    0.0                 !
 ! D16   D(6,4,5,11)           -58.0481         -DE/DX =    0.0                 !
 ! D17   D(6,4,5,12)          -179.9534         -DE/DX =    0.0                 !
 ! D18   D(6,4,5,13)            62.4477         -DE/DX =    0.0                 !
 ! D19   D(2,4,6,14)            97.5285         -DE/DX =    0.0                 !
 ! D20   D(5,4,6,14)          -151.1544         -DE/DX =    0.0                 !
 --------------------------------------------------------------------------------
 GradGradGradGradGradGradGradGradGradGradGradGradGradGradGradGradGradGrad

 Leave Link  103 at Thu Sep  8 14:49:11 2022, MaxMem= 24159191040 cpu:         1.8
 (Enter /public/home/users/caep010/software/Gaussian09/g09/l9999.exe)
 1\1\GINC-B1473\Freq\RB3LYP\6-31G(d,p)\C2H8N2O2\ROOT\08-Sep-2022\0\\#P 
 Geom=AllCheck Guess=TCheck SCRF=Check GenChk RB3LYP/6-31G(d,p) Freq\\F
 rag_1131\\0,1\C,1.5274059738,-0.7148448434,-0.1324613894\N,0.62722137,
 0.3318591629,0.3678252815\O,1.2221275427,1.5418502721,-0.1307524665\N,
 -0.6510474763,0.2144325392,-0.411084123\C,-1.460702917,-0.8145980548,0
 .2535680181\O,-1.3518118727,1.4316555086,-0.1047034711\H,2.5058098407,
 -0.5407207757,0.3168725963\H,1.1623681815,-1.6905246014,0.1930594766\H
 ,1.6090536592,-0.6920734638,-1.2261570772\H,0.9465845055,2.1777867245,
 0.5443330868\H,-1.5515054437,-0.6274570658,1.3306419596\H,-1.010397531
 2,-1.794011717,0.0828596504\H,-2.4474016385,-0.7985309695,-0.210826044
 3\H,-1.127704194,1.975076284,-0.8731754979\\Version=ES64L-G09RevE.01\S
 tate=1-A\HF=-340.8389775\RMSD=1.448e-09\RMSF=1.615e-05\ZeroPoint=0.116
 9405\Thermal=0.1243425\Dipole=0.0069978,-0.1604525,0.0127053\DipoleDer
 iv=0.1766696,-0.0153857,-0.0499889,-0.1271512,0.2351164,0.0319235,-0.0
 772816,0.013408,0.284601,0.0618706,0.2550052,0.1038514,0.2426017,0.220
 7449,-0.0698507,-0.0944545,-0.1186978,-0.2402586,-0.5250899,-0.1960124
 ,-0.1149144,-0.2360983,-0.7143908,0.0282608,0.0192672,0.2314975,-0.194
 0297,0.1059833,-0.2467476,0.1402935,-0.2659838,0.1950912,0.0075887,-0.
 0609721,0.0390093,-0.2587177,0.1656683,0.0017836,-0.0487395,0.1077448,
 0.239297,-0.0282274,-0.0947484,-0.0129088,0.2914216,-0.5632373,0.19004
 58,-0.1462374,0.2521033,-0.7047963,0.0447727,-0.0029441,-0.1463624,-0.
 1654768,-0.0908591,0.0202344,-0.0509741,-0.0216306,0.0606103,-0.020151
 2,-0.0533898,-0.0269606,0.0349732,0.0498102,-0.0750412,0.034044,-0.033
 9642,-0.092271,0.0354392,0.0499979,0.032408,0.0370323,0.0430297,0.0301
 139,-0.0113258,0.0332795,0.0222483,0.0211186,0.0864721,-0.0550803,-0.1
 408671,0.2849248,0.069339,0.0814455,0.046219,0.2755042,-0.007299,0.073
 536,0.0033825,0.2106308,0.0478369,-0.0292059,-0.0036203,-0.0174916,0.0
 192527,-0.0476207,0.0864967,0.0367737,-0.1426786,0.0387368,0.0913971,0
 .0229214,0.0533164,-0.0880815,-0.0120504,0.044807,-0.0073689,0.0439161
 ,-0.0890995,-0.0414221,-0.0474588,-0.000504,0.0648249,0.0108566,-0.057
 0007,0.0171446,0.028999,0.2937556,-0.0541042,0.0907033,-0.032441,0.266
 8496,0.0052391,0.0802144,-0.0062449,0.2104545\Polar=52.270456,-0.04768
 39,52.2605987,-0.5500993,-1.2927859,36.3417256\PG=C01 [X(C2H8N2O2)]\NI
 mag=0\\0.56343071,0.07010741,0.55020645,0.03765369,-0.03947660,0.56945
 905,-0.12942518,0.03294583,0.05167412,0.35118526,0.05275375,-0.1282416
 1,-0.06646285,-0.03797665,0.45431522,0.01332447,-0.01331459,-0.0963166
 2,-0.02574788,0.01059791,0.28939762,0.00679162,0.02091526,-0.00821897,
 -0.07465046,-0.02287929,0.02487237,0.16904303,-0.01881404,-0.05270707,
 0.01962925,-0.03814949,-0.15929073,0.03904588,-0.02449707,0.45106813,-
 0.00266338,-0.01752750,0.00513154,0.02698767,0.04337978,-0.09414021,-0
 .14463305,0.19124047,0.34423962,-0.02486023,0.01017279,-0.01479476,-0.
 07411364,-0.00969739,-0.04683032,-0.02816806,-0.01837018,-0.00082522,0
 .34574662,0.02949650,0.00197926,0.01313385,0.00247539,-0.07801631,-0.0
 0809409,-0.03416753,-0.02987071,-0.01435493,0.02442553,0.45196323,0.01
 423179,-0.00160971,0.00204949,-0.04803129,-0.00265814,-0.11920294,0.01
 767806,-0.00014432,0.01744626,-0.02853964,-0.03850194,0.29718823,-0.00
 313865,0.00224648,0.00024869,-0.02124184,-0.02884352,0.01864201,-0.008
 07616,-0.00444299,-0.00246644,-0.12242443,-0.05016679,0.02007349,0.574
 95028,-0.00268672,0.00270847,0.00004403,-0.01421880,-0.00338499,0.0036
 1617,0.00187721,0.00342133,-0.00152079,-0.02494522,-0.12154510,0.01827
 093,-0.06199908,0.55207069,0.00065688,-0.00035856,0.00049508,-0.011673
 82,-0.01371548,0.00379536,-0.00565851,-0.00529107,-0.00001505,0.050091
 55,0.07440091,-0.11001388,0.04442545,0.04496031,0.55607523,-0.00815138
 ,-0.00382658,-0.00561948,-0.03281346,0.03611335,0.01172756,-0.01099371
 ,0.00659629,-0.00222954,-0.08094800,0.03406249,0.02318480,0.00660030,-
 0.01670925,-0.00390338,0.16868702,0.00294227,0.00441112,0.00409149,0.0
 1750856,-0.02174884,0.00804848,-0.00861579,0.00884625,-0.00396528,0.04
 950473,-0.16388805,-0.02527990,0.02314401,-0.05148603,-0.01110797,-0.0
 1902803,0.38745194,-0.00314577,0.00056831,-0.00092963,-0.00522371,0.02
 071281,0.01396978,-0.00130701,0.00250132,0.00067811,0.02324207,-0.0295
 1906,-0.08324535,-0.00789349,0.02611705,0.00410182,-0.12733897,-0.2101
 8638,0.40821183,-0.26508008,-0.04093136,-0.10174627,-0.02488530,-0.002
 65873,-0.00828185,0.00245879,-0.00146492,0.00000701,0.00125677,0.00322
 159,0.00310627,0.00030366,-0.00008126,-0.00030954,-0.00165623,0.001163
 65,-0.00046219,0.29126746,-0.05009148,-0.05464995,-0.02219140,0.027611
 32,0.00168150,0.01003894,0.00012262,0.00073139,0.00050496,0.00053774,-
 0.00421951,-0.00174289,-0.00027984,-0.00081281,-0.00011672,0.00271057,
 -0.00128936,0.00044043,0.04225753,0.05971111,-0.10639021,-0.02083199,-
 0.09982694,0.01334980,0.00283975,0.00500265,0.00007567,0.00040960,-0.0
 0002829,-0.00027233,-0.00102274,-0.00055305,0.00007352,0.00006633,0.00
 015040,0.00073127,-0.00058656,0.00092401,0.10989287,0.02427833,0.10105
 210,-0.08373592,-0.08773885,0.03088535,0.00908424,0.01830536,-0.006802
 15,-0.00090469,0.00537309,0.00146242,-0.00037091,-0.00073016,-0.000859
 29,-0.00248974,0.00069073,-0.00004943,0.00032139,-0.00058070,0.0000885
 6,-0.00744350,-0.02528079,0.01036247,0.08836808,-0.07892929,-0.2596689
 5,0.07167334,-0.01118399,-0.02142070,0.00657650,0.00381834,-0.00467105
 ,-0.00343605,0.00021797,-0.00010953,0.00067093,-0.00077737,-0.00145569
 ,-0.00012225,0.00036982,0.00046121,-0.00004821,-0.00144287,-0.00269148
 ,0.00122512,0.08918051,0.28768493,0.03125606,0.07625333,-0.07715135,-0
 .00704253,-0.00952651,0.00219436,0.00155893,-0.00402660,0.00073531,0.0
 0003011,0.00036035,0.00044423,0.00029011,0.00061360,0.00056358,0.00000
 224,-0.00007881,-0.00013947,-0.00377585,-0.01288502,0.00413881,-0.0338
 3783,-0.07798479,0.07524001,-0.05133473,-0.00180807,0.01008973,-0.0081
 9489,0.00678304,0.02794767,0.00087408,-0.00140510,-0.00235137,0.003742
 68,-0.00024139,0.00300706,-0.00044660,-0.00033935,-0.00023880,-0.00000
 394,-0.00064961,-0.00117190,0.00426793,0.00174767,-0.02840276,-0.00070
 873,-0.00035495,0.01151044,0.05170330,-0.00275017,-0.05242635,0.015955
 19,0.01003374,-0.00717381,-0.03228423,-0.00045777,0.00459546,0.0004974
 5,-0.00283575,0.00070534,0.00041389,-0.00025671,-0.00024900,0.00029494
 ,-0.00018016,-0.00010482,0.00012322,0.00015513,0.00017248,-0.00607264,
 -0.00064876,0.00125559,0.02855084,-0.00328395,0.05244033,0.01324337,0.
 01250925,-0.30372344,0.00978985,-0.00805709,-0.01657361,-0.00134132,-0
 .00047516,0.00281406,-0.00140844,0.00187053,0.00275764,-0.00010036,-0.
 00052298,0.00016925,-0.00033646,-0.00001886,0.00022471,0.00131630,0.00
 170753,-0.01055822,-0.00079149,0.00008535,-0.00671179,-0.02011782,-0.0
 0795170,0.33162771,-0.00084273,-0.00111411,0.00075331,0.00112799,-0.01
 915414,-0.01032031,-0.05697126,0.09893932,0.12508244,0.00010617,-0.008
 37730,-0.00268365,-0.00099735,0.00049310,-0.00043744,0.00119734,0.0041
 8454,0.00251240,0.00001262,0.00042572,0.00022095,0.00045141,0.00008233
 ,-0.00014155,-0.00019250,0.00015706,-0.00023755,0.05783016,-0.00315048
 ,-0.00862259,0.00296593,0.00816592,-0.03232293,-0.02521646,0.06809031,
 -0.22023847,-0.19469585,-0.00022254,-0.00171831,0.00074754,0.00017207,
 -0.00057219,-0.00003740,0.00189784,-0.00003598,0.00017015,-0.00018708,
 0.00022964,0.00000493,0.00128564,-0.00132126,-0.00049769,-0.00069295,0
 .00062093,0.00073884,-0.07517388,0.26294740,0.00173655,0.00323296,-0.0
 0076794,-0.00183181,0.02214442,0.01118964,0.11377999,-0.24255715,-0.27
 833009,-0.00015980,-0.00123183,-0.00182707,0.00002823,0.00004672,0.000
 77503,0.00202135,0.00171129,0.00028213,-0.00007787,0.00007302,-0.00007
 812,-0.00060532,0.00132875,0.00061940,-0.00011137,0.00024305,0.0003885
 5,-0.11313709,0.21559610,0.26963966,-0.00049402,0.00027636,-0.00026362
 ,0.00344240,0.00096458,0.00292102,-0.00006597,0.00046201,-0.00124690,-
 0.00697181,-0.00277597,0.02587267,-0.05192375,0.00398825,0.01268847,0.
 00076665,0.00069122,-0.00245257,-0.00009998,0.00002919,0.00000781,0.00
 004876,0.00003110,0.00009930,0.00025001,-0.00014721,-0.00023306,0.0001
 2149,-0.00016184,0.00002849,0.05143989,0.00021089,-0.00015879,-0.00026
 109,0.00284305,0.00070933,0.00019667,0.00012867,-0.00006194,-0.0001789
 3,-0.00867257,-0.00209763,0.03224658,0.00539041,-0.06231283,-0.0533724
 4,-0.00009233,0.00462858,-0.00099082,0.00001707,0.00014208,-0.00004608
 ,-0.00011706,0.00005549,-0.00020162,0.00014589,-0.00018222,-0.00003915
 ,-0.00009758,0.00005301,-0.00003357,-0.00046806,0.06179381,-0.00018520
 ,0.00056629,0.00012646,-0.00170440,-0.00165427,0.00305392,-0.00036355,
 0.00003811,0.00024385,0.01061597,0.00656213,-0.02287287,0.01534485,-0.
 04967310,-0.29324795,-0.00139424,0.00007201,0.00288838,0.00008730,-0.0
 0005852,-0.00002079,0.00009208,-0.00014411,-0.00011346,-0.00025949,0.0
 0003472,-0.00007435,0.00008724,-0.00002595,-0.00013769,-0.02286024,0.0
 4907622,0.32253766,-0.00249126,-0.00077952,0.00004223,-0.00040802,0.00
 057117,-0.00090482,0.00030370,0.00057317,-0.00000298,0.00956561,-0.016
 45561,-0.00361706,-0.09992993,0.10667042,0.02031021,-0.00015677,-0.004
 76455,0.00192590,-0.00015438,-0.00003194,0.00016164,-0.00257851,-0.000
 60800,-0.00000421,0.00004029,0.00012560,0.00006135,0.00008116,-0.00000
 259,-0.00000439,-0.00087095,0.00053534,-0.00083560,0.10578720,0.000728
 69,-0.00147889,0.00044739,-0.00022757,-0.00022486,-0.00063879,-0.00037
 930,0.00048415,-0.00004604,0.01251886,-0.02094806,-0.00337935,0.098060
 04,-0.26167782,-0.03866203,-0.00321802,-0.00409746,0.00429744,0.000078
 20,0.00061093,-0.00011846,0.00026007,0.00130116,-0.00039871,-0.0000199
 8,0.00011462,0.00011521,0.00027016,0.00002107,0.00007261,0.00237265,-0
 .00314999,-0.00070446,-0.11054788,0.28895274,0.00020932,-0.00026637,0.
 00058830,0.00009223,-0.00024595,0.00059668,0.00005876,-0.00001652,-0.0
 0014472,-0.00987908,0.01244007,0.00124034,0.02245501,-0.04313231,-0.05
 894848,0.00172552,0.00488346,-0.00058619,0.00008947,0.00006175,-0.0001
 2901,-0.00010117,0.00024837,0.00039442,0.00008675,0.00017414,-0.000164
 12,-0.00010426,-0.00001405,-0.00010541,0.01377586,-0.02799617,-0.00214
 399,-0.02317088,0.03996160,0.05655308,0.00026581,0.00012312,-0.0003412
 6,0.00152202,-0.00222962,0.00334988,-0.00132118,-0.00122491,-0.0002484
 0,-0.02257652,-0.00062938,-0.00756623,-0.26989659,0.00535056,-0.106614
 07,0.00232894,0.00159703,-0.00018636,-0.00003902,-0.00000503,0.0000339
 4,-0.00014635,-0.00012810,0.00011592,-0.00009476,-0.00002465,0.0000863
 5,-0.00019630,0.00009887,0.00009604,0.00458803,0.00043069,0.00151400,-
 0.00974881,0.00004405,-0.00504117,0.29528094,0.00038065,-0.00074537,0.
 00023428,-0.00010495,-0.00394212,0.00254672,-0.00257214,-0.00154101,-0
 .00010498,-0.02717422,-0.00248066,-0.00972434,0.01367655,-0.04577236,0
 .00468952,0.00003938,0.00069962,-0.00061793,-0.00001605,0.00026403,-0.
 00000753,-0.00000923,0.00059518,-0.00016893,-0.00004902,0.00014977,0.0
 0003847,-0.00024893,0.00013840,0.00005350,-0.00586375,0.00008284,-0.00
 331897,0.02590304,0.00160753,0.01308731,-0.00355950,0.05075415,0.00002
 023,0.00008370,0.00012081,-0.00033323,0.00151858,-0.00109570,0.0010798
 6,0.00103198,0.00084062,0.01784682,-0.00047338,0.00685603,-0.11250402,
 0.00287070,-0.10388801,0.00012231,-0.00050611,0.00013334,0.00003593,-0
 .00003309,-0.00000963,0.00015403,0.00001609,-0.00012130,0.00001113,0.0
 0001929,-0.00003370,0.00018331,0.00011963,-0.00009479,-0.02814621,0.00
 187150,-0.01078869,0.00634416,0.00009035,0.00214511,0.11489769,-0.0065
 8212,0.10599557,-0.00093396,-0.00058875,-0.00036276,-0.00062912,0.0079
 4808,-0.00389764,0.00168026,-0.00357518,0.00312773,0.00001572,0.019862
 61,-0.01585698,-0.00128920,0.00190940,0.00071243,-0.04517816,-0.067097
 33,0.12141305,-0.00020874,0.00024673,0.00015536,0.00010447,-0.00027550
 ,-0.00006113,0.00009785,0.00011359,0.00006930,-0.00172821,-0.00011929,
 -0.00176300,-0.00023077,-0.00025441,-0.00013874,0.00056067,0.00006003,
 -0.00019635,0.00003378,-0.00040183,0.00028801,0.04770541,-0.00019798,-
 0.00060574,0.00021719,0.00027765,-0.00093915,-0.00111911,-0.00138350,-
 0.00076575,0.00020769,-0.00545975,-0.02975396,0.03069071,0.00407672,-0
 .00893167,-0.00156177,-0.03873537,-0.16384817,0.18643168,-0.00011091,0
 .00011996,-0.00013804,0.00001014,-0.00001490,-0.00000947,0.00016777,0.
 00008167,-0.00000023,-0.00038628,0.00082128,-0.00067987,0.00060146,0.0
 0049824,-0.00077010,-0.00118865,-0.00151512,0.00081466,0.00015687,0.00
 019001,-0.00002712,0.04217183,0.20466333,0.00005221,0.00017147,0.00074
 520,-0.00030497,0.00112703,-0.00187094,0.00241877,-0.00138578,0.000528
 98,0.00088309,-0.01556987,0.00973295,0.00138295,-0.00175668,-0.0000123
 8,0.10130701,0.23292315,-0.34651347,0.00011842,-0.00007733,-0.00006391
 ,0.00000178,-0.00008903,-0.00009275,0.00000074,0.00000184,-0.00014271,
 -0.00177780,0.00014428,-0.00155330,-0.00019102,-0.00027109,0.00054952,
 -0.00030556,-0.00103676,0.00070400,-0.00009634,-0.00012500,-0.00005966
 ,-0.10348928,-0.21405623,0.33804847\\0.00001928,-0.00001624,-0.0000038
 6,-0.00003221,-0.00001895,-0.00001962,0.00000470,0.00003860,0.00002439
 ,0.00003359,-0.00001280,0.00002213,-0.00001784,-0.00001704,0.00000649,
 -0.00000784,0.00003374,-0.00003011,-0.00000125,-0.00000148,0.00000813,
 0.00000306,0.00000128,0.00000101,-0.00000385,0.00000577,0.00001047,0.0
 0000934,-0.00000920,-0.00002300,0.00000341,0.00000436,-0.00001128,-0.0
 0000315,0.00000084,-0.00000118,0.00000142,-0.00000263,-0.00000780,-0.0
 0000867,-0.00000625,0.00002422\\\@


 WHEN ALL ELSE FAILS, TRY THE BOSS'S SUGGESTION.
 Job cpu time:       0 days  0 hours  5 minutes 27.0 seconds.
 File lengths (MBytes):  RWF=     31 Int=      0 D2E=      0 Chk=      2 Scr=      1
 Normal termination of Gaussian 09 at Thu Sep  8 14:49:12 2022.
