 Entering Gaussian System, Link 0=g09
 Input=B3LYP6-31Gdp.Frag_834.gjf
 Output=B3LYP6-31Gdp.Frag_834.log
 Initial command:
 /public/home/users/caep010/software/Gaussian09/g09/l1.exe "/public/home/users/caep010/.cache/gau_scr/Gau-33391.inp" -scrdir="/public/home/users/caep010/.cache/gau_scr/"
 Entering Link 1 = /public/home/users/caep010/software/Gaussian09/g09/l1.exe PID=     33392.
  
 Copyright (c) 1988,1990,1992,1993,1995,1998,2003,2009,2015,
            Gaussian, Inc.  All Rights Reserved.
  
 This is part of the Gaussian(R) 09 program.  It is based on
 the Gaussian(R) 03 system (copyright 2003, Gaussian, Inc.),
 the Gaussian(R) 98 system (copyright 1998, Gaussian, Inc.),
 the Gaussian(R) 94 system (copyright 1995, Gaussian, Inc.),
 the Gaussian 92(TM) system (copyright 1992, Gaussian, Inc.),
 the Gaussian 90(TM) system (copyright 1990, Gaussian, Inc.),
 the Gaussian 88(TM) system (copyright 1988, Gaussian, Inc.),
 the Gaussian 86(TM) system (copyright 1986, Carnegie Mellon
 University), and the Gaussian 82(TM) system (copyright 1983,
 Carnegie Mellon University). Gaussian is a federally registered
 trademark of Gaussian, Inc.
  
 This software contains proprietary and confidential information,
 including trade secrets, belonging to Gaussian, Inc.
  
 This software is provided under written license and may be
 used, copied, transmitted, or stored only in accord with that
 written license.
  
 The following legend is applicable only to US Government
 contracts under FAR:
  
                    RESTRICTED RIGHTS LEGEND
  
 Use, reproduction and disclosure by the US Government is
 subject to restrictions as set forth in subparagraphs (a)
 and (c) of the Commercial Computer Software - Restricted
 Rights clause in FAR 52.227-19.
  
 Gaussian, Inc.
 340 Quinnipiac St., Bldg. 40, Wallingford CT 06492
  
  
 ---------------------------------------------------------------
 Warning -- This program may not be used in any manner that
 competes with the business of Gaussian, Inc. or will provide
 assistance to any competitor of Gaussian, Inc.  The licensee
 of this program is prohibited from giving any competitor of
 Gaussian, Inc. access to this program.  By using this program,
 the user acknowledges that Gaussian, Inc. is engaged in the
 business of creating and licensing software in the field of
 computational chemistry and represents and warrants to the
 licensee that it is not a competitor of Gaussian, Inc. and that
 it will not use this program in any manner prohibited above.
 ---------------------------------------------------------------
  

 Cite this work as:
 Gaussian 09, Revision E.01,
 M. J. Frisch, G. W. Trucks, H. B. Schlegel, G. E. Scuseria, 
 M. A. Robb, J. R. Cheeseman, G. Scalmani, V. Barone, B. Mennucci, 
 G. A. Petersson, H. Nakatsuji, M. Caricato, X. Li, H. P. Hratchian, 
 A. F. Izmaylov, J. Bloino, G. Zheng, J. L. Sonnenberg, M. Hada, 
 M. Ehara, K. Toyota, R. Fukuda, J. Hasegawa, M. Ishida, T. Nakajima, 
 Y. Honda, O. Kitao, H. Nakai, T. Vreven, J. A. Montgomery, Jr., 
 J. E. Peralta, F. Ogliaro, M. Bearpark, J. J. Heyd, E. Brothers, 
 K. N. Kudin, V. N. Staroverov, T. Keith, R. Kobayashi, J. Normand, 
 K. Raghavachari, A. Rendell, J. C. Burant, S. S. Iyengar, J. Tomasi, 
 M. Cossi, N. Rega, J. M. Millam, M. Klene, J. E. Knox, J. B. Cross, 
 V. Bakken, C. Adamo, J. Jaramillo, R. Gomperts, R. E. Stratmann, 
 O. Yazyev, A. J. Austin, R. Cammi, C. Pomelli, J. W. Ochterski, 
 R. L. Martin, K. Morokuma, V. G. Zakrzewski, G. A. Voth, 
 P. Salvador, J. J. Dannenberg, S. Dapprich, A. D. Daniels, 
 O. Farkas, J. B. Foresman, J. V. Ortiz, J. Cioslowski, 
 and D. J. Fox, Gaussian, Inc., Wallingford CT, 2013.
 
 ******************************************
 Gaussian 09:  ES64L-G09RevE.01 30-Nov-2015
                 8-Sep-2022 
 ******************************************
 %nproc=32
 Will use up to   32 processors via shared memory.
 %mem=180GB
 %chk=B3LYP6-31Gdp.Frag_834.chk
 ----------------------------
 #P OPT Freq B3LYP/6-31G(d,p)
 ----------------------------
 1/14=-1,18=20,19=15,26=3,38=1/1,3;
 2/9=110,12=2,17=6,18=5,40=1/2;
 3/5=1,6=6,7=101,11=2,16=1,25=1,30=1,71=1,74=-5/1,2,3;
 4//1;
 5/5=2,38=5/2;
 6/7=2,8=2,9=2,10=2,28=1/1;
 7//1,2,3,16;
 1/14=-1,18=20,19=15,26=3/3(2);
 2/9=110/2;
 99//99;
 2/9=110/2;
 3/5=1,6=6,7=101,11=2,16=1,25=1,30=1,71=1,74=-5/1,2,3;
 4/5=5,16=3,69=1/1;
 5/5=2,38=5/2;
 7//1,2,3,16;
 1/14=-1,18=20,19=15,26=3/3(-5);
 2/9=110/2;
 6/7=2,8=2,9=2,10=2,19=2,28=1/1;
 99/9=1/99;
 Leave Link    1 at Thu Sep  8 15:14:44 2022, MaxMem= 24159191040 cpu:         2.6
 (Enter /public/home/users/caep010/software/Gaussian09/g09/l101.exe)
 --------
 Frag_834
 --------
 Symbolic Z-matrix:
 Charge =  0 Multiplicity = 1
 O                     0.28853  -2.04968   0.48819 
 C                     0.60541  -1.00663  -0.01891 
 O                     1.68369  -0.85594  -0.78729 
 C                    -0.2465    0.27851   0.17262 
 O                    -1.53703  -0.07693   0.51651 
 O                    -0.28185   1.04354  -1.00838 
 O                     0.42178   1.01903   1.1344 
 H                     1.66502   0.04302  -1.15207 
 H                    -1.47003  -0.96548   0.90376 
 H                    -1.04249   0.74076  -1.51968 
 H                    -0.08645   1.8299    1.27073 
 
 NAtoms=     11 NQM=       11 NQMF=       0 NMMI=      0 NMMIF=      0
                NMic=       0 NMicF=      0.
                    Isotopes and Nuclear Properties:
 (Nuclear quadrupole moments (NQMom) in fm**2, nuclear magnetic moments (NMagM)
  in nuclear magnetons)

  Atom         1           2           3           4           5           6           7           8           9          10
 IAtWgt=          16          12          16          12          16          16          16           1           1           1
 AtmWgt=  15.9949146  12.0000000  15.9949146  12.0000000  15.9949146  15.9949146  15.9949146   1.0078250   1.0078250   1.0078250
 NucSpn=           0           0           0           0           0           0           0           1           1           1
 AtZEff=   0.0000000   0.0000000   0.0000000   0.0000000   0.0000000   0.0000000   0.0000000   0.0000000   0.0000000   0.0000000
 NQMom=    0.0000000   0.0000000   0.0000000   0.0000000   0.0000000   0.0000000   0.0000000   0.0000000   0.0000000   0.0000000
 NMagM=    0.0000000   0.0000000   0.0000000   0.0000000   0.0000000   0.0000000   0.0000000   2.7928460   2.7928460   2.7928460
 AtZNuc=   8.0000000   6.0000000   8.0000000   6.0000000   8.0000000   8.0000000   8.0000000   1.0000000   1.0000000   1.0000000

  Atom        11
 IAtWgt=           1
 AtmWgt=   1.0078250
 NucSpn=           1
 AtZEff=   0.0000000
 NQMom=    0.0000000
 NMagM=    2.7928460
 AtZNuc=   1.0000000
 Leave Link  101 at Thu Sep  8 15:14:44 2022, MaxMem= 24159191040 cpu:        10.0
 (Enter /public/home/users/caep010/software/Gaussian09/g09/l103.exe)

 GradGradGradGradGradGradGradGradGradGradGradGradGradGradGradGradGradGrad
 Berny optimization.
 Initialization pass.
                           ----------------------------
                           !    Initial Parameters    !
                           ! (Angstroms and Degrees)  !
 --------------------------                            --------------------------
 ! Name  Definition              Value          Derivative Info.                !
 --------------------------------------------------------------------------------
 ! R1    R(1,2)                  1.2023         estimate D2E/DX2                !
 ! R2    R(2,3)                  1.3326         estimate D2E/DX2                !
 ! R3    R(2,4)                  1.5537         estimate D2E/DX2                !
 ! R4    R(3,8)                  0.9703         estimate D2E/DX2                !
 ! R5    R(4,5)                  1.382          estimate D2E/DX2                !
 ! R6    R(4,6)                  1.4076         estimate D2E/DX2                !
 ! R7    R(4,7)                  1.3856         estimate D2E/DX2                !
 ! R8    R(5,9)                  0.9716         estimate D2E/DX2                !
 ! R9    R(6,10)                 0.9652         estimate D2E/DX2                !
 ! R10   R(7,11)                 0.9666         estimate D2E/DX2                !
 ! A1    A(1,2,3)              123.6806         estimate D2E/DX2                !
 ! A2    A(1,2,4)              121.4049         estimate D2E/DX2                !
 ! A3    A(3,2,4)              114.9112         estimate D2E/DX2                !
 ! A4    A(2,3,8)              107.8158         estimate D2E/DX2                !
 ! A5    A(2,4,5)              109.2652         estimate D2E/DX2                !
 ! A6    A(2,4,6)              111.094          estimate D2E/DX2                !
 ! A7    A(2,4,7)              105.258          estimate D2E/DX2                !
 ! A8    A(5,4,6)              108.9719         estimate D2E/DX2                !
 ! A9    A(5,4,7)              114.5244         estimate D2E/DX2                !
 ! A10   A(6,4,7)              107.6997         estimate D2E/DX2                !
 ! A11   A(4,5,9)              105.6639         estimate D2E/DX2                !
 ! A12   A(4,6,10)             107.0823         estimate D2E/DX2                !
 ! A13   A(4,7,11)             107.0149         estimate D2E/DX2                !
 ! D1    D(1,2,3,8)            173.7673         estimate D2E/DX2                !
 ! D2    D(4,2,3,8)             -5.5741         estimate D2E/DX2                !
 ! D3    D(1,2,4,5)            -22.1777         estimate D2E/DX2                !
 ! D4    D(1,2,4,6)           -142.4393         estimate D2E/DX2                !
 ! D5    D(1,2,4,7)            101.2656         estimate D2E/DX2                !
 ! D6    D(3,2,4,5)            157.1802         estimate D2E/DX2                !
 ! D7    D(3,2,4,6)             36.9186         estimate D2E/DX2                !
 ! D8    D(3,2,4,7)            -79.3766         estimate D2E/DX2                !
 ! D9    D(2,4,5,9)             23.396          estimate D2E/DX2                !
 ! D10   D(6,4,5,9)            144.9502         estimate D2E/DX2                !
 ! D11   D(7,4,5,9)            -94.3714         estimate D2E/DX2                !
 ! D12   D(2,4,6,10)            90.1026         estimate D2E/DX2                !
 ! D13   D(5,4,6,10)           -30.3326         estimate D2E/DX2                !
 ! D14   D(7,4,6,10)          -155.114          estimate D2E/DX2                !
 ! D15   D(2,4,7,11)           179.7321         estimate D2E/DX2                !
 ! D16   D(5,4,7,11)           -60.2438         estimate D2E/DX2                !
 ! D17   D(6,4,7,11)            61.1355         estimate D2E/DX2                !
 --------------------------------------------------------------------------------
 Trust Radius=3.00D-01 FncErr=1.00D-07 GrdErr=1.00D-06
 Number of steps in this run=     50 maximum allowed number of steps=    100.
 GradGradGradGradGradGradGradGradGradGradGradGradGradGradGradGradGradGrad

 Leave Link  103 at Thu Sep  8 15:14:44 2022, MaxMem= 24159191040 cpu:         0.4
 (Enter /public/home/users/caep010/software/Gaussian09/g09/l202.exe)
                          Input orientation:                          
 ---------------------------------------------------------------------
 Center     Atomic      Atomic             Coordinates (Angstroms)
 Number     Number       Type             X           Y           Z
 ---------------------------------------------------------------------
      1          8           0        0.288531   -2.049684    0.488191
      2          6           0        0.605410   -1.006630   -0.018911
      3          8           0        1.683690   -0.855942   -0.787285
      4          6           0       -0.246498    0.278513    0.172618
      5          8           0       -1.537025   -0.076926    0.516514
      6          8           0       -0.281849    1.043540   -1.008380
      7          8           0        0.421783    1.019030    1.134402
      8          1           0        1.665022    0.043022   -1.152065
      9          1           0       -1.470031   -0.965475    0.903763
     10          1           0       -1.042485    0.740755   -1.519678
     11          1           0       -0.086448    1.829898    1.270732
 ---------------------------------------------------------------------
                    Distance matrix (angstroms):
                    1          2          3          4          5
     1  O    0.000000
     2  C    1.202300   0.000000
     3  O    2.235694   1.332589   0.000000
     4  C    2.409636   1.553713   2.435986   0.000000
     5  O    2.687979   2.396050   3.560865   1.382050   0.000000
     6  O    3.483259   2.443251   2.742309   1.407577   2.270730
     7  O    3.138845   2.338193   2.966616   1.385638   2.328054
     8  H    2.994092   1.873122   0.970335   2.337552   3.612707
     9  H    2.107309   2.271668   3.580167   1.891854   0.971581
    10  H    3.686420   2.832175   3.243127   1.926429   2.249278
    11  H    3.975442   3.191824   3.818712   1.907424   2.511772
                    6          7          8          9         10
     6  O    0.000000
     7  O    2.255485   0.000000
     8  H    2.193624   2.779598   0.000000
     9  H    3.017318   2.751439   3.882274   0.000000
    10  H    0.965231   3.043954   2.820029   2.994509   0.000000
    11  H    2.418862   0.966639   3.482889   3.140554   3.144301
                   11
    11  H    0.000000
 Stoichiometry    C2H4O5
 Framework group  C1[X(C2H4O5)]
 Deg. of freedom    27
 Full point group                 C1      NOp   1
 Largest Abelian subgroup         C1      NOp   1
 Largest concise Abelian subgroup C1      NOp   1
                         Standard orientation:                         
 ---------------------------------------------------------------------
 Center     Atomic      Atomic             Coordinates (Angstroms)
 Number     Number       Type             X           Y           Z
 ---------------------------------------------------------------------
      1          8           0       -1.539984    1.159351    0.018713
      2          6           0       -0.964174    0.103968    0.007052
      3          8           0       -1.583465   -1.075376   -0.030635
      4          6           0        0.587639    0.028173    0.019503
      5          8           0        1.106183    1.220277   -0.449604
      6          8           0        1.050004   -1.023513   -0.793792
      7          8           0        0.927609   -0.271199    1.329003
      8          1           0       -0.906526   -1.763045   -0.132678
      9          1           0        0.412590    1.884345   -0.301578
     10          1           0        1.178495   -0.661669   -1.679360
     11          1           0        1.891867   -0.328796    1.364802
 ---------------------------------------------------------------------
 Rotational constants (GHZ):      3.7287971      2.5695858      2.1110397
 Leave Link  202 at Thu Sep  8 15:14:44 2022, MaxMem= 24159191040 cpu:         0.4
 (Enter /public/home/users/caep010/software/Gaussian09/g09/l301.exe)
 Standard basis: 6-31G(d,p) (6D, 7F)
 Ernie: Thresh=  0.10000D-02 Tol=  0.10000D-05 Strict=F.
 There are   125 symmetry adapted cartesian basis functions of A   symmetry.
 There are   125 symmetry adapted basis functions of A   symmetry.
   125 basis functions,   224 primitive gaussians,   125 cartesian basis functions
    28 alpha electrons       28 beta electrons
       nuclear repulsion energy       339.5891110180 Hartrees.
 IExCor=  402 DFT=T Ex+Corr=B3LYP ExCW=0 ScaHFX=  0.200000
 ScaDFX=  0.800000  0.720000  1.000000  0.810000 ScalE2=  1.000000  1.000000
 IRadAn=      0 IRanWt=     -1 IRanGd=            0 ICorTp=0 IEmpDi=  4
 NAtoms=   11 NActive=   11 NUniq=   11 SFac= 1.00D+00 NAtFMM=   60 NAOKFM=F Big=F
 Integral buffers will be    131072 words long.
 Raffenetti 2 integral format.
 Two-electron integral symmetry is turned on.
 Leave Link  301 at Thu Sep  8 15:14:44 2022, MaxMem= 24159191040 cpu:         1.9
 (Enter /public/home/users/caep010/software/Gaussian09/g09/l302.exe)
 NPDir=0 NMtPBC=     1 NCelOv=     1 NCel=       1 NClECP=     1 NCelD=      1
         NCelK=      1 NCelE2=     1 NClLst=     1 CellRange=     0.0.
 One-electron integrals computed using PRISM.
 NBasis=   125 RedAO= T EigKep=  1.88D-03  NBF=   125
 NBsUse=   125 1.00D-06 EigRej= -1.00D+00 NBFU=   125
 Precomputing XC quadrature grid using
 IXCGrd= 4 IRadAn=           0 IRanWt=          -1 IRanGd=           0 AccXCQ= 0.00D+00.
 Generated NRdTot=       0 NPtTot=           0 NUsed=           0 NTot=          32
 NSgBfM=   125   125   125   125   125 MxSgAt=    11 MxSgA2=    11.
 Leave Link  302 at Thu Sep  8 15:14:45 2022, MaxMem= 24159191040 cpu:        11.9
 (Enter /public/home/users/caep010/software/Gaussian09/g09/l303.exe)
 DipDrv:  MaxL=1.
 Leave Link  303 at Thu Sep  8 15:14:45 2022, MaxMem= 24159191040 cpu:         0.7
 (Enter /public/home/users/caep010/software/Gaussian09/g09/l401.exe)
 ExpMin= 1.61D-01 ExpMax= 5.48D+03 ExpMxC= 8.25D+02 IAcc=1 IRadAn=         1 AccDes= 0.00D+00
 Harris functional with IExCor=  402 and IRadAn=       1 diagonalized for initial guess.
 HarFok:  IExCor=  402 AccDes= 0.00D+00 IRadAn=         1 IDoV= 1 UseB2=F ITyADJ=14
 ICtDFT=  3500011 ScaDFX=  1.000000  1.000000  1.000000  1.000000
 FoFCou: FMM=F IPFlag=           0 FMFlag=      100000 FMFlg1=           0
         NFxFlg=           0 DoJE=T BraDBF=F KetDBF=T FulRan=T
         wScrn=  0.000000 ICntrl=     500 IOpCl=  0 I1Cent=   200000004 NGrid=           0
         NMat0=    1 NMatS0=      1 NMatT0=    0 NMatD0=    1 NMtDS0=    0 NMtDT0=    0
 Petite list used in FoFCou.
 Harris En= -454.781067307621    
 JPrj=0 DoOrth=F DoCkMO=F.
 Leave Link  401 at Thu Sep  8 15:14:45 2022, MaxMem= 24159191040 cpu:         9.5
 (Enter /public/home/users/caep010/software/Gaussian09/g09/l502.exe)
 Closed shell SCF:
 Using DIIS extrapolation, IDIIS=  1040.
 Integral symmetry usage will be decided dynamically.
 Keep R1 ints in memory in canonical form, NReq=32082237.
 IVT=       70362 IEndB=       70362 NGot= 24159191040 MDV= 24128108929
 LenX= 24128108929 LenY= 24128092863
 Requested convergence on RMS density matrix=1.00D-08 within 128 cycles.
 Requested convergence on MAX density matrix=1.00D-06.
 Requested convergence on             energy=1.00D-06.
 No special actions if energy rises.
 FoFCou: FMM=F IPFlag=           0 FMFlag=           0 FMFlg1=           0
         NFxFlg=           0 DoJE=F BraDBF=F KetDBF=F FulRan=T
         wScrn=  0.000000 ICntrl=     600 IOpCl=  0 I1Cent=           0 NGrid=           0
         NMat0=    1 NMatS0=   7875 NMatT0=    0 NMatD0=    1 NMtDS0=    0 NMtDT0=    0
 Symmetry not used in FoFCou.
 Integral accuracy reduced to 1.0D-05 until final iterations.

 Cycle   1  Pass 0  IDiag  1:
 E= -454.529616761672    
 DIIS: error= 2.18D-02 at cycle   1 NSaved=   1.
 NSaved= 1 IEnMin= 1 EnMin= -454.529616761672     IErMin= 1 ErrMin= 2.18D-02
 ErrMax= 2.18D-02  0.00D+00 EMaxC= 1.00D-01 BMatC= 3.20D-01 BMatP= 3.20D-01
 IDIUse=3 WtCom= 7.82D-01 WtEn= 2.18D-01
 Coeff-Com:  0.100D+01
 Coeff-En:   0.100D+01
 Coeff:      0.100D+01
 Gap=     0.214 Goal=   None    Shift=    0.000
 GapD=    0.214 DampG=1.000 DampE=0.500 DampFc=0.5000 IDamp=-1.
 Damping current iteration by 5.00D-01
 RMSDP=8.13D-03 MaxDP=2.04D-01              OVMax= 2.18D-01

 Cycle   2  Pass 0  IDiag  1:
 E= -454.577759215629     Delta-E=       -0.048142453957 Rises=F Damp=T
 DIIS: error= 1.09D-02 at cycle   2 NSaved=   2.
 NSaved= 2 IEnMin= 2 EnMin= -454.577759215629     IErMin= 2 ErrMin= 1.09D-02
 ErrMax= 1.09D-02  0.00D+00 EMaxC= 1.00D-01 BMatC= 4.42D-02 BMatP= 3.20D-01
 IDIUse=3 WtCom= 8.91D-01 WtEn= 1.09D-01
 Coeff-Com:  0.237D+00 0.763D+00
 Coeff-En:   0.396D+00 0.604D+00
 Coeff:      0.254D+00 0.746D+00
 Gap=     0.276 Goal=   None    Shift=    0.000
 RMSDP=2.18D-03 MaxDP=5.68D-02 DE=-4.81D-02 OVMax= 1.92D-01

 Cycle   3  Pass 0  IDiag  1:
 E= -454.732942242863     Delta-E=       -0.155183027234 Rises=F Damp=F
 DIIS: error= 8.67D-03 at cycle   3 NSaved=   3.
 NSaved= 3 IEnMin= 3 EnMin= -454.732942242863     IErMin= 3 ErrMin= 8.67D-03
 ErrMax= 8.67D-03  0.00D+00 EMaxC= 1.00D-01 BMatC= 2.33D-02 BMatP= 4.42D-02
 IDIUse=3 WtCom= 9.13D-01 WtEn= 8.67D-02
 Coeff-Com:  0.119D+00 0.446D+00 0.435D+00
 Coeff-En:   0.000D+00 0.000D+00 0.100D+01
 Coeff:      0.109D+00 0.407D+00 0.484D+00
 Gap=     0.276 Goal=   None    Shift=    0.000
 RMSDP=1.27D-03 MaxDP=4.11D-02 DE=-1.55D-01 OVMax= 7.02D-02

 Cycle   4  Pass 0  IDiag  1:
 E= -454.748185204064     Delta-E=       -0.015242961201 Rises=F Damp=F
 DIIS: error= 3.89D-03 at cycle   4 NSaved=   4.
 NSaved= 4 IEnMin= 4 EnMin= -454.748185204064     IErMin= 4 ErrMin= 3.89D-03
 ErrMax= 3.89D-03  0.00D+00 EMaxC= 1.00D-01 BMatC= 4.09D-03 BMatP= 2.33D-02
 IDIUse=3 WtCom= 9.61D-01 WtEn= 3.89D-02
 Coeff-Com:  0.236D-01 0.951D-01 0.296D+00 0.585D+00
 Coeff-En:   0.000D+00 0.000D+00 0.163D+00 0.837D+00
 Coeff:      0.226D-01 0.914D-01 0.291D+00 0.595D+00
 Gap=     0.275 Goal=   None    Shift=    0.000
 RMSDP=4.73D-04 MaxDP=1.49D-02 DE=-1.52D-02 OVMax= 2.51D-02

 Cycle   5  Pass 0  IDiag  1:
 E= -454.750925546234     Delta-E=       -0.002740342169 Rises=F Damp=F
 DIIS: error= 9.51D-04 at cycle   5 NSaved=   5.
 NSaved= 5 IEnMin= 5 EnMin= -454.750925546234     IErMin= 5 ErrMin= 9.51D-04
 ErrMax= 9.51D-04  0.00D+00 EMaxC= 1.00D-01 BMatC= 3.26D-04 BMatP= 4.09D-03
 IDIUse=3 WtCom= 9.90D-01 WtEn= 9.51D-03
 Coeff-Com:  0.205D-02 0.620D-02 0.108D+00 0.327D+00 0.557D+00
 Coeff-En:   0.000D+00 0.000D+00 0.000D+00 0.376D-01 0.962D+00
 Coeff:      0.203D-02 0.614D-02 0.107D+00 0.324D+00 0.561D+00
 Gap=     0.274 Goal=   None    Shift=    0.000
 RMSDP=1.38D-04 MaxDP=3.22D-03 DE=-2.74D-03 OVMax= 5.53D-03

 Cycle   6  Pass 0  IDiag  1:
 E= -454.751185675108     Delta-E=       -0.000260128874 Rises=F Damp=F
 DIIS: error= 1.71D-04 at cycle   6 NSaved=   6.
 NSaved= 6 IEnMin= 6 EnMin= -454.751185675108     IErMin= 6 ErrMin= 1.71D-04
 ErrMax= 1.71D-04  0.00D+00 EMaxC= 1.00D-01 BMatC= 1.32D-05 BMatP= 3.26D-04
 IDIUse=3 WtCom= 9.98D-01 WtEn= 1.71D-03
 Coeff-Com:  0.204D-03-0.995D-03 0.413D-01 0.132D+00 0.282D+00 0.545D+00
 Coeff-En:   0.000D+00 0.000D+00 0.000D+00 0.000D+00 0.000D+00 0.100D+01
 Coeff:      0.203D-03-0.993D-03 0.412D-01 0.132D+00 0.281D+00 0.546D+00
 Gap=     0.274 Goal=   None    Shift=    0.000
 RMSDP=2.44D-05 MaxDP=8.45D-04 DE=-2.60D-04 OVMax= 6.87D-04

 Cycle   7  Pass 0  IDiag  1:
 E= -454.751194343201     Delta-E=       -0.000008668093 Rises=F Damp=F
 DIIS: error= 4.84D-05 at cycle   7 NSaved=   7.
 NSaved= 7 IEnMin= 7 EnMin= -454.751194343201     IErMin= 7 ErrMin= 4.84D-05
 ErrMax= 4.84D-05  0.00D+00 EMaxC= 1.00D-01 BMatC= 1.10D-06 BMatP= 1.32D-05
 IDIUse=1 WtCom= 1.00D+00 WtEn= 0.00D+00
 Coeff-Com: -0.818D-04-0.136D-02 0.101D-01 0.324D-01 0.893D-01 0.276D+00
 Coeff-Com:  0.593D+00
 Coeff:     -0.818D-04-0.136D-02 0.101D-01 0.324D-01 0.893D-01 0.276D+00
 Coeff:      0.593D+00
 Gap=     0.274 Goal=   None    Shift=    0.000
 RMSDP=6.53D-06 MaxDP=1.56D-04 DE=-8.67D-06 OVMax= 1.61D-04

 Initial convergence to 1.0D-05 achieved.  Increase integral accuracy.
 Cycle   8  Pass 1  IDiag  1:
 E= -454.751191145627     Delta-E=        0.000003197574 Rises=F Damp=F
 DIIS: error= 1.36D-05 at cycle   1 NSaved=   1.
 NSaved= 1 IEnMin= 1 EnMin= -454.751191145627     IErMin= 1 ErrMin= 1.36D-05
 ErrMax= 1.36D-05  0.00D+00 EMaxC= 1.00D-01 BMatC= 4.65D-08 BMatP= 4.65D-08
 IDIUse=1 WtCom= 1.00D+00 WtEn= 0.00D+00
 Coeff-Com:  0.100D+01
 Coeff:      0.100D+01
 Gap=     0.274 Goal=   None    Shift=    0.000
 RMSDP=6.53D-06 MaxDP=1.56D-04 DE= 3.20D-06 OVMax= 8.80D-05

 Cycle   9  Pass 1  IDiag  1:
 E= -454.751191157713     Delta-E=       -0.000000012086 Rises=F Damp=F
 DIIS: error= 1.33D-05 at cycle   2 NSaved=   2.
 NSaved= 2 IEnMin= 2 EnMin= -454.751191157713     IErMin= 2 ErrMin= 1.33D-05
 ErrMax= 1.33D-05  0.00D+00 EMaxC= 1.00D-01 BMatC= 4.67D-08 BMatP= 4.65D-08
 IDIUse=1 WtCom= 1.00D+00 WtEn= 0.00D+00
 Coeff-Com:  0.501D+00 0.499D+00
 Coeff:      0.501D+00 0.499D+00
 Gap=     0.274 Goal=   None    Shift=    0.000
 RMSDP=1.96D-06 MaxDP=5.98D-05 DE=-1.21D-08 OVMax= 1.10D-04

 Cycle  10  Pass 1  IDiag  1:
 E= -454.751191184886     Delta-E=       -0.000000027173 Rises=F Damp=F
 DIIS: error= 7.38D-06 at cycle   3 NSaved=   3.
 NSaved= 3 IEnMin= 3 EnMin= -454.751191184886     IErMin= 3 ErrMin= 7.38D-06
 ErrMax= 7.38D-06  0.00D+00 EMaxC= 1.00D-01 BMatC= 1.25D-08 BMatP= 4.65D-08
 IDIUse=1 WtCom= 1.00D+00 WtEn= 0.00D+00
 Coeff-Com:  0.639D-01 0.334D+00 0.602D+00
 Coeff:      0.639D-01 0.334D+00 0.602D+00
 Gap=     0.274 Goal=   None    Shift=    0.000
 RMSDP=8.46D-07 MaxDP=2.91D-05 DE=-2.72D-08 OVMax= 4.61D-05

 Cycle  11  Pass 1  IDiag  1:
 E= -454.751191192985     Delta-E=       -0.000000008099 Rises=F Damp=F
 DIIS: error= 2.76D-06 at cycle   4 NSaved=   4.
 NSaved= 4 IEnMin= 4 EnMin= -454.751191192985     IErMin= 4 ErrMin= 2.76D-06
 ErrMax= 2.76D-06  0.00D+00 EMaxC= 1.00D-01 BMatC= 1.67D-09 BMatP= 1.25D-08
 IDIUse=1 WtCom= 1.00D+00 WtEn= 0.00D+00
 Coeff-Com: -0.147D-01 0.154D+00 0.373D+00 0.488D+00
 Coeff:     -0.147D-01 0.154D+00 0.373D+00 0.488D+00
 Gap=     0.274 Goal=   None    Shift=    0.000
 RMSDP=2.44D-07 MaxDP=7.84D-06 DE=-8.10D-09 OVMax= 9.24D-06

 Cycle  12  Pass 1  IDiag  1:
 E= -454.751191194286     Delta-E=       -0.000000001301 Rises=F Damp=F
 DIIS: error= 2.45D-07 at cycle   5 NSaved=   5.
 NSaved= 5 IEnMin= 5 EnMin= -454.751191194286     IErMin= 5 ErrMin= 2.45D-07
 ErrMax= 2.45D-07  0.00D+00 EMaxC= 1.00D-01 BMatC= 3.17D-11 BMatP= 1.67D-09
 IDIUse=1 WtCom= 1.00D+00 WtEn= 0.00D+00
 Coeff-Com: -0.890D-02 0.724D-01 0.178D+00 0.255D+00 0.504D+00
 Coeff:     -0.890D-02 0.724D-01 0.178D+00 0.255D+00 0.504D+00
 Gap=     0.274 Goal=   None    Shift=    0.000
 RMSDP=4.13D-08 MaxDP=1.06D-06 DE=-1.30D-09 OVMax= 1.43D-06

 Cycle  13  Pass 1  IDiag  1:
 E= -454.751191194311     Delta-E=       -0.000000000025 Rises=F Damp=F
 DIIS: error= 6.56D-08 at cycle   6 NSaved=   6.
 NSaved= 6 IEnMin= 6 EnMin= -454.751191194311     IErMin= 6 ErrMin= 6.56D-08
 ErrMax= 6.56D-08  0.00D+00 EMaxC= 1.00D-01 BMatC= 2.29D-12 BMatP= 3.17D-11
 IDIUse=1 WtCom= 1.00D+00 WtEn= 0.00D+00
 Coeff-Com: -0.206D-02 0.125D-01 0.297D-01 0.524D-01 0.236D+00 0.671D+00
 Coeff:     -0.206D-02 0.125D-01 0.297D-01 0.524D-01 0.236D+00 0.671D+00
 Gap=     0.274 Goal=   None    Shift=    0.000
 RMSDP=1.16D-08 MaxDP=2.37D-07 DE=-2.49D-11 OVMax= 3.01D-07

 Cycle  14  Pass 1  IDiag  1:
 E= -454.751191194307     Delta-E=        0.000000000004 Rises=F Damp=F
 DIIS: error= 2.01D-08 at cycle   7 NSaved=   7.
 NSaved= 7 IEnMin= 6 EnMin= -454.751191194311     IErMin= 7 ErrMin= 2.01D-08
 ErrMax= 2.01D-08  0.00D+00 EMaxC= 1.00D-01 BMatC= 1.06D-13 BMatP= 2.29D-12
 IDIUse=1 WtCom= 1.00D+00 WtEn= 0.00D+00
 Coeff-Com: -0.315D-04-0.112D-02-0.391D-02-0.677D-03 0.427D-01 0.227D+00
 Coeff-Com:  0.736D+00
 Coeff:     -0.315D-04-0.112D-02-0.391D-02-0.677D-03 0.427D-01 0.227D+00
 Coeff:      0.736D+00
 Gap=     0.274 Goal=   None    Shift=    0.000
 RMSDP=3.14D-09 MaxDP=5.21D-08 DE= 3.75D-12 OVMax= 9.54D-08

 SCF Done:  E(RB3LYP) =  -454.751191194     A.U. after   14 cycles
            NFock= 14  Conv=0.31D-08     -V/T= 2.0081
 KE= 4.510840695515D+02 PE=-1.749061848684D+03 EE= 5.036374769203D+02
 Leave Link  502 at Thu Sep  8 15:14:47 2022, MaxMem= 24159191040 cpu:        35.5
 (Enter /public/home/users/caep010/software/Gaussian09/g09/l601.exe)
 Copying SCF densities to generalized density rwf, IOpCl= 0 IROHF=0.

 **********************************************************************

            Population analysis using the SCF density.

 **********************************************************************

 Orbital symmetries:
       Occupied  (A) (A) (A) (A) (A) (A) (A) (A) (A) (A) (A) (A)
                 (A) (A) (A) (A) (A) (A) (A) (A) (A) (A) (A) (A)
                 (A) (A) (A) (A)
       Virtual   (A) (A) (A) (A) (A) (A) (A) (A) (A) (A) (A) (A)
                 (A) (A) (A) (A) (A) (A) (A) (A) (A) (A) (A) (A)
                 (A) (A) (A) (A) (A) (A) (A) (A) (A) (A) (A) (A)
                 (A) (A) (A) (A) (A) (A) (A) (A) (A) (A) (A) (A)
                 (A) (A) (A) (A) (A) (A) (A) (A) (A) (A) (A) (A)
                 (A) (A) (A) (A) (A) (A) (A) (A) (A) (A) (A) (A)
                 (A) (A) (A) (A) (A) (A) (A) (A) (A) (A) (A) (A)
                 (A) (A) (A) (A) (A) (A) (A) (A) (A) (A) (A) (A)
                 (A)
 The electronic state is 1-A.
 Alpha  occ. eigenvalues --  -19.21243 -19.19096 -19.18006 -19.17911 -19.15920
 Alpha  occ. eigenvalues --  -10.36646 -10.33428  -1.14435  -1.10978  -1.05161
 Alpha  occ. eigenvalues --   -1.03433  -1.02616  -0.71568  -0.62920  -0.60637
 Alpha  occ. eigenvalues --   -0.57119  -0.55495  -0.46770  -0.45359  -0.44243
 Alpha  occ. eigenvalues --   -0.44181  -0.40400  -0.36842  -0.36496  -0.34267
 Alpha  occ. eigenvalues --   -0.33254  -0.31217  -0.28538
 Alpha virt. eigenvalues --   -0.01132   0.05152   0.09610   0.10281   0.11216
 Alpha virt. eigenvalues --    0.19387   0.21256   0.25607   0.25942   0.33658
 Alpha virt. eigenvalues --    0.39901   0.52560   0.54001   0.58333   0.60539
 Alpha virt. eigenvalues --    0.62989   0.65527   0.66895   0.72244   0.73846
 Alpha virt. eigenvalues --    0.75872   0.76367   0.82728   0.84124   0.88972
 Alpha virt. eigenvalues --    0.91558   0.92122   0.94899   0.97977   0.99286
 Alpha virt. eigenvalues --    1.01015   1.03493   1.04853   1.07787   1.10139
 Alpha virt. eigenvalues --    1.18443   1.20742   1.27380   1.30574   1.32666
 Alpha virt. eigenvalues --    1.38622   1.41607   1.44405   1.51349   1.53857
 Alpha virt. eigenvalues --    1.56157   1.60031   1.65041   1.66916   1.72819
 Alpha virt. eigenvalues --    1.73979   1.75422   1.82396   1.83864   1.85651
 Alpha virt. eigenvalues --    1.93043   1.93682   1.98901   2.00194   2.03150
 Alpha virt. eigenvalues --    2.12036   2.20503   2.24822   2.31062   2.31658
 Alpha virt. eigenvalues --    2.35140   2.36609   2.41027   2.45606   2.48485
 Alpha virt. eigenvalues --    2.54122   2.57832   2.62202   2.63288   2.65709
 Alpha virt. eigenvalues --    2.66241   2.69221   2.71282   2.74906   2.83990
 Alpha virt. eigenvalues --    2.90917   2.95507   2.97744   3.05440   3.10511
 Alpha virt. eigenvalues --    3.17813   3.40628   3.41499   3.45718   3.47731
 Alpha virt. eigenvalues --    3.86389   3.91019   3.99890   4.16520   4.24926
 Alpha virt. eigenvalues --    4.43792   4.62344
          Condensed to atoms (all electrons):
               1          2          3          4          5          6
     1  O    8.012852   0.555916  -0.069338  -0.072965  -0.013256   0.001670
     2  C    0.555916   4.450584   0.270718   0.296850  -0.035885  -0.041703
     3  O   -0.069338   0.270718   8.058847  -0.078891   0.001793  -0.006884
     4  C   -0.072965   0.296850  -0.078891   4.677434   0.253251   0.187425
     5  O   -0.013256  -0.035885   0.001793   0.253251   8.167100  -0.065892
     6  O    0.001670  -0.041703  -0.006884   0.187425  -0.065892   8.230727
     7  O    0.000211  -0.059578   0.001141   0.228953  -0.063957  -0.071895
     8  H    0.003872  -0.035412   0.288980  -0.001825   0.000857   0.022593
     9  H    0.036753  -0.005151   0.001161  -0.043253   0.287067   0.005402
    10  H   -0.000021   0.002545   0.000398  -0.017030   0.007076   0.280866
    11  H   -0.000218   0.006418  -0.000305  -0.009244   0.000680   0.002008
               7          8          9         10         11
     1  O    0.000211   0.003872   0.036753  -0.000021  -0.000218
     2  C   -0.059578  -0.035412  -0.005151   0.002545   0.006418
     3  O    0.001141   0.288980   0.001161   0.000398  -0.000305
     4  C    0.228953  -0.001825  -0.043253  -0.017030  -0.009244
     5  O   -0.063957   0.000857   0.287067   0.007076   0.000680
     6  O   -0.071895   0.022593   0.005402   0.280866   0.002008
     7  O    8.174920   0.002528   0.004183   0.005275   0.275609
     8  H    0.002528   0.374352  -0.000225  -0.000600  -0.000221
     9  H    0.004183  -0.000225   0.379053  -0.000355  -0.000752
    10  H    0.005275  -0.000600  -0.000355   0.394413  -0.000261
    11  H    0.275609  -0.000221  -0.000752  -0.000261   0.405557
 Mulliken charges:
               1
     1  O   -0.455477
     2  C    0.594700
     3  O   -0.467618
     4  C    0.579295
     5  O   -0.538834
     6  O   -0.544317
     7  O   -0.497390
     8  H    0.345101
     9  H    0.336116
    10  H    0.327695
    11  H    0.320729
 Sum of Mulliken charges =  -0.00000
 Mulliken charges with hydrogens summed into heavy atoms:
               1
     1  O   -0.455477
     2  C    0.594700
     3  O   -0.122517
     4  C    0.579295
     5  O   -0.202718
     6  O   -0.216622
     7  O   -0.176661
 Electronic spatial extent (au):  <R**2>=            629.0233
 Charge=             -0.0000 electrons
 Dipole moment (field-independent basis, Debye):
    X=              2.4865    Y=             -1.2342    Z=             -1.3006  Tot=              3.0655
 Quadrupole moment (field-independent basis, Debye-Ang):
   XX=            -42.5101   YY=            -37.7068   ZZ=            -36.2979
   XY=              1.3136   XZ=              1.2932   YZ=              0.6575
 Traceless Quadrupole moment (field-independent basis, Debye-Ang):
   XX=             -3.6718   YY=              1.1315   ZZ=              2.5403
   XY=              1.3136   XZ=              1.2932   YZ=              0.6575
 Octapole moment (field-independent basis, Debye-Ang**2):
  XXX=             21.5779  YYY=             -1.2900  ZZZ=            -10.0125  XYY=             -0.6596
  XXY=             -6.0541  XXZ=              5.9576  XZZ=              6.6979  YZZ=             -2.5108
  YYZ=             -0.3876  XYZ=              0.3482
 Hexadecapole moment (field-independent basis, Debye-Ang**3):
 XXXX=           -348.8700 YYYY=           -186.6175 ZZZZ=           -114.6038 XXXY=             -6.0352
 XXXZ=             15.2619 YYYX=             14.8385 YYYZ=             -2.0923 ZZZX=             -5.4245
 ZZZY=              5.7262 XXYY=           -108.4956 XXZZ=            -63.7661 YYZZ=            -57.7824
 XXYZ=             -0.1037 YYXZ=              2.6204 ZZXY=             -5.1339
 N-N= 3.395891110180D+02 E-N=-1.749061848412D+03  KE= 4.510840695515D+02
 No NMR shielding tensors so no spin-rotation constants.
 Leave Link  601 at Thu Sep  8 15:14:47 2022, MaxMem= 24159191040 cpu:        10.6
 (Enter /public/home/users/caep010/software/Gaussian09/g09/l701.exe)
 Compute integral first derivatives.
 ... and contract with generalized density number  0.
 Leave Link  701 at Thu Sep  8 15:14:48 2022, MaxMem= 24159191040 cpu:        10.7
 (Enter /public/home/users/caep010/software/Gaussian09/g09/l702.exe)
 L702 exits ... SP integral derivatives will be done elsewhere.
 Leave Link  702 at Thu Sep  8 15:14:48 2022, MaxMem= 24159191040 cpu:         0.5
 (Enter /public/home/users/caep010/software/Gaussian09/g09/l703.exe)
 Compute integral first derivatives, UseDBF=F ICtDFT=           0.
 Integral derivatives from FoFJK, PRISM(SPDF).
 Calling FoFJK, ICntrl=      2127 FMM=F ISym2X=0 I1Cent= 0 IOpClX= 0 NMat=1 NMatS=1 NMatT=0.
 FoFJK:  IHMeth= 1 ICntrl=    2127 DoSepK=F KAlg= 0 I1Cent=   0 FoldK=F
 IRaf=         0 NMat=   1 IRICut=       1 DoRegI=T DoRafI=F ISym2E= 0.
 FoFCou: FMM=F IPFlag=           0 FMFlag=      100000 FMFlg1=         800
         NFxFlg=           0 DoJE=F BraDBF=F KetDBF=F FulRan=T
         wScrn=  0.000000 ICntrl=    2127 IOpCl=  0 I1Cent=           0 NGrid=           0
         NMat0=    1 NMatS0=      1 NMatT0=    0 NMatD0=    1 NMtDS0=    0 NMtDT0=    0
 Symmetry not used in FoFCou.
 Leave Link  703 at Thu Sep  8 15:14:48 2022, MaxMem= 24159191040 cpu:        15.4
 (Enter /public/home/users/caep010/software/Gaussian09/g09/l716.exe)
 Dipole        = 9.78252032D-01-4.85557150D-01-5.11682448D-01
 ***** Axes restored to original set *****
 -------------------------------------------------------------------
 Center     Atomic                   Forces (Hartrees/Bohr)
 Number     Number              X              Y              Z
 -------------------------------------------------------------------
      1        8          -0.003257259   -0.009823198    0.005287489
      2        6           0.000974133    0.008817104   -0.004454676
      3        8           0.002491407   -0.001983514   -0.000498418
      4        6           0.001085289   -0.000594703    0.001114241
      5        8          -0.002366456    0.001965771   -0.001507282
      6        8           0.002538778    0.001678291    0.000047764
      7        8           0.002754687   -0.001942461    0.000859963
      8        1           0.000213085    0.002744030   -0.001181767
      9        1           0.000089740   -0.002564586    0.001698183
     10        1          -0.002737623   -0.000966269   -0.001674051
     11        1          -0.001785781    0.002669534    0.000308553
 -------------------------------------------------------------------
 Cartesian Forces:  Max     0.009823198 RMS     0.003113720
 Leave Link  716 at Thu Sep  8 15:14:48 2022, MaxMem= 24159191040 cpu:         0.7
 (Enter /public/home/users/caep010/software/Gaussian09/g09/l103.exe)

 GradGradGradGradGradGradGradGradGradGradGradGradGradGradGradGradGradGrad
 Berny optimization.
 FormGI is forming the generalized inverse of G from B-inverse, IUseBI=4.
 Internal  Forces:  Max     0.011611618 RMS     0.002229614
 Search for a local minimum.
 Step number   1 out of a maximum of   50
 All quantities printed in internal units (Hartrees-Bohrs-Radians)
 RMS Force = .22296D-02 SwitMx=.10000D-02 MixMth= 1
 Mixed Optimization -- RFO/linear search
 Second derivative matrix not updated -- first step.
 ITU=  0
     Eigenvalues ---    0.00230   0.00841   0.01592   0.01882   0.01929
     Eigenvalues ---    0.02583   0.08574   0.09260   0.10662   0.16000
     Eigenvalues ---    0.16000   0.16000   0.16000   0.19168   0.20033
     Eigenvalues ---    0.24999   0.25000   0.27338   0.44388   0.48086
     Eigenvalues ---    0.48729   0.53055   0.53309   0.54070   0.54363
     Eigenvalues ---    0.58898   1.03676
 RFO step:  Lambda=-3.00931197D-04 EMin= 2.30000000D-03
 Linear search not attempted -- first point.
 Iteration  1 RMS(Cart)=  0.01663480 RMS(Int)=  0.00015835
 Iteration  2 RMS(Cart)=  0.00019306 RMS(Int)=  0.00005031
 Iteration  3 RMS(Cart)=  0.00000002 RMS(Int)=  0.00005031
 ITry= 1 IFail=0 DXMaxC= 4.57D-02 DCOld= 1.00D+10 DXMaxT= 3.00D-01 DXLimC= 3.00D+00 Rises=F
 Variable       Old X    -DE/DX   Delta X   Delta X   Delta X     New X
                                 (Linear)    (Quad)   (Total)
    R1        2.27202   0.01161   0.00000   0.01120   0.01120   2.28322
    R2        2.51823   0.00324   0.00000   0.00550   0.00550   2.52373
    R3        2.93609   0.00054   0.00000   0.00197   0.00197   2.93806
    R4        1.83367   0.00298   0.00000   0.00559   0.00559   1.83925
    R5        2.61170   0.00233   0.00000   0.00477   0.00477   2.61647
    R6        2.65993   0.00176   0.00000   0.00396   0.00396   2.66389
    R7        2.61848   0.00166   0.00000   0.00345   0.00345   2.62193
    R8        1.83602   0.00303   0.00000   0.00570   0.00570   1.84172
    R9        1.82402   0.00335   0.00000   0.00616   0.00616   1.83018
   R10        1.82668   0.00323   0.00000   0.00596   0.00596   1.83265
    A1        2.15863   0.00045   0.00000   0.00190   0.00172   2.16036
    A2        2.11891  -0.00053   0.00000  -0.00201  -0.00219   2.11673
    A3        2.00558   0.00009   0.00000   0.00046   0.00028   2.00585
    A4        1.88174   0.00049   0.00000   0.00303   0.00303   1.88477
    A5        1.90704   0.00033   0.00000   0.00167   0.00166   1.90870
    A6        1.93896  -0.00040   0.00000  -0.00320  -0.00320   1.93575
    A7        1.83710   0.00002   0.00000   0.00118   0.00118   1.83828
    A8        1.90192  -0.00029   0.00000  -0.00273  -0.00273   1.89919
    A9        1.99883   0.00007   0.00000   0.00179   0.00178   2.00061
   A10        1.87971   0.00024   0.00000   0.00124   0.00124   1.88096
   A11        1.84418   0.00035   0.00000   0.00216   0.00216   1.84634
   A12        1.86894  -0.00007   0.00000  -0.00042  -0.00042   1.86852
   A13        1.86776  -0.00032   0.00000  -0.00201  -0.00201   1.86575
    D1        3.03281   0.00023   0.00000   0.02049   0.02052   3.05333
    D2       -0.09729  -0.00007   0.00000  -0.01454  -0.01457  -0.11185
    D3       -0.38707  -0.00033   0.00000  -0.00032  -0.00031  -0.38738
    D4       -2.48603   0.00007   0.00000   0.00400   0.00401  -2.48202
    D5        1.76742  -0.00004   0.00000   0.00346   0.00347   1.77089
    D6        2.74331  -0.00003   0.00000   0.03385   0.03384   2.77715
    D7        0.64435   0.00037   0.00000   0.03817   0.03816   0.68251
    D8       -1.38538   0.00026   0.00000   0.03763   0.03762  -1.34776
    D9        0.40834   0.00056   0.00000   0.01819   0.01819   0.42653
   D10        2.52986   0.00010   0.00000   0.01360   0.01360   2.54346
   D11       -1.64709   0.00025   0.00000   0.01439   0.01439  -1.63270
   D12        1.57259   0.00010   0.00000   0.00476   0.00476   1.57735
   D13       -0.52940   0.00012   0.00000   0.00646   0.00646  -0.52295
   D14       -2.70725   0.00005   0.00000   0.00519   0.00519  -2.70206
   D15        3.13692  -0.00030   0.00000  -0.00347  -0.00347   3.13345
   D16       -1.05145   0.00018   0.00000   0.00045   0.00045  -1.05100
   D17        1.06702   0.00004   0.00000  -0.00097  -0.00097   1.06605
         Item               Value     Threshold  Converged?
 Maximum Force            0.011612     0.000450     NO 
 RMS     Force            0.002230     0.000300     NO 
 Maximum Displacement     0.045656     0.001800     NO 
 RMS     Displacement     0.016621     0.001200     NO 
 Predicted change in Energy=-1.513334D-04
 Lowest energy point so far.  Saving SCF results.
 GradGradGradGradGradGradGradGradGradGradGradGradGradGradGradGradGradGrad

 Leave Link  103 at Thu Sep  8 15:14:48 2022, MaxMem= 24159191040 cpu:         2.3
 (Enter /public/home/users/caep010/software/Gaussian09/g09/l202.exe)
                          Input orientation:                          
 ---------------------------------------------------------------------
 Center     Atomic      Atomic             Coordinates (Angstroms)
 Number     Number       Type             X           Y           Z
 ---------------------------------------------------------------------
      1          8           0        0.279982   -2.059053    0.476569
      2          6           0        0.599690   -1.011065   -0.032662
      3          8           0        1.698095   -0.850915   -0.775237
      4          6           0       -0.248722    0.276182    0.168487
      5          8           0       -1.540913   -0.075968    0.519607
      6          8           0       -0.291511    1.040621   -1.015141
      7          8           0        0.429340    1.016331    1.126336
      8          1           0        1.689182    0.053835   -1.133905
      9          1           0       -1.474655   -0.961733    0.920697
     10          1           0       -1.062166    0.740788   -1.519286
     11          1           0       -0.078223    1.831077    1.264435
 ---------------------------------------------------------------------
                    Distance matrix (angstroms):
                    1          2          3          4          5
     1  O    0.000000
     2  C    1.208225   0.000000
     3  O    2.244473   1.335500   0.000000
     4  C    2.414076   1.554756   2.439480   0.000000
     5  O    2.692608   2.400331   3.573281   1.384576   0.000000
     6  O    3.487088   2.443137   2.755720   1.409672   2.272274
     7  O    3.146822   2.341501   2.951665   1.387466   2.333052
     8  H    3.007285   1.879824   0.973291   2.345450   3.631042
     9  H    2.116628   2.283470   3.599281   1.897673   0.974599
    10  H    3.691058   2.835632   3.272029   1.930319   2.247971
    11  H    3.985242   3.196841   3.809022   1.909940   2.516158
                    6          7          8          9         10
     6  O    0.000000
     7  O    2.259677   0.000000
     8  H    2.216076   2.760849   0.000000
     9  H    3.026007   2.753220   3.906742   0.000000
    10  H    0.968490   3.049562   2.861877   3.003705   0.000000
    11  H    2.422144   0.969795   3.469055   3.141332   3.147377
                   11
    11  H    0.000000
 Stoichiometry    C2H4O5
 Framework group  C1[X(C2H4O5)]
 Deg. of freedom    27
 Full point group                 C1      NOp   1
 RotChk:  IX=0 Diff= 2.54D-02
 Largest Abelian subgroup         C1      NOp   1
 Largest concise Abelian subgroup C1      NOp   1
                         Standard orientation:                         
 ---------------------------------------------------------------------
 Center     Atomic      Atomic             Coordinates (Angstroms)
 Number     Number       Type             X           Y           Z
 ---------------------------------------------------------------------
      1          8           0       -1.539832    1.167481    0.018424
      2          6           0       -0.964667    0.105264   -0.007810
      3          8           0       -1.587392   -1.075856   -0.034821
      4          6           0        0.587851    0.026989    0.020937
      5          8           0        1.116252    1.228664   -0.419316
      6          8           0        1.054972   -1.008207   -0.814132
      7          8           0        0.914212   -0.303707    1.328297
      8          1           0       -0.911970   -1.769574   -0.134092
      9          1           0        0.428241    1.898218   -0.251443
     10          1           0        1.197853   -0.623099   -1.691201
     11          1           0        1.881085   -0.366067    1.370352
 ---------------------------------------------------------------------
 Rotational constants (GHZ):      3.7121016      2.5634479      2.1034148
 Leave Link  202 at Thu Sep  8 15:14:49 2022, MaxMem= 24159191040 cpu:         0.5
 (Enter /public/home/users/caep010/software/Gaussian09/g09/l301.exe)
 Standard basis: 6-31G(d,p) (6D, 7F)
 Ernie: Thresh=  0.10000D-02 Tol=  0.10000D-05 Strict=F.
 There are   125 symmetry adapted cartesian basis functions of A   symmetry.
 There are   125 symmetry adapted basis functions of A   symmetry.
   125 basis functions,   224 primitive gaussians,   125 cartesian basis functions
    28 alpha electrons       28 beta electrons
       nuclear repulsion energy       338.9077746969 Hartrees.
 IExCor=  402 DFT=T Ex+Corr=B3LYP ExCW=0 ScaHFX=  0.200000
 ScaDFX=  0.800000  0.720000  1.000000  0.810000 ScalE2=  1.000000  1.000000
 IRadAn=      0 IRanWt=     -1 IRanGd=            0 ICorTp=0 IEmpDi=  4
 NAtoms=   11 NActive=   11 NUniq=   11 SFac= 1.00D+00 NAtFMM=   60 NAOKFM=F Big=F
 Integral buffers will be    131072 words long.
 Raffenetti 2 integral format.
 Two-electron integral symmetry is turned on.
 Leave Link  301 at Thu Sep  8 15:14:49 2022, MaxMem= 24159191040 cpu:         1.8
 (Enter /public/home/users/caep010/software/Gaussian09/g09/l302.exe)
 NPDir=0 NMtPBC=     1 NCelOv=     1 NCel=       1 NClECP=     1 NCelD=      1
         NCelK=      1 NCelE2=     1 NClLst=     1 CellRange=     0.0.
 One-electron integrals computed using PRISM.
 NBasis=   125 RedAO= T EigKep=  1.90D-03  NBF=   125
 NBsUse=   125 1.00D-06 EigRej= -1.00D+00 NBFU=   125
 Precomputing XC quadrature grid using
 IXCGrd= 4 IRadAn=           0 IRanWt=          -1 IRanGd=           0 AccXCQ= 0.00D+00.
 Generated NRdTot=       0 NPtTot=           0 NUsed=           0 NTot=          32
 NSgBfM=   125   125   125   125   125 MxSgAt=    11 MxSgA2=    11.
 Leave Link  302 at Thu Sep  8 15:14:49 2022, MaxMem= 24159191040 cpu:        10.9
 (Enter /public/home/users/caep010/software/Gaussian09/g09/l303.exe)
 DipDrv:  MaxL=1.
 Leave Link  303 at Thu Sep  8 15:14:49 2022, MaxMem= 24159191040 cpu:         0.6
 (Enter /public/home/users/caep010/software/Gaussian09/g09/l401.exe)
 Initial guess from the checkpoint file:  "B3LYP6-31Gdp.Frag_834.chk"
 B after Tr=    -0.000000    0.000000   -0.000000
         Rot=    0.999964   -0.007994    0.002496    0.001221 Ang=  -0.97 deg.
 Guess basis will be translated and rotated to current coordinates.
 JPrj=2 DoOrth=T DoCkMO=T.
 Generating alternative initial guess.
 ExpMin= 1.61D-01 ExpMax= 5.48D+03 ExpMxC= 8.25D+02 IAcc=1 IRadAn=         1 AccDes= 0.00D+00
 Harris functional with IExCor=  402 and IRadAn=       1 diagonalized for initial guess.
 HarFok:  IExCor=  402 AccDes= 0.00D+00 IRadAn=         1 IDoV= 1 UseB2=F ITyADJ=14
 ICtDFT=  3500011 ScaDFX=  1.000000  1.000000  1.000000  1.000000
 FoFCou: FMM=F IPFlag=           0 FMFlag=      100000 FMFlg1=           0
         NFxFlg=           0 DoJE=T BraDBF=F KetDBF=T FulRan=T
         wScrn=  0.000000 ICntrl=     500 IOpCl=  0 I1Cent=   200000004 NGrid=           0
         NMat0=    1 NMatS0=      1 NMatT0=    0 NMatD0=    1 NMtDS0=    0 NMtDT0=    0
 Petite list used in FoFCou.
 Harris En= -454.781152988915    
 Leave Link  401 at Thu Sep  8 15:14:50 2022, MaxMem= 24159191040 cpu:        14.6
 (Enter /public/home/users/caep010/software/Gaussian09/g09/l502.exe)
 Closed shell SCF:
 Using DIIS extrapolation, IDIIS=  1040.
 Integral symmetry usage will be decided dynamically.
 Keep R1 ints in memory in canonical form, NReq=32082237.
 IVT=       70362 IEndB=       70362 NGot= 24159191040 MDV= 24128108929
 LenX= 24128108929 LenY= 24128092863
 Requested convergence on RMS density matrix=1.00D-08 within 128 cycles.
 Requested convergence on MAX density matrix=1.00D-06.
 Requested convergence on             energy=1.00D-06.
 No special actions if energy rises.
 FoFCou: FMM=F IPFlag=           0 FMFlag=           0 FMFlg1=           0
         NFxFlg=           0 DoJE=F BraDBF=F KetDBF=F FulRan=T
         wScrn=  0.000000 ICntrl=     600 IOpCl=  0 I1Cent=           0 NGrid=           0
         NMat0=    1 NMatS0=   7875 NMatT0=    0 NMatD0=    1 NMtDS0=    0 NMtDT0=    0
 Symmetry not used in FoFCou.
 Integral accuracy reduced to 1.0D-05 until final iterations.

 Cycle   1  Pass 0  IDiag  1:
 E= -454.750822752379    
 DIIS: error= 9.58D-04 at cycle   1 NSaved=   1.
 NSaved= 1 IEnMin= 1 EnMin= -454.750822752379     IErMin= 1 ErrMin= 9.58D-04
 ErrMax= 9.58D-04  0.00D+00 EMaxC= 1.00D-01 BMatC= 2.77D-04 BMatP= 2.77D-04
 IDIUse=3 WtCom= 9.90D-01 WtEn= 9.58D-03
 Coeff-Com:  0.100D+01
 Coeff-En:   0.100D+01
 Coeff:      0.100D+01
 Gap=     1.400 Goal=   None    Shift=    0.000
 RMSDP=2.65D-04 MaxDP=5.79D-03              OVMax= 6.24D-03

 Cycle   2  Pass 0  IDiag  1:
 E= -454.751290395665     Delta-E=       -0.000467643286 Rises=F Damp=F
 DIIS: error= 1.64D-04 at cycle   2 NSaved=   2.
 NSaved= 2 IEnMin= 2 EnMin= -454.751290395665     IErMin= 2 ErrMin= 1.64D-04
 ErrMax= 1.64D-04  0.00D+00 EMaxC= 1.00D-01 BMatC= 1.01D-05 BMatP= 2.77D-04
 IDIUse=3 WtCom= 9.98D-01 WtEn= 1.64D-03
 Coeff-Com:  0.780D-03 0.999D+00
 Coeff-En:   0.000D+00 0.100D+01
 Coeff:      0.779D-03 0.999D+00
 Gap=     0.272 Goal=   None    Shift=    0.000
 RMSDP=4.82D-05 MaxDP=1.07D-03 DE=-4.68D-04 OVMax= 1.53D-03

 Cycle   3  Pass 0  IDiag  1:
 E= -454.751292342326     Delta-E=       -0.000001946662 Rises=F Damp=F
 DIIS: error= 1.87D-04 at cycle   3 NSaved=   3.
 NSaved= 3 IEnMin= 3 EnMin= -454.751292342326     IErMin= 2 ErrMin= 1.64D-04
 ErrMax= 1.87D-04  0.00D+00 EMaxC= 1.00D-01 BMatC= 1.19D-05 BMatP= 1.01D-05
 IDIUse=3 WtCom= 4.22D-01 WtEn= 5.78D-01
 Coeff-Com: -0.321D-01 0.541D+00 0.491D+00
 Coeff-En:   0.000D+00 0.433D+00 0.567D+00
 Coeff:     -0.136D-01 0.479D+00 0.535D+00
 Gap=     0.272 Goal=   None    Shift=    0.000
 RMSDP=3.01D-05 MaxDP=1.07D-03 DE=-1.95D-06 OVMax= 1.47D-03

 Cycle   4  Pass 0  IDiag  1:
 E= -454.751298772881     Delta-E=       -0.000006430554 Rises=F Damp=F
 DIIS: error= 1.02D-04 at cycle   4 NSaved=   4.
 NSaved= 4 IEnMin= 4 EnMin= -454.751298772881     IErMin= 4 ErrMin= 1.02D-04
 ErrMax= 1.02D-04  0.00D+00 EMaxC= 1.00D-01 BMatC= 3.18D-06 BMatP= 1.01D-05
 IDIUse=3 WtCom= 9.99D-01 WtEn= 1.02D-03
 Coeff-Com: -0.196D-01 0.241D+00 0.366D+00 0.413D+00
 Coeff-En:   0.000D+00 0.000D+00 0.226D+00 0.774D+00
 Coeff:     -0.196D-01 0.241D+00 0.366D+00 0.413D+00
 Gap=     0.272 Goal=   None    Shift=    0.000
 RMSDP=1.16D-05 MaxDP=4.25D-04 DE=-6.43D-06 OVMax= 6.70D-04

 Cycle   5  Pass 0  IDiag  1:
 E= -454.751301110028     Delta-E=       -0.000002337147 Rises=F Damp=F
 DIIS: error= 1.74D-05 at cycle   5 NSaved=   5.
 NSaved= 5 IEnMin= 5 EnMin= -454.751301110028     IErMin= 5 ErrMin= 1.74D-05
 ErrMax= 1.74D-05  0.00D+00 EMaxC= 1.00D-01 BMatC= 9.54D-08 BMatP= 3.18D-06
 IDIUse=1 WtCom= 1.00D+00 WtEn= 0.00D+00
 Coeff-Com: -0.574D-02 0.546D-01 0.126D+00 0.213D+00 0.612D+00
 Coeff:     -0.574D-02 0.546D-01 0.126D+00 0.213D+00 0.612D+00
 Gap=     0.272 Goal=   None    Shift=    0.000
 RMSDP=2.41D-06 MaxDP=5.73D-05 DE=-2.34D-06 OVMax= 8.58D-05

 Initial convergence to 1.0D-05 achieved.  Increase integral accuracy.
 Cycle   6  Pass 1  IDiag  1:
 E= -454.751297661696     Delta-E=        0.000003448332 Rises=F Damp=F
 DIIS: error= 1.63D-05 at cycle   1 NSaved=   1.
 NSaved= 1 IEnMin= 1 EnMin= -454.751297661696     IErMin= 1 ErrMin= 1.63D-05
 ErrMax= 1.63D-05  0.00D+00 EMaxC= 1.00D-01 BMatC= 4.90D-08 BMatP= 4.90D-08
 IDIUse=1 WtCom= 1.00D+00 WtEn= 0.00D+00
 Coeff-Com:  0.100D+01
 Coeff:      0.100D+01
 Gap=     0.272 Goal=   None    Shift=    0.000
 RMSDP=2.41D-06 MaxDP=5.73D-05 DE= 3.45D-06 OVMax= 9.23D-05

 Cycle   7  Pass 1  IDiag  1:
 E= -454.751297680181     Delta-E=       -0.000000018485 Rises=F Damp=F
 DIIS: error= 1.27D-05 at cycle   2 NSaved=   2.
 NSaved= 2 IEnMin= 2 EnMin= -454.751297680181     IErMin= 2 ErrMin= 1.27D-05
 ErrMax= 1.27D-05  0.00D+00 EMaxC= 1.00D-01 BMatC= 4.78D-08 BMatP= 4.90D-08
 IDIUse=1 WtCom= 1.00D+00 WtEn= 0.00D+00
 Coeff-Com:  0.496D+00 0.504D+00
 Coeff:      0.496D+00 0.504D+00
 Gap=     0.272 Goal=   None    Shift=    0.000
 RMSDP=1.82D-06 MaxDP=5.27D-05 DE=-1.85D-08 OVMax= 4.78D-05

 Cycle   8  Pass 1  IDiag  1:
 E= -454.751297709411     Delta-E=       -0.000000029230 Rises=F Damp=F
 DIIS: error= 4.51D-06 at cycle   3 NSaved=   3.
 NSaved= 3 IEnMin= 3 EnMin= -454.751297709411     IErMin= 3 ErrMin= 4.51D-06
 ErrMax= 4.51D-06  0.00D+00 EMaxC= 1.00D-01 BMatC= 7.13D-09 BMatP= 4.78D-08
 IDIUse=1 WtCom= 1.00D+00 WtEn= 0.00D+00
 Coeff-Com:  0.192D-02 0.273D+00 0.725D+00
 Coeff:      0.192D-02 0.273D+00 0.725D+00
 Gap=     0.272 Goal=   None    Shift=    0.000
 RMSDP=6.94D-07 MaxDP=2.05D-05 DE=-2.92D-08 OVMax= 3.23D-05

 Cycle   9  Pass 1  IDiag  1:
 E= -454.751297713449     Delta-E=       -0.000000004039 Rises=F Damp=F
 DIIS: error= 2.40D-06 at cycle   4 NSaved=   4.
 NSaved= 4 IEnMin= 4 EnMin= -454.751297713449     IErMin= 4 ErrMin= 2.40D-06
 ErrMax= 2.40D-06  0.00D+00 EMaxC= 1.00D-01 BMatC= 1.65D-09 BMatP= 7.13D-09
 IDIUse=1 WtCom= 1.00D+00 WtEn= 0.00D+00
 Coeff-Com: -0.172D-01 0.170D+00 0.501D+00 0.346D+00
 Coeff:     -0.172D-01 0.170D+00 0.501D+00 0.346D+00
 Gap=     0.272 Goal=   None    Shift=    0.000
 RMSDP=2.43D-07 MaxDP=8.70D-06 DE=-4.04D-09 OVMax= 1.38D-05

 Cycle  10  Pass 1  IDiag  1:
 E= -454.751297714693     Delta-E=       -0.000000001244 Rises=F Damp=F
 DIIS: error= 1.57D-07 at cycle   5 NSaved=   5.
 NSaved= 5 IEnMin= 5 EnMin= -454.751297714693     IErMin= 5 ErrMin= 1.57D-07
 ErrMax= 1.57D-07  0.00D+00 EMaxC= 1.00D-01 BMatC= 7.55D-12 BMatP= 1.65D-09
 IDIUse=1 WtCom= 1.00D+00 WtEn= 0.00D+00
 Coeff-Com: -0.620D-02 0.457D-01 0.139D+00 0.116D+00 0.705D+00
 Coeff:     -0.620D-02 0.457D-01 0.139D+00 0.116D+00 0.705D+00
 Gap=     0.272 Goal=   None    Shift=    0.000
 RMSDP=2.82D-08 MaxDP=5.65D-07 DE=-1.24D-09 OVMax= 1.04D-06

 Cycle  11  Pass 1  IDiag  1:
 E= -454.751297714697     Delta-E=       -0.000000000004 Rises=F Damp=F
 DIIS: error= 4.83D-08 at cycle   6 NSaved=   6.
 NSaved= 6 IEnMin= 6 EnMin= -454.751297714697     IErMin= 6 ErrMin= 4.83D-08
 ErrMax= 4.83D-08  0.00D+00 EMaxC= 1.00D-01 BMatC= 1.20D-12 BMatP= 7.55D-12
 IDIUse=1 WtCom= 1.00D+00 WtEn= 0.00D+00
 Coeff-Com: -0.101D-02 0.412D-02 0.132D-01 0.185D-01 0.304D+00 0.661D+00
 Coeff:     -0.101D-02 0.412D-02 0.132D-01 0.185D-01 0.304D+00 0.661D+00
 Gap=     0.272 Goal=   None    Shift=    0.000
 RMSDP=1.03D-08 MaxDP=1.66D-07 DE=-4.32D-12 OVMax= 4.20D-07

 Cycle  12  Pass 1  IDiag  1:
 E= -454.751297714702     Delta-E=       -0.000000000005 Rises=F Damp=F
 DIIS: error= 2.14D-08 at cycle   7 NSaved=   7.
 NSaved= 7 IEnMin= 7 EnMin= -454.751297714702     IErMin= 7 ErrMin= 2.14D-08
 ErrMax= 2.14D-08  0.00D+00 EMaxC= 1.00D-01 BMatC= 1.64D-13 BMatP= 1.20D-12
 IDIUse=1 WtCom= 1.00D+00 WtEn= 0.00D+00
 Coeff-Com:  0.225D-03-0.335D-02-0.100D-01-0.419D-02 0.664D-01 0.317D+00
 Coeff-Com:  0.634D+00
 Coeff:      0.225D-03-0.335D-02-0.100D-01-0.419D-02 0.664D-01 0.317D+00
 Coeff:      0.634D+00
 Gap=     0.272 Goal=   None    Shift=    0.000
 RMSDP=3.22D-09 MaxDP=6.11D-08 DE=-4.89D-12 OVMax= 1.52D-07

 SCF Done:  E(RB3LYP) =  -454.751297715     A.U. after   12 cycles
            NFock= 12  Conv=0.32D-08     -V/T= 2.0083
 KE= 4.510125153431D+02 PE=-1.747670688677D+03 EE= 5.029991009227D+02
 Leave Link  502 at Thu Sep  8 15:14:51 2022, MaxMem= 24159191040 cpu:        33.9
 (Enter /public/home/users/caep010/software/Gaussian09/g09/l701.exe)
 Compute integral first derivatives.
 ... and contract with generalized density number  0.
 Leave Link  701 at Thu Sep  8 15:14:52 2022, MaxMem= 24159191040 cpu:        10.9
 (Enter /public/home/users/caep010/software/Gaussian09/g09/l702.exe)
 L702 exits ... SP integral derivatives will be done elsewhere.
 Leave Link  702 at Thu Sep  8 15:14:52 2022, MaxMem= 24159191040 cpu:         0.5
 (Enter /public/home/users/caep010/software/Gaussian09/g09/l703.exe)
 Compute integral first derivatives, UseDBF=F ICtDFT=           0.
 Integral derivatives from FoFJK, PRISM(SPDF).
 Calling FoFJK, ICntrl=      2127 FMM=F ISym2X=0 I1Cent= 0 IOpClX= 0 NMat=1 NMatS=1 NMatT=0.
 FoFJK:  IHMeth= 1 ICntrl=    2127 DoSepK=F KAlg= 0 I1Cent=   0 FoldK=F
 IRaf=         0 NMat=   1 IRICut=       1 DoRegI=T DoRafI=F ISym2E= 0.
 FoFCou: FMM=F IPFlag=           0 FMFlag=      100000 FMFlg1=         800
         NFxFlg=           0 DoJE=F BraDBF=F KetDBF=F FulRan=T
         wScrn=  0.000000 ICntrl=    2127 IOpCl=  0 I1Cent=           0 NGrid=           0
         NMat0=    1 NMatS0=      1 NMatT0=    0 NMatD0=    1 NMtDS0=    0 NMtDT0=    0
 Symmetry not used in FoFCou.
 Leave Link  703 at Thu Sep  8 15:14:52 2022, MaxMem= 24159191040 cpu:        11.4
 (Enter /public/home/users/caep010/software/Gaussian09/g09/l716.exe)
 Dipole        = 9.89967046D-01-4.82136134D-01-4.94805602D-01
 ***** Axes restored to original set *****
 -------------------------------------------------------------------
 Center     Atomic                   Forces (Hartrees/Bohr)
 Number     Number              X              Y              Z
 -------------------------------------------------------------------
      1        8          -0.000704933   -0.001267888   -0.000720075
      2        6           0.001857833    0.003026104    0.002320233
      3        8          -0.000579125   -0.000740617   -0.000645094
      4        6          -0.000447558   -0.001103607   -0.000760740
      5        8          -0.000391947    0.000228383   -0.000286352
      6        8           0.000203574    0.000485377   -0.000010263
      7        8           0.000343876   -0.000526069   -0.000021884
      8        1          -0.000284097   -0.000094936    0.000037529
      9        1           0.000347797    0.000014789    0.000096447
     10        1          -0.000128282   -0.000111482    0.000164469
     11        1          -0.000217138    0.000089947   -0.000174268
 -------------------------------------------------------------------
 Cartesian Forces:  Max     0.003026104 RMS     0.000874485
 Leave Link  716 at Thu Sep  8 15:14:52 2022, MaxMem= 24159191040 cpu:         0.7
 (Enter /public/home/users/caep010/software/Gaussian09/g09/l103.exe)

 GradGradGradGradGradGradGradGradGradGradGradGradGradGradGradGradGradGrad
 Berny optimization.
 Using GEDIIS/GDIIS optimizer.
 FormGI is forming the generalized inverse of G from B-inverse, IUseBI=4.
 Internal  Forces:  Max     0.000983856 RMS     0.000414720
 Search for a local minimum.
 Step number   2 out of a maximum of   50
 All quantities printed in internal units (Hartrees-Bohrs-Radians)
 RMS Force = .41472D-03 SwitMx=.10000D-02 MixMth= 2
 Mixed Optimization -- En-DIIS/RFO-DIIS
 Update second derivatives using D2CorX and points    1    2
 DE= -1.07D-04 DEPred=-1.51D-04 R= 7.04D-01
 TightC=F SS=  1.41D+00  RLast= 7.68D-02 DXNew= 5.0454D-01 2.3053D-01
 Trust test= 7.04D-01 RLast= 7.68D-02 DXMaxT set to 3.00D-01
 ITU=  1  0
 Use linear search instead of GDIIS.
     Eigenvalues ---    0.00234   0.01288   0.01600   0.01880   0.01960
     Eigenvalues ---    0.02604   0.08685   0.09230   0.10667   0.15838
     Eigenvalues ---    0.16000   0.16000   0.16264   0.19291   0.19901
     Eigenvalues ---    0.24896   0.25184   0.27557   0.43683   0.47678
     Eigenvalues ---    0.48241   0.50437   0.53199   0.53660   0.54251
     Eigenvalues ---    0.59062   0.89860
 RFO step:  Lambda=-2.18012294D-04 EMin= 2.34247310D-03
 Quartic linear search produced a step of -0.22537.
 Iteration  1 RMS(Cart)=  0.01592317 RMS(Int)=  0.00048243
 Iteration  2 RMS(Cart)=  0.00048956 RMS(Int)=  0.00030966
 Iteration  3 RMS(Cart)=  0.00000018 RMS(Int)=  0.00030966
 ITry= 1 IFail=0 DXMaxC= 3.65D-02 DCOld= 1.00D+10 DXMaxT= 3.00D-01 DXLimC= 3.00D+00 Rises=F
 Variable       Old X    -DE/DX   Delta X   Delta X   Delta X     New X
                                 (Linear)    (Quad)   (Total)
    R1        2.28322   0.00098  -0.00252   0.01145   0.00892   2.29214
    R2        2.52373  -0.00047  -0.00124   0.00464   0.00340   2.52712
    R3        2.93806  -0.00073  -0.00044  -0.00020  -0.00064   2.93742
    R4        1.83925  -0.00010  -0.00126   0.00519   0.00393   1.84319
    R5        2.61647  -0.00007  -0.00108   0.00446   0.00338   2.61985
    R6        2.66389   0.00007  -0.00089   0.00391   0.00302   2.66691
    R7        2.62193  -0.00031  -0.00078   0.00280   0.00202   2.62395
    R8        1.84172   0.00005  -0.00129   0.00552   0.00424   1.84596
    R9        1.83018   0.00005  -0.00139   0.00596   0.00458   1.83476
   R10        1.83265   0.00017  -0.00134   0.00594   0.00460   1.83725
    A1        2.16036  -0.00052  -0.00039   0.00069  -0.00083   2.15953
    A2        2.11673   0.00012   0.00049  -0.00118  -0.00182   2.11491
    A3        2.00585   0.00043  -0.00006   0.00219   0.00099   2.00685
    A4        1.88477  -0.00045  -0.00068   0.00069   0.00001   1.88478
    A5        1.90870   0.00008  -0.00037   0.00219   0.00181   1.91051
    A6        1.93575   0.00034   0.00072  -0.00142  -0.00070   1.93506
    A7        1.83828  -0.00035  -0.00027  -0.00061  -0.00088   1.83740
    A8        1.89919  -0.00014   0.00061  -0.00266  -0.00204   1.89715
    A9        2.00061   0.00015  -0.00040   0.00196   0.00156   2.00217
   A10        1.88096  -0.00007  -0.00028   0.00052   0.00024   1.88119
   A11        1.84634  -0.00061  -0.00049  -0.00088  -0.00136   1.84498
   A12        1.86852  -0.00040   0.00009  -0.00234  -0.00225   1.86627
   A13        1.86575  -0.00044   0.00045  -0.00406  -0.00360   1.86215
    D1        3.05333  -0.00076  -0.00462  -0.04149  -0.04613   3.00720
    D2       -0.11185   0.00052   0.00328   0.03985   0.04314  -0.06871
    D3       -0.38738   0.00058   0.00007   0.03573   0.03578  -0.35161
    D4       -2.48202   0.00049  -0.00090   0.03851   0.03758  -2.44444
    D5        1.77089   0.00060  -0.00078   0.03895   0.03814   1.80903
    D6        2.77715  -0.00065  -0.00763  -0.04340  -0.05100   2.72615
    D7        0.68251  -0.00074  -0.00860  -0.04062  -0.04920   0.63331
    D8       -1.34776  -0.00064  -0.00848  -0.04019  -0.04864  -1.39640
    D9        0.42653  -0.00014  -0.00410   0.01916   0.01507   0.44160
   D10        2.54346   0.00024  -0.00307   0.01712   0.01406   2.55752
   D11       -1.63270   0.00015  -0.00324   0.01714   0.01390  -1.61881
   D12        1.57735   0.00020  -0.00107   0.00748   0.00640   1.58375
   D13       -0.52295  -0.00002  -0.00146   0.00736   0.00590  -0.51704
   D14       -2.70206  -0.00007  -0.00117   0.00629   0.00512  -2.69695
   D15        3.13345   0.00004   0.00078  -0.00428  -0.00350   3.12995
   D16       -1.05100  -0.00001  -0.00010  -0.00083  -0.00093  -1.05194
   D17        1.06605  -0.00014   0.00022  -0.00257  -0.00236   1.06369
         Item               Value     Threshold  Converged?
 Maximum Force            0.000984     0.000450     NO 
 RMS     Force            0.000415     0.000300     NO 
 Maximum Displacement     0.036504     0.001800     NO 
 RMS     Displacement     0.015898     0.001200     NO 
 Predicted change in Energy=-1.198255D-04
 Lowest energy point so far.  Saving SCF results.
 GradGradGradGradGradGradGradGradGradGradGradGradGradGradGradGradGradGrad

 Leave Link  103 at Thu Sep  8 15:14:53 2022, MaxMem= 24159191040 cpu:         1.7
 (Enter /public/home/users/caep010/software/Gaussian09/g09/l202.exe)
                          Input orientation:                          
 ---------------------------------------------------------------------
 Center     Atomic      Atomic             Coordinates (Angstroms)
 Number     Number       Type             X           Y           Z
 ---------------------------------------------------------------------
      1          8           0        0.271160   -2.065744    0.465818
      2          6           0        0.613565   -1.005365   -0.013345
      3          8           0        1.688854   -0.856002   -0.794246
      4          6           0       -0.243804    0.277359    0.175729
      5          8           0       -1.540506   -0.079185    0.512551
      6          8           0       -0.277974    1.038859   -1.011971
      7          8           0        0.421927    1.023647    1.139001
      8          1           0        1.679847    0.052626   -1.148740
      9          1           0       -1.472783   -0.959929    0.929593
     10          1           0       -1.047351    0.735245   -1.520444
     11          1           0       -0.092834    1.838590    1.265954
 ---------------------------------------------------------------------
                    Distance matrix (angstroms):
                    1          2          3          4          5
     1  O    0.000000
     2  C    1.212948   0.000000
     3  O    2.249687   1.337297   0.000000
     4  C    2.416500   1.554417   2.441418   0.000000
     5  O    2.689002   2.402997   3.569303   1.386365   0.000000
     6  O    3.481949   2.443553   2.739765   1.411270   2.273362
     7  O    3.165476   2.341263   2.979198   1.388537   2.336626
     8  H    3.013086   1.882930   0.975373   2.346307   3.626008
     9  H    2.116424   2.289988   3.602550   1.899890   0.976842
    10  H    3.678212   2.838963   3.247498   1.931929   2.244897
    11  H    4.002066   3.197450   3.831405   1.910189   2.518180
                    6          7          8          9         10
     6  O    0.000000
     7  O    2.262028   0.000000
     8  H    2.196458   2.785498   0.000000
     9  H    3.031896   2.751064   3.909452   0.000000
    10  H    0.970911   3.051983   2.835797   3.009532   0.000000
    11  H    2.421320   0.972229   3.487523   3.138329   3.145232
                   11
    11  H    0.000000
 Stoichiometry    C2H4O5
 Framework group  C1[X(C2H4O5)]
 Deg. of freedom    27
 Full point group                 C1      NOp   1
 RotChk:  IX=0 Diff= 1.95D-02
 Largest Abelian subgroup         C1      NOp   1
 Largest concise Abelian subgroup C1      NOp   1
                         Standard orientation:                         
 ---------------------------------------------------------------------
 Center     Atomic      Atomic             Coordinates (Angstroms)
 Number     Number       Type             X           Y           Z
 ---------------------------------------------------------------------
      1          8           0       -1.541523    1.170011    0.018886
      2          6           0       -0.964701    0.103045    0.028963
      3          8           0       -1.587903   -1.078646   -0.030920
      4          6           0        0.587868    0.027578    0.022141
      5          8           0        1.106550    1.225310   -0.445207
      6          8           0        1.036803   -1.016834   -0.814126
      7          8           0        0.944409   -0.290083    1.325983
      8          1           0       -0.909552   -1.772197   -0.131811
      9          1           0        0.425899    1.899986   -0.256136
     10          1           0        1.163514   -0.636388   -1.698362
     11          1           0        1.914442   -0.353210    1.342757
 ---------------------------------------------------------------------
 Rotational constants (GHZ):      3.7000653      2.5594170      2.1005877
 Leave Link  202 at Thu Sep  8 15:14:53 2022, MaxMem= 24159191040 cpu:         0.2
 (Enter /public/home/users/caep010/software/Gaussian09/g09/l301.exe)
 Standard basis: 6-31G(d,p) (6D, 7F)
 Ernie: Thresh=  0.10000D-02 Tol=  0.10000D-05 Strict=F.
 There are   125 symmetry adapted cartesian basis functions of A   symmetry.
 There are   125 symmetry adapted basis functions of A   symmetry.
   125 basis functions,   224 primitive gaussians,   125 cartesian basis functions
    28 alpha electrons       28 beta electrons
       nuclear repulsion energy       338.5285270253 Hartrees.
 IExCor=  402 DFT=T Ex+Corr=B3LYP ExCW=0 ScaHFX=  0.200000
 ScaDFX=  0.800000  0.720000  1.000000  0.810000 ScalE2=  1.000000  1.000000
 IRadAn=      0 IRanWt=     -1 IRanGd=            0 ICorTp=0 IEmpDi=  4
 NAtoms=   11 NActive=   11 NUniq=   11 SFac= 1.00D+00 NAtFMM=   60 NAOKFM=F Big=F
 Integral buffers will be    131072 words long.
 Raffenetti 2 integral format.
 Two-electron integral symmetry is turned on.
 Leave Link  301 at Thu Sep  8 15:14:53 2022, MaxMem= 24159191040 cpu:         1.7
 (Enter /public/home/users/caep010/software/Gaussian09/g09/l302.exe)
 NPDir=0 NMtPBC=     1 NCelOv=     1 NCel=       1 NClECP=     1 NCelD=      1
         NCelK=      1 NCelE2=     1 NClLst=     1 CellRange=     0.0.
 One-electron integrals computed using PRISM.
 NBasis=   125 RedAO= T EigKep=  1.90D-03  NBF=   125
 NBsUse=   125 1.00D-06 EigRej= -1.00D+00 NBFU=   125
 Precomputing XC quadrature grid using
 IXCGrd= 4 IRadAn=           0 IRanWt=          -1 IRanGd=           0 AccXCQ= 0.00D+00.
 Generated NRdTot=       0 NPtTot=           0 NUsed=           0 NTot=          32
 NSgBfM=   125   125   125   125   125 MxSgAt=    11 MxSgA2=    11.
 Leave Link  302 at Thu Sep  8 15:14:53 2022, MaxMem= 24159191040 cpu:        11.0
 (Enter /public/home/users/caep010/software/Gaussian09/g09/l303.exe)
 DipDrv:  MaxL=1.
 Leave Link  303 at Thu Sep  8 15:14:53 2022, MaxMem= 24159191040 cpu:         0.6
 (Enter /public/home/users/caep010/software/Gaussian09/g09/l401.exe)
 Initial guess from the checkpoint file:  "B3LYP6-31Gdp.Frag_834.chk"
 B after Tr=     0.000000    0.000000    0.000000
         Rot=    0.999979    0.003415   -0.005536   -0.000239 Ang=   0.75 deg.
 Guess basis will be translated and rotated to current coordinates.
 JPrj=2 DoOrth=T DoCkMO=T.
 Generating alternative initial guess.
 ExpMin= 1.61D-01 ExpMax= 5.48D+03 ExpMxC= 8.25D+02 IAcc=1 IRadAn=         1 AccDes= 0.00D+00
 Harris functional with IExCor=  402 and IRadAn=       1 diagonalized for initial guess.
 HarFok:  IExCor=  402 AccDes= 0.00D+00 IRadAn=         1 IDoV= 1 UseB2=F ITyADJ=14
 ICtDFT=  3500011 ScaDFX=  1.000000  1.000000  1.000000  1.000000
 FoFCou: FMM=F IPFlag=           0 FMFlag=      100000 FMFlg1=           0
         NFxFlg=           0 DoJE=T BraDBF=F KetDBF=T FulRan=T
         wScrn=  0.000000 ICntrl=     500 IOpCl=  0 I1Cent=   200000004 NGrid=           0
         NMat0=    1 NMatS0=      1 NMatT0=    0 NMatD0=    1 NMtDS0=    0 NMtDT0=    0
 Petite list used in FoFCou.
 Harris En= -454.780678918633    
 Leave Link  401 at Thu Sep  8 15:14:54 2022, MaxMem= 24159191040 cpu:        12.1
 (Enter /public/home/users/caep010/software/Gaussian09/g09/l502.exe)
 Closed shell SCF:
 Using DIIS extrapolation, IDIIS=  1040.
 Integral symmetry usage will be decided dynamically.
 Keep R1 ints in memory in canonical form, NReq=32082237.
 IVT=       70362 IEndB=       70362 NGot= 24159191040 MDV= 24128108929
 LenX= 24128108929 LenY= 24128092863
 Requested convergence on RMS density matrix=1.00D-08 within 128 cycles.
 Requested convergence on MAX density matrix=1.00D-06.
 Requested convergence on             energy=1.00D-06.
 No special actions if energy rises.
 FoFCou: FMM=F IPFlag=           0 FMFlag=           0 FMFlg1=           0
         NFxFlg=           0 DoJE=F BraDBF=F KetDBF=F FulRan=T
         wScrn=  0.000000 ICntrl=     600 IOpCl=  0 I1Cent=           0 NGrid=           0
         NMat0=    1 NMatS0=   7875 NMatT0=    0 NMatD0=    1 NMtDS0=    0 NMtDT0=    0
 Symmetry not used in FoFCou.
 Integral accuracy reduced to 1.0D-05 until final iterations.

 Cycle   1  Pass 0  IDiag  1:
 E= -454.749694740509    
 DIIS: error= 1.99D-03 at cycle   1 NSaved=   1.
 NSaved= 1 IEnMin= 1 EnMin= -454.749694740509     IErMin= 1 ErrMin= 1.99D-03
 ErrMax= 1.99D-03  0.00D+00 EMaxC= 1.00D-01 BMatC= 8.08D-04 BMatP= 8.08D-04
 IDIUse=3 WtCom= 9.80D-01 WtEn= 1.99D-02
 Coeff-Com:  0.100D+01
 Coeff-En:   0.100D+01
 Coeff:      0.100D+01
 Gap=     1.400 Goal=   None    Shift=    0.000
 GapD=    1.400 DampG=2.000 DampE=1.000 DampFc=2.0000 IDamp=-1.
 RMSDP=5.77D-04 MaxDP=1.24D-02              OVMax= 1.18D-02

 Cycle   2  Pass 0  IDiag  1:
 E= -454.751094949182     Delta-E=       -0.001400208673 Rises=F Damp=F
 DIIS: error= 1.98D-04 at cycle   2 NSaved=   2.
 NSaved= 2 IEnMin= 2 EnMin= -454.751094949182     IErMin= 2 ErrMin= 1.98D-04
 ErrMax= 1.98D-04  0.00D+00 EMaxC= 1.00D-01 BMatC= 1.96D-05 BMatP= 8.08D-04
 IDIUse=3 WtCom= 9.98D-01 WtEn= 1.98D-03
 Coeff-Com: -0.467D-01 0.105D+01
 Coeff-En:   0.000D+00 0.100D+01
 Coeff:     -0.466D-01 0.105D+01
 Gap=     0.271 Goal=   None    Shift=    0.000
 RMSDP=6.59D-05 MaxDP=1.49D-03 DE=-1.40D-03 OVMax= 2.57D-03

 Cycle   3  Pass 0  IDiag  1:
 E= -454.751099582855     Delta-E=       -0.000004633672 Rises=F Damp=F
 DIIS: error= 2.68D-04 at cycle   3 NSaved=   3.
 NSaved= 3 IEnMin= 3 EnMin= -454.751099582855     IErMin= 2 ErrMin= 1.98D-04
 ErrMax= 2.68D-04  0.00D+00 EMaxC= 1.00D-01 BMatC= 2.69D-05 BMatP= 1.96D-05
 IDIUse=3 WtCom= 3.79D-01 WtEn= 6.21D-01
 Coeff-Com: -0.427D-01 0.593D+00 0.450D+00
 Coeff-En:   0.000D+00 0.414D+00 0.586D+00
 Coeff:     -0.162D-01 0.482D+00 0.535D+00
 Gap=     0.271 Goal=   None    Shift=    0.000
 RMSDP=4.49D-05 MaxDP=1.59D-03 DE=-4.63D-06 OVMax= 1.62D-03

 Cycle   4  Pass 0  IDiag  1:
 E= -454.751112516745     Delta-E=       -0.000012933890 Rises=F Damp=F
 DIIS: error= 2.01D-04 at cycle   4 NSaved=   4.
 NSaved= 4 IEnMin= 4 EnMin= -454.751112516745     IErMin= 2 ErrMin= 1.98D-04
 ErrMax= 2.01D-04  0.00D+00 EMaxC= 1.00D-01 BMatC= 8.35D-06 BMatP= 1.96D-05
 IDIUse=3 WtCom= 9.98D-01 WtEn= 2.01D-03
 Coeff-Com: -0.154D-01 0.176D+00 0.361D+00 0.478D+00
 Coeff-En:   0.000D+00 0.000D+00 0.279D+00 0.721D+00
 Coeff:     -0.154D-01 0.175D+00 0.361D+00 0.479D+00
 Gap=     0.271 Goal=   None    Shift=    0.000
 RMSDP=1.90D-05 MaxDP=7.12D-04 DE=-1.29D-05 OVMax= 9.18D-04

 Cycle   5  Pass 0  IDiag  1:
 E= -454.751118432432     Delta-E=       -0.000005915687 Rises=F Damp=F
 DIIS: error= 4.13D-05 at cycle   5 NSaved=   5.
 NSaved= 5 IEnMin= 5 EnMin= -454.751118432432     IErMin= 5 ErrMin= 4.13D-05
 ErrMax= 4.13D-05  0.00D+00 EMaxC= 1.00D-01 BMatC= 4.40D-07 BMatP= 8.35D-06
 IDIUse=1 WtCom= 1.00D+00 WtEn= 0.00D+00
 Coeff-Com: -0.515D-02 0.474D-01 0.181D+00 0.307D+00 0.469D+00
 Coeff:     -0.515D-02 0.474D-01 0.181D+00 0.307D+00 0.469D+00
 Gap=     0.271 Goal=   None    Shift=    0.000
 RMSDP=4.46D-06 MaxDP=1.47D-04 DE=-5.92D-06 OVMax= 2.57D-04

 Initial convergence to 1.0D-05 achieved.  Increase integral accuracy.
 Cycle   6  Pass 1  IDiag  1:
 E= -454.751112138340     Delta-E=        0.000006294092 Rises=F Damp=F
 DIIS: error= 1.35D-05 at cycle   1 NSaved=   1.
 NSaved= 1 IEnMin= 1 EnMin= -454.751112138340     IErMin= 1 ErrMin= 1.35D-05
 ErrMax= 1.35D-05  0.00D+00 EMaxC= 1.00D-01 BMatC= 5.56D-08 BMatP= 5.56D-08
 IDIUse=1 WtCom= 1.00D+00 WtEn= 0.00D+00
 Coeff-Com:  0.100D+01
 Coeff:      0.100D+01
 Gap=     0.271 Goal=   None    Shift=    0.000
 RMSDP=4.46D-06 MaxDP=1.47D-04 DE= 6.29D-06 OVMax= 1.13D-04

 Cycle   7  Pass 1  IDiag  1:
 E= -454.751112139875     Delta-E=       -0.000000001535 Rises=F Damp=F
 DIIS: error= 1.66D-05 at cycle   2 NSaved=   2.
 NSaved= 2 IEnMin= 2 EnMin= -454.751112139875     IErMin= 1 ErrMin= 1.35D-05
 ErrMax= 1.66D-05  0.00D+00 EMaxC= 1.00D-01 BMatC= 7.40D-08 BMatP= 5.56D-08
 IDIUse=1 WtCom= 1.00D+00 WtEn= 0.00D+00
 Coeff-Com:  0.544D+00 0.456D+00
 Coeff:      0.544D+00 0.456D+00
 Gap=     0.271 Goal=   None    Shift=    0.000
 RMSDP=2.13D-06 MaxDP=6.63D-05 DE=-1.53D-09 OVMax= 1.13D-04

 Cycle   8  Pass 1  IDiag  1:
 E= -454.751112188916     Delta-E=       -0.000000049041 Rises=F Damp=F
 DIIS: error= 6.60D-06 at cycle   3 NSaved=   3.
 NSaved= 3 IEnMin= 3 EnMin= -454.751112188916     IErMin= 3 ErrMin= 6.60D-06
 ErrMax= 6.60D-06  0.00D+00 EMaxC= 1.00D-01 BMatC= 9.31D-09 BMatP= 5.56D-08
 IDIUse=1 WtCom= 1.00D+00 WtEn= 0.00D+00
 Coeff-Com:  0.482D-01 0.258D+00 0.693D+00
 Coeff:      0.482D-01 0.258D+00 0.693D+00
 Gap=     0.271 Goal=   None    Shift=    0.000
 RMSDP=7.94D-07 MaxDP=2.61D-05 DE=-4.90D-08 OVMax= 4.47D-05

 Cycle   9  Pass 1  IDiag  1:
 E= -454.751112194042     Delta-E=       -0.000000005126 Rises=F Damp=F
 DIIS: error= 3.94D-06 at cycle   4 NSaved=   4.
 NSaved= 4 IEnMin= 4 EnMin= -454.751112194042     IErMin= 4 ErrMin= 3.94D-06
 ErrMax= 3.94D-06  0.00D+00 EMaxC= 1.00D-01 BMatC= 2.52D-09 BMatP= 9.31D-09
 IDIUse=1 WtCom= 1.00D+00 WtEn= 0.00D+00
 Coeff-Com: -0.116D-01 0.137D+00 0.469D+00 0.406D+00
 Coeff:     -0.116D-01 0.137D+00 0.469D+00 0.406D+00
 Gap=     0.271 Goal=   None    Shift=    0.000
 RMSDP=3.15D-07 MaxDP=1.05D-05 DE=-5.13D-09 OVMax= 1.32D-05

 Cycle  10  Pass 1  IDiag  1:
 E= -454.751112195981     Delta-E=       -0.000000001939 Rises=F Damp=F
 DIIS: error= 4.21D-07 at cycle   5 NSaved=   5.
 NSaved= 5 IEnMin= 5 EnMin= -454.751112195981     IErMin= 5 ErrMin= 4.21D-07
 ErrMax= 4.21D-07  0.00D+00 EMaxC= 1.00D-01 BMatC= 5.95D-11 BMatP= 2.52D-09
 IDIUse=1 WtCom= 1.00D+00 WtEn= 0.00D+00
 Coeff-Com: -0.974D-02 0.538D-01 0.197D+00 0.206D+00 0.553D+00
 Coeff:     -0.974D-02 0.538D-01 0.197D+00 0.206D+00 0.553D+00
 Gap=     0.271 Goal=   None    Shift=    0.000
 RMSDP=5.71D-08 MaxDP=1.43D-06 DE=-1.94D-09 OVMax= 1.91D-06

 Cycle  11  Pass 1  IDiag  1:
 E= -454.751112196015     Delta-E=       -0.000000000034 Rises=F Damp=F
 DIIS: error= 5.26D-08 at cycle   6 NSaved=   6.
 NSaved= 6 IEnMin= 6 EnMin= -454.751112196015     IErMin= 6 ErrMin= 5.26D-08
 ErrMax= 5.26D-08  0.00D+00 EMaxC= 1.00D-01 BMatC= 1.02D-12 BMatP= 5.95D-11
 IDIUse=1 WtCom= 1.00D+00 WtEn= 0.00D+00
 Coeff-Com: -0.139D-02 0.238D-02 0.118D-01 0.181D-01 0.122D+00 0.847D+00
 Coeff:     -0.139D-02 0.238D-02 0.118D-01 0.181D-01 0.122D+00 0.847D+00
 Gap=     0.271 Goal=   None    Shift=    0.000
 RMSDP=1.30D-08 MaxDP=2.50D-07 DE=-3.43D-11 OVMax= 7.85D-07

 Cycle  12  Pass 1  IDiag  1:
 E= -454.751112196010     Delta-E=        0.000000000005 Rises=F Damp=F
 DIIS: error= 1.80D-08 at cycle   7 NSaved=   7.
 NSaved= 7 IEnMin= 6 EnMin= -454.751112196015     IErMin= 7 ErrMin= 1.80D-08
 ErrMax= 1.80D-08  0.00D+00 EMaxC= 1.00D-01 BMatC= 1.47D-13 BMatP= 1.02D-12
 IDIUse=1 WtCom= 1.00D+00 WtEn= 0.00D+00
 Coeff-Com:  0.324D-03-0.344D-02-0.118D-01-0.972D-02-0.286D-02 0.295D+00
[...]
     28 -0.115878D-02 -0.371332D-02  0.235023D-01
     29  0.132858D-01 -0.130470D-01 -0.127734D-01  0.230696D-01
     30 -0.152371D-01  0.153833D-01 -0.153280D-01 -0.326319D-02  0.273572D-01
     31 -0.138559D-01 -0.142203D-01  0.118877D-01 -0.298967D-02 -0.335408D-02
     32 -0.449144D-02  0.115791D-02  0.436560D-02 -0.288565D-02  0.276370D-02
     33  0.692471D-02 -0.853385D-02  0.736242D-02  0.484930D-02 -0.106093D-01
     34  0.598666D-02  0.737952D-02 -0.683909D-02  0.369872D-02  0.509158D-02
     35  0.353979D-02 -0.701805D-02  0.607270D-02  0.137133D-02 -0.918652D-02
     36 -0.873025D-02  0.271468D-02  0.528545D-02 -0.791137D-02  0.353356D-02
     37  0.685728D-02  0.121932D-02 -0.785936D-02  0.822868D-02  0.259072D-02
     38  0.340263D-02  0.392505D-02 -0.571364D-02  0.291691D-02  0.343933D-02
     39 -0.971615D-02  0.452521D-02  0.441191D-02 -0.931329D-02  0.492807D-02
     40  0.481529D-02 -0.944778D-02  0.377829D-02  0.505747D-02 -0.920560D-02
               31            32            33            34            35 
     31  0.227539D-01
     32  0.597139D-02  0.234818D-01
     33  0.528700D-02 -0.568346D-02  0.285616D-01
     34 -0.912703D-02 -0.589493D-02 -0.134657D-01  0.281477D-01
     35  0.390423D-02 -0.754175D-02  0.287377D-02  0.400134D-02  0.245338D-01
     36  0.610433D-02  0.222544D-02 -0.104501D-01  0.934684D-02 -0.947570D-02
     37 -0.648796D-02  0.543065D-02  0.129054D-01 -0.162563D-01 -0.879437D-02
     38 -0.619936D-02 -0.127248D-01  0.891605D-02  0.345411D-02 -0.133345D-01
     39  0.481477D-02  0.339476D-02  0.917196D-02 -0.165280D-01  0.918044D-02
     40  0.402046D-02  0.961375D-02 -0.161621D-01  0.116104D-01  0.452398D-02
               36            37            38            39            40 
     36  0.255527D-01
     37 -0.110709D-01  0.270974D-01
     38  0.966030D-02  0.518994D-02  0.270948D-01
     39 -0.162239D-01  0.821714D-02 -0.114811D-01  0.289427D-01
     40  0.841585D-02 -0.133895D-01 -0.118689D-01 -0.137456D-01  0.279841D-01
 Leave Link  716 at Thu Sep  8 15:15:25 2022, MaxMem= 24159191040 cpu:         1.7
 (Enter /public/home/users/caep010/software/Gaussian09/g09/l103.exe)

 GradGradGradGradGradGradGradGradGradGradGradGradGradGradGradGradGradGrad
 Berny optimization.
 Red2BG is reusing G-inverse.
 Internal  Forces:  Max     0.000250352 RMS     0.000058442
 Search for a local minimum.
 Step number   1 out of a maximum of    2
 All quantities printed in internal units (Hartrees-Bohrs-Radians)
 Second derivative matrix not updated -- analytic derivatives used.
 ITU=  0
     Eigenvalues ---    0.00152   0.00298   0.00539   0.01134   0.01887
     Eigenvalues ---    0.04421   0.08138   0.09970   0.11794   0.15638
     Eigenvalues ---    0.16606   0.17938   0.18063   0.19285   0.22182
     Eigenvalues ---    0.23092   0.24080   0.31728   0.33653   0.36759
     Eigenvalues ---    0.46075   0.46767   0.50279   0.51061   0.51612
     Eigenvalues ---    0.52277   0.89759
 Angle between quadratic step and forces=  70.80 degrees.
 Linear search not attempted -- first point.
 Iteration  1 RMS(Cart)=  0.00063678 RMS(Int)=  0.00000042
 Iteration  2 RMS(Cart)=  0.00000037 RMS(Int)=  0.00000002
 ITry= 1 IFail=0 DXMaxC= 1.45D-03 DCOld= 1.00D+10 DXMaxT= 3.00D-01 DXLimC= 3.00D+00 Rises=F
 Variable       Old X    -DE/DX   Delta X   Delta X   Delta X     New X
                                 (Linear)    (Quad)   (Total)
    R1        2.28466  -0.00008   0.00000  -0.00023  -0.00023   2.28443
    R2        2.52231   0.00025   0.00000   0.00066   0.00066   2.52297
    R3        2.93436   0.00011   0.00000   0.00062   0.00062   2.93498
    R4        1.84009   0.00001   0.00000  -0.00001  -0.00001   1.84008
    R5        2.61786   0.00008   0.00000   0.00030   0.00030   2.61816
    R6        2.66529  -0.00010   0.00000  -0.00052  -0.00052   2.66477
    R7        2.62106  -0.00006   0.00000  -0.00021  -0.00021   2.62085
    R8        1.84175  -0.00002   0.00000  -0.00012  -0.00012   1.84163
    R9        1.83045   0.00004   0.00000   0.00009   0.00009   1.83054
   R10        1.83301   0.00006   0.00000   0.00013   0.00013   1.83313
    A1        2.15970   0.00005   0.00000   0.00013   0.00013   2.15983
    A2        2.11562   0.00004   0.00000   0.00040   0.00040   2.11602
    A3        2.00786  -0.00010   0.00000  -0.00052  -0.00052   2.00733
    A4        1.87954   0.00005   0.00000   0.00009   0.00009   1.87963
    A5        1.90903  -0.00002   0.00000  -0.00026  -0.00026   1.90876
    A6        1.93691  -0.00000   0.00000   0.00023   0.00023   1.93714
    A7        1.83888  -0.00003   0.00000  -0.00027  -0.00027   1.83861
    A8        1.89536   0.00002   0.00000   0.00001   0.00001   1.89537
    A9        2.00028   0.00002   0.00000   0.00013   0.00013   2.00041
   A10        1.88329   0.00001   0.00000   0.00018   0.00018   1.88347
   A11        1.84248   0.00009   0.00000   0.00048   0.00048   1.84296
   A12        1.86537   0.00001   0.00000   0.00016   0.00016   1.86553
   A13        1.86387   0.00000   0.00000   0.00012   0.00012   1.86399
    D1        3.03407   0.00001   0.00000   0.00079   0.00079   3.03486
    D2       -0.10343   0.00001   0.00000   0.00062   0.00062  -0.10281
    D3       -0.42669  -0.00000   0.00000  -0.00101  -0.00101  -0.42771
    D4       -2.51751  -0.00001   0.00000  -0.00100  -0.00100  -2.51851
    D5        1.73173  -0.00001   0.00000  -0.00117  -0.00117   1.73056
    D6        2.71092   0.00000   0.00000  -0.00084  -0.00084   2.71008
    D7        0.62010  -0.00000   0.00000  -0.00083  -0.00083   0.61927
    D8       -1.41384   0.00000   0.00000  -0.00100  -0.00100  -1.41484
    D9        0.46236  -0.00001   0.00000   0.00120   0.00120   0.46356
   D10        2.57853  -0.00001   0.00000   0.00132   0.00132   2.57986
   D11       -1.59767   0.00003   0.00000   0.00165   0.00165  -1.59602
   D12        1.59340  -0.00000   0.00000  -0.00108  -0.00108   1.59232
   D13       -0.50556   0.00002   0.00000  -0.00090  -0.00090  -0.50646
   D14       -2.68335  -0.00003   0.00000  -0.00118  -0.00118  -2.68453
   D15        3.12581   0.00001   0.00000  -0.00097  -0.00097   3.12484
   D16       -1.05801  -0.00003   0.00000  -0.00142  -0.00142  -1.05943
   D17        1.05562   0.00001   0.00000  -0.00119  -0.00119   1.05444
         Item               Value     Threshold  Converged?
 Maximum Force            0.000250     0.000450     YES
 RMS     Force            0.000058     0.000300     YES
 Maximum Displacement     0.001449     0.001800     YES
 RMS     Displacement     0.000637     0.001200     YES
 Predicted change in Energy=-2.896857D-07
 Optimization completed.
    -- Stationary point found.
                           ----------------------------
                           !   Optimized Parameters   !
                           ! (Angstroms and Degrees)  !
 --------------------------                            --------------------------
 ! Name  Definition              Value          Derivative Info.                !
 --------------------------------------------------------------------------------
 ! R1    R(1,2)                  1.209          -DE/DX =   -0.0001              !
 ! R2    R(2,3)                  1.3348         -DE/DX =    0.0003              !
 ! R3    R(2,4)                  1.5528         -DE/DX =    0.0001              !
 ! R4    R(3,8)                  0.9737         -DE/DX =    0.0                 !
 ! R5    R(4,5)                  1.3853         -DE/DX =    0.0001              !
 ! R6    R(4,6)                  1.4104         -DE/DX =   -0.0001              !
 ! R7    R(4,7)                  1.387          -DE/DX =   -0.0001              !
 ! R8    R(5,9)                  0.9746         -DE/DX =    0.0                 !
 ! R9    R(6,10)                 0.9686         -DE/DX =    0.0                 !
 ! R10   R(7,11)                 0.97           -DE/DX =    0.0001              !
 ! A1    A(1,2,3)              123.7417         -DE/DX =    0.0001              !
 ! A2    A(1,2,4)              121.2161         -DE/DX =    0.0                 !
 ! A3    A(3,2,4)              115.0418         -DE/DX =   -0.0001              !
 ! A4    A(2,3,8)              107.6898         -DE/DX =    0.0001              !
 ! A5    A(2,4,5)              109.3793         -DE/DX =    0.0                 !
 ! A6    A(2,4,6)              110.9766         -DE/DX =    0.0                 !
 ! A7    A(2,4,7)              105.3603         -DE/DX =    0.0                 !
 ! A8    A(5,4,6)              108.596          -DE/DX =    0.0                 !
 ! A9    A(5,4,7)              114.6077         -DE/DX =    0.0                 !
 ! A10   A(6,4,7)              107.9043         -DE/DX =    0.0                 !
 ! A11   A(4,5,9)              105.5665         -DE/DX =    0.0001              !
 ! A12   A(4,6,10)             106.8778         -DE/DX =    0.0                 !
 ! A13   A(4,7,11)             106.7917         -DE/DX =    0.0                 !
 ! D1    D(1,2,3,8)            173.8396         -DE/DX =    0.0                 !
 ! D2    D(4,2,3,8)             -5.926          -DE/DX =    0.0                 !
 ! D3    D(1,2,4,5)            -24.4478         -DE/DX =    0.0                 !
 ! D4    D(1,2,4,6)           -144.2429         -DE/DX =    0.0                 !
 ! D5    D(1,2,4,7)             99.2209         -DE/DX =    0.0                 !
 ! D6    D(3,2,4,5)            155.3243         -DE/DX =    0.0                 !
 ! D7    D(3,2,4,6)             35.5292         -DE/DX =    0.0                 !
 ! D8    D(3,2,4,7)            -81.007          -DE/DX =    0.0                 !
 ! D9    D(2,4,5,9)             26.4912         -DE/DX =    0.0                 !
 ! D10   D(6,4,5,9)            147.7391         -DE/DX =    0.0                 !
 ! D11   D(7,4,5,9)            -91.5396         -DE/DX =    0.0                 !
 ! D12   D(2,4,6,10)            91.2949         -DE/DX =    0.0                 !
 ! D13   D(5,4,6,10)           -28.9664         -DE/DX =    0.0                 !
 ! D14   D(7,4,6,10)          -153.7447         -DE/DX =    0.0                 !
 ! D15   D(2,4,7,11)           179.0958         -DE/DX =    0.0                 !
 ! D16   D(5,4,7,11)           -60.6194         -DE/DX =    0.0                 !
 ! D17   D(6,4,7,11)            60.4828         -DE/DX =    0.0                 !
 --------------------------------------------------------------------------------
 GradGradGradGradGradGradGradGradGradGradGradGradGradGradGradGradGradGrad

 Leave Link  103 at Thu Sep  8 15:15:25 2022, MaxMem= 24159191040 cpu:         1.6
 (Enter /public/home/users/caep010/software/Gaussian09/g09/l9999.exe)
 1\1\GINC-B1014\Freq\RB3LYP\6-31G(d,p)\C2H4O5\ROOT\08-Sep-2022\0\\#P Ge
 om=AllCheck Guess=TCheck SCRF=Check GenChk RB3LYP/6-31G(d,p) Freq\\Fra
 g_834\\0,1\O,0.3036462976,-2.0494132685,0.5105391233\C,0.6115550856,-1
 .0066880916,-0.0182061825\O,1.6833122679,-0.8600642737,-0.800126585\C,
 -0.2430522083,0.2756260289,0.1728299471\O,-1.5426027841,-0.0815692673,
 0.4932475971\O,-0.2667098812,1.0471320657,-1.0076279603\O,0.4113590448
 ,1.0111037263,1.1498647709\H,1.6539477684,0.037216899,-1.1771949156\H,
 -1.4761078876,-0.9555320689,0.9194341866\H,-1.0363762024,0.7558932835,
 -1.5185542797\H,-0.0988715008,1.8263959666,1.2756952979\\Version=ES64L
 -G09RevE.01\State=1-A\HF=-454.7513533\RMSD=1.718e-09\RMSF=1.094e-04\Ze
 roPoint=0.0761477\Thermal=0.0833213\Dipole=-0.5527709,0.9590478,-0.549
 3539\DipoleDeriv=-0.5955057,0.0141214,0.1604182,-0.1094472,-0.9516568,
 0.2772657,0.2114034,0.1787743,-0.5246281,1.0522209,0.1297912,-0.629127
 9,0.0815578,1.1022158,-0.2999582,-0.6271979,-0.3220232,0.7452707,-0.94
 8764,-0.1883485,0.4898957,0.0044412,-0.4389714,0.0332324,0.4221029,0.1
 362759,-0.6632632,1.1356882,0.3174608,0.1450553,0.2061642,1.0524891,-0
 .0647527,0.1494236,0.0623015,1.3980254,-0.9485829,-0.275476,0.1298623,
 -0.0426359,-0.5637558,-0.0283219,0.1350453,-0.0185244,-0.5705145,-0.47
 74473,0.1297279,-0.0207469,0.1580192,-0.660181,0.2945242,-0.0244951,0.
 1908494,-0.9039161,-0.5328326,-0.1977608,-0.1022234,-0.2278182,-0.6643
 475,-0.2131508,-0.1470149,-0.2349377,-0.7872312,0.4177895,0.0005584,-0
 .0468032,0.0026764,0.2870455,-0.0067586,-0.0292042,0.0062624,0.3478252
 ,0.4073632,0.0291675,-0.0751645,-0.0606286,0.3103139,0.0596284,-0.0560
 817,0.0333204,0.2956744,0.2496281,-0.0612671,-0.0329146,-0.081469,0.27
 69923,-0.0460918,-0.0038403,-0.0519469,0.3167662,0.2404427,0.1020254,-
 0.0182509,0.0691401,0.2498558,-0.0056166,-0.0301412,0.0196482,0.345991
 2\Polar=35.3206891,0.7379751,39.1965912,-3.5164382,-3.5108982,32.85348
 8\PG=C01 [X(C2H4O5)]\NImag=0\\0.13210675,0.15541074,0.67705380,-0.1151
 7659,-0.30611992,0.20331822,-0.12662613,-0.11355675,0.07310567,0.52601
 571,-0.12198630,-0.62486861,0.25444166,0.07737169,0.90091834,0.0750857
 8,0.24844354,-0.19704119,-0.22982450,-0.26203623,0.45781395,-0.0139342
 2,-0.04204745,0.03163721,-0.25205184,0.04566888,0.12009974,0.32184318,
 -0.05760878,-0.00870536,0.04414853,-0.00637474,-0.11360323,0.02872452,
 -0.01664339,0.53797624,0.03748733,0.03494145,-0.02518792,0.14161002,-0
 .00846436,-0.14186495,-0.18977347,-0.20467393,0.24723841,0.00188598,-0
 .01339184,0.00967231,-0.10070776,0.04902687,0.00242518,-0.01898543,0.0
 1692276,0.01849380,0.53495400,0.00483277,-0.02837372,0.01050522,0.0548
 8363,-0.12422978,-0.02515823,-0.01263662,0.00696469,0.01544065,-0.0049
 4746,0.57289707,0.00387389,0.02524062,0.01080884,0.00378991,-0.0216479
 8,-0.07076116,0.02240410,-0.00590231,-0.00386276,-0.01864070,0.0055361
 6,0.49466122,0.00333300,0.00310122,0.00089048,-0.04191986,-0.01143253,
 0.01207542,-0.00621667,0.00804261,0.00336431,-0.22399392,0.01299637,0.
 02837506,0.36460167,0.01288108,0.00136366,-0.00502176,0.01417163,-0.00
 161914,0.00313922,0.00645536,-0.00055664,-0.00649266,-0.02937740,-0.10
 599554,0.02057804,0.01667317,0.50621375,-0.00382020,-0.00219906,0.0031
 5391,0.01369842,0.00804237,0.00169720,0.00122318,-0.00333787,-0.000024
 44,0.04561402,0.01441612,-0.09373355,-0.04410066,-0.21849505,0.1861036
 7,0.00317423,0.00701980,-0.00213419,-0.00289411,0.00577910,-0.00916975
 ,0.00056238,0.00578370,-0.00522853,-0.09371772,0.00999955,-0.03257732,
 -0.00496529,-0.03871881,0.03950098,0.43217586,0.00177338,-0.01084356,-
 0.00272436,-0.00065676,-0.01008794,0.03688918,0.00365640,-0.00122009,-
 0.00326955,-0.01270538,-0.13462899,0.05209845,-0.01393480,-0.01319969,
 0.02331224,0.14613170,0.22022701,-0.00443105,0.00621167,0.00167877,0.0
 0667029,0.01121668,-0.01744250,-0.00258784,-0.00121215,0.00858812,0.00
 475712,0.07229667,-0.15115957,0.01834600,0.03342335,-0.02096791,0.2183
 2093,-0.05469268,0.39743416,0.00145141,0.00267823,-0.00290214,0.008793
 60,0.00328812,0.01155778,0.00106108,0.00039799,-0.00146574,-0.11106482
 ,0.00459956,-0.02919140,-0.04035473,-0.04054168,-0.02893698,0.00016586
 ,-0.00381955,-0.02490443,0.30955816,0.00532001,-0.00393831,0.00334742,
 -0.02127323,-0.02367946,-0.02992708,0.00844303,-0.00048591,-0.00118915
 ,-0.03319711,-0.15144474,-0.08686778,-0.03195945,-0.00329994,-0.009850
 90,0.00420351,0.01873923,0.00995164,-0.16591674,0.51244916,0.00124746,
 -0.00439277,0.00251866,-0.00596393,-0.01138811,-0.01055544,0.00230469,
 -0.00107799,0.00151661,-0.05188760,-0.04952489,-0.14839585,-0.01460053
 ,-0.00462604,0.01486078,-0.03709804,-0.01297955,-0.05906262,0.08029819
 ,0.14982881,0.24108473,-0.00632268,0.00080677,0.00885947,0.00063868,-0
 .04141529,0.01190422,-0.03679310,0.04763064,-0.00226265,-0.00406812,-0
 .00201694,0.01093788,0.00138219,0.00136097,-0.00179214,0.00320896,-0.0
 0000964,-0.00341439,-0.00103756,-0.00066454,-0.00205485,0.04308429,0.0
 0353983,0.00616901,-0.00146166,-0.00786852,-0.01170902,0.00777684,0.00
 823572,-0.41662987,0.17065464,0.00308778,0.00650037,-0.00551000,0.0005
 0524,-0.00195022,0.00037448,-0.00101220,-0.00396592,-0.00046268,-0.000
 19007,-0.00201545,0.00073928,-0.00492632,0.42271285,0.00655595,-0.0006
 1171,0.00304782,0.00020681,0.03126903,-0.01849821,0.01398231,0.1436187
 2,-0.08710089,0.00575564,-0.00182319,0.00170154,-0.00230099,0.00051701
 ,-0.00002010,-0.00001189,0.00005042,-0.00464818,-0.00162793,-0.0000758
 7,-0.00032087,-0.02147856,-0.17355653,0.10510564,0.00533427,0.00133369
 ,-0.00472572,-0.01044440,-0.00741253,0.00927389,0.00384140,0.00184717,
 -0.00339696,0.00262872,-0.04343520,0.02139848,-0.04907117,0.05720663,-
 0.02527881,-0.00661589,-0.00145315,0.00458868,-0.00381211,0.00114706,-
 0.00141090,0.00045968,-0.00061821,0.00020459,0.05801835,-0.00391843,-0
 .00613689,0.00188108,0.00641421,0.01010317,-0.00580552,-0.00164724,-0.
 00319841,0.00261071,-0.01249158,-0.01565833,0.01154098,0.01620228,-0.3
 8400404,0.18582201,0.00273801,0.00230392,-0.00380501,0.00319877,0.0019
 5441,-0.00033844,-0.00068907,0.00030908,0.00057483,-0.00919001,0.39561
 848,-0.00250910,-0.00022531,-0.00271023,0.00242946,-0.00001603,-0.0011
 5641,-0.00137143,0.00069461,0.00168309,0.00120195,0.01166142,-0.005712
 96,-0.00236241,0.17813172,-0.09529876,0.00541554,0.00366505,-0.0031944
 8,-0.00293959,-0.00123412,-0.00233560,0.00000421,0.00059044,-0.0002491
 0,-0.00066197,-0.19380701,0.10745048,-0.00040370,-0.00103337,0.0001339
 7,-0.00002153,0.00170395,-0.00045764,0.00002342,0.00010893,0.00082329,
 0.00057032,-0.00175626,-0.00198277,-0.00209759,-0.00164944,0.00297465,
 -0.32910974,-0.11940518,-0.21758263,0.00214302,0.00083853,0.00352155,-
 0.00054792,-0.00081510,-0.00108173,-0.00038555,-0.00038563,0.00040201,
 0.32969176,-0.00004222,-0.00137643,0.00007299,0.00015176,-0.00114394,0
 .00209180,0.00000484,-0.00069305,-0.00012818,0.02187255,0.00441348,0.0
 1530461,-0.00139881,-0.00109981,-0.00125440,-0.14209824,-0.06964809,-0
 .07577949,-0.00031074,0.00104105,0.00105810,-0.00020105,0.00070307,0.0
 0039337,0.00013775,-0.00034938,0.00042577,0.12218162,0.06799958,0.0007
 8799,-0.00066864,-0.00037235,-0.00074931,0.00075236,0.00096006,0.00117
 456,-0.00140373,-0.00085112,-0.03406811,-0.01405064,-0.02306467,0.0005
 5775,-0.00363834,0.00446769,-0.17783849,-0.04509969,-0.15457413,-0.001
 31900,0.00361774,-0.00974219,-0.00124134,0.00137537,0.00082289,-0.0001
 3375,0.00113292,0.00124485,0.21365895,0.05764411,0.18053336,0.00000108
 ,-0.00032105,0.00063951,-0.00078237,-0.00059197,-0.00297012,0.00064980
 ,-0.00010690,0.00034859,0.01249874,-0.02251939,-0.00838714,-0.00069764
 ,0.00153851,0.00091753,-0.00198456,0.00042297,0.00023731,-0.16690391,0
 .23305894,0.02564394,-0.00000442,0.00006186,-0.00020419,0.00004669,-0.
 00023132,0.00039132,0.00013750,-0.00029746,-0.00082925,0.15703909,-0.0
 0020209,-0.00034359,0.00093080,-0.00326290,-0.00008039,-0.00413805,0.0
 0051047,0.00015163,0.00057037,0.01520082,-0.03044452,-0.01037079,0.001
 20470,0.00414761,0.00317007,0.00017388,0.00232410,0.00285200,0.1966161
 0,-0.34932005,-0.06729839,0.00012447,-0.00012389,-0.00035608,0.0004368
 0,-0.00094201,0.00011345,0.00021195,0.00015353,0.00033854,-0.21101419,
 0.37447758,0.00089854,-0.00061987,0.00078547,-0.00497287,-0.00216940,-
 0.00315136,0.00090696,0.00042160,-0.00013416,0.01667639,-0.03929927,-0
 .01048109,-0.00024444,0.00248451,-0.00023848,0.00082076,0.00275047,0.0
 0334835,0.00143123,-0.03760071,-0.02956822,0.00053815,-0.00052017,0.00
 015946,0.00014245,0.00019345,0.00027912,-0.00040966,0.00017132,0.00057
 562,-0.01578752,0.07418807,0.03842529\\-0.00002477,-0.00007293,0.00003
 046,0.00018330,0.00029506,-0.00020326,-0.00015130,-0.00009672,0.000152
 57,-0.00001509,-0.00032989,0.00009750,0.00000692,0.00010463,-0.0000343
 1,-0.00004077,0.00004584,-0.00010851,-0.00003152,0.00011750,0.00003748
 ,-0.00002776,-0.00001047,0.00001241,0.00004768,-0.00001422,-0.00000071
 ,0.00003029,0.00001056,0.00002756,0.00002302,-0.00004937,-0.00001120\\
 \@


 MAN IS THE MEASURE OF ALL THINGS.
  -- PROTAGORAS (5TH CENTURY B.C.)
 Job cpu time:       0 days  0 hours  4 minutes 40.3 seconds.
 File lengths (MBytes):  RWF=     26 Int=      0 D2E=      0 Chk=      2 Scr=      1
 Normal termination of Gaussian 09 at Thu Sep  8 15:15:25 2022.
