 Entering Gaussian System, Link 0=g09
 Input=B3LYP6-31Gxx.Frag_397.gjf
 Output=B3LYP6-31Gxx.Frag_397.log
 Initial command:
 /public/home/users/caep010/software/Gaussian09/g09/l1.exe "/public/home/users/caep010/.cache/gau_scr/Gau-2300.inp" -scrdir="/public/home/users/caep010/.cache/gau_scr/"
 Entering Link 1 = /public/home/users/caep010/software/Gaussian09/g09/l1.exe PID=      2301.
  
 Copyright (c) 1988,1990,1992,1993,1995,1998,2003,2009,2015,
            Gaussian, Inc.  All Rights Reserved.
  
 This is part of the Gaussian(R) 09 program.  It is based on
 the Gaussian(R) 03 system (copyright 2003, Gaussian, Inc.),
 the Gaussian(R) 98 system (copyright 1998, Gaussian, Inc.),
 the Gaussian(R) 94 system (copyright 1995, Gaussian, Inc.),
 the Gaussian 92(TM) system (copyright 1992, Gaussian, Inc.),
 the Gaussian 90(TM) system (copyright 1990, Gaussian, Inc.),
 the Gaussian 88(TM) system (copyright 1988, Gaussian, Inc.),
 the Gaussian 86(TM) system (copyright 1986, Carnegie Mellon
 University), and the Gaussian 82(TM) system (copyright 1983,
 Carnegie Mellon University). Gaussian is a federally registered
 trademark of Gaussian, Inc.
  
 This software contains proprietary and confidential information,
 including trade secrets, belonging to Gaussian, Inc.
  
 This software is provided under written license and may be
 used, copied, transmitted, or stored only in accord with that
 written license.
  
 The following legend is applicable only to US Government
 contracts under FAR:
  
                    RESTRICTED RIGHTS LEGEND
  
 Use, reproduction and disclosure by the US Government is
 subject to restrictions as set forth in subparagraphs (a)
 and (c) of the Commercial Computer Software - Restricted
 Rights clause in FAR 52.227-19.
  
 Gaussian, Inc.
 340 Quinnipiac St., Bldg. 40, Wallingford CT 06492
  
  
 ---------------------------------------------------------------
 Warning -- This program may not be used in any manner that
 competes with the business of Gaussian, Inc. or will provide
 assistance to any competitor of Gaussian, Inc.  The licensee
 of this program is prohibited from giving any competitor of
 Gaussian, Inc. access to this program.  By using this program,
 the user acknowledges that Gaussian, Inc. is engaged in the
 business of creating and licensing software in the field of
 computational chemistry and represents and warrants to the
 licensee that it is not a competitor of Gaussian, Inc. and that
 it will not use this program in any manner prohibited above.
 ---------------------------------------------------------------
  

 Cite this work as:
 Gaussian 09, Revision E.01,
 M. J. Frisch, G. W. Trucks, H. B. Schlegel, G. E. Scuseria, 
 M. A. Robb, J. R. Cheeseman, G. Scalmani, V. Barone, B. Mennucci, 
 G. A. Petersson, H. Nakatsuji, M. Caricato, X. Li, H. P. Hratchian, 
 A. F. Izmaylov, J. Bloino, G. Zheng, J. L. Sonnenberg, M. Hada, 
 M. Ehara, K. Toyota, R. Fukuda, J. Hasegawa, M. Ishida, T. Nakajima, 
 Y. Honda, O. Kitao, H. Nakai, T. Vreven, J. A. Montgomery, Jr., 
 J. E. Peralta, F. Ogliaro, M. Bearpark, J. J. Heyd, E. Brothers, 
 K. N. Kudin, V. N. Staroverov, T. Keith, R. Kobayashi, J. Normand, 
 K. Raghavachari, A. Rendell, J. C. Burant, S. S. Iyengar, J. Tomasi, 
 M. Cossi, N. Rega, J. M. Millam, M. Klene, J. E. Knox, J. B. Cross, 
 V. Bakken, C. Adamo, J. Jaramillo, R. Gomperts, R. E. Stratmann, 
 O. Yazyev, A. J. Austin, R. Cammi, C. Pomelli, J. W. Ochterski, 
 R. L. Martin, K. Morokuma, V. G. Zakrzewski, G. A. Voth, 
 P. Salvador, J. J. Dannenberg, S. Dapprich, A. D. Daniels, 
 O. Farkas, J. B. Foresman, J. V. Ortiz, J. Cioslowski, 
 and D. J. Fox, Gaussian, Inc., Wallingford CT, 2013.
 
 ******************************************
 Gaussian 09:  ES64L-G09RevE.01 30-Nov-2015
                10-Sep-2021 
 ******************************************
 %nproc=32
 Will use up to   32 processors via shared memory.
 %mem=180GB
 --------------------------------
 #P OPT=calcfc Freq B3LYP/6-31G**
 --------------------------------
 1/10=4,14=-1,18=20,19=15,26=3,38=1/1,3;
 2/9=110,12=2,17=6,18=5,40=1/2;
 3/5=1,6=6,7=101,11=2,16=1,25=1,30=1,71=2,74=-5,140=1/1,2,3;
 4//1;
 5/5=2,38=5/2;
 8/6=4,10=90,11=11/1;
 11/6=1,8=1,9=11,15=111,16=1/1,2,10;
 10/6=1,13=1/2;
 6/7=2,8=2,9=2,10=2,28=1/1;
 7/10=1,18=20,25=1/1,2,3,16;
 1/10=4,14=-1,18=20,19=15,26=3/3(2);
 2/9=110/2;
 99//99;
 2/9=110/2;
 3/5=1,6=6,7=101,11=2,16=1,25=1,30=1,71=1,74=-5/1,2,3;
 4/5=5,16=3,69=1/1;
 5/5=2,38=5/2;
 7//1,2,3,16;
 1/14=-1,18=20,19=15,26=3/3(-5);
 2/9=110/2;
 6/7=2,8=2,9=2,10=2,19=2,28=1/1;
 99/9=1/99;
 Leave Link    1 at Fri Sep 10 19:30:24 2021, MaxMem= 24159191040 cpu:         2.5
 (Enter /public/home/users/caep010/software/Gaussian09/g09/l101.exe)
 --------
 Frag_406
 --------
 Symbolic Z-matrix:
 Charge =  0 Multiplicity = 1
 C                    -0.4844   -0.6091   -0.6795 
 N                    -0.0043    0.3404    0.3332 
 N                    -0.7054    1.5331    0.5954 
 N                     1.1572    0.0831    1.0897 
 N                     1.8715   -0.9622    0.9448 
 H                    -1.4106   -0.2499   -1.174 
 H                    -0.7074   -1.5859   -0.2013 
 H                     0.2901   -0.7437   -1.4633 
 H                    -1.5679    1.5821    0.0076 
 H                    -0.0909    2.3233    0.2946 
 H                     1.6521   -1.7112    0.2528 
 
 NAtoms=     11 NQM=       11 NQMF=       0 NMMI=      0 NMMIF=      0
                NMic=       0 NMicF=      0.
                    Isotopes and Nuclear Properties:
 (Nuclear quadrupole moments (NQMom) in fm**2, nuclear magnetic moments (NMagM)
  in nuclear magnetons)

  Atom         1           2           3           4           5           6           7           8           9          10
 IAtWgt=          12          14          14          14          14           1           1           1           1           1
 AtmWgt=  12.0000000  14.0030740  14.0030740  14.0030740  14.0030740   1.0078250   1.0078250   1.0078250   1.0078250   1.0078250
 NucSpn=           0           2           2           2           2           1           1           1           1           1
 AtZEff=   0.0000000   0.0000000   0.0000000   0.0000000   0.0000000   0.0000000   0.0000000   0.0000000   0.0000000   0.0000000
 NQMom=    0.0000000   2.0440000   2.0440000   2.0440000   2.0440000   0.0000000   0.0000000   0.0000000   0.0000000   0.0000000
 NMagM=    0.0000000   0.4037610   0.4037610   0.4037610   0.4037610   2.7928460   2.7928460   2.7928460   2.7928460   2.7928460
 AtZNuc=   6.0000000   7.0000000   7.0000000   7.0000000   7.0000000   1.0000000   1.0000000   1.0000000   1.0000000   1.0000000

  Atom        11
 IAtWgt=           1
 AtmWgt=   1.0078250
 NucSpn=           1
 AtZEff=   0.0000000
 NQMom=    0.0000000
 NMagM=    2.7928460
 AtZNuc=   1.0000000
 Leave Link  101 at Fri Sep 10 19:30:24 2021, MaxMem= 24159191040 cpu:        10.0
 (Enter /public/home/users/caep010/software/Gaussian09/g09/l103.exe)

 GradGradGradGradGradGradGradGradGradGradGradGradGradGradGradGradGradGrad
 Berny optimization.
 Initialization pass.
                           ----------------------------
                           !    Initial Parameters    !
                           ! (Angstroms and Degrees)  !
 --------------------------                            --------------------------
 ! Name  Definition              Value          Derivative Info.                !
 --------------------------------------------------------------------------------
 ! R1    R(1,2)                  1.4689         calculate D2E/DX2 analytically  !
 ! R2    R(1,6)                  1.1097         calculate D2E/DX2 analytically  !
 ! R3    R(1,7)                  1.1102         calculate D2E/DX2 analytically  !
 ! R4    R(1,8)                  1.1101         calculate D2E/DX2 analytically  !
 ! R5    R(2,3)                  1.4081         calculate D2E/DX2 analytically  !
 ! R6    R(2,4)                  1.4098         calculate D2E/DX2 analytically  !
 ! R7    R(3,9)                  1.0449         calculate D2E/DX2 analytically  !
 ! R8    R(3,10)                 1.0452         calculate D2E/DX2 analytically  !
 ! R9    R(4,5)                  1.2743         calculate D2E/DX2 analytically  !
 ! R10   R(5,11)                 1.0431         calculate D2E/DX2 analytically  !
 ! A1    A(2,1,6)              111.7645         calculate D2E/DX2 analytically  !
 ! A2    A(2,1,7)              109.7203         calculate D2E/DX2 analytically  !
 ! A3    A(2,1,8)              109.702          calculate D2E/DX2 analytically  !
 ! A4    A(6,1,7)              108.0046         calculate D2E/DX2 analytically  !
 ! A5    A(6,1,8)              107.8747         calculate D2E/DX2 analytically  !
 ! A6    A(7,1,8)              109.7298         calculate D2E/DX2 analytically  !
 ! A7    A(1,2,3)              120.8744         calculate D2E/DX2 analytically  !
 ! A8    A(1,2,4)              121.4164         calculate D2E/DX2 analytically  !
 ! A9    A(3,2,4)              117.7017         calculate D2E/DX2 analytically  !
 ! A10   A(2,3,9)              110.24           calculate D2E/DX2 analytically  !
 ! A11   A(2,3,10)             107.1001         calculate D2E/DX2 analytically  !
 ! A12   A(9,3,10)             106.7346         calculate D2E/DX2 analytically  !
 ! A13   A(2,4,5)              123.4013         calculate D2E/DX2 analytically  !
 ! A14   A(4,5,11)             123.1311         calculate D2E/DX2 analytically  !
 ! D1    D(6,1,2,3)              0.7664         calculate D2E/DX2 analytically  !
 ! D2    D(6,1,2,4)            179.7442         calculate D2E/DX2 analytically  !
 ! D3    D(7,1,2,3)           -119.0132         calculate D2E/DX2 analytically  !
 ! D4    D(7,1,2,4)             59.9645         calculate D2E/DX2 analytically  !
 ! D5    D(8,1,2,3)            120.3712         calculate D2E/DX2 analytically  !
 ! D6    D(8,1,2,4)            -60.6511         calculate D2E/DX2 analytically  !
 ! D7    D(1,2,3,9)              1.9165         calculate D2E/DX2 analytically  !
 ! D8    D(1,2,3,10)          -113.8381         calculate D2E/DX2 analytically  !
 ! D9    D(4,2,3,9)           -177.0982         calculate D2E/DX2 analytically  !
 ! D10   D(4,2,3,10)            67.1472         calculate D2E/DX2 analytically  !
 ! D11   D(1,2,4,5)              0.8234         calculate D2E/DX2 analytically  !
 ! D12   D(3,2,4,5)            179.8324         calculate D2E/DX2 analytically  !
 ! D13   D(2,4,5,11)             0.0227         calculate D2E/DX2 analytically  !
 --------------------------------------------------------------------------------
 Trust Radius=3.00D-01 FncErr=1.00D-07 GrdErr=1.00D-06
 Number of steps in this run=     47 maximum allowed number of steps=    100.
 GradGradGradGradGradGradGradGradGradGradGradGradGradGradGradGradGradGrad

 Leave Link  103 at Fri Sep 10 19:30:24 2021, MaxMem= 24159191040 cpu:         0.6
 (Enter /public/home/users/caep010/software/Gaussian09/g09/l202.exe)
                          Input orientation:                          
 ---------------------------------------------------------------------
 Center     Atomic      Atomic             Coordinates (Angstroms)
 Number     Number       Type             X           Y           Z
 ---------------------------------------------------------------------
      1          6           0       -0.484400   -0.609100   -0.679500
      2          7           0       -0.004300    0.340400    0.333200
      3          7           0       -0.705400    1.533100    0.595400
      4          7           0        1.157200    0.083100    1.089700
      5          7           0        1.871500   -0.962200    0.944800
      6          1           0       -1.410600   -0.249900   -1.174000
      7          1           0       -0.707400   -1.585900   -0.201300
      8          1           0        0.290100   -0.743700   -1.463300
      9          1           0       -1.567900    1.582100    0.007600
     10          1           0       -0.090900    2.323300    0.294600
     11          1           0        1.652100   -1.711200    0.252800
 ---------------------------------------------------------------------
                    Distance matrix (angstroms):
                    1          2          3          4          5
     1  C    0.000000
     2  N    1.468880   0.000000
     3  N    2.502645   1.408128   0.000000
     4  N    2.510789   1.409815   2.411662   0.000000
     5  N    2.883279   2.364201   3.604028   1.274313   0.000000
     6  H    1.109685   2.144245   2.609056   3.439306   3.971003
     7  H    1.110199   2.119120   3.219145   2.815844   2.890203
     8  H    1.110095   2.118810   3.226931   2.820154   2.889206
     9  H    2.539180   2.023037   1.044900   3.293040   4.379644
    10  H    3.114913   1.985165   1.045231   2.684853   3.881789
    11  H    2.578457   2.638027   4.025005   2.040794   1.043073
                    6          7          8          9         10
     6  H    0.000000
     7  H    1.795976   0.000000
     8  H    1.794412   1.815751   0.000000
     9  H    2.185668   3.289426   3.320400   0.000000
    10  H    3.243417   3.988463   3.555540   1.677282   0.000000
    11  H    3.681207   2.406065   2.395016   4.612412   4.395109
                   11
    11  H    0.000000
 Stoichiometry    CH6N4
 Framework group  C1[X(CH6N4)]
 Deg. of freedom    27
 Full point group                 C1      NOp   1
 Largest Abelian subgroup         C1      NOp   1
 Largest concise Abelian subgroup C1      NOp   1
                         Standard orientation:                         
 ---------------------------------------------------------------------
 Center     Atomic      Atomic             Coordinates (Angstroms)
 Number     Number       Type             X           Y           Z
 ---------------------------------------------------------------------
      1          6           0       -0.407708    1.404879    0.021904
      2          7           0       -0.390504   -0.063078   -0.027241
      3          7           0       -1.589991   -0.798131   -0.088503
      4          7           0        0.821065   -0.783907   -0.036357
      5          7           0        1.967499   -0.229620    0.011887
      6          1           0       -1.442891    1.804604    0.017820
      7          1           0        0.122216    1.815563   -0.863004
      8          1           0        0.088707    1.754058    0.951396
      9          1           0       -2.409315   -0.150640   -0.124274
     10          1           0       -1.668348   -1.333563    0.805745
     11          1           0        2.099394    0.803848    0.062387
 ---------------------------------------------------------------------
 Rotational constants (GHZ):      8.9773852      4.1846064      2.9354868
 Leave Link  202 at Fri Sep 10 19:30:24 2021, MaxMem= 24159191040 cpu:         0.7
 (Enter /public/home/users/caep010/software/Gaussian09/g09/l301.exe)
 Standard basis: 6-31G(d,p) (6D, 7F)
 Ernie: Thresh=  0.10000D-02 Tol=  0.10000D-05 Strict=F.
 There are   105 symmetry adapted cartesian basis functions of A   symmetry.
 There are   105 symmetry adapted basis functions of A   symmetry.
   105 basis functions,   182 primitive gaussians,   105 cartesian basis functions
    20 alpha electrons       20 beta electrons
       nuclear repulsion energy       180.6725367969 Hartrees.
 IExCor=  402 DFT=T Ex+Corr=B3LYP ExCW=0 ScaHFX=  0.200000
 ScaDFX=  0.800000  0.720000  1.000000  0.810000 ScalE2=  1.000000  1.000000
 IRadAn=      0 IRanWt=     -1 IRanGd=            0 ICorTp=0 IEmpDi=  4
 NAtoms=   11 NActive=   11 NUniq=   11 SFac= 1.00D+00 NAtFMM=   60 NAOKFM=F Big=F
 Integral buffers will be    131072 words long.
 Raffenetti 2 integral format.
 Two-electron integral symmetry is turned on.
 Leave Link  301 at Fri Sep 10 19:30:24 2021, MaxMem= 24159191040 cpu:         1.9
 (Enter /public/home/users/caep010/software/Gaussian09/g09/l302.exe)
 NPDir=0 NMtPBC=     1 NCelOv=     1 NCel=       1 NClECP=     1 NCelD=      1
         NCelK=      1 NCelE2=     1 NClLst=     1 CellRange=     0.0.
 One-electron integrals computed using PRISM.
 NBasis=   105 RedAO= T EigKep=  4.26D-03  NBF=   105
 NBsUse=   105 1.00D-06 EigRej= -1.00D+00 NBFU=   105
 Precomputing XC quadrature grid using
 IXCGrd= 4 IRadAn=           0 IRanWt=          -1 IRanGd=           0 AccXCQ= 0.00D+00.
 Generated NRdTot=       0 NPtTot=           0 NUsed=           0 NTot=          32
 NSgBfM=   105   105   105   105   105 MxSgAt=    11 MxSgA2=    11.
 Leave Link  302 at Fri Sep 10 19:30:25 2021, MaxMem= 24159191040 cpu:        11.2
 (Enter /public/home/users/caep010/software/Gaussian09/g09/l303.exe)
 DipDrv:  MaxL=1.
 Leave Link  303 at Fri Sep 10 19:30:25 2021, MaxMem= 24159191040 cpu:         1.2
 (Enter /public/home/users/caep010/software/Gaussian09/g09/l401.exe)
 ExpMin= 1.61D-01 ExpMax= 4.17D+03 ExpMxC= 6.27D+02 IAcc=1 IRadAn=         1 AccDes= 0.00D+00
 Harris functional with IExCor=  402 and IRadAn=       1 diagonalized for initial guess.
 HarFok:  IExCor=  402 AccDes= 0.00D+00 IRadAn=         1 IDoV= 1 UseB2=F ITyADJ=14
 ICtDFT=  3500011 ScaDFX=  1.000000  1.000000  1.000000  1.000000
 FoFCou: FMM=F IPFlag=           0 FMFlag=      100000 FMFlg1=           0
         NFxFlg=           0 DoJE=T BraDBF=F KetDBF=T FulRan=T
         wScrn=  0.000000 ICntrl=     500 IOpCl=  0 I1Cent=   200000004 NGrid=           0
         NMat0=    1 NMatS0=      1 NMatT0=    0 NMatD0=    1 NMtDS0=    0 NMtDT0=    0
 Petite list used in FoFCou.
 Harris En= -260.581247833486    
 JPrj=0 DoOrth=F DoCkMO=F.
 Leave Link  401 at Fri Sep 10 19:30:25 2021, MaxMem= 24159191040 cpu:        13.0
 (Enter /public/home/users/caep010/software/Gaussian09/g09/l502.exe)
 Closed shell SCF:
 Using DIIS extrapolation, IDIIS=  1040.
 Integral symmetry usage will be decided dynamically.
 Keep R1 ints in memory in canonical form, NReq=16470489.
 IVT=       55780 IEndB=       55780 NGot= 24159191040 MDV= 24143647866
 LenX= 24143647866 LenY= 24143636400
 Requested convergence on RMS density matrix=1.00D-08 within 128 cycles.
 Requested convergence on MAX density matrix=1.00D-06.
 Requested convergence on             energy=1.00D-06.
 No special actions if energy rises.
 FoFCou: FMM=F IPFlag=           0 FMFlag=           0 FMFlg1=           0
         NFxFlg=           0 DoJE=F BraDBF=F KetDBF=F FulRan=T
         wScrn=  0.000000 ICntrl=     600 IOpCl=  0 I1Cent=           0 NGrid=           0
         NMat0=    1 NMatS0=   5565 NMatT0=    0 NMatD0=    1 NMtDS0=    0 NMtDT0=    0
 Symmetry not used in FoFCou.
 Integral accuracy reduced to 1.0D-05 until final iterations.

 Cycle   1  Pass 0  IDiag  1:
 E= -260.470280640092    
 DIIS: error= 2.32D-02 at cycle   1 NSaved=   1.
 NSaved= 1 IEnMin= 1 EnMin= -260.470280640092     IErMin= 1 ErrMin= 2.32D-02
 ErrMax= 2.32D-02  0.00D+00 EMaxC= 1.00D-01 BMatC= 1.40D-01 BMatP= 1.40D-01
 IDIUse=3 WtCom= 7.68D-01 WtEn= 2.32D-01
 Coeff-Com:  0.100D+01
 Coeff-En:   0.100D+01
 Coeff:      0.100D+01
 Gap=     0.200 Goal=   None    Shift=    0.000
 GapD=    0.200 DampG=1.000 DampE=0.500 DampFc=0.5000 IDamp=-1.
 Damping current iteration by 5.00D-01
 RMSDP=9.08D-03 MaxDP=2.13D-01              OVMax= 3.37D-01

 Cycle   2  Pass 0  IDiag  1:
 E= -260.480036445075     Delta-E=       -0.009755804982 Rises=F Damp=T
 DIIS: error= 1.73D-02 at cycle   2 NSaved=   2.
 NSaved= 2 IEnMin= 2 EnMin= -260.480036445075     IErMin= 2 ErrMin= 1.73D-02
 ErrMax= 1.73D-02  0.00D+00 EMaxC= 1.00D-01 BMatC= 4.48D-02 BMatP= 1.40D-01
 IDIUse=3 WtCom= 8.27D-01 WtEn= 1.73D-01
 Coeff-Com:  0.315D+00 0.685D+00
 Coeff-En:   0.468D+00 0.532D+00
 Coeff:      0.342D+00 0.658D+00
 Gap=     0.257 Goal=   None    Shift=    0.000
 RMSDP=3.46D-03 MaxDP=7.98D-02 DE=-9.76D-03 OVMax= 2.55D-01

 Cycle   3  Pass 0  IDiag  1:
 E= -260.569557966139     Delta-E=       -0.089521521064 Rises=F Damp=F
 DIIS: error= 1.18D-02 at cycle   3 NSaved=   3.
 NSaved= 3 IEnMin= 3 EnMin= -260.569557966139     IErMin= 3 ErrMin= 1.18D-02
 ErrMax= 1.18D-02  0.00D+00 EMaxC= 1.00D-01 BMatC= 2.83D-02 BMatP= 4.48D-02
 IDIUse=3 WtCom= 8.82D-01 WtEn= 1.18D-01
 Coeff-Com:  0.113D+00 0.423D+00 0.464D+00
 Coeff-En:   0.000D+00 0.000D+00 0.100D+01
 Coeff:      0.995D-01 0.373D+00 0.527D+00
 Gap=     0.197 Goal=   None    Shift=    0.000
 RMSDP=2.24D-03 MaxDP=4.60D-02 DE=-8.95D-02 OVMax= 9.93D-02

 Cycle   4  Pass 0  IDiag  1:
 E= -260.591029075238     Delta-E=       -0.021471109099 Rises=F Damp=F
 DIIS: error= 5.78D-03 at cycle   4 NSaved=   4.
 NSaved= 4 IEnMin= 4 EnMin= -260.591029075238     IErMin= 4 ErrMin= 5.78D-03
 ErrMax= 5.78D-03  0.00D+00 EMaxC= 1.00D-01 BMatC= 6.21D-03 BMatP= 2.83D-02
 IDIUse=3 WtCom= 9.42D-01 WtEn= 5.78D-02
 Coeff-Com:  0.324D-01 0.416D-01 0.310D+00 0.616D+00
 Coeff-En:   0.000D+00 0.000D+00 0.223D+00 0.777D+00
 Coeff:      0.305D-01 0.392D-01 0.305D+00 0.625D+00
 Gap=     0.189 Goal=   None    Shift=    0.000
 RMSDP=8.74D-04 MaxDP=1.77D-02 DE=-2.15D-02 OVMax= 3.82D-02

 Cycle   5  Pass 0  IDiag  1:
 E= -260.596594508203     Delta-E=       -0.005565432965 Rises=F Damp=F
 DIIS: error= 1.44D-03 at cycle   5 NSaved=   5.
 NSaved= 5 IEnMin= 5 EnMin= -260.596594508203     IErMin= 5 ErrMin= 1.44D-03
 ErrMax= 1.44D-03  0.00D+00 EMaxC= 1.00D-01 BMatC= 3.18D-04 BMatP= 6.21D-03
 IDIUse=3 WtCom= 9.86D-01 WtEn= 1.44D-02
 Coeff-Com:  0.110D-01-0.573D-03 0.141D+00 0.354D+00 0.495D+00
 Coeff-En:   0.000D+00 0.000D+00 0.000D+00 0.000D+00 0.100D+01
 Coeff:      0.108D-01-0.565D-03 0.139D+00 0.349D+00 0.502D+00
 Gap=     0.194 Goal=   None    Shift=    0.000
 RMSDP=2.11D-04 MaxDP=3.70D-03 DE=-5.57D-03 OVMax= 9.97D-03

 Cycle   6  Pass 0  IDiag  1:
 E= -260.596864877094     Delta-E=       -0.000270368891 Rises=F Damp=F
 DIIS: error= 4.75D-04 at cycle   6 NSaved=   6.
 NSaved= 6 IEnMin= 6 EnMin= -260.596864877094     IErMin= 6 ErrMin= 4.75D-04
 ErrMax= 4.75D-04  0.00D+00 EMaxC= 1.00D-01 BMatC= 3.90D-05 BMatP= 3.18D-04
 IDIUse=3 WtCom= 9.95D-01 WtEn= 4.75D-03
 Coeff-Com:  0.244D-02-0.907D-02 0.405D-01 0.124D+00 0.302D+00 0.540D+00
 Coeff-En:   0.000D+00 0.000D+00 0.000D+00 0.000D+00 0.766D-01 0.923D+00
 Coeff:      0.243D-02-0.902D-02 0.404D-01 0.124D+00 0.301D+00 0.542D+00
 Gap=     0.193 Goal=   None    Shift=    0.000
 RMSDP=5.45D-05 MaxDP=1.35D-03 DE=-2.70D-04 OVMax= 1.68D-03

 Cycle   7  Pass 0  IDiag  1:
 E= -260.596894551959     Delta-E=       -0.000029674865 Rises=F Damp=F
 DIIS: error= 1.61D-04 at cycle   7 NSaved=   7.
 NSaved= 7 IEnMin= 7 EnMin= -260.596894551959     IErMin= 7 ErrMin= 1.61D-04
 ErrMax= 1.61D-04  0.00D+00 EMaxC= 1.00D-01 BMatC= 3.86D-06 BMatP= 3.90D-05
 IDIUse=3 WtCom= 9.98D-01 WtEn= 1.61D-03
 Coeff-Com:  0.752D-03-0.528D-02 0.120D-01 0.404D-01 0.138D+00 0.317D+00
 Coeff-Com:  0.497D+00
 Coeff-En:   0.000D+00 0.000D+00 0.000D+00 0.000D+00 0.000D+00 0.000D+00
 Coeff-En:   0.100D+01
 Coeff:      0.751D-03-0.527D-02 0.120D-01 0.403D-01 0.138D+00 0.317D+00
 Coeff:      0.498D+00
 Gap=     0.193 Goal=   None    Shift=    0.000
 RMSDP=1.57D-05 MaxDP=3.94D-04 DE=-2.97D-05 OVMax= 4.91D-04

 Cycle   8  Pass 0  IDiag  1:
 E= -260.596897596800     Delta-E=       -0.000003044841 Rises=F Damp=F
 DIIS: error= 2.66D-05 at cycle   8 NSaved=   8.
 NSaved= 8 IEnMin= 8 EnMin= -260.596897596800     IErMin= 8 ErrMin= 2.66D-05
 ErrMax= 2.66D-05  0.00D+00 EMaxC= 1.00D-01 BMatC= 1.65D-07 BMatP= 3.86D-06
 IDIUse=1 WtCom= 1.00D+00 WtEn= 0.00D+00
 Coeff-Com:  0.146D-03-0.619D-03-0.835D-03-0.426D-02 0.104D-02 0.474D-02
 Coeff-Com:  0.120D+00 0.880D+00
 Coeff:      0.146D-03-0.619D-03-0.835D-03-0.426D-02 0.104D-02 0.474D-02
 Coeff:      0.120D+00 0.880D+00
 Gap=     0.193 Goal=   None    Shift=    0.000
 RMSDP=5.37D-06 MaxDP=1.46D-04 DE=-3.04D-06 OVMax= 1.44D-04

 Initial convergence to 1.0D-05 achieved.  Increase integral accuracy.
 Cycle   9  Pass 1  IDiag  1:
 E= -260.596903555136     Delta-E=       -0.000005958336 Rises=F Damp=F
 DIIS: error= 8.75D-06 at cycle   1 NSaved=   1.
 NSaved= 1 IEnMin= 1 EnMin= -260.596903555136     IErMin= 1 ErrMin= 8.75D-06
 ErrMax= 8.75D-06  0.00D+00 EMaxC= 1.00D-01 BMatC= 2.07D-08 BMatP= 2.07D-08
 IDIUse=1 WtCom= 1.00D+00 WtEn= 0.00D+00
 Coeff-Com:  0.100D+01
 Coeff:      0.100D+01
 Gap=     0.193 Goal=   None    Shift=    0.000
 RMSDP=5.37D-06 MaxDP=1.46D-04 DE=-5.96D-06 OVMax= 6.94D-05

 Cycle  10  Pass 1  IDiag  1:
 E= -260.596903558416     Delta-E=       -0.000000003280 Rises=F Damp=F
 DIIS: error= 1.07D-05 at cycle   2 NSaved=   2.
 NSaved= 2 IEnMin= 2 EnMin= -260.596903558416     IErMin= 1 ErrMin= 8.75D-06
 ErrMax= 1.07D-05  0.00D+00 EMaxC= 1.00D-01 BMatC= 2.41D-08 BMatP= 2.07D-08
 IDIUse=1 WtCom= 1.00D+00 WtEn= 0.00D+00
 Coeff-Com:  0.526D+00 0.474D+00
 Coeff:      0.526D+00 0.474D+00
 Gap=     0.193 Goal=   None    Shift=    0.000
 RMSDP=2.13D-06 MaxDP=4.99D-05 DE=-3.28D-09 OVMax= 1.01D-04

 Cycle  11  Pass 1  IDiag  1:
 E= -260.596903571113     Delta-E=       -0.000000012697 Rises=F Damp=F
 DIIS: error= 8.22D-06 at cycle   3 NSaved=   3.
 NSaved= 3 IEnMin= 3 EnMin= -260.596903571113     IErMin= 3 ErrMin= 8.22D-06
 ErrMax= 8.22D-06  0.00D+00 EMaxC= 1.00D-01 BMatC= 1.01D-08 BMatP= 2.07D-08
 IDIUse=1 WtCom= 1.00D+00 WtEn= 0.00D+00
 Coeff-Com:  0.113D+00 0.370D+00 0.518D+00
 Coeff:      0.113D+00 0.370D+00 0.518D+00
 Gap=     0.193 Goal=   None    Shift=    0.000
 RMSDP=1.14D-06 MaxDP=3.14D-05 DE=-1.27D-08 OVMax= 5.58D-05

 Cycle  12  Pass 1  IDiag  1:
 E= -260.596903578772     Delta-E=       -0.000000007659 Rises=F Damp=F
 DIIS: error= 2.55D-06 at cycle   4 NSaved=   4.
 NSaved= 4 IEnMin= 4 EnMin= -260.596903578772     IErMin= 4 ErrMin= 2.55D-06
 ErrMax= 2.55D-06  0.00D+00 EMaxC= 1.00D-01 BMatC= 1.47D-09 BMatP= 1.01D-08
 IDIUse=1 WtCom= 1.00D+00 WtEn= 0.00D+00
 Coeff-Com: -0.133D-01 0.165D+00 0.348D+00 0.500D+00
 Coeff:     -0.133D-01 0.165D+00 0.348D+00 0.500D+00
 Gap=     0.193 Goal=   None    Shift=    0.000
 RMSDP=3.71D-07 MaxDP=9.24D-06 DE=-7.66D-09 OVMax= 1.60D-05

 Cycle  13  Pass 1  IDiag  1:
 E= -260.596903580153     Delta-E=       -0.000000001381 Rises=F Damp=F
 DIIS: error= 2.02D-07 at cycle   5 NSaved=   5.
 NSaved= 5 IEnMin= 5 EnMin= -260.596903580153     IErMin= 5 ErrMin= 2.02D-07
 ErrMax= 2.02D-07  0.00D+00 EMaxC= 1.00D-01 BMatC= 1.38D-11 BMatP= 1.47D-09
 IDIUse=1 WtCom= 1.00D+00 WtEn= 0.00D+00
 Coeff-Com: -0.697D-02 0.541D-01 0.110D+00 0.196D+00 0.647D+00
 Coeff:     -0.697D-02 0.541D-01 0.110D+00 0.196D+00 0.647D+00
 Gap=     0.193 Goal=   None    Shift=    0.000
 RMSDP=3.89D-08 MaxDP=7.97D-07 DE=-1.38D-09 OVMax= 7.89D-07

 Cycle  14  Pass 1  IDiag  1:
 E= -260.596903580160     Delta-E=       -0.000000000007 Rises=F Damp=F
 DIIS: error= 1.35D-07 at cycle   6 NSaved=   6.
 NSaved= 6 IEnMin= 6 EnMin= -260.596903580160     IErMin= 6 ErrMin= 1.35D-07
 ErrMax= 1.35D-07  0.00D+00 EMaxC= 1.00D-01 BMatC= 2.51D-12 BMatP= 1.38D-11
 IDIUse=1 WtCom= 1.00D+00 WtEn= 0.00D+00
 Coeff-Com: -0.299D-02 0.179D-01 0.325D-01 0.749D-01 0.363D+00 0.515D+00
 Coeff:     -0.299D-02 0.179D-01 0.325D-01 0.749D-01 0.363D+00 0.515D+00
 Gap=     0.193 Goal=   None    Shift=    0.000
 RMSDP=1.25D-08 MaxDP=2.81D-07 DE=-6.93D-12 OVMax= 4.53D-07

 Cycle  15  Pass 1  IDiag  1:
 E= -260.596903580165     Delta-E=       -0.000000000005 Rises=F Damp=F
 DIIS: error= 3.01D-08 at cycle   7 NSaved=   7.
 NSaved= 7 IEnMin= 7 EnMin= -260.596903580165     IErMin= 7 ErrMin= 3.01D-08
 ErrMax= 3.01D-08  0.00D+00 EMaxC= 1.00D-01 BMatC= 1.90D-13 BMatP= 2.51D-12
 IDIUse=1 WtCom= 1.00D+00 WtEn= 0.00D+00
 Coeff-Com: -0.295D-03 0.261D-03-0.269D-02 0.612D-02 0.742D-01 0.237D+00
 Coeff-Com:  0.685D+00
 Coeff:     -0.295D-03 0.261D-03-0.269D-02 0.612D-02 0.742D-01 0.237D+00
 Coeff:      0.685D+00
 Gap=     0.193 Goal=   None    Shift=    0.000
 RMSDP=5.75D-09 MaxDP=1.21D-07 DE=-4.55D-12 OVMax= 1.48D-07

 SCF Done:  E(RB3LYP) =  -260.596903580     A.U. after   15 cycles
            NFock= 15  Conv=0.57D-08     -V/T= 2.0108
 KE= 2.578107931519D+02 PE=-9.681983763676D+02 EE= 2.691181428386D+02
 Leave Link  502 at Fri Sep 10 19:30:27 2021, MaxMem= 24159191040 cpu:        30.3
 (Enter /public/home/users/caep010/software/Gaussian09/g09/l801.exe)
 DoSCS=F DFT=T ScalE2(SS,OS)=  1.000000  1.000000
 Range of M.O.s used for correlation:     1   105
 NBasis=   105 NAE=    20 NBE=    20 NFC=     0 NFV=     0
 NROrb=    105 NOA=    20 NOB=    20 NVA=    85 NVB=    85
 Leave Link  801 at Fri Sep 10 19:30:27 2021, MaxMem= 24159191040 cpu:         0.7
 (Enter /public/home/users/caep010/software/Gaussian09/g09/l1101.exe)
 Using compressed storage, NAtomX=    11.
 Will process     12 centers per pass.
 Leave Link 1101 at Fri Sep 10 19:30:27 2021, MaxMem= 24159191040 cpu:        10.8
 (Enter /public/home/users/caep010/software/Gaussian09/g09/l1102.exe)
 Symmetrizing basis deriv contribution to polar:
 IMax=3 JMax=2 DiffMx= 0.00D+00
 Leave Link 1102 at Fri Sep 10 19:30:27 2021, MaxMem= 24159191040 cpu:         0.6
 (Enter /public/home/users/caep010/software/Gaussian09/g09/l1110.exe)
 Forming Gx(P) for the SCF density, NAtomX=    11.
 Integral derivatives from FoFJK, PRISM(SPDF).
 Do as many integral derivatives as possible in FoFJK.
 G2DrvN: MDV=   24159190848.
 G2DrvN: will do    12 centers at a time, making    1 passes.
 Calling FoFCou, ICntrl=  3107 FMM=F I1Cent=   0 AccDes= 0.00D+00.
 FoFJK:  IHMeth= 1 ICntrl=    3107 DoSepK=F KAlg= 0 I1Cent=   0 FoldK=F
 IRaf=         0 NMat=   1 IRICut=       1 DoRegI=T DoRafI=F ISym2E= 0.
 FoFCou: FMM=F IPFlag=           0 FMFlag=      100000 FMFlg1=           0
         NFxFlg=           0 DoJE=F BraDBF=F KetDBF=F FulRan=T
         wScrn=  0.000000 ICntrl=    3107 IOpCl=  0 I1Cent=           0 NGrid=           0
         NMat0=    1 NMatS0=      1 NMatT0=    0 NMatD0=    1 NMtDS0=    0 NMtDT0=    0
 Symmetry not used in FoFCou.
 End of G2Drv F.D. properties file   721 does not exist.
 End of G2Drv F.D. properties file   722 does not exist.
 End of G2Drv F.D. properties file   788 does not exist.
 Leave Link 1110 at Fri Sep 10 19:30:28 2021, MaxMem= 24159191040 cpu:        34.7
 (Enter /public/home/users/caep010/software/Gaussian09/g09/l1002.exe)
 Minotr:  Closed shell wavefunction.
          IDoAtm=11111111111
          Direct CPHF calculation.
          Differentiating once with respect to nuclear coordinates.
          Requested convergence is 1.0D-08 RMS, and 1.0D-07 maximum.
          Secondary convergence is 1.0D-12 RMS, and 1.0D-12 maximum.
          NewPWx=T KeepS1=F KeepF1=F KeepIn=T MapXYZ=F SortEE=F KeepMc=T.
          MDV=   24159190821 using IRadAn=       2.
 Generate precomputed XC quadrature information.
 Keep R1 ints in memory in canonical form, NReq=16416655.
 FoFCou: FMM=F IPFlag=           0 FMFlag=           0 FMFlg1=           0
         NFxFlg=           0 DoJE=F BraDBF=F KetDBF=F FulRan=T
         wScrn=  0.000000 ICntrl=     600 IOpCl=  0 I1Cent=           0 NGrid=           0
         NMat0=    1 NMatS0=   5565 NMatT0=    0 NMatD0=    1 NMtDS0=    0 NMtDT0=    0
 Symmetry not used in FoFCou.
          Solving linear equations simultaneously, MaxMat=       0.
          There are    36 degrees of freedom in the 1st order CPHF.  IDoFFX=6 NUNeed=     0.
     30 vectors produced by pass  0 Test12= 4.72D-15 2.78D-09 XBig12= 1.47D-01 1.40D-01.
 AX will form    30 AO Fock derivatives at one time.
     30 vectors produced by pass  1 Test12= 4.72D-15 2.78D-09 XBig12= 2.27D-02 5.20D-02.
     30 vectors produced by pass  2 Test12= 4.72D-15 2.78D-09 XBig12= 2.50D-04 3.15D-03.
     30 vectors produced by pass  3 Test12= 4.72D-15 2.78D-09 XBig12= 2.67D-06 2.43D-04.
     30 vectors produced by pass  4 Test12= 4.72D-15 2.78D-09 XBig12= 5.43D-09 1.14D-05.
     17 vectors produced by pass  5 Test12= 4.72D-15 2.78D-09 XBig12= 4.70D-12 2.99D-07.
      3 vectors produced by pass  6 Test12= 4.72D-15 2.78D-09 XBig12= 2.93D-15 6.45D-09.
 InvSVY:  IOpt=1 It=  1 EMax= 1.67D-15
 Solved reduced A of dimension   170 with    30 vectors.
 End of Minotr F.D. properties file   721 does not exist.
 End of Minotr F.D. properties file   722 does not exist.
 End of Minotr F.D. properties file   788 does not exist.
 Leave Link 1002 at Fri Sep 10 19:30:30 2021, MaxMem= 24159191040 cpu:        41.0
 (Enter /public/home/users/caep010/software/Gaussian09/g09/l601.exe)
 Copying SCF densities to generalized density rwf, IOpCl= 0 IROHF=0.

 **********************************************************************

            Population analysis using the SCF density.

 **********************************************************************

 Orbital symmetries:
       Occupied  (A) (A) (A) (A) (A) (A) (A) (A) (A) (A) (A) (A)
                 (A) (A) (A) (A) (A) (A) (A) (A)
       Virtual   (A) (A) (A) (A) (A) (A) (A) (A) (A) (A) (A) (A)
                 (A) (A) (A) (A) (A) (A) (A) (A) (A) (A) (A) (A)
                 (A) (A) (A) (A) (A) (A) (A) (A) (A) (A) (A) (A)
                 (A) (A) (A) (A) (A) (A) (A) (A) (A) (A) (A) (A)
                 (A) (A) (A) (A) (A) (A) (A) (A) (A) (A) (A) (A)
                 (A) (A) (A) (A) (A) (A) (A) (A) (A) (A) (A) (A)
                 (A) (A) (A) (A) (A) (A) (A) (A) (A) (A) (A) (A)
                 (A)
 The electronic state is 1-A.
 Alpha  occ. eigenvalues --  -14.41430 -14.41316 -14.37667 -14.34432 -10.24580
 Alpha  occ. eigenvalues --   -1.04258  -0.95337  -0.80823  -0.73308  -0.60887
 Alpha  occ. eigenvalues --   -0.55241  -0.51900  -0.49144  -0.45620  -0.42546
 Alpha  occ. eigenvalues --   -0.38077  -0.34099  -0.31577  -0.23236  -0.20471
 Alpha virt. eigenvalues --   -0.01213   0.04915   0.08827   0.09590   0.12394
 Alpha virt. eigenvalues --    0.13958   0.14740   0.15827   0.22638   0.27115
 Alpha virt. eigenvalues --    0.37815   0.48803   0.52858   0.54109   0.61201
 Alpha virt. eigenvalues --    0.66551   0.67539   0.67842   0.69081   0.71736
 Alpha virt. eigenvalues --    0.74604   0.76435   0.79708   0.81910   0.82711
 Alpha virt. eigenvalues --    0.84858   0.87688   0.88885   0.91123   0.93932
 Alpha virt. eigenvalues --    0.95384   0.98684   1.11220   1.14792   1.21328
 Alpha virt. eigenvalues --    1.25602   1.27941   1.33554   1.47270   1.50998
 Alpha virt. eigenvalues --    1.55659   1.60131   1.69913   1.73929   1.78803
 Alpha virt. eigenvalues --    1.85967   1.86921   1.93422   1.99253   2.00345
 Alpha virt. eigenvalues --    2.03014   2.06672   2.08459   2.12119   2.16920
 Alpha virt. eigenvalues --    2.20079   2.23002   2.27151   2.31359   2.37549
 Alpha virt. eigenvalues --    2.40258   2.44711   2.47798   2.58008   2.60699
 Alpha virt. eigenvalues --    2.64372   2.68175   2.70846   2.74866   2.77659
 Alpha virt. eigenvalues --    2.79235   2.90135   3.01373   3.05076   3.13106
 Alpha virt. eigenvalues --    3.21613   3.36027   3.37189   3.38741   3.43665
 Alpha virt. eigenvalues --    3.51848   3.71896   3.91195   4.15778   4.44764
          Condensed to atoms (all electrons):
               1          2          3          4          5          6
     1  C    4.866910   0.258022  -0.055384  -0.032464   0.000450   0.376607
     2  N    0.258022   6.918712   0.204373   0.111054  -0.078117  -0.023920
     3  N   -0.055384   0.204373   6.638811  -0.042930   0.003777  -0.002574
     4  N   -0.032464   0.111054  -0.042930   6.621235   0.392748   0.002519
     5  N    0.000450  -0.078117   0.003777   0.392748   6.765484   0.000392
     6  H    0.376607  -0.023920  -0.002574   0.002519   0.000392   0.576932
     7  H    0.383316  -0.047092   0.002474  -0.001584   0.003447  -0.026851
     8  H    0.372405  -0.049056   0.004000  -0.000606   0.003281  -0.027562
     9  H   -0.005554  -0.029768   0.331961   0.003484  -0.000202   0.004172
    10  H    0.004674  -0.057658   0.328095   0.000859   0.000008   0.000067
    11  H    0.014640  -0.028351   0.000150  -0.031222   0.238098  -0.000264
               7          8          9         10         11
     1  C    0.383316   0.372405  -0.005554   0.004674   0.014640
     2  N   -0.047092  -0.049056  -0.029768  -0.057658  -0.028351
     3  N    0.002474   0.004000   0.331961   0.328095   0.000150
     4  N   -0.001584  -0.000606   0.003484   0.000859  -0.031222
     5  N    0.003447   0.003281  -0.000202   0.000008   0.238098
     6  H   -0.026851  -0.027562   0.004172   0.000067  -0.000264
     7  H    0.592158  -0.046464   0.000441  -0.000348   0.001726
     8  H   -0.046464   0.612213  -0.000120   0.000525   0.001856
     9  H    0.000441  -0.000120   0.471228  -0.034339  -0.000006
    10  H   -0.000348   0.000525  -0.034339   0.491028   0.000048
    11  H    0.001726   0.001856  -0.000006   0.000048   0.590825
 Mulliken charges:
               1
     1  C   -0.183622
     2  N   -0.178199
     3  N   -0.412751
     4  N   -0.023093
     5  N   -0.329366
     6  H    0.120481
     7  H    0.138777
     8  H    0.129529
     9  H    0.258703
    10  H    0.267041
    11  H    0.212501
 Sum of Mulliken charges =  -0.00000
 Mulliken charges with hydrogens summed into heavy atoms:
               1
     1  C    0.205165
     2  N   -0.178199
     3  N    0.112993
     4  N   -0.023093
     5  N   -0.116865
 APT charges:
               1
     1  C   -1.011960
     2  N    0.027239
     3  N   -1.029684
     4  N   -0.380617
     5  N   -0.317305
     6  H    0.458753
     7  H    0.359798
     8  H    0.340042
     9  H    0.590736
    10  H    0.499727
    11  H    0.463270
 Sum of APT charges =  -0.00000
 APT charges with hydrogens summed into heavy atoms:
               1
     1  C    0.146634
     2  N    0.027239
     3  N    0.060779
     4  N   -0.380617
     5  N    0.145966
 Electronic spatial extent (au):  <R**2>=            432.9784
 Charge=             -0.0000 electrons
 Dipole moment (field-independent basis, Debye):
    X=             -3.4996    Y=              3.6588    Z=              1.3452  Tot=              5.2386
 Quadrupole moment (field-independent basis, Debye-Ang):
   XX=            -30.2841   YY=            -30.6262   ZZ=            -30.8296
   XY=              2.9930   XZ=             -2.0495   YZ=             -2.2534
 Traceless Quadrupole moment (field-independent basis, Debye-Ang):
   XX=              0.2959   YY=             -0.0462   ZZ=             -0.2497
   XY=              2.9930   XZ=             -2.0495   YZ=             -2.2534
 Octapole moment (field-independent basis, Debye-Ang**2):
  XXX=            -27.5465  YYY=              4.0841  ZZZ=              1.5573  XYY=             -2.0950
  XXY=              9.7717  XXZ=              3.5340  XZZ=             -0.7336  YZZ=             -0.1100
  YYZ=              3.1598  XYZ=              3.7948
 Hexadecapole moment (field-independent basis, Debye-Ang**3):
 XXXX=           -323.6765 YYYY=           -185.9154 ZZZZ=            -37.3312 XXXY=             19.7716
 XXXZ=             -5.3510 YYYX=              4.1518 YYYZ=             -5.7004 ZZZX=             -2.6310
 ZZZY=             -2.5529 XXYY=            -84.2069 XXZZ=            -62.8388 YYZZ=            -35.3176
 XXYZ=             -6.1414 YYXZ=             -5.3533 ZZXY=              2.4902
 N-N= 1.806725367969D+02 E-N=-9.681983748184D+02  KE= 2.578107931519D+02
  Exact polarizability:   0.000   0.000   0.000   0.000   0.000   0.000
 Approx polarizability: 111.256   2.086  57.955   0.398  -1.819  37.027
 No NMR shielding tensors so no spin-rotation constants.
 Leave Link  601 at Fri Sep 10 19:30:30 2021, MaxMem= 24159191040 cpu:        11.3
 (Enter /public/home/users/caep010/software/Gaussian09/g09/l701.exe)
 Compute integral second derivatives.
 ... and contract with generalized density number  0.
 Leave Link  701 at Fri Sep 10 19:30:31 2021, MaxMem= 24159191040 cpu:        16.5
 (Enter /public/home/users/caep010/software/Gaussian09/g09/l702.exe)
 L702 exits ... SP integral derivatives will be done elsewhere.
 Leave Link  702 at Fri Sep 10 19:30:31 2021, MaxMem= 24159191040 cpu:         0.5
 (Enter /public/home/users/caep010/software/Gaussian09/g09/l703.exe)
 Compute integral second derivatives, UseDBF=F ICtDFT=           0.
 Integral derivatives from FoFJK, PRISM(SPDF).
 Calling FoFJK, ICntrl=    100147 FMM=F ISym2X=0 I1Cent= 0 IOpClX= 0 NMat=1 NMatS=1 NMatT=0.
 FoFJK:  IHMeth= 1 ICntrl=  100147 DoSepK=F KAlg= 0 I1Cent=   0 FoldK=F
 IRaf=         0 NMat=   1 IRICut=       1 DoRegI=T DoRafI=F ISym2E= 0.
 FoFCou: FMM=F IPFlag=           0 FMFlag=      100000 FMFlg1=         800
         NFxFlg=           0 DoJE=F BraDBF=F KetDBF=F FulRan=T
         wScrn=  0.000000 ICntrl=  100147 IOpCl=  0 I1Cent=           0 NGrid=           0
         NMat0=    1 NMatS0=      1 NMatT0=    0 NMatD0=    1 NMtDS0=    0 NMtDT0=    0
 Symmetry not used in FoFCou.
 Leave Link  703 at Fri Sep 10 19:30:32 2021, MaxMem= 24159191040 cpu:        44.1
 (Enter /public/home/users/caep010/software/Gaussian09/g09/l716.exe)
 Dipole        =-1.37683121D+00 1.43947463D+00 5.29255836D-01
 Polarizability= 0.00000000D+00 0.00000000D+00 0.00000000D+00
                 0.00000000D+00 0.00000000D+00 0.00000000D+00
 ***** Axes restored to original set *****
 -------------------------------------------------------------------
 Center     Atomic                   Forces (Hartrees/Bohr)
 Number     Number              X              Y              Z
 -------------------------------------------------------------------
      1        6           0.002897416    0.000156192    0.000594080
      2        7           0.023587635   -0.038271436   -0.006148702
      3        7           0.003195698    0.027667469   -0.003157023
      4        7          -0.023816010   -0.006721968   -0.017163520
      5        7          -0.004306601    0.020363249    0.006698175
      6        1           0.010317478   -0.000686465    0.007888202
      7        1           0.002627812    0.005921628   -0.005788240
      8        1          -0.005971115   -0.002586694    0.004037798
      9        1           0.021102410   -0.007246756    0.012144012
     10        1          -0.013245030   -0.012100201    0.002961719
     11        1          -0.016389693    0.013504981   -0.002066502
 -------------------------------------------------------------------
 Cartesian Forces:  Max     0.038271436 RMS     0.013453446
 Force constants in Cartesian coordinates: 
                1             2             3             4             5 
      1  0.548250D+00
      2 -0.413365D-01  0.496985D+00
      3 -0.612819D-02 -0.569466D-01  0.480260D+00
      4 -0.834905D-01  0.130664D-01 -0.278691D-01  0.326575D+00
      5 -0.711533D-02 -0.135397D+00 -0.565757D-01 -0.144382D+00  0.540364D+00
      6 -0.337486D-01 -0.452183D-01 -0.104788D+00  0.130096D+00  0.186689D+00
      7 -0.115031D-02 -0.123208D-01  0.679078D-02 -0.116267D+00  0.789935D-01
      8  0.124147D-01 -0.190197D-01 -0.369456D-02  0.780240D-01 -0.221376D+00
      9  0.130536D-01 -0.131258D-01 -0.650765D-02 -0.285958D-01 -0.355566D-01
     10 -0.213045D-01 -0.767816D-02 -0.241793D-01 -0.695959D-01  0.231338D-02
     11 -0.115975D-01  0.123048D-01 -0.937122D-02 -0.251016D-02 -0.111689D+00
     12 -0.300416D-01 -0.177219D-02 -0.189982D-01 -0.254102D-01 -0.724571D-01
     13  0.454702D-02  0.498625D-02  0.408112D-02 -0.578051D-01  0.477859D-01
     14 -0.626401D-02  0.393541D-03 -0.202611D-02  0.516683D-01 -0.604115D-02
     15 -0.174313D-02  0.391979D-02  0.312910D-02 -0.335482D-01  0.292469D-01
     16 -0.215360D+00  0.674283D-01 -0.871040D-01 -0.970113D-02  0.376665D-02
     17  0.734051D-01 -0.790944D-01  0.378650D-01 -0.225126D-01  0.557377D-02
     18 -0.832057D-01  0.328697D-01 -0.927244D-01 -0.207654D-01  0.913860D-02
     19 -0.606068D-01 -0.378459D-01  0.219600D-01 -0.212536D-02 -0.105204D-01
     20 -0.367081D-01 -0.220259D+00  0.943729D-01 -0.635424D-02 -0.244703D-01
     21  0.213988D-01  0.954717D-01 -0.101599D+00 -0.578027D-02 -0.277630D-01
     22 -0.170751D+00  0.148710D-01  0.112657D+00  0.142431D-01  0.146788D-02
     23  0.155829D-01 -0.522992D-01 -0.116027D-01  0.111541D-01 -0.827878D-02
     24  0.115075D+00 -0.113360D-01 -0.156847D+00  0.127856D-02 -0.156009D-01
     25  0.144534D-02 -0.178330D-02 -0.762737D-03 -0.184080D-01  0.163295D-02
     26  0.250522D-02  0.276357D-03  0.143584D-02  0.337338D-01 -0.447668D-02
     27  0.879428D-03 -0.927360D-03  0.157946D-02  0.186155D-01 -0.126447D-01
     28 -0.684276D-03  0.149291D-02 -0.168561D-02  0.125306D-01  0.284239D-01
     29 -0.689920D-03 -0.233657D-02  0.466488D-02 -0.116714D-02 -0.397843D-01
     30  0.156452D-02 -0.365671D-02 -0.141280D-02 -0.149249D-01 -0.101396D-01
     31 -0.894845D-03 -0.880208D-03  0.223996D-02  0.404437D-02 -0.236683D-02
     32 -0.196563D-03 -0.155354D-02  0.187820D-02 -0.107209D-01  0.557487D-02
     33  0.289614D-02  0.721770D-03 -0.209208D-02  0.690382D-02  0.566344D-02
                6             7             8             9            10 
      6  0.256435D+00
      7 -0.140743D-01  0.560570D+00
      8 -0.871339D-01  0.336240D-01  0.517162D+00
      9 -0.403768D-01  0.117353D+00 -0.220701D-01  0.223382D+00
     10 -0.313129D-01 -0.159362D-01 -0.432682D-02 -0.997769D-02  0.270012D+00
     11 -0.639669D-01  0.307729D-01 -0.617046D-02  0.296301D-01 -0.180473D+00
     12 -0.938540D-01  0.122970D-01  0.138732D-01  0.756925D-02  0.144388D-01
     13 -0.270944D-01 -0.555478D-02  0.779817D-02 -0.605913D-03 -0.179472D+00
     14  0.247132D-01  0.301580D-02 -0.284578D-02 -0.816052D-02  0.183723D+00
     15  0.136366D-01 -0.654623D-02 -0.733509D-02 -0.391192D-02  0.476150D-01
     16 -0.340497D-02  0.957503D-03  0.126469D-02  0.123287D-02  0.425618D-03
     17 -0.123443D-01 -0.113029D-02  0.871666D-03 -0.386640D-03 -0.186029D-03
     18 -0.135460D-01 -0.503365D-03  0.149806D-02  0.883475D-03 -0.607385D-04
     19 -0.358687D-02 -0.226759D-02  0.519782D-03  0.159927D-02  0.455162D-02
     20 -0.840779D-02 -0.377559D-02 -0.146865D-02  0.123060D-02  0.552177D-02
     21  0.969546D-02 -0.289890D-02 -0.185851D-02 -0.472651D-03  0.385039D-02
     22 -0.945743D-02  0.487531D-04 -0.144124D-03 -0.684713D-03  0.121141D-02
     23 -0.226540D-01  0.117998D-02 -0.179913D-02 -0.274078D-02  0.393087D-02
     24 -0.215557D-01  0.234263D-02  0.525896D-03 -0.315374D-02  0.777032D-02
     25 -0.119748D-01 -0.242344D+00  0.593883D-02 -0.131214D+00 -0.238768D-04
     26  0.246063D-01 -0.543678D-02 -0.683577D-01 -0.221552D-02 -0.109869D-02
     27 -0.366825D-02 -0.193158D+00  0.992866D-02 -0.124253D+00  0.124334D-02
     28 -0.441002D-02 -0.177869D+00 -0.134803D+00  0.374583D-01  0.397582D-02
     29  0.176516D-02 -0.124098D+00 -0.196639D+00  0.535026D-01 -0.492737D-02
     30 -0.117216D-02  0.776054D-01  0.939922D-01 -0.546547D-01  0.564735D-02
     31  0.896833D-02 -0.187345D-03 -0.310556D-03  0.380723D-03  0.615677D-02
     32  0.195196D-02 -0.824403D-03 -0.357837D-03 -0.107263D-03  0.320096D-02
     33 -0.806296D-03  0.791382D-03  0.227420D-02  0.149574D-02 -0.150345D-01
               11            12            13            14            15 
     11  0.528255D+00
     12  0.161173D+00  0.204990D+00
     13  0.140958D+00  0.160016D-01  0.304902D+00
     14 -0.375714D+00 -0.622647D-01 -0.170933D+00  0.555128D+00
     15 -0.943876D-01 -0.104462D+00  0.640362D-01  0.192391D+00  0.261907D+00
     16 -0.132677D-02 -0.655883D-03  0.106832D-02 -0.968953D-03 -0.276255D-03
     17 -0.475008D-02 -0.351660D-02  0.889352D-03  0.219932D-03  0.417280D-03
     18 -0.440768D-02 -0.255454D-02  0.924181D-03 -0.106338D-02  0.526696D-03
     19 -0.292964D-02  0.921755D-03 -0.126889D-03  0.274278D-02  0.215200D-03
     20 -0.205088D-02  0.282689D-02 -0.229345D-02  0.215559D-02 -0.241387D-03
     21 -0.192297D-02  0.707516D-03 -0.396431D-03  0.380944D-02 -0.183336D-03
     22 -0.281730D-02  0.542124D-03 -0.131143D-02  0.151034D-02  0.287910D-02
     23 -0.180242D-02  0.199556D-02 -0.270624D-02  0.239216D-02  0.573344D-03
     24 -0.466357D-02  0.349575D-02 -0.318120D-02  0.344672D-02  0.135673D-02
     25  0.182232D-02  0.442093D-02  0.644949D-03 -0.765958D-03 -0.148884D-02
     26 -0.640167D-02 -0.496014D-02  0.297635D-02  0.107812D-03  0.191979D-02
     27  0.240908D-02 -0.430879D-02 -0.425776D-03 -0.177720D-02  0.202445D-02
     28 -0.992946D-03  0.195476D-02 -0.258967D-02  0.865251D-03  0.100076D-02
     29 -0.603018D-03  0.290229D-03  0.226787D-02 -0.212490D-03 -0.828830D-03
     30 -0.167440D-02  0.284426D-02 -0.372515D-02  0.367556D-02  0.298740D-03
     31  0.290939D-01  0.553064D-02 -0.643021D-01 -0.645937D-01 -0.721436D-01
     32 -0.313785D-01 -0.351882D-01 -0.317294D-01 -0.175584D+00 -0.125675D+00
     33 -0.128179D-01  0.457104D-02 -0.496143D-01 -0.152744D+00 -0.174322D+00
               16            17            18            19            20 
     16  0.231419D+00
     17 -0.757215D-01  0.854858D-01
     18  0.955054D-01 -0.342740D-01  0.100497D+00
     19  0.668224D-02  0.236567D-01 -0.117666D-01  0.591251D-01
     20 -0.192018D-02 -0.772812D-02  0.504056D-02  0.449012D-01  0.250195D+00
     21  0.347935D-02  0.101389D-01 -0.546979D-02 -0.213571D-01 -0.944452D-01
     22 -0.172142D-01  0.139012D-02  0.181962D-01 -0.395273D-02  0.102258D-02
     23  0.836483D-02 -0.958159D-03 -0.801505D-02 -0.198753D-01  0.452209D-02
     24 -0.963539D-02  0.187661D-02  0.113474D-01  0.113663D-01 -0.334624D-03
     25  0.139602D-02  0.332037D-03  0.457695D-03  0.478220D-03 -0.453396D-03
     26 -0.574578D-03 -0.759479D-03 -0.170244D-02 -0.968793D-04  0.496835D-04
     27 -0.109693D-03 -0.115941D-02  0.621819D-04 -0.202913D-03  0.152208D-03
     28  0.322606D-04 -0.176088D-03  0.235661D-03  0.322506D-03  0.526221D-03
     29 -0.101935D-03  0.107225D-03 -0.223153D-03 -0.342736D-03 -0.136775D-02
     30  0.192456D-03 -0.575341D-04  0.290193D-03 -0.486790D-04 -0.522325D-03
     31  0.293959D-03  0.532415D-04  0.982673D-03 -0.208033D-02 -0.466842D-03
     32 -0.210550D-03  0.103189D-02  0.113878D-02 -0.209543D-03  0.422451D-03
     33  0.776108D-03  0.144071D-02  0.687580D-03  0.899657D-03  0.328186D-03
               21            22            23            24            25 
     21  0.106386D+00
     22  0.258322D-02  0.177533D+00
     23  0.187946D-01 -0.174346D-01  0.583322D-01
     24 -0.894787D-02 -0.124611D+00  0.243872D-01  0.175813D+00
     25  0.689486D-04  0.617602D-04 -0.430912D-03 -0.352078D-03  0.274712D+00
     26  0.105201D-04 -0.456575D-03  0.320942D-04 -0.423171D-03 -0.732563D-02
     27 -0.420585D-04  0.284729D-03  0.111276D-03  0.209905D-03  0.156793D+00
     28  0.540469D-03 -0.233878D-03  0.678854D-04  0.473273D-04 -0.179915D-01
     29 -0.984171D-03  0.536554D-04  0.457535D-04  0.391155D-03  0.106389D-02
     30 -0.434742D-03 -0.120415D-03 -0.362511D-03 -0.276249D-03 -0.161800D-01
     31 -0.148839D-02  0.365746D-03  0.166556D-03 -0.100267D-03  0.291531D-04
     32 -0.125133D-02  0.537088D-03 -0.186570D-03  0.173064D-02 -0.308390D-04
     33  0.360493D-03 -0.226895D-02 -0.487020D-03 -0.144205D-02  0.231167D-03
               26            27            28            29            30 
     26  0.766756D-01
     27  0.162959D-03  0.127110D+00
     28 -0.238369D-01  0.158057D-01  0.181834D+00
     29  0.271934D-02  0.333936D-02  0.128091D+00  0.237838D+00
     30 -0.187352D-01  0.140057D-02 -0.500184D-01 -0.621982D-01  0.536627D-01
     31 -0.389351D-03  0.273770D-03  0.673633D-03 -0.148579D-03  0.776854D-05
     32  0.134641D-03  0.405180D-03  0.341914D-03  0.233235D-03 -0.321269D-03
     33 -0.988805D-04 -0.114277D-03 -0.928927D-03  0.281003D-03 -0.545842D-03
               31            32            33 
     31  0.559010D-01
     32  0.398423D-01  0.201663D+00
     33  0.553484D-01  0.155438D+00  0.172207D+00
 FormGI is forming the generalized inverse of G from B-inverse, IUseBI=4.
 Force constants in internal coordinates: 
                1             2             3             4             5 
      1  0.285637D+00
      2  0.207632D-02  0.311972D+00
      3  0.152828D-01  0.250981D-02  0.306953D+00
      4  0.165378D-01  0.259697D-02  0.384687D-02  0.304819D+00
      5  0.905212D-02  0.590897D-03 -0.511812D-03  0.791690D-03  0.378756D+00
      6  0.143038D-01 -0.212875D-02 -0.306101D-02 -0.341649D-02  0.126144D-01
      7 -0.499850D-03  0.127041D-02 -0.212368D-03 -0.306600D-03 -0.679751D-02
      8 -0.132523D-02  0.140294D-03  0.387179D-03 -0.353840D-03  0.131375D-01
      9  0.551931D-02 -0.203324D-02  0.255982D-02  0.310095D-02  0.113630D-01
     10  0.177303D-02  0.456529D-03  0.790665D-03  0.861879D-03 -0.146719D-02
     11  0.208213D-01 -0.219338D-02 -0.454802D-02 -0.441820D-02 -0.824586D-03
     12  0.245115D-01 -0.440192D-02  0.869274D-03 -0.443411D-02  0.960389D-03
     13  0.229923D-01 -0.445936D-02 -0.462517D-02 -0.440047D-03  0.328293D-02
     14 -0.228646D-01  0.663720D-02  0.516548D-02 -0.262997D-02 -0.600334D-04
     15 -0.224220D-01  0.652283D-02 -0.249241D-02  0.580150D-02 -0.884796D-03
     16 -0.253718D-01 -0.180404D-02  0.592764D-02  0.647572D-02 -0.262695D-02
     17  0.260832D-01 -0.598298D-02  0.147220D-02  0.742218D-03  0.217992D-01
     18 -0.313780D-02  0.514789D-02 -0.101986D-02 -0.747998D-03 -0.350768D-01
     19 -0.229558D-01  0.836311D-03 -0.434916D-03 -0.163473D-04  0.132793D-01
     20  0.574977D-04  0.175347D-02 -0.411381D-03 -0.179194D-03  0.504706D-01
     21  0.283081D-02  0.744766D-04  0.150455D-02  0.558574D-04  0.596019D-01
     22  0.354692D-03 -0.647397D-03 -0.339137D-03 -0.105878D-04 -0.261468D-01
     23 -0.193916D-01 -0.334343D-02  0.234952D-02  0.281114D-02  0.154177D-01
     24  0.255620D-02 -0.133433D-02  0.982483D-03  0.101831D-02 -0.330391D-03
     25  0.530762D-03  0.615308D-04  0.323204D-02 -0.314957D-02 -0.379577D-03
     26 -0.401420D-03  0.152213D-03  0.440773D-02 -0.464860D-02 -0.125349D-03
     27 -0.470947D-03 -0.392241D-02 -0.902896D-03  0.592996D-02 -0.414170D-03
     28 -0.140313D-02 -0.383173D-02  0.272790D-03  0.443092D-02 -0.159942D-03
     29  0.994607D-03  0.387174D-02 -0.585808D-02  0.100001D-02  0.161516D-03
     30  0.624256D-04  0.396242D-02 -0.468239D-02 -0.499025D-03  0.415744D-03
     31 -0.124868D-02  0.313955D-03  0.480616D-03 -0.850309D-03  0.184289D-01
     32 -0.327814D-02  0.129148D-03  0.257161D-03 -0.775829D-03 -0.100337D-01
     33 -0.524514D-03  0.180022D-03 -0.645807D-03  0.602280D-03  0.186722D-01
     34 -0.255398D-02 -0.478505D-05 -0.869262D-03  0.676760D-03 -0.979032D-02
     35 -0.423809D-03 -0.753959D-04 -0.161272D-03  0.419874D-03  0.298156D-02
     36 -0.849229D-03 -0.569590D-04  0.997611D-03 -0.102547D-02  0.333285D-02
     37 -0.100977D-02 -0.494225D-04 -0.146325D-03  0.207918D-03 -0.304589D-02
                6             7             8             9            10 
      6  0.204456D+00
      7 -0.132779D-02  0.373732D+00
      8 -0.931583D-03 -0.250392D-02  0.361086D+00
      9  0.755889D-01 -0.135684D-02  0.108765D-02  0.569318D+00
     10 -0.500743D-03  0.268841D-03 -0.281499D-03  0.999413D-02  0.357840D+00
     11  0.104117D-02 -0.251310D-04  0.807096D-04 -0.369466D-02  0.391616D-02
     12 -0.494057D-02  0.344293D-04  0.817425D-03  0.656381D-02 -0.148937D-02
     13 -0.606147D-02 -0.128886D-03 -0.593306D-03  0.883032D-02 -0.160938D-02
     14  0.339164D-02 -0.164423D-03 -0.227442D-03 -0.346138D-02 -0.771381D-03
     15  0.365751D-02  0.116638D-04  0.104081D-03 -0.405980D-02 -0.732667D-03
     16  0.328393D-02  0.279966D-03 -0.194267D-03 -0.465025D-02  0.708832D-03
     17 -0.273460D-01 -0.985575D-02 -0.774038D-03 -0.240028D-03  0.112810D-02
     18  0.213234D-01  0.240675D-02  0.603832D-03  0.101492D-02 -0.365318D-02
     19  0.604691D-02  0.744866D-02  0.153394D-03 -0.776808D-03  0.252636D-02
     20  0.599138D-03  0.713176D-02  0.498968D-02  0.637828D-03  0.575250D-04
     21 -0.444892D-02  0.104749D-02  0.185097D-02  0.420993D-03 -0.269217D-03
     22  0.186453D-02  0.980348D-02  0.114986D-01 -0.292746D-02  0.288032D-03
     23  0.832646D-01  0.412997D-03  0.148628D-02  0.380320D-01 -0.347894D-01
     24 -0.238835D-01 -0.209135D-03 -0.126623D-03  0.489688D-01  0.171509D-01
     25 -0.658033D-03 -0.640019D-04  0.710735D-03 -0.185604D-03 -0.430088D-04
     26  0.104224D-02 -0.126906D-04 -0.426719D-03 -0.323259D-03  0.701804D-04
     27 -0.229073D-02  0.135297D-03  0.400343D-03  0.215695D-02 -0.597643D-03
     28 -0.590457D-03  0.186609D-03 -0.737111D-03  0.201929D-02 -0.484454D-03
     29  0.569248D-03 -0.150859D-03  0.499426D-03 -0.177651D-02  0.474547D-03
     30  0.226952D-02 -0.995475D-04 -0.638027D-03 -0.191417D-02  0.587736D-03
     31 -0.153724D-02  0.820565D-02  0.748746D-02  0.719906D-03 -0.227583D-03
     32 -0.157753D-02 -0.770692D-02 -0.977036D-02  0.362473D-02 -0.448801D-03
     33 -0.334548D-02  0.819818D-02  0.857886D-02  0.834912D-03 -0.275492D-03
     34 -0.338577D-02 -0.771439D-02 -0.867896D-02  0.373973D-02 -0.496711D-03
     35 -0.854955D-04  0.412661D-03  0.196630D-02 -0.666417D-03 -0.315004D-03
     36  0.122502D-02  0.292826D-03  0.854254D-03 -0.795287D-03 -0.216556D-03
     37  0.292817D-02 -0.186106D-03  0.830474D-03 -0.122801D-02  0.161406D-04
               11            12            13            14            15 
     11  0.115384D+00
     12 -0.249280D-01  0.120848D+00
     13 -0.243024D-01 -0.235245D-01  0.120134D+00
     14 -0.387008D-01 -0.417300D-01  0.813471D-02  0.565112D-01
     15 -0.390389D-01  0.827652D-02 -0.414958D-01  0.890870D-02  0.565419D-01
     16  0.107646D-01 -0.421925D-01 -0.419821D-01  0.893759D-02  0.882683D-02
     17 -0.181527D-03  0.743062D-02  0.432505D-02 -0.314645D-02 -0.251676D-02
     18  0.641620D-02 -0.524397D-02 -0.376803D-02 -0.392623D-03 -0.770696D-03
     19 -0.623213D-02 -0.217903D-02 -0.567171D-03  0.354052D-02  0.328502D-02
     20  0.518826D-02 -0.132489D-02 -0.268646D-03 -0.191665D-02 -0.207155D-02
     21 -0.119785D-02  0.479242D-02 -0.118932D-02 -0.119125D-02  0.360314D-03
     22 -0.947120D-03 -0.841294D-03  0.300893D-03  0.490583D-03  0.694895D-03
     23 -0.142505D-01  0.598762D-02  0.608414D-02  0.223022D-02  0.203350D-02
     24 -0.243716D-02  0.286151D-02  0.304536D-02 -0.152180D-02 -0.162012D-02
     25  0.154433D-03  0.874544D-02 -0.866582D-02  0.872627D-02 -0.898455D-02
     26  0.264003D-03  0.924013D-02 -0.935888D-02  0.885977D-02 -0.911659D-02
     27 -0.877410D-02 -0.334037D-02  0.123740D-01 -0.952152D-02 -0.613333D-03
     28 -0.866453D-02 -0.284568D-02  0.116809D-01 -0.938801D-02 -0.745369D-03
     29  0.887282D-02 -0.124034D-01  0.347034D-02  0.551437D-03  0.937023D-02
     30  0.898239D-02 -0.119087D-01  0.277728D-02  0.684946D-03  0.923819D-02
     31  0.956669D-03  0.517146D-03 -0.125619D-02 -0.718568D-03  0.242245D-03
     32  0.527151D-04 -0.470388D-03 -0.809986D-03  0.359876D-03  0.293435D-03
     33  0.727378D-03  0.757332D-04 -0.553705D-03 -0.811157D-03  0.407272D-03
     34 -0.176576D-03 -0.911801D-03 -0.107502D-03  0.267287D-03  0.458462D-03
     35  0.000000D+00  0.303816D-02 -0.299300D-02 -0.220119D-02  0.222936D-02
     36  0.160506D-03  0.361435D-02 -0.361497D-02 -0.213646D-02  0.204550D-02
     37  0.241294D-03  0.560308D-02 -0.605417D-02 -0.307028D-02  0.318109D-02
               16            17            18            19            20 
     16  0.589375D-01
     17 -0.637475D-02  0.152172D+00
     18  0.396237D-02 -0.797578D-01  0.152984D+00
     19  0.241338D-02 -0.724276D-01 -0.732217D-01  0.145658D+00
     20  0.335632D-03  0.190700D-03 -0.100072D-01  0.982538D-02  0.167048D+00
     21 -0.169126D-02  0.117871D-01 -0.323922D-02 -0.857791D-02 -0.362955D-01
     22  0.346170D-03 -0.730534D-03  0.383627D-02 -0.310330D-02 -0.493888D-01
     23 -0.218546D-02 -0.232031D-01  0.969572D-02  0.135111D-01  0.113474D-01
     24 -0.467587D-03 -0.287490D-02  0.101584D-01 -0.728340D-02 -0.126521D-02
     25 -0.732891D-05  0.913780D-03  0.323378D-03 -0.121582D-02 -0.569978D-03
     26  0.839845D-04 -0.710862D-03 -0.139346D-03  0.844581D-03  0.132715D-03
     27  0.994870D-02  0.315771D-04  0.187615D-03 -0.206370D-03 -0.614582D-03
     28  0.100400D-01 -0.159306D-02 -0.275109D-03  0.185403D-02  0.881109D-04
     29 -0.990120D-02  0.513061D-03  0.959664D-03 -0.145954D-02 -0.276674D-04
     30 -0.980989D-02 -0.111158D-02  0.496940D-03  0.600864D-03  0.675025D-03
     31  0.263859D-03 -0.581879D-03  0.107701D-02 -0.516394D-03  0.255149D-02
     32  0.622472D-03 -0.638970D-02  0.353368D-02  0.284402D-02 -0.541852D-02
     33  0.156013D-03  0.116788D-02 -0.745290D-03 -0.417832D-03  0.206803D-02
     34  0.514626D-03 -0.463994D-02  0.171138D-02  0.294258D-02 -0.590198D-02
     35 -0.784027D-04 -0.126353D-02 -0.102250D-02  0.230585D-02 -0.174812D-02
     36 -0.777289D-04 -0.606924D-03 -0.163090D-02  0.223129D-02 -0.115419D-02
     37  0.102474D-03 -0.236963D-03 -0.493436D-03  0.703167D-03  0.991325D-03
               21            22            23            24            25 
     21  0.190778D+00
     22 -0.559475D-01  0.592871D-01
     23  0.415176D-03 -0.501349D-02  0.398961D+00
     24 -0.376956D-03  0.580434D-03  0.104903D-01  0.187417D+00
     25  0.185102D-02 -0.535880D-03 -0.505946D-04  0.337711D-05  0.953631D-02
     26 -0.270824D-03 -0.402456D-03  0.330855D-03 -0.642339D-04  0.109694D-01
     27  0.924912D-03  0.163446D-04  0.231274D-02  0.157081D-02 -0.731648D-02
     28 -0.119693D-02  0.149768D-03  0.269419D-02  0.150320D-02 -0.588337D-02
     29  0.748920D-03 -0.714574D-04 -0.257493D-02 -0.156351D-02 -0.735567D-02
     30 -0.137293D-02  0.619660D-04 -0.219348D-02 -0.163112D-02 -0.592256D-02
     31  0.675363D-02  0.695472D-02  0.161502D-02  0.282384D-04  0.729014D-03
     32 -0.144752D-01 -0.647626D-02  0.143320D-02  0.207535D-03  0.627951D-03
     33  0.875539D-02  0.675779D-02  0.126751D-02 -0.790784D-04 -0.666697D-03
     34 -0.124734D-01 -0.667318D-02  0.108569D-02  0.100219D-03 -0.767760D-03
     35  0.170533D-02 -0.612405D-03  0.216624D-02 -0.379646D-03 -0.372839D-03
     36 -0.151783D-03 -0.462436D-03  0.217334D-02 -0.408771D-03  0.103691D-02
     37 -0.227720D-02  0.119899D-02  0.143413D-02 -0.197021D-02  0.194432D-02
               26            27            28            29            30 
     26  0.105967D-01
     27 -0.645001D-02  0.124672D-01
     28 -0.682271D-02  0.133336D-01  0.123943D-01
     29 -0.647715D-02 -0.548864D-02 -0.461012D-02  0.123421D-01
     30 -0.684984D-02 -0.462218D-02 -0.554946D-02  0.132206D-01  0.122933D-01
     31 -0.716694D-03  0.672003D-03 -0.773705D-03  0.810894D-03 -0.634814D-03
     32 -0.157390D-03  0.455951D-03 -0.329390D-03  0.492237D-03 -0.293104D-03
     33 -0.348372D-03 -0.166991D-03  0.151334D-03 -0.591544D-04  0.259171D-03
     34  0.210933D-03 -0.383044D-03  0.595649D-03 -0.377812D-03  0.600881D-03
     35  0.992982D-03  0.365552D-03  0.173137D-02  0.434558D-03  0.180038D-02
     36  0.616668D-03  0.120770D-02  0.787461D-03  0.130476D-02  0.884521D-03
     37  0.106661D-03  0.191095D-02  0.732919D-04  0.206910D-02  0.231443D-03
               31            32            33            34            35 
     31  0.334126D-02
     32 -0.999731D-02  0.857041D-02
     33  0.471876D-02 -0.925178D-02  0.441599D-02
     34 -0.861981D-02  0.931594D-02 -0.955455D-02  0.838120D-02
     35 -0.443710D-03  0.239227D-03 -0.172862D-02 -0.104568D-02  0.184204D-01
     36 -0.184651D-02 -0.613992D-03 -0.140417D-02 -0.171651D-03  0.197104D-01
     37 -0.766095D-03 -0.143240D-02  0.101671D-02  0.350402D-03  0.807435D-02
               36            37 
     36  0.192765D-01
     37  0.628409D-02  0.697854D-01
 Leave Link  716 at Fri Sep 10 19:30:32 2021, MaxMem= 24159191040 cpu:         0.9
 (Enter /public/home/users/caep010/software/Gaussian09/g09/l103.exe)

 GradGradGradGradGradGradGradGradGradGradGradGradGradGradGradGradGradGrad
 Berny optimization.
 Red2BG is reusing G-inverse.
 Internal  Forces:  Max     0.048354650 RMS     0.015742776
 Search for a local minimum.
 Step number   1 out of a maximum of   47
 All quantities printed in internal units (Hartrees-Bohrs-Radians)
 RMS Force = .15743D-01 SwitMx=.10000D-02 MixMth= 1
 Mixed Optimization -- RFO/linear search
 Second derivative matrix not updated -- analytic derivatives used.
 ITU=  0
     Eigenvalues ---   -0.00794  -0.00544  -0.00107   0.03470   0.04219
     Eigenvalues ---    0.06021   0.06121   0.07226   0.11452   0.13388
     Eigenvalues ---    0.15553   0.16102   0.16894   0.19221   0.20603
     Eigenvalues ---    0.22978   0.23098   0.29382   0.30307   0.31443
     Eigenvalues ---    0.32677   0.34542   0.36037   0.37523   0.42387
     Eigenvalues ---    0.44012   0.60696
 Eigenvalue     1 is  -7.94D-03 should be greater than     0.000000 Eigenvector:
                          D7        D8        D9        D10       D12
   1                   -0.61119  -0.51642  -0.38692  -0.29215  -0.14962
                          D5        D1        D3        D4        D2
   1                    0.14522   0.14362   0.14182  -0.09096  -0.08915
 Eigenvalue     2 is  -5.44D-03 should be greater than     0.000000 Eigenvector:
                          D9        D10       D1        D3        D5
   1                   -0.46772  -0.43900  -0.34053  -0.32147  -0.31998
                          D11       D12       D6        D4        D2
   1                   -0.29025   0.22194   0.20839   0.20690   0.18784
 Eigenvalue     3 is  -1.07D-03 should be greater than     0.000000 Eigenvector:
                          D2        D6        D4        D1        D5
   1                   -0.47436  -0.43840  -0.43585  -0.37519  -0.33923
                          D3        D11       D7        D10       D8
   1                   -0.33669   0.10568  -0.05240   0.04960  -0.04596
 RFO step:  Lambda=-2.82946188D-02 EMin=-7.93536487D-03
 Linear search not attempted -- first point.
 Maximum step size (   0.300) exceeded in Quadratic search.
    -- Step size scaled by   0.906
 Iteration  1 RMS(Cart)=  0.12197188 RMS(Int)=  0.06814063
 Iteration  2 RMS(Cart)=  0.07393894 RMS(Int)=  0.00794118
 Iteration  3 RMS(Cart)=  0.00807117 RMS(Int)=  0.00095608
 Iteration  4 RMS(Cart)=  0.00009924 RMS(Int)=  0.00095176
 Iteration  5 RMS(Cart)=  0.00000003 RMS(Int)=  0.00095176
 ITry= 1 IFail=0 DXMaxC= 5.83D-01 DCOld= 1.00D+10 DXMaxT= 3.00D-01 DXLimC= 3.00D+00 Rises=F
 Variable       Old X    -DE/DX   Delta X   Delta X   Delta X     New X
                                 (Linear)    (Quad)   (Total)
    R1        2.77578  -0.00968   0.00000  -0.02053  -0.02053   2.75525
    R2        2.09700  -0.01235   0.00000  -0.03448  -0.03448   2.06252
    R3        2.09797  -0.00823   0.00000  -0.02044  -0.02044   2.07753
    R4        2.09777  -0.00671   0.00000  -0.01739  -0.01739   2.08039
    R5        2.66098   0.00377   0.00000  -0.00616  -0.00616   2.65482
    R6        2.66416  -0.04835   0.00000  -0.15276  -0.15276   2.51140
    R7        1.97457  -0.02459   0.00000  -0.05833  -0.05833   1.91624
    R8        1.97520  -0.01779   0.00000  -0.04384  -0.04384   1.93136
    R9        2.40810  -0.03990   0.00000  -0.02988  -0.02988   2.37822
   R10        1.97112  -0.00487   0.00000  -0.00361  -0.00361   1.96752
    A1        1.95066  -0.00739   0.00000  -0.04651  -0.04627   1.90438
    A2        1.91498   0.00339   0.00000   0.01141   0.01122   1.92620
    A3        1.91466   0.00542   0.00000   0.03969   0.03973   1.95439
    A4        1.88504   0.00137   0.00000   0.01230   0.01231   1.89735
    A5        1.88277   0.00092   0.00000   0.00066   0.00110   1.88387
    A6        1.91515  -0.00389   0.00000  -0.01839  -0.01874   1.89640
    A7        2.10966   0.01325   0.00000   0.03656   0.03503   2.14468
    A8        2.11912   0.00527   0.00000   0.03545   0.03379   2.15290
    A9        2.05428  -0.01852   0.00000  -0.07355  -0.07475   1.97953
   A10        1.92405  -0.01198   0.00000  -0.00954  -0.00969   1.91436
   A11        1.86925   0.00481   0.00000   0.03650   0.03634   1.90559
   A12        1.86287   0.00087   0.00000   0.02985   0.02954   1.89241
   A13        2.15376  -0.03737   0.00000  -0.04736  -0.04736   2.10639
   A14        2.14904  -0.04087   0.00000  -0.18394  -0.18394   1.96511
    D1        0.01338  -0.00011   0.00000  -0.02873  -0.02718  -0.01380
    D2        3.13713  -0.00049   0.00000  -0.13412  -0.13532   3.00180
    D3       -2.07717   0.00065   0.00000  -0.02189  -0.02037  -2.09754
    D4        1.04658   0.00027   0.00000  -0.12728  -0.12852   0.91806
    D5        2.10087  -0.00009   0.00000  -0.03131  -0.03024   2.07063
    D6       -1.05856  -0.00046   0.00000  -0.13669  -0.13839  -1.19695
    D7        0.03345   0.00066   0.00000   0.37830   0.37998   0.41343
    D8       -1.98685   0.00317   0.00000   0.32750   0.32892  -1.65793
    D9       -3.09095   0.00080   0.00000   0.47884   0.47741  -2.61353
   D10        1.17194   0.00331   0.00000   0.42804   0.42636   1.59830
   D11        0.01437   0.00032   0.00000   0.11184   0.11026   0.12463
   D12        3.13867   0.00026   0.00000   0.01072   0.01230  -3.13221
   D13        0.00040  -0.00206   0.00000  -0.02254  -0.02254  -0.02214
         Item               Value     Threshold  Converged?
 Maximum Force            0.048355     0.000450     NO 
 RMS     Force            0.015743     0.000300     NO 
 Maximum Displacement     0.582970     0.001800     NO 
 RMS     Displacement     0.174379     0.001200     NO 
 Predicted change in Energy=-1.956907D-02
 Lowest energy point so far.  Saving SCF results.
 GradGradGradGradGradGradGradGradGradGradGradGradGradGradGradGradGradGrad

 Leave Link  103 at Fri Sep 10 19:30:33 2021, MaxMem= 24159191040 cpu:         3.1
 (Enter /public/home/users/caep010/software/Gaussian09/g09/l202.exe)
                          Input orientation:                          
 ---------------------------------------------------------------------
 Center     Atomic      Atomic             Coordinates (Angstroms)
 Number     Number       Type             X           Y           Z
 ---------------------------------------------------------------------
      1          6           0       -0.408267   -0.609690   -0.700401
      2          7           0        0.068062    0.333147    0.304573
      3          7           0       -0.586978    1.543708    0.585856
      4          7           0        1.073663    0.071762    1.133199
      5          7           0        1.761256   -0.973729    0.999074
      6          1           0       -1.323191   -0.220364   -1.150485
      7          1           0       -0.628902   -1.582481   -0.238187
      8          1           0        0.327676   -0.760947   -1.505060
      9          1           0       -1.562064    1.475169    0.316095
     10          1           0       -0.153714    2.293872    0.043563
     11          1           0        1.432458   -1.570447    0.211773
 ---------------------------------------------------------------------
                    Distance matrix (angstroms):
                    1          2          3          4          5
     1  C    0.000000
     2  N    1.458013   0.000000
     3  N    2.514661   1.404869   0.000000
     4  N    2.454095   1.328977   2.285594   0.000000
     5  N    2.779850   2.248814   3.467339   1.258501   0.000000
     6  H    1.091438   2.087858   2.582410   3.323472   3.834316
     7  H    1.099384   2.109497   3.233243   2.741523   2.759393
     8  H    1.100894   2.130543   3.243449   2.865365   2.893288
     9  H    2.590588   1.990390   1.014032   3.095846   4.184258
    10  H    3.008147   1.990415   1.022030   2.762523   3.906062
    11  H    2.267903   2.343898   3.730419   1.916928   1.041165
                    6          7          8          9         10
     6  H    0.000000
     7  H    1.780362   0.000000
     8  H    1.772940   1.787437   0.000000
     9  H    2.254495   3.244571   3.447888   0.000000
    10  H    3.019074   3.915520   3.458596   1.651665   0.000000
    11  H    3.357391   2.109933   2.196213   4.272449   4.180573
                   11
    11  H    0.000000
 Stoichiometry    CH6N4
 Framework group  C1[X(CH6N4)]
 Deg. of freedom    27
 Full point group                 C1      NOp   1
 RotChk:  IX=0 Diff= 1.01D-01
 Largest Abelian subgroup         C1      NOp   1
 Largest concise Abelian subgroup C1      NOp   1
                         Standard orientation:                         
 ---------------------------------------------------------------------
 Center     Atomic      Atomic             Coordinates (Angstroms)
 Number     Number       Type             X           Y           Z
 ---------------------------------------------------------------------
      1          6           0       -0.314150    1.413013    0.011160
      2          7           0       -0.350540   -0.044539    0.015853
      3          7           0       -1.546718   -0.777847   -0.055371
      4          7           0        0.738737   -0.802838   -0.052234
      5          7           0        1.885131   -0.287200    0.008774
      6          1           0       -1.333188    1.795686   -0.068593
      7          1           0        0.267928    1.778389   -0.846937
      8          1           0        0.128456    1.817080    0.934630
      9          1           0       -2.268912   -0.212215   -0.487524
     10          1           0       -1.848867   -1.020194    0.890419
     11          1           0        1.853217    0.750150    0.091891
 ---------------------------------------------------------------------
 Rotational constants (GHZ):      8.9575176      4.5759487      3.1311571
 Leave Link  202 at Fri Sep 10 19:30:33 2021, MaxMem= 24159191040 cpu:         0.2
 (Enter /public/home/users/caep010/software/Gaussian09/g09/l301.exe)
 Standard basis: 6-31G(d,p) (6D, 7F)
 Ernie: Thresh=  0.10000D-02 Tol=  0.10000D-05 Strict=F.
 There are   105 symmetry adapted cartesian basis functions of A   symmetry.
 There are   105 symmetry adapted basis functions of A   symmetry.
   105 basis functions,   182 primitive gaussians,   105 cartesian basis functions
    20 alpha electrons       20 beta electrons
       nuclear repulsion energy       185.3200187909 Hartrees.
 IExCor=  402 DFT=T Ex+Corr=B3LYP ExCW=0 ScaHFX=  0.200000
 ScaDFX=  0.800000  0.720000  1.000000  0.810000 ScalE2=  1.000000  1.000000
 IRadAn=      0 IRanWt=     -1 IRanGd=            0 ICorTp=0 IEmpDi=  4
 NAtoms=   11 NActive=   11 NUniq=   11 SFac= 1.00D+00 NAtFMM=   60 NAOKFM=F Big=F
 Integral buffers will be    131072 words long.
 Raffenetti 2 integral format.
 Two-electron integral symmetry is turned on.
 Leave Link  301 at Fri Sep 10 19:30:33 2021, MaxMem= 24159191040 cpu:         1.7
 (Enter /public/home/users/caep010/software/Gaussian09/g09/l302.exe)
 NPDir=0 NMtPBC=     1 NCelOv=     1 NCel=       1 NClECP=     1 NCelD=      1
         NCelK=      1 NCelE2=     1 NClLst=     1 CellRange=     0.0.
 One-electron integrals computed using PRISM.
 NBasis=   105 RedAO= T EigKep=  3.57D-03  NBF=   105
 NBsUse=   105 1.00D-06 EigRej= -1.00D+00 NBFU=   105
 Precomputing XC quadrature grid using
 IXCGrd= 4 IRadAn=           0 IRanWt=          -1 IRanGd=           0 AccXCQ= 0.00D+00.
 Generated NRdTot=       0 NPtTot=           0 NUsed=           0 NTot=          32
 NSgBfM=   105   105   105   105   105 MxSgAt=    11 MxSgA2=    11.
 Leave Link  302 at Fri Sep 10 19:30:33 2021, MaxMem= 24159191040 cpu:        11.0
 (Enter /public/home/users/caep010/software/Gaussian09/g09/l303.exe)
 DipDrv:  MaxL=1.
 Leave Link  303 at Fri Sep 10 19:30:33 2021, MaxMem= 24159191040 cpu:         1.5
 (Enter /public/home/users/caep010/software/Gaussian09/g09/l401.exe)
 Initial guess from the checkpoint file:  "/public/home/users/caep010/.cache/gau_scr/Gau-2301.chk"
 B after Tr=     0.000000    0.000000    0.000000
         Rot=    0.999787    0.010313    0.004525    0.017317 Ang=   2.37 deg.
 Guess basis will be translated and rotated to current coordinates.
 JPrj=2 DoOrth=T DoCkMO=T.
 Generating alternative initial guess.
 ExpMin= 1.61D-01 ExpMax= 4.17D+03 ExpMxC= 6.27D+02 IAcc=1 IRadAn=         1 AccDes= 0.00D+00
 Harris functional with IExCor=  402 and IRadAn=       1 diagonalized for initial guess.
 HarFok:  IExCor=  402 AccDes= 0.00D+00 IRadAn=         1 IDoV= 1 UseB2=F ITyADJ=14
 ICtDFT=  3500011 ScaDFX=  1.000000  1.000000  1.000000  1.000000
 FoFCou: FMM=F IPFlag=           0 FMFlag=      100000 FMFlg1=           0
         NFxFlg=           0 DoJE=T BraDBF=F KetDBF=T FulRan=T
         wScrn=  0.000000 ICntrl=     500 IOpCl=  0 I1Cent=   200000004 NGrid=           0
         NMat0=    1 NMatS0=      1 NMatT0=    0 NMatD0=    1 NMtDS0=    0 NMtDT0=    0
 Petite list used in FoFCou.
 Harris En= -260.597103102655    
 Leave Link  401 at Fri Sep 10 19:30:34 2021, MaxMem= 24159191040 cpu:        11.5
 (Enter /public/home/users/caep010/software/Gaussian09/g09/l502.exe)
 Closed shell SCF:
 Using DIIS extrapolation, IDIIS=  1040.
 Integral symmetry usage will be decided dynamically.
 Keep R1 ints in memory in canonical form, NReq=16470489.
 IVT=       55780 IEndB=       55780 NGot= 24159191040 MDV= 24143647866
 LenX= 24143647866 LenY= 24143636400
 Requested convergence on RMS density matrix=1.00D-08 within 128 cycles.
 Requested convergence on MAX density matrix=1.00D-06.
 Requested convergence on             energy=1.00D-06.
 No special actions if energy rises.
 FoFCou: FMM=F IPFlag=           0 FMFlag=           0 FMFlg1=           0
         NFxFlg=           0 DoJE=F BraDBF=F KetDBF=F FulRan=T
         wScrn=  0.000000 ICntrl=     600 IOpCl=  0 I1Cent=           0 NGrid=           0
         NMat0=    1 NMatS0=   5565 NMatT0=    0 NMatD0=    1 NMtDS0=    0 NMtDT0=    0
 Symmetry not used in FoFCou.
 Integral accuracy reduced to 1.0D-05 until final iterations.

 Cycle   1  Pass 0  IDiag  1:
 E= -260.574163061665    
 DIIS: error= 1.46D-02 at cycle   1 NSaved=   1.
 NSaved= 1 IEnMin= 1 EnMin= -260.574163061665     IErMin= 1 ErrMin= 1.46D-02
 ErrMax= 1.46D-02  0.00D+00 EMaxC= 1.00D-01 BMatC= 2.36D-02 BMatP= 2.36D-02
 IDIUse=3 WtCom= 8.54D-01 WtEn= 1.46D-01
 Coeff-Com:  0.100D+01
 Coeff-En:   0.100D+01
 Coeff:      0.100D+01
 Recover alternate guess density for next cycle.
 RMSDP=4.54D-03 MaxDP=8.26D-02              OVMax= 0.00D+00

 Cycle   2  Pass 0  IDiag  1:
 E= -260.479796151695     Delta-E=        0.094366909970 Rises=F Damp=F
 Switch densities from cycles 1 and 2 for lowest energy.
 DIIS: error= 2.28D-02 at cycle   2 NSaved=   2.
 NSaved= 2 IEnMin= 1 EnMin= -260.574163061665     IErMin= 1 ErrMin= 1.46D-02
 ErrMax= 2.28D-02  0.00D+00 EMaxC= 1.00D+00 BMatC= 1.47D-01 BMatP= 2.36D-02
 IDIUse=1 WtCom= 1.00D+00 WtEn= 0.00D+00
 Coeff-Com:  0.870D+00 0.130D+00
 Coeff:      0.870D+00 0.130D+00
 Gap=     0.221 Goal=   None    Shift=    0.000
 RMSDP=2.83D-03 MaxDP=6.09D-02 DE= 9.44D-02 OVMax= 1.42D-01

 Cycle   3  Pass 0  IDiag  1:
 E= -260.604469641034     Delta-E=       -0.124673489339 Rises=F Damp=F
 DIIS: error= 7.20D-03 at cycle   3 NSaved=   3.
 NSaved= 3 IEnMin= 3 EnMin= -260.604469641034     IErMin= 3 ErrMin= 7.20D-03
 ErrMax= 7.20D-03  0.00D+00 EMaxC= 1.00D+00 BMatC= 1.04D-02 BMatP= 2.36D-02
 IDIUse=1 WtCom= 1.00D+00 WtEn= 0.00D+00
 Coeff-Com:  0.789D-01 0.174D+00 0.747D+00
 Coeff:      0.789D-01 0.174D+00 0.747D+00
 Gap=     0.223 Goal=   None    Shift=    0.000
 RMSDP=1.36D-03 MaxDP=3.54D-02 DE=-1.25D-01 OVMax= 5.80D-02

 Cycle   4  Pass 0  IDiag  1:
 E= -260.608980460449     Delta-E=       -0.004510819415 Rises=F Damp=F
 DIIS: error= 5.34D-03 at cycle   4 NSaved=   4.
 NSaved= 4 IEnMin= 4 EnMin= -260.608980460449     IErMin= 4 ErrMin= 5.34D-03
 ErrMax= 5.34D-03  0.00D+00 EMaxC= 1.00D+00 BMatC= 4.69D-03 BMatP= 1.04D-02
 IDIUse=1 WtCom= 1.00D+00 WtEn= 0.00D+00
 Coeff-Com: -0.177D-01 0.784D-01 0.489D+00 0.450D+00
 Coeff:     -0.177D-01 0.784D-01 0.489D+00 0.450D+00
 Gap=     0.226 Goal=   None    Shift=    0.000
 RMSDP=7.00D-04 MaxDP=1.66D-02 DE=-4.51D-03 OVMax= 3.35D-02

 Cycle   5  Pass 0  IDiag  1:
 E= -260.613083759022     Delta-E=       -0.004103298572 Rises=F Damp=F
 DIIS: error= 8.63D-04 at cycle   5 NSaved=   5.
 NSaved= 5 IEnMin= 5 EnMin= -260.613083759022     IErMin= 5 ErrMin= 8.63D-04
 ErrMax= 8.63D-04  0.00D+00 EMaxC= 1.00D+00 BMatC= 1.85D-04 BMatP= 4.69D-03
 IDIUse=1 WtCom= 1.00D+00 WtEn= 0.00D+00
[...]
     25 -0.113051D-03  0.964178D-03 -0.347549D-02  0.773183D-03  0.141820D-01
     26  0.652062D-03 -0.655737D-03 -0.654321D-02 -0.127050D-02  0.881447D-02
     27 -0.427226D-03  0.830534D-03  0.222549D-02  0.259026D-02 -0.325125D-02
     28  0.337887D-03 -0.789381D-03 -0.842221D-03  0.546582D-03 -0.861881D-02
     29 -0.536499D-03  0.731377D-03 -0.103251D-01 -0.226013D-02 -0.315227D-02
     30  0.228614D-03 -0.888538D-03 -0.133928D-01 -0.430381D-02 -0.851984D-02
     31  0.552621D-02  0.641286D-02  0.121788D-01  0.325135D-02  0.185082D-02
     32 -0.789441D-02 -0.506648D-02  0.102845D-01  0.289387D-02  0.100299D-02
     33  0.934411D-02  0.481393D-02 -0.102722D-01 -0.295150D-02 -0.162696D-02
     34 -0.407650D-02 -0.666540D-02 -0.121666D-01 -0.330898D-02 -0.247480D-02
     35  0.323406D-02 -0.758482D-03  0.409478D-02  0.156139D-02 -0.117511D-02
     36  0.114549D-02  0.126669D-02 -0.929159D-02 -0.165413D-02  0.738540D-03
     37 -0.121292D-02 -0.561654D-03 -0.655053D-02 -0.908857D-03  0.400079D-03
               26            27            28            29            30 
     26  0.153516D-01
     27 -0.878682D-02  0.154803D-01
     28 -0.224966D-02  0.994475D-02  0.163139D-01
     29 -0.840082D-02 -0.318904D-02 -0.843759D-02  0.157778D-01
     30 -0.186365D-02 -0.872462D-02 -0.206843D-02  0.105293D-01  0.171855D-01
     31 -0.241930D-02  0.173572D-02 -0.253439D-02  0.130116D-02 -0.296896D-02
     32 -0.238764D-02  0.121662D-02 -0.217401D-02  0.692323D-03 -0.269830D-02
     33  0.296264D-02 -0.179446D-02  0.279514D-02 -0.121604D-02  0.337357D-02
     34  0.299429D-02 -0.231357D-02  0.315552D-02 -0.182487D-02  0.364422D-02
     35  0.161084D-02 -0.113480D-02  0.165115D-02 -0.140108D-02  0.138487D-02
     36  0.942223D-03  0.177017D-02  0.197385D-02  0.156510D-02  0.176878D-02
     37  0.112601D-02  0.120451D-02  0.193044D-02  0.543542D-03  0.126947D-02
               31            32            33            34            35 
     31  0.159217D-01
     32  0.340349D-03  0.150292D-01
     33  0.338719D-02 -0.118773D-01  0.156380D-01
     34 -0.121941D-01  0.281157D-02  0.373443D-03  0.153791D-01
     35  0.175831D-02  0.156712D-02 -0.237968D-03 -0.429157D-03  0.202098D-01
     36  0.303341D-03 -0.696124D-03  0.210630D-02  0.110684D-02  0.827706D-02
     37 -0.900970D-03 -0.566804D-03 -0.481490D-03 -0.147324D-03  0.484550D-02
               36            37 
     36  0.234297D-01
     37  0.372814D-02  0.785187D-01
 Leave Link  716 at Fri Sep 10 19:31:28 2021, MaxMem= 24159191040 cpu:         1.5
 (Enter /public/home/users/caep010/software/Gaussian09/g09/l103.exe)

 GradGradGradGradGradGradGradGradGradGradGradGradGradGradGradGradGradGrad
 Berny optimization.
 Red2BG is reusing G-inverse.
 Internal  Forces:  Max     0.000052649 RMS     0.000018318
 Search for a local minimum.
 Step number   1 out of a maximum of    2
 All quantities printed in internal units (Hartrees-Bohrs-Radians)
 Second derivative matrix not updated -- analytic derivatives used.
 ITU=  0
     Eigenvalues ---    0.00174   0.00535   0.00682   0.02898   0.03681
     Eigenvalues ---    0.06035   0.06260   0.07794   0.12408   0.14876
     Eigenvalues ---    0.15373   0.16410   0.20382   0.21329   0.24563
     Eigenvalues ---    0.25169   0.29998   0.31826   0.33362   0.34741
     Eigenvalues ---    0.35341   0.35670   0.42229   0.44093   0.45434
     Eigenvalues ---    0.57757   0.78738
 Angle between quadratic step and forces=  48.31 degrees.
 Linear search not attempted -- first point.
 Iteration  1 RMS(Cart)=  0.00019598 RMS(Int)=  0.00000002
 Iteration  2 RMS(Cart)=  0.00000002 RMS(Int)=  0.00000001
 ITry= 1 IFail=0 DXMaxC= 5.16D-04 DCOld= 1.00D+10 DXMaxT= 3.00D-01 DXLimC= 3.00D+00 Rises=F
 Variable       Old X    -DE/DX   Delta X   Delta X   Delta X     New X
                                 (Linear)    (Quad)   (Total)
    R1        2.76325  -0.00003   0.00000  -0.00011  -0.00011   2.76315
    R2        2.05960   0.00001   0.00000   0.00004   0.00004   2.05964
    R3        2.08130  -0.00000   0.00000   0.00001   0.00001   2.08131
    R4        2.06846  -0.00000   0.00000  -0.00001  -0.00001   2.06845
    R5        2.65212  -0.00003   0.00000  -0.00006  -0.00006   2.65206
    R6        2.58572  -0.00000   0.00000  -0.00010  -0.00010   2.58563
    R7        1.92848   0.00000   0.00000   0.00002   0.00002   1.92850
    R8        1.91930   0.00002   0.00000   0.00005   0.00005   1.91934
    R9        2.36220   0.00002   0.00000   0.00002   0.00002   2.36222
   R10        1.96370   0.00000   0.00000   0.00001   0.00001   1.96371
    A1        1.87785   0.00002   0.00000   0.00013   0.00013   1.87798
    A2        1.96447  -0.00003   0.00000  -0.00018  -0.00018   1.96429
    A3        1.94069   0.00001   0.00000   0.00011   0.00011   1.94080
    A4        1.90466  -0.00000   0.00000  -0.00009  -0.00009   1.90457
    A5        1.87676  -0.00000   0.00000   0.00002   0.00002   1.87679
    A6        1.89711   0.00001   0.00000   0.00001   0.00001   1.89712
    A7        2.07284  -0.00005   0.00000  -0.00018  -0.00018   2.07266
    A8        2.12370   0.00002   0.00000   0.00011   0.00011   2.12380
    A9        1.94309   0.00003   0.00000   0.00015   0.00015   1.94323
   A10        1.93385  -0.00001   0.00000  -0.00010  -0.00010   1.93375
   A11        1.90023  -0.00001   0.00000  -0.00006  -0.00006   1.90017
   A12        1.90272   0.00000   0.00000  -0.00010  -0.00010   1.90262
   A13        2.10093   0.00005   0.00000   0.00008   0.00008   2.10101
   A14        1.96917   0.00003   0.00000   0.00009   0.00009   1.96926
    D1        0.60911  -0.00001   0.00000  -0.00021  -0.00021   0.60890
    D2       -3.13065  -0.00001   0.00000  -0.00003  -0.00003  -3.13067
    D3       -1.48985  -0.00000   0.00000  -0.00008  -0.00008  -1.48993
    D4        1.05358   0.00000   0.00000   0.00010   0.00010   1.05368
    D5        2.66000   0.00000   0.00000  -0.00004  -0.00004   2.65996
    D6       -1.07975   0.00000   0.00000   0.00014   0.00014  -1.07961
    D7        0.85962  -0.00000   0.00000  -0.00011  -0.00011   0.85952
    D8       -1.23278   0.00001   0.00000   0.00011   0.00011  -1.23266
    D9       -1.74158  -0.00001   0.00000  -0.00027  -0.00027  -1.74185
   D10        2.44920   0.00000   0.00000  -0.00005  -0.00005   2.44915
   D11        0.25970   0.00001   0.00000  -0.00004  -0.00004   0.25966
   D12        2.84277  -0.00001   0.00000   0.00003   0.00003   2.84280
   D13       -0.04460  -0.00001   0.00000  -0.00008  -0.00008  -0.04468
         Item               Value     Threshold  Converged?
 Maximum Force            0.000053     0.000450     YES
 RMS     Force            0.000018     0.000300     YES
 Maximum Displacement     0.000516     0.001800     YES
 RMS     Displacement     0.000196     0.001200     YES
 Predicted change in Energy=-2.311472D-08
 Optimization completed.
    -- Stationary point found.
                           ----------------------------
                           !   Optimized Parameters   !
                           ! (Angstroms and Degrees)  !
 --------------------------                            --------------------------
 ! Name  Definition              Value          Derivative Info.                !
 --------------------------------------------------------------------------------
 ! R1    R(1,2)                  1.4623         -DE/DX =    0.0                 !
 ! R2    R(1,6)                  1.0899         -DE/DX =    0.0                 !
 ! R3    R(1,7)                  1.1014         -DE/DX =    0.0                 !
 ! R4    R(1,8)                  1.0946         -DE/DX =    0.0                 !
 ! R5    R(2,3)                  1.4034         -DE/DX =    0.0                 !
 ! R6    R(2,4)                  1.3683         -DE/DX =    0.0                 !
 ! R7    R(3,9)                  1.0205         -DE/DX =    0.0                 !
 ! R8    R(3,10)                 1.0156         -DE/DX =    0.0                 !
 ! R9    R(4,5)                  1.25           -DE/DX =    0.0                 !
 ! R10   R(5,11)                 1.0391         -DE/DX =    0.0                 !
 ! A1    A(2,1,6)              107.593          -DE/DX =    0.0                 !
 ! A2    A(2,1,7)              112.5558         -DE/DX =    0.0                 !
 ! A3    A(2,1,8)              111.1935         -DE/DX =    0.0                 !
 ! A4    A(6,1,7)              109.1288         -DE/DX =    0.0                 !
 ! A5    A(6,1,8)              107.5306         -DE/DX =    0.0                 !
 ! A6    A(7,1,8)              108.6962         -DE/DX =    0.0                 !
 ! A7    A(1,2,3)              118.7649         -DE/DX =   -0.0001              !
 ! A8    A(1,2,4)              121.6788         -DE/DX =    0.0                 !
 ! A9    A(3,2,4)              111.3308         -DE/DX =    0.0                 !
 ! A10   A(2,3,9)              110.8015         -DE/DX =    0.0                 !
 ! A11   A(2,3,10)             108.8749         -DE/DX =    0.0                 !
 ! A12   A(9,3,10)             109.0177         -DE/DX =    0.0                 !
 ! A13   A(2,4,5)              120.3744         -DE/DX =    0.0                 !
 ! A14   A(4,5,11)             112.8251         -DE/DX =    0.0                 !
 ! D1    D(6,1,2,3)             34.8994         -DE/DX =    0.0                 !
 ! D2    D(6,1,2,4)           -179.3728         -DE/DX =    0.0                 !
 ! D3    D(7,1,2,3)            -85.3623         -DE/DX =    0.0                 !
 ! D4    D(7,1,2,4)             60.3656         -DE/DX =    0.0                 !
 ! D5    D(8,1,2,3)            152.4069         -DE/DX =    0.0                 !
 ! D6    D(8,1,2,4)            -61.8652         -DE/DX =    0.0                 !
 ! D7    D(1,2,3,9)             49.2529         -DE/DX =    0.0                 !
 ! D8    D(1,2,3,10)           -70.6329         -DE/DX =    0.0                 !
 ! D9    D(4,2,3,9)            -99.7854         -DE/DX =    0.0                 !
 ! D10   D(4,2,3,10)           140.3288         -DE/DX =    0.0                 !
 ! D11   D(1,2,4,5)             14.8798         -DE/DX =    0.0                 !
 ! D12   D(3,2,4,5)            162.8784         -DE/DX =    0.0                 !
 ! D13   D(2,4,5,11)            -2.5553         -DE/DX =    0.0                 !
 --------------------------------------------------------------------------------
 GradGradGradGradGradGradGradGradGradGradGradGradGradGradGradGradGradGrad

 Leave Link  103 at Fri Sep 10 19:31:28 2021, MaxMem= 24159191040 cpu:         1.0
 (Enter /public/home/users/caep010/software/Gaussian09/g09/l9999.exe)
 1\1\GINC-B1937\Freq\RB3LYP\6-31G(d,p)\C1H6N4\ROOT\10-Sep-2021\0\\#P Ge
 om=AllCheck Guess=TCheck SCRF=Check GenChk RB3LYP/6-31G(d,p) Freq\\Fra
 g_406\\0,1\C,-0.3489391226,-0.5334940593,-0.757959127\N,0.2523285395,0
 .4534309765,0.1379394762\N,-0.5203134853,1.5498079891,0.5510090991\N,1
 .1599045212,0.0945666076,1.0969924494\N,1.7083909045,-1.028075094,1.05
 9662082\H,-1.0220161577,-0.0014054202,-1.4300591222\H,-0.9166709433,-1
 .3058754873,-0.2156151526\H,0.4115283194,-1.0243473028,-1.3734747595\H
 ,-1.4309528013,1.2426501824,0.8942705311\H,-0.657430222,2.1718199355,-
 0.2400920891\H,1.3641704476,-1.6190783276,0.2773266125\\Version=ES64L-
 G09RevE.01\State=1-A\HF=-260.6178766\RMSD=1.870e-09\RMSF=1.402e-05\Zer
 oPoint=0.0904237\Thermal=0.0963141\Dipole=-1.5663726,-0.111069,-1.4163
 9\DipoleDeriv=0.1451278,0.1989198,-0.099229,0.1936399,0.2023939,-0.017
 0597,0.0326069,-0.0430041,0.2478521,-0.2843968,0.0121757,-0.0979785,0.
 1231915,-0.1520176,0.2389214,-0.4966408,0.583457,-0.4032437,-0.0638935
 ,-0.0601909,-0.2125749,-0.1516838,-0.1544862,-0.1902266,-0.0997881,-0.
 2787977,-0.2372366,0.5485794,-0.4918024,0.4762578,-0.608533,0.2362126,
 -0.4968621,0.4748641,-0.5122468,0.1659983,-0.5682462,0.2169058,-0.0440
 659,0.526762,-0.4508546,0.5148532,0.120654,0.2096643,-0.0873228,0.0139
 882,0.0331117,-0.0701486,0.0506474,0.0317308,0.0776038,-0.0580192,0.04
 84416,0.0350104,-0.0371278,-0.056214,0.0042819,-0.1240921,-0.0560767,-
 0.0287603,0.0587793,0.0806367,-0.0573106,-0.0315968,0.0413347,0.083602
 4,0.0173791,-0.0213575,-0.091915,0.0461026,-0.0472623,0.0183535,-0.060
 7721,0.0825632,0.0837722,-0.0488761,0.0739961,0.0865038,0.0054849,0.05
 92123,0.2449671,0.123955,0.1439391,0.0167133,0.0436224,0.210819,0.0399
 289,0.001296,0.1411468,0.0712791,0.2143827,-0.1207428,-0.1406307,-0.02
 20574,0.0796403,-0.1329872,-0.0853397,-0.241248,0.0016532\Polar=41.623
 701,-11.3101837,45.378198,6.8778469,0.0092729,35.4785562\PG=C01 [X(C1H
 6N4)]\NImag=0\\0.56396660,-0.06522671,0.52255550,-0.01582270,-0.054671
 94,0.53096909,-0.10474885,-0.00784570,-0.01927838,0.41051847,-0.025301
 69,-0.13706332,-0.04071179,-0.14513291,0.50339774,-0.04926282,-0.05071
 854,-0.09141538,0.13992500,0.13406422,0.32434350,0.00286338,-0.0086891
 5,0.00064574,-0.12589433,0.10823122,0.03632732,0.52839115,0.02039512,-
 0.02598553,-0.01375355,0.04006285,-0.17021410,-0.05132602,-0.04601958,
 0.47864684,0.01842746,-0.01599332,-0.01302910,0.00523594,-0.03176356,-
 0.08425653,-0.11567992,-0.22255586,0.43598645,-0.01493332,-0.00007931,
 -0.03686878,-0.10775016,-0.00488408,-0.05340391,-0.03045207,0.02976063
 ,-0.01171651,0.29818032,-0.01615082,0.00751240,-0.00785354,0.03480473,
 -0.09892419,-0.03507690,0.02875325,-0.03297094,0.03644832,-0.23469875,
 0.68839044,-0.02366567,0.00577528,-0.03068881,-0.08633024,-0.05232518,
 -0.14387825,0.01413553,0.01357022,0.00417556,0.09255364,0.11401807,0.2
 7014036,0.00315741,0.00444560,0.00607904,-0.02861535,0.06385293,-0.038
 83272,0.00288831,0.00267755,-0.00789580,-0.17310540,0.16088824,-0.0105
 8485,0.28992731,-0.00210981,0.00648405,-0.00662891,0.04848947,-0.04247
 697,0.03848531,0.00395150,0.00558433,-0.00228407,0.20450904,-0.5061707
 7,-0.02613400,-0.19286233,0.65483180,0.00070350,0.00519078,-0.00201651
 ,-0.03885585,0.03824210,0.00948201,-0.00727327,0.00091439,-0.00048368,
 0.02005615,-0.07662748,-0.10639091,0.13289691,0.12430972,0.32104825,-0
 .15130237,0.08331753,-0.10464125,-0.01297655,0.00660940,-0.00882206,0.
 00115871,0.00165072,0.00233023,-0.00083367,-0.00023925,-0.00207692,0.0
 0086608,-0.00176203,-0.00097348,0.16294604,0.09062592,-0.11769712,0.09
 238393,-0.02005682,0.00895258,-0.02063179,-0.00071447,0.00171069,-0.00
 113782,-0.00175502,-0.00450187,-0.00356547,0.00092581,-0.00120498,-0.0
 0018220,-0.09080630,0.12828955,-0.10183730,0.08590723,-0.14714249,-0.0
 1819276,0.00766471,-0.01812479,0.00092160,0.00179923,0.00243140,-0.000
 70966,-0.00356014,-0.00195248,0.00102107,-0.00182118,0.00079330,0.1161
 1929,-0.08856833,0.16100323,-0.11283867,-0.08245221,0.06725248,-0.0110
 8388,-0.01298242,-0.00528391,0.00020499,-0.00028730,0.00025195,0.00551
 794,-0.00468606,0.00421882,-0.00004798,0.00371480,0.00032609,0.0122280
 0,0.01424372,-0.01014112,0.11921708,-0.08230291,-0.16240126,0.08997993
 ,-0.01915424,-0.02267051,-0.00344907,-0.00194532,0.00121266,0.00055872
 ,0.00600791,-0.00223687,0.00392373,-0.00239232,0.00264389,-0.00072356,
 -0.00847579,-0.00960988,0.00834777,0.09941193,0.18232480,0.06635375,0.
 08702391,-0.11954528,-0.01658761,-0.02000565,0.01194831,-0.00229616,0.
 00058372,0.00133047,0.00463344,-0.00391367,0.00160651,0.00063443,0.004
 23483,0.00089891,0.01114938,0.01131386,-0.00936354,-0.07043155,-0.0921
 2687,0.12235620,-0.18486937,0.07971605,0.10476063,0.01733885,-0.004497
 55,-0.00720740,0.00052668,-0.00236812,-0.00239341,-0.00016360,-0.00112
 502,0.00126481,-0.00186769,0.00234662,-0.00007781,-0.01310295,0.006826
 24,0.01156277,-0.01117041,0.00763126,0.00731512,0.19390190,0.07702114,
 -0.09647504,-0.06183938,0.01472292,-0.01562739,-0.01178726,-0.00093633
 ,-0.00385983,-0.00564736,0.00230750,-0.00116990,0.00054726,-0.00100857
 ,0.00175682,0.00126050,0.01103380,-0.00639793,-0.00920039,-0.01574380,
 0.01119802,0.01281400,-0.08777406,0.10952171,0.10298186,-0.06318791,-0
 .12806715,0.01007836,-0.01249492,-0.01186817,-0.00065358,-0.00109483,-
 0.00272713,0.00346363,-0.00240125,0.00298973,-0.00206300,0.00179214,-0
 .00007094,-0.01401590,0.00864537,0.01315285,0.01287552,-0.00675739,-0.
 00875776,-0.11123648,0.07328977,0.13841270,0.00169011,-0.00053514,-0.0
 0208988,-0.02263616,0.00272166,-0.00227305,-0.32509842,-0.09579521,0.1
 3433112,-0.00126272,-0.00166255,0.00667325,-0.00016703,0.00267993,-0.0
 0191354,0.00051462,-0.00001570,0.00033893,0.00010215,0.00119461,0.0010
 6701,-0.00009732,-0.00020013,-0.00020971,0.34383064,0.00254844,0.00394
 798,-0.00035769,0.04415970,-0.00067389,-0.01575564,-0.11159077,-0.0973
 2343,0.07180519,-0.00156456,0.00191235,-0.00571268,0.00016955,-0.00250
 945,0.00199381,-0.00010941,-0.00027753,-0.00031701,-0.00052417,-0.0002
 6999,0.00106221,-0.00046344,-0.00044594,0.00001499,0.09223153,0.102781
 76,0.00090775,0.00145738,0.00025493,0.01396219,-0.01022579,-0.00447981
 ,0.08553446,0.05124683,-0.05956074,-0.00240125,-0.00024815,0.00046273,
 0.00057561,0.00126258,-0.00089292,-0.00003622,-0.00004806,-0.00112278,
 0.00026779,0.00008965,-0.00003503,-0.00036448,0.00008501,-0.00020791,-
 0.12649683,-0.05421053,0.07813225,0.00011585,-0.00068469,-0.00021548,-
 0.00892113,0.01212666,-0.02061772,-0.05320806,0.05001653,-0.02343207,-
 0.00104744,0.00867708,-0.00018812,-0.00276526,0.00050015,-0.00107315,0
 .00027106,-0.00025124,-0.00034528,-0.00000392,0.00038296,0.00023154,-0
 .00009835,0.00024518,-0.00005168,0.00338765,-0.02528939,0.02822457,0.0
 6189778,-0.00038597,-0.00073752,0.00279583,0.01931933,-0.02636213,0.01
 725298,0.02928691,-0.15786209,0.16952626,-0.00244254,-0.00417959,-0.00
 210228,0.00175973,0.00011402,0.00081636,-0.00074967,-0.00051694,-0.001
 15343,-0.00055404,-0.00029121,-0.00024968,-0.00018093,0.00090355,0.000
 26540,-0.00033977,-0.00742164,0.01087390,-0.04561218,0.19633099,0.0008
 5471,-0.00147022,0.00109066,0.00419698,-0.02356263,0.01034780,-0.01234
 550,0.22086545,-0.28387599,-0.00132786,0.00103964,-0.00089162,0.001314
 20,-0.00075248,0.00027036,-0.00030565,-0.00003471,-0.00021915,-0.00035
 666,0.00009864,-0.00041215,0.00015374,0.00001294,0.00019750,-0.0095382
 5,0.00181912,-0.01281703,0.01743007,-0.19808356,0.28607412,-0.00310078
 ,-0.00196627,0.00017858,-0.00523091,-0.00074323,0.00945126,-0.00138033
 ,-0.00009318,0.00054100,0.02585012,0.02543915,0.00399976,-0.09027041,-
 0.06945735,-0.10381555,0.00023101,0.00097786,0.00126248,-0.00212531,-0
 .00035810,-0.00206934,-0.00039773,0.00033236,-0.00116902,-0.00026353,0
 .00043252,-0.00017362,0.00037181,-0.00010086,-0.00007578,0.07631606,0.
 00088728,-0.00014014,0.00065712,-0.00936932,0.00166218,-0.00105729,-0.
 00032726,0.00106139,0.00104349,0.00283918,-0.04766106,-0.04799497,-0.0
 3845619,-0.11905273,-0.09519442,-0.00046900,0.00125343,0.00090153,-0.0
 0014046,0.00010036,-0.00073665,-0.00011105,0.00059593,0.00192863,-0.00
 027924,0.00027978,-0.00028282,-0.00011104,0.00002255,0.00006781,0.0455
 3709,0.16187832,0.00035945,0.00068735,-0.00040997,0.00584636,0.0111185
 0,-0.00209870,0.00068377,-0.00024958,0.00000930,-0.01427888,-0.0218249
 0,0.00442718,-0.08314490,-0.13246394,-0.22263786,0.00127259,0.00182522
 ,0.00054445,0.00102059,0.00005846,-0.00002663,-0.00377749,0.00046490,-
 0.00305373,0.00011096,-0.00034178,0.00026631,0.00003732,0.00005820,0.0
 0023550,0.09187023,0.14066757,0.22274416\\-0.00002205,-0.00004228,-0.0
 0000054,0.00000449,0.00000258,-0.00003741,-0.00000728,0.00003106,0.000
 00875,0.00001300,0.00000178,0.00001230,-0.00000486,-0.00000205,-0.0000
 0433,0.00001153,0.00000316,0.00001150,-0.00000234,-0.00000879,-0.00000
 842,-0.00000096,-0.00000061,0.00000116,0.00000810,0.00000821,0.0000099
 5,0.00000717,-0.00000465,0.00001736,-0.00000680,0.00001159,-0.00001033
 \\\@


 A MAN IS EXACTLY AS GREAT AS THE TIDE SURGING
 BENEATH HIM.      - BISMARCK
 Job cpu time:       0 days  0 hours  3 minutes 38.8 seconds.
 File lengths (MBytes):  RWF=     18 Int=      0 D2E=      0 Chk=      2 Scr=      1
 Normal termination of Gaussian 09 at Fri Sep 10 19:31:28 2021.
