 Entering Gaussian System, Link 0=g09
 Input=B3LYP6-31Gdp.Frag_464.gjf
 Output=B3LYP6-31Gdp.Frag_464.log
 Initial command:
 /public/home/users/caep010/software/Gaussian09/g09/l1.exe "/public/home/users/caep010/.cache/gau_scr/Gau-159903.inp" -scrdir="/public/home/users/caep010/.cache/gau_scr/"
 Entering Link 1 = /public/home/users/caep010/software/Gaussian09/g09/l1.exe PID=    159904.
  
 Copyright (c) 1988,1990,1992,1993,1995,1998,2003,2009,2015,
            Gaussian, Inc.  All Rights Reserved.
  
 This is part of the Gaussian(R) 09 program.  It is based on
 the Gaussian(R) 03 system (copyright 2003, Gaussian, Inc.),
 the Gaussian(R) 98 system (copyright 1998, Gaussian, Inc.),
 the Gaussian(R) 94 system (copyright 1995, Gaussian, Inc.),
 the Gaussian 92(TM) system (copyright 1992, Gaussian, Inc.),
 the Gaussian 90(TM) system (copyright 1990, Gaussian, Inc.),
 the Gaussian 88(TM) system (copyright 1988, Gaussian, Inc.),
 the Gaussian 86(TM) system (copyright 1986, Carnegie Mellon
 University), and the Gaussian 82(TM) system (copyright 1983,
 Carnegie Mellon University). Gaussian is a federally registered
 trademark of Gaussian, Inc.
  
 This software contains proprietary and confidential information,
 including trade secrets, belonging to Gaussian, Inc.
  
 This software is provided under written license and may be
 used, copied, transmitted, or stored only in accord with that
 written license.
  
 The following legend is applicable only to US Government
 contracts under FAR:
  
                    RESTRICTED RIGHTS LEGEND
  
 Use, reproduction and disclosure by the US Government is
 subject to restrictions as set forth in subparagraphs (a)
 and (c) of the Commercial Computer Software - Restricted
 Rights clause in FAR 52.227-19.
  
 Gaussian, Inc.
 340 Quinnipiac St., Bldg. 40, Wallingford CT 06492
  
  
 ---------------------------------------------------------------
 Warning -- This program may not be used in any manner that
 competes with the business of Gaussian, Inc. or will provide
 assistance to any competitor of Gaussian, Inc.  The licensee
 of this program is prohibited from giving any competitor of
 Gaussian, Inc. access to this program.  By using this program,
 the user acknowledges that Gaussian, Inc. is engaged in the
 business of creating and licensing software in the field of
 computational chemistry and represents and warrants to the
 licensee that it is not a competitor of Gaussian, Inc. and that
 it will not use this program in any manner prohibited above.
 ---------------------------------------------------------------
  

 Cite this work as:
 Gaussian 09, Revision E.01,
 M. J. Frisch, G. W. Trucks, H. B. Schlegel, G. E. Scuseria, 
 M. A. Robb, J. R. Cheeseman, G. Scalmani, V. Barone, B. Mennucci, 
 G. A. Petersson, H. Nakatsuji, M. Caricato, X. Li, H. P. Hratchian, 
 A. F. Izmaylov, J. Bloino, G. Zheng, J. L. Sonnenberg, M. Hada, 
 M. Ehara, K. Toyota, R. Fukuda, J. Hasegawa, M. Ishida, T. Nakajima, 
 Y. Honda, O. Kitao, H. Nakai, T. Vreven, J. A. Montgomery, Jr., 
 J. E. Peralta, F. Ogliaro, M. Bearpark, J. J. Heyd, E. Brothers, 
 K. N. Kudin, V. N. Staroverov, T. Keith, R. Kobayashi, J. Normand, 
 K. Raghavachari, A. Rendell, J. C. Burant, S. S. Iyengar, J. Tomasi, 
 M. Cossi, N. Rega, J. M. Millam, M. Klene, J. E. Knox, J. B. Cross, 
 V. Bakken, C. Adamo, J. Jaramillo, R. Gomperts, R. E. Stratmann, 
 O. Yazyev, A. J. Austin, R. Cammi, C. Pomelli, J. W. Ochterski, 
 R. L. Martin, K. Morokuma, V. G. Zakrzewski, G. A. Voth, 
 P. Salvador, J. J. Dannenberg, S. Dapprich, A. D. Daniels, 
 O. Farkas, J. B. Foresman, J. V. Ortiz, J. Cioslowski, 
 and D. J. Fox, Gaussian, Inc., Wallingford CT, 2013.
 
 ******************************************
 Gaussian 09:  ES64L-G09RevE.01 30-Nov-2015
                 8-Sep-2022 
 ******************************************
 %nproc=32
 Will use up to   32 processors via shared memory.
 %mem=180GB
 %chk=B3LYP6-31Gdp.Frag_464.chk
 ----------------------------
 #P OPT Freq B3LYP/6-31G(d,p)
 ----------------------------
 1/14=-1,18=20,19=15,26=3,38=1/1,3;
 2/9=110,12=2,17=6,18=5,40=1/2;
 3/5=1,6=6,7=101,11=2,16=1,25=1,30=1,71=1,74=-5/1,2,3;
 4//1;
 5/5=2,38=5/2;
 6/7=2,8=2,9=2,10=2,28=1/1;
 7//1,2,3,16;
 1/14=-1,18=20,19=15,26=3/3(2);
 2/9=110/2;
 99//99;
 2/9=110/2;
 3/5=1,6=6,7=101,11=2,16=1,25=1,30=1,71=1,74=-5/1,2,3;
 4/5=5,16=3,69=1/1;
 5/5=2,38=5/2;
 7//1,2,3,16;
 1/14=-1,18=20,19=15,26=3/3(-5);
 2/9=110/2;
 6/7=2,8=2,9=2,10=2,19=2,28=1/1;
 99/9=1/99;
 Leave Link    1 at Thu Sep  8 15:00:55 2022, MaxMem= 24159191040 cpu:         2.2
 (Enter /public/home/users/caep010/software/Gaussian09/g09/l101.exe)
 --------
 Frag_464
 --------
 Symbolic Z-matrix:
 Charge =  0 Multiplicity = 1
 C                     1.98942  -0.40768   0.34693 
 C                     0.70348  -0.53829  -0.44145 
 N                     0.52844  -1.32566  -1.42596 
 C                    -0.45222   0.38199  -0.01061 
 C                    -0.84648   0.10629   1.44531 
 C                    -1.66441   0.25189  -0.93377 
 O                     0.03339   1.73638  -0.0191 
 H                     2.21195   0.64251   0.54931 
 H                     2.82388  -0.8615   -0.19436 
 H                     1.90035  -0.91334   1.31539 
 H                     1.37962  -1.86261  -1.61427 
 H                    -1.67129   0.76501   1.73047 
 H                    -0.01186   0.29997   2.12315 
 H                    -1.16796  -0.9319    1.56851 
 H                    -1.38603   0.44765  -1.97314 
 H                    -2.08098  -0.75681  -0.90127 
 H                    -2.42972   0.96939  -0.62436 
 H                     0.14054   1.99671  -0.94078 
 
 NAtoms=     18 NQM=       18 NQMF=       0 NMMI=      0 NMMIF=      0
                NMic=       0 NMicF=      0.
                    Isotopes and Nuclear Properties:
 (Nuclear quadrupole moments (NQMom) in fm**2, nuclear magnetic moments (NMagM)
  in nuclear magnetons)

  Atom         1           2           3           4           5           6           7           8           9          10
 IAtWgt=          12          12          14          12          12          12          16           1           1           1
 AtmWgt=  12.0000000  12.0000000  14.0030740  12.0000000  12.0000000  12.0000000  15.9949146   1.0078250   1.0078250   1.0078250
 NucSpn=           0           0           2           0           0           0           0           1           1           1
 AtZEff=   0.0000000   0.0000000   0.0000000   0.0000000   0.0000000   0.0000000   0.0000000   0.0000000   0.0000000   0.0000000
 NQMom=    0.0000000   0.0000000   2.0440000   0.0000000   0.0000000   0.0000000   0.0000000   0.0000000   0.0000000   0.0000000
 NMagM=    0.0000000   0.0000000   0.4037610   0.0000000   0.0000000   0.0000000   0.0000000   2.7928460   2.7928460   2.7928460
 AtZNuc=   6.0000000   6.0000000   7.0000000   6.0000000   6.0000000   6.0000000   8.0000000   1.0000000   1.0000000   1.0000000

  Atom        11          12          13          14          15          16          17          18
 IAtWgt=           1           1           1           1           1           1           1           1
 AtmWgt=   1.0078250   1.0078250   1.0078250   1.0078250   1.0078250   1.0078250   1.0078250   1.0078250
 NucSpn=           1           1           1           1           1           1           1           1
 AtZEff=   0.0000000   0.0000000   0.0000000   0.0000000   0.0000000   0.0000000   0.0000000   0.0000000
 NQMom=    0.0000000   0.0000000   0.0000000   0.0000000   0.0000000   0.0000000   0.0000000   0.0000000
 NMagM=    2.7928460   2.7928460   2.7928460   2.7928460   2.7928460   2.7928460   2.7928460   2.7928460
 AtZNuc=   1.0000000   1.0000000   1.0000000   1.0000000   1.0000000   1.0000000   1.0000000   1.0000000
 Leave Link  101 at Thu Sep  8 15:00:55 2022, MaxMem= 24159191040 cpu:        10.5
 (Enter /public/home/users/caep010/software/Gaussian09/g09/l103.exe)

 GradGradGradGradGradGradGradGradGradGradGradGradGradGradGradGradGradGrad
 Berny optimization.
 Initialization pass.
                           ----------------------------
                           !    Initial Parameters    !
                           ! (Angstroms and Degrees)  !
 --------------------------                            --------------------------
 ! Name  Definition              Value          Derivative Info.                !
 --------------------------------------------------------------------------------
 ! R1    R(1,2)                  1.514          estimate D2E/DX2                !
 ! R2    R(1,8)                  1.0924         estimate D2E/DX2                !
 ! R3    R(1,9)                  1.0933         estimate D2E/DX2                !
 ! R4    R(1,10)                 1.0961         estimate D2E/DX2                !
 ! R5    R(2,3)                  1.2727         estimate D2E/DX2                !
 ! R6    R(2,4)                  1.5389         estimate D2E/DX2                !
 ! R7    R(3,11)                 1.0239         estimate D2E/DX2                !
 ! R8    R(4,5)                  1.5333         estimate D2E/DX2                !
 ! R9    R(4,6)                  1.5292         estimate D2E/DX2                !
 ! R10   R(4,7)                  1.4388         estimate D2E/DX2                !
 ! R11   R(5,12)                 1.0934         estimate D2E/DX2                !
 ! R12   R(5,13)                 1.0925         estimate D2E/DX2                !
 ! R13   R(5,14)                 1.0938         estimate D2E/DX2                !
 ! R14   R(6,15)                 1.0937         estimate D2E/DX2                !
 ! R15   R(6,16)                 1.0918         estimate D2E/DX2                !
 ! R16   R(6,17)                 1.0937         estimate D2E/DX2                !
 ! R17   R(7,18)                 0.9637         estimate D2E/DX2                !
 ! A1    A(2,1,8)              110.6349         estimate D2E/DX2                !
 ! A2    A(2,1,9)              110.773          estimate D2E/DX2                !
 ! A3    A(2,1,10)             110.5636         estimate D2E/DX2                !
 ! A4    A(8,1,9)              109.5908         estimate D2E/DX2                !
 ! A5    A(8,1,10)             107.2382         estimate D2E/DX2                !
 ! A6    A(9,1,10)             107.9367         estimate D2E/DX2                !
 ! A7    A(1,2,3)              124.958          estimate D2E/DX2                !
 ! A8    A(1,2,4)              116.1355         estimate D2E/DX2                !
 ! A9    A(3,2,4)              118.8972         estimate D2E/DX2                !
 ! A10   A(2,3,11)             110.6324         estimate D2E/DX2                !
 ! A11   A(2,4,5)              110.5735         estimate D2E/DX2                !
 ! A12   A(2,4,6)              112.0498         estimate D2E/DX2                !
 ! A13   A(2,4,7)              107.9268         estimate D2E/DX2                !
 ! A14   A(5,4,6)              110.737          estimate D2E/DX2                !
 ! A15   A(5,4,7)              105.1671         estimate D2E/DX2                !
 ! A16   A(6,4,7)              110.1234         estimate D2E/DX2                !
 ! A17   A(4,5,12)             109.4673         estimate D2E/DX2                !
 ! A18   A(4,5,13)             111.1495         estimate D2E/DX2                !
 ! A19   A(4,5,14)             110.6822         estimate D2E/DX2                !
 ! A20   A(12,5,13)            107.9187         estimate D2E/DX2                !
 ! A21   A(12,5,14)            108.7077         estimate D2E/DX2                !
 ! A22   A(13,5,14)            108.8402         estimate D2E/DX2                !
 ! A23   A(4,6,15)             110.8985         estimate D2E/DX2                !
 ! A24   A(4,6,16)             111.2885         estimate D2E/DX2                !
 ! A25   A(4,6,17)             109.1518         estimate D2E/DX2                !
 ! A26   A(15,6,16)            106.904          estimate D2E/DX2                !
 ! A27   A(15,6,17)            109.2407         estimate D2E/DX2                !
 ! A28   A(16,6,17)            109.3099         estimate D2E/DX2                !
 ! A29   A(4,7,18)             107.3042         estimate D2E/DX2                !
 ! D1    D(8,1,2,3)            137.3505         estimate D2E/DX2                !
 ! D2    D(8,1,2,4)            -41.5227         estimate D2E/DX2                !
 ! D3    D(9,1,2,3)             15.6122         estimate D2E/DX2                !
 ! D4    D(9,1,2,4)           -163.2609         estimate D2E/DX2                !
 ! D5    D(10,1,2,3)          -103.9981         estimate D2E/DX2                !
 ! D6    D(10,1,2,4)            77.1288         estimate D2E/DX2                !
 ! D7    D(1,2,3,11)             0.0156         estimate D2E/DX2                !
 ! D8    D(4,2,3,11)           178.8601         estimate D2E/DX2                !
 ! D9    D(1,2,4,5)            -60.3876         estimate D2E/DX2                !
 ! D10   D(1,2,4,6)            175.5514         estimate D2E/DX2                !
 ! D11   D(1,2,4,7)             54.1409         estimate D2E/DX2                !
 ! D12   D(3,2,4,5)            120.6673         estimate D2E/DX2                !
 ! D13   D(3,2,4,6)             -3.3937         estimate D2E/DX2                !
 ! D14   D(3,2,4,7)           -124.8042         estimate D2E/DX2                !
 ! D15   D(2,4,5,12)          -179.6908         estimate D2E/DX2                !
 ! D16   D(2,4,5,13)            61.1895         estimate D2E/DX2                !
 ! D17   D(2,4,5,14)           -59.8849         estimate D2E/DX2                !
 ! D18   D(6,4,5,12)           -54.8797         estimate D2E/DX2                !
 ! D19   D(6,4,5,13)          -173.9994         estimate D2E/DX2                !
 ! D20   D(6,4,5,14)            64.9262         estimate D2E/DX2                !
 ! D21   D(7,4,5,12)            64.0532         estimate D2E/DX2                !
 ! D22   D(7,4,5,13)           -55.0666         estimate D2E/DX2                !
 ! D23   D(7,4,5,14)          -176.1409         estimate D2E/DX2                !
 ! D24   D(2,4,6,15)           -56.0074         estimate D2E/DX2                !
 ! D25   D(2,4,6,16)            62.8624         estimate D2E/DX2                !
 ! D26   D(2,4,6,17)          -176.4064         estimate D2E/DX2                !
 ! D27   D(5,4,6,15)          -179.9771         estimate D2E/DX2                !
 ! D28   D(5,4,6,16)           -61.1073         estimate D2E/DX2                !
 ! D29   D(5,4,6,17)            59.6239         estimate D2E/DX2                !
 ! D30   D(7,4,6,15)            64.1311         estimate D2E/DX2                !
 ! D31   D(7,4,6,16)          -176.9991         estimate D2E/DX2                !
 ! D32   D(7,4,6,17)           -56.2679         estimate D2E/DX2                !
 ! D33   D(2,4,7,18)            71.9624         estimate D2E/DX2                !
 ! D34   D(5,4,7,18)          -169.9797         estimate D2E/DX2                !
 ! D35   D(6,4,7,18)           -50.6368         estimate D2E/DX2                !
 --------------------------------------------------------------------------------
 Trust Radius=3.00D-01 FncErr=1.00D-07 GrdErr=1.00D-06
 Number of steps in this run=     91 maximum allowed number of steps=    108.
 GradGradGradGradGradGradGradGradGradGradGradGradGradGradGradGradGradGrad

 Leave Link  103 at Thu Sep  8 15:00:56 2022, MaxMem= 24159191040 cpu:         0.3
 (Enter /public/home/users/caep010/software/Gaussian09/g09/l202.exe)
                          Input orientation:                          
 ---------------------------------------------------------------------
 Center     Atomic      Atomic             Coordinates (Angstroms)
 Number     Number       Type             X           Y           Z
 ---------------------------------------------------------------------
      1          6           0        1.989423   -0.407684    0.346926
      2          6           0        0.703478   -0.538285   -0.441450
      3          7           0        0.528435   -1.325658   -1.425960
      4          6           0       -0.452220    0.381988   -0.010608
      5          6           0       -0.846483    0.106286    1.445313
      6          6           0       -1.664408    0.251893   -0.933770
      7          8           0        0.033388    1.736384   -0.019102
      8          1           0        2.211949    0.642505    0.549310
      9          1           0        2.823875   -0.861500   -0.194356
     10          1           0        1.900347   -0.913342    1.315385
     11          1           0        1.379618   -1.862609   -1.614265
     12          1           0       -1.671294    0.765011    1.730473
     13          1           0       -0.011862    0.299974    2.123148
     14          1           0       -1.167961   -0.931899    1.568510
     15          1           0       -1.386030    0.447650   -1.973140
     16          1           0       -2.080981   -0.756812   -0.901272
     17          1           0       -2.429716    0.969387   -0.624360
     18          1           0        0.140541    1.996710   -0.940781
 ---------------------------------------------------------------------
                    Distance matrix (angstroms):
                    1          2          3          4          5
     1  C    0.000000
     2  C    1.514017   0.000000
     3  N    2.473921   1.272736   0.000000
     4  C    2.590952   1.538884   2.425069   0.000000
     5  C    3.084312   2.525416   3.490712   1.533350   0.000000
     6  C    3.927557   2.544336   2.745811   1.529233   2.519968
     7  O    2.925248   2.408634   3.405939   1.438845   2.361335
     8  H    1.092417   2.156700   3.257234   2.734808   3.231773
     9  H    1.093273   2.159075   2.646004   3.508963   4.134810
    10  H    1.096147   2.158618   3.093076   2.995114   2.932848
    11  H    2.516930   1.893804   1.023859   3.311429   4.265336
    12  H    4.085372   3.472085   4.378673   2.159678   1.093411
    13  H    2.767831   2.791335   3.940910   2.180265   1.092505
    14  H    3.425805   2.774375   3.464052   2.175362   1.093780
    15  H    4.184254   2.772036   2.666309   2.174361   3.477565
    16  H    4.271777   2.830619   2.721752   2.177845   2.788438
    17  H    4.729536   3.481872   3.828897   2.152259   2.745017
    18  H    3.295097   2.644320   3.379939   1.955483   3.200213
                    6          7          8          9         10
     6  C    0.000000
     7  O    2.433689   0.000000
     8  H    4.168723   2.503156   0.000000
     9  H    4.683061   3.816613   1.785924   0.000000
    10  H    4.373094   3.505344   1.761995   1.770568   0.000000
    11  H    3.768327   4.160484   3.413126   2.259256   3.123318
    12  H    2.713214   2.628787   4.060755   5.153353   3.968096
    13  H    3.475337   2.579643   2.745838   3.842037   2.404404
    14  H    2.812335   3.329187   3.865399   4.364334   3.078787
    15  H    1.093666   2.737489   4.398429   4.754077   4.844272
    16  H    1.091822   3.385972   4.742523   4.956642   4.559500
    17  H    1.093722   2.649812   4.798896   5.580078   5.104579
    18  H    2.510434   0.963713   2.888767   3.990839   4.081128
                   11         12         13         14         15
    11  H    0.000000
    12  H    5.234474   0.000000
    13  H    4.536655   1.767532   0.000000
    14  H    4.181679   1.777380   1.778117   0.000000
    15  H    3.621450   3.728115   4.323161   3.807098   0.000000
    16  H    3.702282   3.067551   3.813813   2.638955   1.755730
    17  H    4.848829   2.482380   3.720609   3.164742   1.783451
    18  H    4.108921   3.454769   3.505681   4.072526   2.407441
                   16         17         18
    16  H    0.000000
    17  H    1.782711   0.000000
    18  H    3.538164   2.785989   0.000000
 Stoichiometry    C5H11NO
 Framework group  C1[X(C5H11NO)]
 Deg. of freedom    48
 Full point group                 C1      NOp   1
 Largest Abelian subgroup         C1      NOp   1
 Largest concise Abelian subgroup C1      NOp   1
                         Standard orientation:                         
 ---------------------------------------------------------------------
 Center     Atomic      Atomic             Coordinates (Angstroms)
 Number     Number       Type             X           Y           Z
 ---------------------------------------------------------------------
      1          6           0        1.867946   -0.867143    0.068309
      2          6           0        0.902315    0.292629   -0.053066
      3          7           0        1.240580    1.511995   -0.189372
      4          6           0       -0.593684   -0.060096    0.022676
      5          6           0       -0.978777   -1.020627   -1.108803
      6          6           0       -1.479293    1.186388   -0.000288
      7          8           0       -0.813125   -0.800958    1.236449
      8          1           0        1.538779   -1.562625    0.843763
      9          1           0        2.875239   -0.510468    0.299371
     10          1           0        1.915953   -1.428213   -0.872134
     11          1           0        2.260172    1.603828   -0.206284
     12          1           0       -2.044733   -1.254555   -1.041249
     13          1           0       -0.423503   -1.958651   -1.035663
     14          1           0       -0.780140   -0.567726   -2.084394
     15          1           0       -1.206560    1.873628    0.805581
     16          1           0       -1.366831    1.735348   -0.937342
     17          1           0       -2.524181    0.886440    0.119992
     18          1           0       -0.734297   -0.180216    1.969395
 ---------------------------------------------------------------------
 Rotational constants (GHZ):      3.2602335      2.3573403      1.9198486
 Leave Link  202 at Thu Sep  8 15:00:56 2022, MaxMem= 24159191040 cpu:         0.4
 (Enter /public/home/users/caep010/software/Gaussian09/g09/l301.exe)
 Standard basis: 6-31G(d,p) (6D, 7F)
 Ernie: Thresh=  0.10000D-02 Tol=  0.10000D-05 Strict=F.
 There are   160 symmetry adapted cartesian basis functions of A   symmetry.
 There are   160 symmetry adapted basis functions of A   symmetry.
   160 basis functions,   273 primitive gaussians,   160 cartesian basis functions
    28 alpha electrons       28 beta electrons
       nuclear repulsion energy       327.1448667766 Hartrees.
 IExCor=  402 DFT=T Ex+Corr=B3LYP ExCW=0 ScaHFX=  0.200000
 ScaDFX=  0.800000  0.720000  1.000000  0.810000 ScalE2=  1.000000  1.000000
 IRadAn=      0 IRanWt=     -1 IRanGd=            0 ICorTp=0 IEmpDi=  4
 NAtoms=   18 NActive=   18 NUniq=   18 SFac= 1.00D+00 NAtFMM=   60 NAOKFM=F Big=F
 Integral buffers will be    131072 words long.
 Raffenetti 2 integral format.
 Two-electron integral symmetry is turned on.
 Leave Link  301 at Thu Sep  8 15:00:56 2022, MaxMem= 24159191040 cpu:         2.1
 (Enter /public/home/users/caep010/software/Gaussian09/g09/l302.exe)
 NPDir=0 NMtPBC=     1 NCelOv=     1 NCel=       1 NClECP=     1 NCelD=      1
         NCelK=      1 NCelE2=     1 NClLst=     1 CellRange=     0.0.
 One-electron integrals computed using PRISM.
 NBasis=   160 RedAO= T EigKep=  2.36D-03  NBF=   160
 NBsUse=   160 1.00D-06 EigRej= -1.00D+00 NBFU=   160
 Precomputing XC quadrature grid using
 IXCGrd= 4 IRadAn=           0 IRanWt=          -1 IRanGd=           0 AccXCQ= 0.00D+00.
 Generated NRdTot=       0 NPtTot=           0 NUsed=           0 NTot=          32
 NSgBfM=   160   160   160   160   160 MxSgAt=    18 MxSgA2=    18.
 Leave Link  302 at Thu Sep  8 15:00:56 2022, MaxMem= 24159191040 cpu:        11.3
 (Enter /public/home/users/caep010/software/Gaussian09/g09/l303.exe)
 DipDrv:  MaxL=1.
 Leave Link  303 at Thu Sep  8 15:00:56 2022, MaxMem= 24159191040 cpu:         0.8
 (Enter /public/home/users/caep010/software/Gaussian09/g09/l401.exe)
 ExpMin= 1.61D-01 ExpMax= 5.48D+03 ExpMxC= 8.25D+02 IAcc=1 IRadAn=         1 AccDes= 0.00D+00
 Harris functional with IExCor=  402 and IRadAn=       1 diagonalized for initial guess.
 HarFok:  IExCor=  402 AccDes= 0.00D+00 IRadAn=         1 IDoV= 1 UseB2=F ITyADJ=14
 ICtDFT=  3500011 ScaDFX=  1.000000  1.000000  1.000000  1.000000
 FoFCou: FMM=F IPFlag=           0 FMFlag=      100000 FMFlg1=           0
         NFxFlg=           0 DoJE=T BraDBF=F KetDBF=T FulRan=T
         wScrn=  0.000000 ICntrl=     500 IOpCl=  0 I1Cent=   200000004 NGrid=           0
         NMat0=    1 NMatS0=      1 NMatT0=    0 NMatD0=    1 NMtDS0=    0 NMtDT0=    0
 Petite list used in FoFCou.
 Harris En= -327.194109585901    
 JPrj=0 DoOrth=F DoCkMO=F.
 Leave Link  401 at Thu Sep  8 15:00:57 2022, MaxMem= 24159191040 cpu:        10.9
 (Enter /public/home/users/caep010/software/Gaussian09/g09/l502.exe)
 Closed shell SCF:
 Using DIIS extrapolation, IDIIS=  1040.
 Integral symmetry usage will be decided dynamically.
 Keep R1 ints in memory in canonical form, NReq=85141887.
 IVT=      101687 IEndB=      101687 NGot= 24159191040 MDV= 24076135714
 LenX= 24076135714 LenY= 24076109673
 Requested convergence on RMS density matrix=1.00D-08 within 128 cycles.
 Requested convergence on MAX density matrix=1.00D-06.
 Requested convergence on             energy=1.00D-06.
 No special actions if energy rises.
 FoFCou: FMM=F IPFlag=           0 FMFlag=           0 FMFlg1=           0
         NFxFlg=           0 DoJE=F BraDBF=F KetDBF=F FulRan=T
         wScrn=  0.000000 ICntrl=     600 IOpCl=  0 I1Cent=           0 NGrid=           0
         NMat0=    1 NMatS0=  12880 NMatT0=    0 NMatD0=    1 NMtDS0=    0 NMtDT0=    0
 Symmetry not used in FoFCou.
 Integral accuracy reduced to 1.0D-05 until final iterations.

 Cycle   1  Pass 0  IDiag  1:
 E= -326.866809589141    
 DIIS: error= 2.62D-02 at cycle   1 NSaved=   1.
 NSaved= 1 IEnMin= 1 EnMin= -326.866809589141     IErMin= 1 ErrMin= 2.62D-02
 ErrMax= 2.62D-02  0.00D+00 EMaxC= 1.00D-01 BMatC= 2.77D-01 BMatP= 2.77D-01
 IDIUse=3 WtCom= 7.38D-01 WtEn= 2.62D-01
 Coeff-Com:  0.100D+01
 Coeff-En:   0.100D+01
 Coeff:      0.100D+01
 Gap=     0.211 Goal=   None    Shift=    0.000
 GapD=    0.211 DampG=1.000 DampE=0.500 DampFc=0.5000 IDamp=-1.
 Damping current iteration by 5.00D-01
 RMSDP=6.88D-03 MaxDP=1.36D-01              OVMax= 1.78D-01

 Cycle   2  Pass 0  IDiag  1:
 E= -326.983487000886     Delta-E=       -0.116677411745 Rises=F Damp=T
 DIIS: error= 6.36D-03 at cycle   2 NSaved=   2.
 NSaved= 2 IEnMin= 2 EnMin= -326.983487000886     IErMin= 2 ErrMin= 6.36D-03
 ErrMax= 6.36D-03  0.00D+00 EMaxC= 1.00D-01 BMatC= 1.37D-02 BMatP= 2.77D-01
 IDIUse=3 WtCom= 9.36D-01 WtEn= 6.36D-02
 Coeff-Com:  0.982D-01 0.902D+00
 Coeff-En:   0.147D+00 0.853D+00
 Coeff:      0.101D+00 0.899D+00
 Gap=     0.256 Goal=   None    Shift=    0.000
 RMSDP=1.19D-03 MaxDP=3.40D-02 DE=-1.17D-01 OVMax= 1.38D-01

 Cycle   3  Pass 0  IDiag  1:
 E= -327.126406277897     Delta-E=       -0.142919277012 Rises=F Damp=F
 DIIS: error= 4.09D-03 at cycle   3 NSaved=   3.
 NSaved= 3 IEnMin= 3 EnMin= -327.126406277897     IErMin= 3 ErrMin= 4.09D-03
 ErrMax= 4.09D-03  0.00D+00 EMaxC= 1.00D-01 BMatC= 8.37D-03 BMatP= 1.37D-02
 IDIUse=3 WtCom= 9.59D-01 WtEn= 4.09D-02
 Coeff-Com:  0.242D-01 0.429D+00 0.547D+00
 Coeff-En:   0.000D+00 0.000D+00 0.100D+01
 Coeff:      0.232D-01 0.411D+00 0.566D+00
 Gap=     0.247 Goal=   None    Shift=    0.000
 RMSDP=7.49D-04 MaxDP=3.02D-02 DE=-1.43D-01 OVMax= 5.71D-02

 Cycle   4  Pass 0  IDiag  1:
 E= -327.131039267993     Delta-E=       -0.004632990096 Rises=F Damp=F
 DIIS: error= 3.18D-03 at cycle   4 NSaved=   4.
 NSaved= 4 IEnMin= 4 EnMin= -327.131039267993     IErMin= 4 ErrMin= 3.18D-03
 ErrMax= 3.18D-03  0.00D+00 EMaxC= 1.00D-01 BMatC= 3.17D-03 BMatP= 8.37D-03
 IDIUse=3 WtCom= 9.68D-01 WtEn= 3.18D-02
 Coeff-Com: -0.490D-03 0.557D-01 0.380D+00 0.564D+00
 Coeff-En:   0.000D+00 0.000D+00 0.317D+00 0.683D+00
 Coeff:     -0.474D-03 0.540D-01 0.378D+00 0.568D+00
 Gap=     0.251 Goal=   None    Shift=    0.000
 RMSDP=3.53D-04 MaxDP=1.39D-02 DE=-4.63D-03 OVMax= 2.55D-02

 Cycle   5  Pass 0  IDiag  1:
 E= -327.133805721921     Delta-E=       -0.002766453928 Rises=F Damp=F
 DIIS: error= 6.52D-04 at cycle   5 NSaved=   5.
 NSaved= 5 IEnMin= 5 EnMin= -327.133805721921     IErMin= 5 ErrMin= 6.52D-04
 ErrMax= 6.52D-04  0.00D+00 EMaxC= 1.00D-01 BMatC= 1.63D-04 BMatP= 3.17D-03
 IDIUse=3 WtCom= 9.93D-01 WtEn= 6.52D-03
 Coeff-Com: -0.821D-03 0.133D-01 0.195D+00 0.328D+00 0.464D+00
 Coeff-En:   0.000D+00 0.000D+00 0.000D+00 0.000D+00 0.100D+01
 Coeff:     -0.815D-03 0.132D-01 0.194D+00 0.326D+00 0.468D+00
 Gap=     0.250 Goal=   None    Shift=    0.000
 RMSDP=8.60D-05 MaxDP=2.53D-03 DE=-2.77D-03 OVMax= 4.00D-03

 Cycle   6  Pass 0  IDiag  1:
 E= -327.133932569002     Delta-E=       -0.000126847081 Rises=F Damp=F
 DIIS: error= 1.45D-04 at cycle   6 NSaved=   6.
 NSaved= 6 IEnMin= 6 EnMin= -327.133932569002     IErMin= 6 ErrMin= 1.45D-04
 ErrMax= 1.45D-04  0.00D+00 EMaxC= 1.00D-01 BMatC= 8.42D-06 BMatP= 1.63D-04
 IDIUse=3 WtCom= 9.99D-01 WtEn= 1.45D-03
 Coeff-Com: -0.141D-03-0.717D-03 0.495D-01 0.898D-01 0.230D+00 0.632D+00
 Coeff-En:   0.000D+00 0.000D+00 0.000D+00 0.000D+00 0.000D+00 0.100D+01
 Coeff:     -0.141D-03-0.716D-03 0.494D-01 0.896D-01 0.229D+00 0.632D+00
 Gap=     0.250 Goal=   None    Shift=    0.000
 RMSDP=1.84D-05 MaxDP=4.72D-04 DE=-1.27D-04 OVMax= 6.39D-04

 Cycle   7  Pass 0  IDiag  1:
 E= -327.133939025414     Delta-E=       -0.000006456412 Rises=F Damp=F
 DIIS: error= 2.93D-05 at cycle   7 NSaved=   7.
 NSaved= 7 IEnMin= 7 EnMin= -327.133939025414     IErMin= 7 ErrMin= 2.93D-05
 ErrMax= 2.93D-05  0.00D+00 EMaxC= 1.00D-01 BMatC= 3.34D-07 BMatP= 8.42D-06
 IDIUse=1 WtCom= 1.00D+00 WtEn= 0.00D+00
 Coeff-Com:  0.800D-05-0.782D-03 0.189D-01 0.345D-01 0.992D-01 0.309D+00
 Coeff-Com:  0.539D+00
 Coeff:      0.800D-05-0.782D-03 0.189D-01 0.345D-01 0.992D-01 0.309D+00
 Coeff:      0.539D+00
 Gap=     0.250 Goal=   None    Shift=    0.000
 RMSDP=4.09D-06 MaxDP=1.20D-04 DE=-6.46D-06 OVMax= 1.11D-04

 Initial convergence to 1.0D-05 achieved.  Increase integral accuracy.
 Cycle   8  Pass 1  IDiag  1:
 E= -327.133963434451     Delta-E=       -0.000024409038 Rises=F Damp=F
 DIIS: error= 1.41D-05 at cycle   1 NSaved=   1.
 NSaved= 1 IEnMin= 1 EnMin= -327.133963434451     IErMin= 1 ErrMin= 1.41D-05
 ErrMax= 1.41D-05  0.00D+00 EMaxC= 1.00D-01 BMatC= 8.47D-08 BMatP= 8.47D-08
 IDIUse=1 WtCom= 1.00D+00 WtEn= 0.00D+00
 Coeff-Com:  0.100D+01
 Coeff:      0.100D+01
 Gap=     0.250 Goal=   None    Shift=    0.000
 RMSDP=4.09D-06 MaxDP=1.20D-04 DE=-2.44D-05 OVMax= 7.20D-05

 Cycle   9  Pass 1  IDiag  1:
 E= -327.133963506583     Delta-E=       -0.000000072131 Rises=F Damp=F
 DIIS: error= 7.82D-06 at cycle   2 NSaved=   2.
 NSaved= 2 IEnMin= 2 EnMin= -327.133963506583     IErMin= 2 ErrMin= 7.82D-06
 ErrMax= 7.82D-06  0.00D+00 EMaxC= 1.00D-01 BMatC= 3.23D-08 BMatP= 8.47D-08
 IDIUse=1 WtCom= 1.00D+00 WtEn= 0.00D+00
 Coeff-Com:  0.334D+00 0.666D+00
 Coeff:      0.334D+00 0.666D+00
 Gap=     0.250 Goal=   None    Shift=    0.000
 RMSDP=1.65D-06 MaxDP=4.74D-05 DE=-7.21D-08 OVMax= 6.83D-05

 Cycle  10  Pass 1  IDiag  1:
 E= -327.133963523143     Delta-E=       -0.000000016560 Rises=F Damp=F
 DIIS: error= 5.30D-06 at cycle   3 NSaved=   3.
 NSaved= 3 IEnMin= 3 EnMin= -327.133963523143     IErMin= 3 ErrMin= 5.30D-06
 ErrMax= 5.30D-06  0.00D+00 EMaxC= 1.00D-01 BMatC= 1.52D-08 BMatP= 3.23D-08
 IDIUse=1 WtCom= 1.00D+00 WtEn= 0.00D+00
 Coeff-Com: -0.578D-02 0.403D+00 0.602D+00
 Coeff:     -0.578D-02 0.403D+00 0.602D+00
 Gap=     0.250 Goal=   None    Shift=    0.000
 RMSDP=7.83D-07 MaxDP=2.92D-05 DE=-1.66D-08 OVMax= 4.99D-05

 Cycle  11  Pass 1  IDiag  1:
 E= -327.133963534912     Delta-E=       -0.000000011769 Rises=F Damp=F
 DIIS: error= 2.70D-06 at cycle   4 NSaved=   4.
 NSaved= 4 IEnMin= 4 EnMin= -327.133963534912     IErMin= 4 ErrMin= 2.70D-06
 ErrMax= 2.70D-06  0.00D+00 EMaxC= 1.00D-01 BMatC= 1.80D-09 BMatP= 1.52D-08
 IDIUse=1 WtCom= 1.00D+00 WtEn= 0.00D+00
 Coeff-Com: -0.177D-01 0.232D+00 0.391D+00 0.394D+00
 Coeff:     -0.177D-01 0.232D+00 0.391D+00 0.394D+00
 Gap=     0.250 Goal=   None    Shift=    0.000
 RMSDP=2.74D-07 MaxDP=1.08D-05 DE=-1.18D-08 OVMax= 1.82D-05

 Cycle  12  Pass 1  IDiag  1:
 E= -327.133963536530     Delta-E=       -0.000000001619 Rises=F Damp=F
 DIIS: error= 2.69D-07 at cycle   5 NSaved=   5.
 NSaved= 5 IEnMin= 5 EnMin= -327.133963536530     IErMin= 5 ErrMin= 2.69D-07
 ErrMax= 2.69D-07  0.00D+00 EMaxC= 1.00D-01 BMatC= 2.81D-11 BMatP= 1.80D-09
 IDIUse=1 WtCom= 1.00D+00 WtEn= 0.00D+00
 Coeff-Com: -0.707D-02 0.754D-01 0.131D+00 0.173D+00 0.627D+00
 Coeff:     -0.707D-02 0.754D-01 0.131D+00 0.173D+00 0.627D+00
 Gap=     0.250 Goal=   None    Shift=    0.000
 RMSDP=4.01D-08 MaxDP=1.05D-06 DE=-1.62D-09 OVMax= 1.85D-06

 Cycle  13  Pass 1  IDiag  1:
 E= -327.133963536557     Delta-E=       -0.000000000026 Rises=F Damp=F
 DIIS: error= 1.33D-07 at cycle   6 NSaved=   6.
 NSaved= 6 IEnMin= 6 EnMin= -327.133963536557     IErMin= 6 ErrMin= 1.33D-07
 ErrMax= 1.33D-07  0.00D+00 EMaxC= 1.00D-01 BMatC= 5.10D-12 BMatP= 2.81D-11
 IDIUse=1 WtCom= 1.00D+00 WtEn= 0.00D+00
 Coeff-Com: -0.234D-02 0.208D-01 0.370D-01 0.621D-01 0.353D+00 0.530D+00
 Coeff:     -0.234D-02 0.208D-01 0.370D-01 0.621D-01 0.353D+00 0.530D+00
 Gap=     0.250 Goal=   None    Shift=    0.000
 RMSDP=1.37D-08 MaxDP=4.67D-07 DE=-2.65D-11 OVMax= 4.77D-07

 Cycle  14  Pass 1  IDiag  1:
 E= -327.133963536554     Delta-E=        0.000000000003 Rises=F Damp=F
 DIIS: error= 2.85D-08 at cycle   7 NSaved=   7.
 NSaved= 7 IEnMin= 6 EnMin= -327.133963536557     IErMin= 7 ErrMin= 2.85D-08
 ErrMax= 2.85D-08  0.00D+00 EMaxC= 1.00D-01 BMatC= 2.72D-13 BMatP= 5.10D-12
 IDIUse=1 WtCom= 1.00D+00 WtEn= 0.00D+00
 Coeff-Com: -0.128D-03-0.590D-03-0.821D-03 0.590D-02 0.704D-01 0.231D+00
 Coeff-Com:  0.695D+00
 Coeff:     -0.128D-03-0.590D-03-0.821D-03 0.590D-02 0.704D-01 0.231D+00
 Coeff:      0.695D+00
 Gap=     0.250 Goal=   None    Shift=    0.000
 RMSDP=3.37D-09 MaxDP=9.30D-08 DE= 2.50D-12 OVMax= 8.52D-08

 SCF Done:  E(RB3LYP) =  -327.133963537     A.U. after   14 cycles
            NFock= 14  Conv=0.34D-08     -V/T= 2.0093
 KE= 3.241237768622D+02 PE=-1.415465631226D+03 EE= 4.370630240506D+02
 Leave Link  502 at Thu Sep  8 15:01:00 2022, MaxMem= 24159191040 cpu:        64.0
 (Enter /public/home/users/caep010/software/Gaussian09/g09/l601.exe)
 Copying SCF densities to generalized density rwf, IOpCl= 0 IROHF=0.

 **********************************************************************

            Population analysis using the SCF density.

 **********************************************************************

 Orbital symmetries:
       Occupied  (A) (A) (A) (A) (A) (A) (A) (A) (A) (A) (A) (A)
                 (A) (A) (A) (A) (A) (A) (A) (A) (A) (A) (A) (A)
                 (A) (A) (A) (A)
       Virtual   (A) (A) (A) (A) (A) (A) (A) (A) (A) (A) (A) (A)
                 (A) (A) (A) (A) (A) (A) (A) (A) (A) (A) (A) (A)
                 (A) (A) (A) (A) (A) (A) (A) (A) (A) (A) (A) (A)
                 (A) (A) (A) (A) (A) (A) (A) (A) (A) (A) (A) (A)
                 (A) (A) (A) (A) (A) (A) (A) (A) (A) (A) (A) (A)
                 (A) (A) (A) (A) (A) (A) (A) (A) (A) (A) (A) (A)
                 (A) (A) (A) (A) (A) (A) (A) (A) (A) (A) (A) (A)
                 (A) (A) (A) (A) (A) (A) (A) (A) (A) (A) (A) (A)
                 (A) (A) (A) (A) (A) (A) (A) (A) (A) (A) (A) (A)
                 (A) (A) (A) (A) (A) (A) (A) (A) (A) (A) (A) (A)
                 (A) (A) (A) (A) (A) (A) (A) (A) (A) (A) (A) (A)
 The electronic state is 1-A.
 Alpha  occ. eigenvalues --  -19.14457 -14.31237 -10.24318 -10.23075 -10.18584
 Alpha  occ. eigenvalues --  -10.17627 -10.16794  -1.02026  -0.90192  -0.77294
 Alpha  occ. eigenvalues --   -0.72661  -0.68511  -0.61756  -0.54866  -0.47276
 Alpha  occ. eigenvalues --   -0.46755  -0.44979  -0.43973  -0.42167  -0.40480
 Alpha  occ. eigenvalues --   -0.38151  -0.37995  -0.35986  -0.34904  -0.32053
 Alpha  occ. eigenvalues --   -0.30113  -0.28335  -0.24671
 Alpha virt. eigenvalues --    0.00349   0.07494   0.10203   0.12199   0.13917
 Alpha virt. eigenvalues --    0.14822   0.15694   0.16003   0.17762   0.18688
 Alpha virt. eigenvalues --    0.20363   0.21056   0.23017   0.24615   0.25126
 Alpha virt. eigenvalues --    0.26332   0.31289   0.42358   0.49870   0.52112
 Alpha virt. eigenvalues --    0.54142   0.56651   0.57725   0.58106   0.59823
 Alpha virt. eigenvalues --    0.61588   0.63054   0.67140   0.69544   0.72077
 Alpha virt. eigenvalues --    0.74879   0.76144   0.76950   0.79569   0.80925
 Alpha virt. eigenvalues --    0.84135   0.85094   0.86903   0.87547   0.89174
 Alpha virt. eigenvalues --    0.89935   0.90530   0.90857   0.93207   0.94699
 Alpha virt. eigenvalues --    0.97637   0.98517   1.01472   1.04422   1.09721
 Alpha virt. eigenvalues --    1.13506   1.24074   1.27756   1.29045   1.34970
 Alpha virt. eigenvalues --    1.38918   1.44191   1.46131   1.53435   1.55176
 Alpha virt. eigenvalues --    1.56555   1.60692   1.68088   1.69964   1.75809
 Alpha virt. eigenvalues --    1.77733   1.79648   1.83359   1.84672   1.86925
 Alpha virt. eigenvalues --    1.91152   1.91718   2.00546   2.02954   2.03469
 Alpha virt. eigenvalues --    2.05065   2.05628   2.08048   2.09256   2.11227
 Alpha virt. eigenvalues --    2.11659   2.12144   2.15338   2.16273   2.21153
 Alpha virt. eigenvalues --    2.22544   2.25163   2.29871   2.34278   2.35539
 Alpha virt. eigenvalues --    2.36370   2.42818   2.44601   2.48152   2.50213
 Alpha virt. eigenvalues --    2.52182   2.59248   2.60173   2.63126   2.64936
 Alpha virt. eigenvalues --    2.67567   2.69278   2.72629   2.75826   2.78880
 Alpha virt. eigenvalues --    2.81877   2.83801   2.86768   2.88558   2.93043
 Alpha virt. eigenvalues --    2.96618   2.98811   3.04675   3.14998   3.18879
 Alpha virt. eigenvalues --    3.23214   3.24291   3.38213   3.42823   3.43253
 Alpha virt. eigenvalues --    3.43968   3.44563   3.46186   3.49491   3.51062
 Alpha virt. eigenvalues --    3.94336   4.03725   4.26133   4.43678   4.56191
 Alpha virt. eigenvalues --    4.56919   4.71903
          Condensed to atoms (all electrons):
               1          2          3          4          5          6
     1  C    5.140079   0.349669  -0.089882  -0.097336  -0.002991   0.007342
     2  C    0.349669   4.754539   0.607977   0.312097  -0.063196  -0.047144
     3  N   -0.089882   0.607977   6.760624  -0.069049   0.001174  -0.004546
     4  C   -0.097336   0.312097  -0.069049   4.834904   0.376914   0.365661
     5  C   -0.002991  -0.063196   0.001174   0.376914   4.997980  -0.058211
     6  C    0.007342  -0.047144  -0.004546   0.365661  -0.058211   4.996452
     7  O   -0.007703  -0.047133   0.000178   0.217430  -0.059614  -0.047435
     8  H    0.360618  -0.026148   0.003492  -0.002274  -0.001881   0.000329
     9  H    0.366348  -0.025426  -0.004589   0.004148   0.000177  -0.000145
    10  H    0.368622  -0.026703   0.000446  -0.001062   0.001400  -0.000062
    11  H   -0.026402  -0.062530   0.310404   0.012668  -0.000384  -0.000609
    12  H   -0.000198   0.005241  -0.000063  -0.024455   0.374672  -0.007945
    13  H    0.003355  -0.009138   0.000016  -0.022152   0.371143   0.005589
    14  H   -0.000320   0.001323   0.000207  -0.030089   0.371448  -0.002228
    15  H    0.000163  -0.007732   0.006563  -0.025011   0.005630   0.372189
    16  H   -0.000041  -0.002440   0.003211  -0.019546  -0.003066   0.362664
    17  H   -0.000103   0.006208   0.000644  -0.029476  -0.008129   0.367220
    18  H    0.000066  -0.001326   0.000956  -0.028062   0.008653  -0.006297
               7          8          9         10         11         12
     1  C   -0.007703   0.360618   0.366348   0.368622  -0.026402  -0.000198
     2  C   -0.047133  -0.026148  -0.025426  -0.026703  -0.062530   0.005241
     3  N    0.000178   0.003492  -0.004589   0.000446   0.310404  -0.000063
     4  C    0.217430  -0.002274   0.004148  -0.001062   0.012668  -0.024455
     5  C   -0.059614  -0.001881   0.000177   0.001400  -0.000384   0.374672
     6  C   -0.047435   0.000329  -0.000145  -0.000062  -0.000609  -0.007945
     7  O    8.192472   0.015711   0.000044   0.000227  -0.000212   0.001315
     8  H    0.015711   0.560925  -0.026458  -0.027482   0.000313  -0.000045
     9  H    0.000044  -0.026458   0.600002  -0.026744   0.008335  -0.000001
    10  H    0.000227  -0.027482  -0.026744   0.579552   0.000560  -0.000004
    11  H   -0.000212   0.000313   0.008335   0.000560   0.541507   0.000009
    12  H    0.001315  -0.000045  -0.000001  -0.000004   0.000009   0.585983
    13  H   -0.000344   0.001373  -0.000033   0.001104  -0.000008  -0.028222
    14  H    0.003385   0.000080  -0.000016   0.000198  -0.000009  -0.027245
    15  H   -0.002559  -0.000026  -0.000005  -0.000002  -0.000301  -0.000042
    16  H    0.003580  -0.000027  -0.000001  -0.000018  -0.000021   0.000203
    17  H    0.000882  -0.000014   0.000002  -0.000000  -0.000003   0.004315
    18  H    0.278861  -0.000644  -0.000022   0.000004  -0.000036  -0.000156
              13         14         15         16         17         18
     1  C    0.003355  -0.000320   0.000163  -0.000041  -0.000103   0.000066
     2  C   -0.009138   0.001323  -0.007732  -0.002440   0.006208  -0.001326
     3  N    0.000016   0.000207   0.006563   0.003211   0.000644   0.000956
     4  C   -0.022152  -0.030089  -0.025011  -0.019546  -0.029476  -0.028062
     5  C    0.371143   0.371448   0.005630  -0.003066  -0.008129   0.008653
     6  C    0.005589  -0.002228   0.372189   0.362664   0.367220  -0.006297
     7  O   -0.000344   0.003385  -0.002559   0.003580   0.000882   0.278861
     8  H    0.001373   0.000080  -0.000026  -0.000027  -0.000014  -0.000644
     9  H   -0.000033  -0.000016  -0.000005  -0.000001   0.000002  -0.000022
    10  H    0.001104   0.000198  -0.000002  -0.000018  -0.000000   0.000004
    11  H   -0.000008  -0.000009  -0.000301  -0.000021  -0.000003  -0.000036
    12  H   -0.028222  -0.027245  -0.000042   0.000203   0.004315  -0.000156
    13  H    0.596457  -0.030034  -0.000220  -0.000075  -0.000050  -0.000194
    14  H   -0.030034   0.602410  -0.000047   0.001836   0.000143  -0.000327
    15  H   -0.000220  -0.000047   0.600308  -0.025734  -0.032936   0.005809
    16  H   -0.000075   0.001836  -0.025734   0.589459  -0.028543  -0.000106
    17  H   -0.000050   0.000143  -0.032936  -0.028543   0.620610  -0.000464
    18  H   -0.000194  -0.000327   0.005809  -0.000106  -0.000464   0.440044
 Mulliken charges:
               1
     1  C   -0.371285
     2  C    0.281863
     3  N   -0.527764
     4  C    0.224688
     5  C   -0.311717
     6  C   -0.302825
     7  O   -0.549086
     8  H    0.142158
     9  H    0.104382
    10  H    0.129963
    11  H    0.216719
    12  H    0.116636
    13  H    0.111433
    14  H    0.109285
    15  H    0.103952
    16  H    0.118665
    17  H    0.099692
    18  H    0.303239
 Sum of Mulliken charges =  -0.00000
 Mulliken charges with hydrogens summed into heavy atoms:
               1
     1  C    0.005218
     2  C    0.281863
     3  N   -0.311045
     4  C    0.224688
     5  C    0.025637
     6  C    0.019485
     7  O   -0.245846
 Electronic spatial extent (au):  <R**2>=            783.4165
 Charge=             -0.0000 electrons
 Dipole moment (field-independent basis, Debye):
    X=              0.9606    Y=             -0.5578    Z=              0.1234  Tot=              1.1177
 Quadrupole moment (field-independent basis, Debye-Ang):
   XX=            -40.3414   YY=            -48.8645   ZZ=            -41.3846
   XY=             -1.8379   XZ=              0.4370   YZ=              2.7616
 Traceless Quadrupole moment (field-independent basis, Debye-Ang):
   XX=              3.1888   YY=             -5.3344   ZZ=              2.1456
   XY=             -1.8379   XZ=              0.4370   YZ=              2.7616
 Octapole moment (field-independent basis, Debye-Ang**2):
  XXX=              9.6937  YYY=             -9.4714  ZZZ=             13.3681  XYY=              0.6239
  XXY=              4.1943  XXZ=              0.3379  XZZ=             -1.9044  YZZ=              1.7348
  YYZ=              0.0994  XYZ=             -1.6630
 Hexadecapole moment (field-independent basis, Debye-Ang**3):
 XXXX=           -471.2348 YYYY=           -351.0839 ZZZZ=           -163.1852 XXXY=             23.3351
 XXXZ=             -4.0630 YYYX=             -0.0614 YYYZ=              0.5714 ZZZX=            -11.0944
 ZZZY=             -2.8794 XXYY=           -135.4579 XXZZ=           -116.8681 YYZZ=            -88.9441
 XXYZ=              0.4244 YYXZ=              0.4164 ZZXY=             -2.7904
 N-N= 3.271448667766D+02 E-N=-1.415465634964D+03  KE= 3.241237768622D+02
 No NMR shielding tensors so no spin-rotation constants.
 Leave Link  601 at Thu Sep  8 15:01:01 2022, MaxMem= 24159191040 cpu:        10.7
 (Enter /public/home/users/caep010/software/Gaussian09/g09/l701.exe)
 Compute integral first derivatives.
 ... and contract with generalized density number  0.
 Leave Link  701 at Thu Sep  8 15:01:01 2022, MaxMem= 24159191040 cpu:        10.9
 (Enter /public/home/users/caep010/software/Gaussian09/g09/l702.exe)
 L702 exits ... SP integral derivatives will be done elsewhere.
 Leave Link  702 at Thu Sep  8 15:01:01 2022, MaxMem= 24159191040 cpu:         0.5
 (Enter /public/home/users/caep010/software/Gaussian09/g09/l703.exe)
 Compute integral first derivatives, UseDBF=F ICtDFT=           0.
 Integral derivatives from FoFJK, PRISM(SPDF).
 Calling FoFJK, ICntrl=      2127 FMM=F ISym2X=0 I1Cent= 0 IOpClX= 0 NMat=1 NMatS=1 NMatT=0.
 FoFJK:  IHMeth= 1 ICntrl=    2127 DoSepK=F KAlg= 0 I1Cent=   0 FoldK=F
 IRaf=         0 NMat=   1 IRICut=       1 DoRegI=T DoRafI=F ISym2E= 0.
 FoFCou: FMM=F IPFlag=           0 FMFlag=      100000 FMFlg1=         800
         NFxFlg=           0 DoJE=F BraDBF=F KetDBF=F FulRan=T
         wScrn=  0.000000 ICntrl=    2127 IOpCl=  0 I1Cent=           0 NGrid=           0
         NMat0=    1 NMatS0=      1 NMatT0=    0 NMatD0=    1 NMtDS0=    0 NMtDT0=    0
 Symmetry not used in FoFCou.
 Leave Link  703 at Thu Sep  8 15:01:02 2022, MaxMem= 24159191040 cpu:        16.8
 (Enter /public/home/users/caep010/software/Gaussian09/g09/l716.exe)
 Dipole        = 3.77946306D-01-2.19459899D-01 4.85637450D-02
 ***** Axes restored to original set *****
 -------------------------------------------------------------------
 Center     Atomic                   Forces (Hartrees/Bohr)
 Number     Number              X              Y              Z
 -------------------------------------------------------------------
      1        6           0.000484889   -0.000029678    0.000684730
      2        6           0.002292040    0.001773356    0.002772249
      3        7          -0.003065560   -0.001963691   -0.003734339
      4        6          -0.001106380   -0.001349030    0.000031446
      5        6          -0.000157347   -0.000035907    0.000169679
      6        6          -0.000288114    0.000041793   -0.000066038
      7        8          -0.000165831    0.001271992    0.003701678
      8        1           0.000039392    0.000135542   -0.000142557
      9        1           0.000275670   -0.000003325   -0.000063693
     10        1           0.000048815   -0.000097629    0.000135990
     11        1           0.001356434   -0.000607395    0.000057008
     12        1          -0.000006981    0.000119895    0.000025627
     13        1           0.000070034    0.000104763    0.000113542
     14        1          -0.000088209   -0.000140849    0.000086750
     15        1          -0.000003142    0.000001289   -0.000181421
     16        1          -0.000055801   -0.000048148   -0.000084331
     17        1          -0.000092532    0.000042509    0.000039557
     18        1           0.000462622    0.000784512   -0.003545880
 -------------------------------------------------------------------
 Cartesian Forces:  Max     0.003734339 RMS     0.001205130
 Leave Link  716 at Thu Sep  8 15:01:02 2022, MaxMem= 24159191040 cpu:         0.7
 (Enter /public/home/users/caep010/software/Gaussian09/g09/l103.exe)

 GradGradGradGradGradGradGradGradGradGradGradGradGradGradGradGradGradGrad
 Berny optimization.
 FormGI is forming the generalized inverse of G from B-inverse, IUseBI=4.
 Internal  Forces:  Max     0.004668373 RMS     0.000778442
 Search for a local minimum.
 Step number   1 out of a maximum of   91
 All quantities printed in internal units (Hartrees-Bohrs-Radians)
 RMS Force = .77844D-03 SwitMx=.10000D-02 MixMth= 2
 Mixed Optimization -- En-DIIS/RFO-DIIS
 Second derivative matrix not updated -- first step.
 ITU=  0
     Eigenvalues ---    0.00252   0.00325   0.00379   0.00581   0.00892
     Eigenvalues ---    0.01178   0.03375   0.04611   0.05502   0.05578
     Eigenvalues ---    0.05687   0.05694   0.06237   0.07129   0.07265
     Eigenvalues ---    0.07389   0.16000   0.16000   0.16000   0.16000
     Eigenvalues ---    0.16000   0.16000   0.16000   0.16000   0.16000
     Eigenvalues ---    0.16000   0.16000   0.16545   0.17280   0.24995
     Eigenvalues ---    0.24998   0.28618   0.29116   0.29494   0.30950
     Eigenvalues ---    0.34112   0.34379   0.34386   0.34392   0.34421
     Eigenvalues ---    0.34437   0.34525   0.34535   0.34603   0.39744
     Eigenvalues ---    0.43728   0.54682   0.75371
 RFO step:  Lambda=-1.04685451D-04 EMin= 2.51581825D-03
 Linear search not attempted -- first point.
 Iteration  1 RMS(Cart)=  0.00409013 RMS(Int)=  0.00001165
 Iteration  2 RMS(Cart)=  0.00001562 RMS(Int)=  0.00000310
 Iteration  3 RMS(Cart)=  0.00000000 RMS(Int)=  0.00000310
 ITry= 1 IFail=0 DXMaxC= 1.34D-02 DCOld= 1.00D+10 DXMaxT= 3.00D-01 DXLimC= 3.00D+00 Rises=F
 Variable       Old X    -DE/DX   Delta X   Delta X   Delta X     New X
                                 (Linear)    (Quad)   (Total)
    R1        2.86108   0.00104   0.00000   0.00337   0.00337   2.86445
    R2        2.06437   0.00011   0.00000   0.00032   0.00032   2.06469
    R3        2.06599   0.00024   0.00000   0.00070   0.00070   2.06669
    R4        2.07142   0.00017   0.00000   0.00049   0.00049   2.07191
    R5        2.40512   0.00467   0.00000   0.00619   0.00619   2.41131
    R6        2.90807   0.00163   0.00000   0.00569   0.00569   2.91376
    R7        1.93481   0.00144   0.00000   0.00328   0.00328   1.93810
    R8        2.89761   0.00041   0.00000   0.00141   0.00141   2.89902
    R9        2.88983   0.00052   0.00000   0.00177   0.00177   2.89160
   R10        2.71902   0.00204   0.00000   0.00513   0.00513   2.72415
   R11        2.06625   0.00009   0.00000   0.00025   0.00025   2.06650
   R12        2.06454   0.00014   0.00000   0.00040   0.00040   2.06494
   R13        2.06694   0.00017   0.00000   0.00050   0.00050   2.06744
   R14        2.06673   0.00018   0.00000   0.00051   0.00051   2.06724
   R15        2.06324   0.00006   0.00000   0.00017   0.00017   2.06341
   R16        2.06684   0.00010   0.00000   0.00030   0.00030   2.06714
   R17        1.82115   0.00365   0.00000   0.00668   0.00668   1.82783
    A1        1.93094  -0.00016   0.00000  -0.00119  -0.00119   1.92975
    A2        1.93335   0.00017   0.00000   0.00091   0.00091   1.93426
    A3        1.92970   0.00009   0.00000   0.00091   0.00091   1.93060
    A4        1.91272  -0.00010   0.00000  -0.00124  -0.00124   1.91148
    A5        1.87166   0.00007   0.00000   0.00072   0.00072   1.87238
    A6        1.88385  -0.00007   0.00000  -0.00010  -0.00010   1.88375
    A7        2.18093   0.00072   0.00000   0.00293   0.00292   2.18385
    A8        2.02695   0.00047   0.00000   0.00192   0.00192   2.02887
    A9        2.07515  -0.00120   0.00000  -0.00475  -0.00475   2.07039
   A10        1.93090  -0.00075   0.00000  -0.00468  -0.00468   1.92622
   A11        1.92987   0.00014   0.00000   0.00176   0.00176   1.93163
   A12        1.95564  -0.00013   0.00000  -0.00044  -0.00044   1.95520
   A13        1.88368   0.00021   0.00000   0.00241   0.00241   1.88609
   A14        1.93273   0.00003   0.00000  -0.00058  -0.00059   1.93214
   A15        1.83551  -0.00013   0.00000  -0.00123  -0.00124   1.83427
   A16        1.92202  -0.00011   0.00000  -0.00190  -0.00190   1.92011
   A17        1.91056  -0.00008   0.00000  -0.00081  -0.00081   1.90975
   A18        1.93992   0.00002   0.00000   0.00006   0.00006   1.93998
   A19        1.93177   0.00013   0.00000   0.00119   0.00118   1.93295
   A20        1.88354  -0.00004   0.00000  -0.00097  -0.00097   1.88257
   A21        1.89731  -0.00001   0.00000   0.00008   0.00008   1.89738
   A22        1.89962  -0.00002   0.00000   0.00041   0.00041   1.90003
   A23        1.93554   0.00005   0.00000   0.00024   0.00024   1.93579
   A24        1.94235   0.00011   0.00000   0.00067   0.00067   1.94303
   A25        1.90506  -0.00001   0.00000   0.00000   0.00000   1.90506
   A26        1.86583  -0.00009   0.00000  -0.00064  -0.00064   1.86519
   A27        1.90661  -0.00002   0.00000  -0.00010  -0.00010   1.90651
   A28        1.90782  -0.00004   0.00000  -0.00021  -0.00021   1.90761
   A29        1.87281  -0.00032   0.00000  -0.00200  -0.00200   1.87081
    D1        2.39722  -0.00005   0.00000   0.00079   0.00080   2.39802
    D2       -0.72471  -0.00009   0.00000  -0.00547  -0.00548  -0.73018
    D3        0.27248   0.00008   0.00000   0.00256   0.00257   0.27505
    D4       -2.84944   0.00004   0.00000  -0.00370  -0.00371  -2.85315
    D5       -1.81511   0.00001   0.00000   0.00151   0.00151  -1.81360
    D6        1.34615  -0.00004   0.00000  -0.00476  -0.00477   1.34139
    D7        0.00027   0.00001   0.00000  -0.00203  -0.00203  -0.00175
    D8        3.12170   0.00007   0.00000   0.00447   0.00446   3.12616
    D9       -1.05396   0.00003   0.00000   0.00168   0.00168  -1.05229
   D10        3.06395  -0.00001   0.00000   0.00146   0.00146   3.06541
   D11        0.94494   0.00007   0.00000   0.00249   0.00248   0.94742
   D12        2.10604  -0.00003   0.00000  -0.00426  -0.00426   2.10178
   D13       -0.05923  -0.00007   0.00000  -0.00449  -0.00448  -0.06371
   D14       -2.17824   0.00000   0.00000  -0.00346  -0.00345  -2.18170
   D15       -3.13620   0.00005   0.00000  -0.00159  -0.00159  -3.13779
   D16        1.06796   0.00015   0.00000   0.00009   0.00009   1.06805
   D17       -1.04519   0.00007   0.00000  -0.00127  -0.00127  -1.04646
   D18       -0.95783   0.00000   0.00000  -0.00131  -0.00131  -0.95914
   D19       -3.03686   0.00010   0.00000   0.00037   0.00037  -3.03649
   D20        1.13318   0.00002   0.00000  -0.00100  -0.00100   1.13218
   D21        1.11794  -0.00019   0.00000  -0.00459  -0.00459   1.11335
   D22       -0.96109  -0.00010   0.00000  -0.00291  -0.00291  -0.96400
   D23       -3.07424  -0.00017   0.00000  -0.00428  -0.00428  -3.07852
   D24       -0.97751  -0.00001   0.00000  -0.00289  -0.00289  -0.98040
   D25        1.09716  -0.00002   0.00000  -0.00309  -0.00309   1.09406
   D26       -3.07887  -0.00001   0.00000  -0.00292  -0.00292  -3.08180
   D27       -3.14119  -0.00011   0.00000  -0.00442  -0.00442   3.13758
   D28       -1.06652  -0.00012   0.00000  -0.00462  -0.00462  -1.07115
   D29        1.04063  -0.00011   0.00000  -0.00445  -0.00445   1.03618
   D30        1.11930   0.00010   0.00000  -0.00143  -0.00143   1.11787
   D31       -3.08922   0.00009   0.00000  -0.00163  -0.00163  -3.09085
   D32       -0.98206   0.00010   0.00000  -0.00146  -0.00146  -0.98352
   D33        1.25598  -0.00017   0.00000  -0.00700  -0.00700   1.24898
   D34       -2.96670   0.00003   0.00000  -0.00445  -0.00445  -2.97115
   D35       -0.88378  -0.00007   0.00000  -0.00683  -0.00683  -0.89061
         Item               Value     Threshold  Converged?
 Maximum Force            0.004668     0.000450     NO 
 RMS     Force            0.000778     0.000300     NO 
 Maximum Displacement     0.013362     0.001800     NO 
 RMS     Displacement     0.004091     0.001200     NO 
 Predicted change in Energy=-5.237640D-05
 Lowest energy point so far.  Saving SCF results.
 GradGradGradGradGradGradGradGradGradGradGradGradGradGradGradGradGradGrad

 Leave Link  103 at Thu Sep  8 15:01:02 2022, MaxMem= 24159191040 cpu:        12.9
 (Enter /public/home/users/caep010/software/Gaussian09/g09/l202.exe)
                          Input orientation:                          
 ---------------------------------------------------------------------
 Center     Atomic      Atomic             Coordinates (Angstroms)
 Number     Number       Type             X           Y           Z
 ---------------------------------------------------------------------
      1          6           0        1.994337   -0.409148    0.347063
      2          6           0        0.706642   -0.537290   -0.442290
      3          7           0        0.525148   -1.327216   -1.427828
      4          6           0       -0.452694    0.382652   -0.009744
      5          6           0       -0.848777    0.106622    1.446407
      6          6           0       -1.664907    0.251453   -0.934264
      7          8           0        0.028422    1.741537   -0.016821
      8          1           0        2.219020    0.641212    0.547070
      9          1           0        2.828729   -0.864812   -0.193507
     10          1           0        1.904652   -0.913324    1.316531
     11          1           0        1.377375   -1.866300   -1.614773
     12          1           0       -1.673572    0.766195    1.730152
     13          1           0       -0.015112    0.301256    2.125487
     14          1           0       -1.170989   -0.931528    1.570329
     15          1           0       -1.387079    0.451630   -1.973225
     16          1           0       -2.078494   -0.758701   -0.905899
     17          1           0       -2.432861    0.965391   -0.622627
     18          1           0        0.140259    2.000370   -0.942059
 ---------------------------------------------------------------------
                    Distance matrix (angstroms):
                    1          2          3          4          5
     1  C    0.000000
     2  C    1.515803   0.000000
     3  N    2.480243   1.276013   0.000000
     4  C    2.596578   1.541897   2.427094   0.000000
     5  C    3.091581   2.530045   3.493535   1.534096   0.000000
     6  C    3.932971   2.547234   2.744476   1.530167   2.520841
     7  O    2.936440   2.415380   3.413931   1.441559   2.362936
     8  H    1.092584   2.157542   3.262534   2.741340   3.241292
     9  H    1.093643   2.161578   2.654025   3.515348   4.142107
    10  H    1.096405   2.161037   3.099329   2.999273   2.939137
    11  H    2.520463   1.894959   1.025597   3.314069   4.268371
    12  H    4.092423   3.476205   4.380592   2.159836   1.093543
    13  H    2.775852   2.795991   3.945866   2.181127   1.092717
    14  H    3.433446   2.780568   3.467333   2.177073   1.094043
    15  H    4.190304   2.775859   2.668026   2.175567   3.478891
    16  H    4.275518   2.832126   2.715616   2.179222   2.791832
    17  H    4.736004   3.485261   3.828082   2.153200   2.743666
    18  H    3.302305   2.647693   3.384811   1.959035   3.204566
                    6          7          8          9         10
     6  C    0.000000
     7  O    2.435039   0.000000
     8  H    4.175063   2.515434   0.000000
     9  H    4.689087   3.829620   1.785583   0.000000
    10  H    4.377732   3.513738   1.762804   1.771013   0.000000
    11  H    3.768747   4.170086   3.416072   2.264819   3.127095
    12  H    2.713696   2.626784   4.070329   5.160559   3.974362
    13  H    3.476547   2.581819   2.756505   3.850310   2.411454
    14  H    2.813607   3.332103   3.874626   4.371878   3.086149
    15  H    1.093938   2.737704   4.403609   4.761665   4.849854
    16  H    1.091912   3.388325   4.747578   4.959798   4.563831
    17  H    1.093881   2.650909   4.807626   5.587317   5.109199
    18  H    2.513443   0.967247   2.895870   3.999684   4.087043
                   11         12         13         14         15
    11  H    0.000000
    12  H    5.237064   0.000000
    13  H    4.541681   1.767186   0.000000
    14  H    4.184834   1.777750   1.778766   0.000000
    15  H    3.625395   3.727739   4.324853   3.810065   0.000000
    16  H    3.697608   3.072139   3.817114   2.642941   1.755603
    17  H    4.849817   2.480276   3.720042   3.162226   1.783739
    18  H    4.115111   3.457440   3.510124   4.077682   2.407211
                   16         17         18
    16  H    0.000000
    17  H    1.782782   0.000000
    18  H    3.540713   2.791803   0.000000
 Stoichiometry    C5H11NO
 Framework group  C1[X(C5H11NO)]
 Deg. of freedom    48
 Full point group                 C1      NOp   1
 RotChk:  IX=0 Diff= 2.65D-03
 Largest Abelian subgroup         C1      NOp   1
 Largest concise Abelian subgroup C1      NOp   1
                         Standard orientation:                         
 ---------------------------------------------------------------------
 Center     Atomic      Atomic             Coordinates (Angstroms)
 Number     Number       Type             X           Y           Z
 ---------------------------------------------------------------------
      1          6           0        1.872967   -0.869659    0.068251
      2          6           0        0.905659    0.291380   -0.049907
      3          7           0        1.240596    1.514920   -0.187668
      4          6           0       -0.593848   -0.060396    0.022047
      5          6           0       -0.980505   -1.018202   -1.112217
      6          6           0       -1.477877    1.188381    0.000551
      7          8           0       -0.820677   -0.804638    1.235614
      8          1           0        1.544973   -1.565018    0.844547
      9          1           0        2.881140   -0.513875    0.298598
     10          1           0        1.919700   -1.430480   -0.872706
     11          1           0        2.262026    1.605458   -0.205911
     12          1           0       -2.046888   -1.250658   -1.044182
     13          1           0       -0.427382   -1.957860   -1.040608
     14          1           0       -0.781776   -0.564205   -2.087575
     15          1           0       -1.207697    1.872051    0.810674
     16          1           0       -1.360746    1.741828   -0.933391
     17          1           0       -2.523921    0.889582    0.114948
     18          1           0       -0.736565   -0.183183    1.972014
 ---------------------------------------------------------------------
 Rotational constants (GHZ):      3.2524327      2.3501187      1.9136203
 Leave Link  202 at Thu Sep  8 15:01:02 2022, MaxMem= 24159191040 cpu:         0.3
 (Enter /public/home/users/caep010/software/Gaussian09/g09/l301.exe)
 Standard basis: 6-31G(d,p) (6D, 7F)
 Ernie: Thresh=  0.10000D-02 Tol=  0.10000D-05 Strict=F.
 There are   160 symmetry adapted cartesian basis functions of A   symmetry.
 There are   160 symmetry adapted basis functions of A   symmetry.
   160 basis functions,   273 primitive gaussians,   160 cartesian basis functions
    28 alpha electrons       28 beta electrons
       nuclear repulsion energy       326.7009585164 Hartrees.
 IExCor=  402 DFT=T Ex+Corr=B3LYP ExCW=0 ScaHFX=  0.200000
 ScaDFX=  0.800000  0.720000  1.000000  0.810000 ScalE2=  1.000000  1.000000
 IRadAn=      0 IRanWt=     -1 IRanGd=            0 ICorTp=0 IEmpDi=  4
 NAtoms=   18 NActive=   18 NUniq=   18 SFac= 1.00D+00 NAtFMM=   60 NAOKFM=F Big=F
 Integral buffers will be    131072 words long.
 Raffenetti 2 integral format.
 Two-electron integral symmetry is turned on.
 Leave Link  301 at Thu Sep  8 15:01:02 2022, MaxMem= 24159191040 cpu:         1.8
 (Enter /public/home/users/caep010/software/Gaussian09/g09/l302.exe)
 NPDir=0 NMtPBC=     1 NCelOv=     1 NCel=       1 NClECP=     1 NCelD=      1
         NCelK=      1 NCelE2=     1 NClLst=     1 CellRange=     0.0.
 One-electron integrals computed using PRISM.
 NBasis=   160 RedAO= T EigKep=  2.37D-03  NBF=   160
 NBsUse=   160 1.00D-06 EigRej= -1.00D+00 NBFU=   160
 Precomputing XC quadrature grid using
 IXCGrd= 4 IRadAn=           0 IRanWt=          -1 IRanGd=           0 AccXCQ= 0.00D+00.
 Generated NRdTot=       0 NPtTot=           0 NUsed=           0 NTot=          32
 NSgBfM=   160   160   160   160   160 MxSgAt=    18 MxSgA2=    18.
 Leave Link  302 at Thu Sep  8 15:01:03 2022, MaxMem= 24159191040 cpu:        11.9
 (Enter /public/home/users/caep010/software/Gaussian09/g09/l303.exe)
 DipDrv:  MaxL=1.
 Leave Link  303 at Thu Sep  8 15:01:03 2022, MaxMem= 24159191040 cpu:         0.8
 (Enter /public/home/users/caep010/software/Gaussian09/g09/l401.exe)
 Initial guess from the checkpoint file:  "B3LYP6-31Gdp.Frag_464.chk"
 B after Tr=     0.000000    0.000000    0.000000
         Rot=    0.999999   -0.000881    0.000459    0.000342 Ang=  -0.12 deg.
 Guess basis will be translated and rotated to current coordinates.
 JPrj=2 DoOrth=T DoCkMO=T.
 Leave Link  401 at Thu Sep  8 15:01:03 2022, MaxMem= 24159191040 cpu:         3.0
 (Enter /public/home/users/caep010/software/Gaussian09/g09/l502.exe)
 Closed shell SCF:
 Using DIIS extrapolation, IDIIS=  1040.
 Integral symmetry usage will be decided dynamically.
 Keep R1 ints in memory in canonical form, NReq=85141887.
 IVT=      101687 IEndB=      101687 NGot= 24159191040 MDV= 24076135714
 LenX= 24076135714 LenY= 24076109673
 Requested convergence on RMS density matrix=1.00D-08 within 128 cycles.
 Requested convergence on MAX density matrix=1.00D-06.
 Requested convergence on             energy=1.00D-06.
 No special actions if energy rises.
 FoFCou: FMM=F IPFlag=           0 FMFlag=           0 FMFlg1=           0
         NFxFlg=           0 DoJE=F BraDBF=F KetDBF=F FulRan=T
         wScrn=  0.000000 ICntrl=     600 IOpCl=  0 I1Cent=           0 NGrid=           0
         NMat0=    1 NMatS0=  12880 NMatT0=    0 NMatD0=    1 NMtDS0=    0 NMtDT0=    0
 Symmetry not used in FoFCou.

 Cycle   1  Pass 1  IDiag  1:
 E= -327.133975409660    
 DIIS: error= 2.20D-04 at cycle   1 NSaved=   1.
 NSaved= 1 IEnMin= 1 EnMin= -327.133975409660     IErMin= 1 ErrMin= 2.20D-04
 ErrMax= 2.20D-04  0.00D+00 EMaxC= 1.00D-01 BMatC= 2.64D-05 BMatP= 2.64D-05
 IDIUse=3 WtCom= 9.98D-01 WtEn= 2.20D-03
 Coeff-Com:  0.100D+01
 Coeff-En:   0.100D+01
 Coeff:      0.100D+01
 Gap=     1.797 Goal=   None    Shift=    0.000
 RMSDP=6.67D-05 MaxDP=1.73D-03              OVMax= 1.57D-03

 Cycle   2  Pass 1  IDiag  1:
 E= -327.134014006939     Delta-E=       -0.000038597278 Rises=F Damp=F
 DIIS: error= 1.50D-04 at cycle   2 NSaved=   2.
 NSaved= 2 IEnMin= 2 EnMin= -327.134014006939     IErMin= 2 ErrMin= 1.50D-04
 ErrMax= 1.50D-04  0.00D+00 EMaxC= 1.00D-01 BMatC= 3.35D-06 BMatP= 2.64D-05
 IDIUse=3 WtCom= 9.99D-01 WtEn= 1.50D-03
 Coeff-Com:  0.135D+00 0.865D+00
 Coeff-En:   0.000D+00 0.100D+01
 Coeff:      0.135D+00 0.865D+00
 Gap=     0.250 Goal=   None    Shift=    0.000
 RMSDP=2.26D-05 MaxDP=7.32D-04 DE=-3.86D-05 OVMax= 1.05D-03

 Cycle   3  Pass 1  IDiag  1:
 E= -327.134013532440     Delta-E=        0.000000474499 Rises=F Damp=F
 DIIS: error= 1.45D-04 at cycle   3 NSaved=   3.
 NSaved= 3 IEnMin= 2 EnMin= -327.134014006939     IErMin= 3 ErrMin= 1.45D-04
 ErrMax= 1.45D-04  0.00D+00 EMaxC= 1.00D-01 BMatC= 4.11D-06 BMatP= 3.35D-06
 IDIUse=3 WtCom= 4.54D-01 WtEn= 5.46D-01
 Coeff-Com: -0.235D-01 0.534D+00 0.490D+00
 Coeff-En:   0.000D+00 0.535D+00 0.465D+00
 Coeff:     -0.107D-01 0.534D+00 0.476D+00
 Gap=     0.250 Goal=   None    Shift=    0.000
 RMSDP=1.25D-05 MaxDP=5.05D-04 DE= 4.74D-07 OVMax= 7.92D-04

 Cycle   4  Pass 1  IDiag  1:
 E= -327.134016706366     Delta-E=       -0.000003173926 Rises=F Damp=F
 DIIS: error= 2.37D-05 at cycle   4 NSaved=   4.
 NSaved= 4 IEnMin= 4 EnMin= -327.134016706366     IErMin= 4 ErrMin= 2.37D-05
 ErrMax= 2.37D-05  0.00D+00 EMaxC= 1.00D-01 BMatC= 2.32D-07 BMatP= 3.35D-06
 IDIUse=1 WtCom= 1.00D+00 WtEn= 0.00D+00
 Coeff-Com: -0.207D-01 0.267D+00 0.288D+00 0.465D+00
 Coeff:     -0.207D-01 0.267D+00 0.288D+00 0.465D+00
 Gap=     0.250 Goal=   None    Shift=    0.000
 RMSDP=3.34D-06 MaxDP=1.28D-04 DE=-3.17D-06 OVMax= 2.34D-04

 Cycle   5  Pass 1  IDiag  1:
 E= -327.134016910484     Delta-E=       -0.000000204118 Rises=F Damp=F
 DIIS: error= 5.60D-06 at cycle   5 NSaved=   5.
 NSaved= 5 IEnMin= 5 EnMin= -327.134016910484     IErMin= 5 ErrMin= 5.60D-06
 ErrMax= 5.60D-06  0.00D+00 EMaxC= 1.00D-01 BMatC= 1.55D-08 BMatP= 2.32D-07
 IDIUse=1 WtCom= 1.00D+00 WtEn= 0.00D+00
 Coeff-Com: -0.677D-02 0.665D-01 0.843D-01 0.247D+00 0.609D+00
 Coeff:     -0.677D-02 0.665D-01 0.843D-01 0.247D+00 0.609D+00
 Gap=     0.250 Goal=   None    Shift=    0.000
 RMSDP=8.37D-07 MaxDP=2.47D-05 DE=-2.04D-07 OVMax= 4.25D-05

 Cycle   6  Pass 1  IDiag  1:
 E= -327.134016923309     Delta-E=       -0.000000012825 Rises=F Damp=F
 DIIS: error= 2.07D-06 at cycle   6 NSaved=   6.
 NSaved= 6 IEnMin= 6 EnMin= -327.134016923309     IErMin= 6 ErrMin= 2.07D-06
 ErrMax= 2.07D-06  0.00D+00 EMaxC= 1.00D-01 BMatC= 1.43D-09 BMatP= 1.55D-08
 IDIUse=1 WtCom= 1.00D+00 WtEn= 0.00D+00
 Coeff-Com: -0.201D-02 0.154D-01 0.234D-01 0.102D+00 0.329D+00 0.532D+00
 Coeff:     -0.201D-02 0.154D-01 0.234D-01 0.102D+00 0.329D+00 0.532D+00
 Gap=     0.250 Goal=   None    Shift=    0.000
 RMSDP=2.92D-07 MaxDP=6.99D-06 DE=-1.28D-08 OVMax= 8.54D-06

 Cycle   7  Pass 1  IDiag  1:
 E= -327.134016924437     Delta-E=       -0.000000001128 Rises=F Damp=F
 DIIS: error= 4.80D-07 at cycle   7 NSaved=   7.
 NSaved= 7 IEnMin= 7 EnMin= -327.134016924437     IErMin= 7 ErrMin= 4.80D-07
 ErrMax= 4.80D-07  0.00D+00 EMaxC= 1.00D-01 BMatC= 9.17D-11 BMatP= 1.43D-09
 IDIUse=1 WtCom= 1.00D+00 WtEn= 0.00D+00
 Coeff-Com: -0.800D-05-0.271D-02-0.152D-02 0.116D-01 0.612D-01 0.238D+00
 Coeff-Com:  0.694D+00
 Coeff:     -0.800D-05-0.271D-02-0.152D-02 0.116D-01 0.612D-01 0.238D+00
 Coeff:      0.694D+00
 Gap=     0.250 Goal=   None    Shift=    0.000
 RMSDP=7.63D-08 MaxDP=1.46D-06 DE=-1.13D-09 OVMax= 2.19D-06

 Cycle   8  Pass 1  IDiag  1:
 E= -327.134016924518     Delta-E=       -0.000000000081 Rises=F Damp=F
 DIIS: error= 9.42D-08 at cycle   8 NSaved=   8.
 NSaved= 8 IEnMin= 8 EnMin= -327.134016924518     IErMin= 8 ErrMin= 9.42D-08
 ErrMax= 9.42D-08  0.00D+00 EMaxC= 1.00D-01 BMatC= 5.04D-12 BMatP= 9.17D-11
 IDIUse=1 WtCom= 1.00D+00 WtEn= 0.00D+00
 Coeff-Com:  0.777D-04-0.186D-02-0.169D-02 0.927D-03 0.142D-01 0.852D-01
 Coeff-Com:  0.308D+00 0.595D+00
 Coeff:      0.777D-04-0.186D-02-0.169D-02 0.927D-03 0.142D-01 0.852D-01
 Coeff:      0.308D+00 0.595D+00
 Gap=     0.250 Goal=   None    Shift=    0.000
 RMSDP=1.57D-08 MaxDP=4.95D-07 DE=-8.08D-11 OVMax= 4.54D-07

 Cycle   9  Pass 1  IDiag  1:
 E= -327.134016924525     Delta-E=       -0.000000000008 Rises=F Damp=F
 DIIS: error= 2.84D-08 at cycle   9 NSaved=   9.
 NSaved= 9 IEnMin= 9 EnMin= -327.134016924525     IErMin= 9 ErrMin= 2.84D-08
 ErrMax= 2.84D-08  0.00D+00 EMaxC= 1.00D-01 BMatC= 3.50D-13 BMatP= 5.04D-12
 IDIUse=1 WtCom= 1.00D+00 WtEn= 0.00D+00
 Coeff-Com:  0.319D-04-0.406D-03-0.494D-03-0.106D-02-0.164D-02 0.494D-02
 Coeff-Com:  0.372D-01 0.228D+00 0.734D+00
 Coeff:      0.319D-04-0.406D-03-0.494D-03-0.106D-02-0.164D-02 0.494D-02
 Coeff:      0.372D-01 0.228D+00 0.734D+00
 Gap=     0.250 Goal=   None    Shift=    0.000
 RMSDP=4.60D-09 MaxDP=1.28D-07 DE=-7.62D-12 OVMax= 1.26D-07

 SCF Done:  E(RB3LYP) =  -327.134016925     A.U. after    9 cycles
            NFock=  9  Conv=0.46D-08     -V/T= 2.0094
 KE= 3.240859091059D+02 PE=-1.414552695567D+03 EE= 4.366318110198D+02
 Leave Link  502 at Thu Sep  8 15:01:06 2022, MaxMem= 24159191040 cpu:        54.0
 (Enter /public/home/users/caep010/software/Gaussian09/g09/l701.exe)
 Compute integral first derivatives.
 ... and contract with generalized density number  0.
 Leave Link  701 at Thu Sep  8 15:01:06 2022, MaxMem= 24159191040 cpu:        11.4
 (Enter /public/home/users/caep010/software/Gaussian09/g09/l702.exe)
 L702 exits ... SP integral derivatives will be done elsewhere.
 Leave Link  702 at Thu Sep  8 15:01:06 2022, MaxMem= 24159191040 cpu:         0.5
 (Enter /public/home/users/caep010/software/Gaussian09/g09/l703.exe)
 Compute integral first derivatives, UseDBF=F ICtDFT=           0.
 Integral derivatives from FoFJK, PRISM(SPDF).
 Calling FoFJK, ICntrl=      2127 FMM=F ISym2X=0 I1Cent= 0 IOpClX= 0 NMat=1 NMatS=1 NMatT=0.
 FoFJK:  IHMeth= 1 ICntrl=    2127 DoSepK=F KAlg= 0 I1Cent=   0 FoldK=F
 IRaf=         0 NMat=   1 IRICut=       1 DoRegI=T DoRafI=F ISym2E= 0.
 FoFCou: FMM=F IPFlag=           0 FMFlag=      100000 FMFlg1=         800
         NFxFlg=           0 DoJE=F BraDBF=F KetDBF=F FulRan=T
         wScrn=  0.000000 ICntrl=    2127 IOpCl=  0 I1Cent=           0 NGrid=           0
         NMat0=    1 NMatS0=      1 NMatT0=    0 NMatD0=    1 NMtDS0=    0 NMtDT0=    0
 Symmetry not used in FoFCou.
 Leave Link  703 at Thu Sep  8 15:01:07 2022, MaxMem= 24159191040 cpu:        15.4
 (Enter /public/home/users/caep010/software/Gaussian09/g09/l716.exe)
 Dipole        = 3.86799829D-01-2.21632638D-01 4.59403553D-02
 ***** Axes restored to original set *****
 -------------------------------------------------------------------
 Center     Atomic                   Forces (Hartrees/Bohr)
 Number     Number              X              Y              Z
 -------------------------------------------------------------------
      1        6          -0.000211078   -0.000027359   -0.000177650
      2        6           0.000434172    0.000065852    0.000848882
      3        7          -0.000472908    0.000048071   -0.000372212
      4        6          -0.000373068   -0.000631908   -0.000295551
      5        6           0.000147821    0.000025744   -0.000063532
      6        6           0.000001005   -0.000002855   -0.000004099
      7        8           0.000153131    0.000481114    0.000441582
      8        1          -0.000072788    0.000093174   -0.000072794
      9        1           0.000002747    0.000019114   -0.000039693
     10        1          -0.000092977    0.000026428   -0.000067494
     11        1           0.000276740   -0.000053522    0.000058211
     12        1           0.000029484    0.000036010   -0.000046728
     13        1           0.000052821    0.000007915    0.000014228
     14        1           0.000017017    0.000026338   -0.000020240
     15        1          -0.000010435    0.000006980    0.000005969
     16        1           0.000012868    0.000000096   -0.000004520
     17        1           0.000052106    0.000011900    0.000017805
     18        1           0.000053342   -0.000133092   -0.000222166
 -------------------------------------------------------------------
 Cartesian Forces:  Max     0.000848882 RMS     0.000221834
 Leave Link  716 at Thu Sep  8 15:01:07 2022, MaxMem= 24159191040 cpu:         0.6
 (Enter /public/home/users/caep010/software/Gaussian09/g09/l103.exe)

 GradGradGradGradGradGradGradGradGradGradGradGradGradGradGradGradGradGrad
 Berny optimization.
 Using GEDIIS/GDIIS optimizer.
 FormGI is forming the generalized inverse of G from B-inverse, IUseBI=4.
 Internal  Forces:  Max     0.000491308 RMS     0.000117889
 Search for a local minimum.
 Step number   2 out of a maximum of   91
 All quantities printed in internal units (Hartrees-Bohrs-Radians)
 RMS Force = .11789D-03 SwitMx=.10000D-02 MixMth= 2
 Mixed Optimization -- En-DIIS/RFO-DIIS
 Swapping is turned off.
 Update second derivatives using D2CorX and points    1    2
 DE= -5.34D-05 DEPred=-5.24D-05 R= 1.02D+00
 TightC=F SS=  1.41D+00  RLast= 2.61D-02 DXNew= 5.0454D-01 7.8273D-02
 Trust test= 1.02D+00 RLast= 2.61D-02 DXMaxT set to 3.00D-01
 ITU=  1  0
     Eigenvalues ---    0.00251   0.00324   0.00379   0.00580   0.00927
     Eigenvalues ---    0.01155   0.03377   0.04578   0.05492   0.05574
     Eigenvalues ---    0.05683   0.05696   0.06268   0.07116   0.07259
     Eigenvalues ---    0.07547   0.15153   0.16000   0.16000   0.16000
     Eigenvalues ---    0.16000   0.16000   0.16000   0.16000   0.16000
     Eigenvalues ---    0.16000   0.16094   0.16561   0.17259   0.24576
     Eigenvalues ---    0.25152   0.28888   0.29341   0.29596   0.32567
     Eigenvalues ---    0.34144   0.34383   0.34385   0.34410   0.34423
     Eigenvalues ---    0.34470   0.34507   0.34534   0.34608   0.38248
     Eigenvalues ---    0.43288   0.54295   0.74065
 En-DIIS/RFO-DIIS IScMMF=        0 using points:     2    1
 RFO step:  Lambda=-2.85016253D-06.
 NNeg= 0 NP= 2 Switch=  2.50D-03 Rises=F DC=  5.34D-05 SmlDif=  1.00D-05
 RMS Error=  0.3828068028D-03 NUsed= 2 EDIIS=F
 DidBck=F Rises=F RFO-DIIS coefs:    1.03147   -0.03147
 Iteration  1 RMS(Cart)=  0.00811566 RMS(Int)=  0.00002642
 Iteration  2 RMS(Cart)=  0.00003978 RMS(Int)=  0.00000328
 Iteration  3 RMS(Cart)=  0.00000000 RMS(Int)=  0.00000328
 ITry= 1 IFail=0 DXMaxC= 2.62D-02 DCOld= 1.00D+10 DXMaxT= 3.00D-01 DXLimC= 3.00D+00 Rises=F
 Variable       Old X    -DE/DX   Delta X   Delta X   Delta X     New X
                                 (Linear)    (Quad)   (Total)
    R1        2.86445  -0.00049   0.00011  -0.00136  -0.00126   2.86319
    R2        2.06469   0.00006   0.00001   0.00020   0.00021   2.06490
    R3        2.06669   0.00001   0.00002   0.00009   0.00011   2.06680
    R4        2.07191  -0.00006   0.00002  -0.00014  -0.00012   2.07178
    R5        2.41131   0.00027   0.00019   0.00087   0.00107   2.41238
    R6        2.91376  -0.00026   0.00018  -0.00046  -0.00028   2.91348
    R7        1.93810   0.00025   0.00010   0.00085   0.00096   1.93905
    R8        2.89902  -0.00019   0.00004  -0.00057  -0.00053   2.89849
    R9        2.89160  -0.00006   0.00006  -0.00005   0.00001   2.89160
   R10        2.72415   0.00040   0.00016   0.00145   0.00161   2.72577
   R11        2.06650  -0.00001   0.00001  -0.00001  -0.00001   2.06649
   R12        2.06494   0.00005   0.00001   0.00017   0.00018   2.06512
   R13        2.06744  -0.00003   0.00002  -0.00005  -0.00003   2.06741
   R14        2.06724  -0.00000   0.00002   0.00004   0.00005   2.06730
   R15        2.06341  -0.00001   0.00001  -0.00002  -0.00001   2.06340
   R16        2.06714  -0.00002   0.00001  -0.00005  -0.00004   2.06710
   R17        1.82783   0.00018   0.00021   0.00088   0.00109   1.82892
    A1        1.92975  -0.00016  -0.00004  -0.00124  -0.00128   1.92847
    A2        1.93426   0.00003   0.00003   0.00036   0.00039   1.93465
    A3        1.93060  -0.00011   0.00003  -0.00059  -0.00056   1.93004
    A4        1.91148   0.00005  -0.00004   0.00017   0.00013   1.91161
    A5        1.87238   0.00011   0.00002   0.00058   0.00061   1.87298
    A6        1.88375   0.00008  -0.00000   0.00078   0.00077   1.88453
    A7        2.18385   0.00017   0.00009   0.00091   0.00098   2.18483
    A8        2.02887  -0.00013   0.00006  -0.00041  -0.00037   2.02850
    A9        2.07039  -0.00005  -0.00015  -0.00062  -0.00078   2.06961
   A10        1.92622  -0.00029  -0.00015  -0.00223  -0.00238   1.92385
   A11        1.93163  -0.00006   0.00006  -0.00026  -0.00020   1.93142
   A12        1.95520   0.00005  -0.00001   0.00095   0.00093   1.95613
   A13        1.88609  -0.00005   0.00008  -0.00097  -0.00089   1.88520
   A14        1.93214   0.00010  -0.00002   0.00117   0.00115   1.93329
   A15        1.83427  -0.00008  -0.00004  -0.00133  -0.00137   1.83291
   A16        1.92011   0.00003  -0.00006   0.00024   0.00018   1.92030
   A17        1.90975  -0.00008  -0.00003  -0.00062  -0.00064   1.90911
   A18        1.93998  -0.00001   0.00000  -0.00006  -0.00006   1.93993
   A19        1.93295  -0.00001   0.00004   0.00007   0.00011   1.93306
   A20        1.88257   0.00004  -0.00003   0.00006   0.00003   1.88259
   A21        1.89738   0.00005   0.00000   0.00035   0.00035   1.89774
   A22        1.90003   0.00002   0.00001   0.00021   0.00022   1.90026
[...]
 4,0.0208079,0.0240834,0.043217,0.0443115,-0.0470341,0.023753,0.0590801
 ,-0.0341586,-0.0414055,-0.0584854,-0.0663597,0.0088899,0.0431762,0.047
 5863,-0.073391,-0.0318414,0.0094457,-0.6495594,-0.048829,-0.0142378,-0
 .072242,-0.9123465,0.0064151,-0.0174986,-0.0044252,-0.2779808,0.095743
 5,-0.0288479,-0.0248373,-0.0584716,-0.0412915,-0.0357156,0.0032157,-0.
 0148536,0.0672165,-0.0754897,0.0515164,0.0266818,0.0802274,0.0236184,-
 0.0515089,0.0872682,-0.0557943,-0.0022537,0.0469883,-0.0489346,0.00812
 23,-0.0135762,0.0456744,0.0679143,-0.0008087,0.0534939,-0.0709165,-0.0
 520219,0.2170988,0.1074528,0.1131906,0.1534679,-0.034233,-0.0126582,0.
 0218578,0.248249,-0.0527201,0.0860835,0.0600071,0.0921919,0.001327,-0.
 0376952,0.0446106,-0.0268199,0.0194854,-0.0504613,-0.0270167,-0.105987
 9,-0.0298428,0.0594786,-0.0070782,-0.0846534,0.0006154,-0.0425061,0.04
 84741,-0.0448167,0.0121307,-0.0575011,-0.1021412,0.0344523,-0.0005221,
 -0.0006663,0.0425915,0.0293046,-0.0285164,0.0530096,-0.0304413,0.05002
 18,0.0478227,0.0172649,0.043814,-0.1187628,0.0369523,-0.0511722,-0.002
 2156,-0.0774298,-0.0748509,0.0044979,-0.0082723,0.0258081,0.0566601,-0
 .0719977,0.0844655,0.0160783,0.112317,-0.0253261,-0.0308113,0.0399971,
 -0.0460122,0.0317071,0.31537,-0.0185627,0.0229882,-0.0141913,0.3141854
 ,-0.0168909,0.0320494,0.0250958,0.0669689\Polar=64.6113819,-4.5326869,
 59.8886288,0.6859171,6.7309508,63.9164731\PG=C01 [X(C5H11N1O1)]\NImag=
 0\\0.50681807,-0.02401895,0.56764131,-0.04997709,0.02085612,0.52962916
 ,-0.17104176,0.00300947,-0.03527784,0.48181040,-0.00129520,-0.08696416
 ,-0.00469055,-0.03063164,0.50580121,-0.04568699,-0.00094639,-0.1056327
 7,0.09418118,0.31224191,0.62437289,-0.00142022,-0.01596996,-0.03470335
 ,-0.11821360,-0.00576990,-0.03861494,0.42103415,0.00004639,0.01386361,
 -0.02498245,-0.04630022,-0.28093035,-0.28087524,-0.13407866,0.42668060
 ,-0.01467619,-0.03548095,-0.01424241,-0.08525147,-0.25998453,-0.392904
 30,0.02399750,0.34458144,0.46882660,-0.02062834,0.01523300,0.00602687,
 -0.14649422,0.03413729,0.00952077,0.00785896,0.00081780,0.00820293,0.4
 9365529,0.00116385,0.00597236,0.00196838,0.04146248,-0.08399740,-0.009
 28783,0.01176596,-0.02098340,-0.01194191,-0.01039261,0.43815298,-0.012
 80658,0.00644941,0.01029301,0.00557748,-0.00110839,-0.08661654,0.02287
 980,-0.01940001,-0.01748102,0.01895975,0.00270428,0.51899388,-0.000418
 14,0.00106745,-0.00109791,-0.00562306,-0.00332819,0.02632478,-0.003251
 76,0.00081149,0.00142851,-0.08789101,-0.00342044,0.02448981,0.57837379
 ,0.00066695,-0.00138453,0.00073351,0.00281820,0.00810262,-0.01809071,0
 .00227334,-0.00223545,-0.00229994,0.00405252,-0.07156048,0.00020424,-0
 .00238915,0.58882738,0.00025150,-0.00044659,0.00107310,0.00946877,-0.0
 0575141,-0.01349237,0.00070658,0.00188817,0.00081048,0.02162566,0.0189
 7749,-0.17153735,0.03348807,0.01917393,0.47983283,-0.00119491,0.002212
 71,0.00159932,-0.02725483,0.00511606,-0.01465882,-0.00327580,-0.000268
 67,-0.00139913,-0.14319868,-0.00138766,-0.04809429,0.00715464,0.002221
 83,0.00006487,0.51283038,0.00246810,-0.00215140,-0.00285280,0.01769627
 ,0.00425489,0.01302105,0.00157268,-0.00168702,0.00090029,0.00569144,-0
 .07484920,0.00353444,0.00561701,0.00286381,0.00298408,-0.00696553,0.59
 617575,0.00202656,-0.00220453,-0.00104328,0.00507398,0.00337234,0.0084
 4141,0.00139383,-0.00027223,-0.00192389,-0.05137384,-0.00505176,-0.120
 79388,-0.02623123,-0.00167848,-0.02814081,-0.05619565,0.00034002,0.547
 84511,-0.00155375,-0.00088305,-0.00208243,0.00904546,0.01404975,-0.000
 71000,-0.00020574,0.00213715,0.00064813,-0.07625103,-0.03282806,-0.013
 43672,-0.00270513,-0.01648982,0.00410629,-0.01431499,-0.04011396,-0.00
 053266,0.09839673,0.00069193,0.00115434,-0.00121009,-0.01336243,-0.045
 33270,-0.00118020,0.00482004,-0.00560972,-0.00018748,-0.04052409,-0.17
 509780,-0.02225835,-0.01070405,-0.02186794,0.00785262,-0.01275259,-0.0
 2436237,-0.00029843,0.09448576,0.32859114,-0.00107748,0.00057689,0.000
 53437,-0.00350114,-0.01018157,0.00159407,0.00073313,-0.00158239,0.0017
 5289,0.00387558,0.01564233,-0.08951864,0.01518639,0.04334805,-0.006194
 88,-0.00875604,-0.02303869,0.00139394,-0.04986454,-0.10874427,0.568687
 91,-0.06141943,-0.05205615,-0.00692490,-0.00106025,-0.02963222,-0.0023
 3130,-0.00419213,0.00259563,-0.00599980,-0.00051613,-0.00211483,-0.000
 21993,-0.00014253,0.00015067,-0.00005743,0.00017103,0.00033922,-0.0002
 1900,0.00059151,0.00190310,0.00035918,0.06161106,-0.05303387,-0.299492
 66,-0.04655654,-0.00217318,-0.00050920,-0.00275814,-0.00031872,0.00040
 797,0.00112384,-0.00032007,-0.00080219,-0.00063418,-0.00025975,0.00006
 112,-0.00028952,-0.00014275,-0.00009793,0.00019256,0.00285360,-0.00128
 135,0.00075813,0.05814739,0.32421929,-0.00764422,-0.04786353,-0.052705
 51,-0.00225751,-0.01890886,-0.00443201,-0.00359070,0.00164394,-0.00392
 134,-0.00002198,-0.00102459,0.00015544,0.00028628,0.00026846,0.0003476
 5,0.00008004,0.00015568,-0.00017511,0.00163654,0.00091099,-0.00043751,
 0.01138514,0.05082977,0.05753239,-0.20034348,0.08344218,0.10171604,-0.
 02309327,0.01381493,0.01537519,0.00339352,0.00137795,0.00099706,-0.002
 67734,-0.00272187,-0.00390369,0.00040091,-0.00005910,-0.00058537,-0.00
 074228,0.00126969,0.00089094,0.00063884,0.00016383,0.00022283,0.006508
 48,-0.00241814,-0.00490578,0.21760400,0.08441072,-0.09549654,-0.057588
 06,-0.00215544,-0.00081905,0.00160539,-0.00148500,0.00039743,0.0009568
 4,-0.00070004,-0.00019474,-0.00052842,-0.00020021,0.00023694,-0.000050
 21,-0.00005233,0.00013677,-0.00001909,0.00121967,0.00032360,0.00045401
 ,0.02422465,-0.00932463,-0.01546035,-0.09286912,0.09751312,0.10390318,
 -0.05809758,-0.11407595,-0.01649194,0.00752898,0.00717822,0.00004272,0
 .00241886,0.00198491,-0.00267797,-0.00113682,-0.00212832,0.00000740,-0
 .00039218,-0.00063107,-0.00056603,0.00067905,0.00055128,0.00028731,-0.
 00014301,0.00006914,0.00295899,-0.00061562,-0.00315421,-0.10931587,0.0
 6327853,0.12260571,-0.04824880,-0.00799779,0.01851334,0.00622506,0.014
 09234,-0.02654888,-0.00415816,-0.00390597,0.00174677,0.00014981,-0.000
 65996,0.00056123,-0.00111648,0.00069566,0.00033654,-0.00017954,-0.0001
 5946,0.00016880,-0.00001719,-0.00032279,0.00010400,-0.00102554,-0.0024
 8647,0.00662789,-0.00175716,-0.01266177,0.02109949,0.05035794,-0.00973
 105,-0.09873688,0.10798741,0.00078086,0.00173447,-0.00582546,-0.001935
 80,-0.00174990,0.00031342,-0.00015753,-0.00057249,0.00076318,0.0004332
 4,0.00053539,0.00069910,0.00014218,0.00004350,-0.00015096,0.00135670,-
 0.00011849,-0.00035704,-0.00306846,-0.01344586,0.02944486,0.00040167,0
 .00677757,-0.01334138,0.01196544,0.10528140,0.02297792,0.10962282,-0.2
 5058877,0.00072207,0.00487943,-0.01688936,-0.00361768,-0.00173004,0.00
 228751,-0.00025048,-0.00034999,-0.00059487,0.00064191,-0.00052981,-0.0
 0047276,-0.00012195,0.00001246,0.00007550,0.00004661,-0.00017593,0.000
 05257,-0.00015496,-0.00278347,0.00609490,0.00093252,0.00760043,-0.0131
 7395,-0.02239757,-0.11790443,0.27319661,0.00218118,-0.00614897,-0.0000
 6571,-0.00502025,-0.00754534,-0.01136913,-0.29588797,0.17436998,0.0703
 2426,0.00371411,0.00209974,-0.00373692,0.00064461,-0.00041264,-0.00009
 807,0.00001254,-0.00007688,0.00036075,-0.00021230,0.00269366,0.0010570
 6,-0.00072931,-0.00013415,-0.00083743,0.00051579,0.00007078,0.00057710
 ,0.00064321,0.00028768,0.00035991,0.29380385,-0.00118037,-0.00494959,0
 .00662812,0.02986886,-0.01986830,-0.00874133,0.13572044,-0.13008116,-0
 .03727807,0.00253716,0.00752819,-0.01210716,0.00236891,-0.00241930,-0.
 00010321,-0.00113695,-0.00015654,-0.00020982,-0.00151172,0.00193638,0.
 00133852,-0.00074340,0.00028554,-0.00013914,-0.00226683,0.00048182,-0.
 00055096,0.00122331,0.00061486,0.00141513,-0.16494765,0.14633705,0.003
 87867,0.00652156,-0.00388500,0.03345043,-0.02866465,-0.01504354,0.0276
 3288,-0.01873729,-0.04572193,-0.00766097,-0.00680135,0.00501770,-0.000
 89439,0.00127734,0.00035454,-0.00021825,0.00064154,0.00010279,0.001505
 93,-0.00420654,-0.00131399,0.00103847,0.00023948,0.00140254,-0.0011698
 6,-0.00025850,0.00013037,-0.00112369,-0.00052611,-0.00077860,-0.056956
 91,0.05046302,0.05942481,-0.00000816,0.00043957,-0.00012838,0.00058330
 ,-0.00115314,0.00136835,-0.00021766,0.00028495,0.00030739,-0.00772012,
 0.00585014,0.00237614,-0.20008358,0.12343930,0.04995787,0.00037842,-0.
 00031030,-0.00126561,0.00068871,-0.00039505,-0.00078805,0.00003150,0.0
 0004583,-0.00012429,0.00003203,-0.00006579,0.00020902,0.00002744,-0.00
 030547,0.00024986,0.00005484,0.00020769,-0.00003562,0.21393117,-0.0001
 6740,0.00015769,-0.00010223,-0.00032981,-0.00033590,0.00081446,-0.0000
 6840,0.00065656,0.00014132,-0.00498610,0.00235346,0.00230081,0.1240946
 4,-0.14797937,-0.04187031,-0.00015168,-0.00005974,0.00005463,-0.000014
 18,0.00119545,-0.00022095,0.00004186,0.00003046,-0.00006631,0.00002783
 ,-0.00003620,0.00005134,-0.00019552,-0.00005333,0.00003411,-0.00002782
 ,0.00012305,-0.00001993,-0.13607780,0.15599338,-0.00034024,0.00001815,
 0.00008777,-0.00143197,0.00390254,-0.00533877,0.00132596,-0.00091330,-
 0.00119819,0.02719801,-0.02107000,-0.01173232,0.04880236,-0.03991876,-
 0.06243791,0.00126797,-0.00097290,0.00134903,-0.00213527,-0.00016488,0
 .00270150,0.00008495,0.00005491,-0.00003724,0.00004027,-0.00009340,0.0
 0022634,0.00026855,-0.00023782,0.00028799,-0.00016485,-0.00106996,0.00
 041450,-0.05513257,0.04450856,0.07001389,-0.00110111,0.00076103,0.0005
 6547,0.00027730,0.00030616,-0.00043284,0.00013664,-0.00003571,0.000005
 24,0.00698731,0.00168897,0.00586505,-0.20897616,-0.03726985,-0.1279448
 1,0.00015514,-0.00029329,0.00107752,0.00059363,0.00090397,-0.00039280,
 -0.00028772,0.00002100,0.00010197,0.00004203,-0.00006053,0.00026390,-0
 .00079745,0.00022740,0.00078637,0.00001907,-0.00011017,0.00004862,-0.0
 1778423,-0.00561918,-0.01461819,0.22649758,0.00015283,0.00045965,-0.00
 036544,-0.00080096,-0.00014846,-0.00074397,0.00030818,0.00011666,-0.00
 001972,0.00483490,-0.00092187,0.00377444,-0.03687330,-0.05651449,-0.02
 999292,-0.00037789,-0.00028980,0.00133202,0.00070944,0.00069071,-0.000
 08547,-0.00020517,-0.00000866,0.00011449,-0.00004200,-0.00016951,0.000
 22840,0.00069281,-0.00037585,0.00002784,0.00000981,-0.00002423,-0.0000
 5499,0.01538231,0.00399430,0.01335341,0.03972733,0.05570339,0.00004016
 ,0.00011406,-0.00013031,-0.00181929,0.00046068,0.00011638,0.00039543,-
 0.00007998,0.00016093,-0.02627141,-0.00653724,-0.01927969,-0.12534808,
 -0.02853830,-0.14838812,0.00377882,0.00167461,-0.00560492,0.00039510,-
 0.00103642,0.00288422,0.00019963,0.00022823,-0.00032062,0.00007542,0.0
 0004088,0.00049261,0.00046553,-0.00062522,0.00049666,0.00012957,-0.000
 07591,-0.00005793,0.00684872,0.00227035,0.00550542,0.13813870,0.032083
 95,0.16172584,-0.00013541,-0.00021494,0.00025992,0.00010233,-0.0006683
 2,-0.00008551,0.00005822,0.00035846,0.00000333,-0.00451014,-0.00720264
 ,-0.00131674,-0.07189562,-0.07502410,0.00876115,-0.00011025,0.00027525
 ,-0.00040195,0.00010385,-0.00074078,0.00256338,0.00020385,0.00014082,-
 0.00006823,-0.00001121,0.00017059,-0.00002900,-0.00022807,-0.00009812,
 -0.00018907,-0.00008380,-0.00002272,0.00010123,0.00914207,0.02369907,-
 0.00377358,-0.00659384,-0.02367310,0.00442608,0.07340861,-0.00018275,0
 .00012531,0.00014595,0.00044564,-0.00040310,-0.00029324,0.00001803,0.0
 0062611,0.00023584,-0.00055925,-0.00508461,-0.00188724,-0.07550446,-0.
 28886196,0.02761667,-0.00017193,-0.00023440,-0.00052163,-0.00022198,0.
 00050908,0.00201182,0.00014974,0.00002541,-0.00006658,-0.00002424,0.00
 003375,0.00002582,-0.00014264,-0.00007415,-0.00003740,-0.00006734,0.00
 003925,0.00005824,-0.00683767,-0.01656310,0.00217650,-0.00022381,-0.00
 349897,0.00022724,0.08349295,0.31238394,0.00008261,-0.00007909,-0.0001
 0071,0.00020633,0.00065428,0.00115777,-0.00028231,-0.00060180,0.000100
 80,0.00709914,0.02810553,0.00168996,0.00783651,0.02471480,-0.05276478,
 0.00007908,0.00015835,0.00112164,0.00206459,0.00284465,-0.00771473,-0.
 00010431,0.00005495,-0.00009482,0.00004328,0.00001397,0.00002696,0.000
 03533,-0.00005825,-0.00003551,0.00007840,0.00010507,-0.00019940,-0.003
 56526,-0.00750716,0.00016077,-0.00420529,-0.01978022,0.00285693,-0.010
 17665,-0.03002611,0.05425808,0.00015243,-0.00012581,0.00004024,0.00080
 697,-0.00026964,-0.00049848,-0.00121539,0.00070640,-0.00003882,0.00763
 158,0.00520779,-0.02613344,-0.00436715,-0.00061248,-0.00235555,-0.0675
 8978,-0.01468852,0.06778323,0.00162681,0.00248909,0.00079959,0.0000450
 4,0.00002785,-0.00001882,0.00002709,0.00002770,0.00005590,0.00007529,-
 0.00004809,0.00001426,0.00016233,-0.00003519,0.00009956,0.00001707,-0.
 00028059,-0.00011367,0.00051355,0.00024879,-0.00170095,-0.00009754,0.0
 0014822,0.00007577,0.07144719,-0.00003256,-0.00028605,-0.00015816,-0.0
 0004575,0.00026793,0.00107698,0.00045804,0.00017883,-0.00027424,-0.000
 43037,-0.00175549,-0.00301497,0.00016426,-0.00001093,-0.00040458,-0.01
 239811,-0.05584268,0.04634629,0.00103476,0.00097918,-0.00064463,-0.000
 13415,-0.00001751,-0.00007160,0.00004226,-0.00001331,0.00001310,-0.000
 04088,0.00000526,-0.00003054,-0.00038371,0.00001295,-0.00026675,-0.000
 21553,0.00005094,0.00018536,-0.00008366,0.00057086,0.00006705,0.000026
 81,0.00029417,-0.00031574,0.01567675,0.05598438,-0.00015418,0.00018929
 ,0.00012267,0.00091123,-0.00186611,-0.00076985,0.00080467,-0.00050672,
 0.00125238,0.00638044,0.00563960,-0.01969549,-0.00469425,-0.00097475,-
 0.00137143,0.06606931,0.04762019,-0.28660055,0.00057508,-0.00007885,0.
 00246229,0.00005267,0.00007175,-0.00000679,-0.00009267,0.00002685,0.00
 003116,0.00012027,-0.00007524,0.00007018,0.00018923,0.00009996,0.00026
 773,-0.00002213,0.00002807,0.00045373,0.00030730,0.00035029,-0.0013296
 0,0.00007460,0.00007186,0.00024180,-0.07110358,-0.05095104,0.31214286,
 -0.00007644,-0.00009817,0.00019644,0.00037034,-0.00062379,-0.00067758,
 -0.00047608,0.00120862,-0.00013028,-0.00586514,-0.02316684,0.00523911,
 0.00074587,-0.00013878,0.00094415,-0.08656835,-0.09323158,0.00090454,-
 0.00601326,-0.00362373,-0.00417287,0.00022247,-0.00002315,0.00009181,-
 0.00000178,0.00006175,0.00003964,0.00009149,0.00003327,0.00005444,0.00
 032181,-0.00002246,0.00035070,0.00002279,0.00013004,-0.00009638,-0.000
 08549,0.00023355,0.00022615,0.00028849,0.00029264,-0.00043412,-0.00365
 814,-0.00753703,0.00025379,0.08969366,-0.00012358,0.00010355,0.0001265
 0,0.00007030,-0.00048710,-0.00093520,0.00182611,-0.00028103,-0.0000195
 4,-0.00004681,-0.00251939,0.00050514,0.00023067,-0.00005231,0.00053133
 ,-0.09627124,-0.28245867,0.00793603,-0.00121593,0.00135684,-0.00068562
 ,0.00011208,0.00000079,0.00004290,-0.00006816,0.00003125,-0.00000795,-
 0.00001084,0.00003887,0.00001138,0.00026368,0.00019630,0.00006149,-0.0
 0012950,-0.00007693,-0.00002104,0.00007939,0.00022501,-0.00008888,0.00
 009010,0.00056097,-0.00019536,-0.00142167,-0.00512637,-0.00015829,0.10
 407532,0.30481010,0.00001446,-0.00012779,-0.00026970,0.00023610,0.0002
 2015,0.00027589,-0.00019385,0.00023108,0.00020358,-0.00351084,-0.01796
 583,0.00146934,0.00048046,-0.00036614,0.00066052,0.00189513,0.00876559
 ,-0.04744959,-0.00541149,-0.00304481,-0.00180354,0.00005856,-0.0000409
 9,0.00002803,0.00004473,0.00003149,0.00003294,-0.00004894,0.00003337,-
 0.00002811,-0.00023317,-0.00005970,-0.00005455,-0.00000953,-0.00009023
 ,-0.00009590,0.00016383,0.00017825,0.00028873,-0.00029208,0.00018082,-
 0.00055445,0.01213797,0.02922019,-0.00035798,-0.00048876,-0.00838762,0
 .04896009,-0.00073277,0.00100501,0.00094035,-0.00268572,-0.00152954,-0
 .00393541,0.00041132,-0.00016463,-0.00019668,-0.02088554,0.01909676,0.
 00796125,0.00045466,-0.00007878,0.00166628,-0.17637165,0.12024345,0.05
 471263,0.00365922,-0.00040459,0.00087109,-0.00003359,-0.00005307,-0.00
 001948,-0.00044817,-0.00002160,-0.00030693,-0.00004750,0.00003296,-0.0
 0007952,-0.00001019,0.00005640,-0.00008078,0.00075145,-0.00017469,-0.0
 0090262,0.00026262,-0.00035629,0.00003867,0.00007468,-0.00011220,-0.00
 002689,-0.00574657,0.00449059,0.00150313,0.01049611,-0.00807459,-0.004
 51465,0.19158135,-0.00010732,0.00015459,0.00000223,-0.00085300,-0.0001
 8271,-0.00087251,0.00087929,0.00010733,-0.00003499,-0.00327296,-0.0003
 1883,-0.00017214,0.00000448,-0.00021540,-0.00022342,0.12251989,-0.1633
 7133,-0.04974870,-0.00028442,0.00155887,0.00030142,0.00002197,0.000070
 76,0.00002467,-0.00004298,0.00005202,0.00004617,0.00003118,-0.00000794
 ,0.00002807,0.00023730,0.00013410,0.00013508,-0.00004866,0.00038246,0.
 00053369,-0.00026629,0.00015337,0.00014670,0.00012025,0.00002760,-0.00
 000933,-0.00626339,0.00481671,0.00177992,0.02158685,-0.01651578,-0.008
 70091,-0.13413374,0.17319482,-0.00074047,0.00078589,0.00089058,-0.0028
 5741,-0.00171328,-0.00340251,0.00105276,-0.00076410,0.00053435,-0.0154
 7773,0.01440981,0.00453348,-0.00078438,0.00085759,0.00110451,0.0559875
 7,-0.05136217,-0.07230496,0.00172016,0.00104169,0.00051311,0.00007475,
 0.00000485,0.00004156,-0.00041131,0.00001315,-0.00019599,0.00006253,0.
 00001940,-0.00000191,0.00021705,0.00003599,0.00025204,-0.00002583,-0.0
 0019714,-0.00063414,0.00024266,-0.00014495,0.00017430,-0.00004000,0.00
 005140,-0.00010527,0.02030036,-0.02075930,-0.00654352,-0.00168287,0.00
 151434,-0.00072999,-0.05787499,0.05659976,0.07597115,-0.00082895,0.000
 34337,0.00039962,0.00126579,0.00093040,-0.00122039,-0.00037830,0.00003
 905,0.00003124,-0.00335936,-0.00444079,0.01573869,-0.00130386,-0.00384
 379,-0.00033649,0.00009892,0.00066640,0.00182717,-0.01407136,-0.025321
 26,0.04278069,0.00002169,0.00012682,-0.00072123,-0.00008800,0.00008598
 ,-0.00005689,0.00000564,-0.00031689,0.00002536,-0.00012951,-0.00000532
 ,0.00003398,0.00015295,0.00009975,-0.00027872,0.00014112,0.00002874,-0
 .00001825,0.00028377,-0.00049895,0.00119382,0.00016920,-0.00059173,-0.
 00117492,0.00049166,0.00061468,-0.00032792,-0.00072970,-0.00012845,0.0
 0023715,0.01825830,0.00027228,-0.00017061,0.00005811,0.00050034,-0.000
 18269,0.00179046,-0.00001566,0.00052295,-0.00073164,-0.00591428,-0.015
 34911,0.04087491,-0.00211258,-0.00752509,-0.00059122,-0.00013535,0.002
 08636,0.00058175,-0.02428371,-0.06462521,0.08110946,0.00026805,-0.0001
 2134,0.00016521,-0.00002789,0.00006970,0.00001526,-0.00011663,0.000103
 59,-0.00009005,-0.00028815,-0.00019038,0.00013836,-0.00011088,0.000166
 83,-0.00027106,0.00024724,0.00003789,-0.00033180,-0.00072959,0.0000946
 8,0.00192144,-0.00078722,-0.00010887,-0.00126675,0.00084352,0.00019392
 ,-0.00007693,0.00017854,-0.00004064,-0.00039295,0.03221198,0.08503801,
 -0.00007164,0.00011226,0.00004373,-0.00093901,-0.00039097,0.00138538,0
 .00003758,-0.00031793,-0.00052135,-0.00164392,-0.00628011,-0.00277472,
 0.00007775,0.00221114,0.00124786,-0.00081193,-0.00226078,0.00315628,0.
 06118741,0.13007930,-0.47566270,-0.00020071,0.00011998,-0.00031734,0.0
 0004630,-0.00002352,0.00002985,0.00000881,-0.00015883,0.00000193,0.000
 16886,0.00024946,-0.00031206,-0.00022008,-0.00012939,0.00027352,0.0000
 2731,-0.00025537,0.00040918,0.00018312,0.00003005,-0.00004504,0.000656
 44,-0.00001743,-0.00036960,-0.00061790,-0.00022959,-0.00057529,0.00024
 455,0.00016429,-0.00009679,-0.05813294,-0.12290256,0.47412716\\-0.0000
 0500,-0.00000003,-0.00000698,-0.00000415,-0.00001217,0.00000530,0.0000
 1017,0.00000860,0.00001107,-0.00000241,-0.00001779,-0.00001762,-0.0000
 0168,-0.00000558,0.00000152,0.00000571,0.00000267,0.00000521,0.0000059
 2,0.00002338,-0.00001681,-0.00000066,-0.00000558,0.00001178,-0.0000028
 6,-0.00000334,0.00000826,-0.00000369,-0.00000503,0.00000364,-0.0000055
 5,0.00000463,-0.00000020,-0.00000274,-0.00000025,-0.00000372,-0.000005
 40,-0.00000428,-0.00000059,-0.00000464,-0.00000047,-0.00000514,0.00000
 564,0.00000706,-0.00000436,0.00000357,0.00000552,-0.00000780,0.0000048
 4,0.00000464,-0.00000738,0.00000291,-0.00000199,0.00002382\\\@


 THERE IS NO SCIENCE WITHOUT FANCY, NOR ART WITHOUT FACTS.
     -- VLADIMIR NABAKOV
 Job cpu time:       0 days  0 hours  8 minutes 42.3 seconds.
 File lengths (MBytes):  RWF=     53 Int=      0 D2E=      0 Chk=      3 Scr=      1
 Normal termination of Gaussian 09 at Thu Sep  8 15:01:49 2022.
