 Entering Gaussian System, Link 0=g09
 Input=B3LYP6-31Gxx.Frag_184.gjf
 Output=B3LYP6-31Gxx.Frag_184.log
 Initial command:
 /public/home/users/caep010/software/Gaussian09/g09/l1.exe "/public/home/users/caep010/.cache/gau_scr/Gau-43287.inp" -scrdir="/public/home/users/caep010/.cache/gau_scr/"
 Entering Link 1 = /public/home/users/caep010/software/Gaussian09/g09/l1.exe PID=     43288.
  
 Copyright (c) 1988,1990,1992,1993,1995,1998,2003,2009,2015,
            Gaussian, Inc.  All Rights Reserved.
  
 This is part of the Gaussian(R) 09 program.  It is based on
 the Gaussian(R) 03 system (copyright 2003, Gaussian, Inc.),
 the Gaussian(R) 98 system (copyright 1998, Gaussian, Inc.),
 the Gaussian(R) 94 system (copyright 1995, Gaussian, Inc.),
 the Gaussian 92(TM) system (copyright 1992, Gaussian, Inc.),
 the Gaussian 90(TM) system (copyright 1990, Gaussian, Inc.),
 the Gaussian 88(TM) system (copyright 1988, Gaussian, Inc.),
 the Gaussian 86(TM) system (copyright 1986, Carnegie Mellon
 University), and the Gaussian 82(TM) system (copyright 1983,
 Carnegie Mellon University). Gaussian is a federally registered
 trademark of Gaussian, Inc.
  
 This software contains proprietary and confidential information,
 including trade secrets, belonging to Gaussian, Inc.
  
 This software is provided under written license and may be
 used, copied, transmitted, or stored only in accord with that
 written license.
  
 The following legend is applicable only to US Government
 contracts under FAR:
  
                    RESTRICTED RIGHTS LEGEND
  
 Use, reproduction and disclosure by the US Government is
 subject to restrictions as set forth in subparagraphs (a)
 and (c) of the Commercial Computer Software - Restricted
 Rights clause in FAR 52.227-19.
  
 Gaussian, Inc.
 340 Quinnipiac St., Bldg. 40, Wallingford CT 06492
  
  
 ---------------------------------------------------------------
 Warning -- This program may not be used in any manner that
 competes with the business of Gaussian, Inc. or will provide
 assistance to any competitor of Gaussian, Inc.  The licensee
 of this program is prohibited from giving any competitor of
 Gaussian, Inc. access to this program.  By using this program,
 the user acknowledges that Gaussian, Inc. is engaged in the
 business of creating and licensing software in the field of
 computational chemistry and represents and warrants to the
 licensee that it is not a competitor of Gaussian, Inc. and that
 it will not use this program in any manner prohibited above.
 ---------------------------------------------------------------
  

 Cite this work as:
 Gaussian 09, Revision E.01,
 M. J. Frisch, G. W. Trucks, H. B. Schlegel, G. E. Scuseria, 
 M. A. Robb, J. R. Cheeseman, G. Scalmani, V. Barone, B. Mennucci, 
 G. A. Petersson, H. Nakatsuji, M. Caricato, X. Li, H. P. Hratchian, 
 A. F. Izmaylov, J. Bloino, G. Zheng, J. L. Sonnenberg, M. Hada, 
 M. Ehara, K. Toyota, R. Fukuda, J. Hasegawa, M. Ishida, T. Nakajima, 
 Y. Honda, O. Kitao, H. Nakai, T. Vreven, J. A. Montgomery, Jr., 
 J. E. Peralta, F. Ogliaro, M. Bearpark, J. J. Heyd, E. Brothers, 
 K. N. Kudin, V. N. Staroverov, T. Keith, R. Kobayashi, J. Normand, 
 K. Raghavachari, A. Rendell, J. C. Burant, S. S. Iyengar, J. Tomasi, 
 M. Cossi, N. Rega, J. M. Millam, M. Klene, J. E. Knox, J. B. Cross, 
 V. Bakken, C. Adamo, J. Jaramillo, R. Gomperts, R. E. Stratmann, 
 O. Yazyev, A. J. Austin, R. Cammi, C. Pomelli, J. W. Ochterski, 
 R. L. Martin, K. Morokuma, V. G. Zakrzewski, G. A. Voth, 
 P. Salvador, J. J. Dannenberg, S. Dapprich, A. D. Daniels, 
 O. Farkas, J. B. Foresman, J. V. Ortiz, J. Cioslowski, 
 and D. J. Fox, Gaussian, Inc., Wallingford CT, 2013.
 
 ******************************************
 Gaussian 09:  ES64L-G09RevE.01 30-Nov-2015
                21-Aug-2021 
 ******************************************
 %nproc=32
 Will use up to   32 processors via shared memory.
 %mem=180GB
 --------------------------------
 #P OPT=calcfc Freq B3LYP/6-31G**
 --------------------------------
 1/10=4,14=-1,18=20,19=15,26=3,38=1/1,3;
 2/9=110,12=2,17=6,18=5,40=1/2;
 3/5=1,6=6,7=101,11=2,16=1,25=1,30=1,71=2,74=-5,140=1/1,2,3;
 4//1;
 5/5=2,38=5/2;
 8/6=4,10=90,11=11/1;
 11/6=1,8=1,9=11,15=111,16=1/1,2,10;
 10/6=1,13=1/2;
 6/7=2,8=2,9=2,10=2,28=1/1;
 7/10=1,18=20,25=1/1,2,3,16;
 1/10=4,14=-1,18=20,19=15,26=3/3(2);
 2/9=110/2;
 99//99;
 2/9=110/2;
 3/5=1,6=6,7=101,11=2,16=1,25=1,30=1,71=1,74=-5/1,2,3;
 4/5=5,16=3,69=1/1;
 5/5=2,38=5/2;
 7//1,2,3,16;
 1/14=-1,18=20,19=15,26=3/3(-5);
 2/9=110/2;
 6/7=2,8=2,9=2,10=2,19=2,28=1/1;
 99/9=1/99;
 Leave Link    1 at Sat Aug 21 02:19:00 2021, MaxMem= 24159191040 cpu:         3.2
 (Enter /public/home/users/caep010/software/Gaussian09/g09/l101.exe)
 --------
 Frag_184
 --------
 Symbolic Z-matrix:
 Charge =  0 Multiplicity = 1
 N                    -0.0839    1.5187    0.2657 
 C                    -0.0933    0.2452    0.0323 
 N                     1.1244   -0.5031    0.0575 
 N                    -1.328    -0.412    -0.2514 
 H                     0.8013    2.0313    0.4766 
 H                     1.1167   -1.53     -0.1307 
 H                     2.0362   -0.0373    0.2634 
 H                    -2.2231    0.1256   -0.2722 
 H                    -1.3504   -1.4383   -0.4414 
 
 NAtoms=      9 NQM=        9 NQMF=       0 NMMI=      0 NMMIF=      0
                NMic=       0 NMicF=      0.
                    Isotopes and Nuclear Properties:
 (Nuclear quadrupole moments (NQMom) in fm**2, nuclear magnetic moments (NMagM)
  in nuclear magnetons)

  Atom         1           2           3           4           5           6           7           8           9
 IAtWgt=          14          12          14          14           1           1           1           1           1
 AtmWgt=  14.0030740  12.0000000  14.0030740  14.0030740   1.0078250   1.0078250   1.0078250   1.0078250   1.0078250
 NucSpn=           2           0           2           2           1           1           1           1           1
 AtZEff=   0.0000000   0.0000000   0.0000000   0.0000000   0.0000000   0.0000000   0.0000000   0.0000000   0.0000000
 NQMom=    2.0440000   0.0000000   2.0440000   2.0440000   0.0000000   0.0000000   0.0000000   0.0000000   0.0000000
 NMagM=    0.4037610   0.0000000   0.4037610   0.4037610   2.7928460   2.7928460   2.7928460   2.7928460   2.7928460
 AtZNuc=   7.0000000   6.0000000   7.0000000   7.0000000   1.0000000   1.0000000   1.0000000   1.0000000   1.0000000
 Leave Link  101 at Sat Aug 21 02:19:00 2021, MaxMem= 24159191040 cpu:        10.5
 (Enter /public/home/users/caep010/software/Gaussian09/g09/l103.exe)

 GradGradGradGradGradGradGradGradGradGradGradGradGradGradGradGradGradGrad
 Berny optimization.
 Initialization pass.
                           ----------------------------
                           !    Initial Parameters    !
                           ! (Angstroms and Degrees)  !
 --------------------------                            --------------------------
 ! Name  Definition              Value          Derivative Info.                !
 --------------------------------------------------------------------------------
 ! R1    R(1,2)                  1.2947         calculate D2E/DX2 analytically  !
 ! R2    R(1,5)                  1.0444         calculate D2E/DX2 analytically  !
 ! R3    R(2,3)                  1.4295         calculate D2E/DX2 analytically  !
 ! R4    R(2,4)                  1.4272         calculate D2E/DX2 analytically  !
 ! R5    R(3,6)                  1.044          calculate D2E/DX2 analytically  !
 ! R6    R(3,7)                  1.0444         calculate D2E/DX2 analytically  !
 ! R7    R(4,8)                  1.0443         calculate D2E/DX2 analytically  !
 ! R8    R(4,9)                  1.044          calculate D2E/DX2 analytically  !
 ! A1    A(2,1,5)              121.6884         calculate D2E/DX2 analytically  !
 ! A2    A(1,2,3)              120.3665         calculate D2E/DX2 analytically  !
 ! A3    A(1,2,4)              119.6726         calculate D2E/DX2 analytically  !
 ! A4    A(3,2,4)              119.961          calculate D2E/DX2 analytically  !
 ! A5    A(2,3,6)              120.36           calculate D2E/DX2 analytically  !
 ! A6    A(2,3,7)              120.9114         calculate D2E/DX2 analytically  !
 ! A7    A(6,3,7)              118.7287         calculate D2E/DX2 analytically  !
 ! A8    A(2,4,8)              120.5578         calculate D2E/DX2 analytically  !
 ! A9    A(2,4,9)              120.4925         calculate D2E/DX2 analytically  !
 ! A10   A(8,4,9)              118.9497         calculate D2E/DX2 analytically  !
 ! D1    D(5,1,2,3)              0.0017         calculate D2E/DX2 analytically  !
 ! D2    D(5,1,2,4)           -179.997          calculate D2E/DX2 analytically  !
 ! D3    D(1,2,3,6)            179.9987         calculate D2E/DX2 analytically  !
 ! D4    D(1,2,3,7)             -0.0016         calculate D2E/DX2 analytically  !
 ! D5    D(4,2,3,6)             -0.0026         calculate D2E/DX2 analytically  !
 ! D6    D(4,2,3,7)            179.9971         calculate D2E/DX2 analytically  !
 ! D7    D(1,2,4,8)             -0.001          calculate D2E/DX2 analytically  !
 ! D8    D(1,2,4,9)           -179.9961         calculate D2E/DX2 analytically  !
 ! D9    D(3,2,4,8)           -179.9997         calculate D2E/DX2 analytically  !
 ! D10   D(3,2,4,9)              0.0052         calculate D2E/DX2 analytically  !
 --------------------------------------------------------------------------------
 Trust Radius=3.00D-01 FncErr=1.00D-07 GrdErr=1.00D-06
 Number of steps in this run=     38 maximum allowed number of steps=    100.
 GradGradGradGradGradGradGradGradGradGradGradGradGradGradGradGradGradGrad

 Leave Link  103 at Sat Aug 21 02:19:00 2021, MaxMem= 24159191040 cpu:         0.3
 (Enter /public/home/users/caep010/software/Gaussian09/g09/l202.exe)
                          Input orientation:                          
 ---------------------------------------------------------------------
 Center     Atomic      Atomic             Coordinates (Angstroms)
 Number     Number       Type             X           Y           Z
 ---------------------------------------------------------------------
      1          7           0       -0.083900    1.518700    0.265700
      2          6           0       -0.093300    0.245200    0.032300
      3          7           0        1.124400   -0.503100    0.057500
      4          7           0       -1.328000   -0.412000   -0.251400
      5          1           0        0.801300    2.031300    0.476600
      6          1           0        1.116700   -1.530000   -0.130700
      7          1           0        2.036200   -0.037300    0.263400
      8          1           0       -2.223100    0.125600   -0.272200
      9          1           0       -1.350400   -1.438300   -0.441400
 ---------------------------------------------------------------------
                    Distance matrix (angstroms):
                    1          2          3          4          5
     1  N    0.000000
     2  C    1.294746   0.000000
     3  N    2.364532   1.429469   0.000000
     4  N    2.354311   1.427194   2.473456   0.000000
     5  H    1.044422   2.046427   2.589058   3.321689   0.000000
     6  H    3.300476   2.154531   1.044032   2.690920   3.626451
     7  H    2.629822   2.160552   1.044387   3.423925   2.418582
     8  H    2.608877   2.154779   3.421947   1.044342   3.652313
     9  H    3.293609   2.153802   2.692236   1.043980   4.184574
                    6          7          8          9
     6  H    0.000000
     7  H    1.796927   0.000000
     8  H    3.730321   4.295933   0.000000
     9  H    2.488278   3.732104   1.798893   0.000000
 Stoichiometry    CH5N3
 Framework group  C1[X(CH5N3)]
 Deg. of freedom    21
 Full point group                 C1      NOp   1
 Largest Abelian subgroup         C1      NOp   1
 Largest concise Abelian subgroup C1      NOp   1
                         Standard orientation:                         
 ---------------------------------------------------------------------
 Center     Atomic      Atomic             Coordinates (Angstroms)
 Number     Number       Type             X           Y           Z
 ---------------------------------------------------------------------
      1          7           0        0.293715    1.358064    0.000008
      2          6           0       -0.003351    0.097858    0.000007
      3          7           0        1.031304   -0.888483   -0.000001
      4          7           0       -1.372419   -0.305300   -0.000013
      5          1           0        1.284601    1.688155   -0.000023
      6          1           0        0.791646   -1.904636    0.000018
      7          1           0        2.037911   -0.610119   -0.000032
      8          1           0       -2.135783    0.407389   -0.000012
      9          1           0       -1.626466   -1.317898    0.000047
 ---------------------------------------------------------------------
 Rotational constants (GHZ):     10.7477901      8.9816236      4.8928269
 Leave Link  202 at Sat Aug 21 02:19:00 2021, MaxMem= 24159191040 cpu:         1.2
 (Enter /public/home/users/caep010/software/Gaussian09/g09/l301.exe)
 Standard basis: 6-31G(d,p) (6D, 7F)
 Ernie: Thresh=  0.10000D-02 Tol=  0.10000D-05 Strict=F.
 There are    85 symmetry adapted cartesian basis functions of A   symmetry.
 There are    85 symmetry adapted basis functions of A   symmetry.
    85 basis functions,   147 primitive gaussians,    85 cartesian basis functions
    16 alpha electrons       16 beta electrons
       nuclear repulsion energy       120.3111774811 Hartrees.
 IExCor=  402 DFT=T Ex+Corr=B3LYP ExCW=0 ScaHFX=  0.200000
 ScaDFX=  0.800000  0.720000  1.000000  0.810000 ScalE2=  1.000000  1.000000
 IRadAn=      0 IRanWt=     -1 IRanGd=            0 ICorTp=0 IEmpDi=  4
 NAtoms=    9 NActive=    9 NUniq=    9 SFac= 1.00D+00 NAtFMM=   60 NAOKFM=F Big=F
 Integral buffers will be    131072 words long.
 Raffenetti 2 integral format.
 Two-electron integral symmetry is turned on.
 Leave Link  301 at Sat Aug 21 02:19:00 2021, MaxMem= 24159191040 cpu:         1.9
 (Enter /public/home/users/caep010/software/Gaussian09/g09/l302.exe)
 NPDir=0 NMtPBC=     1 NCelOv=     1 NCel=       1 NClECP=     1 NCelD=      1
         NCelK=      1 NCelE2=     1 NClLst=     1 CellRange=     0.0.
 One-electron integrals computed using PRISM.
 NBasis=    85 RedAO= T EigKep=  3.18D-03  NBF=    85
 NBsUse=    85 1.00D-06 EigRej= -1.00D+00 NBFU=    85
 Precomputing XC quadrature grid using
 IXCGrd= 4 IRadAn=           0 IRanWt=          -1 IRanGd=           0 AccXCQ= 0.00D+00.
 Generated NRdTot=       0 NPtTot=           0 NUsed=           0 NTot=          32
 NSgBfM=    85    85    85    85    85 MxSgAt=     9 MxSgA2=     9.
 Leave Link  302 at Sat Aug 21 02:19:01 2021, MaxMem= 24159191040 cpu:        10.6
 (Enter /public/home/users/caep010/software/Gaussian09/g09/l303.exe)
 DipDrv:  MaxL=1.
 Leave Link  303 at Sat Aug 21 02:19:01 2021, MaxMem= 24159191040 cpu:         0.9
 (Enter /public/home/users/caep010/software/Gaussian09/g09/l401.exe)
 ExpMin= 1.61D-01 ExpMax= 4.17D+03 ExpMxC= 6.27D+02 IAcc=1 IRadAn=         1 AccDes= 0.00D+00
 Harris functional with IExCor=  402 and IRadAn=       1 diagonalized for initial guess.
 HarFok:  IExCor=  402 AccDes= 0.00D+00 IRadAn=         1 IDoV= 1 UseB2=F ITyADJ=14
 ICtDFT=  3500011 ScaDFX=  1.000000  1.000000  1.000000  1.000000
 FoFCou: FMM=F IPFlag=           0 FMFlag=      100000 FMFlg1=           0
         NFxFlg=           0 DoJE=T BraDBF=F KetDBF=T FulRan=T
         wScrn=  0.000000 ICntrl=     500 IOpCl=  0 I1Cent=   200000004 NGrid=           0
         NMat0=    1 NMatS0=      1 NMatT0=    0 NMatD0=    1 NMtDS0=    0 NMtDT0=    0
 Petite list used in FoFCou.
 Harris En= -205.373905177874    
 JPrj=0 DoOrth=F DoCkMO=F.
 Leave Link  401 at Sat Aug 21 02:19:01 2021, MaxMem= 24159191040 cpu:        10.5
 (Enter /public/home/users/caep010/software/Gaussian09/g09/l502.exe)
 Closed shell SCF:
 Using DIIS extrapolation, IDIIS=  1040.
 Integral symmetry usage will be decided dynamically.
 Keep R1 ints in memory in canonical form, NReq=7631389.
 IVT=       43589 IEndB=       43589 NGot= 24159191040 MDV= 24152466112
 LenX= 24152466112 LenY= 24152458446
 Requested convergence on RMS density matrix=1.00D-08 within 128 cycles.
 Requested convergence on MAX density matrix=1.00D-06.
 Requested convergence on             energy=1.00D-06.
 No special actions if energy rises.
 FoFCou: FMM=F IPFlag=           0 FMFlag=           0 FMFlg1=           0
         NFxFlg=           0 DoJE=F BraDBF=F KetDBF=F FulRan=T
         wScrn=  0.000000 ICntrl=     600 IOpCl=  0 I1Cent=           0 NGrid=           0
         NMat0=    1 NMatS0=   3655 NMatT0=    0 NMatD0=    1 NMtDS0=    0 NMtDT0=    0
 Symmetry not used in FoFCou.
 Integral accuracy reduced to 1.0D-05 until final iterations.

 Cycle   1  Pass 0  IDiag  1:
 E= -205.188816974578    
 DIIS: error= 4.89D-02 at cycle   1 NSaved=   1.
 NSaved= 1 IEnMin= 1 EnMin= -205.188816974578     IErMin= 1 ErrMin= 4.89D-02
 ErrMax= 4.89D-02  0.00D+00 EMaxC= 1.00D-01 BMatC= 1.93D-01 BMatP= 1.93D-01
 IDIUse=3 WtCom= 5.11D-01 WtEn= 4.89D-01
 Coeff-Com:  0.100D+01
 Coeff-En:   0.100D+01
 Coeff:      0.100D+01
 Gap=     0.204 Goal=   None    Shift=    0.000
 GapD=    0.204 DampG=1.000 DampE=0.500 DampFc=0.5000 IDamp=-1.
 Damping current iteration by 5.00D-01
 RMSDP=1.38D-02 MaxDP=2.32D-01              OVMax= 3.26D-01

 Cycle   2  Pass 0  IDiag  1:
 E= -205.234451686813     Delta-E=       -0.045634712235 Rises=F Damp=T
 DIIS: error= 1.18D-02 at cycle   2 NSaved=   2.
 NSaved= 2 IEnMin= 2 EnMin= -205.234451686813     IErMin= 2 ErrMin= 1.18D-02
 ErrMax= 1.18D-02  0.00D+00 EMaxC= 1.00D-01 BMatC= 2.07D-02 BMatP= 1.93D-01
 IDIUse=3 WtCom= 8.82D-01 WtEn= 1.18D-01
 Coeff-Com:  0.198D+00 0.802D+00
 Coeff-En:   0.352D+00 0.648D+00
 Coeff:      0.217D+00 0.783D+00
 Gap=     0.281 Goal=   None    Shift=    0.000
 RMSDP=4.05D-03 MaxDP=9.69D-02 DE=-4.56D-02 OVMax= 2.48D-01

 Cycle   3  Pass 0  IDiag  1:
 E= -205.338963025594     Delta-E=       -0.104511338782 Rises=F Damp=F
 DIIS: error= 1.61D-02 at cycle   3 NSaved=   3.
 NSaved= 3 IEnMin= 3 EnMin= -205.338963025594     IErMin= 2 ErrMin= 1.18D-02
 ErrMax= 1.61D-02  0.00D+00 EMaxC= 1.00D-01 BMatC= 1.76D-02 BMatP= 2.07D-02
 IDIUse=3 WtCom= 8.39D-01 WtEn= 1.61D-01
 Coeff-Com:  0.952D-01 0.490D+00 0.415D+00
 Coeff-En:   0.000D+00 0.000D+00 0.100D+01
 Coeff:      0.799D-01 0.411D+00 0.509D+00
 Gap=     0.247 Goal=   None    Shift=    0.000
 RMSDP=1.95D-03 MaxDP=3.82D-02 DE=-1.05D-01 OVMax= 8.25D-02

 Cycle   4  Pass 0  IDiag  1:
 E= -205.352347456826     Delta-E=       -0.013384431232 Rises=F Damp=F
 DIIS: error= 7.45D-03 at cycle   4 NSaved=   4.
 NSaved= 4 IEnMin= 4 EnMin= -205.352347456826     IErMin= 4 ErrMin= 7.45D-03
 ErrMax= 7.45D-03  0.00D+00 EMaxC= 1.00D-01 BMatC= 3.45D-03 BMatP= 1.76D-02
 IDIUse=3 WtCom= 9.26D-01 WtEn= 7.45D-02
 Coeff-Com:  0.322D-02 0.189D-01 0.307D+00 0.671D+00
 Coeff-En:   0.000D+00 0.000D+00 0.192D+00 0.808D+00
 Coeff:      0.298D-02 0.175D-01 0.298D+00 0.681D+00
 Gap=     0.251 Goal=   None    Shift=    0.000
 RMSDP=6.19D-04 MaxDP=1.18D-02 DE=-1.34D-02 OVMax= 2.32D-02

 Cycle   5  Pass 0  IDiag  1:
 E= -205.355287085937     Delta-E=       -0.002939629111 Rises=F Damp=F
 DIIS: error= 6.66D-04 at cycle   5 NSaved=   5.
 NSaved= 5 IEnMin= 5 EnMin= -205.355287085937     IErMin= 5 ErrMin= 6.66D-04
 ErrMax= 6.66D-04  0.00D+00 EMaxC= 1.00D-01 BMatC= 6.51D-05 BMatP= 3.45D-03
 IDIUse=3 WtCom= 9.93D-01 WtEn= 6.66D-03
 Coeff-Com: -0.716D-03-0.475D-02 0.136D+00 0.338D+00 0.532D+00
 Coeff-En:   0.000D+00 0.000D+00 0.000D+00 0.000D+00 0.100D+01
 Coeff:     -0.711D-03-0.472D-02 0.135D+00 0.336D+00 0.535D+00
 Gap=     0.249 Goal=   None    Shift=    0.000
 RMSDP=1.00D-04 MaxDP=1.55D-03 DE=-2.94D-03 OVMax= 2.62D-03

 Cycle   6  Pass 0  IDiag  1:
 E= -205.355343248687     Delta-E=       -0.000056162750 Rises=F Damp=F
 DIIS: error= 1.50D-04 at cycle   6 NSaved=   6.
 NSaved= 6 IEnMin= 6 EnMin= -205.355343248687     IErMin= 6 ErrMin= 1.50D-04
 ErrMax= 1.50D-04  0.00D+00 EMaxC= 1.00D-01 BMatC= 3.31D-06 BMatP= 6.51D-05
 IDIUse=3 WtCom= 9.99D-01 WtEn= 1.50D-03
 Coeff-Com: -0.602D-04-0.292D-02 0.267D-01 0.631D-01 0.214D+00 0.699D+00
 Coeff-En:   0.000D+00 0.000D+00 0.000D+00 0.000D+00 0.000D+00 0.100D+01
 Coeff:     -0.601D-04-0.291D-02 0.266D-01 0.630D-01 0.214D+00 0.699D+00
 Gap=     0.250 Goal=   None    Shift=    0.000
 RMSDP=2.53D-05 MaxDP=3.57D-04 DE=-5.62D-05 OVMax= 5.53D-04

 Cycle   7  Pass 0  IDiag  1:
 E= -205.355346415248     Delta-E=       -0.000003166561 Rises=F Damp=F
 DIIS: error= 1.67D-05 at cycle   7 NSaved=   7.
 NSaved= 7 IEnMin= 7 EnMin= -205.355346415248     IErMin= 7 ErrMin= 1.67D-05
 ErrMax= 1.67D-05  0.00D+00 EMaxC= 1.00D-01 BMatC= 3.22D-08 BMatP= 3.31D-06
 IDIUse=1 WtCom= 1.00D+00 WtEn= 0.00D+00
 Coeff-Com:  0.953D-04-0.432D-03 0.593D-03-0.187D-03 0.215D-01 0.928D-01
 Coeff-Com:  0.886D+00
 Coeff:      0.953D-04-0.432D-03 0.593D-03-0.187D-03 0.215D-01 0.928D-01
 Coeff:      0.886D+00
 Gap=     0.250 Goal=   None    Shift=    0.000
 RMSDP=3.34D-06 MaxDP=6.45D-05 DE=-3.17D-06 OVMax= 6.78D-05

 Initial convergence to 1.0D-05 achieved.  Increase integral accuracy.
 Cycle   8  Pass 1  IDiag  1:
 E= -205.355352175685     Delta-E=       -0.000005760437 Rises=F Damp=F
 DIIS: error= 1.39D-05 at cycle   1 NSaved=   1.
 NSaved= 1 IEnMin= 1 EnMin= -205.355352175685     IErMin= 1 ErrMin= 1.39D-05
 ErrMax= 1.39D-05  0.00D+00 EMaxC= 1.00D-01 BMatC= 1.39D-08 BMatP= 1.39D-08
 IDIUse=1 WtCom= 1.00D+00 WtEn= 0.00D+00
 Coeff-Com:  0.100D+01
 Coeff:      0.100D+01
 Gap=     0.250 Goal=   None    Shift=    0.000
 RMSDP=3.34D-06 MaxDP=6.45D-05 DE=-5.76D-06 OVMax= 8.67D-05

 Cycle   9  Pass 1  IDiag  1:
 E= -205.355352169147     Delta-E=        0.000000006538 Rises=F Damp=F
 DIIS: error= 2.16D-05 at cycle   2 NSaved=   2.
 NSaved= 2 IEnMin= 1 EnMin= -205.355352175685     IErMin= 1 ErrMin= 1.39D-05
 ErrMax= 2.16D-05  0.00D+00 EMaxC= 1.00D-01 BMatC= 2.53D-08 BMatP= 1.39D-08
 IDIUse=1 WtCom= 1.00D+00 WtEn= 0.00D+00
 Coeff-Com:  0.583D+00 0.417D+00
 Coeff:      0.583D+00 0.417D+00
 Gap=     0.250 Goal=   None    Shift=    0.000
 RMSDP=1.62D-06 MaxDP=4.08D-05 DE= 6.54D-09 OVMax= 4.83D-05

 Cycle  10  Pass 1  IDiag  1:
 E= -205.355352190709     Delta-E=       -0.000000021562 Rises=F Damp=F
 DIIS: error= 2.22D-06 at cycle   3 NSaved=   3.
 NSaved= 3 IEnMin= 3 EnMin= -205.355352190709     IErMin= 3 ErrMin= 2.22D-06
 ErrMax= 2.22D-06  0.00D+00 EMaxC= 1.00D-01 BMatC= 6.17D-10 BMatP= 1.39D-08
 IDIUse=1 WtCom= 1.00D+00 WtEn= 0.00D+00
 Coeff-Com:  0.602D-01 0.139D+00 0.801D+00
 Coeff:      0.602D-01 0.139D+00 0.801D+00
 Gap=     0.250 Goal=   None    Shift=    0.000
 RMSDP=4.66D-07 MaxDP=8.94D-06 DE=-2.16D-08 OVMax= 1.38D-05

 Cycle  11  Pass 1  IDiag  1:
 E= -205.355352190901     Delta-E=       -0.000000000192 Rises=F Damp=F
 DIIS: error= 2.18D-06 at cycle   4 NSaved=   4.
 NSaved= 4 IEnMin= 4 EnMin= -205.355352190901     IErMin= 4 ErrMin= 2.18D-06
 ErrMax= 2.18D-06  0.00D+00 EMaxC= 1.00D-01 BMatC= 3.72D-10 BMatP= 6.17D-10
 IDIUse=1 WtCom= 1.00D+00 WtEn= 0.00D+00
 Coeff-Com: -0.103D-01 0.583D-01 0.527D+00 0.424D+00
 Coeff:     -0.103D-01 0.583D-01 0.527D+00 0.424D+00
 Gap=     0.250 Goal=   None    Shift=    0.000
 RMSDP=2.21D-07 MaxDP=5.35D-06 DE=-1.92D-10 OVMax= 9.12D-06

 Cycle  12  Pass 1  IDiag  1:
 E= -205.355352191217     Delta-E=       -0.000000000316 Rises=F Damp=F
 DIIS: error= 3.19D-07 at cycle   5 NSaved=   5.
 NSaved= 5 IEnMin= 5 EnMin= -205.355352191217     IErMin= 5 ErrMin= 3.19D-07
 ErrMax= 3.19D-07  0.00D+00 EMaxC= 1.00D-01 BMatC= 9.51D-12 BMatP= 3.72D-10
 IDIUse=1 WtCom= 1.00D+00 WtEn= 0.00D+00
 Coeff-Com: -0.792D-02 0.153D-01 0.150D+00 0.203D+00 0.639D+00
 Coeff:     -0.792D-02 0.153D-01 0.150D+00 0.203D+00 0.639D+00
 Gap=     0.250 Goal=   None    Shift=    0.000
 RMSDP=4.65D-08 MaxDP=7.68D-07 DE=-3.16D-10 OVMax= 1.35D-06

 Cycle  13  Pass 1  IDiag  1:
 E= -205.355352191226     Delta-E=       -0.000000000009 Rises=F Damp=F
 DIIS: error= 2.92D-08 at cycle   6 NSaved=   6.
 NSaved= 6 IEnMin= 6 EnMin= -205.355352191226     IErMin= 6 ErrMin= 2.92D-08
 ErrMax= 2.92D-08  0.00D+00 EMaxC= 1.00D-01 BMatC= 9.36D-14 BMatP= 9.51D-12
 IDIUse=1 WtCom= 1.00D+00 WtEn= 0.00D+00
 Coeff-Com: -0.124D-02 0.203D-02 0.175D-01 0.389D-01 0.131D+00 0.812D+00
 Coeff:     -0.124D-02 0.203D-02 0.175D-01 0.389D-01 0.131D+00 0.812D+00
 Gap=     0.250 Goal=   None    Shift=    0.000
 RMSDP=5.14D-09 MaxDP=7.26D-08 DE=-8.92D-12 OVMax= 1.36D-07

 SCF Done:  E(RB3LYP) =  -205.355352191     A.U. after   13 cycles
            NFock= 13  Conv=0.51D-08     -V/T= 2.0123
 KE= 2.028693306775D+02 PE=-7.192155037036D+02 EE= 1.906796433538D+02
 Leave Link  502 at Sat Aug 21 02:19:02 2021, MaxMem= 24159191040 cpu:        28.0
 (Enter /public/home/users/caep010/software/Gaussian09/g09/l801.exe)
 DoSCS=F DFT=T ScalE2(SS,OS)=  1.000000  1.000000
 Range of M.O.s used for correlation:     1    85
 NBasis=    85 NAE=    16 NBE=    16 NFC=     0 NFV=     0
 NROrb=     85 NOA=    16 NOB=    16 NVA=    69 NVB=    69
 Leave Link  801 at Sat Aug 21 02:19:02 2021, MaxMem= 24159191040 cpu:         0.6
 (Enter /public/home/users/caep010/software/Gaussian09/g09/l1101.exe)
 Using compressed storage, NAtomX=     9.
 Will process     10 centers per pass.
 Leave Link 1101 at Sat Aug 21 02:19:03 2021, MaxMem= 24159191040 cpu:        11.5
 (Enter /public/home/users/caep010/software/Gaussian09/g09/l1102.exe)
 Symmetrizing basis deriv contribution to polar:
 IMax=3 JMax=2 DiffMx= 0.00D+00
 Leave Link 1102 at Sat Aug 21 02:19:03 2021, MaxMem= 24159191040 cpu:         0.6
 (Enter /public/home/users/caep010/software/Gaussian09/g09/l1110.exe)
 Forming Gx(P) for the SCF density, NAtomX=     9.
 Integral derivatives from FoFJK, PRISM(SPDF).
 Do as many integral derivatives as possible in FoFJK.
 G2DrvN: MDV=   24159190864.
 G2DrvN: will do    10 centers at a time, making    1 passes.
 Calling FoFCou, ICntrl=  3107 FMM=F I1Cent=   0 AccDes= 0.00D+00.
 FoFJK:  IHMeth= 1 ICntrl=    3107 DoSepK=F KAlg= 0 I1Cent=   0 FoldK=F
 IRaf=         0 NMat=   1 IRICut=       1 DoRegI=T DoRafI=F ISym2E= 0.
 FoFCou: FMM=F IPFlag=           0 FMFlag=      100000 FMFlg1=           0
         NFxFlg=           0 DoJE=F BraDBF=F KetDBF=F FulRan=T
         wScrn=  0.000000 ICntrl=    3107 IOpCl=  0 I1Cent=           0 NGrid=           0
         NMat0=    1 NMatS0=      1 NMatT0=    0 NMatD0=    1 NMtDS0=    0 NMtDT0=    0
 Symmetry not used in FoFCou.
 End of G2Drv F.D. properties file   721 does not exist.
 End of G2Drv F.D. properties file   722 does not exist.
 End of G2Drv F.D. properties file   788 does not exist.
 Leave Link 1110 at Sat Aug 21 02:19:04 2021, MaxMem= 24159191040 cpu:        21.8
 (Enter /public/home/users/caep010/software/Gaussian09/g09/l1002.exe)
 Minotr:  Closed shell wavefunction.
          IDoAtm=111111111
          Direct CPHF calculation.
          Differentiating once with respect to nuclear coordinates.
          Requested convergence is 1.0D-08 RMS, and 1.0D-07 maximum.
          Secondary convergence is 1.0D-12 RMS, and 1.0D-12 maximum.
          NewPWx=T KeepS1=F KeepF1=F KeepIn=T MapXYZ=F SortEE=F KeepMc=T.
          MDV=   24159190861 using IRadAn=       2.
 Generate precomputed XC quadrature information.
 Keep R1 ints in memory in canonical form, NReq=7589103.
 FoFCou: FMM=F IPFlag=           0 FMFlag=           0 FMFlg1=           0
         NFxFlg=           0 DoJE=F BraDBF=F KetDBF=F FulRan=T
         wScrn=  0.000000 ICntrl=     600 IOpCl=  0 I1Cent=           0 NGrid=           0
         NMat0=    1 NMatS0=   3655 NMatT0=    0 NMatD0=    1 NMtDS0=    0 NMtDT0=    0
 Symmetry not used in FoFCou.
          Solving linear equations simultaneously, MaxMat=       0.
          There are    30 degrees of freedom in the 1st order CPHF.  IDoFFX=6 NUNeed=     0.
     24 vectors produced by pass  0 Test12= 3.68D-15 3.33D-09 XBig12= 1.02D-01 1.28D-01.
 AX will form    24 AO Fock derivatives at one time.
     24 vectors produced by pass  1 Test12= 3.68D-15 3.33D-09 XBig12= 2.98D-02 8.85D-02.
     24 vectors produced by pass  2 Test12= 3.68D-15 3.33D-09 XBig12= 1.70D-04 2.65D-03.
     24 vectors produced by pass  3 Test12= 3.68D-15 3.33D-09 XBig12= 7.01D-07 1.73D-04.
     24 vectors produced by pass  4 Test12= 3.68D-15 3.33D-09 XBig12= 8.42D-10 6.40D-06.
     16 vectors produced by pass  5 Test12= 3.68D-15 3.33D-09 XBig12= 5.95D-13 1.71D-07.
      2 vectors produced by pass  6 Test12= 3.68D-15 3.33D-09 XBig12= 4.29D-16 4.57D-09.
 InvSVY:  IOpt=1 It=  1 EMax= 2.22D-15
 Solved reduced A of dimension   138 with    24 vectors.
 End of Minotr F.D. properties file   721 does not exist.
 End of Minotr F.D. properties file   722 does not exist.
 End of Minotr F.D. properties file   788 does not exist.
 Leave Link 1002 at Sat Aug 21 02:19:05 2021, MaxMem= 24159191040 cpu:        27.9
 (Enter /public/home/users/caep010/software/Gaussian09/g09/l601.exe)
 Copying SCF densities to generalized density rwf, IOpCl= 0 IROHF=0.

 **********************************************************************

            Population analysis using the SCF density.

 **********************************************************************

 Orbital symmetries:
       Occupied  (A) (A) (A) (A) (A) (A) (A) (A) (A) (A) (A) (A)
                 (A) (A) (A) (A)
       Virtual   (A) (A) (A) (A) (A) (A) (A) (A) (A) (A) (A) (A)
                 (A) (A) (A) (A) (A) (A) (A) (A) (A) (A) (A) (A)
                 (A) (A) (A) (A) (A) (A) (A) (A) (A) (A) (A) (A)
                 (A) (A) (A) (A) (A) (A) (A) (A) (A) (A) (A) (A)
                 (A) (A) (A) (A) (A) (A) (A) (A) (A) (A) (A) (A)
                 (A) (A) (A) (A) (A) (A) (A) (A) (A)
 The electronic state is 1-A.
 Alpha  occ. eigenvalues --  -14.34557 -14.34488 -14.26102 -10.28365  -0.93229
 Alpha  occ. eigenvalues --   -0.84489  -0.80212  -0.58776  -0.52327  -0.50664
 Alpha  occ. eigenvalues --   -0.46000  -0.43369  -0.37063  -0.24998  -0.22376
 Alpha  occ. eigenvalues --   -0.20140
 Alpha virt. eigenvalues --    0.04834   0.08092   0.10234   0.11380   0.12618
 Alpha virt. eigenvalues --    0.17140   0.24492   0.35662   0.40625   0.59045
 Alpha virt. eigenvalues --    0.59378   0.60023   0.63568   0.66220   0.68353
 Alpha virt. eigenvalues --    0.73054   0.73595   0.76037   0.82766   0.82977
 Alpha virt. eigenvalues --    0.82989   0.83845   0.88641   0.91784   1.04637
 Alpha virt. eigenvalues --    1.15866   1.19131   1.28058   1.30645   1.35140
 Alpha virt. eigenvalues --    1.44093   1.45162   1.47595   1.65149   1.65669
 Alpha virt. eigenvalues --    1.77872   1.85882   1.94524   1.95701   1.99292
 Alpha virt. eigenvalues --    2.03115   2.06300   2.11450   2.11765   2.18762
 Alpha virt. eigenvalues --    2.32929   2.34782   2.45317   2.46894   2.46986
 Alpha virt. eigenvalues --    2.50484   2.56540   2.59045   2.64239   2.65246
 Alpha virt. eigenvalues --    2.73899   2.78053   2.86224   2.93594   3.02455
 Alpha virt. eigenvalues --    3.24415   3.30283   3.32074   3.56184   3.58952
 Alpha virt. eigenvalues --    3.85358   4.01854   4.05704   4.43888
          Condensed to atoms (all electrons):
               1          2          3          4          5          6
     1  N    6.848223   0.636409  -0.108180  -0.084596   0.314987   0.006087
     2  C    0.636409   4.237473   0.286524   0.299516  -0.050511  -0.010581
     3  N   -0.108180   0.286524   6.919982  -0.081831  -0.015191   0.307115
     4  N   -0.084596   0.299516  -0.081831   6.838665   0.006739   0.000571
     5  H    0.314987  -0.050511  -0.015191   0.006739   0.532775   0.000561
     6  H    0.006087  -0.010581   0.307115   0.000571   0.000561   0.473861
     7  H   -0.001532  -0.016381   0.342800   0.003164   0.004684  -0.025538
     8  H    0.004403  -0.008855   0.004107   0.330023  -0.000419  -0.000343
     9  H    0.003137  -0.020935   0.000263   0.334627  -0.000236   0.001080
               7          8          9
     1  N   -0.001532   0.004403   0.003137
     2  C   -0.016381  -0.008855  -0.020935
     3  N    0.342800   0.004107   0.000263
     4  N    0.003164   0.330023   0.334627
     5  H    0.004684  -0.000419  -0.000236
     6  H   -0.025538  -0.000343   0.001080
     7  H    0.418821  -0.000107  -0.000110
     8  H   -0.000107   0.406932  -0.024662
     9  H   -0.000110  -0.024662   0.449696
 Mulliken charges:
               1
     1  N   -0.618939
     2  C    0.647342
     3  N   -0.655589
     4  N   -0.646878
     5  H    0.206612
     6  H    0.247188
     7  H    0.274200
     8  H    0.288922
     9  H    0.257141
 Sum of Mulliken charges =  -0.00000
 Mulliken charges with hydrogens summed into heavy atoms:
               1
     1  N   -0.412327
     2  C    0.647342
     3  N   -0.134200
     4  N   -0.100815
 APT charges:
               1
     1  N   -0.690595
     2  C   -0.035204
     3  N   -1.064696
     4  N   -1.062912
     5  H    0.553427
     6  H    0.523600
     7  H    0.603940
     8  H    0.618107
     9  H    0.554333
 Sum of APT charges =  -0.00000
 APT charges with hydrogens summed into heavy atoms:
               1
     1  N   -0.137168
     2  C   -0.035204
     3  N    0.062844
     4  N    0.109528
 Electronic spatial extent (au):  <R**2>=            273.4103
 Charge=             -0.0000 electrons
 Dipole moment (field-independent basis, Debye):
    X=              0.4090    Y=             -3.3359    Z=              0.0000  Tot=              3.3609
 Quadrupole moment (field-independent basis, Debye-Ang):
   XX=            -15.2286   YY=            -23.4781   ZZ=            -27.5453
   XY=              1.4701   XZ=             -0.0003   YZ=             -0.0003
 Traceless Quadrupole moment (field-independent basis, Debye-Ang):
   XX=              6.8554   YY=             -1.3941   ZZ=             -5.4613
   XY=              1.4701   XZ=             -0.0003   YZ=             -0.0003
 Octapole moment (field-independent basis, Debye-Ang**2):
  XXX=             -0.2600  YYY=            -18.2561  ZZZ=              0.0000  XYY=              1.8790
  XXY=              0.5681  XXZ=             -0.0001  XZZ=              0.2039  YZZ=             -0.2611
  YYZ=              0.0001  XYZ=              0.0002
 Hexadecapole moment (field-independent basis, Debye-Ang**3):
 XXXX=           -114.0403 YYYY=           -137.3340 ZZZZ=            -25.1710 XXXY=             -2.6628
 XXXZ=             -0.0010 YYYX=              8.3211 YYYZ=             -0.0009 ZZZX=             -0.0002
 ZZZY=             -0.0002 XXYY=            -38.5212 XXZZ=            -36.4418 YYZZ=            -31.5838
 XXYZ=             -0.0004 YYXZ=             -0.0004 ZZXY=              0.5716
 N-N= 1.203111774811D+02 E-N=-7.192155041142D+02  KE= 2.028693306775D+02
  Exact polarizability:   0.000   0.000   0.000   0.000   0.000   0.000
 Approx polarizability:  52.463   6.066  66.281  -0.000  -0.000  18.332
 No NMR shielding tensors so no spin-rotation constants.
 Leave Link  601 at Sat Aug 21 02:19:05 2021, MaxMem= 24159191040 cpu:        10.7
 (Enter /public/home/users/caep010/software/Gaussian09/g09/l701.exe)
 Compute integral second derivatives.
 ... and contract with generalized density number  0.
 Leave Link  701 at Sat Aug 21 02:19:05 2021, MaxMem= 24159191040 cpu:        12.9
 (Enter /public/home/users/caep010/software/Gaussian09/g09/l702.exe)
 L702 exits ... SP integral derivatives will be done elsewhere.
 Leave Link  702 at Sat Aug 21 02:19:06 2021, MaxMem= 24159191040 cpu:         0.5
 (Enter /public/home/users/caep010/software/Gaussian09/g09/l703.exe)
 Compute integral second derivatives, UseDBF=F ICtDFT=           0.
 Integral derivatives from FoFJK, PRISM(SPDF).
 Calling FoFJK, ICntrl=    100147 FMM=F ISym2X=0 I1Cent= 0 IOpClX= 0 NMat=1 NMatS=1 NMatT=0.
 FoFJK:  IHMeth= 1 ICntrl=  100147 DoSepK=F KAlg= 0 I1Cent=   0 FoldK=F
 IRaf=         0 NMat=   1 IRICut=       1 DoRegI=T DoRafI=F ISym2E= 0.
 FoFCou: FMM=F IPFlag=           0 FMFlag=      100000 FMFlg1=         800
         NFxFlg=           0 DoJE=F BraDBF=F KetDBF=F FulRan=T
         wScrn=  0.000000 ICntrl=  100147 IOpCl=  0 I1Cent=           0 NGrid=           0
         NMat0=    1 NMatS0=      1 NMatT0=    0 NMatD0=    1 NMtDS0=    0 NMtDT0=    0
 Symmetry not used in FoFCou.
 Leave Link  703 at Sat Aug 21 02:19:07 2021, MaxMem= 24159191040 cpu:        27.8
 (Enter /public/home/users/caep010/software/Gaussian09/g09/l716.exe)
 Dipole        = 1.60930062D-01-1.31243622D+00 1.66550878D-05
 Polarizability= 0.00000000D+00 0.00000000D+00 0.00000000D+00
                 0.00000000D+00 0.00000000D+00 0.00000000D+00
 ***** Axes restored to original set *****
 -------------------------------------------------------------------
 Center     Atomic                   Forces (Hartrees/Bohr)
 Number     Number              X              Y              Z
 -------------------------------------------------------------------
      1        7          -0.014314692    0.002128644   -0.001512809
      2        6           0.022180718    0.024820644    0.007466021
      3        7          -0.016382887   -0.024186653   -0.006583055
      4        7           0.017419125   -0.012471691    0.000039795
      5        1          -0.013464636   -0.026060409   -0.006536274
      6        1           0.005031520    0.028533287    0.005868051
      7        1          -0.032344076   -0.012532202   -0.006575981
      8        1           0.032601271   -0.012036111    0.002133956
      9        1          -0.000726343    0.031804493    0.005700297
 -------------------------------------------------------------------
 Cartesian Forces:  Max     0.032601271 RMS     0.017225663
 Force constants in Cartesian coordinates: 
                1             2             3             4             5 
      1  0.390335D+00
      2  0.156374D+00  0.695767D+00
      3  0.730409D-01  0.137607D+00  0.895025D-01
      4 -0.116874D+00  0.954058D-02 -0.487220D-02  0.548511D+00
      5 -0.628935D-01 -0.485666D+00 -0.846562D-01  0.252797D-01  0.805636D+00
      6 -0.180773D-01 -0.750447D-01 -0.831276D-01  0.527122D-01  0.116297D+00
      7 -0.506842D-03  0.293965D-01  0.221099D-02 -0.200422D+00  0.386863D-01
      8  0.529334D-01 -0.532694D-01 -0.691645D-02  0.398506D-01 -0.154679D+00
      9  0.650155D-02 -0.100399D-01  0.222423D-01 -0.141957D-01 -0.160047D-01
     10  0.127018D-03 -0.319012D-01 -0.692237D-02 -0.213385D+00 -0.307125D-01
     11 -0.463523D-01 -0.460658D-01 -0.160923D-01 -0.400549D-01 -0.148642D+00
     12 -0.955586D-02 -0.141743D-01  0.460447D-02 -0.305112D-01 -0.241497D-01
     13 -0.268168D+00 -0.165561D+00 -0.629463D-01 -0.738448D-02  0.308313D-01
     14 -0.105653D+00 -0.107391D+00 -0.297244D-01 -0.351206D-01 -0.217372D-01
     15 -0.520254D-01 -0.376731D-01 -0.350078D-01 -0.617467D-02  0.178699D-02
     16 -0.666800D-02  0.485212D-02 -0.108013D-02  0.131828D-01  0.259207D-01
     17  0.678156D-02  0.177377D-03 -0.550653D-03 -0.662053D-02 -0.160537D-01
     18 -0.728415D-03 -0.807020D-03  0.789241D-02  0.179746D-02  0.223699D-02
     19  0.342241D-02 -0.868516D-03  0.706270D-03 -0.158548D-01 -0.183970D-01
     20  0.551910D-04 -0.528931D-03  0.474800D-03  0.142606D-01  0.134124D-01
     21  0.874705D-03  0.352050D-03 -0.291344D-02  0.155650D-02  0.146141D-02
     22  0.303805D-02  0.168080D-02  0.862672D-03 -0.176257D-01  0.174748D-01
     23  0.789128D-03 -0.165850D-02  0.125050D-04 -0.117055D-01  0.169692D-01
     24  0.700156D-03  0.131208D-03 -0.103606D-02 -0.357628D-02  0.664674D-02
     25 -0.470534D-02 -0.351308D-02 -0.999765D-03  0.985235D-02 -0.261897D-01
     26 -0.203383D-02 -0.136392D-02 -0.154296D-03  0.457013D-02 -0.923995D-02
     27 -0.730352D-03 -0.351087D-03 -0.215684D-02  0.326394D-02 -0.361822D-02
                6             7             8             9            10 
      6  0.214263D+00
      7 -0.144088D-01  0.619625D+00
      8 -0.158497D-01  0.397788D-01  0.670532D+00
      9 -0.435145D-01  0.870987D-01  0.124233D+00  0.521310D-01
     10 -0.288118D-01 -0.380987D-01 -0.122955D-01 -0.793742D-02  0.622147D+00
     11 -0.253917D-01  0.164173D-01  0.182568D-01  0.462946D-02 -0.631550D-01
     12 -0.469663D-01 -0.270328D-02  0.818667D-03  0.460538D-02  0.680185D-01
     13  0.584798D-02  0.885469D-03  0.537796D-03  0.788901D-03  0.254395D-02
     14 -0.696419D-02 -0.110334D-02  0.347784D-02  0.127496D-02  0.408936D-02
     15 -0.959457D-02  0.489573D-03  0.149276D-02 -0.398304D-02  0.264988D-03
     16  0.772900D-02 -0.840713D-01 -0.361505D-02 -0.114660D-01  0.298947D-03
     17 -0.208196D-02 -0.729196D-02 -0.345236D+00 -0.634151D-01 -0.468326D-03
     18 -0.880747D-02 -0.121364D-01 -0.629274D-01 -0.157160D-01  0.187451D-03
     19 -0.439620D-02 -0.296843D+00 -0.113889D+00 -0.601688D-01 -0.726864D-03
     20  0.579511D-02 -0.113680D+00 -0.136784D+00 -0.400426D-01  0.307421D-02
     21 -0.752513D-02 -0.601298D-01 -0.400701D-01 -0.151469D-01  0.291459D-03
     22  0.174554D-02 -0.905239D-03 -0.412062D-02 -0.106000D-02 -0.289450D+00
     23  0.277410D-02 -0.306878D-02 -0.303681D-02 -0.122014D-02  0.131129D+00
     24 -0.603378D-02 -0.867969D-03 -0.135981D-02  0.105890D-02 -0.140827D-01
     25 -0.234054D-02  0.337456D-03  0.819919D-03  0.438759D-03 -0.834569D-01
     26  0.466448D-03  0.865052D-03  0.738929D-03  0.585222D-03  0.240168D-03
     27 -0.869406D-02  0.447055D-03  0.579171D-03 -0.167718D-02 -0.110081D-01
               11            12            13            14            15 
     11  0.688891D+00
     12  0.112994D+00  0.525588D-01
     13 -0.332634D-02 -0.108715D-02  0.270701D+00
     14 -0.263729D-02 -0.106229D-02  0.137918D+00  0.128284D+00
     15 -0.204681D-02  0.583157D-02  0.576405D-01  0.369867D-01  0.401689D-01
     16 -0.121315D-02  0.514642D-04  0.757702D-03 -0.519417D-03  0.296882D-03
     17  0.151405D-02  0.534044D-03 -0.328771D-03  0.125079D-02  0.584017D-03
     18  0.434902D-03 -0.165201D-02  0.331610D-03  0.558761D-03 -0.204697D-02
     19  0.480720D-02  0.607963D-03  0.383204D-03  0.166983D-02  0.161746D-03
     20 -0.306487D-02 -0.386953D-03 -0.151240D-03 -0.144741D-02 -0.549675D-03
     21 -0.156863D-03  0.130638D-02 -0.170222D-03 -0.308120D-03  0.137979D-02
     22  0.132527D+00 -0.138318D-01  0.746895D-03 -0.240466D-03  0.220429D-03
     23 -0.156344D+00 -0.105078D-01  0.836780D-03 -0.389715D-03  0.266982D-03
     24 -0.103240D-01 -0.696811D-02  0.416923D-03  0.123929D-03 -0.116670D-02
     25  0.349971D-03 -0.109886D-01 -0.464887D-03 -0.104011D-02 -0.874021D-03
     26 -0.351908D+00 -0.640661D-01 -0.756613D-03  0.590231D-03 -0.847861D-03
     27 -0.640470D-01 -0.133202D-01 -0.822159D-03 -0.885411D-03  0.441880D-02
               16            17            18            19            20 
     16  0.725551D-01
     17  0.101618D-02  0.363062D+00
     18  0.807433D-02  0.639232D-01  0.258292D-01
     19  0.597439D-02  0.634347D-02  0.283458D-02  0.304249D+00
     20 -0.258892D-01 -0.521114D-02 -0.316916D-02  0.121192D+00  0.132860D+00
     21 -0.304077D-02  0.110816D-02 -0.687401D-02  0.606698D-01  0.378337D-01
     22 -0.191130D-05  0.111985D-04  0.709853D-04 -0.641728D-03  0.819582D-03
     23 -0.354625D-03 -0.367787D-03 -0.190939D-04 -0.800059D-03  0.955181D-03
     24  0.427201D-05  0.294458D-04 -0.515219D-03 -0.501477D-03 -0.886148D-04
     25 -0.202770D-02  0.557179D-03 -0.431575D-03  0.375489D-04  0.318666D-03
     26 -0.197628D-03  0.864594D-03 -0.231209D-03 -0.576665D-04 -0.190625D-03
     27 -0.569028D-03 -0.131131D-03  0.189004D-02  0.860662D-04  0.133379D-03
               21            22            23            24            25 
     21  0.284726D-01
     22 -0.206375D-03  0.297704D+00
     23 -0.303616D-03 -0.141156D+00  0.150765D+00
     24  0.195536D-02  0.116938D-01  0.588145D-02  0.183459D-01
     25  0.154688D-03  0.713578D-02  0.243300D-01  0.621324D-02  0.732917D-01
     26  0.834004D-04 -0.699686D-02 -0.689240D-02 -0.104034D-02  0.436724D-02
     27 -0.654652D-03  0.504767D-03  0.311559D-02 -0.564032D-02  0.882781D-02
               26            27 
     26  0.367401D+00
     27  0.652048D-01  0.258344D-01
 FormGI is forming the generalized inverse of G from B-inverse, IUseBI=4.
 Force constants in internal coordinates: 
                1             2             3             4             5 
      1  0.629768D+00
      2 -0.129428D-01  0.368817D+00
      3  0.545488D-01  0.631676D-03  0.317211D+00
      4  0.553518D-01 -0.107447D-02  0.236598D-01  0.322500D+00
      5 -0.160643D-02 -0.473514D-03  0.630773D-02  0.104663D-02  0.374779D+00
      6 -0.631020D-04  0.582845D-03 -0.141160D-02 -0.184227D-02 -0.327560D-02
      7 -0.240762D-02 -0.182390D-03 -0.152510D-02  0.174768D-02  0.201246D-03
      8  0.119694D-02  0.577054D-03  0.321359D-03  0.246633D-02  0.853800D-03
      9  0.657961D-01  0.305107D-01 -0.451891D-02 -0.100196D-02 -0.247549D-02
     10  0.166549D-01 -0.744972D-02  0.337583D-01 -0.366055D-01  0.973057D-02
     11  0.326325D-01  0.948375D-02 -0.432772D-01  0.238891D-01 -0.321008D-02
     12 -0.492874D-01 -0.203403D-02  0.951895D-02  0.127165D-01 -0.652049D-02
     13  0.394883D-02 -0.344824D-03  0.567465D-02  0.193446D-02  0.199591D-02
     14  0.185768D-03  0.156740D-02  0.880022D-02  0.932559D-03 -0.926312D-02
     15 -0.413460D-02 -0.122258D-02 -0.144749D-01 -0.286702D-02  0.726721D-02
     16 -0.207503D-02 -0.179642D-02  0.919111D-03  0.370979D-02 -0.688037D-03
     17  0.583236D-02  0.198802D-02  0.182189D-02  0.958843D-02  0.783550D-03
     18 -0.375732D-02 -0.191599D-03 -0.274100D-02 -0.132982D-01 -0.955131D-04
     19  0.000000D+00  0.000000D+00  0.000000D+00  0.000000D+00  0.000000D+00
     20  0.000000D+00  0.000000D+00  0.000000D+00  0.000000D+00  0.000000D+00
     21  0.000000D+00  0.000000D+00  0.000000D+00  0.000000D+00  0.000000D+00
     22  0.000000D+00  0.000000D+00  0.000000D+00  0.000000D+00  0.000000D+00
     23  0.000000D+00  0.000000D+00  0.000000D+00  0.000000D+00  0.000000D+00
     24  0.000000D+00  0.000000D+00  0.000000D+00  0.000000D+00  0.000000D+00
     25  0.000000D+00  0.000000D+00  0.000000D+00  0.141804D-05  0.000000D+00
     26  0.000000D+00  0.000000D+00  0.000000D+00 -0.136837D-05  0.000000D+00
     27  0.000000D+00  0.000000D+00  0.000000D+00  0.132436D-05  0.000000D+00
     28  0.000000D+00  0.000000D+00  0.000000D+00 -0.146204D-05  0.000000D+00
                6             7             8             9            10 
      6  0.381371D+00
      7  0.254031D-04  0.383490D+00
      8  0.117306D-03 -0.278965D-02  0.379525D+00
      9  0.105251D-02  0.260465D-03 -0.163745D-02  0.123055D+00
     10 -0.595975D-02  0.151329D-02 -0.195461D-02 -0.228905D-02  0.183644D+00
     11  0.137118D-02 -0.472708D-02  0.746534D-02  0.388815D-02 -0.101557D+00
     12  0.458857D-02  0.321379D-02 -0.551073D-02 -0.159911D-02 -0.820867D-01
     13 -0.856511D-02 -0.398858D-03  0.522227D-03 -0.438873D-02  0.143065D-01
     14  0.330398D-02  0.457931D-03 -0.384140D-03  0.542741D-02 -0.120722D-01
     15  0.526113D-02 -0.590724D-04 -0.138087D-03 -0.103867D-02 -0.223424D-02
     16  0.721259D-03  0.687821D-02 -0.102614D-01  0.140892D-02  0.144254D-02
     17 -0.589891D-03 -0.962263D-02  0.373738D-02  0.761324D-03 -0.502056D-02
     18 -0.131368D-03  0.274442D-02  0.652401D-02 -0.217024D-02  0.357801D-02
     19  0.000000D+00  0.000000D+00  0.000000D+00  0.000000D+00  0.000000D+00
     20  0.000000D+00  0.000000D+00  0.000000D+00  0.000000D+00  0.000000D+00
     21  0.000000D+00  0.000000D+00  0.000000D+00  0.000000D+00  0.102996D-05
     22  0.000000D+00  0.000000D+00  0.000000D+00  0.000000D+00  0.000000D+00
     23  0.000000D+00  0.000000D+00  0.000000D+00  0.000000D+00  0.000000D+00
     24  0.000000D+00  0.000000D+00  0.000000D+00  0.000000D+00 -0.111747D-05
     25  0.000000D+00  0.000000D+00  0.000000D+00  0.000000D+00  0.104040D-05
     26  0.000000D+00  0.000000D+00 -0.100056D-05  0.000000D+00  0.000000D+00
     27  0.000000D+00  0.000000D+00  0.000000D+00  0.000000D+00  0.000000D+00
     28  0.000000D+00  0.000000D+00 -0.111828D-05  0.000000D+00  0.000000D+00
               11            12            13            14            15 
     11  0.169145D+00
     12 -0.675879D-01  0.149675D+00
     13 -0.404921D-02 -0.102573D-01  0.796016D-01
     14 -0.172426D-02  0.137965D-01 -0.404560D-01  0.721009D-01
     15  0.577347D-02 -0.353922D-02 -0.391456D-01 -0.316449D-01  0.707906D-01
     16 -0.197152D-01  0.182726D-01 -0.251490D-02  0.306527D-02 -0.550373D-03
     17  0.167207D-01 -0.117002D-01  0.375780D-02 -0.247520D-02 -0.128260D-02
     18  0.299445D-02 -0.657246D-02 -0.124290D-02 -0.590069D-03  0.183297D-02
     19  0.000000D+00  0.155160D-05  0.000000D+00  0.000000D+00  0.000000D+00
     20  0.000000D+00 -0.133450D-05  0.000000D+00  0.000000D+00  0.000000D+00
     21 -0.127756D-05  0.000000D+00  0.000000D+00  0.000000D+00  0.000000D+00
     22 -0.126076D-05  0.000000D+00  0.000000D+00  0.000000D+00  0.000000D+00
     23  0.000000D+00  0.000000D+00  0.000000D+00  0.000000D+00  0.000000D+00
     24  0.000000D+00  0.000000D+00  0.000000D+00  0.000000D+00  0.000000D+00
     25  0.000000D+00  0.000000D+00  0.000000D+00  0.000000D+00  0.000000D+00
     26  0.000000D+00  0.000000D+00  0.000000D+00  0.000000D+00  0.000000D+00
     27  0.000000D+00  0.000000D+00  0.000000D+00  0.000000D+00  0.000000D+00
     28  0.000000D+00  0.000000D+00  0.000000D+00  0.000000D+00  0.000000D+00
               16            17            18            19            20 
     16  0.675889D-01
     17 -0.379762D-01  0.773937D-01
     18 -0.296127D-01 -0.394175D-01  0.690301D-01
     19  0.000000D+00  0.000000D+00  0.000000D+00  0.138752D-01
     20  0.000000D+00  0.000000D+00  0.000000D+00  0.862708D-02  0.189818D-01
     21  0.000000D+00  0.000000D+00  0.000000D+00 -0.512268D-02  0.456790D-02
     22  0.000000D+00  0.000000D+00  0.000000D+00 -0.313081D-02  0.362859D-02
     23  0.000000D+00  0.000000D+00  0.000000D+00  0.140557D-03 -0.581674D-02
     24  0.000000D+00  0.000000D+00  0.000000D+00  0.213243D-02 -0.675605D-02
     25  0.000000D+00  0.000000D+00  0.000000D+00  0.145718D-02 -0.577348D-02
     26  0.000000D+00  0.000000D+00  0.000000D+00  0.234699D-03 -0.948127D-02
     27  0.000000D+00  0.000000D+00  0.000000D+00 -0.376936D-02  0.453874D-02
     28  0.000000D+00  0.000000D+00  0.000000D+00 -0.499183D-02  0.830950D-03
               21            22            23            24            25 
     21  0.371685D-02
     22  0.895350D-02  0.750102D-03
     23 -0.600172D-02  0.217458D-02 -0.272173D-04
     24 -0.765074D-03 -0.602882D-02  0.814909D-02  0.288534D-02
     25 -0.492499D-02 -0.456604D-02  0.232656D-02  0.268551D-02  0.287439D-02
     26 -0.724629D-02 -0.483922D-02  0.249775D-02  0.490482D-02  0.982702D-02
     27  0.472582D-02  0.216561D-02 -0.360629D-02 -0.616649D-02 -0.432659D-02
     28  0.240451D-02  0.189243D-02 -0.343509D-02 -0.394718D-02  0.262604D-02
               26            27            28 
     26  0.219338D-02
     27  0.150930D-03  0.394741D-02
     28 -0.748272D-02  0.842493D-02 -0.168383D-02
 Leave Link  716 at Sat Aug 21 02:19:07 2021, MaxMem= 24159191040 cpu:         1.1
 (Enter /public/home/users/caep010/software/Gaussian09/g09/l103.exe)

 GradGradGradGradGradGradGradGradGradGradGradGradGradGradGradGradGradGrad
 Berny optimization.
 Red2BG is reusing G-inverse.
 Internal  Forces:  Max     0.047573095 RMS     0.021039233
 Search for a local minimum.
 Step number   1 out of a maximum of   38
 All quantities printed in internal units (Hartrees-Bohrs-Radians)
 RMS Force = .21039D-01 SwitMx=.10000D-02 MixMth= 1
 Mixed Optimization -- RFO/linear search
 Second derivative matrix not updated -- analytic derivatives used.
 ITU=  0
     Eigenvalues ---   -0.01685  -0.01288   0.00062   0.00956   0.02488
     Eigenvalues ---    0.04219   0.09063   0.09806   0.10552   0.11300
     Eigenvalues ---    0.11858   0.20929   0.22726   0.33668   0.35207
     Eigenvalues ---    0.37277   0.37690   0.37931   0.38601   0.38898
     Eigenvalues ---    0.66443
 Eigenvalue     1 is  -1.68D-02 should be greater than     0.000000 Eigenvector:
                          D10       D8        D7        D9        D3
   1                    0.49767   0.49036  -0.35211  -0.34481   0.27929
                          D5        D6        D4        D2        D1
   1                    0.27194  -0.23447  -0.22712   0.07597   0.06864
 Eigenvalue     2 is  -1.29D-02 should be greater than     0.000000 Eigenvector:
                          D4        D5        D6        D3        D10
   1                   -0.47784   0.45126  -0.40530   0.37872  -0.33747
                          D8        D7        D9        D2        D1
   1                   -0.26544   0.22281   0.15078  -0.05847   0.01385
 RFO step:  Lambda=-3.46359924D-02 EMin=-1.68452457D-02
 Linear search not attempted -- first point.
 Maximum step size (   0.300) exceeded in Quadratic search.
    -- Step size scaled by   0.862
 Iteration  1 RMS(Cart)=  0.10428606 RMS(Int)=  0.07195519
 Iteration  2 RMS(Cart)=  0.04465438 RMS(Int)=  0.02837096
 Iteration  3 RMS(Cart)=  0.01079080 RMS(Int)=  0.02624057
 Iteration  4 RMS(Cart)=  0.00047905 RMS(Int)=  0.02623654
 Iteration  5 RMS(Cart)=  0.00004732 RMS(Int)=  0.02623650
 Iteration  6 RMS(Cart)=  0.00000485 RMS(Int)=  0.02623650
 Iteration  7 RMS(Cart)=  0.00000050 RMS(Int)=  0.02623650
 ITry= 1 IFail=0 DXMaxC= 3.23D-01 DCOld= 1.00D+10 DXMaxT= 3.00D-01 DXLimC= 3.00D+00 Rises=F
 Variable       Old X    -DE/DX   Delta X   Delta X   Delta X     New X
                                 (Linear)    (Quad)   (Total)
    R1        2.44671  -0.02519   0.00000  -0.01338  -0.01338   2.43334
    R2        1.97367  -0.02552   0.00000  -0.04196  -0.04196   1.93171
    R3        2.70130  -0.03306   0.00000  -0.08078  -0.08078   2.62053
    R4        2.69701  -0.04757   0.00000  -0.09475  -0.09475   2.60225
    R5        1.97293  -0.02916   0.00000  -0.06554  -0.06554   1.90740
    R6        1.97360  -0.03513   0.00000  -0.07009  -0.07009   1.90351
    R7        1.97352  -0.03418   0.00000  -0.06878  -0.06878   1.90474
    R8        1.97284  -0.03229   0.00000  -0.06985  -0.06985   1.90299
    A1        2.12386  -0.03133   0.00000  -0.15944  -0.15944   1.96443
    A2        2.10079   0.03427   0.00000   0.09347   0.09325   2.19404
    A3        2.08868  -0.00247   0.00000  -0.00016  -0.00034   2.08834
    A4        2.09371  -0.03180   0.00000  -0.09331  -0.09348   2.00024
    A5        2.10068   0.00873   0.00000   0.02920   0.02896   2.12963
    A6        2.11030  -0.00788   0.00000  -0.01822  -0.01846   2.09184
    A7        2.07221  -0.00085   0.00000  -0.01098  -0.01122   2.06098
    A8        2.10413  -0.00967   0.00000  -0.04573  -0.11418   1.98995
    A9        2.10299   0.00625   0.00000   0.03704  -0.02949   2.07350
   A10        2.07606   0.00342   0.00000   0.00863  -0.07893   1.99713
    D1        0.00003  -0.00000   0.00000   0.03838   0.03727   0.03730
    D2       -3.14154  -0.00000   0.00000   0.07427   0.07538  -3.06617
    D3        3.14157   0.00000   0.00000   0.01733   0.01755  -3.12407
    D4       -0.00003   0.00000   0.00000   0.05910   0.05931   0.05928
    D5       -0.00004   0.00000   0.00000  -0.01866  -0.01887  -0.01892
    D6        3.14154   0.00000   0.00000   0.02311   0.02289  -3.11875
    D7       -0.00002  -0.00000   0.00000  -0.32353  -0.29774  -0.29775
    D8       -3.14152   0.00000   0.00000   0.43125   0.40716  -2.73436
    D9       -3.14159  -0.00000   0.00000  -0.28780  -0.26371   2.87789
   D10        0.00009   0.00000   0.00000   0.46699   0.44119   0.44128
         Item               Value     Threshold  Converged?
 Maximum Force            0.047573     0.000450     NO 
 RMS     Force            0.021039     0.000300     NO 
 Maximum Displacement     0.322673     0.001800     NO 
 RMS     Displacement     0.139562     0.001200     NO 
 Predicted change in Energy=-2.255460D-02
 Lowest energy point so far.  Saving SCF results.
 GradGradGradGradGradGradGradGradGradGradGradGradGradGradGradGradGradGrad

 Leave Link  103 at Sat Aug 21 02:19:07 2021, MaxMem= 24159191040 cpu:         3.2
 (Enter /public/home/users/caep010/software/Gaussian09/g09/l202.exe)
                          Input orientation:                          
 ---------------------------------------------------------------------
 Center     Atomic      Atomic             Coordinates (Angstroms)
 Number     Number       Type             X           Y           Z
 ---------------------------------------------------------------------
      1          7           0       -0.149307    1.537401    0.258410
      2          6           0       -0.086621    0.278876   -0.006675
      3          7           0        1.060442   -0.499582    0.028731
      4          7           0       -1.221916   -0.390766   -0.405374
      5          1           0        0.765714    1.938599    0.474521
      6          1           0        1.048236   -1.481500   -0.204677
      7          1           0        1.932496   -0.094187    0.328434
      8          1           0       -2.079384    0.098841   -0.202922
      9          1           0       -1.269760   -1.387582   -0.270649
 ---------------------------------------------------------------------
                    Distance matrix (angstroms):
                    1          2          3          4          5
     1  N    0.000000
     2  C    1.287667   0.000000
     3  N    2.380241   1.386724   0.000000
     4  N    2.304111   1.377053   2.325821   0.000000
     5  H    1.022216   1.926838   2.496062   3.186037   0.000000
     6  H    3.280598   2.103813   1.009352   2.526573   3.498315
     7  H    2.645919   2.080458   1.007296   3.252190   2.348392
     8  H    2.451016   2.010480   3.204727   1.007945   3.455173
     9  H    3.176609   2.060724   2.511576   1.007017   3.970128
                    6          7          8          9
     6  H    0.000000
     7  H    1.729381   0.000000
     8  H    3.504210   4.051515   0.000000
     9  H    2.320836   3.505169   1.693969   0.000000
 Stoichiometry    CH5N3
 Framework group  C1[X(CH5N3)]
 Deg. of freedom    21
 Full point group                 C1      NOp   1
 RotChk:  IX=0 Diff= 6.14D-02
 Largest Abelian subgroup         C1      NOp   1
 Largest concise Abelian subgroup C1      NOp   1
                         Standard orientation:                         
 ---------------------------------------------------------------------
 Center     Atomic      Atomic             Coordinates (Angstroms)
 Number     Number       Type             X           Y           Z
 ---------------------------------------------------------------------
      1          7           0        0.223143    1.385342    0.010677
      2          6           0        0.009091    0.115681   -0.004358
      3          7           0        0.984797   -0.869712   -0.002031
      4          7           0       -1.282712   -0.356711   -0.070432
      5          1           0        1.218934    1.615332   -0.010077
      6          1           0        0.753579   -1.851840   -0.029466
      7          1           0        1.956572   -0.612969    0.064156
      8          1           0       -1.982708    0.328400    0.167434
      9          1           0       -1.477523   -1.285442    0.266601
 ---------------------------------------------------------------------
 Rotational constants (GHZ):     10.6222087     10.1571847      5.2096820
 Leave Link  202 at Sat Aug 21 02:19:07 2021, MaxMem= 24159191040 cpu:         0.4
 (Enter /public/home/users/caep010/software/Gaussian09/g09/l301.exe)
 Standard basis: 6-31G(d,p) (6D, 7F)
 Ernie: Thresh=  0.10000D-02 Tol=  0.10000D-05 Strict=F.
 There are    85 symmetry adapted cartesian basis functions of A   symmetry.
 There are    85 symmetry adapted basis functions of A   symmetry.
    85 basis functions,   147 primitive gaussians,    85 cartesian basis functions
    16 alpha electrons       16 beta electrons
       nuclear repulsion energy       123.8821725044 Hartrees.
 IExCor=  402 DFT=T Ex+Corr=B3LYP ExCW=0 ScaHFX=  0.200000
 ScaDFX=  0.800000  0.720000  1.000000  0.810000 ScalE2=  1.000000  1.000000
 IRadAn=      0 IRanWt=     -1 IRanGd=            0 ICorTp=0 IEmpDi=  4
 NAtoms=    9 NActive=    9 NUniq=    9 SFac= 1.00D+00 NAtFMM=   60 NAOKFM=F Big=F
 Integral buffers will be    131072 words long.
 Raffenetti 2 integral format.
 Two-electron integral symmetry is turned on.
 Leave Link  301 at Sat Aug 21 02:19:07 2021, MaxMem= 24159191040 cpu:         1.6
 (Enter /public/home/users/caep010/software/Gaussian09/g09/l302.exe)
 NPDir=0 NMtPBC=     1 NCelOv=     1 NCel=       1 NClECP=     1 NCelD=      1
         NCelK=      1 NCelE2=     1 NClLst=     1 CellRange=     0.0.
 One-electron integrals computed using PRISM.
 NBasis=    85 RedAO= T EigKep=  2.77D-03  NBF=    85
 NBsUse=    85 1.00D-06 EigRej= -1.00D+00 NBFU=    85
 Precomputing XC quadrature grid using
 IXCGrd= 4 IRadAn=           0 IRanWt=          -1 IRanGd=           0 AccXCQ= 0.00D+00.
 Generated NRdTot=       0 NPtTot=           0 NUsed=           0 NTot=          32
 NSgBfM=    85    85    85    85    85 MxSgAt=     9 MxSgA2=     9.
 Leave Link  302 at Sat Aug 21 02:19:07 2021, MaxMem= 24159191040 cpu:        12.4
 (Enter /public/home/users/caep010/software/Gaussian09/g09/l303.exe)
 DipDrv:  MaxL=1.
 Leave Link  303 at Sat Aug 21 02:19:08 2021, MaxMem= 24159191040 cpu:         0.6
 (Enter /public/home/users/caep010/software/Gaussian09/g09/l401.exe)
 Initial guess from the checkpoint file:  "/public/home/users/caep010/.cache/gau_scr/Gau-43288.chk"
 B after Tr=    -0.000000    0.000000    0.000000
         Rot=    0.999930    0.000381   -0.000191   -0.011825 Ang=   1.36 deg.
 Guess basis will be translated and rotated to current coordinates.
 JPrj=2 DoOrth=T DoCkMO=T.
 Generating alternative initial guess.
 ExpMin= 1.61D-01 ExpMax= 4.17D+03 ExpMxC= 6.27D+02 IAcc=1 IRadAn=         1 AccDes= 0.00D+00
 Harris functional with IExCor=  402 and IRadAn=       1 diagonalized for initial guess.
 HarFok:  IExCor=  402 AccDes= 0.00D+00 IRadAn=         1 IDoV= 1 UseB2=F ITyADJ=14
 ICtDFT=  3500011 ScaDFX=  1.000000  1.000000  1.000000  1.000000
 FoFCou: FMM=F IPFlag=           0 FMFlag=      100000 FMFlg1=           0
         NFxFlg=           0 DoJE=T BraDBF=F KetDBF=T FulRan=T
         wScrn=  0.000000 ICntrl=     500 IOpCl=  0 I1Cent=   200000004 NGrid=           0
         NMat0=    1 NMatS0=      1 NMatT0=    0 NMatD0=    1 NMtDS0=    0 NMtDT0=    0
 Petite list used in FoFCou.
 Harris En= -205.396835825169    
 Leave Link  401 at Sat Aug 21 02:19:08 2021, MaxMem= 24159191040 cpu:        11.3
 (Enter /public/home/users/caep010/software/Gaussian09/g09/l502.exe)
 Closed shell SCF:
 Using DIIS extrapolation, IDIIS=  1040.
 Integral symmetry usage will be decided dynamically.
 Keep R1 ints in memory in canonical form, NReq=7631389.
 IVT=       43589 IEndB=       43589 NGot= 24159191040 MDV= 24152466112
 LenX= 24152466112 LenY= 24152458446
 Requested convergence on RMS density matrix=1.00D-08 within 128 cycles.
 Requested convergence on MAX density matrix=1.00D-06.
 Requested convergence on             energy=1.00D-06.
 No special actions if energy rises.
 FoFCou: FMM=F IPFlag=           0 FMFlag=           0 FMFlg1=           0
         NFxFlg=           0 DoJE=F BraDBF=F KetDBF=F FulRan=T
         wScrn=  0.000000 ICntrl=     600 IOpCl=  0 I1Cent=           0 NGrid=           0
         NMat0=    1 NMatS0=   3655 NMatT0=    0 NMatD0=    1 NMtDS0=    0 NMtDT0=    0
 Symmetry not used in FoFCou.
 Integral accuracy reduced to 1.0D-05 until final iterations.

 Cycle   1  Pass 0  IDiag  1:
 E= -205.350991708231    
 DIIS: error= 1.67D-02 at cycle   1 NSaved=   1.
 NSaved= 1 IEnMin= 1 EnMin= -205.350991708231     IErMin= 1 ErrMin= 1.67D-02
 ErrMax= 1.67D-02  0.00D+00 EMaxC= 1.00D-01 BMatC= 1.75D-02 BMatP= 1.75D-02
 IDIUse=3 WtCom= 8.33D-01 WtEn= 1.67D-01
 Coeff-Com:  0.100D+01
 Coeff-En:   0.100D+01
 Coeff:      0.100D+01
 Recover alternate guess density for next cycle.
 RMSDP=5.73D-03 MaxDP=9.89D-02              OVMax= 0.00D+00

 Cycle   2  Pass 0  IDiag  1:
 E= -205.203039745924     Delta-E=        0.147951962307 Rises=F Damp=F
 Switch densities from cycles 1 and 2 for lowest energy.
 DIIS: error= 4.41D-02 at cycle   2 NSaved=   2.
 NSaved= 2 IEnMin= 1 EnMin= -205.350991708231     IErMin= 1 ErrMin= 1.67D-02
 ErrMax= 4.41D-02  0.00D+00 EMaxC= 1.00D+00 BMatC= 2.00D-01 BMatP= 1.75D-02
 IDIUse=1 WtCom= 1.00D+00 WtEn= 0.00D+00
 Coeff-Com:  0.904D+00 0.957D-01
 Coeff:      0.904D+00 0.957D-01
 Gap=     0.282 Goal=   None    Shift=    0.000
 RMSDP=3.01D-03 MaxDP=5.61D-02 DE= 1.48D-01 OVMax= 1.30D-01

 Cycle   3  Pass 0  IDiag  1:
 E= -205.371824768869     Delta-E=       -0.168785022945 Rises=F Damp=F
 DIIS: error= 4.39D-03 at cycle   3 NSaved=   3.
 NSaved= 3 IEnMin= 3 EnMin= -205.371824768869     IErMin= 3 ErrMin= 4.39D-03
 ErrMax= 4.39D-03  0.00D+00 EMaxC= 1.00D+00 BMatC= 3.17D-03 BMatP= 1.75D-02
 IDIUse=1 WtCom= 1.00D+00 WtEn= 0.00D+00
 Coeff-Com:  0.317D-01 0.956D-01 0.873D+00
 Coeff:      0.317D-01 0.956D-01 0.873D+00
 Gap=     0.268 Goal=   None    Shift=    0.000
 RMSDP=1.03D-03 MaxDP=2.21D-02 DE=-1.69D-01 OVMax= 3.54D-02

 Cycle   4  Pass 0  IDiag  1:
 E= -205.372995809397     Delta-E=       -0.001171040527 Rises=F Damp=F
 DIIS: error= 4.85D-03 at cycle   4 NSaved=   4.
 NSaved= 4 IEnMin= 4 EnMin= -205.372995809397     IErMin= 3 ErrMin= 4.39D-03
 ErrMax= 4.85D-03  0.00D+00 EMaxC= 1.00D+00 BMatC= 1.80D-03 BMatP= 3.17D-03
 IDIUse=1 WtCom= 1.00D+00 WtEn= 0.00D+00
 Coeff-Com: -0.198D-01 0.521D-01 0.558D+00 0.410D+00
 Coeff:     -0.198D-01 0.521D-01 0.558D+00 0.410D+00
 Gap=     0.265 Goal=   None    Shift=    0.000
 RMSDP=4.86D-04 MaxDP=9.88D-03 DE=-1.17D-03 OVMax= 1.92D-02

 Cycle   5  Pass 0  IDiag  1:
 E= -205.374568927030     Delta-E=       -0.001573117633 Rises=F Damp=F
 DIIS: error= 5.11D-04 at cycle   5 NSaved=   5.
 NSaved= 5 IEnMin= 5 EnMin= -205.374568927030     IErMin= 5 ErrMin= 5.11D-04
 ErrMax= 5.11D-04  0.00D+00 EMaxC= 1.00D+00 BMatC= 2.98D-05 BMatP= 1.80D-03
 IDIUse=1 WtCom= 1.00D+00 WtEn= 0.00D+00
 Coeff-Com: -0.805D-02 0.812D-02 0.108D+00 0.149D+00 0.743D+00
 Coeff:     -0.805D-02 0.812D-02 0.108D+00 0.149D+00 0.743D+00
 Gap=     0.266 Goal=   None    Shift=    0.000
 RMSDP=7.71D-05 MaxDP=1.38D-03 DE=-1.57D-03 OVMax= 2.32D-03

 Cycle   6  Pass 0  IDiag  1:
 E= -205.374590087163     Delta-E=       -0.000021160133 Rises=F Damp=F
 DIIS: error= 1.84D-04 at cycle   6 NSaved=   6.
 NSaved= 6 IEnMin= 6 EnMin= -205.374590087163     IErMin= 6 ErrMin= 1.84D-04
 ErrMax= 1.84D-04  0.00D+00 EMaxC= 1.00D+00 BMatC= 5.48D-06 BMatP= 2.98D-05
 IDIUse=1 WtCom= 1.00D+00 WtEn= 0.00D+00
 Coeff-Com: -0.241D-02 0.895D-03 0.211D-01 0.526D-01 0.395D+00 0.533D+00
 Coeff:     -0.241D-02 0.895D-03 0.211D-01 0.526D-01 0.395D+00 0.533D+00
 Gap=     0.265 Goal=   None    Shift=    0.000
 RMSDP=2.70D-05 MaxDP=4.74D-04 DE=-2.12D-05 OVMax= 5.93D-04

 Cycle   7  Pass 0  IDiag  1:
 E= -205.374594799380     Delta-E=       -0.000004712217 Rises=F Damp=F
 DIIS: error= 3.26D-05 at cycle   7 NSaved=   7.
 NSaved= 7 IEnMin= 7 EnMin= -205.374594799380     IErMin= 7 ErrMin= 3.26D-05
 ErrMax= 3.26D-05  0.00D+00 EMaxC= 1.00D+00 BMatC= 1.80D-07 BMatP= 5.48D-06
 IDIUse=1 WtCom= 1.00D+00 WtEn= 0.00D+00
 Coeff-Com: -0.505D-03-0.159D-03 0.132D-02 0.116D-01 0.111D+00 0.225D+00
 Coeff-Com:  0.651D+00
 Coeff:     -0.505D-03-0.159D-03 0.132D-02 0.116D-01 0.111D+00 0.225D+00
 Coeff:      0.651D+00
 Gap=     0.265 Goal=   None    Shift=    0.000
 RMSDP=5.26D-06 MaxDP=1.16D-04 DE=-4.71D-06 OVMax= 1.59D-04

 Initial convergence to 1.0D-05 achieved.  Increase integral accuracy.
 Cycle   8  Pass 1  IDiag  1:
 E= -205.374556314363     Delta-E=        0.000038485018 Rises=F Damp=F
 DIIS: error= 1.32D-05 at cycle   1 NSaved=   1.
 NSaved= 1 IEnMin= 1 EnMin= -205.374556314363     IErMin= 1 ErrMin= 1.32D-05
 ErrMax= 1.32D-05  0.00D+00 EMaxC= 1.00D+00 BMatC= 2.41D-08 BMatP= 2.41D-08
 IDIUse=1 WtCom= 1.00D+00 WtEn= 0.00D+00
 Coeff-Com:  0.100D+01
 Coeff:      0.100D+01
 Gap=     0.265 Goal=   None    Shift=    0.000
 RMSDP=5.26D-06 MaxDP=1.16D-04 DE= 3.85D-05 OVMax= 7.00D-05

 Cycle   9  Pass 1  IDiag  1:
 E= -205.374556310196     Delta-E=        0.000000004166 Rises=F Damp=F
 DIIS: error= 1.77D-05 at cycle   2 NSaved=   2.
 NSaved= 2 IEnMin= 1 EnMin= -205.374556314363     IErMin= 1 ErrMin= 1.32D-05
 ErrMax= 1.77D-05  0.00D+00 EMaxC= 1.00D+00 BMatC= 3.25D-08 BMatP= 2.41D-08
 IDIUse=1 WtCom= 1.00D+00 WtEn= 0.00D+00
 Coeff-Com:  0.540D+00 0.460D+00
 Coeff:      0.540D+00 0.460D+00
 Gap=     0.265 Goal=   None    Shift=    0.000
 RMSDP=1.87D-06 MaxDP=3.66D-05 DE= 4.17D-09 OVMax= 5.18D-05

 Cycle  10  Pass 1  IDiag  1:
 E= -205.374556337907     Delta-E=       -0.000000027711 Rises=F Damp=F
 DIIS: error= 2.84D-06 at cycle   3 NSaved=   3.
 NSaved= 3 IEnMin= 3 EnMin= -205.374556337907     IErMin= 3 ErrMin= 2.84D-06
 ErrMax= 2.84D-06  0.00D+00 EMaxC= 1.00D+00 BMatC= 6.05D-10 BMatP= 2.41D-08
 IDIUse=1 WtCom= 1.00D+00 WtEn= 0.00D+00
 Coeff-Com:  0.418D-01 0.129D+00 0.830D+00
 Coeff:      0.418D-01 0.129D+00 0.830D+00
 Gap=     0.265 Goal=   None    Shift=    0.000
 RMSDP=3.47D-07 MaxDP=7.28D-06 DE=-2.77D-08 OVMax= 9.90D-06

 Cycle  11  Pass 1  IDiag  1:
 E= -205.374556338288     Delta-E=       -0.000000000381 Rises=F Damp=F
 DIIS: error= 1.23D-06 at cycle   4 NSaved=   4.
 NSaved= 4 IEnMin= 4 EnMin= -205.374556338288     IErMin= 4 ErrMin= 1.23D-06
 ErrMax= 1.23D-06  0.00D+00 EMaxC= 1.00D+00 BMatC= 1.58D-10 BMatP= 6.05D-10
 IDIUse=1 WtCom= 1.00D+00 WtEn= 0.00D+00
 Coeff-Com: -0.160D-01 0.386D-01 0.458D+00 0.519D+00
 Coeff:     -0.160D-01 0.386D-01 0.458D+00 0.519D+00
 Gap=     0.265 Goal=   None    Shift=    0.000
 RMSDP=1.47D-07 MaxDP=1.94D-06 DE=-3.81D-10 OVMax= 2.72D-06

 Cycle  12  Pass 1  IDiag  1:
 E= -205.374556338431     Delta-E=       -0.000000000143 Rises=F Damp=F
 DIIS: error= 7.27D-08 at cycle   5 NSaved=   5.
 NSaved= 5 IEnMin= 5 EnMin= -205.374556338431     IErMin= 5 ErrMin= 7.27D-08
 ErrMax= 7.27D-08  0.00D+00 EMaxC= 1.00D+00 BMatC= 1.19D-12 BMatP= 1.58D-10
 IDIUse=1 WtCom= 1.00D+00 WtEn= 0.00D+00
 Coeff-Com: -0.648D-02 0.933D-02 0.133D+00 0.171D+00 0.693D+00
 Coeff:     -0.648D-02 0.933D-02 0.133D+00 0.171D+00 0.693D+00
 Gap=     0.265 Goal=   None    Shift=    0.000
 RMSDP=1.52D-08 MaxDP=2.74D-07 DE=-1.43D-10 OVMax= 3.55D-07

 Cycle  13  Pass 1  IDiag  1:
 E= -205.374556338430     Delta-E=        0.000000000001 Rises=F Damp=F
 DIIS: error= 4.98D-08 at cycle   6 NSaved=   6.
 NSaved= 6 IEnMin= 5 EnMin= -205.374556338431     IErMin= 6 ErrMin= 4.98D-08
 ErrMax= 4.98D-08  0.00D+00 EMaxC= 1.00D+00 BMatC= 2.61D-13 BMatP= 1.19D-12
 IDIUse=1 WtCom= 1.00D+00 WtEn= 0.00D+00
 Coeff-Com: -0.134D-02 0.459D-03 0.157D-01 0.271D-01 0.333D+00 0.625D+00
 Coeff:     -0.134D-02 0.459D-03 0.157D-01 0.271D-01 0.333D+00 0.625D+00
 Gap=     0.265 Goal=   None    Shift=    0.000
 RMSDP=6.69D-09 MaxDP=1.57D-07 DE= 1.14D-12 OVMax= 1.74D-07

 SCF Done:  E(RB3LYP) =  -205.374556338     A.U. after   13 cycles
            NFock= 13  Conv=0.67D-08     -V/T= 2.0094
 KE= 2.034540560861D+02 PE=-7.266277973695D+02 EE= 1.939170124405D+02
 Leave Link  502 at Sat Aug 21 02:19:09 2021, MaxMem= 24159191040 cpu:        19.5
 (Enter /public/home/users/caep010/software/Gaussian09/g09/l701.exe)
 Compute integral first derivatives.
 ... and contract with generalized density number  0.
 Leave Link  701 at Sat Aug 21 02:19:09 2021, MaxMem= 24159191040 cpu:        11.2
 (Enter /public/home/users/caep010/software/Gaussian09/g09/l702.exe)
 L702 exits ... SP integral derivatives will be done elsewhere.
 Leave Link  702 at Sat Aug 21 02:19:09 2021, MaxMem= 24159191040 cpu:         0.5
 (Enter /public/home/users/caep010/software/Gaussian09/g09/l703.exe)
 Compute integral first derivatives, UseDBF=F ICtDFT=           0.
 Integral derivatives from FoFJK, PRISM(SPDF).
 Calling FoFJK, ICntrl=      2127 FMM=F ISym2X=0 I1Cent= 0 IOpClX= 0 NMat=1 NMatS=1 NMatT=0.
 FoFJK:  IHMeth= 1 ICntrl=    2127 DoSepK=F KAlg= 0 I1Cent=   0 FoldK=F
 IRaf=         0 NMat=   1 IRICut=       1 DoRegI=T DoRafI=F ISym2E= 0.
 FoFCou: FMM=F IPFlag=           0 FMFlag=      100000 FMFlg1=         800
         NFxFlg=           0 DoJE=F BraDBF=F KetDBF=F FulRan=T
         wScrn=  0.000000 ICntrl=    2127 IOpCl=  0 I1Cent=           0 NGrid=           0
         NMat0=    1 NMatS0=      1 NMatT0=    0 NMatD0=    1 NMtDS0=    0 NMtDT0=    0
 Symmetry not used in FoFCou.
 Leave Link  703 at Sat Aug 21 02:19:09 2021, MaxMem= 24159191040 cpu:         7.6
 (Enter /public/home/users/caep010/software/Gaussian09/g09/l716.exe)
 Dipole        = 3.13194767D-01-1.39263063D+00 3.65271869D-01
 ***** Axes restored to original set *****
 -------------------------------------------------------------------
 Center     Atomic                   Forces (Hartrees/Bohr)
 Number     Number              X              Y              Z
 -------------------------------------------------------------------
      1        7          -0.003689481   -0.000133102    0.000645955
      2        6           0.013798799    0.011394154    0.005960667
      3        7          -0.002497492   -0.005026932   -0.001023208
      4        7          -0.005163155   -0.005746964   -0.005955066
      5        1          -0.001591837   -0.003726628   -0.001299257
      6        1           0.001399499    0.003206987   -0.000062664
      7        1          -0.002994451   -0.000970084   -0.001096345
      8        1           0.000591111    0.002039480   -0.000024807
      9        1           0.000147007   -0.001036912    0.002854725
 -------------------------------------------------------------------
 Cartesian Forces:  Max     0.013798799 RMS     0.004524567
 Leave Link  716 at Sat Aug 21 02:19:10 2021, MaxMem= 24159191040 cpu:         0.5
 (Enter /public/home/users/caep010/software/Gaussian09/g09/l103.exe)

 GradGradGradGradGradGradGradGradGradGradGradGradGradGradGradGradGradGrad
 Berny optimization.
 Using GEDIIS/GDIIS optimizer.
 FormGI is forming the generalized inverse of G from B-inverse, IUseBI=4.
 Internal  Forces:  Max     0.006858308 RMS     0.002743220
 Search for a local minimum.
 Step number   2 out of a maximum of   38
 All quantities printed in internal units (Hartrees-Bohrs-Radians)
 RMS Force = .27432D-02 SwitMx=.10000D-02 MixMth= 1
 Mixed Optimization -- RFO/linear search
 Update second derivatives using D2CorX and points    1    2
 DE= -1.92D-02 DEPred=-2.26D-02 R= 8.51D-01
 TightC=F SS=  1.41D+00  RLast= 7.94D-01 DXNew= 5.0454D-01 2.3830D+00
 Trust test= 8.51D-01 RLast= 7.94D-01 DXMaxT set to 5.05D-01
 ITU=  1  0
 Use linear search instead of GDIIS.
     Eigenvalues ---   -0.03177  -0.01368   0.00061   0.00953   0.02486
     Eigenvalues ---    0.04208   0.09001   0.09788   0.10573   0.11097
     Eigenvalues ---    0.11836   0.18946   0.21177   0.33268   0.34977
     Eigenvalues ---    0.35571   0.37637   0.38373   0.38588   0.38904
     Eigenvalues ---    0.65239
 Eigenvalue     1 is  -3.18D-02 should be greater than     0.000000 Eigenvector:
                          D10       D8        D7        D9        A9
   1                    0.52854   0.49571  -0.39684  -0.36401  -0.21725
                          A10       A8        A1        D3        D2
   1                   -0.20949  -0.17131   0.09571   0.09027   0.08631
 Eigenvalue     2 is  -1.37D-02 should be greater than     0.000000 Eigenvector:
                          D4        D5        D6        D3        D10
   1                    0.52766  -0.52472   0.46427  -0.46133   0.09379
                          D7        D1        D8        A9        D2
   1                   -0.05696  -0.04379   0.03434  -0.02326   0.02239
 RFO step:  Lambda=-3.18433324D-02 EMin=-3.17746530D-02
 I=     1 Eig=   -3.18D-02 Dot1=  8.74D-04
 I=     1 Stepn=  6.00D-01 RXN=   6.00D-01 EDone=F
 I=     2 Eig=   -1.37D-02 Dot1= -2.94D-04
 I=     2 Stepn= -3.00D-01 RXN=   6.71D-01 EDone=F
 Mixed    2 eigenvectors in step.  Raw Step.Grad=  1.17D-03.
 RFO eigenvector is Hessian eigenvector with negative curvature.
 Taking step of  6.00D-01 in eigenvector direction(s).  Step.Grad= -9.28D-04.
 Quartic linear search produced a step of  0.09148.
 Iteration  1 RMS(Cart)=  0.06905011 RMS(Int)=  0.03295891
 Iteration  2 RMS(Cart)=  0.02803167 RMS(Int)=  0.01803936
 Iteration  3 RMS(Cart)=  0.00204303 RMS(Int)=  0.01794411
 Iteration  4 RMS(Cart)=  0.00016638 RMS(Int)=  0.01794372
 Iteration  5 RMS(Cart)=  0.00001327 RMS(Int)=  0.01794372
 Iteration  6 RMS(Cart)=  0.00000107 RMS(Int)=  0.01794372
 Iteration  7 RMS(Cart)=  0.00000009 RMS(Int)=  0.01794372
 ITry= 1 IFail=0 DXMaxC= 2.46D-01 DCOld= 1.00D+10 DXMaxT= 5.05D-01 DXLimC= 3.00D+00 Rises=F
 Variable       Old X    -DE/DX   Delta X   Delta X   Delta X     New X
                                 (Linear)    (Quad)   (Total)
    R1        2.43334  -0.00365  -0.00122   0.01107   0.00984   2.44318
    R2        1.93171  -0.00316  -0.00384   0.01972   0.01588   1.94759
    R3        2.62053  -0.00187  -0.00739   0.02999   0.02260   2.64313
    R4        2.60225   0.00686  -0.00867   0.02212   0.01345   2.61570
    R5        1.90740  -0.00312  -0.00600   0.02646   0.02047   1.92787
    R6        1.90351  -0.00331  -0.00641   0.02824   0.02183   1.92534
    R7        1.90474   0.00048  -0.00629   0.02430   0.01801   1.92275
    R8        1.90299   0.00140  -0.00639   0.02312   0.01673   1.91972
    A1        1.96443  -0.00548  -0.01459   0.04810   0.03352   1.99794
    A2        2.19404   0.00590   0.00853  -0.04048  -0.03197   2.16207
    A3        2.08834  -0.00153  -0.00003   0.00239   0.00234   2.09068
    A4        2.00024  -0.00437  -0.00855   0.03806   0.02949   2.02973
    A5        2.12963   0.00175   0.00265  -0.00863  -0.01989   2.10974
    A6        2.09184  -0.00120  -0.00169   0.01282  -0.00279   2.08905
    A7        2.06098  -0.00052  -0.00103   0.00707  -0.00839   2.05259
    A8        1.98995  -0.00227  -0.01044  -0.08731  -0.12680   1.86315
    A9        2.07350  -0.00125  -0.00270  -0.11035  -0.13926   1.93424
   A10        1.99713   0.00156  -0.00722  -0.10682  -0.17722   1.81991
    D1        0.03730   0.00016   0.00341   0.04022   0.04357   0.08087
    D2       -3.06617   0.00030   0.00690   0.04031   0.04727  -3.01890
    D3       -3.12407   0.00089   0.00161   0.17223   0.17221  -2.95185
    D4        0.05928  -0.00011   0.00543  -0.15126  -0.14417  -0.08489
    D5       -0.01892   0.00080  -0.00173   0.17156   0.16817   0.14926
    D6       -3.11875  -0.00020   0.00209  -0.15194  -0.14822   3.01622
    D7       -0.29775   0.00044  -0.02724  -0.19768  -0.19800  -0.49575
    D8       -2.73436   0.00247   0.03725   0.25681   0.26725  -2.46712
    D9        2.87789   0.00035  -0.02412  -0.19602  -0.19333   2.68456
   D10        0.44128   0.00239   0.04036   0.25848   0.27192   0.71320
         Item               Value     Threshold  Converged?
 Maximum Force            0.006858     0.000450     NO 
 RMS     Force            0.002743     0.000300     NO 
 Maximum Displacement     0.245615     0.001800     NO 
 RMS     Displacement     0.087580     0.001200     NO 
 Predicted change in Energy=-6.016172D-03
 Lowest energy point so far.  Saving SCF results.
 GradGradGradGradGradGradGradGradGradGradGradGradGradGradGradGradGradGrad

 Leave Link  103 at Sat Aug 21 02:19:10 2021, MaxMem= 24159191040 cpu:         0.9
 (Enter /public/home/users/caep010/software/Gaussian09/g09/l202.exe)
                          Input orientation:                          
 ---------------------------------------------------------------------
 Center     Atomic      Atomic             Coordinates (Angstroms)
 Number     Number       Type             X           Y           Z
[...]
      8 -0.222105D-03  0.455033D-04 -0.308589D-03  0.225239D-02  0.438806D-03
      9  0.672645D-01  0.305681D-01 -0.308451D-02  0.499460D-02 -0.704195D-03
     10  0.736238D-02 -0.105314D-01  0.158037D-01 -0.479752D-01  0.665445D-02
     11  0.383600D-01  0.117217D-01 -0.478623D-01  0.186741D-01 -0.270246D-03
     12 -0.457172D-01 -0.118423D-02  0.320668D-01  0.292892D-01 -0.636840D-02
     13  0.225305D-02 -0.878591D-03  0.242409D-01 -0.135181D-02  0.867055D-02
     14 -0.555068D-03  0.265203D-02  0.251030D-01  0.462382D-02 -0.512254D-02
     15 -0.255650D-02 -0.923167D-03 -0.150065D-01 -0.304785D-02  0.637172D-02
     16 -0.279541D-02 -0.253123D-02  0.424398D-02  0.254117D-01 -0.322206D-03
     17  0.458599D-02  0.288383D-02 -0.193748D-02  0.289775D-01  0.944423D-03
     18 -0.238857D-02  0.389979D-03 -0.300384D-02 -0.131925D-01 -0.710852D-05
     19 -0.163890D-02 -0.636216D-03 -0.337276D-03  0.199196D-02 -0.200639D-02
     20 -0.141951D-02 -0.230119D-04  0.680481D-03  0.103953D-02 -0.460167D-03
     21  0.794559D-03  0.304381D-03 -0.140274D-01  0.225429D-02 -0.609192D-02
     22 -0.129799D-02  0.669668D-03  0.117702D-01  0.963627D-03  0.665446D-02
     23  0.793941D-04 -0.358967D-03 -0.144664D-01  0.315535D-02 -0.756476D-02
     24 -0.201315D-02  0.632066D-05  0.113312D-01  0.186468D-02  0.518161D-02
     25 -0.196119D-02 -0.551377D-03  0.575659D-03  0.124328D-01  0.559572D-04
     26 -0.659183D-04 -0.128132D-02  0.265426D-02 -0.144109D-01 -0.426073D-03
     27 -0.149794D-02 -0.118329D-03  0.143414D-02  0.110598D-01  0.145968D-02
     28  0.397325D-03 -0.848267D-03  0.351274D-02 -0.157839D-01  0.977650D-03
                6             7             8             9            10 
      6  0.469961D+00
      7  0.119356D-03  0.468298D+00
      8 -0.114319D-03 -0.270584D-02  0.461142D+00
      9  0.209715D-02  0.634452D-04 -0.159021D-03  0.181736D+00
     10 -0.758210D-02  0.121121D-02 -0.501031D-03 -0.563959D-02  0.176740D+00
     11  0.481336D-03 -0.784076D-02  0.640238D-02  0.111647D-01 -0.876840D-01
     12  0.710967D-02  0.662073D-02 -0.592090D-02 -0.552418D-02 -0.890765D-01
     13 -0.547158D-02 -0.685630D-03  0.872619D-03 -0.372902D-02  0.193338D-01
     14  0.823909D-02  0.101055D-02 -0.421726D-04  0.643469D-02 -0.150328D-01
     15  0.626586D-02  0.112686D-03 -0.226978D-03 -0.159569D-02 -0.168177D-02
     16  0.151907D-02  0.148662D-01 -0.487278D-02  0.192085D-02 -0.245218D-02
     17 -0.823409D-03 -0.517054D-02  0.117748D-01  0.315934D-02 -0.343234D-02
     18  0.194928D-04  0.315460D-02  0.640902D-02 -0.236233D-02  0.254329D-02
     19 -0.112502D-02 -0.269136D-03 -0.119996D-02 -0.305720D-03  0.186553D-02
     20 -0.168358D-03 -0.111774D-02 -0.321308D-02 -0.240241D-03 -0.990029D-03
     21 -0.558519D-02 -0.623246D-03 -0.646166D-03  0.350141D-03 -0.428337D-02
     22  0.624357D-02 -0.144816D-03 -0.174351D-03  0.632435D-03 -0.257082D-02
     23 -0.644522D-02  0.259019D-03  0.115545D-02  0.179877D-03 -0.143250D-02
     24  0.538354D-02  0.737450D-03  0.162727D-02  0.462171D-03  0.280046D-03
     25 -0.474580D-04  0.660330D-02  0.745609D-02  0.393067D-03 -0.905383D-03
     26 -0.686836D-03 -0.601565D-02 -0.666810D-02 -0.562580D-03  0.471679D-03
     27  0.665702D-03  0.586185D-02  0.576689D-02  0.423958D-03 -0.134664D-02
     28  0.263234D-04 -0.675710D-02 -0.835730D-02 -0.531689D-03  0.304240D-04
               11            12            13            14            15 
     11  0.184484D+00
     12 -0.967758D-01  0.185850D+00
     13 -0.352472D-02 -0.157947D-01  0.110360D+00
     14 -0.451287D-02  0.195385D-01 -0.381659D-01  0.115831D+00
     15  0.441047D-02 -0.274224D-02 -0.455577D-01 -0.473128D-01  0.663957D-01
     16 -0.233611D-01  0.258158D-01 -0.100655D-02  0.454724D-02 -0.176647D-02
     17  0.196040D-01 -0.161934D-01 -0.538349D-03 -0.667962D-03  0.613210D-03
     18  0.356717D-02 -0.609461D-02  0.597144D-03 -0.178486D-02  0.878033D-03
     19 -0.895404D-03 -0.103700D-02 -0.165517D-02  0.890303D-04  0.829703D-03
     20  0.998323D-03  0.122500D-03 -0.330850D-03 -0.478688D-03 -0.554864D-03
     21  0.164249D-02  0.273367D-02 -0.158856D-02 -0.183445D-02 -0.485225D-02
     22  0.313512D-03  0.233737D-02  0.171069D-02  0.410400D-02  0.234324D-02
     23 -0.195608D-02  0.329678D-02 -0.287844D-02 -0.117304D-02 -0.360646D-02
     24 -0.328506D-02  0.290048D-02  0.420816D-03  0.476541D-02  0.358903D-02
     25 -0.185491D-02  0.268004D-02  0.320987D-03 -0.340861D-04 -0.249309D-03
     26 -0.288556D-02  0.232748D-02  0.790642D-03 -0.893212D-03 -0.452313D-03
     27 -0.579675D-03  0.201399D-02  0.169257D-02 -0.741140D-03 -0.142916D-02
     28 -0.161032D-02  0.166143D-02  0.216223D-02 -0.160027D-02 -0.163216D-02
               16            17            18            19            20 
     16  0.122583D+00
     17 -0.363016D-01  0.119497D+00
     18 -0.470356D-01 -0.457905D-01  0.630761D-01
     19 -0.848875D-04 -0.107707D-02 -0.168515D-03  0.186356D-01
     20  0.341389D-03 -0.337097D-02  0.138964D-02  0.118710D-01  0.250860D-01
     21 -0.104732D-02  0.241984D-03 -0.225924D-03 -0.356854D-02  0.582935D-02
     22 -0.205595D-03 -0.286860D-04 -0.909770D-04 -0.387144D-02  0.423561D-02
     23 -0.114440D-02  0.215753D-02 -0.173642D-02  0.274377D-02 -0.650630D-02
     24 -0.302672D-03  0.188686D-02 -0.160148D-02  0.244087D-02 -0.810005D-02
     25  0.728993D-02  0.214626D-02  0.376385D-02  0.124912D-02 -0.683902D-02
     26 -0.256322D-02 -0.156867D-02 -0.544443D-02  0.241951D-02 -0.629305D-02
     27  0.751144D-02  0.239545D-03  0.513979D-02 -0.448236D-02  0.439021D-02
     28 -0.234171D-02 -0.347539D-02 -0.406849D-02 -0.331196D-02  0.493618D-02
               21            22            23            24            25 
     21  0.114555D-01
     22  0.105444D-02  0.101019D-01
     23  0.268951D-02 -0.649957D-02  0.113504D-01
     24 -0.771154D-02  0.254784D-02  0.216131D-02  0.124207D-01
     25 -0.419079D-02 -0.427750D-02  0.338220D-02  0.329549D-02  0.132201D-01
     26 -0.319803D-02 -0.395769D-02  0.496323D-02  0.420358D-02  0.236949D-03
     27  0.375083D-02  0.258343D-02 -0.451252D-02 -0.567992D-02  0.632109D-02
     28  0.474360D-02  0.290324D-02 -0.293148D-02 -0.477184D-02 -0.666205D-02
               26            27            28 
     26  0.110623D-01
     27 -0.717919D-02  0.138455D-01
     28  0.364614D-02  0.345182D-03  0.106534D-01
 Leave Link  716 at Sat Aug 21 02:19:50 2021, MaxMem= 24159191040 cpu:         1.3
 (Enter /public/home/users/caep010/software/Gaussian09/g09/l103.exe)

 GradGradGradGradGradGradGradGradGradGradGradGradGradGradGradGradGradGrad
 Berny optimization.
 Red2BG is reusing G-inverse.
 Internal  Forces:  Max     0.000087163 RMS     0.000032614
 Search for a local minimum.
 Step number   1 out of a maximum of    2
 All quantities printed in internal units (Hartrees-Bohrs-Radians)
 Second derivative matrix not updated -- analytic derivatives used.
 ITU=  0
     Eigenvalues ---    0.00722   0.00893   0.02119   0.02682   0.03161
     Eigenvalues ---    0.04555   0.13018   0.13421   0.13966   0.14508
     Eigenvalues ---    0.17049   0.24035   0.26525   0.40445   0.44014
     Eigenvalues ---    0.45193   0.46193   0.46230   0.47156   0.47484
     Eigenvalues ---    0.72798
 Angle between quadratic step and forces=  63.84 degrees.
 Linear search not attempted -- first point.
 Iteration  1 RMS(Cart)=  0.00041576 RMS(Int)=  0.00000022
 Iteration  2 RMS(Cart)=  0.00000023 RMS(Int)=  0.00000003
 ITry= 1 IFail=0 DXMaxC= 9.14D-04 DCOld= 1.00D+10 DXMaxT= 3.00D-01 DXLimC= 3.00D+00 Rises=F
 Variable       Old X    -DE/DX   Delta X   Delta X   Delta X     New X
                                 (Linear)    (Quad)   (Total)
    R1        2.42135   0.00003   0.00000   0.00005   0.00005   2.42140
    R2        1.92890   0.00001   0.00000   0.00004   0.00004   1.92893
    R3        2.64574  -0.00009   0.00000  -0.00021  -0.00021   2.64554
    R4        2.63869   0.00002   0.00000   0.00004   0.00004   2.63874
    R5        1.91441  -0.00003   0.00000  -0.00009  -0.00009   1.91433
    R6        1.91027  -0.00003   0.00000  -0.00005  -0.00005   1.91021
    R7        1.91281   0.00002   0.00000   0.00003   0.00003   1.91284
    R8        1.91468   0.00003   0.00000   0.00000   0.00000   1.91468
    A1        1.93831   0.00000   0.00000  -0.00001  -0.00001   1.93829
    A2        2.23288   0.00004   0.00000   0.00020   0.00020   2.23308
    A3        2.09600   0.00002   0.00000  -0.00002  -0.00002   2.09598
    A4        1.95424  -0.00006   0.00000  -0.00018  -0.00018   1.95406
    A5        1.99057  -0.00002   0.00000  -0.00013  -0.00013   1.99044
    A6        1.99162  -0.00002   0.00000  -0.00004  -0.00004   1.99158
    A7        1.95380   0.00002   0.00000   0.00022   0.00022   1.95402
    A8        1.92979  -0.00007   0.00000  -0.00028  -0.00028   1.92951
    A9        1.98778   0.00004   0.00000   0.00044   0.00044   1.98822
   A10        1.95567   0.00004   0.00000   0.00067   0.00067   1.95634
    D1        0.14714  -0.00001   0.00000  -0.00022  -0.00022   0.14691
    D2       -3.00791  -0.00002   0.00000  -0.00024  -0.00024  -3.00815
    D3       -2.50541   0.00000   0.00000   0.00062   0.00062  -2.50479
    D4       -0.22952  -0.00000   0.00000   0.00077   0.00077  -0.22875
    D5        0.64874   0.00001   0.00000   0.00063   0.00063   0.64937
    D6        2.92462   0.00000   0.00000   0.00079   0.00079   2.92541
    D7       -0.15581   0.00002   0.00000   0.00121   0.00121  -0.15459
    D8       -2.37614  -0.00001   0.00000   0.00019   0.00019  -2.37594
    D9        2.97435   0.00002   0.00000   0.00120   0.00120   2.97555
   D10        0.75402  -0.00001   0.00000   0.00018   0.00018   0.75420
         Item               Value     Threshold  Converged?
 Maximum Force            0.000087     0.000450     YES
 RMS     Force            0.000033     0.000300     YES
 Maximum Displacement     0.000914     0.001800     YES
 RMS     Displacement     0.000416     0.001200     YES
 Predicted change in Energy=-9.319248D-08
 Optimization completed.
    -- Stationary point found.
                           ----------------------------
                           !   Optimized Parameters   !
                           ! (Angstroms and Degrees)  !
 --------------------------                            --------------------------
 ! Name  Definition              Value          Derivative Info.                !
 --------------------------------------------------------------------------------
 ! R1    R(1,2)                  1.2813         -DE/DX =    0.0                 !
 ! R2    R(1,5)                  1.0207         -DE/DX =    0.0                 !
 ! R3    R(2,3)                  1.4001         -DE/DX =   -0.0001              !
 ! R4    R(2,4)                  1.3963         -DE/DX =    0.0                 !
 ! R5    R(3,6)                  1.0131         -DE/DX =    0.0                 !
 ! R6    R(3,7)                  1.0109         -DE/DX =    0.0                 !
 ! R7    R(4,8)                  1.0122         -DE/DX =    0.0                 !
 ! R8    R(4,9)                  1.0132         -DE/DX =    0.0                 !
 ! A1    A(2,1,5)              111.0567         -DE/DX =    0.0                 !
 ! A2    A(1,2,3)              127.9347         -DE/DX =    0.0                 !
 ! A3    A(1,2,4)              120.0919         -DE/DX =    0.0                 !
 ! A4    A(3,2,4)              111.9696         -DE/DX =   -0.0001              !
 ! A5    A(2,3,6)              114.0511         -DE/DX =    0.0                 !
 ! A6    A(2,3,7)              114.1114         -DE/DX =    0.0                 !
 ! A7    A(6,3,7)              111.9446         -DE/DX =    0.0                 !
 ! A8    A(2,4,8)              110.569          -DE/DX =   -0.0001              !
 ! A9    A(2,4,9)              113.8916         -DE/DX =    0.0                 !
 ! A10   A(8,4,9)              112.0517         -DE/DX =    0.0                 !
 ! D1    D(5,1,2,3)              8.4303         -DE/DX =    0.0                 !
 ! D2    D(5,1,2,4)           -172.3404         -DE/DX =    0.0                 !
 ! D3    D(1,2,3,6)           -143.5491         -DE/DX =    0.0                 !
 ! D4    D(1,2,3,7)            -13.1505         -DE/DX =    0.0                 !
 ! D5    D(4,2,3,6)             37.17           -DE/DX =    0.0                 !
 ! D6    D(4,2,3,7)            167.5686         -DE/DX =    0.0                 !
 ! D7    D(1,2,4,8)             -8.927          -DE/DX =    0.0                 !
 ! D8    D(1,2,4,9)           -136.1425         -DE/DX =    0.0                 !
 ! D9    D(3,2,4,8)            170.4175         -DE/DX =    0.0                 !
 ! D10   D(3,2,4,9)             43.202          -DE/DX =    0.0                 !
 --------------------------------------------------------------------------------
 GradGradGradGradGradGradGradGradGradGradGradGradGradGradGradGradGradGrad

 Leave Link  103 at Sat Aug 21 02:19:50 2021, MaxMem= 24159191040 cpu:         0.6
 (Enter /public/home/users/caep010/software/Gaussian09/g09/l9999.exe)
 1\1\GINC-B1114\Freq\RB3LYP\6-31G(d,p)\C1H5N3\ROOT\21-Aug-2021\0\\#P Ge
 om=AllCheck Guess=TCheck SCRF=Check GenChk RB3LYP/6-31G(d,p) Freq\\Fra
 g_184\\0,1\N,-0.1612966344,1.5064637871,0.2604538538\C,-0.0804437727,0
 .2483418612,0.0315810289\N,1.0298739235,-0.5876216074,0.2005376071\N,-
 1.1961605362,-0.4521834994,-0.4312318344\H,0.7565358603,1.9008094365,0
 .4701195918\H,1.1137610141,-1.3101923084,-0.5045542289\H,1.9007893228,
 -0.0940715902,0.3411451126\H,-2.0221737238,0.1318626887,-0.396914656\H
 ,-1.3409854535,-1.343308768,0.0286635251\\Version=ES64L-G09RevE.01\Sta
 te=1-A\HF=-205.3794245\RMSD=7.232e-10\RMSF=3.649e-05\ZeroPoint=0.07625
 51\Thermal=0.0807437\Dipole=0.5539474,-0.8905854,-0.0683658\DipoleDeri
 v=-0.3991972,0.1729216,0.0628839,-0.0333529,-1.1696406,-0.1300737,0.02
 66729,-0.1144199,-0.5557037,1.3745941,-0.1145255,0.2421537,0.0063869,1
 .5485328,0.2557109,0.2209095,0.2399841,0.3303591,-0.7269005,0.3676465,
 -0.0061993,0.3734044,-0.747873,0.1805327,-0.1945929,0.3270612,-0.41025
 12,-0.746639,-0.2825017,-0.1344506,-0.2703735,-0.5242305,-0.2473769,-0
 .3041724,-0.3770168,-0.6299534,-0.0906858,-0.1534227,-0.0781141,-0.024
 3913,0.2401861,-0.0029277,-0.0390857,-0.0092801,0.2382027,0.153364,0.0
 409883,-0.042335,-0.0192039,0.2293693,-0.0655105,0.0480091,-0.1951573,
 0.1830305,0.1244774,-0.0169593,-0.0072998,-0.0861805,0.1319446,-0.0631
 385,0.0761389,-0.0767591,0.2824724,0.1591901,0.0080407,0.0086499,0.042
 822,0.1375065,0.0006251,0.1055515,0.0094308,0.3087062,0.1517968,-0.022
 1878,-0.0452885,0.0108888,0.1542048,0.0721585,0.0605691,0.1961571,0.25
 31375\Polar=34.7502667,0.8662912,40.1920406,3.8052551,4.5494674,17.534
 4002\PG=C01 [X(C1H5N3)]\NImag=0\\0.46318949,0.11877014,0.73057624,0.08
 819476,0.14511924,0.09965905,-0.11999295,0.04554928,-0.00071138,0.6345
 5843,-0.02197442,-0.54975938,-0.09310047,-0.00890721,0.92074585,-0.014
 04496,-0.08449129,-0.08520456,0.09673204,0.13226667,0.24937090,-0.0006
 1271,0.02177727,0.00299995,-0.22509948,0.08541958,-0.05139590,0.699737
 83,0.04871583,-0.04583338,-0.00402296,0.06203593,-0.17157278,-0.002462
 22,0.02990785,0.57166305,0.00355894,-0.00583034,0.02901308,-0.00987279
 ,-0.02564145,-0.06982806,0.07112548,0.28183594,0.28812324,0.00266110,-
 0.02615853,-0.00710098,-0.23598611,-0.06779847,-0.08298936,-0.05337050
 ,-0.01139353,-0.02244596,0.68062683,-0.04733988,-0.04943643,-0.0240915
 9,-0.05935781,-0.16042221,-0.03220960,0.02067251,0.01938531,0.00459943
 ,-0.04011686,0.73201986,-0.01118304,-0.02224795,-0.00187922,-0.0347914
 4,-0.00960724,-0.07783595,-0.01666791,0.00273758,0.00086708,0.04894972
 ,-0.13096282,0.17200265,-0.34472355,-0.16259914,-0.07870604,-0.0107837
 1,0.01973999,0.00230850,0.00236330,0.00180268,0.00174429,0.00246315,-0
 .00246538,-0.00061247,0.34809000,-0.09906859,-0.08627947,-0.02673196,-
 0.04670007,-0.02795345,-0.01259518,-0.00103564,0.00357999,0.00210861,0
 .00223231,-0.00467179,-0.00137035,0.14338018,0.11641248,-0.06622819,-0
 .03423661,-0.04043652,-0.01082939,-0.00392322,-0.00570654,0.00066227,0
 .00308891,-0.00709166,0.00147442,-0.00240458,0.01363685,0.07557287,0.0
 3952179,0.03957081,-0.00455200,0.00318343,-0.00414529,0.00707328,0.020
 70418,0.02709093,-0.07143015,0.02881497,0.01545816,-0.00037269,-0.0020
 7295,-0.00197857,0.00004066,-0.00045875,0.00086527,0.06428380,0.004404
 75,0.00073191,0.00159029,0.00496900,-0.02384495,-0.01512881,0.01674487
 ,-0.22081797,-0.19811642,-0.00380103,0.00117633,-0.00038217,0.00032868
 ,0.00113161,-0.00061683,-0.02644505,0.25206334,-0.00210622,0.00105742,
 0.00328997,-0.00432820,0.01142258,0.00035443,0.01499728,-0.23872729,-0
 .22055846,0.00004900,0.00127597,0.00014860,0.00036300,-0.00006769,-0.0
 0097087,-0.01475559,0.22151292,0.22269458,0.00449864,-0.00058511,-0.00
 084619,-0.02474625,-0.02408906,-0.00235116,-0.34777972,-0.15730715,-0.
 05603167,-0.00285214,0.00603603,0.00014955,0.00059037,0.00226927,0.000
 96824,0.00630582,0.00487074,0.00433355,0.36458047,-0.00029950,0.001240
 46,0.00059935,0.02268484,0.01390488,0.00651534,-0.17334178,-0.15481351
 ,-0.05798314,0.00410780,-0.00266383,0.00032314,-0.00042551,-0.00152687
 ,-0.00016178,-0.02387501,-0.01035082,0.00347036,0.16958319,0.15320402,
 0.00231353,-0.00235392,-0.00361350,-0.00979115,0.00300114,-0.00583128,
 -0.02115915,-0.03795053,-0.02241767,-0.00113780,0.00149791,0.00252676,
 -0.00011072,0.00005892,0.00176102,-0.02376493,-0.01022208,-0.00455323,
 0.05465074,0.04738172,0.03097928,0.00357557,0.00226660,0.00120467,-0.0
 2898369,0.02401502,0.00448346,-0.00356610,-0.00512980,-0.00221328,-0.3
 1682464,0.17605053,0.00049688,0.00150926,0.00007603,-0.00020754,0.0004
 0258,-0.00038542,0.00002370,-0.00107182,0.00113273,-0.00066983,0.33626
 251,0.00013250,-0.00136216,-0.00093213,-0.01615179,0.01835197,0.001051
 60,-0.00350546,-0.00219071,-0.00186629,0.18258923,-0.19635971,0.005505
 36,0.00073995,-0.00065249,0.00082513,-0.00023031,-0.00058285,0.0000498
 5,-0.00096526,0.00099020,-0.00030285,-0.19014472,0.19508067,0.00124673
 ,0.00300415,-0.00096647,-0.01823373,0.00525994,-0.00476707,-0.00195569
 ,-0.00319714,0.00166062,0.04013388,-0.01769728,-0.01292537,0.00086756,
 0.00044519,-0.00124524,-0.00047073,0.00119128,-0.00023107,-0.00097432,
 -0.00002549,0.00179939,-0.00513035,0.00147446,0.02004583,-0.00404358,-
 0.00220394,-0.00088949,0.00396049,-0.02710962,0.02016645,-0.00024246,0
 .00255322,-0.00132318,-0.07634498,-0.05140617,0.01563727,0.00045052,-0
 .00069473,-0.00227794,-0.00175130,-0.00068653,0.00142349,0.00047463,0.
 00043325,-0.00033069,0.00869633,0.02753586,-0.01548335,0.06880035,-0.0
 0334082,0.00012220,0.00157024,-0.00412215,-0.01944993,0.00705348,0.003
 36080,0.00059999,0.00089365,-0.03966092,-0.33902754,0.15600445,-0.0005
 0145,-0.00004002,-0.00209282,0.00037949,0.00049340,0.00000589,0.000187
 36,0.00001547,-0.00111029,-0.00788097,-0.01327493,0.00954490,0.0515786
 7,0.37056135,-0.00175155,-0.00002070,0.00013817,-0.00817396,-0.0196779
 5,-0.00055188,0.00139368,-0.00130228,0.00023184,0.02306707,0.19999255,
 -0.09654140,-0.00142700,-0.00136932,0.00048214,0.00170075,0.00017182,-
 0.00017395,0.00010126,-0.00011951,-0.00065077,0.00201230,-0.00580512,-
 0.00337063,-0.01692255,-0.17186950,0.10043647\\0.00001984,-0.00002758,
 0.00001299,-0.00008739,-0.00002085,0.00000002,0.00003954,0.00001135,0.
 00004663,0.00001230,0.00010013,-0.00005006,-0.00000612,-0.00000542,-0.
 00002110,0.00001514,-0.00003168,-0.00001758,0.00003271,-0.00000694,-0.
 00000841,-0.00001789,-0.00006180,0.00002262,-0.00000813,0.00004280,0.0
 0001489\\\@


 THERE IS MUCH PLEASURE TO BE GAINED FROM USELESS KNOWLEDGE

                                       -- BERTRAND RUSSELL
 Job cpu time:       0 days  0 hours  2 minutes 59.8 seconds.
 File lengths (MBytes):  RWF=     11 Int=      0 D2E=      0 Chk=      2 Scr=      1
 Normal termination of Gaussian 09 at Sat Aug 21 02:19:50 2021.
