 Entering Gaussian System, Link 0=g09
 Input=B3LYP6-31Gdp.Frag_572.gjf
 Output=B3LYP6-31Gdp.Frag_572.log
 Initial command:
 /public/home/users/caep010/software/Gaussian09/g09/l1.exe "/public/home/users/caep010/.cache/gau_scr/Gau-188581.inp" -scrdir="/public/home/users/caep010/.cache/gau_scr/"
 Entering Link 1 = /public/home/users/caep010/software/Gaussian09/g09/l1.exe PID=    188582.
  
 Copyright (c) 1988,1990,1992,1993,1995,1998,2003,2009,2015,
            Gaussian, Inc.  All Rights Reserved.
  
 This is part of the Gaussian(R) 09 program.  It is based on
 the Gaussian(R) 03 system (copyright 2003, Gaussian, Inc.),
 the Gaussian(R) 98 system (copyright 1998, Gaussian, Inc.),
 the Gaussian(R) 94 system (copyright 1995, Gaussian, Inc.),
 the Gaussian 92(TM) system (copyright 1992, Gaussian, Inc.),
 the Gaussian 90(TM) system (copyright 1990, Gaussian, Inc.),
 the Gaussian 88(TM) system (copyright 1988, Gaussian, Inc.),
 the Gaussian 86(TM) system (copyright 1986, Carnegie Mellon
 University), and the Gaussian 82(TM) system (copyright 1983,
 Carnegie Mellon University). Gaussian is a federally registered
 trademark of Gaussian, Inc.
  
 This software contains proprietary and confidential information,
 including trade secrets, belonging to Gaussian, Inc.
  
 This software is provided under written license and may be
 used, copied, transmitted, or stored only in accord with that
 written license.
  
 The following legend is applicable only to US Government
 contracts under FAR:
  
                    RESTRICTED RIGHTS LEGEND
  
 Use, reproduction and disclosure by the US Government is
 subject to restrictions as set forth in subparagraphs (a)
 and (c) of the Commercial Computer Software - Restricted
 Rights clause in FAR 52.227-19.
  
 Gaussian, Inc.
 340 Quinnipiac St., Bldg. 40, Wallingford CT 06492
  
  
 ---------------------------------------------------------------
 Warning -- This program may not be used in any manner that
 competes with the business of Gaussian, Inc. or will provide
 assistance to any competitor of Gaussian, Inc.  The licensee
 of this program is prohibited from giving any competitor of
 Gaussian, Inc. access to this program.  By using this program,
 the user acknowledges that Gaussian, Inc. is engaged in the
 business of creating and licensing software in the field of
 computational chemistry and represents and warrants to the
 licensee that it is not a competitor of Gaussian, Inc. and that
 it will not use this program in any manner prohibited above.
 ---------------------------------------------------------------
  

 Cite this work as:
 Gaussian 09, Revision E.01,
 M. J. Frisch, G. W. Trucks, H. B. Schlegel, G. E. Scuseria, 
 M. A. Robb, J. R. Cheeseman, G. Scalmani, V. Barone, B. Mennucci, 
 G. A. Petersson, H. Nakatsuji, M. Caricato, X. Li, H. P. Hratchian, 
 A. F. Izmaylov, J. Bloino, G. Zheng, J. L. Sonnenberg, M. Hada, 
 M. Ehara, K. Toyota, R. Fukuda, J. Hasegawa, M. Ishida, T. Nakajima, 
 Y. Honda, O. Kitao, H. Nakai, T. Vreven, J. A. Montgomery, Jr., 
 J. E. Peralta, F. Ogliaro, M. Bearpark, J. J. Heyd, E. Brothers, 
 K. N. Kudin, V. N. Staroverov, T. Keith, R. Kobayashi, J. Normand, 
 K. Raghavachari, A. Rendell, J. C. Burant, S. S. Iyengar, J. Tomasi, 
 M. Cossi, N. Rega, J. M. Millam, M. Klene, J. E. Knox, J. B. Cross, 
 V. Bakken, C. Adamo, J. Jaramillo, R. Gomperts, R. E. Stratmann, 
 O. Yazyev, A. J. Austin, R. Cammi, C. Pomelli, J. W. Ochterski, 
 R. L. Martin, K. Morokuma, V. G. Zakrzewski, G. A. Voth, 
 P. Salvador, J. J. Dannenberg, S. Dapprich, A. D. Daniels, 
 O. Farkas, J. B. Foresman, J. V. Ortiz, J. Cioslowski, 
 and D. J. Fox, Gaussian, Inc., Wallingford CT, 2013.
 
 ******************************************
 Gaussian 09:  ES64L-G09RevE.01 30-Nov-2015
                 8-Sep-2022 
 ******************************************
 %nproc=32
 Will use up to   32 processors via shared memory.
 %mem=180GB
 %chk=B3LYP6-31Gdp.Frag_572.chk
 ----------------------------
 #P OPT Freq B3LYP/6-31G(d,p)
 ----------------------------
 1/14=-1,18=20,19=15,26=3,38=1/1,3;
 2/9=110,12=2,17=6,18=5,40=1/2;
 3/5=1,6=6,7=101,11=2,16=1,25=1,30=1,71=1,74=-5/1,2,3;
 4//1;
 5/5=2,38=5/2;
 6/7=2,8=2,9=2,10=2,28=1/1;
 7//1,2,3,16;
 1/14=-1,18=20,19=15,26=3/3(2);
 2/9=110/2;
 99//99;
 2/9=110/2;
 3/5=1,6=6,7=101,11=2,16=1,25=1,30=1,71=1,74=-5/1,2,3;
 4/5=5,16=3,69=1/1;
 5/5=2,38=5/2;
 7//1,2,3,16;
 1/14=-1,18=20,19=15,26=3/3(-5);
 2/9=110/2;
 6/7=2,8=2,9=2,10=2,19=2,28=1/1;
 99/9=1/99;
 Leave Link    1 at Thu Sep  8 15:21:00 2022, MaxMem= 24159191040 cpu:         2.2
 (Enter /public/home/users/caep010/software/Gaussian09/g09/l101.exe)
 --------
 Frag_572
 --------
 Symbolic Z-matrix:
 Charge =  0 Multiplicity = 1
 C                    -1.26255  -0.35952   0.10268 
 N                     0.0361    0.30193   0.21253 
 C                     1.21385  -0.51414  -0.07565 
 C                     0.09606   1.60135  -0.08098 
 N                     0.1517    2.74304  -0.29682 
 H                    -1.27032  -1.23492   0.75879 
 H                    -2.0464    0.32758   0.42425 
 H                    -1.47542  -0.68713  -0.92477 
 H                     1.23454  -0.8582   -1.11942 
 H                     2.11446   0.06858   0.12245 
 H                     1.20809  -1.38846   0.58196 
 
 NAtoms=     11 NQM=       11 NQMF=       0 NMMI=      0 NMMIF=      0
                NMic=       0 NMicF=      0.
                    Isotopes and Nuclear Properties:
 (Nuclear quadrupole moments (NQMom) in fm**2, nuclear magnetic moments (NMagM)
  in nuclear magnetons)

  Atom         1           2           3           4           5           6           7           8           9          10
 IAtWgt=          12          14          12          12          14           1           1           1           1           1
 AtmWgt=  12.0000000  14.0030740  12.0000000  12.0000000  14.0030740   1.0078250   1.0078250   1.0078250   1.0078250   1.0078250
 NucSpn=           0           2           0           0           2           1           1           1           1           1
 AtZEff=   0.0000000   0.0000000   0.0000000   0.0000000   0.0000000   0.0000000   0.0000000   0.0000000   0.0000000   0.0000000
 NQMom=    0.0000000   2.0440000   0.0000000   0.0000000   2.0440000   0.0000000   0.0000000   0.0000000   0.0000000   0.0000000
 NMagM=    0.0000000   0.4037610   0.0000000   0.0000000   0.4037610   2.7928460   2.7928460   2.7928460   2.7928460   2.7928460
 AtZNuc=   6.0000000   7.0000000   6.0000000   6.0000000   7.0000000   1.0000000   1.0000000   1.0000000   1.0000000   1.0000000

  Atom        11
 IAtWgt=           1
 AtmWgt=   1.0078250
 NucSpn=           1
 AtZEff=   0.0000000
 NQMom=    0.0000000
 NMagM=    2.7928460
 AtZNuc=   1.0000000
 Leave Link  101 at Thu Sep  8 15:21:00 2022, MaxMem= 24159191040 cpu:        10.8
 (Enter /public/home/users/caep010/software/Gaussian09/g09/l103.exe)

 GradGradGradGradGradGradGradGradGradGradGradGradGradGradGradGradGradGrad
 Berny optimization.
 Initialization pass.
                           ----------------------------
                           !    Initial Parameters    !
                           ! (Angstroms and Degrees)  !
 --------------------------                            --------------------------
 ! Name  Definition              Value          Derivative Info.                !
 --------------------------------------------------------------------------------
 ! R1    R(1,2)                  1.4615         estimate D2E/DX2                !
 ! R2    R(1,6)                  1.094          estimate D2E/DX2                !
 ! R3    R(1,7)                  1.0908         estimate D2E/DX2                !
 ! R4    R(1,8)                  1.0992         estimate D2E/DX2                !
 ! R5    R(2,3)                  1.4615         estimate D2E/DX2                !
 ! R6    R(2,4)                  1.3335         estimate D2E/DX2                !
 ! R7    R(3,9)                  1.0992         estimate D2E/DX2                !
 ! R8    R(3,10)                 1.0908         estimate D2E/DX2                !
 ! R9    R(3,11)                 1.094          estimate D2E/DX2                !
 ! R10   R(4,5)                  1.1632         estimate D2E/DX2                !
 ! A1    A(2,1,6)              108.8672         estimate D2E/DX2                !
 ! A2    A(2,1,7)              109.3459         estimate D2E/DX2                !
 ! A3    A(2,1,8)              112.1612         estimate D2E/DX2                !
 ! A4    A(6,1,7)              108.7907         estimate D2E/DX2                !
 ! A5    A(6,1,8)              108.7057         estimate D2E/DX2                !
 ! A6    A(7,1,8)              108.9118         estimate D2E/DX2                !
 ! A7    A(1,2,3)              116.6475         estimate D2E/DX2                !
 ! A8    A(1,2,4)              117.6728         estimate D2E/DX2                !
 ! A9    A(3,2,4)              117.6748         estimate D2E/DX2                !
 ! A10   A(2,3,9)              112.1583         estimate D2E/DX2                !
 ! A11   A(2,3,10)             109.3429         estimate D2E/DX2                !
 ! A12   A(2,3,11)             108.8725         estimate D2E/DX2                !
 ! A13   A(9,3,10)             108.9118         estimate D2E/DX2                !
 ! A14   A(9,3,11)             108.7067         estimate D2E/DX2                !
 ! A15   A(10,3,11)            108.7903         estimate D2E/DX2                !
 ! A16   L(2,4,5,10,-1)        179.9446         estimate D2E/DX2                !
 ! A17   L(2,4,5,10,-2)        182.4643         estimate D2E/DX2                !
 ! D1    D(6,1,2,3)             56.4155         estimate D2E/DX2                !
 ! D2    D(6,1,2,4)           -155.3824         estimate D2E/DX2                !
 ! D3    D(7,1,2,3)            175.1501         estimate D2E/DX2                !
 ! D4    D(7,1,2,4)            -36.6477         estimate D2E/DX2                !
 ! D5    D(8,1,2,3)            -63.9252         estimate D2E/DX2                !
 ! D6    D(8,1,2,4)             84.2769         estimate D2E/DX2                !
 ! D7    D(1,2,3,9)             63.8003         estimate D2E/DX2                !
 ! D8    D(1,2,3,10)          -175.279          estimate D2E/DX2                !
 ! D9    D(1,2,3,11)           -56.5435         estimate D2E/DX2                !
 ! D10   D(4,2,3,9)            -84.4012         estimate D2E/DX2                !
 ! D11   D(4,2,3,10)            36.5195         estimate D2E/DX2                !
 ! D12   D(4,2,3,11)           155.255          estimate D2E/DX2                !
 --------------------------------------------------------------------------------
 Trust Radius=3.00D-01 FncErr=1.00D-07 GrdErr=1.00D-06
 Number of steps in this run=     49 maximum allowed number of steps=    100.
 GradGradGradGradGradGradGradGradGradGradGradGradGradGradGradGradGradGrad

 Leave Link  103 at Thu Sep  8 15:21:00 2022, MaxMem= 24159191040 cpu:         0.4
 (Enter /public/home/users/caep010/software/Gaussian09/g09/l202.exe)
                          Input orientation:                          
 ---------------------------------------------------------------------
 Center     Atomic      Atomic             Coordinates (Angstroms)
 Number     Number       Type             X           Y           Z
 ---------------------------------------------------------------------
      1          6           0       -1.262547   -0.359521    0.102678
      2          7           0        0.036096    0.301929    0.212526
      3          6           0        1.213849   -0.514140   -0.075651
      4          6           0        0.096062    1.601345   -0.080984
      5          7           0        0.151697    2.743036   -0.296821
      6          1           0       -1.270318   -1.234924    0.758787
      7          1           0       -2.046402    0.327577    0.424252
      8          1           0       -1.475422   -0.687131   -0.924768
      9          1           0        1.234540   -0.858201   -1.119424
     10          1           0        2.114456    0.068584    0.122447
     11          1           0        1.208090   -1.388455    0.581957
 ---------------------------------------------------------------------
                    Distance matrix (angstroms):
                    1          2          3          4          5
     1  C    0.000000
     2  N    1.461525   0.000000
     3  C    2.487618   1.461546   0.000000
     4  C    2.392602   1.333501   2.392646   0.000000
     5  N    3.433008   2.496358   3.433115   1.163245   0.000000
     6  H    1.094015   2.089745   2.717886   3.258317   4.354377
     7  H    1.090845   2.093390   3.404060   2.543207   3.344552
     8  H    1.099222   2.134564   2.825439   2.901492   3.848101
     9  H    2.824475   2.134540   1.099213   2.902388   3.849433
    10  H    3.404088   2.093357   1.090827   2.542569   3.343786
    11  H    2.718908   2.089844   1.094033   3.258067   4.354014
                    6          7          8          9         10
     6  H    0.000000
     7  H    1.776409   0.000000
     8  H    1.782274   1.781995   0.000000
     9  H    3.153397   3.814916   2.722324   0.000000
    10  H    3.682493   4.179821   3.815100   1.781973   0.000000
    11  H    2.489447   3.682574   3.156471   1.782292   1.776404
                   11
    11  H    0.000000
 Stoichiometry    C3H6N2
 Framework group  C1[X(C3H6N2)]
 Deg. of freedom    27
 Full point group                 C1      NOp   1
 Largest Abelian subgroup         C1      NOp   1
 Largest concise Abelian subgroup C1      NOp   1
                         Standard orientation:                         
 ---------------------------------------------------------------------
 Center     Atomic      Atomic             Coordinates (Angstroms)
 Number     Number       Type             X           Y           Z
 ---------------------------------------------------------------------
      1          6           0        1.014545    1.243860    0.052547
      2          7           0        0.295262    0.000002   -0.214858
      3          6           0        1.014753   -1.243758    0.052554
      4          6           0       -1.027054   -0.000079   -0.042506
      5          7           0       -2.185139   -0.000070    0.066942
      6          1           0        1.945978    1.244296   -0.521302
      7          1           0        0.404570    2.089886   -0.267003
      8          1           0        1.256968    1.361781    1.118200
      9          1           0        1.259098   -1.360542    1.117883
     10          1           0        0.403925   -2.089934   -0.264901
     11          1           0        1.945132   -1.245151   -0.523034
 ---------------------------------------------------------------------
 Rotational constants (GHZ):      8.8990924      4.2161118      2.9964370
 Leave Link  202 at Thu Sep  8 15:21:00 2022, MaxMem= 24159191040 cpu:         0.3
 (Enter /public/home/users/caep010/software/Gaussian09/g09/l301.exe)
 Standard basis: 6-31G(d,p) (6D, 7F)
 Ernie: Thresh=  0.10000D-02 Tol=  0.10000D-05 Strict=F.
 There are   105 symmetry adapted cartesian basis functions of A   symmetry.
 There are   105 symmetry adapted basis functions of A   symmetry.
   105 basis functions,   182 primitive gaussians,   105 cartesian basis functions
    19 alpha electrons       19 beta electrons
       nuclear repulsion energy       163.2047164687 Hartrees.
 IExCor=  402 DFT=T Ex+Corr=B3LYP ExCW=0 ScaHFX=  0.200000
 ScaDFX=  0.800000  0.720000  1.000000  0.810000 ScalE2=  1.000000  1.000000
 IRadAn=      0 IRanWt=     -1 IRanGd=            0 ICorTp=0 IEmpDi=  4
 NAtoms=   11 NActive=   11 NUniq=   11 SFac= 1.00D+00 NAtFMM=   60 NAOKFM=F Big=F
 Integral buffers will be    131072 words long.
 Raffenetti 2 integral format.
 Two-electron integral symmetry is turned on.
 Leave Link  301 at Thu Sep  8 15:21:01 2022, MaxMem= 24159191040 cpu:         2.1
 (Enter /public/home/users/caep010/software/Gaussian09/g09/l302.exe)
 NPDir=0 NMtPBC=     1 NCelOv=     1 NCel=       1 NClECP=     1 NCelD=      1
         NCelK=      1 NCelE2=     1 NClLst=     1 CellRange=     0.0.
 One-electron integrals computed using PRISM.
 NBasis=   105 RedAO= T EigKep=  1.09D-03  NBF=   105
 NBsUse=   105 1.00D-06 EigRej= -1.00D+00 NBFU=   105
 Precomputing XC quadrature grid using
 IXCGrd= 4 IRadAn=           0 IRanWt=          -1 IRanGd=           0 AccXCQ= 0.00D+00.
 Generated NRdTot=       0 NPtTot=           0 NUsed=           0 NTot=          32
 NSgBfM=   105   105   105   105   105 MxSgAt=    11 MxSgA2=    11.
 Leave Link  302 at Thu Sep  8 15:21:01 2022, MaxMem= 24159191040 cpu:        10.8
 (Enter /public/home/users/caep010/software/Gaussian09/g09/l303.exe)
 DipDrv:  MaxL=1.
 Leave Link  303 at Thu Sep  8 15:21:01 2022, MaxMem= 24159191040 cpu:         0.9
 (Enter /public/home/users/caep010/software/Gaussian09/g09/l401.exe)
 ExpMin= 1.61D-01 ExpMax= 4.17D+03 ExpMxC= 6.27D+02 IAcc=1 IRadAn=         1 AccDes= 0.00D+00
 Harris functional with IExCor=  402 and IRadAn=       1 diagonalized for initial guess.
 HarFok:  IExCor=  402 AccDes= 0.00D+00 IRadAn=         1 IDoV= 1 UseB2=F ITyADJ=14
 ICtDFT=  3500011 ScaDFX=  1.000000  1.000000  1.000000  1.000000
 FoFCou: FMM=F IPFlag=           0 FMFlag=      100000 FMFlg1=           0
         NFxFlg=           0 DoJE=T BraDBF=F KetDBF=T FulRan=T
         wScrn=  0.000000 ICntrl=     500 IOpCl=  0 I1Cent=   200000004 NGrid=           0
         NMat0=    1 NMatS0=      1 NMatT0=    0 NMatD0=    1 NMtDS0=    0 NMtDT0=    0
 Petite list used in FoFCou.
 Harris En= -227.416896589066    
 JPrj=0 DoOrth=F DoCkMO=F.
 Leave Link  401 at Thu Sep  8 15:21:01 2022, MaxMem= 24159191040 cpu:         9.9
 (Enter /public/home/users/caep010/software/Gaussian09/g09/l502.exe)
 Closed shell SCF:
 Using DIIS extrapolation, IDIIS=  1040.
 Integral symmetry usage will be decided dynamically.
 Keep R1 ints in memory in canonical form, NReq=16470489.
 IVT=       55780 IEndB=       55780 NGot= 24159191040 MDV= 24143647866
 LenX= 24143647866 LenY= 24143636400
 Requested convergence on RMS density matrix=1.00D-08 within 128 cycles.
 Requested convergence on MAX density matrix=1.00D-06.
 Requested convergence on             energy=1.00D-06.
 No special actions if energy rises.
 FoFCou: FMM=F IPFlag=           0 FMFlag=           0 FMFlg1=           0
         NFxFlg=           0 DoJE=F BraDBF=F KetDBF=F FulRan=T
         wScrn=  0.000000 ICntrl=     600 IOpCl=  0 I1Cent=           0 NGrid=           0
         NMat0=    1 NMatS0=   5565 NMatT0=    0 NMatD0=    1 NMtDS0=    0 NMtDT0=    0
 Symmetry not used in FoFCou.
 Integral accuracy reduced to 1.0D-05 until final iterations.

 Cycle   1  Pass 0  IDiag  1:
 E= -227.268725574318    
 DIIS: error= 3.09D-02 at cycle   1 NSaved=   1.
 NSaved= 1 IEnMin= 1 EnMin= -227.268725574318     IErMin= 1 ErrMin= 3.09D-02
 ErrMax= 3.09D-02  0.00D+00 EMaxC= 1.00D-01 BMatC= 1.42D-01 BMatP= 1.42D-01
 IDIUse=3 WtCom= 6.91D-01 WtEn= 3.09D-01
 Coeff-Com:  0.100D+01
 Coeff-En:   0.100D+01
 Coeff:      0.100D+01
 Gap=     0.307 Goal=   None    Shift=    0.000
 GapD=    0.307 DampG=1.000 DampE=0.500 DampFc=0.5000 IDamp=-1.
 Damping current iteration by 5.00D-01
 RMSDP=9.63D-03 MaxDP=2.89D-01              OVMax= 2.68D-01

 Cycle   2  Pass 0  IDiag  1:
 E= -227.300683728398     Delta-E=       -0.031958154080 Rises=F Damp=T
 DIIS: error= 1.66D-02 at cycle   2 NSaved=   2.
 NSaved= 2 IEnMin= 2 EnMin= -227.300683728398     IErMin= 2 ErrMin= 1.66D-02
 ErrMax= 1.66D-02  0.00D+00 EMaxC= 1.00D-01 BMatC= 3.34D-02 BMatP= 1.42D-01
 IDIUse=3 WtCom= 8.34D-01 WtEn= 1.66D-01
 Coeff-Com:  0.261D+00 0.739D+00
 Coeff-En:   0.377D+00 0.623D+00
 Coeff:      0.280D+00 0.720D+00
 Gap=     0.295 Goal=   None    Shift=    0.000
 RMSDP=2.97D-03 MaxDP=6.55D-02 DE=-3.20D-02 OVMax= 2.28D-01

 Cycle   3  Pass 0  IDiag  1:
 E= -227.379455491553     Delta-E=       -0.078771763155 Rises=F Damp=F
 DIIS: error= 1.59D-02 at cycle   3 NSaved=   3.
 NSaved= 3 IEnMin= 3 EnMin= -227.379455491553     IErMin= 3 ErrMin= 1.59D-02
 ErrMax= 1.59D-02  0.00D+00 EMaxC= 1.00D-01 BMatC= 2.94D-02 BMatP= 3.34D-02
 IDIUse=3 WtCom= 8.41D-01 WtEn= 1.59D-01
 Coeff-Com:  0.735D-01 0.469D+00 0.457D+00
 Coeff-En:   0.000D+00 0.000D+00 0.100D+01
 Coeff:      0.619D-01 0.395D+00 0.543D+00
 Gap=     0.288 Goal=   None    Shift=    0.000
 RMSDP=2.04D-03 MaxDP=4.22D-02 DE=-7.88D-02 OVMax= 8.12D-02

 Cycle   4  Pass 0  IDiag  1:
 E= -227.399856385342     Delta-E=       -0.020400893789 Rises=F Damp=F
 DIIS: error= 7.72D-03 at cycle   4 NSaved=   4.
 NSaved= 4 IEnMin= 4 EnMin= -227.399856385342     IErMin= 4 ErrMin= 7.72D-03
 ErrMax= 7.72D-03  0.00D+00 EMaxC= 1.00D-01 BMatC= 8.36D-03 BMatP= 2.94D-02
 IDIUse=3 WtCom= 9.23D-01 WtEn= 7.72D-02
 Coeff-Com:  0.320D-01 0.378D-01 0.333D+00 0.597D+00
 Coeff-En:   0.000D+00 0.000D+00 0.265D+00 0.735D+00
 Coeff:      0.295D-01 0.349D-01 0.328D+00 0.608D+00
 Gap=     0.283 Goal=   None    Shift=    0.000
 RMSDP=8.48D-04 MaxDP=1.80D-02 DE=-2.04D-02 OVMax= 3.07D-02

 Cycle   5  Pass 0  IDiag  1:
 E= -227.407369233593     Delta-E=       -0.007512848251 Rises=F Damp=F
 DIIS: error= 1.24D-03 at cycle   5 NSaved=   5.
 NSaved= 5 IEnMin= 5 EnMin= -227.407369233593     IErMin= 5 ErrMin= 1.24D-03
 ErrMax= 1.24D-03  0.00D+00 EMaxC= 1.00D-01 BMatC= 1.38D-04 BMatP= 8.36D-03
 IDIUse=3 WtCom= 9.88D-01 WtEn= 1.24D-02
 Coeff-Com:  0.970D-02-0.114D-01 0.123D+00 0.293D+00 0.586D+00
 Coeff-En:   0.000D+00 0.000D+00 0.000D+00 0.000D+00 0.100D+01
 Coeff:      0.958D-02-0.113D-01 0.122D+00 0.289D+00 0.591D+00
 Gap=     0.284 Goal=   None    Shift=    0.000
 RMSDP=1.29D-04 MaxDP=3.02D-03 DE=-7.51D-03 OVMax= 4.36D-03

 Cycle   6  Pass 0  IDiag  1:
 E= -227.407494528894     Delta-E=       -0.000125295301 Rises=F Damp=F
 DIIS: error= 2.15D-04 at cycle   6 NSaved=   6.
 NSaved= 6 IEnMin= 6 EnMin= -227.407494528894     IErMin= 6 ErrMin= 2.15D-04
 ErrMax= 2.15D-04  0.00D+00 EMaxC= 1.00D-01 BMatC= 7.09D-06 BMatP= 1.38D-04
 IDIUse=3 WtCom= 9.98D-01 WtEn= 2.15D-03
 Coeff-Com:  0.276D-02-0.734D-02 0.376D-01 0.966D-01 0.276D+00 0.594D+00
 Coeff-En:   0.000D+00 0.000D+00 0.000D+00 0.000D+00 0.000D+00 0.100D+01
 Coeff:      0.275D-02-0.733D-02 0.376D-01 0.964D-01 0.276D+00 0.595D+00
 Gap=     0.284 Goal=   None    Shift=    0.000
 RMSDP=2.18D-05 MaxDP=7.64D-04 DE=-1.25D-04 OVMax= 7.21D-04

 Cycle   7  Pass 0  IDiag  1:
 E= -227.407499771469     Delta-E=       -0.000005242575 Rises=F Damp=F
 DIIS: error= 6.13D-05 at cycle   7 NSaved=   7.
 NSaved= 7 IEnMin= 7 EnMin= -227.407499771469     IErMin= 7 ErrMin= 6.13D-05
 ErrMax= 6.13D-05  0.00D+00 EMaxC= 1.00D-01 BMatC= 5.43D-07 BMatP= 7.09D-06
 IDIUse=1 WtCom= 1.00D+00 WtEn= 0.00D+00
 Coeff-Com:  0.599D-03-0.227D-02 0.750D-02 0.200D-01 0.838D-01 0.282D+00
 Coeff-Com:  0.608D+00
 Coeff:      0.599D-03-0.227D-02 0.750D-02 0.200D-01 0.838D-01 0.282D+00
 Coeff:      0.608D+00
 Gap=     0.284 Goal=   None    Shift=    0.000
 RMSDP=8.84D-06 MaxDP=2.34D-04 DE=-5.24D-06 OVMax= 1.81D-04

 Initial convergence to 1.0D-05 achieved.  Increase integral accuracy.
 Cycle   8  Pass 1  IDiag  1:
 E= -227.407515335753     Delta-E=       -0.000015564284 Rises=F Damp=F
 DIIS: error= 1.20D-05 at cycle   1 NSaved=   1.
 NSaved= 1 IEnMin= 1 EnMin= -227.407515335753     IErMin= 1 ErrMin= 1.20D-05
 ErrMax= 1.20D-05  0.00D+00 EMaxC= 1.00D-01 BMatC= 2.35D-08 BMatP= 2.35D-08
 IDIUse=1 WtCom= 1.00D+00 WtEn= 0.00D+00
 Coeff-Com:  0.100D+01
 Coeff:      0.100D+01
 Gap=     0.284 Goal=   None    Shift=    0.000
 RMSDP=8.84D-06 MaxDP=2.34D-04 DE=-1.56D-05 OVMax= 6.53D-05

 Cycle   9  Pass 1  IDiag  1:
 E= -227.407515341790     Delta-E=       -0.000000006038 Rises=F Damp=F
 DIIS: error= 1.28D-05 at cycle   2 NSaved=   2.
 NSaved= 2 IEnMin= 2 EnMin= -227.407515341790     IErMin= 1 ErrMin= 1.20D-05
 ErrMax= 1.28D-05  0.00D+00 EMaxC= 1.00D-01 BMatC= 2.36D-08 BMatP= 2.35D-08
 IDIUse=1 WtCom= 1.00D+00 WtEn= 0.00D+00
 Coeff-Com:  0.501D+00 0.499D+00
 Coeff:      0.501D+00 0.499D+00
 Gap=     0.284 Goal=   None    Shift=    0.000
 RMSDP=1.58D-06 MaxDP=4.75D-05 DE=-6.04D-09 OVMax= 5.06D-05

 Cycle  10  Pass 1  IDiag  1:
 E= -227.407515358361     Delta-E=       -0.000000016570 Rises=F Damp=F
 DIIS: error= 5.95D-06 at cycle   3 NSaved=   3.
 NSaved= 3 IEnMin= 3 EnMin= -227.407515358361     IErMin= 3 ErrMin= 5.95D-06
 ErrMax= 5.95D-06  0.00D+00 EMaxC= 1.00D-01 BMatC= 3.84D-09 BMatP= 2.35D-08
 IDIUse=1 WtCom= 1.00D+00 WtEn= 0.00D+00
 Coeff-Com:  0.140D+00 0.287D+00 0.573D+00
 Coeff:      0.140D+00 0.287D+00 0.573D+00
 Gap=     0.284 Goal=   None    Shift=    0.000
 RMSDP=8.58D-07 MaxDP=2.22D-05 DE=-1.66D-08 OVMax= 3.39D-05

 Cycle  11  Pass 1  IDiag  1:
 E= -227.407515359964     Delta-E=       -0.000000001603 Rises=F Damp=F
 DIIS: error= 4.28D-06 at cycle   4 NSaved=   4.
 NSaved= 4 IEnMin= 4 EnMin= -227.407515359964     IErMin= 4 ErrMin= 4.28D-06
 ErrMax= 4.28D-06  0.00D+00 EMaxC= 1.00D-01 BMatC= 1.91D-09 BMatP= 3.84D-09
 IDIUse=1 WtCom= 1.00D+00 WtEn= 0.00D+00
 Coeff-Com:  0.552D-02 0.116D+00 0.442D+00 0.437D+00
 Coeff:      0.552D-02 0.116D+00 0.442D+00 0.437D+00
 Gap=     0.284 Goal=   None    Shift=    0.000
 RMSDP=4.10D-07 MaxDP=1.20D-05 DE=-1.60D-09 OVMax= 1.83D-05

 Cycle  12  Pass 1  IDiag  1:
 E= -227.407515361602     Delta-E=       -0.000000001638 Rises=F Damp=F
 DIIS: error= 9.03D-07 at cycle   5 NSaved=   5.
 NSaved= 5 IEnMin= 5 EnMin= -227.407515361602     IErMin= 5 ErrMin= 9.03D-07
 ErrMax= 9.03D-07  0.00D+00 EMaxC= 1.00D-01 BMatC= 5.87D-11 BMatP= 1.91D-09
 IDIUse=1 WtCom= 1.00D+00 WtEn= 0.00D+00
 Coeff-Com: -0.790D-02 0.397D-01 0.192D+00 0.240D+00 0.537D+00
 Coeff:     -0.790D-02 0.397D-01 0.192D+00 0.240D+00 0.537D+00
 Gap=     0.284 Goal=   None    Shift=    0.000
 RMSDP=6.33D-08 MaxDP=1.79D-06 DE=-1.64D-09 OVMax= 2.67D-06

 Cycle  13  Pass 1  IDiag  1:
 E= -227.407515361653     Delta-E=       -0.000000000051 Rises=F Damp=F
 DIIS: error= 9.88D-08 at cycle   6 NSaved=   6.
 NSaved= 6 IEnMin= 6 EnMin= -227.407515361653     IErMin= 6 ErrMin= 9.88D-08
 ErrMax= 9.88D-08  0.00D+00 EMaxC= 1.00D-01 BMatC= 1.38D-12 BMatP= 5.87D-11
 IDIUse=1 WtCom= 1.00D+00 WtEn= 0.00D+00
 Coeff-Com: -0.371D-02 0.845D-02 0.460D-01 0.686D-01 0.191D+00 0.690D+00
 Coeff:     -0.371D-02 0.845D-02 0.460D-01 0.686D-01 0.191D+00 0.690D+00
 Gap=     0.284 Goal=   None    Shift=    0.000
 RMSDP=1.40D-08 MaxDP=2.66D-07 DE=-5.10D-11 OVMax= 5.02D-07

 Cycle  14  Pass 1  IDiag  1:
 E= -227.407515361654     Delta-E=       -0.000000000000 Rises=F Damp=F
 DIIS: error= 3.53D-08 at cycle   7 NSaved=   7.
 NSaved= 7 IEnMin= 7 EnMin= -227.407515361654     IErMin= 7 ErrMin= 3.53D-08
 ErrMax= 3.53D-08  0.00D+00 EMaxC= 1.00D-01 BMatC= 1.73D-13 BMatP= 1.38D-12
 IDIUse=1 WtCom= 1.00D+00 WtEn= 0.00D+00
 Coeff-Com: -0.597D-03-0.725D-03-0.164D-02 0.273D-02 0.128D-01 0.272D+00
 Coeff-Com:  0.715D+00
 Coeff:     -0.597D-03-0.725D-03-0.164D-02 0.273D-02 0.128D-01 0.272D+00
 Coeff:      0.715D+00
 Gap=     0.284 Goal=   None    Shift=    0.000
 RMSDP=4.40D-09 MaxDP=8.66D-08 DE=-2.84D-13 OVMax= 1.30D-07

 SCF Done:  E(RB3LYP) =  -227.407515362     A.U. after   14 cycles
            NFock= 14  Conv=0.44D-08     -V/T= 2.0095
 KE= 2.252571542080D+02 PE=-8.541135476158D+02 EE= 2.382441615775D+02
 Leave Link  502 at Thu Sep  8 15:21:03 2022, MaxMem= 24159191040 cpu:        33.0
 (Enter /public/home/users/caep010/software/Gaussian09/g09/l601.exe)
 Copying SCF densities to generalized density rwf, IOpCl= 0 IROHF=0.

 **********************************************************************

            Population analysis using the SCF density.

 **********************************************************************

 Orbital symmetries:
       Occupied  (A) (A) (A) (A) (A) (A) (A) (A) (A) (A) (A) (A)
                 (A) (A) (A) (A) (A) (A) (A)
       Virtual   (A) (A) (A) (A) (A) (A) (A) (A) (A) (A) (A) (A)
                 (A) (A) (A) (A) (A) (A) (A) (A) (A) (A) (A) (A)
                 (A) (A) (A) (A) (A) (A) (A) (A) (A) (A) (A) (A)
                 (A) (A) (A) (A) (A) (A) (A) (A) (A) (A) (A) (A)
                 (A) (A) (A) (A) (A) (A) (A) (A) (A) (A) (A) (A)
                 (A) (A) (A) (A) (A) (A) (A) (A) (A) (A) (A) (A)
                 (A) (A) (A) (A) (A) (A) (A) (A) (A) (A) (A) (A)
                 (A) (A)
 The electronic state is 1-A.
 Alpha  occ. eigenvalues --  -14.39273 -14.31226 -10.23969 -10.23968 -10.23856
 Alpha  occ. eigenvalues --   -0.98094  -0.87681  -0.74527  -0.70769  -0.55346
 Alpha  occ. eigenvalues --   -0.49598  -0.48876  -0.42884  -0.42378  -0.40602
 Alpha  occ. eigenvalues --   -0.35806  -0.34452  -0.31788  -0.24040
 Alpha virt. eigenvalues --    0.04330   0.06682   0.07932   0.11986   0.12567
 Alpha virt. eigenvalues --    0.13904   0.15456   0.15904   0.17083   0.22454
 Alpha virt. eigenvalues --    0.24335   0.44882   0.46932   0.49447   0.51556
 Alpha virt. eigenvalues --    0.52476   0.53876   0.59964   0.64404   0.67894
 Alpha virt. eigenvalues --    0.69814   0.70666   0.75259   0.78739   0.80642
 Alpha virt. eigenvalues --    0.84032   0.84433   0.87293   0.88243   0.89122
 Alpha virt. eigenvalues --    0.92534   0.96410   1.00803   1.04578   1.22766
 Alpha virt. eigenvalues --    1.25097   1.25455   1.34536   1.34836   1.52260
 Alpha virt. eigenvalues --    1.56692   1.57959   1.62783   1.73376   1.77061
 Alpha virt. eigenvalues --    1.83867   1.88331   1.91093   1.92340   1.95486
 Alpha virt. eigenvalues --    1.99721   2.00721   2.01258   2.01272   2.02475
 Alpha virt. eigenvalues --    2.06781   2.10520   2.11062   2.20954   2.29783
 Alpha virt. eigenvalues --    2.33627   2.45181   2.45384   2.54055   2.55908
 Alpha virt. eigenvalues --    2.65589   2.65961   2.76344   2.77815   2.84094
 Alpha virt. eigenvalues --    2.84714   2.92099   2.96450   3.08162   3.13125
 Alpha virt. eigenvalues --    3.20710   3.28068   3.38466   3.38918   3.43291
 Alpha virt. eigenvalues --    3.46418   3.88874   4.36081   4.42894   4.43306
 Alpha virt. eigenvalues --    4.60397
          Condensed to atoms (all electrons):
               1          2          3          4          5          6
     1  C    4.794167   0.320881  -0.050322  -0.049990  -0.002659   0.387829
     2  N    0.320881   6.851578   0.320875   0.289852  -0.073370  -0.041111
     3  C   -0.050322   0.320875   4.794194  -0.049993  -0.002659  -0.002618
     4  C   -0.049990   0.289852  -0.049993   4.421250   0.886459   0.004277
     5  N   -0.002659  -0.073370  -0.002659   0.886459   6.660047   0.000002
     6  H    0.387829  -0.041111  -0.002618   0.004277   0.000002   0.587510
     7  H    0.390110  -0.030948   0.004244  -0.000598   0.000675  -0.022506
     8  H    0.382877  -0.049051  -0.001536  -0.001800   0.000424  -0.043536
     9  H   -0.001533  -0.049055   0.382871  -0.001794   0.000422  -0.001694
    10  H    0.004244  -0.030925   0.390101  -0.000591   0.000678   0.000080
    11  H   -0.002623  -0.041137   0.387840   0.004272   0.000002   0.005857
               7          8          9         10         11
     1  C    0.390110   0.382877  -0.001533   0.004244  -0.002623
     2  N   -0.030948  -0.049051  -0.049055  -0.030925  -0.041137
     3  C    0.004244  -0.001536   0.382871   0.390101   0.387840
     4  C   -0.000598  -0.001800  -0.001794  -0.000591   0.004272
     5  N    0.000675   0.000424   0.000422   0.000678   0.000002
     6  H   -0.022506  -0.043536  -0.001694   0.000080   0.005857
     7  H    0.547198  -0.032772  -0.000184  -0.000215   0.000080
     8  H   -0.032772   0.618129   0.007505  -0.000183  -0.001687
     9  H   -0.000184   0.007505   0.618141  -0.032736  -0.043560
    10  H   -0.000215  -0.000183  -0.032736   0.547146  -0.022514
    11  H    0.000080  -0.001687  -0.043560  -0.022514   0.587529
 Mulliken charges:
               1
     1  C   -0.172982
     2  N   -0.467592
     3  C   -0.172996
     4  C    0.498656
     5  N   -0.470019
     6  H    0.125912
     7  H    0.144916
     8  H    0.121630
     9  H    0.121616
    10  H    0.144917
    11  H    0.125942
 Sum of Mulliken charges =  -0.00000
 Mulliken charges with hydrogens summed into heavy atoms:
               1
     1  C    0.219476
     2  N   -0.467592
     3  C    0.219478
     4  C    0.498656
     5  N   -0.470019
 Electronic spatial extent (au):  <R**2>=            433.2664
 Charge=             -0.0000 electrons
 Dipole moment (field-independent basis, Debye):
    X=              4.7509    Y=             -0.0000    Z=              0.1658  Tot=              4.7538
 Quadrupole moment (field-independent basis, Debye-Ang):
   XX=            -38.0484   YY=            -26.5515   ZZ=            -30.7795
   XY=             -0.0002   XZ=              0.4599   YZ=             -0.0005
 Traceless Quadrupole moment (field-independent basis, Debye-Ang):
   XX=             -6.2553   YY=              5.2416   ZZ=              1.0137
   XY=             -0.0002   XZ=              0.4599   YZ=             -0.0005
 Octapole moment (field-independent basis, Debye-Ang**2):
  XXX=             30.1321  YYY=             -0.0016  ZZZ=              1.0871  XYY=              2.3718
  XXY=              0.0001  XXZ=             -2.2032  XZZ=              1.7137  YZZ=              0.0015
  YYZ=             -1.0308  XYZ=              0.0008
 Hexadecapole moment (field-independent basis, Debye-Ang**3):
 XXXX=           -398.5670 YYYY=           -177.7090 ZZZZ=            -44.8898 XXXY=             -0.0016
 XXXZ=             -1.3497 YYYX=              0.0027 YYYZ=             -0.0068 ZZZX=              1.3840
 ZZZY=              0.0022 XXYY=            -86.3291 XXZZ=            -64.3080 YYZZ=            -38.7283
 XXYZ=              0.0009 YYXZ=              0.2226 ZZXY=             -0.0029
 N-N= 1.632047164687D+02 E-N=-8.541135519609D+02  KE= 2.252571542080D+02
 No NMR shielding tensors so no spin-rotation constants.
 Leave Link  601 at Thu Sep  8 15:21:03 2022, MaxMem= 24159191040 cpu:        10.5
 (Enter /public/home/users/caep010/software/Gaussian09/g09/l701.exe)
 Compute integral first derivatives.
 ... and contract with generalized density number  0.
 Leave Link  701 at Thu Sep  8 15:21:04 2022, MaxMem= 24159191040 cpu:        10.5
 (Enter /public/home/users/caep010/software/Gaussian09/g09/l702.exe)
 L702 exits ... SP integral derivatives will be done elsewhere.
 Leave Link  702 at Thu Sep  8 15:21:04 2022, MaxMem= 24159191040 cpu:         0.5
 (Enter /public/home/users/caep010/software/Gaussian09/g09/l703.exe)
 Compute integral first derivatives, UseDBF=F ICtDFT=           0.
 Integral derivatives from FoFJK, PRISM(SPDF).
 Calling FoFJK, ICntrl=      2127 FMM=F ISym2X=0 I1Cent= 0 IOpClX= 0 NMat=1 NMatS=1 NMatT=0.
 FoFJK:  IHMeth= 1 ICntrl=    2127 DoSepK=F KAlg= 0 I1Cent=   0 FoldK=F
 IRaf=         0 NMat=   1 IRICut=       1 DoRegI=T DoRafI=F ISym2E= 0.
 FoFCou: FMM=F IPFlag=           0 FMFlag=      100000 FMFlg1=         800
         NFxFlg=           0 DoJE=F BraDBF=F KetDBF=F FulRan=T
         wScrn=  0.000000 ICntrl=    2127 IOpCl=  0 I1Cent=           0 NGrid=           0
         NMat0=    1 NMatS0=      1 NMatT0=    0 NMatD0=    1 NMtDS0=    0 NMtDT0=    0
 Symmetry not used in FoFCou.
 Leave Link  703 at Thu Sep  8 15:21:04 2022, MaxMem= 24159191040 cpu:         9.0
 (Enter /public/home/users/caep010/software/Gaussian09/g09/l716.exe)
 Dipole        = 1.86913722D+00-1.51042975D-05 6.52404873D-02
 ***** Axes restored to original set *****
 -------------------------------------------------------------------
 Center     Atomic                   Forces (Hartrees/Bohr)
 Number     Number              X              Y              Z
 -------------------------------------------------------------------
      1        6          -0.001220483   -0.000545210   -0.000408933
      2        7          -0.000022667   -0.003411264    0.002489399
      3        6           0.001059930   -0.000690696   -0.000565533
      4        6          -0.000467083   -0.008253091    0.000743963
      5        7           0.000654205    0.013156142   -0.002332047
      6        1          -0.000119856    0.000090108    0.000058254
      7        1          -0.000125446   -0.000178445    0.000106866
      8        1          -0.000151496   -0.000018727   -0.000094111
      9        1           0.000136447   -0.000033029   -0.000121164
     10        1           0.000123740   -0.000191408    0.000092494
     11        1           0.000132709    0.000075619    0.000030813
 -------------------------------------------------------------------
 Cartesian Forces:  Max     0.013156142 RMS     0.002859225
 Leave Link  716 at Thu Sep  8 15:21:04 2022, MaxMem= 24159191040 cpu:         0.7
 (Enter /public/home/users/caep010/software/Gaussian09/g09/l103.exe)

 GradGradGradGradGradGradGradGradGradGradGradGradGradGradGradGradGradGrad
 Berny optimization.
 FormGI is forming the generalized inverse of G from B-inverse, IUseBI=4.
 Internal  Forces:  Max     0.013376056 RMS     0.002331654
 Search for a local minimum.
 Step number   1 out of a maximum of   49
 All quantities printed in internal units (Hartrees-Bohrs-Radians)
 RMS Force = .23317D-02 SwitMx=.10000D-02 MixMth= 1
 Mixed Optimization -- RFO/linear search
 Second derivative matrix not updated -- first step.
 ITU=  0
     Eigenvalues ---    0.00878   0.00878   0.01591   0.04824   0.04824
     Eigenvalues ---    0.07282   0.07282   0.07649   0.07649   0.16000
     Eigenvalues ---    0.16000   0.16000   0.16000   0.16000   0.16000
     Eigenvalues ---    0.21698   0.25000   0.33768   0.33769   0.34351
     Eigenvalues ---    0.34353   0.34715   0.34717   0.36771   0.36774
     Eigenvalues ---    0.58686   1.25693
 RFO step:  Lambda=-2.15548325D-04 EMin= 8.77644646D-03
 Linear search not attempted -- first point.
 Iteration  1 RMS(Cart)=  0.00453301 RMS(Int)=  0.00001588
 Iteration  2 RMS(Cart)=  0.00001570 RMS(Int)=  0.00000575
 Iteration  3 RMS(Cart)=  0.00000000 RMS(Int)=  0.00000575
 ITry= 1 IFail=0 DXMaxC= 1.57D-02 DCOld= 1.00D+10 DXMaxT= 3.00D-01 DXLimC= 3.00D+00 Rises=F
 Variable       Old X    -DE/DX   Delta X   Delta X   Delta X     New X
                                 (Linear)    (Quad)   (Total)
    R1        2.76188   0.00176   0.00000   0.00478   0.00478   2.76666
    R2        2.06739  -0.00004   0.00000  -0.00011  -0.00011   2.06728
    R3        2.06140   0.00001   0.00000   0.00003   0.00003   2.06142
    R4        2.07723   0.00012   0.00000   0.00037   0.00037   2.07759
    R5        2.76192   0.00175   0.00000   0.00476   0.00476   2.76668
    R6        2.51995   0.00513   0.00000   0.00874   0.00874   2.52870
    R7        2.07721   0.00013   0.00000   0.00038   0.00038   2.07759
    R8        2.06136   0.00002   0.00000   0.00005   0.00005   2.06142
    R9        2.06742  -0.00004   0.00000  -0.00012  -0.00012   2.06730
   R10        2.19821   0.01338   0.00000   0.01064   0.01064   2.20885
    A1        1.90009   0.00003   0.00000   0.00002   0.00002   1.90012
    A2        1.90845   0.00021   0.00000   0.00116   0.00116   1.90961
    A3        1.95758   0.00015   0.00000   0.00124   0.00124   1.95882
    A4        1.89876  -0.00024   0.00000  -0.00215  -0.00215   1.89661
    A5        1.89727  -0.00003   0.00000   0.00011   0.00011   1.89739
    A6        1.90087  -0.00013   0.00000  -0.00051  -0.00051   1.90036
    A7        2.03588   0.00016   0.00000  -0.00104  -0.00106   2.03483
    A8        2.05378  -0.00012   0.00000  -0.00231  -0.00233   2.05145
    A9        2.05381  -0.00012   0.00000  -0.00233  -0.00235   2.05147
   A10        1.95753   0.00015   0.00000   0.00122   0.00122   1.95876
   A11        1.90839   0.00021   0.00000   0.00118   0.00118   1.90957
   A12        1.90018   0.00003   0.00000   0.00002   0.00002   1.90021
   A13        1.90087  -0.00013   0.00000  -0.00053  -0.00054   1.90033
   A14        1.89729  -0.00003   0.00000   0.00011   0.00011   1.89740
   A15        1.89875  -0.00023   0.00000  -0.00212  -0.00212   1.89663
   A16        3.14063  -0.00002   0.00000  -0.00038  -0.00038   3.14024
   A17        3.18460   0.00028   0.00000   0.00583   0.00583   3.19044
    D1        0.98464   0.00014   0.00000   0.00351   0.00351   0.98815
    D2       -2.71193  -0.00004   0.00000  -0.00745  -0.00745  -2.71938
    D3        3.05695  -0.00001   0.00000   0.00161   0.00161   3.05855
    D4       -0.63962  -0.00019   0.00000  -0.00935  -0.00935  -0.64898
    D5       -1.11571   0.00006   0.00000   0.00257   0.00257  -1.11314
    D6        1.47091  -0.00011   0.00000  -0.00839  -0.00839   1.46252
    D7        1.11353  -0.00006   0.00000  -0.00201  -0.00201   1.11151
    D8       -3.05920   0.00001   0.00000  -0.00108  -0.00108  -3.06027
    D9       -0.98687  -0.00013   0.00000  -0.00294  -0.00294  -0.98981
   D10       -1.47308   0.00012   0.00000   0.00894   0.00894  -1.46414
   D11        0.63739   0.00019   0.00000   0.00988   0.00988   0.64726
   D12        2.70971   0.00005   0.00000   0.00802   0.00802   2.71773
         Item               Value     Threshold  Converged?
 Maximum Force            0.013376     0.000450     NO 
 RMS     Force            0.002332     0.000300     NO 
 Maximum Displacement     0.015674     0.001800     NO 
 RMS     Displacement     0.004530     0.001200     NO 
 Predicted change in Energy=-1.078312D-04
 Lowest energy point so far.  Saving SCF results.
 GradGradGradGradGradGradGradGradGradGradGradGradGradGradGradGradGradGrad

 Leave Link  103 at Thu Sep  8 15:21:04 2022, MaxMem= 24159191040 cpu:         2.5
 (Enter /public/home/users/caep010/software/Gaussian09/g09/l202.exe)
                          Input orientation:                          
 ---------------------------------------------------------------------
 Center     Atomic      Atomic             Coordinates (Angstroms)
 Number     Number       Type             X           Y           Z
 ---------------------------------------------------------------------
      1          6           0       -1.264314   -0.360539    0.103516
      2          7           0        0.036405    0.301752    0.217335
      3          6           0        1.215547   -0.515290   -0.075158
      4          6           0        0.095969    1.604196   -0.083797
      5          7           0        0.152098    2.751331   -0.301057
      6          1           0       -1.273487   -1.237073    0.758001
      7          1           0       -2.049463    0.324506    0.426358
      8          1           0       -1.476812   -0.686005   -0.924896
      9          1           0        1.236213   -0.856687   -1.120017
     10          1           0        2.117354    0.065099    0.124481
     11          1           0        1.210591   -1.391191    0.580233
 ---------------------------------------------------------------------
                    Distance matrix (angstroms):
                    1          2          3          4          5
     1  C    0.000000
     2  N    1.464054   0.000000
     3  C    2.491101   1.464065   0.000000
     4  C    2.397006   1.338129   2.397030   0.000000
     5  N    3.442910   2.506501   3.442784   1.168876   0.000000
     6  H    1.093959   2.091918   2.722208   3.264482   4.365920
     7  H    1.090859   2.096438   3.408381   2.549655   3.356408
     8  H    1.099415   2.137798   2.828426   2.902776   3.854581
     9  H    2.827690   2.137763   1.099414   2.903421   3.855359
    10  H    3.408414   2.096420   1.090854   2.549157   3.355467
    11  H    2.722987   2.092000   1.093967   3.264301   4.365497
                    6          7          8          9         10
     6  H    0.000000
     7  H    1.775008   0.000000
     8  H    1.782458   1.781839   0.000000
     9  H    3.157569   3.818659   2.725382   0.000000
    10  H    3.687113   4.185784   3.818819   1.781818   0.000000
    11  H    2.495196   3.687173   3.159879   1.782471   1.775024
                   11
    11  H    0.000000
 Stoichiometry    C3H6N2
 Framework group  C1[X(C3H6N2)]
 Deg. of freedom    27
 Full point group                 C1      NOp   1
 RotChk:  IX=3 Diff= 2.14D-03
 Largest Abelian subgroup         C1      NOp   1
 Largest concise Abelian subgroup C1      NOp   1
                         Standard orientation:                         
 ---------------------------------------------------------------------
 Center     Atomic      Atomic             Coordinates (Angstroms)
 Number     Number       Type             X           Y           Z
 ---------------------------------------------------------------------
      1          6           0        1.017196    1.245491    0.053551
      2          7           0        0.297575    0.000011   -0.219170
      3          6           0        1.016982   -1.245609    0.053540
      4          6           0       -1.028704    0.000140   -0.041483
      5          7           0       -2.192524    0.000043    0.067105
      6          1           0        1.950542    1.247037   -0.517071
      7          1           0        0.410047    2.092863   -0.267858
      8          1           0        1.255786    1.363024    1.120310
      9          1           0        1.256956   -1.362357    1.120073
     10          1           0        0.408920   -2.092920   -0.266285
     11          1           0        1.949550   -1.248158   -0.518363
 ---------------------------------------------------------------------
 Rotational constants (GHZ):      8.8707796      4.1918726      2.9820121
 Leave Link  202 at Thu Sep  8 15:21:04 2022, MaxMem= 24159191040 cpu:         0.3
 (Enter /public/home/users/caep010/software/Gaussian09/g09/l301.exe)
 Standard basis: 6-31G(d,p) (6D, 7F)
 Ernie: Thresh=  0.10000D-02 Tol=  0.10000D-05 Strict=F.
 There are   105 symmetry adapted cartesian basis functions of A   symmetry.
 There are   105 symmetry adapted basis functions of A   symmetry.
   105 basis functions,   182 primitive gaussians,   105 cartesian basis functions
    19 alpha electrons       19 beta electrons
       nuclear repulsion energy       162.8327960288 Hartrees.
 IExCor=  402 DFT=T Ex+Corr=B3LYP ExCW=0 ScaHFX=  0.200000
 ScaDFX=  0.800000  0.720000  1.000000  0.810000 ScalE2=  1.000000  1.000000
 IRadAn=      0 IRanWt=     -1 IRanGd=            0 ICorTp=0 IEmpDi=  4
 NAtoms=   11 NActive=   11 NUniq=   11 SFac= 1.00D+00 NAtFMM=   60 NAOKFM=F Big=F
 Integral buffers will be    131072 words long.
 Raffenetti 2 integral format.
 Two-electron integral symmetry is turned on.
 Leave Link  301 at Thu Sep  8 15:21:04 2022, MaxMem= 24159191040 cpu:         1.6
 (Enter /public/home/users/caep010/software/Gaussian09/g09/l302.exe)
 NPDir=0 NMtPBC=     1 NCelOv=     1 NCel=       1 NClECP=     1 NCelD=      1
         NCelK=      1 NCelE2=     1 NClLst=     1 CellRange=     0.0.
 One-electron integrals computed using PRISM.
 NBasis=   105 RedAO= T EigKep=  1.11D-03  NBF=   105
 NBsUse=   105 1.00D-06 EigRej= -1.00D+00 NBFU=   105
 Precomputing XC quadrature grid using
 IXCGrd= 4 IRadAn=           0 IRanWt=          -1 IRanGd=           0 AccXCQ= 0.00D+00.
 Generated NRdTot=       0 NPtTot=           0 NUsed=           0 NTot=          32
 NSgBfM=   105   105   105   105   105 MxSgAt=    11 MxSgA2=    11.
 Leave Link  302 at Thu Sep  8 15:21:05 2022, MaxMem= 24159191040 cpu:        11.3
 (Enter /public/home/users/caep010/software/Gaussian09/g09/l303.exe)
 DipDrv:  MaxL=1.
 Leave Link  303 at Thu Sep  8 15:21:05 2022, MaxMem= 24159191040 cpu:         0.7
 (Enter /public/home/users/caep010/software/Gaussian09/g09/l401.exe)
 Initial guess from the checkpoint file:  "B3LYP6-31Gdp.Frag_572.chk"
 B after Tr=    -0.000000    0.000000   -0.000000
         Rot=    1.000000   -0.000016    0.000240    0.000058 Ang=  -0.03 deg.
 Guess basis will be translated and rotated to current coordinates.
 JPrj=2 DoOrth=T DoCkMO=T.
 Leave Link  401 at Thu Sep  8 15:21:05 2022, MaxMem= 24159191040 cpu:         3.1
 (Enter /public/home/users/caep010/software/Gaussian09/g09/l502.exe)
 Closed shell SCF:
 Using DIIS extrapolation, IDIIS=  1040.
 Integral symmetry usage will be decided dynamically.
 Keep R1 ints in memory in canonical form, NReq=16470489.
 IVT=       55780 IEndB=       55780 NGot= 24159191040 MDV= 24143647866
 LenX= 24143647866 LenY= 24143636400
 Requested convergence on RMS density matrix=1.00D-08 within 128 cycles.
 Requested convergence on MAX density matrix=1.00D-06.
 Requested convergence on             energy=1.00D-06.
 No special actions if energy rises.
 FoFCou: FMM=F IPFlag=           0 FMFlag=           0 FMFlg1=           0
         NFxFlg=           0 DoJE=F BraDBF=F KetDBF=F FulRan=T
         wScrn=  0.000000 ICntrl=     600 IOpCl=  0 I1Cent=           0 NGrid=           0
         NMat0=    1 NMatS0=   5565 NMatT0=    0 NMatD0=    1 NMtDS0=    0 NMtDT0=    0
 Symmetry not used in FoFCou.

 Cycle   1  Pass 1  IDiag  1:
 E= -227.407580391022    
 DIIS: error= 4.31D-04 at cycle   1 NSaved=   1.
 NSaved= 1 IEnMin= 1 EnMin= -227.407580391022     IErMin= 1 ErrMin= 4.31D-04
 ErrMax= 4.31D-04  0.00D+00 EMaxC= 1.00D-01 BMatC= 3.32D-05 BMatP= 3.32D-05
 IDIUse=3 WtCom= 9.96D-01 WtEn= 4.31D-03
 Coeff-Com:  0.100D+01
 Coeff-En:   0.100D+01
 Coeff:      0.100D+01
 Gap=     1.724 Goal=   None    Shift=    0.000
 RMSDP=1.27D-04 MaxDP=3.80D-03              OVMax= 2.39D-03

 Cycle   2  Pass 1  IDiag  1:
 E= -227.407623456811     Delta-E=       -0.000043065789 Rises=F Damp=F
 DIIS: error= 2.33D-04 at cycle   2 NSaved=   2.
 NSaved= 2 IEnMin= 2 EnMin= -227.407623456811     IErMin= 2 ErrMin= 2.33D-04
 ErrMax= 2.33D-04  0.00D+00 EMaxC= 1.00D-01 BMatC= 6.59D-06 BMatP= 3.32D-05
 IDIUse=3 WtCom= 9.98D-01 WtEn= 2.33D-03
 Coeff-Com:  0.238D+00 0.762D+00
 Coeff-En:   0.000D+00 0.100D+01
 Coeff:      0.238D+00 0.762D+00
 Gap=     0.282 Goal=   None    Shift=    0.000
 RMSDP=5.54D-05 MaxDP=2.02D-03 DE=-4.31D-05 OVMax= 1.24D-03

 Cycle   3  Pass 1  IDiag  1:
 E= -227.407626570399     Delta-E=       -0.000003113588 Rises=F Damp=F
 DIIS: error= 2.03D-04 at cycle   3 NSaved=   3.
 NSaved= 3 IEnMin= 3 EnMin= -227.407626570399     IErMin= 3 ErrMin= 2.03D-04
 ErrMax= 2.03D-04  0.00D+00 EMaxC= 1.00D-01 BMatC= 3.55D-06 BMatP= 6.59D-06
 IDIUse=3 WtCom= 9.98D-01 WtEn= 2.03D-03
 Coeff-Com:  0.222D-01 0.416D+00 0.562D+00
 Coeff-En:   0.000D+00 0.325D+00 0.675D+00
 Coeff:      0.221D-01 0.416D+00 0.562D+00
 Gap=     0.282 Goal=   None    Shift=    0.000
 RMSDP=2.66D-05 MaxDP=7.62D-04 DE=-3.11D-06 OVMax= 1.02D-03

 Cycle   4  Pass 1  IDiag  1:
 E= -227.407628165919     Delta-E=       -0.000001595520 Rises=F Damp=F
 DIIS: error= 1.48D-04 at cycle   4 NSaved=   4.
 NSaved= 4 IEnMin= 4 EnMin= -227.407628165919     IErMin= 4 ErrMin= 1.48D-04
 ErrMax= 1.48D-04  0.00D+00 EMaxC= 1.00D-01 BMatC= 1.78D-06 BMatP= 3.55D-06
 IDIUse=3 WtCom= 9.99D-01 WtEn= 1.48D-03
 Coeff-Com: -0.177D-01 0.202D+00 0.431D+00 0.385D+00
 Coeff-En:   0.000D+00 0.000D+00 0.352D+00 0.648D+00
 Coeff:     -0.177D-01 0.202D+00 0.431D+00 0.385D+00
 Gap=     0.282 Goal=   None    Shift=    0.000
 RMSDP=1.06D-05 MaxDP=2.78D-04 DE=-1.60D-06 OVMax= 4.79D-04

 Cycle   5  Pass 1  IDiag  1:
 E= -227.407629716783     Delta-E=       -0.000001550865 Rises=F Damp=F
 DIIS: error= 2.04D-05 at cycle   5 NSaved=   5.
 NSaved= 5 IEnMin= 5 EnMin= -227.407629716783     IErMin= 5 ErrMin= 2.04D-05
 ErrMax= 2.04D-05  0.00D+00 EMaxC= 1.00D-01 BMatC= 3.70D-08 BMatP= 1.78D-06
 IDIUse=1 WtCom= 1.00D+00 WtEn= 0.00D+00
 Coeff-Com: -0.947D-02 0.773D-01 0.188D+00 0.209D+00 0.536D+00
 Coeff:     -0.947D-02 0.773D-01 0.188D+00 0.209D+00 0.536D+00
 Gap=     0.282 Goal=   None    Shift=    0.000
 RMSDP=1.70D-06 MaxDP=5.07D-05 DE=-1.55D-06 OVMax= 5.83D-05

 Cycle   6  Pass 1  IDiag  1:
 E= -227.407629745441     Delta-E=       -0.000000028657 Rises=F Damp=F
 DIIS: error= 3.18D-06 at cycle   6 NSaved=   6.
 NSaved= 6 IEnMin= 6 EnMin= -227.407629745441     IErMin= 6 ErrMin= 3.18D-06
 ErrMax= 3.18D-06  0.00D+00 EMaxC= 1.00D-01 BMatC= 2.48D-09 BMatP= 3.70D-08
 IDIUse=1 WtCom= 1.00D+00 WtEn= 0.00D+00
 Coeff-Com: -0.197D-02 0.923D-02 0.318D-01 0.551D-01 0.251D+00 0.655D+00
 Coeff:     -0.197D-02 0.923D-02 0.318D-01 0.551D-01 0.251D+00 0.655D+00
 Gap=     0.282 Goal=   None    Shift=    0.000
 RMSDP=4.97D-07 MaxDP=1.15D-05 DE=-2.87D-08 OVMax= 1.31D-05

 Cycle   7  Pass 1  IDiag  1:
 E= -227.407629747479     Delta-E=       -0.000000002038 Rises=F Damp=F
 DIIS: error= 1.04D-06 at cycle   7 NSaved=   7.
 NSaved= 7 IEnMin= 7 EnMin= -227.407629747479     IErMin= 7 ErrMin= 1.04D-06
 ErrMax= 1.04D-06  0.00D+00 EMaxC= 1.00D-01 BMatC= 1.15D-10 BMatP= 2.48D-09
 IDIUse=1 WtCom= 1.00D+00 WtEn= 0.00D+00
 Coeff-Com: -0.350D-03-0.262D-04 0.345D-02 0.138D-01 0.763D-01 0.267D+00
 Coeff-Com:  0.640D+00
 Coeff:     -0.350D-03-0.262D-04 0.345D-02 0.138D-01 0.763D-01 0.267D+00
 Coeff:      0.640D+00
 Gap=     0.282 Goal=   None    Shift=    0.000
 RMSDP=1.20D-07 MaxDP=1.85D-06 DE=-2.04D-09 OVMax= 3.64D-06

 Cycle   8  Pass 1  IDiag  1:
 E= -227.407629747585     Delta-E=       -0.000000000106 Rises=F Damp=F
 DIIS: error= 3.12D-07 at cycle   8 NSaved=   8.
 NSaved= 8 IEnMin= 8 EnMin= -227.407629747585     IErMin= 8 ErrMin= 3.12D-07
 ErrMax= 3.12D-07  0.00D+00 EMaxC= 1.00D-01 BMatC= 1.04D-11 BMatP= 1.15D-10
 IDIUse=1 WtCom= 1.00D+00 WtEn= 0.00D+00
 Coeff-Com: -0.312D-04-0.778D-03-0.931D-03 0.257D-02 0.187D-01 0.782D-01
 Coeff-Com:  0.299D+00 0.603D+00
 Coeff:     -0.312D-04-0.778D-03-0.931D-03 0.257D-02 0.187D-01 0.782D-01
 Coeff:      0.299D+00 0.603D+00
 Gap=     0.282 Goal=   None    Shift=    0.000
 RMSDP=2.98D-08 MaxDP=5.77D-07 DE=-1.06D-10 OVMax= 7.53D-07

 Cycle   9  Pass 1  IDiag  1:
 E= -227.407629747593     Delta-E=       -0.000000000009 Rises=F Damp=F
 DIIS: error= 4.19D-08 at cycle   9 NSaved=   9.
 NSaved= 9 IEnMin= 9 EnMin= -227.407629747593     IErMin= 9 ErrMin= 4.19D-08
 ErrMax= 4.19D-08  0.00D+00 EMaxC= 1.00D-01 BMatC= 1.99D-13 BMatP= 1.04D-11
 IDIUse=1 WtCom= 1.00D+00 WtEn= 0.00D+00
 Coeff-Com:  0.138D-04-0.209D-03-0.527D-03-0.211D-03-0.138D-04 0.243D-02
 Coeff-Com:  0.330D-01 0.151D+00 0.815D+00
 Coeff:      0.138D-04-0.209D-03-0.527D-03-0.211D-03-0.138D-04 0.243D-02
 Coeff:      0.330D-01 0.151D+00 0.815D+00
 Gap=     0.282 Goal=   None    Shift=    0.000
 RMSDP=5.29D-09 MaxDP=7.62D-08 DE=-8.75D-12 OVMax= 1.10D-07

 SCF Done:  E(RB3LYP) =  -227.407629748     A.U. after    9 cycles
            NFock=  9  Conv=0.53D-08     -V/T= 2.0098
 KE= 2.252093903555D+02 PE=-8.533347762934D+02 EE= 2.378849601615D+02
 Leave Link  502 at Thu Sep  8 15:21:06 2022, MaxMem= 24159191040 cpu:        22.9
 (Enter /public/home/users/caep010/software/Gaussian09/g09/l701.exe)
 Compute integral first derivatives.
 ... and contract with generalized density number  0.
 Leave Link  701 at Thu Sep  8 15:21:06 2022, MaxMem= 24159191040 cpu:        10.8
 (Enter /public/home/users/caep010/software/Gaussian09/g09/l702.exe)
 L702 exits ... SP integral derivatives will be done elsewhere.
 Leave Link  702 at Thu Sep  8 15:21:06 2022, MaxMem= 24159191040 cpu:         0.5
 (Enter /public/home/users/caep010/software/Gaussian09/g09/l703.exe)
 Compute integral first derivatives, UseDBF=F ICtDFT=           0.
 Integral derivatives from FoFJK, PRISM(SPDF).
 Calling FoFJK, ICntrl=      2127 FMM=F ISym2X=0 I1Cent= 0 IOpClX= 0 NMat=1 NMatS=1 NMatT=0.
 FoFJK:  IHMeth= 1 ICntrl=    2127 DoSepK=F KAlg= 0 I1Cent=   0 FoldK=F
 IRaf=         0 NMat=   1 IRICut=       1 DoRegI=T DoRafI=F ISym2E= 0.
 FoFCou: FMM=F IPFlag=           0 FMFlag=      100000 FMFlg1=         800
         NFxFlg=           0 DoJE=F BraDBF=F KetDBF=F FulRan=T
         wScrn=  0.000000 ICntrl=    2127 IOpCl=  0 I1Cent=           0 NGrid=           0
         NMat0=    1 NMatS0=      1 NMatT0=    0 NMatD0=    1 NMtDS0=    0 NMtDT0=    0
 Symmetry not used in FoFCou.
 Leave Link  703 at Thu Sep  8 15:21:07 2022, MaxMem= 24159191040 cpu:        12.9
 (Enter /public/home/users/caep010/software/Gaussian09/g09/l716.exe)
 Dipole        = 1.87235599D+00-1.11328418D-04 6.97105629D-02
 ***** Axes restored to original set *****
 -------------------------------------------------------------------
 Center     Atomic                   Forces (Hartrees/Bohr)
 Number     Number              X              Y              Z
 -------------------------------------------------------------------
      1        6          -0.000423482   -0.000154582   -0.000415761
      2        7           0.000035380   -0.000546893    0.001025060
      3        6           0.000335921   -0.000197737   -0.000476756
      4        6           0.000001846    0.000269931   -0.000414340
      5        7          -0.000003246    0.000137711   -0.000053315
      6        1           0.000140889    0.000078108    0.000030317
      7        1           0.000083286    0.000062173    0.000074596
      8        1           0.000063905    0.000089035    0.000044492
      9        1          -0.000041950    0.000097847    0.000050472
     10        1          -0.000063629    0.000069155    0.000088722
     11        1          -0.000128918    0.000095251    0.000046512
 -------------------------------------------------------------------
 Cartesian Forces:  Max     0.001025060 RMS     0.000274604
 Leave Link  716 at Thu Sep  8 15:21:07 2022, MaxMem= 24159191040 cpu:         0.6
 (Enter /public/home/users/caep010/software/Gaussian09/g09/l103.exe)

 GradGradGradGradGradGradGradGradGradGradGradGradGradGradGradGradGradGrad
 Berny optimization.
 Using GEDIIS/GDIIS optimizer.
 FormGI is forming the generalized inverse of G from B-inverse, IUseBI=4.
 Internal  Forces:  Max     0.000501271 RMS     0.000136905
 Search for a local minimum.
 Step number   2 out of a maximum of   49
 All quantities printed in internal units (Hartrees-Bohrs-Radians)
 RMS Force = .13691D-03 SwitMx=.10000D-02 MixMth= 2
 Mixed Optimization -- En-DIIS/RFO-DIIS
 Update second derivatives using D2CorX and points    1    2
 DE= -1.14D-04 DEPred=-1.08D-04 R= 1.06D+00
 TightC=F SS=  1.41D+00  RLast= 2.81D-02 DXNew= 5.0454D-01 8.4192D-02
 Trust test= 1.06D+00 RLast= 2.81D-02 DXMaxT set to 3.00D-01
 ITU=  1  0
 Use linear search instead of GDIIS.
     Eigenvalues ---    0.00867   0.00878   0.01515   0.04823   0.04839
     Eigenvalues ---    0.07267   0.07267   0.07619   0.07645   0.15978
     Eigenvalues ---    0.16000   0.16000   0.16000   0.16000   0.16180
     Eigenvalues ---    0.21591   0.24935   0.33769   0.33780   0.34344
     Eigenvalues ---    0.34352   0.34715   0.34717   0.36647   0.36773
     Eigenvalues ---    0.57184   1.29947
 RFO step:  Lambda=-1.31964276D-05 EMin= 8.67302469D-03
 Quartic linear search produced a step of  0.07376.
 Iteration  1 RMS(Cart)=  0.00461005 RMS(Int)=  0.00002056
 Iteration  2 RMS(Cart)=  0.00002583 RMS(Int)=  0.00001128
 Iteration  3 RMS(Cart)=  0.00000000 RMS(Int)=  0.00001128
 ITry= 1 IFail=0 DXMaxC= 1.51D-02 DCOld= 1.00D+10 DXMaxT= 3.00D-01 DXLimC= 3.00D+00 Rises=F
 Variable       Old X    -DE/DX   Delta X   Delta X   Delta X     New X
                                 (Linear)    (Quad)   (Total)
    R1        2.76666   0.00011   0.00035   0.00025   0.00061   2.76727
    R2        2.06728  -0.00005  -0.00001  -0.00014  -0.00015   2.06713
    R3        2.06142   0.00000   0.00000   0.00000   0.00000   2.06143
    R4        2.07759  -0.00008   0.00003  -0.00026  -0.00023   2.07736
    R5        2.76668   0.00010   0.00035   0.00024   0.00059   2.76728
    R6        2.52870   0.00050   0.00064   0.00080   0.00145   2.53014
    R7        2.07759  -0.00008   0.00003  -0.00025  -0.00023   2.07736
    R8        2.06142   0.00000   0.00000  -0.00000   0.00000   2.06142
    R9        2.06730  -0.00005  -0.00001  -0.00015  -0.00016   2.06714
   R10        2.20885   0.00014   0.00078  -0.00002   0.00077   2.20962
    A1        1.90012  -0.00019   0.00000  -0.00136  -0.00136   1.89875
    A2        1.90961  -0.00013   0.00009  -0.00093  -0.00084   1.90876
    A3        1.95882  -0.00003   0.00009  -0.00008   0.00001   1.95883
    A4        1.89661   0.00011  -0.00016   0.00045   0.00029   1.89690
    A5        1.89739   0.00014   0.00001   0.00110   0.00110   1.89849
    A6        1.90036   0.00011  -0.00004   0.00086   0.00083   1.90118
    A7        2.03483   0.00017  -0.00008  -0.00149  -0.00161   2.03322
    A8        2.05145  -0.00013  -0.00017  -0.00301  -0.00322   2.04823
    A9        2.05147  -0.00014  -0.00017  -0.00302  -0.00323   2.04824
   A10        1.95876  -0.00003   0.00009  -0.00005   0.00004   1.95879
   A11        1.90957  -0.00013   0.00009  -0.00092  -0.00083   1.90874
   A12        1.90021  -0.00020   0.00000  -0.00140  -0.00140   1.89881
   A13        1.90033   0.00011  -0.00004   0.00087   0.00083   1.90116
   A14        1.89740   0.00014   0.00001   0.00110   0.00110   1.89850
   A15        1.89663   0.00011  -0.00016   0.00045   0.00029   1.89692
   A16        3.14024   0.00002  -0.00003   0.00044   0.00042   3.14066
   A17        3.19044  -0.00004   0.00043  -0.00097  -0.00054   3.18989
    D1        0.98815   0.00011   0.00026   0.00406   0.00431   0.99246
    D2       -2.71938  -0.00010  -0.00055  -0.01013  -0.01068  -2.73006
    D3        3.05855   0.00005   0.00012   0.00325   0.00337   3.06192
    D4       -0.64898  -0.00016  -0.00069  -0.01094  -0.01162  -0.66060
    D5       -1.11314   0.00008   0.00019   0.00365   0.00384  -1.10930
    D6        1.46252  -0.00013  -0.00062  -0.01054  -0.01115   1.45137
    D7        1.11151  -0.00008  -0.00015  -0.00316  -0.00330   1.10821
    D8       -3.06027  -0.00004  -0.00008  -0.00273  -0.00281  -3.06308
    D9       -0.98981  -0.00010  -0.00022  -0.00355  -0.00376  -0.99357
   D10       -1.46414   0.00014   0.00066   0.01103   0.01168  -1.45245
   D11        0.64726   0.00017   0.00073   0.01146   0.01218   0.65944
   D12        2.71773   0.00011   0.00059   0.01063   0.01122   2.72895
         Item               Value     Threshold  Converged?
 Maximum Force            0.000501     0.000450     NO 
 RMS     Force            0.000137     0.000300     YES
 Maximum Displacement     0.015063     0.001800     NO 
 RMS     Displacement     0.004623     0.001200     NO 
 Predicted change in Energy=-6.813141D-06
 Lowest energy point so far.  Saving SCF results.
 GradGradGradGradGradGradGradGradGradGradGradGradGradGradGradGradGradGrad

 Leave Link  103 at Thu Sep  8 15:21:07 2022, MaxMem= 24159191040 cpu:         1.1
 (Enter /public/home/users/caep010/software/Gaussian09/g09/l202.exe)
                          Input orientation:                          
 ---------------------------------------------------------------------
 Center     Atomic      Atomic             Coordinates (Angstroms)
 Number     Number       Type             X           Y           Z
 ---------------------------------------------------------------------
      1          6           0       -1.263859   -0.360418    0.104510
      2          7           0        0.036941    0.301351    0.224406
      3          6           0        1.215298   -0.515171   -0.074215
      4          6           0        0.095903    1.602790   -0.084491
      5          7           0        0.151106    2.748981   -0.309028
      6          1           0       -1.273478   -1.239199    0.755834
      7          1           0       -2.049031    0.323766    0.429126
      8          1           0       -1.473911   -0.681272   -0.925722
      9          1           0        1.234074   -0.851237   -1.120711
     10          1           0        2.117321    0.064113    0.127656
     11          1           0        1.209738   -1.393604    0.577633
 ---------------------------------------------------------------------
                    Distance matrix (angstroms):
                    1          2          3          4          5
     1  C    0.000000
     2  N    1.464374   0.000000
     3  C    2.490403   1.464379   0.000000
     4  C    2.395592   1.338894   2.395602   0.000000
     5  N    3.441148   2.507684   3.441268   1.169280   0.000000
     6  H    1.093880   2.091149   2.721618   3.264698   4.366800
     7  H    1.090861   2.096113   3.407786   2.549598   3.356656
     8  H    1.099293   2.137993   2.825686   2.896364   3.845468
     9  H    2.825197   2.137972   1.099294   2.896797   3.846195
    10  H    3.407806   2.096097   1.090856   2.549248   3.356369
    11  H    2.722132   2.091194   1.093883   3.264569   4.366678
                    6          7          8          9         10
     6  H    0.000000
     7  H    1.775128   0.000000
     8  H    1.782999   1.782267   0.000000
     9  H    3.155907   3.815940   2.720311   0.000000
    10  H    3.686563   4.185307   3.816039   1.782249   0.000000
    11  H    2.494385   3.686596   3.157446   1.783010   1.775140
                   11
    11  H    0.000000
 Stoichiometry    C3H6N2
 Framework group  C1[X(C3H6N2)]
 Deg. of freedom    27
 Full point group                 C1      NOp   1
 RotChk:  IX=0 Diff= 3.86D-03
 Largest Abelian subgroup         C1      NOp   1
 Largest concise Abelian subgroup C1      NOp   1
                         Standard orientation:                         
 ---------------------------------------------------------------------
 Center     Atomic      Atomic             Coordinates (Angstroms)
 Number     Number       Type             X           Y           Z
 ---------------------------------------------------------------------
      1          6           0        1.016212    1.245257    0.055295
      2          7           0        0.298635   -0.000004   -0.225420
      3          6           0        1.016426   -1.245146    0.055297
      4          6           0       -1.027843   -0.000111   -0.043496
      5          7           0       -2.191669   -0.000053    0.069307
      6          1           0        1.953059    1.247048   -0.509406
      7          1           0        0.410836    2.092642   -0.269415
      8          1           0        1.246984    1.360510    1.123895
      9          1           0        1.248163   -1.359801    1.123754
     10          1           0        0.410673   -2.092664   -0.268343
     11          1           0        1.952755   -1.247337   -0.510268
 ---------------------------------------------------------------------
 Rotational constants (GHZ):      8.8688440      4.1942714      2.9848122
 Leave Link  202 at Thu Sep  8 15:21:07 2022, MaxMem= 24159191040 cpu:         0.3
 (Enter /public/home/users/caep010/software/Gaussian09/g09/l301.exe)
 Standard basis: 6-31G(d,p) (6D, 7F)
 Ernie: Thresh=  0.10000D-02 Tol=  0.10000D-05 Strict=F.
 There are   105 symmetry adapted cartesian basis functions of A   symmetry.
 There are   105 symmetry adapted basis functions of A   symmetry.
   105 basis functions,   182 primitive gaussians,   105 cartesian basis functions
    19 alpha electrons       19 beta electrons
       nuclear repulsion energy       162.8376949111 Hartrees.
 IExCor=  402 DFT=T Ex+Corr=B3LYP ExCW=0 ScaHFX=  0.200000
 ScaDFX=  0.800000  0.720000  1.000000  0.810000 ScalE2=  1.000000  1.000000
 IRadAn=      0 IRanWt=     -1 IRanGd=            0 ICorTp=0 IEmpDi=  4
 NAtoms=   11 NActive=   11 NUniq=   11 SFac= 1.00D+00 NAtFMM=   60 NAOKFM=F Big=F
 Integral buffers will be    131072 words long.
 Raffenetti 2 integral format.
 Two-electron integral symmetry is turned on.
 Leave Link  301 at Thu Sep  8 15:21:07 2022, MaxMem= 24159191040 cpu:         1.8
 (Enter /public/home/users/caep010/software/Gaussian09/g09/l302.exe)
 NPDir=0 NMtPBC=     1 NCelOv=     1 NCel=       1 NClECP=     1 NCelD=      1
         NCelK=      1 NCelE2=     1 NClLst=     1 CellRange=     0.0.
 One-electron integrals computed using PRISM.
 NBasis=   105 RedAO= T EigKep=  1.11D-03  NBF=   105
 NBsUse=   105 1.00D-06 EigRej= -1.00D+00 NBFU=   105
 Precomputing XC quadrature grid using
 IXCGrd= 4 IRadAn=           0 IRanWt=          -1 IRanGd=           0 AccXCQ= 0.00D+00.
 Generated NRdTot=       0 NPtTot=           0 NUsed=           0 NTot=          32
 NSgBfM=   105   105   105   105   105 MxSgAt=    11 MxSgA2=    11.
 Leave Link  302 at Thu Sep  8 15:21:08 2022, MaxMem= 24159191040 cpu:        11.2
 (Enter /public/home/users/caep010/software/Gaussian09/g09/l303.exe)
 DipDrv:  MaxL=1.
 Leave Link  303 at Thu Sep  8 15:21:08 2022, MaxMem= 24159191040 cpu:         0.6
 (Enter /public/home/users/caep010/software/Gaussian09/g09/l401.exe)
 Initial guess from the checkpoint file:  "B3LYP6-31Gdp.Frag_572.chk"
 B after Tr=     0.000000   -0.000000    0.000000
         Rot=    1.000000   -0.000007    0.000374   -0.000062 Ang=  -0.04 deg.
 Guess basis will be translated and rotated to current coordinates.
 JPrj=2 DoOrth=T DoCkMO=T.
 Leave Link  401 at Thu Sep  8 15:21:08 2022, MaxMem= 24159191040 cpu:         3.4
 (Enter /public/home/users/caep010/software/Gaussian09/g09/l502.exe)
 Closed shell SCF:
 Using DIIS extrapolation, IDIIS=  1040.
 Integral symmetry usage will be decided dynamically.
 Keep R1 ints in memory in canonical form, NReq=16470489.
 IVT=       55780 IEndB=       55780 NGot= 24159191040 MDV= 24143647866
 LenX= 24143647866 LenY= 24143636400
 Requested convergence on RMS density matrix=1.00D-08 within 128 cycles.
 Requested convergence on MAX density matrix=1.00D-06.
 Requested convergence on             energy=1.00D-06.
 No special actions if energy rises.
 FoFCou: FMM=F IPFlag=           0 FMFlag=           0 FMFlg1=           0
         NFxFlg=           0 DoJE=F BraDBF=F KetDBF=F FulRan=T
         wScrn=  0.000000 ICntrl=     600 IOpCl=  0 I1Cent=           0 NGrid=           0
         NMat0=    1 NMatS0=   5565 NMatT0=    0 NMatD0=    1 NMtDS0=    0 NMtDT0=    0
 Symmetry not used in FoFCou.

 Cycle   1  Pass 1  IDiag  1:
 E= -227.407591068455    
 DIIS: error= 4.30D-04 at cycle   1 NSaved=   1.
 NSaved= 1 IEnMin= 1 EnMin= -227.407591068455     IErMin= 1 ErrMin= 4.30D-04
 ErrMax= 4.30D-04  0.00D+00 EMaxC= 1.00D-01 BMatC= 2.77D-05 BMatP= 2.77D-05
 IDIUse=3 WtCom= 9.96D-01 WtEn= 4.30D-03
 Coeff-Com:  0.100D+01
 Coeff-En:   0.100D+01
 Coeff:      0.100D+01
 Gap=     1.723 Goal=   None    Shift=    0.000
 RMSDP=8.02D-05 MaxDP=1.42D-03              OVMax= 2.15D-03

 Cycle   2  Pass 1  IDiag  1:
 E= -227.407639900188     Delta-E=       -0.000048831734 Rises=F Damp=F
 DIIS: error= 6.16D-05 at cycle   2 NSaved=   2.
 NSaved= 2 IEnMin= 2 EnMin= -227.407639900188     IErMin= 2 ErrMin= 6.16D-05
 ErrMax= 6.16D-05  0.00D+00 EMaxC= 1.00D-01 BMatC= 4.76D-07 BMatP= 2.77D-05
 IDIUse=1 WtCom= 1.00D+00 WtEn= 0.00D+00
 Coeff-Com: -0.726D-01 0.107D+01
 Coeff:     -0.726D-01 0.107D+01
 Gap=     0.282 Goal=   None    Shift=    0.000
 RMSDP=1.13D-05 MaxDP=2.32D-04 DE=-4.88D-05 OVMax= 2.27D-04

 Cycle   3  Pass 1  IDiag  1:
 E= -227.407640340846     Delta-E=       -0.000000440657 Rises=F Damp=F
 DIIS: error= 3.70D-05 at cycle   3 NSaved=   3.
 NSaved= 3 IEnMin= 3 EnMin= -227.407640340846     IErMin= 3 ErrMin= 3.70D-05
 ErrMax= 3.70D-05  0.00D+00 EMaxC= 1.00D-01 BMatC= 1.95D-07 BMatP= 4.76D-07
 IDIUse=1 WtCom= 1.00D+00 WtEn= 0.00D+00
 Coeff-Com: -0.370D-01 0.453D+00 0.584D+00
 Coeff:     -0.370D-01 0.453D+00 0.584D+00
 Gap=     0.282 Goal=   None    Shift=    0.000
 RMSDP=5.80D-06 MaxDP=1.62D-04 DE=-4.41D-07 OVMax= 1.41D-04

 Cycle   4  Pass 1  IDiag  1:
 E= -227.407640494110     Delta-E=       -0.000000153265 Rises=F Damp=F
 DIIS: error= 1.55D-05 at cycle   4 NSaved=   4.
 NSaved= 4 IEnMin= 4 EnMin= -227.407640494110     IErMin= 4 ErrMin= 1.55D-05
 ErrMax= 1.55D-05  0.00D+00 EMaxC= 1.00D-01 BMatC= 3.06D-08 BMatP= 1.95D-07
 IDIUse=1 WtCom= 1.00D+00 WtEn= 0.00D+00
 Coeff-Com: -0.138D-01 0.167D+00 0.323D+00 0.524D+00
 Coeff:     -0.138D-01 0.167D+00 0.323D+00 0.524D+00
 Gap=     0.282 Goal=   None    Shift=    0.000
 RMSDP=2.00D-06 MaxDP=5.32D-05 DE=-1.53D-07 OVMax= 8.95D-05

 Cycle   5  Pass 1  IDiag  1:
 E= -227.407640512030     Delta-E=       -0.000000017920 Rises=F Damp=F
 DIIS: error= 1.08D-05 at cycle   5 NSaved=   5.
 NSaved= 5 IEnMin= 5 EnMin= -227.407640512030     IErMin= 5 ErrMin= 1.08D-05
 ErrMax= 1.08D-05  0.00D+00 EMaxC= 1.00D-01 BMatC= 1.06D-08 BMatP= 3.06D-08
 IDIUse=1 WtCom= 1.00D+00 WtEn= 0.00D+00
 Coeff-Com: -0.513D-02 0.622D-01 0.165D+00 0.390D+00 0.389D+00
 Coeff:     -0.513D-02 0.622D-01 0.165D+00 0.390D+00 0.389D+00
 Gap=     0.282 Goal=   None    Shift=    0.000
 RMSDP=8.58D-07 MaxDP=2.02D-05 DE=-1.79D-08 OVMax= 3.49D-05

 Cycle   6  Pass 1  IDiag  1:
 E= -227.407640520934     Delta-E=       -0.000000008904 Rises=F Damp=F
 DIIS: error= 2.05D-06 at cycle   6 NSaved=   6.
 NSaved= 6 IEnMin= 6 EnMin= -227.407640520934     IErMin= 6 ErrMin= 2.05D-06
 ErrMax= 2.05D-06  0.00D+00 EMaxC= 1.00D-01 BMatC= 3.94D-10 BMatP= 1.06D-08
 IDIUse=1 WtCom= 1.00D+00 WtEn= 0.00D+00
 Coeff-Com: -0.346D-03 0.206D-02 0.313D-01 0.122D+00 0.203D+00 0.641D+00
 Coeff:     -0.346D-03 0.206D-02 0.313D-01 0.122D+00 0.203D+00 0.641D+00
 Gap=     0.282 Goal=   None    Shift=    0.000
 RMSDP=2.04D-07 MaxDP=4.85D-06 DE=-8.90D-09 OVMax= 6.53D-06

 Cycle   7  Pass 1  IDiag  1:
 E= -227.407640521238     Delta-E=       -0.000000000304 Rises=F Damp=F
 DIIS: error= 5.20D-07 at cycle   7 NSaved=   7.
 NSaved= 7 IEnMin= 7 EnMin= -227.407640521238     IErMin= 7 ErrMin= 5.20D-07
 ErrMax= 5.20D-07  0.00D+00 EMaxC= 1.00D-01 BMatC= 3.74D-11 BMatP= 3.94D-10
 IDIUse=1 WtCom= 1.00D+00 WtEn= 0.00D+00
 Coeff-Com:  0.345D-03-0.550D-02-0.834D-04 0.249D-01 0.672D-01 0.317D+00
 Coeff-Com:  0.596D+00
 Coeff:      0.345D-03-0.550D-02-0.834D-04 0.249D-01 0.672D-01 0.317D+00
 Coeff:      0.596D+00
 Gap=     0.282 Goal=   None    Shift=    0.000
 RMSDP=6.50D-08 MaxDP=1.59D-06 DE=-3.04D-10 OVMax= 2.37D-06

 Cycle   8  Pass 1  IDiag  1:
 E= -227.407640521270     Delta-E=       -0.000000000031 Rises=F Damp=F
 DIIS: error= 1.31D-07 at cycle   8 NSaved=   8.
 NSaved= 8 IEnMin= 8 EnMin= -227.407640521270     IErMin= 8 ErrMin= 1.31D-07
 ErrMax= 1.31D-07  0.00D+00 EMaxC= 1.00D-01 BMatC= 2.28D-12 BMatP= 3.74D-11
 IDIUse=1 WtCom= 1.00D+00 WtEn= 0.00D+00
 Coeff-Com:  0.153D-03-0.233D-02-0.181D-02 0.298D-02 0.164D-01 0.864D-01
 Coeff-Com:  0.264D+00 0.635D+00
 Coeff:      0.153D-03-0.233D-02-0.181D-02 0.298D-02 0.164D-01 0.864D-01
 Coeff:      0.264D+00 0.635D+00
 Gap=     0.282 Goal=   None    Shift=    0.000
 RMSDP=1.65D-08 MaxDP=2.74D-07 DE=-3.14D-11 OVMax= 3.48D-07

 Cycle   9  Pass 1  IDiag  1:
 E= -227.407640521274     Delta-E=       -0.000000000004 Rises=F Damp=F
 DIIS: error= 3.31D-08 at cycle   9 NSaved=   9.
 NSaved= 9 IEnMin= 9 EnMin= -227.407640521274     IErMin= 9 ErrMin= 3.31D-08
 ErrMax= 3.31D-08  0.00D+00 EMaxC= 1.00D-01 BMatC= 1.06D-13 BMatP= 2.28D-12
 IDIUse=1 WtCom= 1.00D+00 WtEn= 0.00D+00
 Coeff-Com:  0.204D-04-0.274D-03-0.495D-03-0.833D-03-0.289D-04 0.148D-02
 Coeff-Com:  0.430D-01 0.226D+00 0.731D+00
 Coeff:      0.204D-04-0.274D-03-0.495D-03-0.833D-03-0.289D-04 0.148D-02
 Coeff:      0.430D-01 0.226D+00 0.731D+00
 Gap=     0.282 Goal=   None    Shift=    0.000
 RMSDP=4.14D-09 MaxDP=1.01D-07 DE=-4.09D-12 OVMax= 8.59D-08

 SCF Done:  E(RB3LYP) =  -227.407640521     A.U. after    9 cycles
            NFock=  9  Conv=0.41D-08     -V/T= 2.0098
 KE= 2.252079570408D+02 PE=-8.533432248668D+02 EE= 2.378899323936D+02
 Leave Link  502 at Thu Sep  8 15:21:09 2022, MaxMem= 24159191040 cpu:        25.1
 (Enter /public/home/users/caep010/software/Gaussian09/g09/l701.exe)
 Compute integral first derivatives.
 ... and contract with generalized density number  0.
 Leave Link  701 at Thu Sep  8 15:21:09 2022, MaxMem= 24159191040 cpu:        10.3
 (Enter /public/home/users/caep010/software/Gaussian09/g09/l702.exe)
 L702 exits ... SP integral derivatives will be done elsewhere.
 Leave Link  702 at Thu Sep  8 15:21:09 2022, MaxMem= 24159191040 cpu:         0.5
 (Enter /public/home/users/caep010/software/Gaussian09/g09/l703.exe)
 Compute integral first derivatives, UseDBF=F ICtDFT=           0.
 Integral derivatives from FoFJK, PRISM(SPDF).
 Calling FoFJK, ICntrl=      2127 FMM=F ISym2X=0 I1Cent= 0 IOpClX= 0 NMat=1 NMatS=1 NMatT=0.
 FoFJK:  IHMeth= 1 ICntrl=    2127 DoSepK=F KAlg= 0 I1Cent=   0 FoldK=F
 IRaf=         0 NMat=   1 IRICut=       1 DoRegI=T DoRafI=F ISym2E= 0.
 FoFCou: FMM=F IPFlag=           0 FMFlag=      100000 FMFlg1=         800
         NFxFlg=           0 DoJE=F BraDBF=F KetDBF=F FulRan=T
         wScrn=  0.000000 ICntrl=    2127 IOpCl=  0 I1Cent=           0 NGrid=           0
         NMat0=    1 NMatS0=      1 NMatT0=    0 NMatD0=    1 NMtDS0=    0 NMtDT0=    0
 Symmetry not used in FoFCou.
 Leave Link  703 at Thu Sep  8 15:21:10 2022, MaxMem= 24159191040 cpu:         9.3
 (Enter /public/home/users/caep010/software/Gaussian09/g09/l716.exe)
 Dipole        = 1.86895042D+00 2.29467609D-05 7.23259279D-02
 ***** Axes restored to original set *****
 -------------------------------------------------------------------
 Center     Atomic                   Forces (Hartrees/Bohr)
 Number     Number              X              Y              Z
 -------------------------------------------------------------------
      1        6          -0.000283145   -0.000091072   -0.000155411
      2        7           0.000049844   -0.000053976    0.000629874
      3        6           0.000241129   -0.000124250   -0.000197462
      4        6           0.000013483    0.001062714   -0.000559069
      5        7          -0.000036942   -0.000917203    0.000212520
      6        1           0.000036408    0.000017372   -0.000023618
      7        1           0.000014696   -0.000000724    0.000039866
      8        1           0.000008304    0.000042604    0.000014301
      9        1           0.000001151    0.000044264    0.000014608
     10        1          -0.000007146   -0.000000604    0.000045011
     11        1          -0.000037782    0.000020874   -0.000020621
 -------------------------------------------------------------------
 Cartesian Forces:  Max     0.001062714 RMS     0.000299992
 Leave Link  716 at Thu Sep  8 15:21:10 2022, MaxMem= 24159191040 cpu:         0.6
 (Enter /public/home/users/caep010/software/Gaussian09/g09/l103.exe)

 GradGradGradGradGradGradGradGradGradGradGradGradGradGradGradGradGradGrad
 Berny optimization.
 Using GEDIIS/GDIIS optimizer.
 FormGI is forming the generalized inverse of G from B-inverse, IUseBI=4.
 Internal  Forces:  Max     0.000942048 RMS     0.000170971
 Search for a local minimum.
 Step number   3 out of a maximum of   49
 All quantities printed in internal units (Hartrees-Bohrs-Radians)
 RMS Force = .17097D-03 SwitMx=.10000D-02 MixMth= 2
 Mixed Optimization -- En-DIIS/RFO-DIIS
 Swapping is turned off.
 Update second derivatives using D2CorX and points    1    2    3
 DE= -1.08D-05 DEPred=-6.81D-06 R= 1.58D+00
 TightC=F SS=  1.41D+00  RLast= 3.00D-02 DXNew= 5.0454D-01 8.9920D-02
 Trust test= 1.58D+00 RLast= 3.00D-02 DXMaxT set to 3.00D-01
 ITU=  1  1  0
     Eigenvalues ---    0.00423   0.00878   0.01144   0.04823   0.04966
     Eigenvalues ---    0.07269   0.07270   0.07658   0.07681   0.15983
     Eigenvalues ---    0.16000   0.16000   0.16000   0.16004   0.16672
     Eigenvalues ---    0.21442   0.24617   0.33725   0.33769   0.34312
     Eigenvalues ---    0.34352   0.34715   0.34717   0.36580   0.36773
     Eigenvalues ---    0.56988   1.62571
 En-DIIS/RFO-DIIS IScMMF=        0 using points:     3    2
 RFO step:  Lambda=-2.11529413D-06.
 NNeg= 0 NP= 2 Switch=  2.50D-03 Rises=F DC=  1.08D-05 SmlDif=  1.00D-05
 RMS Error=  0.6708921341D-03 NUsed= 2 EDIIS=F
 DidBck=F Rises=F RFO-DIIS coefs:    2.24221   -1.24221
 Iteration  1 RMS(Cart)=  0.00935441 RMS(Int)=  0.00008110
 Iteration  2 RMS(Cart)=  0.00009315 RMS(Int)=  0.00005012
 Iteration  3 RMS(Cart)=  0.00000000 RMS(Int)=  0.00005012
 ITry= 1 IFail=0 DXMaxC= 2.94D-02 DCOld= 1.00D+10 DXMaxT= 3.00D-01 DXLimC= 3.00D+00 Rises=F
 Variable       Old X    -DE/DX   Delta X   Delta X   Delta X     New X
                                 (Linear)    (Quad)   (Total)
    R1        2.76727   0.00022   0.00075   0.00138   0.00214   2.76940
    R2        2.06713  -0.00003  -0.00019  -0.00009  -0.00028   2.06685
    R3        2.06143   0.00000   0.00001   0.00000   0.00001   2.06144
[...]
     29 -0.174602D-02 -0.200943D-03  0.101189D-01  0.156640D-01
     30  0.205626D-02  0.329129D-03 -0.261145D-02 -0.861076D-02  0.153972D-01
     31 -0.179681D-02  0.808826D-03 -0.833911D-02 -0.306567D-02  0.939788D-02
     32  0.192538D-02 -0.860508D-03 -0.283022D-02 -0.826077D-02 -0.322347D-02
     33 -0.192770D-02 -0.380812D-03 -0.855788D-02 -0.271568D-02 -0.922278D-02
     34  0.235362D-02  0.128230D-02  0.104356D-02 -0.140007D-02  0.126969D-02
     35  0.295422D-02 -0.591727D-04  0.110643D-02 -0.168260D-02  0.131075D-02
     36  0.241332D-02  0.106730D-02  0.918548D-03 -0.160794D-02  0.109694D-02
     37 -0.211889D-02 -0.689041D-04 -0.147854D-02  0.185105D-02 -0.150076D-02
     38 -0.151829D-02 -0.141038D-02 -0.141566D-02  0.156852D-02 -0.145970D-02
     39 -0.205919D-02 -0.283905D-03 -0.160354D-02  0.164318D-02 -0.167351D-02
               31            32            33            34            35 
     31  0.146713D-01
     32 -0.865402D-02  0.163204D-01
     33 -0.338058D-02  0.108899D-01  0.167320D-01
     34 -0.117394D-02  0.102268D-02 -0.142095D-02  0.163541D-01
     35 -0.147828D-02  0.127371D-02 -0.151533D-02 -0.318673D-02  0.154463D-01
     36 -0.142955D-02  0.103940D-02 -0.148709D-02 -0.280078D-02 -0.257730D-02
     37  0.182882D-02 -0.140807D-02  0.192152D-02  0.108702D-01 -0.924670D-02
     38  0.152448D-02 -0.115704D-02  0.182713D-02 -0.867058D-02  0.938633D-02
     39  0.157321D-02 -0.139135D-02  0.185537D-02 -0.828464D-02 -0.863727D-02
               36            37            38            39 
     36  0.158718D-01
     37 -0.857415D-02  0.167392D-01
     38 -0.835066D-02 -0.337775D-02  0.146792D-01
     39  0.100984D-01 -0.270520D-02 -0.305783D-02  0.156779D-01
 Leave Link  716 at Thu Sep  8 15:21:30 2022, MaxMem= 24159191040 cpu:         1.3
 (Enter /public/home/users/caep010/software/Gaussian09/g09/l103.exe)

 GradGradGradGradGradGradGradGradGradGradGradGradGradGradGradGradGradGrad
 Berny optimization.
 Red2BG is reusing G-inverse.
 Internal  Forces:  Max     0.000101448 RMS     0.000017283
 Search for a local minimum.
 Step number   1 out of a maximum of    2
 All quantities printed in internal units (Hartrees-Bohrs-Radians)
 Second derivative matrix not updated -- analytic derivatives used.
 ITU=  0
     Eigenvalues ---    0.00229   0.00254   0.00758   0.06234   0.06275
     Eigenvalues ---    0.06298   0.06319   0.07811   0.08485   0.12797
     Eigenvalues ---    0.13571   0.14841   0.15584   0.17193   0.17554
     Eigenvalues ---    0.18588   0.21578   0.32154   0.32372   0.33885
     Eigenvalues ---    0.33934   0.34765   0.34815   0.36193   0.36313
     Eigenvalues ---    0.51214   1.19113
 Angle between quadratic step and forces=  76.18 degrees.
 Linear search not attempted -- first point.
 Iteration  1 RMS(Cart)=  0.00018738 RMS(Int)=  0.00000003
 Iteration  2 RMS(Cart)=  0.00000004 RMS(Int)=  0.00000002
 ITry= 1 IFail=0 DXMaxC= 5.69D-04 DCOld= 1.00D+10 DXMaxT= 3.00D-01 DXLimC= 3.00D+00 Rises=F
 Variable       Old X    -DE/DX   Delta X   Delta X   Delta X     New X
                                 (Linear)    (Quad)   (Total)
    R1        2.76954  -0.00001   0.00000  -0.00006  -0.00006   2.76948
    R2        2.06672   0.00000   0.00000   0.00001   0.00001   2.06673
    R3        2.06153   0.00000   0.00000   0.00000   0.00000   2.06153
    R4        2.07721  -0.00000   0.00000  -0.00001  -0.00001   2.07720
    R5        2.76952  -0.00000   0.00000  -0.00005  -0.00005   2.76948
    R6        2.53252   0.00000   0.00000  -0.00003  -0.00003   2.53249
    R7        2.07720  -0.00000   0.00000  -0.00001  -0.00001   2.07720
    R8        2.06153   0.00000   0.00000   0.00000   0.00000   2.06153
    R9        2.06672   0.00000   0.00000   0.00001   0.00001   2.06673
   R10        2.20844   0.00010   0.00000   0.00009   0.00009   2.20853
    A1        1.89712  -0.00000   0.00000  -0.00000  -0.00000   1.89712
    A2        1.90826  -0.00000   0.00000  -0.00002  -0.00002   1.90824
    A3        1.95953   0.00000   0.00000   0.00003   0.00003   1.95956
    A4        1.89700   0.00000   0.00000  -0.00003  -0.00003   1.89697
    A5        1.89923   0.00000   0.00000   0.00002   0.00002   1.89925
    A6        1.90177   0.00000   0.00000   0.00000   0.00000   1.90177
    A7        2.03025   0.00001   0.00000   0.00016   0.00016   2.03041
    A8        2.04160  -0.00001   0.00000   0.00007   0.00007   2.04166
    A9        2.04156   0.00000   0.00000   0.00010   0.00010   2.04166
   A10        1.95953   0.00000   0.00000   0.00003   0.00003   1.95956
   A11        1.90826  -0.00000   0.00000  -0.00002  -0.00002   1.90824
   A12        1.89709   0.00000   0.00000   0.00003   0.00003   1.89712
   A13        1.90178  -0.00000   0.00000  -0.00001  -0.00001   1.90177
   A14        1.89924  -0.00000   0.00000   0.00001   0.00001   1.89925
   A15        1.89701  -0.00000   0.00000  -0.00004  -0.00004   1.89697
   A16        3.14074  -0.00003   0.00000  -0.00031  -0.00031   3.14043
   A17        3.19188  -0.00000   0.00000  -0.00008  -0.00008   3.19181
    D1        0.98774  -0.00000   0.00000  -0.00033  -0.00033   0.98740
    D2       -2.76386   0.00000   0.00000   0.00022   0.00022  -2.76364
    D3        3.05608  -0.00000   0.00000  -0.00038  -0.00038   3.05569
    D4       -0.69552   0.00000   0.00000   0.00016   0.00016  -0.69535
    D5       -1.11429  -0.00000   0.00000  -0.00037  -0.00037  -1.11466
    D6        1.41730   0.00000   0.00000   0.00017   0.00017   1.41748
    D7        1.11439   0.00000   0.00000   0.00028   0.00028   1.11467
    D8       -3.05596   0.00000   0.00000   0.00028   0.00028  -3.05569
    D9       -0.98763  -0.00000   0.00000   0.00024   0.00024  -0.98740
   D10       -1.41722   0.00000   0.00000  -0.00025  -0.00025  -1.41747
   D11        0.69561   0.00000   0.00000  -0.00026  -0.00026   0.69536
   D12        2.76395  -0.00000   0.00000  -0.00030  -0.00030   2.76365
         Item               Value     Threshold  Converged?
 Maximum Force            0.000101     0.000450     YES
 RMS     Force            0.000017     0.000300     YES
 Maximum Displacement     0.000569     0.001800     YES
 RMS     Displacement     0.000187     0.001200     YES
 Predicted change in Energy=-1.349686D-08
 Optimization completed.
    -- Stationary point found.
                           ----------------------------
                           !   Optimized Parameters   !
                           ! (Angstroms and Degrees)  !
 --------------------------                            --------------------------
 ! Name  Definition              Value          Derivative Info.                !
 --------------------------------------------------------------------------------
 ! R1    R(1,2)                  1.4656         -DE/DX =    0.0                 !
 ! R2    R(1,6)                  1.0937         -DE/DX =    0.0                 !
 ! R3    R(1,7)                  1.0909         -DE/DX =    0.0                 !
 ! R4    R(1,8)                  1.0992         -DE/DX =    0.0                 !
 ! R5    R(2,3)                  1.4656         -DE/DX =    0.0                 !
 ! R6    R(2,4)                  1.3402         -DE/DX =    0.0                 !
 ! R7    R(3,9)                  1.0992         -DE/DX =    0.0                 !
 ! R8    R(3,10)                 1.0909         -DE/DX =    0.0                 !
 ! R9    R(3,11)                 1.0937         -DE/DX =    0.0                 !
 ! R10   R(4,5)                  1.1687         -DE/DX =    0.0001              !
 ! A1    A(2,1,6)              108.6967         -DE/DX =    0.0                 !
 ! A2    A(2,1,7)              109.3354         -DE/DX =    0.0                 !
 ! A3    A(2,1,8)              112.2727         -DE/DX =    0.0                 !
 ! A4    A(6,1,7)              108.69           -DE/DX =    0.0                 !
 ! A5    A(6,1,8)              108.8179         -DE/DX =    0.0                 !
 ! A6    A(7,1,8)              108.9634         -DE/DX =    0.0                 !
 ! A7    A(1,2,3)              116.3249         -DE/DX =    0.0                 !
 ! A8    A(1,2,4)              116.9748         -DE/DX =    0.0                 !
 ! A9    A(3,2,4)              116.9728         -DE/DX =    0.0                 !
 ! A10   A(2,3,9)              112.2729         -DE/DX =    0.0                 !
 ! A11   A(2,3,10)             109.3352         -DE/DX =    0.0                 !
 ! A12   A(2,3,11)             108.6952         -DE/DX =    0.0                 !
 ! A13   A(9,3,10)             108.964          -DE/DX =    0.0                 !
 ! A14   A(9,3,11)             108.8184         -DE/DX =    0.0                 !
 ! A15   A(10,3,11)            108.6904         -DE/DX =    0.0                 !
 ! A16   L(2,4,5,10,-1)        179.9513         -DE/DX =    0.0                 !
 ! A17   L(2,4,5,10,-2)        182.8814         -DE/DX =    0.0                 !
 ! D1    D(6,1,2,3)             56.5931         -DE/DX =    0.0                 !
 ! D2    D(6,1,2,4)           -158.3573         -DE/DX =    0.0                 !
 ! D3    D(7,1,2,3)            175.1003         -DE/DX =    0.0                 !
 ! D4    D(7,1,2,4)            -39.8501         -DE/DX =    0.0                 !
 ! D5    D(8,1,2,3)            -63.8442         -DE/DX =    0.0                 !
 ! D6    D(8,1,2,4)             81.2055         -DE/DX =    0.0                 !
 ! D7    D(1,2,3,9)             63.8497         -DE/DX =    0.0                 !
 ! D8    D(1,2,3,10)          -175.0939         -DE/DX =    0.0                 !
 ! D9    D(1,2,3,11)           -56.5872         -DE/DX =    0.0                 !
 ! D10   D(4,2,3,9)            -81.2006         -DE/DX =    0.0                 !
 ! D11   D(4,2,3,10)            39.8558         -DE/DX =    0.0                 !
 ! D12   D(4,2,3,11)           158.3624         -DE/DX =    0.0                 !
 --------------------------------------------------------------------------------
 GradGradGradGradGradGradGradGradGradGradGradGradGradGradGradGradGradGrad

 Leave Link  103 at Thu Sep  8 15:21:30 2022, MaxMem= 24159191040 cpu:         1.3
 (Enter /public/home/users/caep010/software/Gaussian09/g09/l9999.exe)
 1\1\GINC-B1537\Freq\RB3LYP\6-31G(d,p)\C3H6N2\ROOT\08-Sep-2022\0\\#P Ge
 om=AllCheck Guess=TCheck SCRF=Check GenChk RB3LYP/6-31G(d,p) Freq\\Fra
 g_572\\0,1\C,-1.2633758479,-0.3594980493,0.1082803091\N,0.0379426008,0
 .3022711096,0.2368939948\C,1.21550674,-0.5142078767,-0.0706642296\C,0.
 0951759562,1.6000193306,-0.092618275\N,0.1487731082,2.7424023249,-0.33
 31373628\H,-1.2696720669,-1.2475738307,0.7465404042\H,-2.0484388806,0.
 3188374091,0.4453651565\H,-1.4750481957,-0.6648579024,-0.9262304357\H,
 1.2376285845,-0.8340765707,-1.1220708102\H,2.1185365746,0.0587306234,0
 .1446682293\H,1.2030724268,-1.4019475679,0.5679720193\\Version=ES64L-G
 09RevE.01\State=1-A\HF=-227.4076515\RMSD=2.110e-09\RMSF=2.575e-05\Zero
 Point=0.0911607\Thermal=0.0972058\Dipole=-0.1071294,-1.8570821,0.11910
 05\DipoleDeriv=0.475878,0.35217,0.0543114,0.2700531,0.2809298,0.038843
 6,0.0394445,0.0038744,0.3373352,-0.4274612,-0.0176164,0.0047981,-0.035
 8161,-1.0086665,0.0059808,0.0206338,0.2605335,-0.3656305,0.3821024,-0.
 3610394,-0.0587717,-0.2746827,0.3598247,0.0856529,-0.0476013,0.0611926
 ,0.3522817,-0.0791127,0.0606123,0.0102749,0.0640198,1.1196982,-0.15420
 01,0.0073047,-0.2020576,0.1921676,-0.3252375,-0.0154876,-0.0010071,-0.
 0156961,-0.5937434,0.0171916,-0.0009079,0.0185023,-0.3530226,0.0415704
 ,-0.0043031,-0.0327542,-0.0535032,-0.0860612,0.086205,-0.0154605,0.083
 5287,-0.0025587,-0.0355113,0.0295057,0.0235475,0.0738987,0.0155451,-0.
 0460105,0.0258274,-0.0402792,0.065534,-0.0289621,-0.0770639,0.0168968,
 -0.0744712,-0.0026835,-0.0340426,-0.0871408,-0.1069536,-0.1405226,-0.0
 050788,0.0607789,-0.0400433,0.0695749,-0.0203576,-0.0409834,0.0541613,
 -0.1258249,-0.1467476,-0.0537014,-0.0264885,-0.0121276,-0.0712615,0.02
 81743,-0.0332354,-0.0140797,-0.0336775,0.0710691,0.0555141,-0.0010681,
 0.0348753,0.0478842,-0.0926598,0.0745981,0.0178186,0.0811611,-0.009905
 5\Polar=38.1742367,0.9051957,56.5880535,-0.7135573,-3.3382261,31.16390
 71\PG=C01 [X(C3H6N2)]\NImag=0\\0.50570507,-0.06484810,0.58950080,-0.01
 605896,-0.00785118,0.56244601,-0.18702365,-0.04849332,-0.02492250,0.52
 149816,-0.03812523,-0.11715509,-0.01893647,0.00893616,0.71334902,-0.00
 386915,-0.00259976,-0.05487568,-0.03091158,-0.04049455,0.12996956,-0.0
 3287419,0.01591010,0.00967854,-0.16907700,0.04165957,0.02039885,0.5281
 4676,-0.01000162,0.01288087,0.00153198,0.05444586,-0.12863723,-0.01162
 689,0.07087001,0.57248035,-0.00478558,0.00056523,-0.00024437,0.0393612
 0,-0.02878822,-0.06136570,0.02055227,-0.02003038,0.55705036,-0.0000521
 0,-0.03523016,0.01157351,-0.09022132,-0.01250421,0.00617782,0.00455456
 ,0.02984205,-0.01108615,0.13935038,-0.02162586,-0.03451602,0.01758127,
 -0.01549740,-0.39186226,0.04667906,0.01903440,-0.04113052,0.01603435,0
 .06709485,1.56332854,0.00179371,-0.00040039,-0.00974002,0.00875002,0.0
 8787967,-0.04471193,-0.00372441,-0.00477521,-0.00772833,-0.01769902,-0
 .30014179,0.14994592,-0.00111376,0.00251641,-0.00130300,0.02039871,-0.
 00251011,0.00064760,-0.00207062,-0.00159637,0.00174568,-0.04135517,-0.
 05057596,0.00998294,0.02077240,0.01036630,0.00528397,-0.00257222,-0.00
 198183,-0.03710284,0.02204209,-0.00969013,0.00679128,-0.00130743,-0.05
 052730,-1.10781564,0.22021163,0.05251494,1.13704124,-0.00200327,-0.000
 23972,0.00336290,0.00020620,0.01498318,0.01048337,0.00265671,-0.000228
 23,0.00281198,0.00992518,0.21923003,-0.09014933,-0.01061807,-0.2354876
 8,0.07387984,-0.04962375,0.01087336,-0.00529652,-0.00673147,-0.0313187
 8,0.01517020,0.00208838,-0.00204750,0.00107080,-0.00574089,-0.00240530
 ,0.00249211,0.00093666,-0.00092245,-0.00041536,0.05653742,0.00332665,-
 0.22059375,0.12574137,-0.00419985,-0.01631985,0.00510518,0.00157140,0.
 00044869,-0.00057231,-0.00322249,-0.00049878,0.00185423,0.00009512,-0.
 00010927,-0.00014293,0.00298042,0.24133439,-0.00245185,0.12864996,-0.1
 4553002,0.00080997,-0.00439242,0.00550953,-0.00019161,0.00020414,-0.00
 008826,-0.00089939,-0.00130168,0.00026857,0.00021835,-0.00028217,0.000
 13166,0.00433527,-0.13838360,0.14987357,-0.18321129,0.11788675,0.05923
 372,-0.02812151,0.01742749,0.00769991,-0.00339059,-0.00480499,-0.00032
 308,-0.00003560,0.00362688,-0.00008369,0.00042918,-0.00134824,-0.00003
 000,0.00180413,-0.00051750,-0.00098951,0.20770887,0.12957070,-0.164128
 57,-0.05641317,-0.01736559,0.01073697,0.00587796,-0.00226542,-0.001901
 68,0.00020448,-0.00106954,0.00206313,0.00077259,0.00011297,-0.00033280
 ,-0.00032907,0.01714384,-0.01362957,-0.00965249,-0.12986146,0.17034331
 ,0.06234583,-0.05628273,-0.07714725,-0.00338149,0.00451290,0.00052169,
 -0.00067282,-0.00004360,0.00008148,0.00053256,-0.00064620,0.00077629,-
 0.00013835,0.00036839,-0.00027480,-0.01524688,0.01165827,0.00716829,-0
 .06489125,0.06064705,0.07624555,-0.05554846,-0.00704532,-0.03468794,-0
 .01884048,-0.01935433,-0.02794290,0.00375194,-0.00230720,-0.00275673,-
 0.00045003,0.00661566,-0.00378272,0.00016522,-0.00252981,0.00132921,0.
 00087554,0.00088819,-0.00130598,0.00580539,0.00470077,0.02211759,0.064
 38985,-0.00734766,-0.06853203,-0.05969016,-0.01170404,-0.00937833,-0.0
 1490929,0.00143130,-0.00031232,0.00107039,-0.00043501,0.00433013,-0.00
 351055,0.00027975,-0.00141881,0.00123565,0.00448055,0.00849715,0.02538
 308,-0.00341816,-0.00420662,-0.01994598,0.01777890,0.07033297,-0.03504
 911,-0.06078270,-0.27911187,-0.00615354,-0.00414435,0.00578944,0.00042
 875,0.00008868,0.00116472,0.00009771,0.00179852,0.00033864,-0.00011307
 ,-0.00121877,-0.00013448,-0.00144455,-0.00533659,-0.01721979,-0.001185
 63,-0.00086404,-0.00815249,0.04495770,0.06984766,0.29778907,0.00409081
 ,0.00176950,0.00246233,-0.00996680,0.01888095,0.02831104,-0.05091006,-
 0.00404005,-0.00605875,-0.00062341,-0.00563924,0.00340212,0.00023646,0
 .00211076,-0.00119913,-0.00038496,-0.00017068,-0.00007147,-0.00006675,
 -0.00017475,-0.00046513,0.00023137,-0.00071162,-0.00149880,0.05478009,
 -0.00181863,-0.00036532,0.00097764,0.00957814,-0.01312613,-0.01999796,
 -0.00358169,-0.06896274,-0.06175210,0.00054372,0.00503463,-0.00402899,
 -0.00030504,-0.00167247,0.00143541,0.00038837,0.00008234,0.00014245,0.
 00006573,0.00003412,0.00009164,0.00080264,0.00057093,0.00037391,-0.005
 59485,0.07327670,-0.00085380,-0.00012696,0.00087867,0.00795197,-0.0078
 2517,0.00066448,-0.00583239,-0.06282707,-0.28332112,0.00027169,0.00267
 328,-0.00019173,-0.00009611,-0.00155535,0.00004659,-0.00006991,0.00021
 220,-0.00034407,0.00018644,0.00007343,0.00026624,0.00146238,0.00029847
 ,-0.00031343,-0.00080999,0.07441614,0.30445655,-0.00229510,0.00480466,
 0.00073248,-0.02737131,-0.01187126,-0.00298162,-0.22987948,-0.11697281
 ,-0.04481990,-0.00035760,-0.00337680,0.00031298,0.00057624,0.00127307,
 -0.00012299,0.00032120,0.00002657,0.00005233,-0.00124003,-0.00077222,-
 0.00027143,-0.00000304,-0.00004846,-0.00013736,0.00190290,-0.00025752,
 -0.00038709,0.25637297,0.00232908,-0.00279258,-0.00019762,0.02285759,0
 .01005309,0.00363950,-0.12858140,-0.13316461,-0.03108697,0.00146667,0.
 00234232,0.00056638,-0.00027160,-0.00047295,-0.00029613,-0.00003885,0.
 00025554,-0.00035091,0.00102168,0.00076083,-0.00005645,0.00019284,0.00
 001806,0.00006687,-0.00576955,-0.00373364,-0.00014058,0.12694292,0.138
 08433,0.00102693,-0.00084845,-0.00012310,0.00815833,0.00590415,0.00045
 709,-0.04799721,-0.03224476,-0.06144235,-0.00043179,-0.00007920,0.0008
 1877,0.00005757,0.00016656,-0.00028288,-0.00014326,-0.00029743,0.00008
 701,0.00051299,0.00002414,0.00043034,0.00051360,0.00003860,0.00021863,
 -0.02594387,-0.01715598,-0.00472330,0.04709434,0.03491484,0.05983948,0
 .00194642,0.00185612,-0.00141165,-0.00454332,0.02877976,-0.01270017,-0
 .05033968,-0.01338737,0.00710024,-0.00506882,0.00274878,-0.00144403,0.
 00102468,0.00073469,0.00027152,-0.00008225,-0.00077783,0.00049390,0.00
 031820,-0.00001931,0.00007136,-0.00037729,-0.00030557,0.00009791,0.000
 71035,0.00017913,-0.00182318,0.00197326,-0.02014939,0.01715237,0.05443
 845,-0.00182564,0.00041773,-0.00017143,0.00342429,-0.02055735,0.006284
 66,-0.00635814,-0.21849208,0.12566296,0.00404141,-0.00127553,0.0015724
 2,-0.00026011,-0.00019170,-0.00016051,0.00086635,0.00053312,-0.0000163
 7,-0.00007819,0.00026086,-0.00030329,0.00025767,0.00009888,0.00017081,
 -0.00066046,0.00886159,-0.00519838,0.00025184,-0.01135038,0.00957753,0
 .00034099,0.24169485,-0.00009475,-0.00008329,0.00008473,0.00013142,-0.
 00869872,0.00755816,0.00470332,0.12995134,-0.14691841,0.00153788,-0.00
 182765,0.00037315,-0.00038354,-0.00036504,0.00012514,-0.00045189,0.000
 16160,0.00014352,-0.00012990,-0.00034088,0.00008465,0.00009579,0.00018
 214,-0.00036843,0.00187165,0.02549782,-0.01741890,0.00052826,-0.007058
 93,0.00472031,-0.00780825,-0.13741839,0.15161607\\-0.00000681,-0.00000
 753,0.00000433,-0.00001027,0.00001685,0.00001321,0.00000837,-0.0000013
 4,-0.00000150,0.00003400,0.00009293,-0.00002398,-0.00001673,-0.0000974
 1,0.00002946,-0.00000154,-0.00000255,-0.00000607,-0.00000093,-0.000001
 52,-0.00000226,0.00000060,0.00000036,-0.00000338,-0.00000187,0.0000014
 7,-0.00000320,-0.00000086,-0.00000052,-0.00000187,-0.00000396,-0.00000
 072,-0.00000474\\\@


 LET US LEARN TO DREAM, GENTLEMEN, THEN PERHAPS WE SHALL
 DISCOVER THE TRUTH;  BUT LET US BEWARE OF PUBLISHING
 OUR DREAMS ABROAD BEFORE THEY HAVE BEEN SCRUTINIZED
 BY OUR VIGILANT INTELLECT ... LET US ALWAYS ALLOW
 THE FRUIT TO HANG UNTIL IT IS RIPE.  UNRIPE FRUIT
 BRINGS EVEN THE GROWER BUT LITTLE PROFIT; IT DAMAGES
 THE HEALTH OF THOSE WHO CONSUME IT; IT ENDANGERS
 PARTICULARLY THE YOUTH WHO CANNOT YET DISTINGUISH
 BETWEEN RIPE AND UNRIPE FRUIT.

                                  -- KEKULE, 1890
 Job cpu time:       0 days  0 hours  3 minutes 41.5 seconds.
 File lengths (MBytes):  RWF=     17 Int=      0 D2E=      0 Chk=      2 Scr=      1
 Normal termination of Gaussian 09 at Thu Sep  8 15:21:30 2022.
