 Entering Gaussian System, Link 0=g09
 Input=B3LYP6-31Gxx.Frag_130.gjf
 Output=B3LYP6-31Gxx.Frag_130.log
 Initial command:
 /public/home/users/caep010/software/Gaussian09/g09/l1.exe "/public/home/users/caep010/.cache/gau_scr/Gau-222450.inp" -scrdir="/public/home/users/caep010/.cache/gau_scr/"
 Entering Link 1 = /public/home/users/caep010/software/Gaussian09/g09/l1.exe PID=    222451.
  
 Copyright (c) 1988,1990,1992,1993,1995,1998,2003,2009,2015,
            Gaussian, Inc.  All Rights Reserved.
  
 This is part of the Gaussian(R) 09 program.  It is based on
 the Gaussian(R) 03 system (copyright 2003, Gaussian, Inc.),
 the Gaussian(R) 98 system (copyright 1998, Gaussian, Inc.),
 the Gaussian(R) 94 system (copyright 1995, Gaussian, Inc.),
 the Gaussian 92(TM) system (copyright 1992, Gaussian, Inc.),
 the Gaussian 90(TM) system (copyright 1990, Gaussian, Inc.),
 the Gaussian 88(TM) system (copyright 1988, Gaussian, Inc.),
 the Gaussian 86(TM) system (copyright 1986, Carnegie Mellon
 University), and the Gaussian 82(TM) system (copyright 1983,
 Carnegie Mellon University). Gaussian is a federally registered
 trademark of Gaussian, Inc.
  
 This software contains proprietary and confidential information,
 including trade secrets, belonging to Gaussian, Inc.
  
 This software is provided under written license and may be
 used, copied, transmitted, or stored only in accord with that
 written license.
  
 The following legend is applicable only to US Government
 contracts under FAR:
  
                    RESTRICTED RIGHTS LEGEND
  
 Use, reproduction and disclosure by the US Government is
 subject to restrictions as set forth in subparagraphs (a)
 and (c) of the Commercial Computer Software - Restricted
 Rights clause in FAR 52.227-19.
  
 Gaussian, Inc.
 340 Quinnipiac St., Bldg. 40, Wallingford CT 06492
  
  
 ---------------------------------------------------------------
 Warning -- This program may not be used in any manner that
 competes with the business of Gaussian, Inc. or will provide
 assistance to any competitor of Gaussian, Inc.  The licensee
 of this program is prohibited from giving any competitor of
 Gaussian, Inc. access to this program.  By using this program,
 the user acknowledges that Gaussian, Inc. is engaged in the
 business of creating and licensing software in the field of
 computational chemistry and represents and warrants to the
 licensee that it is not a competitor of Gaussian, Inc. and that
 it will not use this program in any manner prohibited above.
 ---------------------------------------------------------------
  

 Cite this work as:
 Gaussian 09, Revision E.01,
 M. J. Frisch, G. W. Trucks, H. B. Schlegel, G. E. Scuseria, 
 M. A. Robb, J. R. Cheeseman, G. Scalmani, V. Barone, B. Mennucci, 
 G. A. Petersson, H. Nakatsuji, M. Caricato, X. Li, H. P. Hratchian, 
 A. F. Izmaylov, J. Bloino, G. Zheng, J. L. Sonnenberg, M. Hada, 
 M. Ehara, K. Toyota, R. Fukuda, J. Hasegawa, M. Ishida, T. Nakajima, 
 Y. Honda, O. Kitao, H. Nakai, T. Vreven, J. A. Montgomery, Jr., 
 J. E. Peralta, F. Ogliaro, M. Bearpark, J. J. Heyd, E. Brothers, 
 K. N. Kudin, V. N. Staroverov, T. Keith, R. Kobayashi, J. Normand, 
 K. Raghavachari, A. Rendell, J. C. Burant, S. S. Iyengar, J. Tomasi, 
 M. Cossi, N. Rega, J. M. Millam, M. Klene, J. E. Knox, J. B. Cross, 
 V. Bakken, C. Adamo, J. Jaramillo, R. Gomperts, R. E. Stratmann, 
 O. Yazyev, A. J. Austin, R. Cammi, C. Pomelli, J. W. Ochterski, 
 R. L. Martin, K. Morokuma, V. G. Zakrzewski, G. A. Voth, 
 P. Salvador, J. J. Dannenberg, S. Dapprich, A. D. Daniels, 
 O. Farkas, J. B. Foresman, J. V. Ortiz, J. Cioslowski, 
 and D. J. Fox, Gaussian, Inc., Wallingford CT, 2013.
 
 ******************************************
 Gaussian 09:  ES64L-G09RevE.01 30-Nov-2015
                23-Aug-2021 
 ******************************************
 %nproc=32
 Will use up to   32 processors via shared memory.
 %mem=180GB
 ---------------------------------
 #P OPT=calcall Freq B3LYP/6-31G**
 ---------------------------------
 1/10=4,14=-1,18=20,19=15,26=3,38=1/1,3;
 2/9=110,12=2,17=6,18=5,40=1/2;
 3/5=1,6=6,7=101,11=2,16=1,25=1,30=1,71=2,74=-5,140=1/1,2,3;
 4//1;
 5/5=2,38=5/2;
 8/6=4,10=90,11=11/1;
 11/6=1,8=1,9=11,15=111,16=1/1,2,10;
 10/6=1/2;
 6/7=2,8=2,9=2,10=2,18=1,28=1/1;
 7/10=1,25=1/1,2,3,16;
 1/10=4,14=-1,18=20,19=15,26=3/3(3);
 2/9=110/2;
 7/8=1,9=1,25=1,44=-1/16;
 99//99;
 2/9=110/2;
 3/5=1,6=6,7=101,11=2,16=1,25=1,30=1,71=2,74=-5,140=1/1,2,3;
 4/5=5,16=3,69=1/1;
 5/5=2,38=5/2;
 8/6=4,10=90,11=11/1;
 11/6=1,8=1,9=11,15=111,16=1/1,2,10;
 10/6=1/2;
 7/10=1,25=1/1,2,3,16;
 1/10=4,14=-1,18=20,19=15,26=3/3(-8);
 2/9=110/2;
 6/7=2,8=2,9=2,10=2,18=1,19=2,28=1/1;
 7/8=1,9=1,25=1,44=-1/16;
 99//99;
 Leave Link    1 at Mon Aug 23 16:17:32 2021, MaxMem= 24159191040 cpu:         4.1
 (Enter /public/home/users/caep010/software/Gaussian09/g09/l101.exe)
 --------
 Frag_130
 --------
 Symbolic Z-matrix:
 Charge =  0 Multiplicity = 1
 C                    -1.7553    0.0162   -0.0305 
 N                    -0.7457   -0.7557    0.0401 
 N                     0.5461    0.0232    0.0045 
 O                     0.5211    1.2438    0.0134 
 O                     1.5212   -0.6952   -0.0226 
 H                    -1.6774    1.1056   -0.0997 
 H                    -2.7321   -0.4628   -0.0157 
 
 Add atom      1 valence  3 ND=      2 dihedral       2      1      6      7
 Add atom      3 valence  3 ND=      2 dihedral       2      3      4      5
 NAtoms=      7 NQM=        7 NQMF=       0 NMMI=      0 NMMIF=      0
                NMic=       0 NMicF=      0.
                    Isotopes and Nuclear Properties:
 (Nuclear quadrupole moments (NQMom) in fm**2, nuclear magnetic moments (NMagM)
  in nuclear magnetons)

  Atom         1           2           3           4           5           6           7
 IAtWgt=          12          14          14          16          16           1           1
 AtmWgt=  12.0000000  14.0030740  14.0030740  15.9949146  15.9949146   1.0078250   1.0078250
 NucSpn=           0           2           2           0           0           1           1
 AtZEff=   0.0000000   0.0000000   0.0000000   0.0000000   0.0000000   0.0000000   0.0000000
 NQMom=    0.0000000   2.0440000   2.0440000   0.0000000   0.0000000   0.0000000   0.0000000
 NMagM=    0.0000000   0.4037610   0.4037610   0.0000000   0.0000000   2.7928460   2.7928460
 AtZNuc=   6.0000000   7.0000000   7.0000000   8.0000000   8.0000000   1.0000000   1.0000000
 Leave Link  101 at Mon Aug 23 16:17:33 2021, MaxMem= 24159191040 cpu:        10.6
 (Enter /public/home/users/caep010/software/Gaussian09/g09/l103.exe)

 GradGradGradGradGradGradGradGradGradGradGradGradGradGradGradGradGradGrad
 Berny optimization.
 Initialization pass.
                           ----------------------------
                           !    Initial Parameters    !
                           ! (Angstroms and Degrees)  !
 --------------------------                            --------------------------
 ! Name  Definition              Value          Derivative Info.                !
 --------------------------------------------------------------------------------
 ! R1    R(1,2)                  1.2728         calculate D2E/DX2 analytically  !
 ! R2    R(1,6)                  1.0944         calculate D2E/DX2 analytically  !
 ! R3    R(1,7)                  1.088          calculate D2E/DX2 analytically  !
 ! R4    R(2,3)                  1.5089         calculate D2E/DX2 analytically  !
 ! R5    R(3,4)                  1.2209         calculate D2E/DX2 analytically  !
 ! R6    R(3,5)                  1.2115         calculate D2E/DX2 analytically  !
 ! A1    A(2,1,6)              123.4173         calculate D2E/DX2 analytically  !
 ! A2    A(2,1,7)              116.3828         calculate D2E/DX2 analytically  !
 ! A3    A(6,1,7)              120.1995         calculate D2E/DX2 analytically  !
 ! A4    A(1,2,3)              111.3901         calculate D2E/DX2 analytically  !
 ! A5    A(2,3,4)              119.8934         calculate D2E/DX2 analytically  !
 ! A6    A(2,3,5)              112.5513         calculate D2E/DX2 analytically  !
 ! A7    A(4,3,5)              127.5537         calculate D2E/DX2 analytically  !
 ! D1    D(6,1,2,3)             -0.4541         calculate D2E/DX2 analytically  !
 ! D2    D(7,1,2,3)            179.7491         calculate D2E/DX2 analytically  !
 ! D3    D(2,1,6,7)           -179.7894         calculate D2E/DX2 analytically  !
 ! D4    D(1,2,3,4)              5.2062         calculate D2E/DX2 analytically  !
 ! D5    D(1,2,3,5)           -175.2265         calculate D2E/DX2 analytically  !
 ! D6    D(2,3,4,5)            179.496          calculate D2E/DX2 analytically  !
 --------------------------------------------------------------------------------
 Trust Radius=3.00D-01 FncErr=1.00D-07 GrdErr=1.00D-06
 Number of steps in this run=     29 maximum allowed number of steps=    100.
 GradGradGradGradGradGradGradGradGradGradGradGradGradGradGradGradGradGrad

 Leave Link  103 at Mon Aug 23 16:17:33 2021, MaxMem= 24159191040 cpu:         0.7
 (Enter /public/home/users/caep010/software/Gaussian09/g09/l202.exe)
                          Input orientation:                          
 ---------------------------------------------------------------------
 Center     Atomic      Atomic             Coordinates (Angstroms)
 Number     Number       Type             X           Y           Z
 ---------------------------------------------------------------------
      1          6           0       -1.755300    0.016200   -0.030500
      2          7           0       -0.745700   -0.755700    0.040100
      3          7           0        0.546100    0.023200    0.004500
      4          8           0        0.521100    1.243800    0.013400
      5          8           0        1.521200   -0.695200   -0.022600
      6          1           0       -1.677400    1.105600   -0.099700
      7          1           0       -2.732100   -0.462800   -0.015700
 ---------------------------------------------------------------------
                    Distance matrix (angstroms):
                    1          2          3          4          5
     1  C    0.000000
     2  N    1.272834   0.000000
     3  N    2.301677   1.508874   0.000000
     4  O    2.586682   2.367170   1.220888   0.000000
     5  O    3.352850   2.268574   1.211467   2.182021   0.000000
     6  H    1.094372   2.086156   2.475156   2.205741   3.671494
     7  H    1.088025   2.008654   3.314091   3.673777   4.259650
                    6          7
     6  H    0.000000
     7  H    1.891911   0.000000
 Stoichiometry    CH2N2O2
 Framework group  C1[X(CH2N2O2)]
 Deg. of freedom    15
 Full point group                 C1      NOp   1
 Largest Abelian subgroup         C1      NOp   1
 Largest concise Abelian subgroup C1      NOp   1
                         Standard orientation:                         
 ---------------------------------------------------------------------
 Center     Atomic      Atomic             Coordinates (Angstroms)
 Number     Number       Type             X           Y           Z
 ---------------------------------------------------------------------
      1          6           0        1.755357    0.016096    0.025079
      2          7           0        0.745546   -0.755906   -0.041255
      3          7           0       -0.546113    0.023195   -0.004953
      4          8           0       -0.521036    1.243765   -0.017193
      5          8           0       -1.521208   -0.695047    0.026195
      6          1           0        1.677693    1.105685    0.091514
      7          1           0        2.732085   -0.463025    0.009451
 ---------------------------------------------------------------------
 Rotational constants (GHZ):     12.0403968      5.0308946      3.5510496
 Leave Link  202 at Mon Aug 23 16:17:33 2021, MaxMem= 24159191040 cpu:         0.4
 (Enter /public/home/users/caep010/software/Gaussian09/g09/l301.exe)
 Standard basis: 6-31G(d,p) (6D, 7F)
 Ernie: Thresh=  0.10000D-02 Tol=  0.10000D-05 Strict=F.
 There are    85 symmetry adapted cartesian basis functions of A   symmetry.
 There are    85 symmetry adapted basis functions of A   symmetry.
    85 basis functions,   154 primitive gaussians,    85 cartesian basis functions
    19 alpha electrons       19 beta electrons
       nuclear repulsion energy       169.0858226252 Hartrees.
 IExCor=  402 DFT=T Ex+Corr=B3LYP ExCW=0 ScaHFX=  0.200000
 ScaDFX=  0.800000  0.720000  1.000000  0.810000 ScalE2=  1.000000  1.000000
 IRadAn=      0 IRanWt=     -1 IRanGd=            0 ICorTp=0 IEmpDi=  4
 NAtoms=    7 NActive=    7 NUniq=    7 SFac= 1.00D+00 NAtFMM=   60 NAOKFM=F Big=F
 Integral buffers will be    131072 words long.
 Raffenetti 2 integral format.
 Two-electron integral symmetry is turned on.
 Leave Link  301 at Mon Aug 23 16:17:33 2021, MaxMem= 24159191040 cpu:         2.5
 (Enter /public/home/users/caep010/software/Gaussian09/g09/l302.exe)
 NPDir=0 NMtPBC=     1 NCelOv=     1 NCel=       1 NClECP=     1 NCelD=      1
         NCelK=      1 NCelE2=     1 NClLst=     1 CellRange=     0.0.
 One-electron integrals computed using PRISM.
 NBasis=    85 RedAO= T EigKep=  3.02D-03  NBF=    85
 NBsUse=    85 1.00D-06 EigRej= -1.00D+00 NBFU=    85
 Precomputing XC quadrature grid using
 IXCGrd= 4 IRadAn=           0 IRanWt=          -1 IRanGd=           0 AccXCQ= 0.00D+00.
 Generated NRdTot=       0 NPtTot=           0 NUsed=           0 NTot=          32
 NSgBfM=    85    85    85    85    85 MxSgAt=     7 MxSgA2=     7.
 Leave Link  302 at Mon Aug 23 16:17:34 2021, MaxMem= 24159191040 cpu:        11.3
 (Enter /public/home/users/caep010/software/Gaussian09/g09/l303.exe)
 DipDrv:  MaxL=1.
 Leave Link  303 at Mon Aug 23 16:17:34 2021, MaxMem= 24159191040 cpu:         1.4
 (Enter /public/home/users/caep010/software/Gaussian09/g09/l401.exe)
 ExpMin= 1.61D-01 ExpMax= 5.48D+03 ExpMxC= 8.25D+02 IAcc=1 IRadAn=         1 AccDes= 0.00D+00
 Harris functional with IExCor=  402 and IRadAn=       1 diagonalized for initial guess.
 HarFok:  IExCor=  402 AccDes= 0.00D+00 IRadAn=         1 IDoV= 1 UseB2=F ITyADJ=14
 ICtDFT=  3500011 ScaDFX=  1.000000  1.000000  1.000000  1.000000
 FoFCou: FMM=F IPFlag=           0 FMFlag=      100000 FMFlg1=           0
         NFxFlg=           0 DoJE=T BraDBF=F KetDBF=T FulRan=T
         wScrn=  0.000000 ICntrl=     500 IOpCl=  0 I1Cent=   200000004 NGrid=           0
         NMat0=    1 NMatS0=      1 NMatT0=    0 NMatD0=    1 NMtDS0=    0 NMtDT0=    0
 Petite list used in FoFCou.
 Harris En= -299.139013657785    
 JPrj=0 DoOrth=F DoCkMO=F.
 Leave Link  401 at Mon Aug 23 16:17:34 2021, MaxMem= 24159191040 cpu:         9.9
 (Enter /public/home/users/caep010/software/Gaussian09/g09/l502.exe)
 Closed shell SCF:
 Using DIIS extrapolation, IDIIS=  1040.
 Integral symmetry usage will be decided dynamically.
 Keep R1 ints in memory in canonical form, NReq=7631230.
 IVT=       43580 IEndB=       43580 NGot= 24159191040 MDV= 24152466121
 LenX= 24152466121 LenY= 24152458455
 Requested convergence on RMS density matrix=1.00D-08 within 128 cycles.
 Requested convergence on MAX density matrix=1.00D-06.
 Requested convergence on             energy=1.00D-06.
 No special actions if energy rises.
 FoFCou: FMM=F IPFlag=           0 FMFlag=           0 FMFlg1=           0
         NFxFlg=           0 DoJE=F BraDBF=F KetDBF=F FulRan=T
         wScrn=  0.000000 ICntrl=     600 IOpCl=  0 I1Cent=           0 NGrid=           0
         NMat0=    1 NMatS0=   3655 NMatT0=    0 NMatD0=    1 NMtDS0=    0 NMtDT0=    0
 Symmetry not used in FoFCou.
 Integral accuracy reduced to 1.0D-05 until final iterations.

 Cycle   1  Pass 0  IDiag  1:
 E= -298.916106566099    
 DIIS: error= 4.62D-02 at cycle   1 NSaved=   1.
 NSaved= 1 IEnMin= 1 EnMin= -298.916106566099     IErMin= 1 ErrMin= 4.62D-02
 ErrMax= 4.62D-02  0.00D+00 EMaxC= 1.00D-01 BMatC= 2.65D-01 BMatP= 2.65D-01
 IDIUse=3 WtCom= 5.38D-01 WtEn= 4.62D-01
 Coeff-Com:  0.100D+01
 Coeff-En:   0.100D+01
 Coeff:      0.100D+01
 Gap=     0.189 Goal=   None    Shift=    0.000
 GapD=    0.189 DampG=1.000 DampE=0.500 DampFc=0.5000 IDamp=-1.
 Damping current iteration by 5.00D-01
 RMSDP=1.06D-02 MaxDP=2.92D-01              OVMax= 3.81D-01

 Cycle   2  Pass 0  IDiag  1:
 E= -298.926967255415     Delta-E=       -0.010860689317 Rises=F Damp=T
 DIIS: error= 1.98D-02 at cycle   2 NSaved=   2.
 NSaved= 2 IEnMin= 2 EnMin= -298.926967255415     IErMin= 2 ErrMin= 1.98D-02
 ErrMax= 1.98D-02  0.00D+00 EMaxC= 1.00D-01 BMatC= 6.98D-02 BMatP= 2.65D-01
 IDIUse=3 WtCom= 8.02D-01 WtEn= 1.98D-01
 Coeff-Com:  0.324D+00 0.676D+00
 Coeff-En:   0.480D+00 0.520D+00
 Coeff:      0.355D+00 0.645D+00
 Gap=     0.194 Goal=   None    Shift=    0.000
 RMSDP=2.50D-03 MaxDP=6.14D-02 DE=-1.09D-02 OVMax= 2.40D-01

 Cycle   3  Pass 0  IDiag  1:
 E= -299.103885138389     Delta-E=       -0.176917882974 Rises=F Damp=F
 DIIS: error= 6.27D-03 at cycle   3 NSaved=   3.
 NSaved= 3 IEnMin= 3 EnMin= -299.103885138389     IErMin= 3 ErrMin= 6.27D-03
 ErrMax= 6.27D-03  0.00D+00 EMaxC= 1.00D-01 BMatC= 6.91D-03 BMatP= 6.98D-02
 IDIUse=3 WtCom= 9.37D-01 WtEn= 6.27D-02
 Coeff-Com:  0.149D+00 0.243D+00 0.608D+00
 Coeff-En:   0.000D+00 0.000D+00 0.100D+01
 Coeff:      0.140D+00 0.227D+00 0.633D+00
 Gap=     0.216 Goal=   None    Shift=    0.000
 RMSDP=1.33D-03 MaxDP=2.77D-02 DE=-1.77D-01 OVMax= 3.65D-02

 Cycle   4  Pass 0  IDiag  1:
 E= -299.106253058585     Delta-E=       -0.002367920195 Rises=F Damp=F
 DIIS: error= 4.90D-03 at cycle   4 NSaved=   4.
 NSaved= 4 IEnMin= 4 EnMin= -299.106253058585     IErMin= 4 ErrMin= 4.90D-03
 ErrMax= 4.90D-03  0.00D+00 EMaxC= 1.00D-01 BMatC= 4.42D-03 BMatP= 6.91D-03
 IDIUse=3 WtCom= 9.51D-01 WtEn= 4.90D-02
 Coeff-Com:  0.490D-01 0.440D-01 0.442D+00 0.465D+00
 Coeff-En:   0.000D+00 0.000D+00 0.392D+00 0.608D+00
 Coeff:      0.466D-01 0.418D-01 0.440D+00 0.472D+00
 Gap=     0.209 Goal=   None    Shift=    0.000
 RMSDP=7.30D-04 MaxDP=1.64D-02 DE=-2.37D-03 OVMax= 3.36D-02

 Cycle   5  Pass 0  IDiag  1:
 E= -299.109357805374     Delta-E=       -0.003104746789 Rises=F Damp=F
 DIIS: error= 2.95D-03 at cycle   5 NSaved=   5.
 NSaved= 5 IEnMin= 5 EnMin= -299.109357805374     IErMin= 5 ErrMin= 2.95D-03
 ErrMax= 2.95D-03  0.00D+00 EMaxC= 1.00D-01 BMatC= 7.18D-04 BMatP= 4.42D-03
 IDIUse=3 WtCom= 9.71D-01 WtEn= 2.95D-02
 Coeff-Com:  0.163D-01 0.565D-03 0.227D+00 0.333D+00 0.424D+00
 Coeff-En:   0.000D+00 0.000D+00 0.000D+00 0.133D+00 0.867D+00
 Coeff:      0.158D-01 0.548D-03 0.220D+00 0.327D+00 0.437D+00
 Gap=     0.205 Goal=   None    Shift=    0.000
 RMSDP=3.20D-04 MaxDP=7.57D-03 DE=-3.10D-03 OVMax= 1.64D-02

 Cycle   6  Pass 0  IDiag  1:
 E= -299.109808625903     Delta-E=       -0.000450820530 Rises=F Damp=F
 DIIS: error= 1.20D-03 at cycle   6 NSaved=   6.
 NSaved= 6 IEnMin= 6 EnMin= -299.109808625903     IErMin= 6 ErrMin= 1.20D-03
 ErrMax= 1.20D-03  0.00D+00 EMaxC= 1.00D-01 BMatC= 1.68D-04 BMatP= 7.18D-04
 IDIUse=3 WtCom= 9.88D-01 WtEn= 1.20D-02
 Coeff-Com:  0.532D-02-0.601D-02 0.107D+00 0.184D+00 0.338D+00 0.372D+00
 Coeff-En:   0.000D+00 0.000D+00 0.000D+00 0.000D+00 0.217D+00 0.783D+00
 Coeff:      0.526D-02-0.593D-02 0.105D+00 0.182D+00 0.336D+00 0.377D+00
 Gap=     0.205 Goal=   None    Shift=    0.000
 RMSDP=1.18D-04 MaxDP=2.54D-03 DE=-4.51D-04 OVMax= 4.97D-03

 Cycle   7  Pass 0  IDiag  1:
 E= -299.109941957305     Delta-E=       -0.000133331402 Rises=F Damp=F
 DIIS: error= 1.67D-04 at cycle   7 NSaved=   7.
 NSaved= 7 IEnMin= 7 EnMin= -299.109941957305     IErMin= 7 ErrMin= 1.67D-04
 ErrMax= 1.67D-04  0.00D+00 EMaxC= 1.00D-01 BMatC= 3.23D-06 BMatP= 1.68D-04
 IDIUse=3 WtCom= 9.98D-01 WtEn= 1.67D-03
 Coeff-Com:  0.152D-02-0.326D-02 0.383D-01 0.702D-01 0.141D+00 0.195D+00
 Coeff-Com:  0.557D+00
 Coeff-En:   0.000D+00 0.000D+00 0.000D+00 0.000D+00 0.000D+00 0.000D+00
 Coeff-En:   0.100D+01
 Coeff:      0.152D-02-0.325D-02 0.382D-01 0.701D-01 0.141D+00 0.195D+00
 Coeff:      0.557D+00
 Gap=     0.205 Goal=   None    Shift=    0.000
 RMSDP=2.20D-05 MaxDP=5.03D-04 DE=-1.33D-04 OVMax= 1.06D-03

 Cycle   8  Pass 0  IDiag  1:
 E= -299.109944665865     Delta-E=       -0.000002708560 Rises=F Damp=F
 DIIS: error= 5.61D-05 at cycle   8 NSaved=   8.
 NSaved= 8 IEnMin= 8 EnMin= -299.109944665865     IErMin= 8 ErrMin= 5.61D-05
 ErrMax= 5.61D-05  0.00D+00 EMaxC= 1.00D-01 BMatC= 3.30D-07 BMatP= 3.23D-06
 IDIUse=1 WtCom= 1.00D+00 WtEn= 0.00D+00
 Coeff-Com:  0.159D-03-0.124D-02 0.822D-02 0.170D-01 0.379D-01 0.604D-01
 Coeff-Com:  0.296D+00 0.581D+00
 Coeff:      0.159D-03-0.124D-02 0.822D-02 0.170D-01 0.379D-01 0.604D-01
 Coeff:      0.296D+00 0.581D+00
 Gap=     0.205 Goal=   None    Shift=    0.000
 RMSDP=7.47D-06 MaxDP=1.14D-04 DE=-2.71D-06 OVMax= 2.57D-04

 Initial convergence to 1.0D-05 achieved.  Increase integral accuracy.
 Cycle   9  Pass 1  IDiag  1:
 E= -299.109963800031     Delta-E=       -0.000019134166 Rises=F Damp=F
 DIIS: error= 1.28D-05 at cycle   1 NSaved=   1.
 NSaved= 1 IEnMin= 1 EnMin= -299.109963800031     IErMin= 1 ErrMin= 1.28D-05
 ErrMax= 1.28D-05  0.00D+00 EMaxC= 1.00D-01 BMatC= 1.79D-08 BMatP= 1.79D-08
 IDIUse=1 WtCom= 1.00D+00 WtEn= 0.00D+00
 Coeff-Com:  0.100D+01
 Coeff:      0.100D+01
 Gap=     0.205 Goal=   None    Shift=    0.000
 RMSDP=7.47D-06 MaxDP=1.14D-04 DE=-1.91D-05 OVMax= 5.61D-05

 Cycle  10  Pass 1  IDiag  1:
 E= -299.109963807828     Delta-E=       -0.000000007797 Rises=F Damp=F
 DIIS: error= 8.50D-06 at cycle   2 NSaved=   2.
 NSaved= 2 IEnMin= 2 EnMin= -299.109963807828     IErMin= 2 ErrMin= 8.50D-06
 ErrMax= 8.50D-06  0.00D+00 EMaxC= 1.00D-01 BMatC= 9.11D-09 BMatP= 1.79D-08
 IDIUse=1 WtCom= 1.00D+00 WtEn= 0.00D+00
 Coeff-Com:  0.388D+00 0.612D+00
 Coeff:      0.388D+00 0.612D+00
 Gap=     0.205 Goal=   None    Shift=    0.000
 RMSDP=1.56D-06 MaxDP=2.64D-05 DE=-7.80D-09 OVMax= 5.61D-05

 Cycle  11  Pass 1  IDiag  1:
 E= -299.109963812074     Delta-E=       -0.000000004246 Rises=F Damp=F
 DIIS: error= 5.90D-06 at cycle   3 NSaved=   3.
 NSaved= 3 IEnMin= 3 EnMin= -299.109963812074     IErMin= 3 ErrMin= 5.90D-06
 ErrMax= 5.90D-06  0.00D+00 EMaxC= 1.00D-01 BMatC= 4.72D-09 BMatP= 9.11D-09
 IDIUse=1 WtCom= 1.00D+00 WtEn= 0.00D+00
 Coeff-Com:  0.543D-01 0.411D+00 0.534D+00
 Coeff:      0.543D-01 0.411D+00 0.534D+00
 Gap=     0.205 Goal=   None    Shift=    0.000
 RMSDP=6.67D-07 MaxDP=1.40D-05 DE=-4.25D-09 OVMax= 2.76D-05

 Cycle  12  Pass 1  IDiag  1:
 E= -299.109963815620     Delta-E=       -0.000000003546 Rises=F Damp=F
 DIIS: error= 2.01D-06 at cycle   4 NSaved=   4.
 NSaved= 4 IEnMin= 4 EnMin= -299.109963815620     IErMin= 4 ErrMin= 2.01D-06
 ErrMax= 2.01D-06  0.00D+00 EMaxC= 1.00D-01 BMatC= 6.03D-10 BMatP= 4.72D-09
 IDIUse=1 WtCom= 1.00D+00 WtEn= 0.00D+00
 Coeff-Com: -0.683D-02 0.201D+00 0.341D+00 0.464D+00
 Coeff:     -0.683D-02 0.201D+00 0.341D+00 0.464D+00
 Gap=     0.205 Goal=   None    Shift=    0.000
 RMSDP=2.56D-07 MaxDP=5.66D-06 DE=-3.55D-09 OVMax= 6.26D-06

 Cycle  13  Pass 1  IDiag  1:
 E= -299.109963816064     Delta-E=       -0.000000000444 Rises=F Damp=F
 DIIS: error= 4.26D-07 at cycle   5 NSaved=   5.
 NSaved= 5 IEnMin= 5 EnMin= -299.109963816064     IErMin= 5 ErrMin= 4.26D-07
 ErrMax= 4.26D-07  0.00D+00 EMaxC= 1.00D-01 BMatC= 2.62D-11 BMatP= 6.03D-10
 IDIUse=1 WtCom= 1.00D+00 WtEn= 0.00D+00
 Coeff-Com: -0.710D-02 0.900D-01 0.162D+00 0.263D+00 0.492D+00
 Coeff:     -0.710D-02 0.900D-01 0.162D+00 0.263D+00 0.492D+00
 Gap=     0.205 Goal=   None    Shift=    0.000
 RMSDP=6.77D-08 MaxDP=1.36D-06 DE=-4.44D-10 OVMax= 2.88D-06

 Cycle  14  Pass 1  IDiag  1:
 E= -299.109963816081     Delta-E=       -0.000000000017 Rises=F Damp=F
 DIIS: error= 3.34D-07 at cycle   6 NSaved=   6.
 NSaved= 6 IEnMin= 6 EnMin= -299.109963816081     IErMin= 6 ErrMin= 3.34D-07
 ErrMax= 3.34D-07  0.00D+00 EMaxC= 1.00D-01 BMatC= 8.09D-12 BMatP= 2.62D-11
 IDIUse=1 WtCom= 1.00D+00 WtEn= 0.00D+00
 Coeff-Com: -0.431D-02 0.472D-01 0.874D-01 0.151D+00 0.372D+00 0.346D+00
 Coeff:     -0.431D-02 0.472D-01 0.874D-01 0.151D+00 0.372D+00 0.346D+00
 Gap=     0.205 Goal=   None    Shift=    0.000
 RMSDP=2.95D-08 MaxDP=7.68D-07 DE=-1.68D-11 OVMax= 1.56D-06

 Cycle  15  Pass 1  IDiag  1:
 E= -299.109963816084     Delta-E=       -0.000000000004 Rises=F Damp=F
 DIIS: error= 6.00D-08 at cycle   7 NSaved=   7.
 NSaved= 7 IEnMin= 7 EnMin= -299.109963816084     IErMin= 7 ErrMin= 6.00D-08
 ErrMax= 6.00D-08  0.00D+00 EMaxC= 1.00D-01 BMatC= 4.96D-13 BMatP= 8.09D-12
 IDIUse=1 WtCom= 1.00D+00 WtEn= 0.00D+00
 Coeff-Com: -0.906D-03 0.565D-02 0.117D-01 0.241D-01 0.105D+00 0.220D+00
 Coeff-Com:  0.634D+00
 Coeff:     -0.906D-03 0.565D-02 0.117D-01 0.241D-01 0.105D+00 0.220D+00
 Coeff:      0.634D+00
 Gap=     0.205 Goal=   None    Shift=    0.000
 RMSDP=7.18D-09 MaxDP=1.34D-07 DE=-3.75D-12 OVMax= 2.04D-07

 SCF Done:  E(RB3LYP) =  -299.109963816     A.U. after   15 cycles
            NFock= 15  Conv=0.72D-08     -V/T= 2.0088
 KE= 2.965105792065D+02 PE=-1.038942608175D+03 EE= 2.742362425273D+02
 Leave Link  502 at Mon Aug 23 16:17:35 2021, MaxMem= 24159191040 cpu:        21.7
 (Enter /public/home/users/caep010/software/Gaussian09/g09/l801.exe)
 DoSCS=F DFT=T ScalE2(SS,OS)=  1.000000  1.000000
 Range of M.O.s used for correlation:     1    85
 NBasis=    85 NAE=    19 NBE=    19 NFC=     0 NFV=     0
 NROrb=     85 NOA=    19 NOB=    19 NVA=    66 NVB=    66
 Leave Link  801 at Mon Aug 23 16:17:36 2021, MaxMem= 24159191040 cpu:         1.0
 (Enter /public/home/users/caep010/software/Gaussian09/g09/l1101.exe)
 Using compressed storage, NAtomX=     7.
 Will process      8 centers per pass.
 Leave Link 1101 at Mon Aug 23 16:17:36 2021, MaxMem= 24159191040 cpu:        11.4
 (Enter /public/home/users/caep010/software/Gaussian09/g09/l1102.exe)
 Symmetrizing basis deriv contribution to polar:
 IMax=3 JMax=2 DiffMx= 0.00D+00
 Leave Link 1102 at Mon Aug 23 16:17:37 2021, MaxMem= 24159191040 cpu:         1.4
 (Enter /public/home/users/caep010/software/Gaussian09/g09/l1110.exe)
 Forming Gx(P) for the SCF density, NAtomX=     7.
 Integral derivatives from FoFJK, PRISM(SPDF).
 Do as many integral derivatives as possible in FoFJK.
 G2DrvN: MDV=   24159190880.
 G2DrvN: will do     8 centers at a time, making    1 passes.
 Calling FoFCou, ICntrl=  3107 FMM=F I1Cent=   0 AccDes= 0.00D+00.
 FoFJK:  IHMeth= 1 ICntrl=    3107 DoSepK=F KAlg= 0 I1Cent=   0 FoldK=F
 IRaf=         0 NMat=   1 IRICut=       1 DoRegI=T DoRafI=F ISym2E= 0.
 FoFCou: FMM=F IPFlag=           0 FMFlag=      100000 FMFlg1=           0
         NFxFlg=           0 DoJE=F BraDBF=F KetDBF=F FulRan=T
         wScrn=  0.000000 ICntrl=    3107 IOpCl=  0 I1Cent=           0 NGrid=           0
         NMat0=    1 NMatS0=      1 NMatT0=    0 NMatD0=    1 NMtDS0=    0 NMtDT0=    0
 Symmetry not used in FoFCou.
 End of G2Drv F.D. properties file   721 does not exist.
 End of G2Drv F.D. properties file   722 does not exist.
 End of G2Drv F.D. properties file   788 does not exist.
 Leave Link 1110 at Mon Aug 23 16:17:38 2021, MaxMem= 24159191040 cpu:        18.7
 (Enter /public/home/users/caep010/software/Gaussian09/g09/l1002.exe)
 Minotr:  Closed shell wavefunction.
          IDoAtm=1111111
          Direct CPHF calculation.
          Differentiating once with respect to electric field.
                with respect to dipole field.
          Differentiating once with respect to nuclear coordinates.
          Requested convergence is 1.0D-08 RMS, and 1.0D-07 maximum.
          Secondary convergence is 1.0D-12 RMS, and 1.0D-12 maximum.
          NewPWx=T KeepS1=F KeepF1=F KeepIn=T MapXYZ=F SortEE=F KeepMc=T.
          MDV=   24159190881 using IRadAn=       2.
 Generate precomputed XC quadrature information.
 Keep R1 ints in memory in canonical form, NReq=7588452.
 FoFCou: FMM=F IPFlag=           0 FMFlag=           0 FMFlg1=           0
         NFxFlg=           0 DoJE=F BraDBF=F KetDBF=F FulRan=T
         wScrn=  0.000000 ICntrl=     600 IOpCl=  0 I1Cent=           0 NGrid=           0
         NMat0=    1 NMatS0=   3655 NMatT0=    0 NMatD0=    1 NMtDS0=    0 NMtDT0=    0
 Symmetry not used in FoFCou.
          Solving linear equations simultaneously, MaxMat=       0.
          There are    24 degrees of freedom in the 1st order CPHF.  IDoFFX=6 NUNeed=     3.
     21 vectors produced by pass  0 Test12= 5.22D-15 4.17D-09 XBig12= 4.93D+01 4.35D+00.
 AX will form    21 AO Fock derivatives at one time.
     21 vectors produced by pass  1 Test12= 5.22D-15 4.17D-09 XBig12= 1.28D+01 8.88D-01.
     21 vectors produced by pass  2 Test12= 5.22D-15 4.17D-09 XBig12= 1.41D-01 9.03D-02.
     21 vectors produced by pass  3 Test12= 5.22D-15 4.17D-09 XBig12= 8.71D-04 6.27D-03.
     21 vectors produced by pass  4 Test12= 5.22D-15 4.17D-09 XBig12= 2.12D-06 2.97D-04.
     19 vectors produced by pass  5 Test12= 5.22D-15 4.17D-09 XBig12= 2.15D-09 7.30D-06.
      5 vectors produced by pass  6 Test12= 5.22D-15 4.17D-09 XBig12= 1.47D-12 2.01D-07.
      2 vectors produced by pass  7 Test12= 5.22D-15 4.17D-09 XBig12= 9.83D-16 4.90D-09.
 InvSVY:  IOpt=1 It=  1 EMax= 7.11D-15
 Solved reduced A of dimension   131 with    24 vectors.
 FullF1:  Do perturbations    1 to     3.
 Isotropic polarizability for W=    0.000000       31.31 Bohr**3.
 End of Minotr F.D. properties file   721 does not exist.
 End of Minotr F.D. properties file   722 does not exist.
 End of Minotr F.D. properties file   788 does not exist.
 Leave Link 1002 at Mon Aug 23 16:17:39 2021, MaxMem= 24159191040 cpu:        34.2
 (Enter /public/home/users/caep010/software/Gaussian09/g09/l601.exe)
 Copying SCF densities to generalized density rwf, IOpCl= 0 IROHF=0.

 **********************************************************************

            Population analysis using the SCF density.

 **********************************************************************

 Orbital symmetries:
       Occupied  (A) (A) (A) (A) (A) (A) (A) (A) (A) (A) (A) (A)
                 (A) (A) (A) (A) (A) (A) (A)
       Virtual   (A) (A) (A) (A) (A) (A) (A) (A) (A) (A) (A) (A)
                 (A) (A) (A) (A) (A) (A) (A) (A) (A) (A) (A) (A)
                 (A) (A) (A) (A) (A) (A) (A) (A) (A) (A) (A) (A)
                 (A) (A) (A) (A) (A) (A) (A) (A) (A) (A) (A) (A)
                 (A) (A) (A) (A) (A) (A) (A) (A) (A) (A) (A) (A)
                 (A) (A) (A) (A) (A) (A)
 The electronic state is 1-A.
 Alpha  occ. eigenvalues --  -19.20840 -19.20791 -14.60610 -14.41215 -10.28140
 Alpha  occ. eigenvalues --   -1.25717  -1.08609  -0.97118  -0.73248  -0.60484
 Alpha  occ. eigenvalues --   -0.57738  -0.55699  -0.53430  -0.48843  -0.37738
 Alpha  occ. eigenvalues --   -0.37181  -0.33328  -0.31659  -0.30813
 Alpha virt. eigenvalues --   -0.10351  -0.02360   0.04993   0.10253   0.17349
 Alpha virt. eigenvalues --    0.24574   0.26564   0.36141   0.49254   0.55047
 Alpha virt. eigenvalues --    0.59153   0.60856   0.63248   0.65054   0.69574
 Alpha virt. eigenvalues --    0.73017   0.76883   0.78982   0.81363   0.84502
 Alpha virt. eigenvalues --    0.90549   0.92369   0.96603   0.97846   0.99684
 Alpha virt. eigenvalues --    1.05035   1.20497   1.27933   1.28182   1.33914
 Alpha virt. eigenvalues --    1.38890   1.39926   1.45366   1.52926   1.66361
 Alpha virt. eigenvalues --    1.75733   1.76635   1.78365   1.82139   1.88568
 Alpha virt. eigenvalues --    1.93524   1.97415   2.02225   2.05533   2.10650
 Alpha virt. eigenvalues --    2.16591   2.18309   2.39078   2.40852   2.47506
 Alpha virt. eigenvalues --    2.56468   2.57614   2.66496   2.69484   2.79939
 Alpha virt. eigenvalues --    2.82967   2.85718   2.92598   3.05268   3.32789
 Alpha virt. eigenvalues --    3.47389   3.56988   3.67700   3.82207   3.96793
 Alpha virt. eigenvalues --    4.25575
          Condensed to atoms (all electrons):
               1          2          3          4          5          6
     1  C    4.825962   0.463551  -0.045727  -0.001049   0.007574   0.354107
     2  N    0.463551   6.839438   0.173130  -0.094200  -0.095022  -0.028454
     3  N   -0.045727   0.173130   5.701479   0.292423   0.325492  -0.023317
     4  O   -0.001049  -0.094200   0.292423   8.231994  -0.091661   0.030074
     5  O    0.007574  -0.095022   0.325492  -0.091661   8.182192   0.000379
     6  H    0.354107  -0.028454  -0.023317   0.030074   0.000379   0.536181
     7  H    0.375364  -0.038958   0.004736   0.000110  -0.000178  -0.037584
               7
     1  C    0.375364
     2  N   -0.038958
     3  N    0.004736
     4  O    0.000110
     5  O   -0.000178
     6  H   -0.037584
     7  H    0.541169
 Mulliken charges:
               1
     1  C    0.020217
     2  N   -0.219487
     3  N    0.571784
     4  O   -0.367692
     5  O   -0.328776
     6  H    0.168614
     7  H    0.155340
 Sum of Mulliken charges =  -0.00000
 Mulliken charges with hydrogens summed into heavy atoms:
               1
     1  C    0.344171
     2  N   -0.219487
     3  N    0.571784
     4  O   -0.367692
     5  O   -0.328776
 APT charges:
               1
     1  C    0.207453
     2  N   -0.347945
     3  N    1.166296
     4  O   -0.612777
     5  O   -0.566228
     6  H    0.100664
     7  H    0.052536
 Sum of APT charges =   0.00000
 APT charges with hydrogens summed into heavy atoms:
               1
     1  C    0.360653
     2  N   -0.347945
     3  N    1.166296
     4  O   -0.612777
     5  O   -0.566228
 Electronic spatial extent (au):  <R**2>=            336.2587
 Charge=             -0.0000 electrons
 Dipole moment (field-independent basis, Debye):
    X=              3.5376    Y=              0.7424    Z=              0.1042  Tot=              3.6161
 Quadrupole moment (field-independent basis, Debye-Ang):
   XX=            -23.8125   YY=            -31.2875   ZZ=            -26.6407
   XY=              0.6462   XZ=              0.2263   YZ=              0.0168
 Traceless Quadrupole moment (field-independent basis, Debye-Ang):
   XX=              3.4344   YY=             -4.0406   ZZ=              0.6062
   XY=              0.6462   XZ=              0.2263   YZ=              0.0168
 Octapole moment (field-independent basis, Debye-Ang**2):
  XXX=             12.5073  YYY=              3.3280  ZZZ=              0.0318  XYY=              0.0084
  XXY=              1.3251  XXZ=              0.0681  XZZ=             -3.4727  YZZ=              0.7499
  YYZ=              0.2517  XYZ=             -0.0104
 Hexadecapole moment (field-independent basis, Debye-Ang**3):
 XXXX=           -231.8478 YYYY=           -117.4995 ZZZZ=            -21.1301 XXXY=             -5.2254
 XXXZ=              0.3303 YYYX=              5.3738 YYYZ=             -0.1261 ZZZX=             -0.0613
 ZZZY=             -0.1724 XXYY=            -61.9464 XXZZ=            -47.7510 YYZZ=            -22.3633
 XXYZ=              0.1250 YYXZ=              0.2117 ZZXY=              0.7851
 N-N= 1.690858226252D+02 E-N=-1.038942612364D+03  KE= 2.965105792065D+02
  Exact polarizability:  46.725   4.568  33.385   0.186   0.288  13.818
 Approx polarizability:  73.717  19.096  70.682   0.191   0.306  20.295
 No NMR shielding tensors so no spin-rotation constants.
 Leave Link  601 at Mon Aug 23 16:17:40 2021, MaxMem= 24159191040 cpu:        10.8
 (Enter /public/home/users/caep010/software/Gaussian09/g09/l701.exe)
 Compute integral second derivatives.
 ... and contract with generalized density number  0.
 Leave Link  701 at Mon Aug 23 16:17:40 2021, MaxMem= 24159191040 cpu:        13.4
 (Enter /public/home/users/caep010/software/Gaussian09/g09/l702.exe)
 L702 exits ... SP integral derivatives will be done elsewhere.
 Leave Link  702 at Mon Aug 23 16:17:41 2021, MaxMem= 24159191040 cpu:         0.7
 (Enter /public/home/users/caep010/software/Gaussian09/g09/l703.exe)
 Compute integral second derivatives, UseDBF=F ICtDFT=           0.
 Integral derivatives from FoFJK, PRISM(SPDF).
 Calling FoFJK, ICntrl=    100127 FMM=F ISym2X=0 I1Cent= 0 IOpClX= 0 NMat=1 NMatS=1 NMatT=0.
 FoFJK:  IHMeth= 1 ICntrl=  100127 DoSepK=F KAlg= 0 I1Cent=   0 FoldK=F
 IRaf=         0 NMat=   1 IRICut=       1 DoRegI=T DoRafI=F ISym2E= 0.
 FoFCou: FMM=F IPFlag=           0 FMFlag=      100000 FMFlg1=         800
         NFxFlg=           0 DoJE=F BraDBF=F KetDBF=F FulRan=T
         wScrn=  0.000000 ICntrl=  100127 IOpCl=  0 I1Cent=           0 NGrid=           0
         NMat0=    1 NMatS0=      1 NMatT0=    0 NMatD0=    1 NMtDS0=    0 NMtDT0=    0
 Symmetry not used in FoFCou.
 Leave Link  703 at Mon Aug 23 16:17:42 2021, MaxMem= 24159191040 cpu:        27.6
 (Enter /public/home/users/caep010/software/Gaussian09/g09/l716.exe)
 Dipole        = 1.39179205D+00 2.92089937D-01 4.10100461D-02
 Polarizability= 4.67253474D+01 4.56849266D+00 3.33852926D+01
                 1.85751967D-01 2.88007587D-01 1.38177282D+01
 ***** Axes restored to original set *****
 -------------------------------------------------------------------
 Center     Atomic                   Forces (Hartrees/Bohr)
 Number     Number              X              Y              Z
 -------------------------------------------------------------------
      1        6           0.001584082    0.000251550    0.000115081
      2        7          -0.001614899    0.002232851   -0.000338044
      3        7           0.000270043   -0.000382261    0.000278136
      4        8           0.000000668   -0.000052639   -0.000081035
      5        8          -0.000361867    0.000187975   -0.000058053
      6        1           0.000042117   -0.002375184    0.000080650
      7        1           0.000079855    0.000137707    0.000003264
 -------------------------------------------------------------------
 Cartesian Forces:  Max     0.002375184 RMS     0.000884904
 Force constants in Cartesian coordinates: 
                1             2             3             4             5 
      1  0.841778D+00
      2 -0.998059D-01  0.742546D+00
      3  0.199463D-01 -0.428676D-01  0.140668D+00
      4 -0.419129D+00  0.266542D+00 -0.254233D-01  0.541358D+00
      5  0.223889D+00 -0.328513D+00  0.240124D-01 -0.272476D+00  0.462707D+00
      6 -0.226415D-01  0.243967D-01 -0.474312D-01  0.246166D-01 -0.284963D-01
      7 -0.734755D-01  0.162082D-02 -0.894728D-03 -0.174354D-01  0.311537D-01
      8  0.143146D-01  0.343192D-01 -0.186765D-02  0.817240D-02 -0.109703D+00
      9 -0.318635D-02 -0.322504D-02 -0.936920D-03 -0.544055D-03  0.341613D-02
     10 -0.518550D-02 -0.944829D-02 -0.348336D-03 -0.756104D-02 -0.383803D-01
     11  0.967627D-02 -0.118158D-01  0.639166D-03 -0.339245D-01 -0.374878D-01
     12 -0.775560D-04  0.573184D-03  0.270227D-02  0.516159D-04 -0.554142D-03
     13 -0.851588D-02 -0.137447D-01  0.827840D-03 -0.718447D-01  0.304563D-01
     14 -0.411999D-02  0.699522D-03 -0.133726D-03 -0.303652D-03  0.208626D-01
     15  0.652238D-03  0.737415D-03  0.127514D-02  0.320127D-02 -0.854675D-03
     16 -0.617487D-01 -0.281608D-01  0.217900D-02  0.421493D-02  0.334835D-01
     17 -0.202729D-01 -0.315559D+00  0.170170D-01  0.908709D-02 -0.211738D-01
     18  0.119206D-02  0.166015D-01 -0.540585D-01 -0.252539D-03  0.511118D-02
     19 -0.273724D+00 -0.117003D+00  0.371322D-02 -0.296029D-01 -0.812623D-02
     20 -0.123681D+00 -0.121677D+00  0.320048D-02  0.229023D-01  0.133081D-01
     21  0.411490D-02  0.378388D-02 -0.422184D-01 -0.164967D-02 -0.263463D-02
                6             7             8             9            10 
      6  0.623036D-01
      7 -0.126888D-02  0.672545D+00
      8  0.852292D-03 -0.256802D+00  0.940985D+00
      9 -0.818088D-01 -0.759546D-02  0.794613D-02  0.232853D+00
     10 -0.109595D-03 -0.132612D+00 -0.155755D-02  0.403526D-03  0.140162D+00
     11  0.274537D-03  0.115493D-02 -0.565690D+00 -0.299159D-02 -0.231703D-01
     12  0.201350D-01  0.841298D-03 -0.205365D-02 -0.757597D-01 -0.131088D-02
     13  0.212583D-02 -0.453018D+00  0.226920D+00  0.110614D-01  0.857683D-02
     14  0.373872D-03  0.224693D+00 -0.287695D+00 -0.580973D-02  0.793295D-01
     15  0.224587D-01  0.910843D-02 -0.581221D-02 -0.792698D-01  0.118488D-02
     16 -0.286367D-02  0.943139D-03  0.429139D-02  0.684716D-03 -0.394970D-02
     17  0.348015D-02 -0.374427D-02 -0.538902D-02 -0.104201D-02 -0.498066D-02
     18  0.307320D-01 -0.153597D-03 -0.132079D-02 -0.159873D-01 -0.257053D-03
     19  0.141225D-03  0.305324D-02  0.466028D-02 -0.823768D-03  0.569401D-03
     20 -0.881321D-03  0.192329D-02 -0.682616D-02  0.170611D-02 -0.179248D-02
     21 -0.638934D-02 -0.370673D-04  0.225588D-02  0.209090D-01  0.437457D-03
               11            12            13            14            15 
     11  0.691123D+00
     12  0.484116D-02  0.269743D-01
     13  0.511877D-01  0.255670D-03  0.526084D+00
     14 -0.832023D-01 -0.242346D-02 -0.297508D+00  0.347824D+00
     15 -0.223186D-02  0.274301D-01 -0.139992D-01  0.840626D-02  0.288979D-01
     16 -0.380567D-02  0.534062D-04  0.202352D-02 -0.253361D-02 -0.324020D-03
     17  0.343625D-02  0.000000D+00  0.239782D-03  0.400258D-03  0.787895D-04
     18 -0.329157D-03  0.120800D-02  0.751305D-03 -0.286476D-03  0.250741D-02
     19 -0.111848D-02  0.186445D-03 -0.330523D-02  0.442474D-03  0.176426D-03
     20  0.363723D-02 -0.383138D-03  0.244829D-02  0.111105D-02 -0.323715D-03
     21 -0.202259D-03 -0.268992D-02 -0.102281D-02 -0.126740D-03 -0.329940D-02
               16            17            18            19            20 
     16  0.561222D-01
     17  0.182202D-01  0.342231D+00
     18 -0.102348D-02 -0.202849D-01  0.281287D-01
     19  0.239459D-02  0.145083D-02 -0.256686D-03  0.300615D+00
     20 -0.214950D-01 -0.394538D-02  0.508692D-03  0.119695D+00  0.114392D+00
     21  0.129405D-02  0.750966D-03  0.746967D-02 -0.313686D-02 -0.382711D-02
               21 
     21  0.262184D-01
 FormGI is forming the generalized inverse of G from B-inverse, IUseBI=4.
 Force constants in internal coordinates: 
                1             2             3             4             5 
      1  0.716434D+00
      2  0.132119D-01  0.344677D+00
      3  0.126982D-01  0.955767D-03  0.359210D+00
      4  0.426224D-01 -0.812849D-02 -0.258476D-02  0.167617D+00
      5 -0.660007D-02  0.326802D-02 -0.603507D-03  0.459322D-01  0.691886D+00
      6 -0.291321D-02  0.125958D-03  0.204068D-02  0.520728D-01  0.914036D-01
      7  0.976966D-02  0.725434D-02 -0.102181D-01  0.189769D-02  0.287168D-02
      8  0.169054D-01 -0.943767D-02  0.537234D-02 -0.100366D-02  0.246061D-02
      9 -0.266763D-01  0.218368D-02  0.484576D-02 -0.892748D-03 -0.533230D-02
     10  0.710730D-01 -0.214845D-01  0.405128D-02  0.121824D+00  0.164961D-02
     11 -0.921431D-02 -0.821648D-02  0.116934D-03  0.427367D-01  0.107518D-01
     12  0.111127D-01  0.454840D-02  0.397035D-03  0.135239D-01 -0.489052D-01
     13 -0.189759D-02  0.366932D-02 -0.513821D-03 -0.562616D-01  0.381571D-01
     14 -0.247696D-03  0.173936D-03  0.000000D+00  0.111584D-02  0.438969D-04
     15  0.214727D-03  0.558641D-04 -0.503872D-05  0.699232D-03  0.578378D-04
     16  0.391405D-03 -0.100501D-03 -0.465196D-05 -0.431904D-03 -0.144664D-05
     17 -0.927764D-04 -0.258699D-03 -0.232091D-04  0.254882D-02  0.793179D-05
     18  0.584145D-05 -0.740109D-04 -0.611641D-05  0.213352D-02  0.655882D-03
     19  0.168313D-03  0.206951D-03  0.248375D-04 -0.538823D-04  0.318109D-03
                6             7             8             9            10 
      6  0.747869D+00
      7 -0.604415D-02  0.907130D-01
      8  0.559191D-02 -0.563537D-01  0.927892D-01
      9  0.452062D-03 -0.343595D-01 -0.364356D-01  0.707957D-01
     10  0.141546D-01  0.198581D-02  0.759812D-03 -0.274601D-02  0.480882D+00
     11 -0.566603D-01  0.103261D-01 -0.102616D-01 -0.644365D-04  0.684124D-01
     12  0.249438D-01 -0.606236D-02  0.894525D-02 -0.288233D-02 -0.103717D-01
     13  0.317190D-01 -0.426578D-02  0.131888D-02  0.294633D-02 -0.580444D-01
     14 -0.107672D-02 -0.392347D-03 -0.634427D-04  0.483198D-03 -0.114906D-02
     15 -0.102347D-02 -0.230005D-03  0.343764D-04  0.157352D-03 -0.101729D-02
     16  0.459618D-04  0.197520D-03 -0.145781D-03 -0.119822D-03  0.129329D-03
     17 -0.897374D-03  0.529427D-04 -0.410610D-03  0.359978D-03  0.208615D-02
     18 -0.391876D-03 -0.245993D-03 -0.706255D-04  0.316424D-03  0.130848D-02
     19  0.465475D-03 -0.341538D-03  0.419820D-03 -0.811941D-04 -0.551262D-03
               11            12            13            14            15 
     11  0.243103D+00
     12 -0.111720D+00  0.216352D+00
     13 -0.131394D+00 -0.104626D+00  0.236026D+00
     14  0.173135D-02 -0.149373D-02 -0.203434D-03  0.328413D-01
     15  0.173565D-02 -0.167272D-02 -0.225212D-04  0.239086D-01  0.363818D-01
     16  0.230380D-04 -0.208016D-03  0.191420D-03 -0.925784D-02  0.129291D-01
     17  0.374593D-02 -0.136616D-02 -0.248944D-02 -0.250792D-04 -0.778698D-03
     18  0.163785D-02 -0.910501D-03 -0.579212D-03  0.445533D-02  0.451809D-02
     19 -0.197527D-02  0.202876D-02  0.246814D-03  0.521533D-02  0.616450D-02
               16            17            18            19 
     16  0.229973D-01
     17 -0.779625D-03  0.640147D-02
     18  0.658672D-04 -0.799165D-02  0.114281D-01
     19  0.982895D-03 -0.167553D-01  0.226235D-01  0.458799D-01
 Leave Link  716 at Mon Aug 23 16:17:42 2021, MaxMem= 24159191040 cpu:         1.7
 (Enter /public/home/users/caep010/software/Gaussian09/g09/l103.exe)

 GradGradGradGradGradGradGradGradGradGradGradGradGradGradGradGradGradGrad
 Berny optimization.
 Red2BG is reusing G-inverse.
 Internal  Forces:  Max     0.002564346 RMS     0.000829715
 Search for a local minimum.
 Step number   1 out of a maximum of   29
 All quantities printed in internal units (Hartrees-Bohrs-Radians)
 RMS Force = .82972D-03 SwitMx=.10000D-02 MixMth= 2
 Mixed Optimization -- En-DIIS/RFO-DIIS
 Second derivative matrix not updated -- analytic derivatives used.
 The second derivative matrix:
                          R1        R2        R3        R4        R5
           R1           0.71643
           R2           0.01321   0.34468
           R3           0.01270   0.00096   0.35921
           R4           0.04262  -0.00813  -0.00258   0.16762
           R5          -0.00660   0.00327  -0.00060   0.04593   0.69189
           R6          -0.00291   0.00013   0.00204   0.05207   0.09140
           A1           0.00977   0.00725  -0.01022   0.00190   0.00287
           A2           0.01691  -0.00944   0.00537  -0.00100   0.00246
           A3          -0.02668   0.00218   0.00485  -0.00089  -0.00533
           A4           0.07107  -0.02148   0.00405   0.12182   0.00165
           A5          -0.00921  -0.00822   0.00012   0.04274   0.01075
           A6           0.01111   0.00455   0.00040   0.01352  -0.04891
           A7          -0.00190   0.00367  -0.00051  -0.05626   0.03816
           D1          -0.00025   0.00017   0.00000   0.00112   0.00004
           D2           0.00021   0.00006  -0.00001   0.00070   0.00006
           D3           0.00039  -0.00010  -0.00000  -0.00043  -0.00000
           D4          -0.00009  -0.00026  -0.00002   0.00255   0.00001
           D5           0.00001  -0.00007  -0.00001   0.00213   0.00066
           D6           0.00017   0.00021   0.00002  -0.00005   0.00032
                          R6        A1        A2        A3        A4
           R6           0.74787
           A1          -0.00604   0.09071
           A2           0.00559  -0.05635   0.09279
           A3           0.00045  -0.03436  -0.03644   0.07080
           A4           0.01415   0.00199   0.00076  -0.00275   0.48088
           A5          -0.05666   0.01033  -0.01026  -0.00006   0.06841
           A6           0.02494  -0.00606   0.00895  -0.00288  -0.01037
           A7           0.03172  -0.00427   0.00132   0.00295  -0.05804
           D1          -0.00108  -0.00039  -0.00006   0.00048  -0.00115
           D2          -0.00102  -0.00023   0.00003   0.00016  -0.00102
           D3           0.00005   0.00020  -0.00015  -0.00012   0.00013
           D4          -0.00090   0.00005  -0.00041   0.00036   0.00209
           D5          -0.00039  -0.00025  -0.00007   0.00032   0.00131
           D6           0.00047  -0.00034   0.00042  -0.00008  -0.00055
                          A5        A6        A7        D1        D2
           A5           0.24310
           A6          -0.11172   0.21635
           A7          -0.13139  -0.10463   0.23603
           D1           0.00173  -0.00149  -0.00020   0.03284
           D2           0.00174  -0.00167  -0.00002   0.02391   0.03638
           D3           0.00002  -0.00021   0.00019  -0.00926   0.01293
           D4           0.00375  -0.00137  -0.00249  -0.00003  -0.00078
           D5           0.00164  -0.00091  -0.00058   0.00446   0.00452
           D6          -0.00198   0.00203   0.00025   0.00522   0.00616
                          D3        D4        D5        D6
           D3           0.02300
           D4          -0.00078   0.00640
           D5           0.00007  -0.00799   0.01143
           D6           0.00098  -0.01676   0.02262   0.04588
 ITU=  0
     Eigenvalues ---    0.00022   0.03333   0.05104   0.07106   0.10292
     Eigenvalues ---    0.10999   0.14510   0.30473   0.31605   0.34365
     Eigenvalues ---    0.35958   0.55380   0.64094   0.75176   0.83010
 RFO step:  Lambda=-2.87559101D-05 EMin= 2.17574418D-04
 Linear search not attempted -- first point.
 Iteration  1 RMS(Cart)=  0.01280633 RMS(Int)=  0.00009616
 Iteration  2 RMS(Cart)=  0.00013305 RMS(Int)=  0.00000078
 Iteration  3 RMS(Cart)=  0.00000001 RMS(Int)=  0.00000078
 ITry= 1 IFail=0 DXMaxC= 3.03D-02 DCOld= 1.00D+10 DXMaxT= 3.00D-01 DXLimC= 3.00D+00 Rises=F
 Variable       Old X    -DE/DX   Delta X   Delta X   Delta X     New X
                                 (Linear)    (Quad)   (Total)
    R1        2.40531  -0.00256   0.00000  -0.00360  -0.00360   2.40171
    R2        2.06806  -0.00236   0.00000  -0.00656  -0.00656   2.06151
    R3        2.05607  -0.00013   0.00000  -0.00034  -0.00034   2.05572
    R4        2.85136  -0.00021   0.00000  -0.00128  -0.00128   2.85008
    R5        2.30714  -0.00006   0.00000   0.00008   0.00008   2.30722
    R6        2.28934  -0.00040   0.00000  -0.00057  -0.00057   2.28877
    A1        2.15404  -0.00035   0.00000  -0.00197  -0.00197   2.15207
    A2        2.03126   0.00027   0.00000   0.00170   0.00170   2.03297
    A3        2.09788   0.00008   0.00000   0.00027   0.00027   2.09815
    A4        1.94412   0.00066   0.00000   0.00218   0.00218   1.94631
    A5        2.09253   0.00006   0.00000   0.00012   0.00012   2.09265
    A6        1.96439  -0.00011   0.00000  -0.00020  -0.00021   1.96418
    A7        2.22623   0.00005   0.00000   0.00011   0.00011   2.22634
    D1       -0.00793   0.00008   0.00000   0.00376   0.00376  -0.00417
    D2        3.13721   0.00006   0.00000   0.00191   0.00191   3.13912
    D3       -3.13792  -0.00003   0.00000  -0.00192  -0.00192  -3.13984
    D4        0.09087  -0.00004   0.00000  -0.03037  -0.03037   0.06049
    D5       -3.05828   0.00005   0.00000  -0.02707  -0.02707  -3.08535
    D6        3.13280   0.00010   0.00000   0.00384   0.00384   3.13664
         Item               Value     Threshold  Converged?
 Maximum Force            0.002564     0.000450     NO 
 RMS     Force            0.000830     0.000300     NO 
 Maximum Displacement     0.030307     0.001800     NO 
 RMS     Displacement     0.012798     0.001200     NO 
 Predicted change in Energy=-1.440333D-05
 Lowest energy point so far.  Saving SCF results.
 GradGradGradGradGradGradGradGradGradGradGradGradGradGradGradGradGradGrad

 Leave Link  103 at Mon Aug 23 16:17:42 2021, MaxMem= 24159191040 cpu:         2.5
 (Enter /public/home/users/caep010/software/Gaussian09/g09/l202.exe)
                          Input orientation:                          
 ---------------------------------------------------------------------
 Center     Atomic      Atomic             Coordinates (Angstroms)
 Number     Number       Type             X           Y           Z
 ---------------------------------------------------------------------
      1          6           0       -1.755164    0.016283   -0.028817
      2          7           0       -0.746015   -0.754261    0.027283
      3          7           0        0.545899    0.023545    0.002150
      4          8           0        0.521425    1.244224   -0.001173
      5          8           0        1.520538   -0.695409   -0.008037
      6          1           0       -1.676743    1.102979   -0.083662
      7          1           0       -2.732039   -0.462262   -0.018244
 ---------------------------------------------------------------------
                    Distance matrix (angstroms):
                    1          2          3          4          5
     1  C    0.000000
     2  N    1.270931   0.000000
     3  N    2.301283   1.508196   0.000000
     4  O    2.586786   2.366676   1.220929   0.000000
     5  O    3.352188   2.267593   1.211165   2.181846   0.000000
     6  H    1.090901   2.080361   2.472384   2.204245   3.669132
     7  H    1.087843   2.007891   3.313805   3.673883   4.258976
                    6          7
     6  H    0.000000
     7  H    1.888891   0.000000
 Stoichiometry    CH2N2O2
 Framework group  C1[X(CH2N2O2)]
 Deg. of freedom    15
 Full point group                 C1      NOp   1
 RotChk:  IX=0 Diff= 9.72D-03
 Largest Abelian subgroup         C1      NOp   1
 Largest concise Abelian subgroup C1      NOp   1
                         Standard orientation:                         
 ---------------------------------------------------------------------
 Center     Atomic      Atomic             Coordinates (Angstroms)
 Number     Number       Type             X           Y           Z
 ---------------------------------------------------------------------
      1          6           0        1.755133    0.016117    0.016791
      2          7           0        0.745755   -0.754890   -0.027613
      3          7           0       -0.546050    0.023132   -0.003580
      4          8           0       -0.521593    1.243791   -0.011489
      5          8           0       -1.520612   -0.695684    0.017671
      6          1           0        1.676938    1.103269    0.062098
      7          1           0        2.731961   -0.462519    0.006051
 ---------------------------------------------------------------------
 Rotational constants (GHZ):     12.0526013      5.0338743      3.5520818
 Leave Link  202 at Mon Aug 23 16:17:42 2021, MaxMem= 24159191040 cpu:         0.2
 (Enter /public/home/users/caep010/software/Gaussian09/g09/l301.exe)
 Standard basis: 6-31G(d,p) (6D, 7F)
 Ernie: Thresh=  0.10000D-02 Tol=  0.10000D-05 Strict=F.
 There are    85 symmetry adapted cartesian basis functions of A   symmetry.
 There are    85 symmetry adapted basis functions of A   symmetry.
    85 basis functions,   154 primitive gaussians,    85 cartesian basis functions
    19 alpha electrons       19 beta electrons
       nuclear repulsion energy       169.1569952686 Hartrees.
 IExCor=  402 DFT=T Ex+Corr=B3LYP ExCW=0 ScaHFX=  0.200000
 ScaDFX=  0.800000  0.720000  1.000000  0.810000 ScalE2=  1.000000  1.000000
 IRadAn=      0 IRanWt=     -1 IRanGd=            0 ICorTp=0 IEmpDi=  4
 NAtoms=    7 NActive=    7 NUniq=    7 SFac= 1.00D+00 NAtFMM=   60 NAOKFM=F Big=F
 Integral buffers will be    131072 words long.
 Raffenetti 2 integral format.
 Two-electron integral symmetry is turned on.
 Leave Link  301 at Mon Aug 23 16:17:42 2021, MaxMem= 24159191040 cpu:         2.0
 (Enter /public/home/users/caep010/software/Gaussian09/g09/l302.exe)
 NPDir=0 NMtPBC=     1 NCelOv=     1 NCel=       1 NClECP=     1 NCelD=      1
         NCelK=      1 NCelE2=     1 NClLst=     1 CellRange=     0.0.
 One-electron integrals computed using PRISM.
 NBasis=    85 RedAO= T EigKep=  3.02D-03  NBF=    85
 NBsUse=    85 1.00D-06 EigRej= -1.00D+00 NBFU=    85
 Precomputing XC quadrature grid using
 IXCGrd= 4 IRadAn=           0 IRanWt=          -1 IRanGd=           0 AccXCQ= 0.00D+00.
 Generated NRdTot=       0 NPtTot=           0 NUsed=           0 NTot=          32
 NSgBfM=    85    85    85    85    85 MxSgAt=     7 MxSgA2=     7.
 Leave Link  302 at Mon Aug 23 16:17:43 2021, MaxMem= 24159191040 cpu:        10.4
 (Enter /public/home/users/caep010/software/Gaussian09/g09/l303.exe)
 DipDrv:  MaxL=1.
 Leave Link  303 at Mon Aug 23 16:17:43 2021, MaxMem= 24159191040 cpu:         0.6
 (Enter /public/home/users/caep010/software/Gaussian09/g09/l401.exe)
 Initial guess from the checkpoint file:  "/public/home/users/caep010/.cache/gau_scr/Gau-222451.chk"
 B after Tr=     0.000000    0.000000    0.000000
         Rot=    1.000000   -0.000025   -0.000001   -0.000139 Ang=  -0.02 deg.
 Guess basis will be translated and rotated to current coordinates.
 JPrj=2 DoOrth=T DoCkMO=T.
 Generating alternative initial guess.
 ExpMin= 1.61D-01 ExpMax= 5.48D+03 ExpMxC= 8.25D+02 IAcc=1 IRadAn=         1 AccDes= 0.00D+00
 Harris functional with IExCor=  402 and IRadAn=       1 diagonalized for initial guess.
 HarFok:  IExCor=  402 AccDes= 0.00D+00 IRadAn=         1 IDoV= 1 UseB2=F ITyADJ=14
 ICtDFT=  3500011 ScaDFX=  1.000000  1.000000  1.000000  1.000000
 FoFCou: FMM=F IPFlag=           0 FMFlag=      100000 FMFlg1=           0
         NFxFlg=           0 DoJE=T BraDBF=F KetDBF=T FulRan=T
         wScrn=  0.000000 ICntrl=     500 IOpCl=  0 I1Cent=   200000004 NGrid=           0
         NMat0=    1 NMatS0=      1 NMatT0=    0 NMatD0=    1 NMtDS0=    0 NMtDT0=    0
 Petite list used in FoFCou.
 Harris En= -299.139297880931    
 Leave Link  401 at Mon Aug 23 16:17:43 2021, MaxMem= 24159191040 cpu:        11.0
 (Enter /public/home/users/caep010/software/Gaussian09/g09/l502.exe)
 Closed shell SCF:
 Using DIIS extrapolation, IDIIS=  1040.
 Integral symmetry usage will be decided dynamically.
 Keep R1 ints in memory in canonical form, NReq=7631230.
 IVT=       43580 IEndB=       43580 NGot= 24159191040 MDV= 24152466121
 LenX= 24152466121 LenY= 24152458455
 Requested convergence on RMS density matrix=1.00D-08 within 128 cycles.
 Requested convergence on MAX density matrix=1.00D-06.
 Requested convergence on             energy=1.00D-06.
 No special actions if energy rises.
 FoFCou: FMM=F IPFlag=           0 FMFlag=           0 FMFlg1=           0
         NFxFlg=           0 DoJE=F BraDBF=F KetDBF=F FulRan=T
         wScrn=  0.000000 ICntrl=     600 IOpCl=  0 I1Cent=           0 NGrid=           0
         NMat0=    1 NMatS0=   3655 NMatT0=    0 NMatD0=    1 NMtDS0=    0 NMtDT0=    0
 Symmetry not used in FoFCou.
 Integral accuracy reduced to 1.0D-05 until final iterations.

 Cycle   1  Pass 0  IDiag  1:
 E= -299.109616936780    
 DIIS: error= 1.20D-03 at cycle   1 NSaved=   1.
 NSaved= 1 IEnMin= 1 EnMin= -299.109616936780     IErMin= 1 ErrMin= 1.20D-03
 ErrMax= 1.20D-03  0.00D+00 EMaxC= 1.00D-01 BMatC= 1.45D-04 BMatP= 1.45D-04
 IDIUse=3 WtCom= 9.88D-01 WtEn= 1.20D-02
 Coeff-Com:  0.100D+01
 Coeff-En:   0.100D+01
 Coeff:      0.100D+01
 Gap=     2.031 Goal=   None    Shift=    0.000
 GapD=    2.031 DampG=2.000 DampE=1.000 DampFc=2.0000 IDamp=-1.
 RMSDP=2.85D-04 MaxDP=5.29D-03              OVMax= 9.90D-03

 Cycle   2  Pass 0  IDiag  1:
 E= -299.109951213685     Delta-E=       -0.000334276906 Rises=F Damp=F
 DIIS: error= 1.86D-04 at cycle   2 NSaved=   2.
 NSaved= 2 IEnMin= 2 EnMin= -299.109951213685     IErMin= 2 ErrMin= 1.86D-04
 ErrMax= 1.86D-04  0.00D+00 EMaxC= 1.00D-01 BMatC= 4.89D-06 BMatP= 1.45D-04
 IDIUse=3 WtCom= 9.98D-01 WtEn= 1.86D-03
 Coeff-Com: -0.788D-01 0.108D+01
 Coeff-En:   0.000D+00 0.100D+01
 Coeff:     -0.786D-01 0.108D+01
 Gap=     0.205 Goal=   None    Shift=    0.000
 RMSDP=4.60D-05 MaxDP=6.50D-04 DE=-3.34D-04 OVMax= 1.64D-03

 Cycle   3  Pass 0  IDiag  1:
 E= -299.109957240620     Delta-E=       -0.000006026935 Rises=F Damp=F
 DIIS: error= 1.35D-04 at cycle   3 NSaved=   3.
 NSaved= 3 IEnMin= 3 EnMin= -299.109957240620     IErMin= 3 ErrMin= 1.35D-04
 ErrMax= 1.35D-04  0.00D+00 EMaxC= 1.00D-01 BMatC= 2.52D-06 BMatP= 4.89D-06
 IDIUse=3 WtCom= 9.99D-01 WtEn= 1.35D-03
 Coeff-Com: -0.471D-01 0.469D+00 0.578D+00
 Coeff-En:   0.000D+00 0.000D+00 0.100D+01
 Coeff:     -0.470D-01 0.468D+00 0.579D+00
 Gap=     0.205 Goal=   None    Shift=    0.000
 RMSDP=2.58D-05 MaxDP=5.04D-04 DE=-6.03D-06 OVMax= 9.94D-04

 Cycle   4  Pass 0  IDiag  1:
 E= -299.109959011858     Delta-E=       -0.000001771237 Rises=F Damp=F
 DIIS: error= 1.01D-04 at cycle   4 NSaved=   4.
 NSaved= 4 IEnMin= 4 EnMin= -299.109959011858     IErMin= 4 ErrMin= 1.01D-04
 ErrMax= 1.01D-04  0.00D+00 EMaxC= 1.00D-01 BMatC= 1.03D-06 BMatP= 2.52D-06
 IDIUse=3 WtCom= 9.99D-01 WtEn= 1.01D-03
 Coeff-Com: -0.190D-01 0.176D+00 0.390D+00 0.453D+00
 Coeff-En:   0.000D+00 0.000D+00 0.256D+00 0.744D+00
 Coeff:     -0.190D-01 0.176D+00 0.390D+00 0.453D+00
 Gap=     0.205 Goal=   None    Shift=    0.000
 RMSDP=1.23D-05 MaxDP=3.11D-04 DE=-1.77D-06 OVMax= 5.76D-04

 Cycle   5  Pass 0  IDiag  1:
 E= -299.109959695284     Delta-E=       -0.000000683426 Rises=F Damp=F
 DIIS: error= 7.07D-05 at cycle   5 NSaved=   5.
 NSaved= 5 IEnMin= 5 EnMin= -299.109959695284     IErMin= 5 ErrMin= 7.07D-05
 ErrMax= 7.07D-05  0.00D+00 EMaxC= 1.00D-01 BMatC= 3.01D-07 BMatP= 1.03D-06
 IDIUse=1 WtCom= 1.00D+00 WtEn= 0.00D+00
 Coeff-Com: -0.612D-02 0.511D-01 0.210D+00 0.358D+00 0.387D+00
 Coeff:     -0.612D-02 0.511D-01 0.210D+00 0.358D+00 0.387D+00
 Gap=     0.205 Goal=   None    Shift=    0.000
 RMSDP=5.68D-06 MaxDP=1.43D-04 DE=-6.83D-07 OVMax= 2.75D-04

 Initial convergence to 1.0D-05 achieved.  Increase integral accuracy.
 Cycle   6  Pass 1  IDiag  1:
 E= -299.109977836962     Delta-E=       -0.000018141678 Rises=F Damp=F
 DIIS: error= 1.33D-05 at cycle   1 NSaved=   1.
 NSaved= 1 IEnMin= 1 EnMin= -299.109977836962     IErMin= 1 ErrMin= 1.33D-05
 ErrMax= 1.33D-05  0.00D+00 EMaxC= 1.00D-01 BMatC= 3.05D-08 BMatP= 3.05D-08
 IDIUse=1 WtCom= 1.00D+00 WtEn= 0.00D+00
 Coeff-Com:  0.100D+01
 Coeff:      0.100D+01
 Gap=     0.205 Goal=   None    Shift=    0.000
 RMSDP=5.68D-06 MaxDP=1.43D-04 DE=-1.81D-05 OVMax= 1.53D-04

 Cycle   7  Pass 1  IDiag  1:
 E= -299.109977794914     Delta-E=        0.000000042048 Rises=F Damp=F
 DIIS: error= 3.65D-05 at cycle   2 NSaved=   2.
 NSaved= 2 IEnMin= 1 EnMin= -299.109977836962     IErMin= 1 ErrMin= 1.33D-05
 ErrMax= 3.65D-05  0.00D+00 EMaxC= 1.00D-01 BMatC= 8.59D-08 BMatP= 3.05D-08
 IDIUse=1 WtCom= 1.00D+00 WtEn= 0.00D+00
 Coeff-Com:  0.648D+00 0.352D+00
 Coeff:      0.648D+00 0.352D+00
 Gap=     0.205 Goal=   None    Shift=    0.000
 RMSDP=3.29D-06 MaxDP=9.01D-05 DE= 4.20D-08 OVMax= 1.76D-04

 Cycle   8  Pass 1  IDiag  1:
 E= -299.109977853291     Delta-E=       -0.000000058377 Rises=F Damp=F
 DIIS: error= 1.52D-05 at cycle   3 NSaved=   3.
 NSaved= 3 IEnMin= 3 EnMin= -299.109977853291     IErMin= 1 ErrMin= 1.33D-05
 ErrMax= 1.52D-05  0.00D+00 EMaxC= 1.00D-01 BMatC= 1.20D-08 BMatP= 3.05D-08
 IDIUse=1 WtCom= 1.00D+00 WtEn= 0.00D+00
 Coeff-Com:  0.185D+00 0.263D+00 0.552D+00
 Coeff:      0.185D+00 0.263D+00 0.552D+00
 Gap=     0.205 Goal=   None    Shift=    0.000
 RMSDP=1.26D-06 MaxDP=3.49D-05 DE=-5.84D-08 OVMax= 6.30D-05

 Cycle   9  Pass 1  IDiag  1:
 E= -299.109977860658     Delta-E=       -0.000000007367 Rises=F Damp=F
 DIIS: error= 4.84D-06 at cycle   4 NSaved=   4.
 NSaved= 4 IEnMin= 4 EnMin= -299.109977860658     IErMin= 4 ErrMin= 4.84D-06
 ErrMax= 4.84D-06  0.00D+00 EMaxC= 1.00D-01 BMatC= 2.69D-09 BMatP= 1.20D-08
 IDIUse=1 WtCom= 1.00D+00 WtEn= 0.00D+00
 Coeff-Com:  0.120D-01 0.126D+00 0.401D+00 0.460D+00
 Coeff:      0.120D-01 0.126D+00 0.401D+00 0.460D+00
 Gap=     0.205 Goal=   None    Shift=    0.000
 RMSDP=4.92D-07 MaxDP=1.27D-05 DE=-7.37D-09 OVMax= 2.44D-05

 Cycle  10  Pass 1  IDiag  1:
 E= -299.109977862850     Delta-E=       -0.000000002193 Rises=F Damp=F
 DIIS: error= 1.03D-06 at cycle   5 NSaved=   5.
 NSaved= 5 IEnMin= 5 EnMin= -299.109977862850     IErMin= 5 ErrMin= 1.03D-06
 ErrMax= 1.03D-06  0.00D+00 EMaxC= 1.00D-01 BMatC= 1.32D-10 BMatP= 2.69D-09
 IDIUse=1 WtCom= 1.00D+00 WtEn= 0.00D+00
 Coeff-Com: -0.894D-02 0.515D-01 0.189D+00 0.270D+00 0.498D+00
 Coeff:     -0.894D-02 0.515D-01 0.189D+00 0.270D+00 0.498D+00
 Gap=     0.205 Goal=   None    Shift=    0.000
 RMSDP=1.18D-07 MaxDP=2.36D-06 DE=-2.19D-09 OVMax= 4.03D-06

 Cycle  11  Pass 1  IDiag  1:
 E= -299.109977862953     Delta-E=       -0.000000000103 Rises=F Damp=F
 DIIS: error= 2.39D-07 at cycle   6 NSaved=   6.
 NSaved= 6 IEnMin= 6 EnMin= -299.109977862953     IErMin= 6 ErrMin= 2.39D-07
 ErrMax= 2.39D-07  0.00D+00 EMaxC= 1.00D-01 BMatC= 9.45D-12 BMatP= 1.32D-10
 IDIUse=1 WtCom= 1.00D+00 WtEn= 0.00D+00
 Coeff-Com: -0.650D-02 0.220D-01 0.873D-01 0.133D+00 0.290D+00 0.474D+00
 Coeff:     -0.650D-02 0.220D-01 0.873D-01 0.133D+00 0.290D+00 0.474D+00
 Gap=     0.205 Goal=   None    Shift=    0.000
 RMSDP=3.43D-08 MaxDP=5.53D-07 DE=-1.03D-10 OVMax= 8.79D-07

 Cycle  12  Pass 1  IDiag  1:
 E= -299.109977862960     Delta-E=       -0.000000000006 Rises=F Damp=F
 DIIS: error= 9.06D-08 at cycle   7 NSaved=   7.
 NSaved= 7 IEnMin= 7 EnMin= -299.109977862960     IErMin= 7 ErrMin= 9.06D-08
 ErrMax= 9.06D-08  0.00D+00 EMaxC= 1.00D-01 BMatC= 9.35D-13 BMatP= 9.45D-12
 IDIUse=1 WtCom= 1.00D+00 WtEn= 0.00D+00
 Coeff-Com: -0.186D-02 0.266D-02 0.133D-01 0.222D-01 0.550D-01 0.244D+00
 Coeff-Com:  0.665D+00
 Coeff:     -0.186D-02 0.266D-02 0.133D-01 0.222D-01 0.550D-01 0.244D+00
 Coeff:      0.665D+00
 Gap=     0.205 Goal=   None    Shift=    0.000
 RMSDP=1.25D-08 MaxDP=2.71D-07 DE=-6.37D-12 OVMax= 3.57D-07

 Cycle  13  Pass 1  IDiag  1:
 E= -299.109977862964     Delta-E=       -0.000000000005 Rises=F Damp=F
 DIIS: error= 4.83D-08 at cycle   8 NSaved=   8.
 NSaved= 8 IEnMin= 8 EnMin= -299.109977862964     IErMin= 8 ErrMin= 4.83D-08
 ErrMax= 4.83D-08  0.00D+00 EMaxC= 1.00D-01 BMatC= 2.40D-13 BMatP= 9.35D-13
 IDIUse=1 WtCom= 1.00D+00 WtEn= 0.00D+00
 Coeff-Com: -0.122D-04-0.187D-02-0.610D-02-0.863D-02-0.177D-01 0.535D-01
 Coeff-Com:  0.396D+00 0.585D+00
 Coeff:     -0.122D-04-0.187D-02-0.610D-02-0.863D-02-0.177D-01 0.535D-01
 Coeff:      0.396D+00 0.585D+00
 Gap=     0.205 Goal=   None    Shift=    0.000
 RMSDP=5.95D-09 MaxDP=9.46D-08 DE=-4.66D-12 OVMax= 1.63D-07

 SCF Done:  E(RB3LYP) =  -299.109977863     A.U. after   13 cycles
            NFock= 13  Conv=0.60D-08     -V/T= 2.0087
 KE= 2.965228854251D+02 PE=-1.039091630541D+03 EE= 2.743017719839D+02
 Leave Link  502 at Mon Aug 23 16:17:44 2021, MaxMem= 24159191040 cpu:        22.9
 (Enter /public/home/users/caep010/software/Gaussian09/g09/l801.exe)
 DoSCS=F DFT=T ScalE2(SS,OS)=  1.000000  1.000000
 Range of M.O.s used for correlation:     1    85
 NBasis=    85 NAE=    19 NBE=    19 NFC=     0 NFV=     0
 NROrb=     85 NOA=    19 NOB=    19 NVA=    66 NVB=    66
 Leave Link  801 at Mon Aug 23 16:17:44 2021, MaxMem= 24159191040 cpu:         0.5
 (Enter /public/home/users/caep010/software/Gaussian09/g09/l1101.exe)
 Using compressed storage, NAtomX=     7.
 Will process      8 centers per pass.
 Leave Link 1101 at Mon Aug 23 16:17:45 2021, MaxMem= 24159191040 cpu:        10.8
 (Enter /public/home/users/caep010/software/Gaussian09/g09/l1102.exe)
 Symmetrizing basis deriv contribution to polar:
 IMax=3 JMax=2 DiffMx= 0.00D+00
 Leave Link 1102 at Mon Aug 23 16:17:45 2021, MaxMem= 24159191040 cpu:         0.6
 (Enter /public/home/users/caep010/software/Gaussian09/g09/l1110.exe)
 Forming Gx(P) for the SCF density, NAtomX=     7.
 Integral derivatives from FoFJK, PRISM(SPDF).
 Do as many integral derivatives as possible in FoFJK.
 G2DrvN: MDV=   24159190880.
 G2DrvN: will do     8 centers at a time, making    1 passes.
 Calling FoFCou, ICntrl=  3107 FMM=F I1Cent=   0 AccDes= 0.00D+00.
 FoFJK:  IHMeth= 1 ICntrl=    3107 DoSepK=F KAlg= 0 I1Cent=   0 FoldK=F
 IRaf=         0 NMat=   1 IRICut=       1 DoRegI=T DoRafI=F ISym2E= 0.
 FoFCou: FMM=F IPFlag=           0 FMFlag=      100000 FMFlg1=           0
         NFxFlg=           0 DoJE=F BraDBF=F KetDBF=F FulRan=T
         wScrn=  0.000000 ICntrl=    3107 IOpCl=  0 I1Cent=           0 NGrid=           0
         NMat0=    1 NMatS0=      1 NMatT0=    0 NMatD0=    1 NMtDS0=    0 NMtDT0=    0
 Symmetry not used in FoFCou.
 End of G2Drv F.D. properties file   721 does not exist.
 End of G2Drv F.D. properties file   722 does not exist.
 End of G2Drv F.D. properties file   788 does not exist.
 Leave Link 1110 at Mon Aug 23 16:17:45 2021, MaxMem= 24159191040 cpu:        18.2
 (Enter /public/home/users/caep010/software/Gaussian09/g09/l1002.exe)
 Minotr:  Closed shell wavefunction.
          IDoAtm=1111111
          Direct CPHF calculation.
          Differentiating once with respect to electric field.
                with respect to dipole field.
          Differentiating once with respect to nuclear coordinates.
          Requested convergence is 1.0D-08 RMS, and 1.0D-07 maximum.
          Secondary convergence is 1.0D-12 RMS, and 1.0D-12 maximum.
          NewPWx=T KeepS1=F KeepF1=F KeepIn=T MapXYZ=F SortEE=F KeepMc=T.
          MDV=   24159190881 using IRadAn=       2.
 Generate precomputed XC quadrature information.
 Keep R1 ints in memory in canonical form, NReq=7588452.
 FoFCou: FMM=F IPFlag=           0 FMFlag=           0 FMFlg1=           0
         NFxFlg=           0 DoJE=F BraDBF=F KetDBF=F FulRan=T
         wScrn=  0.000000 ICntrl=     600 IOpCl=  0 I1Cent=           0 NGrid=           0
         NMat0=    1 NMatS0=   3655 NMatT0=    0 NMatD0=    1 NMtDS0=    0 NMtDT0=    0
 Symmetry not used in FoFCou.
          Solving linear equations simultaneously, MaxMat=       0.
          There are    24 degrees of freedom in the 1st order CPHF.  IDoFFX=6 NUNeed=     3.
     21 vectors produced by pass  0 Test12= 5.22D-15 4.17D-09 XBig12= 4.92D+01 4.37D+00.
 AX will form    21 AO Fock derivatives at one time.
     21 vectors produced by pass  1 Test12= 5.22D-15 4.17D-09 XBig12= 1.28D+01 8.88D-01.
     21 vectors produced by pass  2 Test12= 5.22D-15 4.17D-09 XBig12= 1.40D-01 9.04D-02.
     21 vectors produced by pass  3 Test12= 5.22D-15 4.17D-09 XBig12= 8.68D-04 6.25D-03.
     21 vectors produced by pass  4 Test12= 5.22D-15 4.17D-09 XBig12= 2.07D-06 3.05D-04.
     19 vectors produced by pass  5 Test12= 5.22D-15 4.17D-09 XBig12= 2.06D-09 7.52D-06.
      5 vectors produced by pass  6 Test12= 5.22D-15 4.17D-09 XBig12= 1.41D-12 2.11D-07.
      2 vectors produced by pass  7 Test12= 5.22D-15 4.17D-09 XBig12= 9.34D-16 4.69D-09.
 InvSVY:  IOpt=1 It=  1 EMax= 3.95D-15
 Solved reduced A of dimension   131 with    24 vectors.
 FullF1:  Do perturbations    1 to     3.
 Isotropic polarizability for W=    0.000000       31.27 Bohr**3.
 End of Minotr F.D. properties file   721 does not exist.
 End of Minotr F.D. properties file   722 does not exist.
 End of Minotr F.D. properties file   788 does not exist.
 Leave Link 1002 at Mon Aug 23 16:17:46 2021, MaxMem= 24159191040 cpu:        26.7
 (Enter /public/home/users/caep010/software/Gaussian09/g09/l701.exe)
 Compute integral second derivatives.
 ... and contract with generalized density number  0.
 Leave Link  701 at Mon Aug 23 16:17:47 2021, MaxMem= 24159191040 cpu:        12.2
 (Enter /public/home/users/caep010/software/Gaussian09/g09/l702.exe)
 L702 exits ... SP integral derivatives will be done elsewhere.
 Leave Link  702 at Mon Aug 23 16:17:47 2021, MaxMem= 24159191040 cpu:         0.5
 (Enter /public/home/users/caep010/software/Gaussian09/g09/l703.exe)
 Compute integral second derivatives, UseDBF=F ICtDFT=           0.
 Integral derivatives from FoFJK, PRISM(SPDF).
 Calling FoFJK, ICntrl=    100127 FMM=F ISym2X=0 I1Cent= 0 IOpClX= 0 NMat=1 NMatS=1 NMatT=0.
 FoFJK:  IHMeth= 1 ICntrl=  100127 DoSepK=F KAlg= 0 I1Cent=   0 FoldK=F
 IRaf=         0 NMat=   1 IRICut=       1 DoRegI=T DoRafI=F ISym2E= 0.
 FoFCou: FMM=F IPFlag=           0 FMFlag=      100000 FMFlg1=         800
         NFxFlg=           0 DoJE=F BraDBF=F KetDBF=F FulRan=T
         wScrn=  0.000000 ICntrl=  100127 IOpCl=  0 I1Cent=           0 NGrid=           0
         NMat0=    1 NMatS0=      1 NMatT0=    0 NMatD0=    1 NMtDS0=    0 NMtDT0=    0
 Symmetry not used in FoFCou.
 Leave Link  703 at Mon Aug 23 16:17:48 2021, MaxMem= 24159191040 cpu:        33.2
 (Enter /public/home/users/caep010/software/Gaussian09/g09/l716.exe)
 Dipole        = 1.39055183D+00 2.91692546D-01 2.74798378D-02
 Polarizability= 4.66750226D+01 4.56461816D+00 3.33403331D+01
                 1.21816120D-01 1.93688633D-01 1.37829278D+01
 ***** Axes restored to original set *****
 -------------------------------------------------------------------
 Center     Atomic                   Forces (Hartrees/Bohr)
 Number     Number              X              Y              Z
 -------------------------------------------------------------------
      1        6          -0.000005569   -0.000014350    0.000000366
      2        7           0.000023698    0.000000885    0.000001737
      3        7           0.000000190   -0.000005419    0.000000912
      4        8          -0.000020088   -0.000000845   -0.000003199
      5        8           0.000005197   -0.000000422    0.000008313
      6        1          -0.000002830    0.000022291   -0.000004836
      7        1          -0.000000599   -0.000002140   -0.000003295
 -------------------------------------------------------------------
 Cartesian Forces:  Max     0.000023698 RMS     0.000009481
 Force constants in Cartesian coordinates: 
                1             2             3             4             5 
      1  0.846982D+00
      2 -0.103502D+00  0.752864D+00
      3  0.165795D-01 -0.344197D-01  0.138054D+00
      4 -0.424677D+00  0.271248D+00 -0.205381D-01  0.547595D+00
      5  0.228050D+00 -0.331589D+00  0.192013D-01 -0.277059D+00  0.466283D+00
      6 -0.183370D-01  0.195632D-01 -0.458802D-01  0.203592D-01 -0.233062D-01
      7 -0.735330D-01  0.168999D-02 -0.858914D-03 -0.176014D-01  0.309825D-01
      8  0.143803D-01  0.343432D-01 -0.148464D-02  0.804654D-02 -0.109968D+00
      9 -0.247085D-02 -0.243692D-02 -0.955941D-03 -0.202231D-03  0.266026D-02
     10 -0.511777D-02 -0.946505D-02 -0.192230D-03 -0.763944D-02 -0.384726D-01
     11  0.974555D-02 -0.117926D-01  0.568471D-03 -0.339841D-01 -0.375265D-01
     12 -0.148573D-03  0.467287D-03  0.272106D-02  0.182442D-03 -0.978495D-04
     13 -0.857025D-02 -0.137905D-01  0.629267D-03 -0.721905D-01  0.305861D-01
     14 -0.410824D-02  0.749022D-03 -0.101761D-03 -0.332074D-03  0.208362D-01
     15  0.436228D-03  0.460257D-03  0.126805D-02  0.186596D-02 -0.467857D-03
     16 -0.611642D-01 -0.290227D-01  0.170056D-02  0.422420D-02  0.339665D-01
     17 -0.208598D-01 -0.322714D+00  0.138466D-01  0.913871D-02 -0.214746D-01
     18  0.950907D-03  0.135711D-01 -0.530705D-01 -0.307002D-03  0.396200D-02
     19 -0.273920D+00 -0.117158D+00  0.267990D-02 -0.297113D-01 -0.805372D-02
     20 -0.123706D+00 -0.121862D+00  0.238972D-02  0.229414D-01  0.134383D-01
     21  0.298977D-02  0.279474D-02 -0.421364D-01 -0.136028D-02 -0.195162D-02
                6             7             8             9            10 
      6  0.602767D-01
      7 -0.861613D-03  0.673589D+00
      8  0.827650D-03 -0.257482D+00  0.942059D+00
      9 -0.817947D-01 -0.193991D-02 -0.701673D-03  0.232601D+00
     10  0.128792D-03 -0.132632D+00 -0.171059D-02  0.952994D-04  0.140163D+00
     11  0.515641D-03  0.928767D-03 -0.565619D+00  0.164124D-02 -0.229331D-01
     12  0.201338D-01  0.377308D-03  0.232981D-02 -0.757287D-01 -0.350324D-03
     13  0.923371D-03 -0.453802D+00  0.227876D+00  0.466824D-02  0.859841D-02
     14  0.263436D-03  0.225723D+00 -0.288633D+00 -0.171835D-02  0.793462D-01
     15  0.225740D-01  0.339972D-02 -0.175116D-02 -0.789680D-01  0.152041D-03
     16 -0.228579D-02  0.881142D-03  0.424529D-02  0.486156D-03 -0.393979D-02
     17  0.281179D-02 -0.375566D-02 -0.532667D-02 -0.812724D-03 -0.497124D-02
     18  0.311760D-01 -0.249240D-04 -0.963879D-03 -0.161665D-01 -0.152223D-03
     19  0.730310D-04  0.309847D-02  0.464459D-02 -0.636708D-03  0.567450D-03
     20 -0.675508D-03  0.191279D-02 -0.685634D-02  0.136817D-02 -0.179359D-02
     21 -0.648563D-02 -0.916644D-04  0.174389D-02  0.210126D-01  0.318646D-03
               11            12            13            14            15 
     11  0.691170D+00
     12 -0.177336D-02  0.268851D-01
     13  0.511638D-01 -0.256477D-03  0.527214D+00
     14 -0.832995D-01 -0.583129D-03 -0.298530D+00  0.348846D+00
     15 -0.513419D-03  0.274710D-01 -0.576478D-02  0.244481D-02  0.284333D-01
     16 -0.379000D-02  0.511802D-04  0.206199D-02 -0.255139D-02 -0.203976D-03
     17  0.343959D-02 -0.298422D-04  0.222977D-03  0.395699D-03  0.715951D-04
     18 -0.249481D-03  0.122919D-02  0.510100D-03 -0.190312D-03  0.254543D-02
     19 -0.113082D-02  0.144444D-03 -0.331185D-02  0.452491D-03  0.114807D-03
     20  0.362799D-02 -0.312924D-03  0.247239D-02  0.110518D-02 -0.244226D-03
     21 -0.189092D-03 -0.271146D-02 -0.709727D-03 -0.114698D-03 -0.332367D-02
               16            17            18            19            20 
     16  0.555772D-01
     17  0.187897D-01  0.349609D+00
     18 -0.775156D-03 -0.164888D-01  0.267538D-01
     19  0.235945D-02  0.143531D-02 -0.201703D-03  0.300918D+00
     20 -0.216373D-01 -0.392901D-02  0.359370D-03  0.119810D+00  0.114476D+00
     21  0.102703D-02  0.601372D-03  0.753260D-02 -0.217377D-02 -0.288460D-02
               21 
     21  0.261119D-01
 FormGI is forming the generalized inverse of G from B-inverse, IUseBI=4.
 Force constants in internal coordinates: 
                1             2             3             4             5 
      1  0.725127D+00
      2  0.132951D-01  0.351627D+00
      3  0.128062D-01  0.969821D-03  0.359533D+00
      4  0.426989D-01 -0.814859D-02 -0.259983D-02  0.168314D+00
      5 -0.664980D-02  0.326330D-02 -0.585589D-03  0.459402D-01  0.691882D+00
      6 -0.291346D-02  0.140723D-03  0.204621D-02  0.522267D-01  0.914164D-01
      7  0.997368D-02  0.734606D-02 -0.102561D-01  0.191622D-02  0.284078D-02
      8  0.168494D-01 -0.946823D-02  0.533781D-02 -0.101367D-02  0.247445D-02
      9 -0.268235D-01  0.212228D-02  0.491833D-02 -0.902136D-03 -0.531523D-02
     10  0.709447D-01 -0.215082D-01  0.394605D-02  0.121678D+00  0.151343D-02
     11 -0.932434D-02 -0.822781D-02  0.115903D-03  0.426429D-01  0.107656D-01
     12  0.111870D-01  0.454722D-02  0.396148D-03  0.138033D-01 -0.489005D-01
     13 -0.186231D-02  0.368107D-02 -0.511997D-03 -0.564467D-01  0.381361D-01
     14 -0.196793D-03  0.109941D-03 -0.602974D-05  0.764481D-03  0.288677D-04
     15  0.118477D-03  0.380074D-04 -0.603325D-05  0.483381D-03  0.364601D-04
     16  0.284376D-03 -0.640533D-04  0.000000D+00 -0.291201D-03  0.000000D+00
     17 -0.734417D-04 -0.172035D-03 -0.166264D-04  0.172247D-02  0.376144D-04
     18 -0.598853D-05 -0.475678D-04 -0.542350D-05  0.144653D-02  0.406504D-03
     19  0.108697D-03  0.140346D-03  0.158188D-04 -0.780090D-04  0.183903D-03
                6             7             8             9            10 
      6  0.749625D+00
      7 -0.607078D-02  0.911078D-01
      8  0.560292D-02 -0.565245D-01  0.928910D-01
      9  0.467798D-03 -0.345835D-01 -0.363665D-01  0.709501D-01
     10  0.141590D-01  0.186189D-02  0.777322D-03 -0.263934D-02  0.479740D+00
     11 -0.568052D-01  0.102543D-01 -0.102118D-01 -0.424577D-04  0.681622D-01
     12  0.250934D-01 -0.603217D-02  0.891060D-02 -0.287825D-02 -0.102910D-01
     13  0.317125D-01 -0.422293D-02  0.130220D-02  0.292054D-02 -0.578726D-01
     14 -0.735164D-03 -0.294442D-03 -0.120466D-04  0.319738D-03 -0.798227D-03
     15 -0.696895D-03 -0.151764D-03  0.321024D-05  0.130206D-03 -0.705793D-03
     16  0.352156D-04  0.161871D-03 -0.102684D-03 -0.919152D-04  0.923639D-04
     17 -0.592741D-03  0.247486D-04 -0.270475D-03  0.246833D-03  0.134518D-02
     18 -0.303768D-03 -0.176748D-03 -0.392608D-04  0.215927D-03  0.841310D-03
     19  0.267451D-03 -0.231083D-03  0.282759D-03 -0.530586D-04 -0.387697D-03
               11            12            13            14            15 
[...]
                                                                X                                                                    
                                                                X                                                                    
                                                                X                                                                    
 
 ***** Axes restored to original set *****
 -------------------------------------------------------------------
 Center     Atomic                   Forces (Hartrees/Bohr)
 Number     Number              X              Y              Z
 -------------------------------------------------------------------
      1        6           0.000007351   -0.000001410    0.000000018
      2        7           0.000015699    0.000013733   -0.000000348
      3        7          -0.000001686   -0.000008275    0.000001886
      4        8          -0.000023028   -0.000001240   -0.000001331
      5        8           0.000006222   -0.000001122    0.000001780
      6        1          -0.000004159    0.000000131   -0.000001383
      7        1          -0.000000399   -0.000001817   -0.000000621
 -------------------------------------------------------------------
 Cartesian Forces:  Max     0.000023028 RMS     0.000007451
 Force constants in Cartesian coordinates: 
                1             2             3             4             5 
      1  0.847076D+00
      2 -0.103876D+00  0.754014D+00
      3  0.112301D-01 -0.203372D-01  0.136733D+00
      4 -0.424775D+00  0.271606D+00 -0.127571D-01  0.547517D+00
      5  0.228424D+00 -0.332380D+00  0.116028D-01 -0.277510D+00  0.467163D+00
      6 -0.114430D-01  0.120053D-01 -0.450510D-01  0.135806D-01 -0.150798D-01
      7 -0.735114D-01  0.175315D-02 -0.774527D-03 -0.174560D-01  0.309851D-01
      8  0.143734D-01  0.344787D-01 -0.893915D-03  0.815723D-02 -0.110037D+00
      9 -0.141651D-02 -0.123768D-02 -0.100709D-02  0.263614D-03  0.140927D-02
     10 -0.516357D-02 -0.945430D-02  0.507557D-04 -0.764318D-02 -0.384516D-01
     11  0.976145D-02 -0.117900D-01  0.465913D-03 -0.339504D-01 -0.374777D-01
     12 -0.260462D-03  0.302595D-03  0.274327D-02  0.422784D-03  0.669143D-03
     13 -0.859404D-02 -0.138351D-01  0.331223D-03 -0.721906D-01  0.305856D-01
     14 -0.410980D-02  0.749405D-03 -0.475987D-04 -0.407417D-03  0.208254D-01
     15  0.115717D-03  0.337266D-04  0.127607D-02 -0.167780D-03  0.122464D-03
     16 -0.611368D-01 -0.289973D-01  0.879493D-03  0.425696D-02  0.340467D-01
     17 -0.208174D-01 -0.323114D+00  0.810557D-02  0.914780D-02 -0.216012D-01
     18  0.541015D-03  0.797396D-02 -0.526385D-01 -0.428065D-03  0.219310D-02
     19 -0.273895D+00 -0.117197D+00  0.104010D-02 -0.297091D-01 -0.808055D-02
     20 -0.123756D+00 -0.121958D+00  0.110450D-02  0.229563D-01  0.135077D-01
     21  0.123316D-02  0.125934D-02 -0.420557D-01 -0.914016D-03 -0.916897D-03
                6             7             8             9            10 
      6  0.592894D-01
      7 -0.294925D-03  0.673642D+00
      8  0.757793D-03 -0.257612D+00  0.941753D+00
      9 -0.817126D-01  0.695400D-02 -0.139582D-01  0.232717D+00
     10  0.484781D-03 -0.132615D+00 -0.155691D-02 -0.353793D-03  0.140284D+00
     11  0.865484D-03  0.102643D-02 -0.565527D+00  0.869091D-02 -0.231123D-01
     12  0.200967D-01 -0.321289D-03  0.885652D-02 -0.758289D-01  0.110237D-02
     13 -0.942180D-03 -0.454029D+00  0.227761D+00 -0.525195D-02  0.853052D-02
     14  0.979702D-04  0.225680D+00 -0.288432D+00  0.467241D-02  0.793817D-01
     15  0.225942D-01 -0.555688D-02  0.467888D-02 -0.790057D-01 -0.142983D-02
     16 -0.137650D-02  0.865291D-03  0.421057D-02  0.181427D-03 -0.396899D-02
     17  0.170852D-02 -0.373886D-02 -0.530525D-02 -0.427992D-03 -0.499025D-02
     18  0.313101D-01  0.177787D-03 -0.412646D-03 -0.162353D-01  0.621643D-05
     19 -0.875564D-05  0.310409D-02  0.466683D-02 -0.376788D-03  0.576033D-03
     20 -0.355209D-03  0.190555D-02 -0.692941D-02  0.851294D-03 -0.181637D-02
     21 -0.652667D-02 -0.184158D-03  0.971582D-03  0.210722D-01  0.139502D-03
               11            12            13            14            15 
     11  0.690974D+00
     12 -0.118159D-01  0.270632D-01
     13  0.512077D-01 -0.106540D-02  0.527522D+00
     14 -0.832532D-01  0.227204D-02 -0.298429D+00  0.348599D+00
     15  0.208995D-02  0.274110D-01  0.703046D-02 -0.685948D-02  0.285021D-01
     16 -0.380331D-02  0.408380D-04  0.208691D-02 -0.256729D-02 -0.149686D-04
     17  0.344189D-02 -0.806608D-04  0.205473D-03  0.400961D-03  0.570728D-04
     18 -0.130663D-03  0.123662D-02  0.129825D-03 -0.327571D-04  0.256566D-02
     19 -0.112955D-02  0.811634D-04 -0.332542D-02  0.450993D-03  0.232883D-04
     20  0.363249D-02 -0.203710D-03  0.250425D-02  0.111102D-02 -0.122622D-03
     21 -0.165672D-03 -0.272190D-02 -0.231974D-03 -0.102582D-03 -0.334331D-02
               16            17            18            19            20 
     16  0.555377D-01
     17  0.187537D-01  0.350117D+00
     18 -0.311670D-03 -0.972675D-02  0.262109D-01
     19  0.235898D-02  0.143957D-02 -0.115108D-03  0.300891D+00
     20 -0.216430D-01 -0.393852D-02  0.135754D-03  0.119849D+00  0.114575D+00
     21  0.601382D-03  0.364235D-03  0.755044D-02 -0.643895D-03 -0.141000D-02
               21 
     21  0.260249D-01
 FormGI is forming the generalized inverse of G from B-inverse, IUseBI=4.
 Force constants in internal coordinates: 
                1             2             3             4             5 
      1  0.725044D+00
      2  0.133050D-01  0.351580D+00
      3  0.127978D-01  0.969044D-03  0.359534D+00
      4  0.427660D-01 -0.818228D-02 -0.259917D-02  0.168212D+00
      5 -0.665064D-02  0.326290D-02 -0.588540D-03  0.458774D-01  0.691904D+00
      6 -0.292228D-02  0.147107D-03  0.204950D-02  0.521716D-01  0.914542D-01
      7  0.993875D-02  0.736270D-02 -0.102578D-01  0.198153D-02  0.285353D-02
      8  0.168600D-01 -0.946894D-02  0.534216D-02 -0.106589D-02  0.247277D-02
      9 -0.267987D-01  0.210625D-02  0.491563D-02 -0.915614D-03 -0.532630D-02
     10  0.708523D-01 -0.215479D-01  0.394850D-02  0.121882D+00  0.149060D-02
     11 -0.931009D-02 -0.828227D-02  0.115080D-03  0.427972D-01  0.106516D-01
     12  0.111902D-01  0.457585D-02  0.396937D-03  0.137449D-01 -0.488588D-01
     13 -0.188010D-02  0.370645D-02 -0.512013D-03 -0.565422D-01  0.382073D-01
     14 -0.526929D-04  0.278094D-04 -0.160572D-05  0.204449D-03  0.747325D-05
     15  0.316809D-04  0.964033D-05 -0.158828D-05  0.129303D-03  0.954951D-05
     16  0.761213D-04 -0.160286D-04  0.000000D+00 -0.778453D-04  0.000000D+00
     17 -0.208515D-04 -0.474746D-04 -0.447681D-05  0.461679D-03  0.917781D-05
     18 -0.306792D-05 -0.138292D-04 -0.146901D-05  0.387396D-03  0.108625D-03
     19  0.288379D-04  0.379329D-04  0.424902D-05 -0.209772D-04  0.496712D-04
                6             7             8             9            10 
      6  0.749718D+00
      7 -0.610203D-02  0.910518D-01
      8  0.562217D-02 -0.565005D-01  0.928660D-01
      9  0.479853D-03 -0.345514D-01 -0.363655D-01  0.709169D-01
     10  0.141427D-01  0.183480D-02  0.762459D-03 -0.259727D-02  0.480358D+00
     11 -0.568571D-01  0.103201D-01 -0.102759D-01 -0.442330D-04  0.685640D-01
     12  0.250981D-01 -0.606497D-02  0.895067D-02 -0.288569D-02 -0.104570D-01
     13  0.317591D-01 -0.425519D-02  0.132526D-02  0.292991D-02 -0.581071D-01
     14 -0.196704D-03 -0.788350D-04 -0.323042D-05  0.856112D-04 -0.213783D-03
     15 -0.186361D-03 -0.407457D-04  0.000000D+00  0.348804D-04 -0.188833D-03
     16  0.953052D-05  0.432234D-04 -0.273499D-04 -0.246289D-04  0.249568D-04
     17 -0.159293D-03  0.643544D-05 -0.723486D-04  0.662078D-04  0.361092D-03
     18 -0.814048D-04 -0.475824D-04 -0.104113D-04  0.579721D-04  0.225092D-03
     19  0.720724D-04 -0.619306D-04  0.757580D-04 -0.141959D-04 -0.104669D-03
               11            12            13            14            15 
     11  0.243731D+00
     12 -0.112254D+00  0.217031D+00
     13 -0.131477D+00 -0.104776D+00  0.236254D+00
     14  0.313300D-03 -0.269479D-03 -0.385899D-04  0.329305D-01
     15  0.313669D-03 -0.301976D-03 -0.553106D-05  0.239023D-01  0.363946D-01
     16  0.277511D-05 -0.365484D-04  0.347375D-04 -0.935238D-02  0.129408D-01
     17  0.673313D-03 -0.261647D-03 -0.428213D-03 -0.847758D-04 -0.835224D-03
     18  0.293540D-03 -0.148128D-03 -0.122931D-03  0.444085D-02  0.449578D-02
     19 -0.369787D-03  0.359740D-03  0.555188D-04  0.527288D-02  0.621121D-02
               16            17            18            19 
     16  0.230935D-01
     17 -0.777355D-03  0.624269D-02
     18  0.569225D-04 -0.807397D-02  0.113761D-01
     19  0.971994D-03 -0.166806D-01  0.226620D-01  0.458399D-01
 Leave Link  716 at Mon Aug 23 16:18:07 2021, MaxMem= 24159191040 cpu:         7.8
 (Enter /public/home/users/caep010/software/Gaussian09/g09/l103.exe)

 GradGradGradGradGradGradGradGradGradGradGradGradGradGradGradGradGradGrad
 Berny optimization.
 Red2BG is reusing G-inverse.
 Internal  Forces:  Max     0.000030163 RMS     0.000011479
 Search for a local minimum.
 Step number   1 out of a maximum of    2
 All quantities printed in internal units (Hartrees-Bohrs-Radians)
 Second derivative matrix not updated -- analytic derivatives used.
 The second derivative matrix:
                          R1        R2        R3        R4        R5
           R1           0.72504
           R2           0.01330   0.35158
           R3           0.01280   0.00097   0.35953
           R4           0.04277  -0.00818  -0.00260   0.16821
           R5          -0.00665   0.00326  -0.00059   0.04588   0.69190
           R6          -0.00292   0.00015   0.00205   0.05217   0.09145
           A1           0.00994   0.00736  -0.01026   0.00198   0.00285
           A2           0.01686  -0.00947   0.00534  -0.00107   0.00247
           A3          -0.02680   0.00211   0.00492  -0.00092  -0.00533
           A4           0.07085  -0.02155   0.00395   0.12188   0.00149
           A5          -0.00931  -0.00828   0.00012   0.04280   0.01065
           A6           0.01119   0.00458   0.00040   0.01374  -0.04886
           A7          -0.00188   0.00371  -0.00051  -0.05654   0.03821
           D1          -0.00005   0.00003  -0.00000   0.00020   0.00001
           D2           0.00003   0.00001  -0.00000   0.00013   0.00001
           D3           0.00008  -0.00002   0.00000  -0.00008   0.00000
           D4          -0.00002  -0.00005  -0.00000   0.00046   0.00001
           D5          -0.00000  -0.00001  -0.00000   0.00039   0.00011
           D6           0.00003   0.00004   0.00000  -0.00002   0.00005
                          R6        A1        A2        A3        A4
           R6           0.74972
           A1          -0.00610   0.09105
           A2           0.00562  -0.05650   0.09287
           A3           0.00048  -0.03455  -0.03637   0.07092
           A4           0.01414   0.00183   0.00076  -0.00260   0.48036
           A5          -0.05686   0.01032  -0.01028  -0.00004   0.06856
           A6           0.02510  -0.00606   0.00895  -0.00289  -0.01046
           A7           0.03176  -0.00426   0.00133   0.00293  -0.05811
           D1          -0.00020  -0.00008  -0.00000   0.00009  -0.00021
           D2          -0.00019  -0.00004   0.00000   0.00003  -0.00019
           D3           0.00001   0.00004  -0.00003  -0.00002   0.00002
           D4          -0.00016   0.00001  -0.00007   0.00007   0.00036
           D5          -0.00008  -0.00005  -0.00001   0.00006   0.00023
           D6           0.00007  -0.00006   0.00008  -0.00001  -0.00010
                          A5        A6        A7        D1        D2
           A5           0.24373
           A6          -0.11225   0.21703
           A7          -0.13148  -0.10478   0.23625
           D1           0.00031  -0.00027  -0.00004   0.03293
           D2           0.00031  -0.00030  -0.00001   0.02390   0.03639
           D3           0.00000  -0.00004   0.00003  -0.00935   0.01294
           D4           0.00067  -0.00026  -0.00043  -0.00008  -0.00084
           D5           0.00029  -0.00015  -0.00012   0.00444   0.00450
           D6          -0.00037   0.00036   0.00006   0.00527   0.00621
                          D3        D4        D5        D6
           D3           0.02309
           D4          -0.00078   0.00624
           D5           0.00006  -0.00807   0.01138
           D6           0.00097  -0.01668   0.02266   0.04584
 ITU=  0
     Eigenvalues ---    0.00013   0.03351   0.05105   0.07117   0.10319
     Eigenvalues ---    0.11014   0.14546   0.30532   0.31690   0.35010
     Eigenvalues ---    0.35991   0.55523   0.64157   0.75901   0.83138
 Angle between quadratic step and forces=  87.85 degrees.
 Linear search not attempted -- first point.
 Iteration  1 RMS(Cart)=  0.00232308 RMS(Int)=  0.00000313
 Iteration  2 RMS(Cart)=  0.00000415 RMS(Int)=  0.00000001
 Iteration  3 RMS(Cart)=  0.00000000 RMS(Int)=  0.00000001
 ITry= 1 IFail=0 DXMaxC= 5.60D-03 DCOld= 1.00D+10 DXMaxT= 3.00D-01 DXLimC= 3.00D+00 Rises=F
 Variable       Old X    -DE/DX   Delta X   Delta X   Delta X     New X
                                 (Linear)    (Quad)   (Total)
    R1        2.40171   0.00000   0.00000   0.00000   0.00000   2.40172
    R2        2.06157   0.00000   0.00000   0.00000   0.00000   2.06157
    R3        2.05573   0.00000   0.00000  -0.00000  -0.00000   2.05573
    R4        2.85059  -0.00003   0.00000  -0.00012  -0.00012   2.85047
    R5        2.30720  -0.00000   0.00000   0.00000   0.00000   2.30720
    R6        2.28873   0.00001   0.00000   0.00001   0.00001   2.28874
    A1        2.15200   0.00000   0.00000   0.00002   0.00002   2.15202
    A2        2.03292   0.00000   0.00000   0.00001   0.00001   2.03293
    A3        2.09826  -0.00000   0.00000  -0.00003  -0.00003   2.09823
    A4        1.94628  -0.00002   0.00000   0.00001   0.00001   1.94628
    A5        2.09288  -0.00003   0.00000  -0.00005  -0.00005   2.09283
    A6        1.96403   0.00001   0.00000   0.00004   0.00004   1.96407
    A7        2.22627   0.00002   0.00000   0.00002   0.00002   2.22629
    D1       -0.00112  -0.00000   0.00000   0.00037   0.00037  -0.00075
    D2        3.14093  -0.00000   0.00000   0.00022   0.00022   3.14115
    D3       -3.14112   0.00000   0.00000  -0.00016  -0.00016  -3.14128
    D4        0.01615  -0.00000   0.00000  -0.00531  -0.00531   0.01084
    D5       -3.12659  -0.00000   0.00000  -0.00493  -0.00493  -3.13152
    D6        3.14026   0.00000   0.00000   0.00045   0.00045   3.14070
         Item               Value     Threshold  Converged?
 Maximum Force            0.000030     0.000450     YES
 RMS     Force            0.000011     0.000300     YES
 Maximum Displacement     0.005602     0.001800     NO 
 RMS     Displacement     0.002323     0.001200     NO 
 Predicted change in Energy=-6.830830D-09
 GradGradGradGradGradGradGradGradGradGradGradGradGradGradGradGradGradGrad

 Leave Link  103 at Mon Aug 23 16:18:07 2021, MaxMem= 24159191040 cpu:         1.1
 (Enter /public/home/users/caep010/software/Gaussian09/g09/l9999.exe)
 1\1\GINC-B1176\Freq\RB3LYP\6-31G(d,p)\C1H2N2O2\ROOT\23-Aug-2021\0\\#P 
 Geom=AllCheck Guess=TCheck SCRF=Check GenChk RB3LYP/6-31G(d,p) Freq\\F
 rag_130\\0,1\C,-1.7553070486,0.0163911062,-0.0264816506\N,-0.745956888
 3,-0.755128678,0.0086577181\N,0.5460407379,0.0233920629,-0.0019857686\
 O,0.5213074634,1.2438679494,-0.0235899955\O,1.5209368032,-0.69506657,0
 .0143164438\H,-1.6770022267,1.1040284419,-0.0588743843\H,-2.7321188408
 ,-0.4623843125,-0.0225423629\\Version=ES64L-G09RevE.01\State=1-A\HF=-2
 99.1099778\RMSD=3.518e-09\RMSF=7.451e-06\ZeroPoint=0.04257\Thermal=0.0
 464281\Dipole=-1.3902487,0.2921594,-0.0245659\DipoleDeriv=0.3398427,0.
 0493004,0.0022281,-0.1628648,0.2357143,-0.007797,0.007474,-0.0045148,0
 .0462197,-0.5952694,-0.0573985,-0.0022954,0.11871,-0.250064,0.0015686,
 -0.0065527,-0.0001922,-0.1978289,1.688681,-0.1814623,0.0101515,-0.0055
 541,1.4741253,-0.0161889,0.0088158,-0.0184315,0.3349722,-0.6252173,-0.
 0943456,-0.0005517,-0.0990254,-0.9852712,0.0110185,-0.0020588,0.011746
 3,-0.2295507,-0.8945139,0.3687967,-0.0103686,0.1225331,-0.5881255,0.00
 61561,-0.0057513,0.0077552,-0.2140082,0.1034211,-0.0454192,0.0008289,0
 .0460158,0.037638,0.004713,-0.0002693,0.0034333,0.1618658,-0.0169442,-
 0.0394715,0.0000073,-0.0198147,0.075983,0.0005298,-0.0016577,0.0002037
 ,0.0983301\Polar=46.6869498,-4.5671103,33.3401435,0.3951759,-0.4670677
 ,13.7752016\PG=C01 [X(C1H2N2O2)]\NImag=1\\0.84707630,-0.10387583,0.754
 01374,0.01123009,-0.02033722,0.13673292,-0.42477510,0.27160614,-0.0127
 5713,0.54751701,0.22842440,-0.33237953,0.01160275,-0.27750963,0.467162
 71,-0.01144301,0.01200527,-0.04505104,0.01358059,-0.01507983,0.0592894
 1,-0.07351136,0.00175315,-0.00077453,-0.01745602,0.03098511,-0.0002949
 2,0.67364180,0.01437338,0.03447867,-0.00089391,0.00815723,-0.11003740,
 0.00075779,-0.25761174,0.94175300,-0.00141651,-0.00123768,-0.00100709,
 0.00026361,0.00140927,-0.08171262,0.00695400,-0.01395822,0.23271738,-0
 .00516357,-0.00945430,0.00005076,-0.00764318,-0.03845159,0.00048478,-0
 .13261454,-0.00155691,-0.00035379,0.14028372,0.00976145,-0.01178996,0.
 00046591,-0.03395044,-0.03747770,0.00086548,0.00102643,-0.56552725,0.0
 0869091,-0.02311231,0.69097374,-0.00026046,0.00030260,0.00274327,0.000
 42278,0.00066914,0.02009666,-0.00032129,0.00885652,-0.07582888,0.00110
 237,-0.01181593,0.02706321,-0.00859404,-0.01383508,0.00033122,-0.07219
 059,0.03058557,-0.00094218,-0.45402927,0.22776065,-0.00525195,0.008530
 52,0.05120774,-0.00106540,0.52752189,-0.00410980,0.00074941,-0.0000476
 0,-0.00040742,0.02082543,0.00009797,0.22568037,-0.28843237,0.00467241,
 0.07938174,-0.08325320,0.00227204,-0.29842859,0.34859875,0.00011572,0.
 00003373,0.00127607,-0.00016778,0.00012246,0.02259417,-0.00555688,0.00
 467888,-0.07900574,-0.00142983,0.00208995,0.02741102,0.00703046,-0.006
 85948,0.02850212,-0.06113681,-0.02899730,0.00087949,0.00425696,0.03404
 669,-0.00137650,0.00086529,0.00421057,0.00018143,-0.00396899,-0.003803
 31,0.00004084,0.00208691,-0.00256729,-0.00001497,0.05553766,-0.0208173
 9,-0.32311438,0.00810557,0.00914780,-0.02160123,0.00170852,-0.00373886
 ,-0.00530525,-0.00042799,-0.00499025,0.00344189,-0.00008066,0.00020547
 ,0.00040096,0.00005707,0.01875366,0.35011654,0.00054102,0.00797396,-0.
 05263848,-0.00042806,0.00219310,0.03131010,0.00017779,-0.00041265,-0.0
 1623528,0.00000622,-0.00013066,0.00123662,0.00012982,-0.00003276,0.002
 56566,-0.00031167,-0.00972675,0.02621094,-0.27389541,-0.11719678,0.001
 04010,-0.02970909,-0.00808055,-0.00000876,0.00310409,0.00466683,-0.000
 37679,0.00057603,-0.00112955,0.00008116,-0.00332542,0.00045099,0.00002
 329,0.00235898,0.00143957,-0.00011511,0.30089081,-0.12375621,-0.121957
 94,0.00110450,0.02295631,0.01350772,-0.00035521,0.00190555,-0.00692941
 ,0.00085129,-0.00181637,0.00363249,-0.00020371,0.00250425,0.00111102,-
 0.00012262,-0.02164302,-0.00393852,0.00013575,0.11984949,0.11457464,0.
 00123316,0.00125934,-0.04205566,-0.00091402,-0.00091690,-0.00652667,-0
 .00018416,0.00097158,0.02107223,0.00013950,-0.00016567,-0.00272190,-0.
 00023197,-0.00010258,-0.00334331,0.00060138,0.00036423,0.00755044,-0.0
 0064389,-0.00141000,0.02602487\\-0.00000735,0.00000141,-0.00000002,-0.
 00001570,-0.00001373,0.00000035,0.00000169,0.00000827,-0.00000189,0.00
 002303,0.00000124,0.00000133,-0.00000622,0.00000112,-0.00000178,0.0000
 0416,-0.00000013,0.00000138,0.00000040,0.00000182,0.00000062\\\@


 STEINBACH'S GUIDELINES FOR SYSTEMS PROGRAMMING:
 NEVER TEST FOR AN ERROR CONDITION YOU DON'T KNOW HOW
 TO HANDLE.
 Job cpu time:       0 days  0 hours  2 minutes 52.5 seconds.
 File lengths (MBytes):  RWF=     10 Int=      0 D2E=      0 Chk=      2 Scr=      1
 Normal termination of Gaussian 09 at Mon Aug 23 16:18:07 2021.
