 Entering Gaussian System, Link 0=g09
 Input=B3LYP6-31Gdp.Frag_677.gjf
 Output=B3LYP6-31Gdp.Frag_677.log
 Initial command:
 /public/home/users/caep010/software/Gaussian09/g09/l1.exe "/public/home/users/caep010/.cache/gau_scr/Gau-19756.inp" -scrdir="/public/home/users/caep010/.cache/gau_scr/"
 Entering Link 1 = /public/home/users/caep010/software/Gaussian09/g09/l1.exe PID=     19757.
  
 Copyright (c) 1988,1990,1992,1993,1995,1998,2003,2009,2015,
            Gaussian, Inc.  All Rights Reserved.
  
 This is part of the Gaussian(R) 09 program.  It is based on
 the Gaussian(R) 03 system (copyright 2003, Gaussian, Inc.),
 the Gaussian(R) 98 system (copyright 1998, Gaussian, Inc.),
 the Gaussian(R) 94 system (copyright 1995, Gaussian, Inc.),
 the Gaussian 92(TM) system (copyright 1992, Gaussian, Inc.),
 the Gaussian 90(TM) system (copyright 1990, Gaussian, Inc.),
 the Gaussian 88(TM) system (copyright 1988, Gaussian, Inc.),
 the Gaussian 86(TM) system (copyright 1986, Carnegie Mellon
 University), and the Gaussian 82(TM) system (copyright 1983,
 Carnegie Mellon University). Gaussian is a federally registered
 trademark of Gaussian, Inc.
  
 This software contains proprietary and confidential information,
 including trade secrets, belonging to Gaussian, Inc.
  
 This software is provided under written license and may be
 used, copied, transmitted, or stored only in accord with that
 written license.
  
 The following legend is applicable only to US Government
 contracts under FAR:
  
                    RESTRICTED RIGHTS LEGEND
  
 Use, reproduction and disclosure by the US Government is
 subject to restrictions as set forth in subparagraphs (a)
 and (c) of the Commercial Computer Software - Restricted
 Rights clause in FAR 52.227-19.
  
 Gaussian, Inc.
 340 Quinnipiac St., Bldg. 40, Wallingford CT 06492
  
  
 ---------------------------------------------------------------
 Warning -- This program may not be used in any manner that
 competes with the business of Gaussian, Inc. or will provide
 assistance to any competitor of Gaussian, Inc.  The licensee
 of this program is prohibited from giving any competitor of
 Gaussian, Inc. access to this program.  By using this program,
 the user acknowledges that Gaussian, Inc. is engaged in the
 business of creating and licensing software in the field of
 computational chemistry and represents and warrants to the
 licensee that it is not a competitor of Gaussian, Inc. and that
 it will not use this program in any manner prohibited above.
 ---------------------------------------------------------------
  

 Cite this work as:
 Gaussian 09, Revision E.01,
 M. J. Frisch, G. W. Trucks, H. B. Schlegel, G. E. Scuseria, 
 M. A. Robb, J. R. Cheeseman, G. Scalmani, V. Barone, B. Mennucci, 
 G. A. Petersson, H. Nakatsuji, M. Caricato, X. Li, H. P. Hratchian, 
 A. F. Izmaylov, J. Bloino, G. Zheng, J. L. Sonnenberg, M. Hada, 
 M. Ehara, K. Toyota, R. Fukuda, J. Hasegawa, M. Ishida, T. Nakajima, 
 Y. Honda, O. Kitao, H. Nakai, T. Vreven, J. A. Montgomery, Jr., 
 J. E. Peralta, F. Ogliaro, M. Bearpark, J. J. Heyd, E. Brothers, 
 K. N. Kudin, V. N. Staroverov, T. Keith, R. Kobayashi, J. Normand, 
 K. Raghavachari, A. Rendell, J. C. Burant, S. S. Iyengar, J. Tomasi, 
 M. Cossi, N. Rega, J. M. Millam, M. Klene, J. E. Knox, J. B. Cross, 
 V. Bakken, C. Adamo, J. Jaramillo, R. Gomperts, R. E. Stratmann, 
 O. Yazyev, A. J. Austin, R. Cammi, C. Pomelli, J. W. Ochterski, 
 R. L. Martin, K. Morokuma, V. G. Zakrzewski, G. A. Voth, 
 P. Salvador, J. J. Dannenberg, S. Dapprich, A. D. Daniels, 
 O. Farkas, J. B. Foresman, J. V. Ortiz, J. Cioslowski, 
 and D. J. Fox, Gaussian, Inc., Wallingford CT, 2013.
 
 ******************************************
 Gaussian 09:  ES64L-G09RevE.01 30-Nov-2015
                 8-Sep-2022 
 ******************************************
 %nproc=32
 Will use up to   32 processors via shared memory.
 %mem=180GB
 %chk=B3LYP6-31Gdp.Frag_677.chk
 ----------------------------
 #P OPT Freq B3LYP/6-31G(d,p)
 ----------------------------
 1/14=-1,18=20,19=15,26=3,38=1/1,3;
 2/9=110,12=2,17=6,18=5,40=1/2;
 3/5=1,6=6,7=101,11=2,16=1,25=1,30=1,71=1,74=-5/1,2,3;
 4//1;
 5/5=2,38=5/2;
 6/7=2,8=2,9=2,10=2,28=1/1;
 7//1,2,3,16;
 1/14=-1,18=20,19=15,26=3/3(2);
 2/9=110/2;
 99//99;
 2/9=110/2;
 3/5=1,6=6,7=101,11=2,16=1,25=1,30=1,71=1,74=-5/1,2,3;
 4/5=5,16=3,69=1/1;
 5/5=2,38=5/2;
 7//1,2,3,16;
 1/14=-1,18=20,19=15,26=3/3(-5);
 2/9=110/2;
 6/7=2,8=2,9=2,10=2,19=2,28=1/1;
 99/9=1/99;
 Leave Link    1 at Thu Sep  8 14:58:56 2022, MaxMem= 24159191040 cpu:         2.1
 (Enter /public/home/users/caep010/software/Gaussian09/g09/l101.exe)
 --------
 Frag_677
 --------
 Symbolic Z-matrix:
 Charge =  0 Multiplicity = 1
 C                    -0.79894  -1.19338  -0.78328 
 C                    -0.26372   0.21316  -0.49202 
 C                    -1.36397   1.13304   0.0527 
 C                     0.9393    0.18047   0.47571 
 N                     2.02281  -0.60511  -0.08338 
 O                     0.62715  -0.45141   1.71012 
 H                    -1.63505  -1.15255  -1.48871 
 H                    -0.01636  -1.83055  -1.19979 
 H                    -1.14943  -1.66225   0.14084 
 H                     0.10686   0.65481  -1.42964 
 H                    -2.18858   1.22372  -0.66064 
 H                    -1.78575   0.73273   0.9826 
 H                    -0.98754   2.14226   0.2568 
 H                     1.23135   1.23042   0.6861 
 H                     2.33125  -0.19744  -0.95998 
 H                     2.81112  -0.59071   0.55605 
 H                     0.1193    0.17279   2.23662 
 
 NAtoms=     17 NQM=       17 NQMF=       0 NMMI=      0 NMMIF=      0
                NMic=       0 NMicF=      0.
                    Isotopes and Nuclear Properties:
 (Nuclear quadrupole moments (NQMom) in fm**2, nuclear magnetic moments (NMagM)
  in nuclear magnetons)

  Atom         1           2           3           4           5           6           7           8           9          10
 IAtWgt=          12          12          12          12          14          16           1           1           1           1
 AtmWgt=  12.0000000  12.0000000  12.0000000  12.0000000  14.0030740  15.9949146   1.0078250   1.0078250   1.0078250   1.0078250
 NucSpn=           0           0           0           0           2           0           1           1           1           1
 AtZEff=   0.0000000   0.0000000   0.0000000   0.0000000   0.0000000   0.0000000   0.0000000   0.0000000   0.0000000   0.0000000
 NQMom=    0.0000000   0.0000000   0.0000000   0.0000000   2.0440000   0.0000000   0.0000000   0.0000000   0.0000000   0.0000000
 NMagM=    0.0000000   0.0000000   0.0000000   0.0000000   0.4037610   0.0000000   2.7928460   2.7928460   2.7928460   2.7928460
 AtZNuc=   6.0000000   6.0000000   6.0000000   6.0000000   7.0000000   8.0000000   1.0000000   1.0000000   1.0000000   1.0000000

  Atom        11          12          13          14          15          16          17
 IAtWgt=           1           1           1           1           1           1           1
 AtmWgt=   1.0078250   1.0078250   1.0078250   1.0078250   1.0078250   1.0078250   1.0078250
 NucSpn=           1           1           1           1           1           1           1
 AtZEff=   0.0000000   0.0000000   0.0000000   0.0000000   0.0000000   0.0000000   0.0000000
 NQMom=    0.0000000   0.0000000   0.0000000   0.0000000   0.0000000   0.0000000   0.0000000
 NMagM=    2.7928460   2.7928460   2.7928460   2.7928460   2.7928460   2.7928460   2.7928460
 AtZNuc=   1.0000000   1.0000000   1.0000000   1.0000000   1.0000000   1.0000000   1.0000000
 Leave Link  101 at Thu Sep  8 14:58:57 2022, MaxMem= 24159191040 cpu:        10.6
 (Enter /public/home/users/caep010/software/Gaussian09/g09/l103.exe)

 GradGradGradGradGradGradGradGradGradGradGradGradGradGradGradGradGradGrad
 Berny optimization.
 Initialization pass.
                           ----------------------------
                           !    Initial Parameters    !
                           ! (Angstroms and Degrees)  !
 --------------------------                            --------------------------
 ! Name  Definition              Value          Derivative Info.                !
 --------------------------------------------------------------------------------
 ! R1    R(1,2)                  1.5328         estimate D2E/DX2                !
 ! R2    R(1,7)                  1.0947         estimate D2E/DX2                !
 ! R3    R(1,8)                  1.0917         estimate D2E/DX2                !
 ! R4    R(1,9)                  1.0939         estimate D2E/DX2                !
 ! R5    R(2,3)                  1.5341         estimate D2E/DX2                !
 ! R6    R(2,4)                  1.5443         estimate D2E/DX2                !
 ! R7    R(2,10)                 1.1007         estimate D2E/DX2                !
 ! R8    R(3,11)                 1.0941         estimate D2E/DX2                !
 ! R9    R(3,12)                 1.0968         estimate D2E/DX2                !
 ! R10   R(3,13)                 1.0963         estimate D2E/DX2                !
 ! R11   R(4,5)                  1.4504         estimate D2E/DX2                !
 ! R12   R(4,6)                  1.4214         estimate D2E/DX2                !
 ! R13   R(4,14)                 1.1099         estimate D2E/DX2                !
 ! R14   R(5,15)                 1.0148         estimate D2E/DX2                !
 ! R15   R(5,16)                 1.0151         estimate D2E/DX2                !
 ! R16   R(6,17)                 0.9616         estimate D2E/DX2                !
 ! A1    A(2,1,7)              110.7875         estimate D2E/DX2                !
 ! A2    A(2,1,8)              110.9615         estimate D2E/DX2                !
 ! A3    A(2,1,9)              110.1604         estimate D2E/DX2                !
 ! A4    A(7,1,8)              108.8692         estimate D2E/DX2                !
 ! A5    A(7,1,9)              108.3995         estimate D2E/DX2                !
 ! A6    A(8,1,9)              107.5662         estimate D2E/DX2                !
 ! A7    A(1,2,3)              111.5467         estimate D2E/DX2                !
 ! A8    A(1,2,4)              111.8176         estimate D2E/DX2                !
 ! A9    A(1,2,10)             108.8978         estimate D2E/DX2                !
 ! A10   A(3,2,4)              110.4195         estimate D2E/DX2                !
 ! A11   A(3,2,10)             107.6579         estimate D2E/DX2                !
 ! A12   A(4,2,10)             106.262          estimate D2E/DX2                !
 ! A13   A(2,3,11)             111.0228         estimate D2E/DX2                !
 ! A14   A(2,3,12)             110.9776         estimate D2E/DX2                !
 ! A15   A(2,3,13)             111.8291         estimate D2E/DX2                !
 ! A16   A(11,3,12)            107.0503         estimate D2E/DX2                !
 ! A17   A(11,3,13)            107.6903         estimate D2E/DX2                !
 ! A18   A(12,3,13)            108.0713         estimate D2E/DX2                !
 ! A19   A(2,4,5)              110.6013         estimate D2E/DX2                !
 ! A20   A(2,4,6)              112.4911         estimate D2E/DX2                !
 ! A21   A(2,4,14)             107.6824         estimate D2E/DX2                !
 ! A22   A(5,4,6)              104.9526         estimate D2E/DX2                !
 ! A23   A(5,4,14)             112.8835         estimate D2E/DX2                !
 ! A24   A(6,4,14)             108.2812         estimate D2E/DX2                !
 ! A25   A(4,5,15)             110.0261         estimate D2E/DX2                !
 ! A26   A(4,5,16)             109.2463         estimate D2E/DX2                !
 ! A27   A(15,5,16)            107.6012         estimate D2E/DX2                !
 ! A28   A(4,6,17)             107.6312         estimate D2E/DX2                !
 ! D1    D(7,1,2,3)             57.1511         estimate D2E/DX2                !
 ! D2    D(7,1,2,4)           -178.6468         estimate D2E/DX2                !
 ! D3    D(7,1,2,10)           -61.5261         estimate D2E/DX2                !
 ! D4    D(8,1,2,3)            178.2069         estimate D2E/DX2                !
 ! D5    D(8,1,2,4)            -57.591          estimate D2E/DX2                !
 ! D6    D(8,1,2,10)            59.5297         estimate D2E/DX2                !
 ! D7    D(9,1,2,3)            -62.7845         estimate D2E/DX2                !
 ! D8    D(9,1,2,4)             61.4176         estimate D2E/DX2                !
 ! D9    D(9,1,2,10)           178.5383         estimate D2E/DX2                !
 ! D10   D(1,2,3,11)           -59.3396         estimate D2E/DX2                !
 ! D11   D(1,2,3,12)            59.5925         estimate D2E/DX2                !
 ! D12   D(1,2,3,13)          -179.6463         estimate D2E/DX2                !
 ! D13   D(4,2,3,11)           175.6753         estimate D2E/DX2                !
 ! D14   D(4,2,3,12)           -65.3927         estimate D2E/DX2                !
 ! D15   D(4,2,3,13)            55.3686         estimate D2E/DX2                !
 ! D16   D(10,2,3,11)           60.075          estimate D2E/DX2                !
 ! D17   D(10,2,3,12)          179.007          estimate D2E/DX2                !
 ! D18   D(10,2,3,13)          -60.2317         estimate D2E/DX2                !
 ! D19   D(1,2,4,5)             59.5679         estimate D2E/DX2                !
 ! D20   D(1,2,4,6)            -57.431          estimate D2E/DX2                !
 ! D21   D(1,2,4,14)          -176.6621         estimate D2E/DX2                !
 ! D22   D(3,2,4,5)           -175.6013         estimate D2E/DX2                !
 ! D23   D(3,2,4,6)             67.3998         estimate D2E/DX2                !
 ! D24   D(3,2,4,14)           -51.8312         estimate D2E/DX2                !
 ! D25   D(10,2,4,5)           -59.1296         estimate D2E/DX2                !
 ! D26   D(10,2,4,6)          -176.1285         estimate D2E/DX2                !
 ! D27   D(10,2,4,14)           64.6405         estimate D2E/DX2                !
 ! D28   D(2,4,5,15)            60.4641         estimate D2E/DX2                !
 ! D29   D(2,4,5,16)           178.379          estimate D2E/DX2                !
 ! D30   D(6,4,5,15)          -177.9763         estimate D2E/DX2                !
 ! D31   D(6,4,5,16)           -60.0614         estimate D2E/DX2                !
 ! D32   D(14,4,5,15)          -60.2577         estimate D2E/DX2                !
 ! D33   D(14,4,5,16)           57.6573         estimate D2E/DX2                !
 ! D34   D(2,4,6,17)           -77.0109         estimate D2E/DX2                !
 ! D35   D(5,4,6,17)           162.6745         estimate D2E/DX2                !
 ! D36   D(14,4,6,17)           41.8704         estimate D2E/DX2                !
 --------------------------------------------------------------------------------
 Trust Radius=3.00D-01 FncErr=1.00D-07 GrdErr=1.00D-06
 Number of steps in this run=     90 maximum allowed number of steps=    102.
 GradGradGradGradGradGradGradGradGradGradGradGradGradGradGradGradGradGrad

 Leave Link  103 at Thu Sep  8 14:58:57 2022, MaxMem= 24159191040 cpu:         0.6
 (Enter /public/home/users/caep010/software/Gaussian09/g09/l202.exe)
                          Input orientation:                          
 ---------------------------------------------------------------------
 Center     Atomic      Atomic             Coordinates (Angstroms)
 Number     Number       Type             X           Y           Z
 ---------------------------------------------------------------------
      1          6           0       -0.798936   -1.193378   -0.783278
      2          6           0       -0.263718    0.213156   -0.492021
      3          6           0       -1.363970    1.133040    0.052696
      4          6           0        0.939297    0.180470    0.475706
      5          7           0        2.022807   -0.605111   -0.083375
      6          8           0        0.627153   -0.451414    1.710117
      7          1           0       -1.635052   -1.152547   -1.488710
      8          1           0       -0.016360   -1.830552   -1.199790
      9          1           0       -1.149432   -1.662247    0.140838
     10          1           0        0.106857    0.654806   -1.429639
     11          1           0       -2.188580    1.223724   -0.660644
     12          1           0       -1.785745    0.732725    0.982604
     13          1           0       -0.987538    2.142260    0.256799
     14          1           0        1.231347    1.230420    0.686101
     15          1           0        2.331249   -0.197436   -0.959982
     16          1           0        2.811123   -0.590707    0.556053
     17          1           0        0.119299    0.172791    2.236623
 ---------------------------------------------------------------------
                    Distance matrix (angstroms):
                    1          2          3          4          5
     1  C    0.000000
     2  C    1.532849   0.000000
     3  C    2.535811   1.534098   0.000000
     4  C    2.548324   1.544283   2.528115   0.000000
     5  N    2.966169   2.462671   3.809192   1.450415   0.000000
     6  O    2.966692   2.466722   3.036793   1.421437   2.277737
     7  H    1.094711   2.176945   2.770077   3.501876   3.956588
     8  H    1.091741   2.176894   3.488216   2.786535   2.627982
     9  H    1.093927   2.168441   2.804893   2.805447   3.351255
    10  H    2.157320   1.100685   2.142278   2.132672   2.659075
    11  H    2.790794   2.180545   1.094102   3.487590   4.627489
    12  H    2.793207   2.181980   1.096757   2.826267   4.175067
    13  H    3.499116   2.192279   1.096305   2.758484   4.089736
    14  H    3.486534   2.158244   2.673267   1.109934   2.141886
    15  H    3.289557   2.668600   4.055900   2.035078   1.014778
    16  H    3.897377   3.346536   4.544895   2.026056   1.015144
    17  H    3.439386   2.755690   2.809217   1.942494   3.100140
                    6          7          8          9         10
     6  O    0.000000
     7  H    3.980157   0.000000
     8  H    3.283853   1.778575   0.000000
     9  H    2.661768   1.775119   1.763367   0.000000
    10  H    3.369347   2.510829   2.499003   3.068126   0.000000
    11  H    4.044125   2.576577   3.786531   3.170336   2.486775
    12  H    2.784517   3.111969   3.803151   2.617127   3.067072
    13  H    3.383268   3.784419   4.341437   3.809715   2.500858
    14  H    2.059666   4.315620   3.805641   3.785887   2.464176
    15  H    3.177716   4.113798   2.869816   3.933525   2.427924
    16  H    2.474064   4.925971   3.551740   4.123906   3.578733
    17  H    0.961642   4.325780   3.980040   3.060941   3.697833
                   11         12         13         14         15
    11  H    0.000000
    12  H    1.761709   0.000000
    13  H    1.768590   1.775026   0.000000
    14  H    3.675550   3.072207   2.437048   0.000000
    15  H    4.747436   4.646340   4.238995   2.440931   0.000000
    16  H    5.456147   4.802563   4.689188   2.414355   1.638079
    17  H    3.850314   2.348464   3.003931   2.181593   3.904878
                   16         17
    16  H    0.000000
    17  H    3.263918   0.000000
 Stoichiometry    C4H11NO
 Framework group  C1[X(C4H11NO)]
 Deg. of freedom    45
 Full point group                 C1      NOp   1
 Largest Abelian subgroup         C1      NOp   1
 Largest concise Abelian subgroup C1      NOp   1
                         Standard orientation:                         
 ---------------------------------------------------------------------
 Center     Atomic      Atomic             Coordinates (Angstroms)
 Number     Number       Type             X           Y           Z
 ---------------------------------------------------------------------
      1          6           0        0.887356    1.336907    0.676037
      2          6           0        0.672542    0.290874   -0.423643
      3          6           0        1.777037   -0.773745   -0.412059
      4          6           0       -0.717534   -0.373759   -0.319907
      5          7           0       -1.768048    0.619748   -0.434219
      6          8           0       -0.932282   -0.991020    0.942374
      7          1           0        1.867221    1.813903    0.572456
      8          1           0        0.114200    2.106819    0.639119
      9          1           0        0.835834    0.864246    1.661235
     10          1           0        0.702212    0.792105   -1.403131
     11          1           0        2.761244   -0.319885   -0.561751
     12          1           0        1.807531   -1.297420    0.551118
     13          1           0        1.631290   -1.520951   -1.200935
     14          1           0       -0.776419   -1.156423   -1.104715
     15          1           0       -1.706448    1.088922   -1.331914
     16          1           0       -2.671202    0.158332   -0.390344
     17          1           0       -0.447276   -1.821385    0.946831
 ---------------------------------------------------------------------
 Rotational constants (GHZ):      4.5566869      2.7311349      2.3228415
 Leave Link  202 at Thu Sep  8 14:58:57 2022, MaxMem= 24159191040 cpu:         1.2
 (Enter /public/home/users/caep010/software/Gaussian09/g09/l301.exe)
 Standard basis: 6-31G(d,p) (6D, 7F)
 Ernie: Thresh=  0.10000D-02 Tol=  0.10000D-05 Strict=F.
 There are   145 symmetry adapted cartesian basis functions of A   symmetry.
 There are   145 symmetry adapted basis functions of A   symmetry.
   145 basis functions,   245 primitive gaussians,   145 cartesian basis functions
    25 alpha electrons       25 beta electrons
       nuclear repulsion energy       267.5044644486 Hartrees.
 IExCor=  402 DFT=T Ex+Corr=B3LYP ExCW=0 ScaHFX=  0.200000
 ScaDFX=  0.800000  0.720000  1.000000  0.810000 ScalE2=  1.000000  1.000000
 IRadAn=      0 IRanWt=     -1 IRanGd=            0 ICorTp=0 IEmpDi=  4
 NAtoms=   17 NActive=   17 NUniq=   17 SFac= 1.00D+00 NAtFMM=   60 NAOKFM=F Big=F
 Integral buffers will be    131072 words long.
 Raffenetti 2 integral format.
 Two-electron integral symmetry is turned on.
 Leave Link  301 at Thu Sep  8 14:58:57 2022, MaxMem= 24159191040 cpu:         2.1
 (Enter /public/home/users/caep010/software/Gaussian09/g09/l302.exe)
 NPDir=0 NMtPBC=     1 NCelOv=     1 NCel=       1 NClECP=     1 NCelD=      1
         NCelK=      1 NCelE2=     1 NClLst=     1 CellRange=     0.0.
 One-electron integrals computed using PRISM.
 NBasis=   145 RedAO= T EigKep=  3.00D-03  NBF=   145
 NBsUse=   145 1.00D-06 EigRej= -1.00D+00 NBFU=   145
 Precomputing XC quadrature grid using
 IXCGrd= 4 IRadAn=           0 IRanWt=          -1 IRanGd=           0 AccXCQ= 0.00D+00.
 Generated NRdTot=       0 NPtTot=           0 NUsed=           0 NTot=          32
 NSgBfM=   145   145   145   145   145 MxSgAt=    17 MxSgA2=    17.
 Leave Link  302 at Thu Sep  8 14:58:57 2022, MaxMem= 24159191040 cpu:        11.6
 (Enter /public/home/users/caep010/software/Gaussian09/g09/l303.exe)
 DipDrv:  MaxL=1.
 Leave Link  303 at Thu Sep  8 14:58:57 2022, MaxMem= 24159191040 cpu:         0.7
 (Enter /public/home/users/caep010/software/Gaussian09/g09/l401.exe)
 ExpMin= 1.61D-01 ExpMax= 5.48D+03 ExpMxC= 8.25D+02 IAcc=1 IRadAn=         1 AccDes= 0.00D+00
 Harris functional with IExCor=  402 and IRadAn=       1 diagonalized for initial guess.
 HarFok:  IExCor=  402 AccDes= 0.00D+00 IRadAn=         1 IDoV= 1 UseB2=F ITyADJ=14
 ICtDFT=  3500011 ScaDFX=  1.000000  1.000000  1.000000  1.000000
 FoFCou: FMM=F IPFlag=           0 FMFlag=      100000 FMFlg1=           0
         NFxFlg=           0 DoJE=T BraDBF=F KetDBF=T FulRan=T
         wScrn=  0.000000 ICntrl=     500 IOpCl=  0 I1Cent=   200000004 NGrid=           0
         NMat0=    1 NMatS0=      1 NMatT0=    0 NMatD0=    1 NMtDS0=    0 NMtDT0=    0
 Petite list used in FoFCou.
 Harris En= -289.094622451317    
 JPrj=0 DoOrth=F DoCkMO=F.
 Leave Link  401 at Thu Sep  8 14:58:58 2022, MaxMem= 24159191040 cpu:        10.4
 (Enter /public/home/users/caep010/software/Gaussian09/g09/l502.exe)
 Closed shell SCF:
 Using DIIS extrapolation, IDIIS=  1040.
 Integral symmetry usage will be decided dynamically.
 Keep R1 ints in memory in canonical form, NReq=57669771.
 IVT=       87371 IEndB=       87371 NGot= 24159191040 MDV= 24103077265
 LenX= 24103077265 LenY= 24103055799
 Requested convergence on RMS density matrix=1.00D-08 within 128 cycles.
 Requested convergence on MAX density matrix=1.00D-06.
 Requested convergence on             energy=1.00D-06.
 No special actions if energy rises.
 FoFCou: FMM=F IPFlag=           0 FMFlag=           0 FMFlg1=           0
         NFxFlg=           0 DoJE=F BraDBF=F KetDBF=F FulRan=T
         wScrn=  0.000000 ICntrl=     600 IOpCl=  0 I1Cent=           0 NGrid=           0
         NMat0=    1 NMatS0=  10585 NMatT0=    0 NMatD0=    1 NMtDS0=    0 NMtDT0=    0
 Symmetry not used in FoFCou.
 Integral accuracy reduced to 1.0D-05 until final iterations.

 Cycle   1  Pass 0  IDiag  1:
 E= -288.780435264811    
 DIIS: error= 2.52D-02 at cycle   1 NSaved=   1.
 NSaved= 1 IEnMin= 1 EnMin= -288.780435264811     IErMin= 1 ErrMin= 2.52D-02
 ErrMax= 2.52D-02  0.00D+00 EMaxC= 1.00D-01 BMatC= 2.62D-01 BMatP= 2.62D-01
 IDIUse=3 WtCom= 7.48D-01 WtEn= 2.52D-01
 Coeff-Com:  0.100D+01
 Coeff-En:   0.100D+01
 Coeff:      0.100D+01
 Gap=     0.220 Goal=   None    Shift=    0.000
 GapD=    0.220 DampG=1.000 DampE=0.500 DampFc=0.5000 IDamp=-1.
 Damping current iteration by 5.00D-01
 RMSDP=7.94D-03 MaxDP=1.64D-01              OVMax= 1.71D-01

 Cycle   2  Pass 0  IDiag  1:
 E= -288.883272464770     Delta-E=       -0.102837199959 Rises=F Damp=T
 DIIS: error= 8.73D-03 at cycle   2 NSaved=   2.
 NSaved= 2 IEnMin= 2 EnMin= -288.883272464770     IErMin= 2 ErrMin= 8.73D-03
 ErrMax= 8.73D-03  0.00D+00 EMaxC= 1.00D-01 BMatC= 1.46D-02 BMatP= 2.62D-01
 IDIUse=3 WtCom= 9.13D-01 WtEn= 8.73D-02
 Coeff-Com:  0.125D+00 0.875D+00
 Coeff-En:   0.201D+00 0.799D+00
 Coeff:      0.132D+00 0.868D+00
 Gap=     0.299 Goal=   None    Shift=    0.000
 RMSDP=1.36D-03 MaxDP=2.58D-02 DE=-1.03D-01 OVMax= 1.06D-01

 Cycle   3  Pass 0  IDiag  1:
 E= -289.031407269554     Delta-E=       -0.148134804784 Rises=F Damp=F
 DIIS: error= 3.11D-03 at cycle   3 NSaved=   3.
 NSaved= 3 IEnMin= 3 EnMin= -289.031407269554     IErMin= 3 ErrMin= 3.11D-03
 ErrMax= 3.11D-03  0.00D+00 EMaxC= 1.00D-01 BMatC= 2.62D-03 BMatP= 1.46D-02
 IDIUse=3 WtCom= 9.69D-01 WtEn= 3.11D-02
 Coeff-Com:  0.201D-01 0.269D+00 0.711D+00
 Coeff-En:   0.000D+00 0.000D+00 0.100D+01
 Coeff:      0.194D-01 0.260D+00 0.720D+00
 Gap=     0.297 Goal=   None    Shift=    0.000
 RMSDP=5.10D-04 MaxDP=1.28D-02 DE=-1.48D-01 OVMax= 1.25D-02

 Cycle   4  Pass 0  IDiag  1:
 E= -289.032705446630     Delta-E=       -0.001298177076 Rises=F Damp=F
 DIIS: error= 1.91D-03 at cycle   4 NSaved=   4.
 NSaved= 4 IEnMin= 4 EnMin= -289.032705446630     IErMin= 4 ErrMin= 1.91D-03
 ErrMax= 1.91D-03  0.00D+00 EMaxC= 1.00D-01 BMatC= 1.10D-03 BMatP= 2.62D-03
 IDIUse=3 WtCom= 9.81D-01 WtEn= 1.91D-02
 Coeff-Com:  0.201D-03 0.527D-01 0.400D+00 0.547D+00
 Coeff-En:   0.000D+00 0.000D+00 0.293D+00 0.707D+00
 Coeff:      0.197D-03 0.517D-01 0.398D+00 0.550D+00
 Gap=     0.297 Goal=   None    Shift=    0.000
 RMSDP=2.24D-04 MaxDP=6.06D-03 DE=-1.30D-03 OVMax= 5.51D-03

 Cycle   5  Pass 0  IDiag  1:
 E= -289.033592199940     Delta-E=       -0.000886753310 Rises=F Damp=F
 DIIS: error= 2.93D-04 at cycle   5 NSaved=   5.
 NSaved= 5 IEnMin= 5 EnMin= -289.033592199940     IErMin= 5 ErrMin= 2.93D-04
 ErrMax= 2.93D-04  0.00D+00 EMaxC= 1.00D-01 BMatC= 3.25D-05 BMatP= 1.10D-03
 IDIUse=3 WtCom= 9.97D-01 WtEn= 2.93D-03
 Coeff-Com: -0.751D-03 0.435D-02 0.119D+00 0.227D+00 0.651D+00
 Coeff-En:   0.000D+00 0.000D+00 0.000D+00 0.000D+00 0.100D+01
 Coeff:     -0.749D-03 0.434D-02 0.118D+00 0.226D+00 0.652D+00
 Gap=     0.298 Goal=   None    Shift=    0.000
 RMSDP=4.30D-05 MaxDP=9.55D-04 DE=-8.87D-04 OVMax= 1.03D-03

 Cycle   6  Pass 0  IDiag  1:
 E= -289.033616437718     Delta-E=       -0.000024237778 Rises=F Damp=F
 DIIS: error= 9.43D-05 at cycle   6 NSaved=   6.
 NSaved= 6 IEnMin= 6 EnMin= -289.033616437718     IErMin= 6 ErrMin= 9.43D-05
 ErrMax= 9.43D-05  0.00D+00 EMaxC= 1.00D-01 BMatC= 3.16D-06 BMatP= 3.25D-05
 IDIUse=1 WtCom= 1.00D+00 WtEn= 0.00D+00
 Coeff-Com: -0.301D-03-0.354D-03 0.432D-01 0.927D-01 0.340D+00 0.525D+00
 Coeff:     -0.301D-03-0.354D-03 0.432D-01 0.927D-01 0.340D+00 0.525D+00
 Gap=     0.297 Goal=   None    Shift=    0.000
 RMSDP=1.11D-05 MaxDP=2.89D-04 DE=-2.42D-05 OVMax= 3.52D-04

 Cycle   7  Pass 0  IDiag  1:
 E= -289.033619087713     Delta-E=       -0.000002649994 Rises=F Damp=F
 DIIS: error= 1.48D-05 at cycle   7 NSaved=   7.
 NSaved= 7 IEnMin= 7 EnMin= -289.033619087713     IErMin= 7 ErrMin= 1.48D-05
 ErrMax= 1.48D-05  0.00D+00 EMaxC= 1.00D-01 BMatC= 7.56D-08 BMatP= 3.16D-06
 IDIUse=1 WtCom= 1.00D+00 WtEn= 0.00D+00
 Coeff-Com: -0.392D-04-0.440D-03 0.974D-02 0.227D-01 0.935D-01 0.206D+00
 Coeff-Com:  0.669D+00
 Coeff:     -0.392D-04-0.440D-03 0.974D-02 0.227D-01 0.935D-01 0.206D+00
 Coeff:      0.669D+00
 Gap=     0.297 Goal=   None    Shift=    0.000
 RMSDP=2.50D-06 MaxDP=4.83D-05 DE=-2.65D-06 OVMax= 6.09D-05

 Initial convergence to 1.0D-05 achieved.  Increase integral accuracy.
 Cycle   8  Pass 1  IDiag  1:
 E= -289.033640520846     Delta-E=       -0.000021433133 Rises=F Damp=F
 DIIS: error= 1.62D-05 at cycle   1 NSaved=   1.
 NSaved= 1 IEnMin= 1 EnMin= -289.033640520846     IErMin= 1 ErrMin= 1.62D-05
 ErrMax= 1.62D-05  0.00D+00 EMaxC= 1.00D-01 BMatC= 9.81D-08 BMatP= 9.81D-08
 IDIUse=1 WtCom= 1.00D+00 WtEn= 0.00D+00
 Coeff-Com:  0.100D+01
 Coeff:      0.100D+01
 Gap=     0.297 Goal=   None    Shift=    0.000
 RMSDP=2.50D-06 MaxDP=4.83D-05 DE=-2.14D-05 OVMax= 9.02D-05

 Cycle   9  Pass 1  IDiag  1:
 E= -289.033640632978     Delta-E=       -0.000000112133 Rises=F Damp=F
 DIIS: error= 6.09D-06 at cycle   2 NSaved=   2.
 NSaved= 2 IEnMin= 2 EnMin= -289.033640632978     IErMin= 2 ErrMin= 6.09D-06
 ErrMax= 6.09D-06  0.00D+00 EMaxC= 1.00D-01 BMatC= 1.25D-08 BMatP= 9.81D-08
 IDIUse=1 WtCom= 1.00D+00 WtEn= 0.00D+00
 Coeff-Com:  0.144D+00 0.856D+00
 Coeff:      0.144D+00 0.856D+00
 Gap=     0.297 Goal=   None    Shift=    0.000
 RMSDP=1.55D-06 MaxDP=3.66D-05 DE=-1.12D-07 OVMax= 4.46D-05

 Cycle  10  Pass 1  IDiag  1:
 E= -289.033640633171     Delta-E=       -0.000000000193 Rises=F Damp=F
 DIIS: error= 6.16D-06 at cycle   3 NSaved=   3.
 NSaved= 3 IEnMin= 3 EnMin= -289.033640633171     IErMin= 2 ErrMin= 6.09D-06
 ErrMax= 6.16D-06  0.00D+00 EMaxC= 1.00D-01 BMatC= 1.30D-08 BMatP= 1.25D-08
 IDIUse=1 WtCom= 1.00D+00 WtEn= 0.00D+00
 Coeff-Com: -0.221D-01 0.509D+00 0.513D+00
 Coeff:     -0.221D-01 0.509D+00 0.513D+00
 Gap=     0.297 Goal=   None    Shift=    0.000
 RMSDP=7.50D-07 MaxDP=2.16D-05 DE=-1.93D-10 OVMax= 2.40D-05

 Cycle  11  Pass 1  IDiag  1:
 E= -289.033640644497     Delta-E=       -0.000000011325 Rises=F Damp=F
 DIIS: error= 4.57D-07 at cycle   4 NSaved=   4.
 NSaved= 4 IEnMin= 4 EnMin= -289.033640644497     IErMin= 4 ErrMin= 4.57D-07
 ErrMax= 4.57D-07  0.00D+00 EMaxC= 1.00D-01 BMatC= 8.51D-11 BMatP= 1.25D-08
 IDIUse=1 WtCom= 1.00D+00 WtEn= 0.00D+00
 Coeff-Com: -0.108D-01 0.176D+00 0.192D+00 0.644D+00
 Coeff:     -0.108D-01 0.176D+00 0.192D+00 0.644D+00
 Gap=     0.297 Goal=   None    Shift=    0.000
 RMSDP=8.11D-08 MaxDP=1.75D-06 DE=-1.13D-08 OVMax= 1.95D-06

 Cycle  12  Pass 1  IDiag  1:
 E= -289.033640644570     Delta-E=       -0.000000000073 Rises=F Damp=F
 DIIS: error= 1.30D-07 at cycle   5 NSaved=   5.
 NSaved= 5 IEnMin= 5 EnMin= -289.033640644570     IErMin= 5 ErrMin= 1.30D-07
 ErrMax= 1.30D-07  0.00D+00 EMaxC= 1.00D-01 BMatC= 7.69D-12 BMatP= 8.51D-11
 IDIUse=1 WtCom= 1.00D+00 WtEn= 0.00D+00
 Coeff-Com: -0.282D-02 0.389D-01 0.447D-01 0.267D+00 0.652D+00
 Coeff:     -0.282D-02 0.389D-01 0.447D-01 0.267D+00 0.652D+00
 Gap=     0.297 Goal=   None    Shift=    0.000
 RMSDP=2.30D-08 MaxDP=5.17D-07 DE=-7.28D-11 OVMax= 6.05D-07

 Cycle  13  Pass 1  IDiag  1:
 E= -289.033640644575     Delta-E=       -0.000000000005 Rises=F Damp=F
 DIIS: error= 5.56D-08 at cycle   6 NSaved=   6.
 NSaved= 6 IEnMin= 6 EnMin= -289.033640644575     IErMin= 6 ErrMin= 5.56D-08
 ErrMax= 5.56D-08  0.00D+00 EMaxC= 1.00D-01 BMatC= 1.04D-12 BMatP= 7.69D-12
 IDIUse=1 WtCom= 1.00D+00 WtEn= 0.00D+00
 Coeff-Com: -0.411D-03 0.248D-02 0.375D-02 0.657D-01 0.321D+00 0.607D+00
 Coeff:     -0.411D-03 0.248D-02 0.375D-02 0.657D-01 0.321D+00 0.607D+00
 Gap=     0.297 Goal=   None    Shift=    0.000
 RMSDP=8.76D-09 MaxDP=1.82D-07 DE=-5.23D-12 OVMax= 2.20D-07

 SCF Done:  E(RB3LYP) =  -289.033640645     A.U. after   13 cycles
            NFock= 13  Conv=0.88D-08     -V/T= 2.0093
 KE= 2.863668392380D+02 PE=-1.207998407544D+03 EE= 3.650934632130D+02
 Leave Link  502 at Thu Sep  8 14:59:01 2022, MaxMem= 24159191040 cpu:        55.8
 (Enter /public/home/users/caep010/software/Gaussian09/g09/l601.exe)
 Copying SCF densities to generalized density rwf, IOpCl= 0 IROHF=0.

 **********************************************************************

            Population analysis using the SCF density.

 **********************************************************************

 Orbital symmetries:
       Occupied  (A) (A) (A) (A) (A) (A) (A) (A) (A) (A) (A) (A)
                 (A) (A) (A) (A) (A) (A) (A) (A) (A) (A) (A) (A)
                 (A)
       Virtual   (A) (A) (A) (A) (A) (A) (A) (A) (A) (A) (A) (A)
                 (A) (A) (A) (A) (A) (A) (A) (A) (A) (A) (A) (A)
                 (A) (A) (A) (A) (A) (A) (A) (A) (A) (A) (A) (A)
                 (A) (A) (A) (A) (A) (A) (A) (A) (A) (A) (A) (A)
                 (A) (A) (A) (A) (A) (A) (A) (A) (A) (A) (A) (A)
                 (A) (A) (A) (A) (A) (A) (A) (A) (A) (A) (A) (A)
                 (A) (A) (A) (A) (A) (A) (A) (A) (A) (A) (A) (A)
                 (A) (A) (A) (A) (A) (A) (A) (A) (A) (A) (A) (A)
                 (A) (A) (A) (A) (A) (A) (A) (A) (A) (A) (A) (A)
                 (A) (A) (A) (A) (A) (A) (A) (A) (A) (A) (A) (A)
 The electronic state is 1-A.
 Alpha  occ. eigenvalues --  -19.14038 -14.31000 -10.25498 -10.18326 -10.17610
 Alpha  occ. eigenvalues --  -10.15753  -1.02238  -0.87222  -0.78272  -0.67608
 Alpha  occ. eigenvalues --   -0.64517  -0.56650  -0.50820  -0.47960  -0.46174
 Alpha  occ. eigenvalues --   -0.42737  -0.42185  -0.38549  -0.37363  -0.35696
 Alpha  occ. eigenvalues --   -0.34053  -0.32855  -0.32032  -0.26973  -0.23318
 Alpha virt. eigenvalues --    0.06418   0.09667   0.12395   0.13710   0.14662
 Alpha virt. eigenvalues --    0.15616   0.17303   0.18451   0.19110   0.19820
 Alpha virt. eigenvalues --    0.21008   0.22144   0.25438   0.26438   0.26979
 Alpha virt. eigenvalues --    0.30450   0.50949   0.51677   0.54712   0.55533
 Alpha virt. eigenvalues --    0.56357   0.62447   0.65928   0.66205   0.70174
 Alpha virt. eigenvalues --    0.71128   0.72046   0.73823   0.76950   0.80431
 Alpha virt. eigenvalues --    0.82773   0.84980   0.87907   0.88078   0.88429
 Alpha virt. eigenvalues --    0.89776   0.90850   0.92118   0.94176   0.95498
 Alpha virt. eigenvalues --    0.97140   0.99413   1.02809   1.04392   1.07936
 Alpha virt. eigenvalues --    1.21603   1.25207   1.28153   1.32057   1.38466
 Alpha virt. eigenvalues --    1.44573   1.46943   1.55300   1.56023   1.58634
 Alpha virt. eigenvalues --    1.66487   1.69080   1.74044   1.74545   1.82549
 Alpha virt. eigenvalues --    1.84207   1.87292   1.88341   1.93512   1.99295
 Alpha virt. eigenvalues --    2.00940   2.03668   2.05202   2.06610   2.09147
 Alpha virt. eigenvalues --    2.10024   2.12059   2.13482   2.14897   2.17572
 Alpha virt. eigenvalues --    2.19454   2.23932   2.29002   2.32295   2.33173
 Alpha virt. eigenvalues --    2.35768   2.40066   2.41277   2.45804   2.51117
 Alpha virt. eigenvalues --    2.55608   2.59544   2.62584   2.66435   2.67732
 Alpha virt. eigenvalues --    2.70584   2.70999   2.72567   2.75939   2.80295
 Alpha virt. eigenvalues --    2.82381   2.88777   2.90851   2.91396   2.94552
 Alpha virt. eigenvalues --    2.97904   3.00975   3.06151   3.18988   3.24379
 Alpha virt. eigenvalues --    3.29542   3.34122   3.39491   3.43315   3.46465
 Alpha virt. eigenvalues --    3.48013   3.49239   3.50217   3.53893   3.93608
 Alpha virt. eigenvalues --    4.05324   4.38292   4.52807   4.60514   4.72116
          Condensed to atoms (all electrons):
               1          2          3          4          5          6
     1  C    4.938779   0.366072  -0.051761  -0.036461  -0.011012  -0.006917
     2  C    0.366072   5.038915   0.357954   0.326735  -0.062663  -0.044173
     3  C   -0.051761   0.357954   4.976476  -0.034738   0.004217  -0.004501
     4  C   -0.036461   0.326735  -0.034738   4.658213   0.309120   0.224732
     5  N   -0.011012  -0.062663   0.004217   0.309120   6.801050  -0.063295
     6  O   -0.006917  -0.044173  -0.004501   0.224732  -0.063295   8.170886
     7  H    0.375163  -0.033311  -0.004319   0.005077   0.000200   0.000134
     8  H    0.380618  -0.029053   0.005008  -0.006160   0.012936  -0.000272
     9  H    0.383932  -0.035718  -0.005831  -0.009058   0.000372   0.011018
    10  H   -0.043333   0.358502  -0.042001  -0.035641  -0.002567   0.003889
    11  H   -0.003339  -0.026761   0.381731   0.004344  -0.000095   0.000108
    12  H   -0.006221  -0.037452   0.374271  -0.007112   0.000085   0.006251
    13  H    0.005309  -0.032453   0.372891  -0.004015  -0.000010  -0.000398
    14  H    0.006990  -0.084036  -0.005029   0.387524  -0.057343  -0.052114
    15  H    0.000209  -0.001961  -0.000125  -0.031223   0.328236   0.004452
    16  H    0.000152   0.007684  -0.000272  -0.025979   0.323693   0.004622
    17  H    0.000238  -0.005206   0.003896  -0.019693   0.006617   0.278790
               7          8          9         10         11         12
     1  C    0.375163   0.380618   0.383932  -0.043333  -0.003339  -0.006221
     2  C   -0.033311  -0.029053  -0.035718   0.358502  -0.026761  -0.037452
     3  C   -0.004319   0.005008  -0.005831  -0.042001   0.381731   0.374271
     4  C    0.005077  -0.006160  -0.009058  -0.035641   0.004344  -0.007112
     5  N    0.000200   0.012936   0.000372  -0.002567  -0.000095   0.000085
     6  O    0.000134  -0.000272   0.011018   0.003889   0.000108   0.006251
     7  H    0.636477  -0.030757  -0.033112  -0.004182   0.003656  -0.000227
     8  H   -0.030757   0.578275  -0.026728  -0.003239  -0.000030   0.000009
     9  H   -0.033112  -0.026728   0.590868   0.006081  -0.000271   0.005509
    10  H   -0.004182  -0.003239   0.006081   0.687234  -0.004516   0.006749
    11  H    0.003656  -0.000030  -0.000271  -0.004516   0.598892  -0.030663
    12  H   -0.000227   0.000009   0.005509   0.006749  -0.030663   0.623674
    13  H    0.000006  -0.000193   0.000012  -0.003399  -0.030354  -0.034076
    14  H   -0.000123   0.000287   0.000378  -0.000668  -0.000045   0.000425
    15  H   -0.000059  -0.000472   0.000040   0.003673  -0.000006   0.000006
    16  H    0.000003  -0.000278  -0.000069  -0.000224   0.000003  -0.000006
    17  H   -0.000023   0.000028  -0.000187  -0.000047  -0.000107   0.003012
              13         14         15         16         17
     1  C    0.005309   0.006990   0.000209   0.000152   0.000238
     2  C   -0.032453  -0.084036  -0.001961   0.007684  -0.005206
     3  C    0.372891  -0.005029  -0.000125  -0.000272   0.003896
     4  C   -0.004015   0.387524  -0.031223  -0.025979  -0.019693
     5  N   -0.000010  -0.057343   0.328236   0.323693   0.006617
     6  O   -0.000398  -0.052114   0.004452   0.004622   0.278790
     7  H    0.000006  -0.000123  -0.000059   0.000003  -0.000023
     8  H   -0.000193   0.000287  -0.000472  -0.000278   0.000028
     9  H    0.000012   0.000378   0.000040  -0.000069  -0.000187
    10  H   -0.003399  -0.000668   0.003673  -0.000224  -0.000047
    11  H   -0.030354  -0.000045  -0.000006   0.000003  -0.000107
    12  H   -0.034076   0.000425   0.000006  -0.000006   0.003012
    13  H    0.625514   0.007403  -0.000018  -0.000008   0.000242
    14  H    0.007403   0.761630  -0.001338  -0.006262  -0.004466
    15  H   -0.000018  -0.001338   0.493297  -0.028995  -0.000402
    16  H   -0.000008  -0.006262  -0.028995   0.482215  -0.000469
    17  H    0.000242  -0.004466  -0.000402  -0.000469   0.434294
 Mulliken charges:
               1
     1  C   -0.298418
     2  C   -0.063077
     3  C   -0.327867
     4  C    0.294334
     5  N   -0.589542
     6  O   -0.533212
     7  H    0.085399
     8  H    0.120020
     9  H    0.112762
    10  H    0.073687
    11  H    0.107452
    12  H    0.095767
    13  H    0.093548
    14  H    0.046787
    15  H    0.234688
    16  H    0.244190
    17  H    0.303482
 Sum of Mulliken charges =  -0.00000
 Mulliken charges with hydrogens summed into heavy atoms:
               1
     1  C    0.019763
     2  C    0.010610
     3  C   -0.031099
     4  C    0.341121
     5  N   -0.110664
     6  O   -0.229730
 Electronic spatial extent (au):  <R**2>=            648.9979
 Charge=             -0.0000 electrons
 Dipole moment (field-independent basis, Debye):
    X=              0.4244    Y=             -1.2871    Z=             -2.0400  Tot=              2.4492
 Quadrupole moment (field-independent basis, Debye-Ang):
   XX=            -37.7465   YY=            -36.8610   ZZ=            -38.8116
   XY=              0.2938   XZ=              3.8790   YZ=             -2.0172
 Traceless Quadrupole moment (field-independent basis, Debye-Ang):
   XX=              0.0599   YY=              0.9454   ZZ=             -1.0053
   XY=              0.2938   XZ=              3.8790   YZ=             -2.0172
 Octapole moment (field-independent basis, Debye-Ang**2):
  XXX=            -17.4800  YYY=            -12.3348  ZZZ=             -0.4841  XYY=             -2.2075
  XXY=             -0.4011  XXZ=             -6.2997  XZZ=             -3.3726  YZZ=             -0.1347
  YYZ=              2.1309  XYZ=              0.8362
 Hexadecapole moment (field-independent basis, Debye-Ang**3):
 XXXX=           -404.1547 YYYY=           -231.1593 ZZZZ=           -148.6399 XXXY=              6.4948
 XXXZ=             11.3697 YYYX=              4.2481 YYYZ=            -16.8422 ZZZX=              5.4596
 ZZZY=            -10.9974 XXYY=           -121.1660 XXZZ=            -98.8029 YYZZ=            -60.6808
 XXYZ=             -5.2796 YYXZ=              2.4787 ZZXY=             -4.7621
 N-N= 2.675044644486D+02 E-N=-1.207998414365D+03  KE= 2.863668392380D+02
 No NMR shielding tensors so no spin-rotation constants.
 Leave Link  601 at Thu Sep  8 14:59:01 2022, MaxMem= 24159191040 cpu:        11.1
 (Enter /public/home/users/caep010/software/Gaussian09/g09/l701.exe)
 Compute integral first derivatives.
 ... and contract with generalized density number  0.
 Leave Link  701 at Thu Sep  8 14:59:02 2022, MaxMem= 24159191040 cpu:        10.3
 (Enter /public/home/users/caep010/software/Gaussian09/g09/l702.exe)
 L702 exits ... SP integral derivatives will be done elsewhere.
 Leave Link  702 at Thu Sep  8 14:59:02 2022, MaxMem= 24159191040 cpu:         0.5
 (Enter /public/home/users/caep010/software/Gaussian09/g09/l703.exe)
 Compute integral first derivatives, UseDBF=F ICtDFT=           0.
 Integral derivatives from FoFJK, PRISM(SPDF).
 Calling FoFJK, ICntrl=      2127 FMM=F ISym2X=0 I1Cent= 0 IOpClX= 0 NMat=1 NMatS=1 NMatT=0.
 FoFJK:  IHMeth= 1 ICntrl=    2127 DoSepK=F KAlg= 0 I1Cent=   0 FoldK=F
 IRaf=         0 NMat=   1 IRICut=       1 DoRegI=T DoRafI=F ISym2E= 0.
 FoFCou: FMM=F IPFlag=           0 FMFlag=      100000 FMFlg1=         800
         NFxFlg=           0 DoJE=F BraDBF=F KetDBF=F FulRan=T
         wScrn=  0.000000 ICntrl=    2127 IOpCl=  0 I1Cent=           0 NGrid=           0
         NMat0=    1 NMatS0=      1 NMatT0=    0 NMatD0=    1 NMtDS0=    0 NMtDT0=    0
 Symmetry not used in FoFCou.
 Leave Link  703 at Thu Sep  8 14:59:02 2022, MaxMem= 24159191040 cpu:        13.3
 (Enter /public/home/users/caep010/software/Gaussian09/g09/l716.exe)
 Dipole        = 1.66989757D-01-5.06383408D-01-8.02616320D-01
 ***** Axes restored to original set *****
 -------------------------------------------------------------------
 Center     Atomic                   Forces (Hartrees/Bohr)
 Number     Number              X              Y              Z
 -------------------------------------------------------------------
      1        6           0.000147137   -0.000043672   -0.000049414
      2        6          -0.000290293   -0.000217611    0.000423152
      3        6          -0.000279319    0.000160445   -0.000157097
      4        6           0.000998344   -0.000100998   -0.001396155
      5        7          -0.000922635   -0.000386356    0.000052953
      6        8           0.001468949   -0.003307148    0.000012876
      7        1          -0.000215930    0.000039459   -0.000206927
      8        1           0.000104214   -0.000110870   -0.000013802
      9        1           0.000010899   -0.000014994    0.000041376
     10        1          -0.000028539    0.000209289   -0.000439639
     11        1          -0.000095218    0.000069519   -0.000027076
     12        1           0.000030676   -0.000102134    0.000081990
     13        1          -0.000028306    0.000272299    0.000025011
     14        1          -0.000067701    0.000708558    0.000032619
     15        1           0.000263084    0.000546383   -0.001361794
     16        1           0.000857732   -0.000270992    0.001093728
     17        1          -0.001953093    0.002548823    0.001888199
 -------------------------------------------------------------------
 Cartesian Forces:  Max     0.003307148 RMS     0.000847072
 Leave Link  716 at Thu Sep  8 14:59:02 2022, MaxMem= 24159191040 cpu:         0.6
 (Enter /public/home/users/caep010/software/Gaussian09/g09/l103.exe)

 GradGradGradGradGradGradGradGradGradGradGradGradGradGradGradGradGradGrad
 Berny optimization.
 FormGI is forming the generalized inverse of G from B-inverse, IUseBI=4.
 Internal  Forces:  Max     0.003718023 RMS     0.000554403
 Search for a local minimum.
 Step number   1 out of a maximum of   90
 All quantities printed in internal units (Hartrees-Bohrs-Radians)
 RMS Force = .55440D-03 SwitMx=.10000D-02 MixMth= 2
 Mixed Optimization -- En-DIIS/RFO-DIIS
 Second derivative matrix not updated -- first step.
 ITU=  0
     Eigenvalues ---    0.00230   0.00315   0.00331   0.01025   0.01408
     Eigenvalues ---    0.03393   0.04530   0.04645   0.04931   0.05037
     Eigenvalues ---    0.05368   0.05490   0.05502   0.05506   0.05630
     Eigenvalues ---    0.08148   0.16000   0.16000   0.16000   0.16000
     Eigenvalues ---    0.16000   0.16000   0.16000   0.16000   0.16000
     Eigenvalues ---    0.16780   0.17050   0.17411   0.19683   0.28143
     Eigenvalues ---    0.29048   0.29162   0.32607   0.33606   0.34043
     Eigenvalues ---    0.34094   0.34274   0.34343   0.34363   0.34612
     Eigenvalues ---    0.38191   0.42245   0.45122   0.45182   0.55122
 RFO step:  Lambda=-6.99789261D-05 EMin= 2.30000000D-03
 Linear search not attempted -- first point.
 Iteration  1 RMS(Cart)=  0.01341370 RMS(Int)=  0.00005397
 Iteration  2 RMS(Cart)=  0.00008601 RMS(Int)=  0.00000081
 Iteration  3 RMS(Cart)=  0.00000000 RMS(Int)=  0.00000081
 ITry= 1 IFail=0 DXMaxC= 5.92D-02 DCOld= 1.00D+10 DXMaxT= 3.00D-01 DXLimC= 3.00D+00 Rises=F
 Variable       Old X    -DE/DX   Delta X   Delta X   Delta X     New X
                                 (Linear)    (Quad)   (Total)
    R1        2.89667   0.00015   0.00000   0.00050   0.00050   2.89717
    R2        2.06870   0.00030   0.00000   0.00087   0.00087   2.06958
    R3        2.06309   0.00015   0.00000   0.00042   0.00042   2.06351
    R4        2.06722   0.00004   0.00000   0.00011   0.00011   2.06733
    R5        2.89903   0.00048   0.00000   0.00166   0.00166   2.90068
    R6        2.91827   0.00071   0.00000   0.00252   0.00252   2.92079
    R7        2.07999   0.00045   0.00000   0.00133   0.00133   2.08133
    R8        2.06755   0.00009   0.00000   0.00028   0.00028   2.06783
    R9        2.07257   0.00010   0.00000   0.00029   0.00029   2.07286
   R10        2.07172   0.00024   0.00000   0.00072   0.00072   2.07243
   R11        2.74089   0.00029   0.00000   0.00076   0.00076   2.74164
   R12        2.68613   0.00209   0.00000   0.00496   0.00496   2.69108
   R13        2.09747   0.00066   0.00000   0.00202   0.00202   2.09949
   R14        1.91765   0.00148   0.00000   0.00327   0.00327   1.92093
   R15        1.91834   0.00135   0.00000   0.00299   0.00299   1.92134
   R16        1.81724   0.00372   0.00000   0.00674   0.00674   1.82399
    A1        1.93361  -0.00004   0.00000  -0.00015  -0.00015   1.93346
    A2        1.93664   0.00003   0.00000   0.00016   0.00016   1.93680
    A3        1.92266  -0.00002   0.00000  -0.00016  -0.00016   1.92251
    A4        1.90013   0.00001   0.00000   0.00018   0.00018   1.90031
    A5        1.89193   0.00003   0.00000   0.00025   0.00025   1.89218
    A6        1.87738  -0.00002   0.00000  -0.00029  -0.00029   1.87710
    A7        1.94686   0.00003   0.00000   0.00059   0.00059   1.94744
    A8        1.95158  -0.00009   0.00000   0.00025   0.00025   1.95183
    A9        1.90062  -0.00005   0.00000  -0.00195  -0.00195   1.89867
   A10        1.92718   0.00014   0.00000   0.00181   0.00181   1.92899
   A11        1.87898  -0.00009   0.00000  -0.00148  -0.00148   1.87751
   A12        1.85462   0.00005   0.00000   0.00064   0.00064   1.85526
   A13        1.93771   0.00010   0.00000   0.00061   0.00061   1.93832
   A14        1.93692  -0.00018   0.00000  -0.00123  -0.00123   1.93569
   A15        1.95179   0.00017   0.00000   0.00115   0.00115   1.95293
   A16        1.86838   0.00003   0.00000  -0.00001  -0.00001   1.86837
   A17        1.87955  -0.00012   0.00000  -0.00059  -0.00059   1.87896
   A18        1.88620   0.00001   0.00000   0.00004   0.00004   1.88624
   A19        1.93036  -0.00002   0.00000   0.00048   0.00048   1.93083
   A20        1.96334  -0.00001   0.00000   0.00008   0.00007   1.96341
   A21        1.87941  -0.00015   0.00000  -0.00238  -0.00238   1.87703
   A22        1.83177   0.00015   0.00000   0.00187   0.00187   1.83364
   A23        1.97019   0.00012   0.00000   0.00144   0.00144   1.97162
   A24        1.88986  -0.00007   0.00000  -0.00138  -0.00138   1.88848
   A25        1.92032  -0.00005   0.00000   0.00066   0.00066   1.92098
   A26        1.90671  -0.00004   0.00000   0.00073   0.00073   1.90744
   A27        1.87799   0.00024   0.00000   0.00354   0.00353   1.88153
   A28        1.87852  -0.00036   0.00000  -0.00226  -0.00226   1.87626
    D1        0.99747  -0.00009   0.00000   0.00039   0.00039   0.99787
    D2       -3.11797   0.00006   0.00000   0.00339   0.00339  -3.11458
    D3       -1.07383   0.00004   0.00000   0.00310   0.00310  -1.07073
    D4        3.11030  -0.00007   0.00000   0.00063   0.00063   3.11093
    D5       -1.00515   0.00007   0.00000   0.00363   0.00363  -1.00152
    D6        1.03899   0.00006   0.00000   0.00334   0.00334   1.04233
    D7       -1.09580  -0.00009   0.00000   0.00027   0.00027  -1.09552
    D8        1.07194   0.00005   0.00000   0.00327   0.00327   1.07521
    D9        3.11608   0.00004   0.00000   0.00298   0.00298   3.11906
   D10       -1.03567   0.00007   0.00000   0.00519   0.00519  -1.03048
   D11        1.04008   0.00004   0.00000   0.00476   0.00476   1.04484
   D12       -3.13542   0.00004   0.00000   0.00474   0.00474  -3.13068
   D13        3.06611   0.00005   0.00000   0.00309   0.00309   3.06920
   D14       -1.14132   0.00003   0.00000   0.00266   0.00266  -1.13866
   D15        0.96636   0.00002   0.00000   0.00264   0.00264   0.96900
   D16        1.04851  -0.00004   0.00000   0.00221   0.00221   1.05071
   D17        3.12426  -0.00006   0.00000   0.00178   0.00178   3.12604
   D18       -1.05124  -0.00006   0.00000   0.00176   0.00176  -1.04948
   D19        1.03966  -0.00006   0.00000  -0.02061  -0.02061   1.01905
   D20       -1.00236  -0.00022   0.00000  -0.02331  -0.02331  -1.02567
   D21       -3.08333  -0.00003   0.00000  -0.02010  -0.02010  -3.10344
   D22       -3.06482   0.00003   0.00000  -0.01831  -0.01831  -3.08313
   D23        1.17635  -0.00013   0.00000  -0.02102  -0.02102   1.15533
   D24       -0.90463   0.00006   0.00000  -0.01781  -0.01781  -0.92243
   D25       -1.03201   0.00002   0.00000  -0.01878  -0.01878  -1.05078
   D26       -3.07402  -0.00014   0.00000  -0.02148  -0.02148  -3.09550
   D27        1.12819   0.00005   0.00000  -0.01827  -0.01827   1.10992
   D28        1.05530  -0.00011   0.00000   0.00285   0.00285   1.05814
   D29        3.11330   0.00012   0.00000   0.00798   0.00798   3.12128
   D30       -3.10627  -0.00005   0.00000   0.00433   0.00433  -3.10194
   D31       -1.04827   0.00018   0.00000   0.00946   0.00946  -1.03881
   D32       -1.05169   0.00002   0.00000   0.00458   0.00458  -1.04712
   D33        1.00631   0.00025   0.00000   0.00971   0.00971   1.01602
   D34       -1.34409   0.00010   0.00000   0.00191   0.00191  -1.34218
   D35        2.83921   0.00004   0.00000   0.00010   0.00010   2.83931
   D36        0.73078  -0.00014   0.00000  -0.00190  -0.00189   0.72888
         Item               Value     Threshold  Converged?
 Maximum Force            0.003718     0.000450     NO 
 RMS     Force            0.000554     0.000300     NO 
 Maximum Displacement     0.059217     0.001800     NO 
 RMS     Displacement     0.013420     0.001200     NO 
 Predicted change in Energy=-3.514060D-05
 Lowest energy point so far.  Saving SCF results.
 GradGradGradGradGradGradGradGradGradGradGradGradGradGradGradGradGradGrad

 Leave Link  103 at Thu Sep  8 14:59:03 2022, MaxMem= 24159191040 cpu:         3.2
 (Enter /public/home/users/caep010/software/Gaussian09/g09/l202.exe)
                          Input orientation:                          
 ---------------------------------------------------------------------
 Center     Atomic      Atomic             Coordinates (Angstroms)
 Number     Number       Type             X           Y           Z
 ---------------------------------------------------------------------
      1          6           0       -0.793699   -1.191381   -0.791506
      2          6           0       -0.264568    0.215832   -0.491145
      3          6           0       -1.369125    1.128848    0.058859
      4          6           0        0.941675    0.182336    0.474660
      5          7           0        2.018214   -0.616855   -0.079617
      6          8           0        0.626291   -0.433904    1.719138
      7          1           0       -1.629595   -1.149595   -1.497860
      8          1           0       -0.007930   -1.823087   -1.210907
      9          1           0       -1.143046   -1.667216    0.129548
     10          1           0        0.101882    0.664410   -1.427924
     11          1           0       -2.196500    1.217010   -0.651815
     12          1           0       -1.785771    0.722715    0.988735
     13          1           0       -0.998686    2.140234    0.265226
     14          1           0        1.240530    1.233682    0.673879
     15          1           0        2.330655   -0.217905   -0.960817
     16          1           0        2.806845   -0.609249    0.562052
     17          1           0        0.122628    0.204127    2.239592
 ---------------------------------------------------------------------
                    Distance matrix (angstroms):
                    1          2          3          4          5
     1  C    0.000000
     2  C    1.533116   0.000000
     3  C    2.537261   1.534976   0.000000
     4  C    2.549862   1.545614   2.531516   0.000000
     5  N    2.956979   2.464511   3.813230   1.450816   0.000000
     6  O    2.982193   2.470048   3.029919   1.424059   2.281763
     7  H    1.095173   2.177422   2.771736   3.503755   3.949903
     8  H    1.091964   2.177409   3.489854   2.786504   2.615353
     9  H    1.093984   2.168606   2.806079   2.808203   3.337750
    10  H    2.156630   1.101391   2.142449   2.134824   2.670562
    11  H    2.790647   2.181865   1.094248   3.491080   4.631877
    12  H    2.795930   2.181980   1.096908   2.827586   4.172065
    13  H    3.501194   2.194163   1.096683   2.764457   4.101480
    14  H    3.488032   2.158383   2.683196   1.111004   2.144069
    15  H    3.276875   2.672807   4.067168   2.037167   1.016510
    16  H    3.890362   3.350158   4.551144   2.028079   1.016728
    17  H    3.460441   2.758076   2.799292   1.945841   3.105800
                    6          7          8          9         10
     6  O    0.000000
     7  H    3.993784   0.000000
     8  H    3.304123   1.779250   0.000000
     9  H    2.679256   1.775702   1.763407   0.000000
    10  H    3.374211   2.508688   2.499359   3.067905   0.000000
    11  H    4.039194   2.576431   3.787429   3.168446   2.488026
    12  H    2.772959   3.116583   3.805293   2.619745   3.067063
    13  H    3.373514   3.785432   4.343786   3.812600   2.501212
    14  H    2.061722   4.316720   3.801961   3.793803   2.457268
    15  H    3.183342   4.103661   2.847478   3.918672   2.442150
    16  H    2.474754   4.921098   3.541150   4.111933   3.591523
    17  H    0.965211   4.344122   4.004071   3.091301   3.696345
                   11         12         13         14         15
    11  H    0.000000
    12  H    1.761940   0.000000
    13  H    1.768634   1.775480   0.000000
    14  H    3.683873   3.085242   2.450086   0.000000
    15  H    4.759159   4.650858   4.260107   2.442888   0.000000
    16  H    5.462798   4.800865   4.704235   2.421207   1.642874
    17  H    3.842463   2.339992   2.983952   2.182005   3.911024
                   16         17
    16  H    0.000000
    17  H    3.268141   0.000000
 Stoichiometry    C4H11NO
 Framework group  C1[X(C4H11NO)]
 Deg. of freedom    45
 Full point group                 C1      NOp   1
 RotChk:  IX=0 Diff= 7.19D-03
 Largest Abelian subgroup         C1      NOp   1
 Largest concise Abelian subgroup C1      NOp   1
                         Standard orientation:                         
 ---------------------------------------------------------------------
 Center     Atomic      Atomic             Coordinates (Angstroms)
 Number     Number       Type             X           Y           Z
 ---------------------------------------------------------------------
      1          6           0        0.883494    1.341733    0.675612
      2          6           0        0.673638    0.292970   -0.422796
      3          6           0        1.779472   -0.771451   -0.405764
      4          6           0       -0.718829   -0.370703   -0.325348
      5          7           0       -1.768178    0.626653   -0.420298
      6          8           0       -0.930218   -1.011987    0.928451
      7          1           0        1.863489    1.819960    0.574060
      8          1           0        0.109194    2.110619    0.634874
      9          1           0        0.829259    0.870873    1.661589
     10          1           0        0.709360    0.793943   -1.403007
     11          1           0        2.764740   -0.317101   -0.547864
     12          1           0        1.803075   -1.295993    0.557307
     13          1           0        1.640398   -1.518341   -1.196668
     14          1           0       -0.779351   -1.140970   -1.123694
     15          1           0       -1.710643    1.109492   -1.312962
     16          1           0       -2.673781    0.166851   -0.373371
     17          1           0       -0.443387   -1.845305    0.913997
 ---------------------------------------------------------------------
 Rotational constants (GHZ):      4.5440594      2.7409381      2.3113607
 Leave Link  202 at Thu Sep  8 14:59:03 2022, MaxMem= 24159191040 cpu:         1.2
 (Enter /public/home/users/caep010/software/Gaussian09/g09/l301.exe)
 Standard basis: 6-31G(d,p) (6D, 7F)
 Ernie: Thresh=  0.10000D-02 Tol=  0.10000D-05 Strict=F.
 There are   145 symmetry adapted cartesian basis functions of A   symmetry.
 There are   145 symmetry adapted basis functions of A   symmetry.
   145 basis functions,   245 primitive gaussians,   145 cartesian basis functions
    25 alpha electrons       25 beta electrons
       nuclear repulsion energy       267.2901182609 Hartrees.
 IExCor=  402 DFT=T Ex+Corr=B3LYP ExCW=0 ScaHFX=  0.200000
 ScaDFX=  0.800000  0.720000  1.000000  0.810000 ScalE2=  1.000000  1.000000
 IRadAn=      0 IRanWt=     -1 IRanGd=            0 ICorTp=0 IEmpDi=  4
 NAtoms=   17 NActive=   17 NUniq=   17 SFac= 1.00D+00 NAtFMM=   60 NAOKFM=F Big=F
 Integral buffers will be    131072 words long.
 Raffenetti 2 integral format.
 Two-electron integral symmetry is turned on.
 Leave Link  301 at Thu Sep  8 14:59:03 2022, MaxMem= 24159191040 cpu:         1.6
 (Enter /public/home/users/caep010/software/Gaussian09/g09/l302.exe)
 NPDir=0 NMtPBC=     1 NCelOv=     1 NCel=       1 NClECP=     1 NCelD=      1
         NCelK=      1 NCelE2=     1 NClLst=     1 CellRange=     0.0.
 One-electron integrals computed using PRISM.
 NBasis=   145 RedAO= T EigKep=  3.02D-03  NBF=   145
 NBsUse=   145 1.00D-06 EigRej= -1.00D+00 NBFU=   145
 Precomputing XC quadrature grid using
 IXCGrd= 4 IRadAn=           0 IRanWt=          -1 IRanGd=           0 AccXCQ= 0.00D+00.
 Generated NRdTot=       0 NPtTot=           0 NUsed=           0 NTot=          32
 NSgBfM=   145   145   145   145   145 MxSgAt=    17 MxSgA2=    17.
 Leave Link  302 at Thu Sep  8 14:59:03 2022, MaxMem= 24159191040 cpu:        11.5
 (Enter /public/home/users/caep010/software/Gaussian09/g09/l303.exe)
 DipDrv:  MaxL=1.
 Leave Link  303 at Thu Sep  8 14:59:03 2022, MaxMem= 24159191040 cpu:         0.7
 (Enter /public/home/users/caep010/software/Gaussian09/g09/l401.exe)
 Initial guess from the checkpoint file:  "B3LYP6-31Gdp.Frag_677.chk"
 B after Tr=     0.000000   -0.000000    0.000000
         Rot=    0.999994   -0.003310    0.000304   -0.000676 Ang=  -0.39 deg.
 Guess basis will be translated and rotated to current coordinates.
 JPrj=2 DoOrth=T DoCkMO=T.
 Generating alternative initial guess.
 ExpMin= 1.61D-01 ExpMax= 5.48D+03 ExpMxC= 8.25D+02 IAcc=1 IRadAn=         1 AccDes= 0.00D+00
 Harris functional with IExCor=  402 and IRadAn=       1 diagonalized for initial guess.
 HarFok:  IExCor=  402 AccDes= 0.00D+00 IRadAn=         1 IDoV= 1 UseB2=F ITyADJ=14
 ICtDFT=  3500011 ScaDFX=  1.000000  1.000000  1.000000  1.000000
 FoFCou: FMM=F IPFlag=           0 FMFlag=      100000 FMFlg1=           0
         NFxFlg=           0 DoJE=T BraDBF=F KetDBF=T FulRan=T
         wScrn=  0.000000 ICntrl=     500 IOpCl=  0 I1Cent=   200000004 NGrid=           0
         NMat0=    1 NMatS0=      1 NMatT0=    0 NMatD0=    1 NMtDS0=    0 NMtDT0=    0
 Petite list used in FoFCou.
 Harris En= -289.094127401748    
 Leave Link  401 at Thu Sep  8 14:59:04 2022, MaxMem= 24159191040 cpu:        12.2
 (Enter /public/home/users/caep010/software/Gaussian09/g09/l502.exe)
 Closed shell SCF:
 Using DIIS extrapolation, IDIIS=  1040.
 Integral symmetry usage will be decided dynamically.
 Keep R1 ints in memory in canonical form, NReq=57669771.
 IVT=       87371 IEndB=       87371 NGot= 24159191040 MDV= 24103077265
 LenX= 24103077265 LenY= 24103055799
 Requested convergence on RMS density matrix=1.00D-08 within 128 cycles.
 Requested convergence on MAX density matrix=1.00D-06.
 Requested convergence on             energy=1.00D-06.
 No special actions if energy rises.
 FoFCou: FMM=F IPFlag=           0 FMFlag=           0 FMFlg1=           0
         NFxFlg=           0 DoJE=F BraDBF=F KetDBF=F FulRan=T
         wScrn=  0.000000 ICntrl=     600 IOpCl=  0 I1Cent=           0 NGrid=           0
         NMat0=    1 NMatS0=  10585 NMatT0=    0 NMatD0=    1 NMtDS0=    0 NMtDT0=    0
 Symmetry not used in FoFCou.
 Integral accuracy reduced to 1.0D-05 until final iterations.

 Cycle   1  Pass 0  IDiag  1:
 E= -289.033477659231    
 DIIS: error= 6.63D-04 at cycle   1 NSaved=   1.
 NSaved= 1 IEnMin= 1 EnMin= -289.033477659231     IErMin= 1 ErrMin= 6.63D-04
 ErrMax= 6.63D-04  0.00D+00 EMaxC= 1.00D-01 BMatC= 1.06D-04 BMatP= 1.06D-04
 IDIUse=3 WtCom= 9.93D-01 WtEn= 6.63D-03
 Coeff-Com:  0.100D+01
 Coeff-En:   0.100D+01
 Coeff:      0.100D+01
 Gap=     1.760 Goal=   None    Shift=    0.000
 RMSDP=1.11D-04 MaxDP=2.41D-03              OVMax= 3.27D-03

 Cycle   2  Pass 0  IDiag  1:
 E= -289.033656128734     Delta-E=       -0.000178469504 Rises=F Damp=F
 DIIS: error= 8.90D-05 at cycle   2 NSaved=   2.
 NSaved= 2 IEnMin= 2 EnMin= -289.033656128734     IErMin= 2 ErrMin= 8.90D-05
 ErrMax= 8.90D-05  0.00D+00 EMaxC= 1.00D-01 BMatC= 2.73D-06 BMatP= 1.06D-04
 IDIUse=1 WtCom= 1.00D+00 WtEn= 0.00D+00
 Coeff-Com: -0.361D-01 0.104D+01
 Coeff:     -0.361D-01 0.104D+01
 Gap=     0.297 Goal=   None    Shift=    0.000
 RMSDP=2.25D-05 MaxDP=7.16D-04 DE=-1.78D-04 OVMax= 6.86D-04

 Cycle   3  Pass 0  IDiag  1:
 E= -289.033656156379     Delta-E=       -0.000000027644 Rises=F Damp=F
 DIIS: error= 1.30D-04 at cycle   3 NSaved=   3.
 NSaved= 3 IEnMin= 3 EnMin= -289.033656156379     IErMin= 2 ErrMin= 8.90D-05
 ErrMax= 1.30D-04  0.00D+00 EMaxC= 1.00D-01 BMatC= 4.00D-06 BMatP= 2.73D-06
 IDIUse=3 WtCom= 4.67D-01 WtEn= 5.33D-01
 Coeff-Com: -0.416D-01 0.590D+00 0.451D+00
 Coeff-En:   0.000D+00 0.497D+00 0.503D+00
 Coeff:     -0.194D-01 0.541D+00 0.479D+00
 Gap=     0.297 Goal=   None    Shift=    0.000
 RMSDP=1.44D-05 MaxDP=4.96D-04 DE=-2.76D-08 OVMax= 4.41D-04

 Cycle   4  Pass 0  IDiag  1:
 E= -289.033658958986     Delta-E=       -0.000002802607 Rises=F Damp=F
 DIIS: error= 3.35D-05 at cycle   4 NSaved=   4.
 NSaved= 4 IEnMin= 4 EnMin= -289.033658958986     IErMin= 4 ErrMin= 3.35D-05
 ErrMax= 3.35D-05  0.00D+00 EMaxC= 1.00D-01 BMatC= 1.93D-07 BMatP= 2.73D-06
 IDIUse=1 WtCom= 1.00D+00 WtEn= 0.00D+00
 Coeff-Com: -0.131D-01 0.148D+00 0.231D+00 0.635D+00
 Coeff:     -0.131D-01 0.148D+00 0.231D+00 0.635D+00
 Gap=     0.297 Goal=   None    Shift=    0.000
 RMSDP=2.84D-06 MaxDP=9.66D-05 DE=-2.80D-06 OVMax= 8.17D-05

 Initial convergence to 1.0D-05 achieved.  Increase integral accuracy.
 Cycle   5  Pass 1  IDiag  1:
 E= -289.033670234928     Delta-E=       -0.000011275943 Rises=F Damp=F
 DIIS: error= 1.57D-05 at cycle   1 NSaved=   1.
 NSaved= 1 IEnMin= 1 EnMin= -289.033670234928     IErMin= 1 ErrMin= 1.57D-05
 ErrMax= 1.57D-05  0.00D+00 EMaxC= 1.00D-01 BMatC= 9.49D-08 BMatP= 9.49D-08
 IDIUse=1 WtCom= 1.00D+00 WtEn= 0.00D+00
 Coeff-Com:  0.100D+01
 Coeff:      0.100D+01
 Gap=     0.297 Goal=   None    Shift=    0.000
 RMSDP=2.84D-06 MaxDP=9.66D-05 DE=-1.13D-05 OVMax= 8.84D-05

 Cycle   6  Pass 1  IDiag  1:
 E= -289.033670341359     Delta-E=       -0.000000106430 Rises=F Damp=F
 DIIS: error= 5.88D-06 at cycle   2 NSaved=   2.
 NSaved= 2 IEnMin= 2 EnMin= -289.033670341359     IErMin= 2 ErrMin= 5.88D-06
 ErrMax= 5.88D-06  0.00D+00 EMaxC= 1.00D-01 BMatC= 1.35D-08 BMatP= 9.49D-08
 IDIUse=1 WtCom= 1.00D+00 WtEn= 0.00D+00
 Coeff-Com:  0.159D+00 0.841D+00
 Coeff:      0.159D+00 0.841D+00
 Gap=     0.297 Goal=   None    Shift=    0.000
 RMSDP=1.51D-06 MaxDP=3.39D-05 DE=-1.06D-07 OVMax= 3.49D-05

 Cycle   7  Pass 1  IDiag  1:
 E= -289.033670341425     Delta-E=       -0.000000000067 Rises=F Damp=F
 DIIS: error= 6.30D-06 at cycle   3 NSaved=   3.
 NSaved= 3 IEnMin= 3 EnMin= -289.033670341425     IErMin= 2 ErrMin= 5.88D-06
 ErrMax= 6.30D-06  0.00D+00 EMaxC= 1.00D-01 BMatC= 1.42D-08 BMatP= 1.35D-08
 IDIUse=1 WtCom= 1.00D+00 WtEn= 0.00D+00
 Coeff-Com: -0.222D-01 0.512D+00 0.510D+00
 Coeff:     -0.222D-01 0.512D+00 0.510D+00
 Gap=     0.297 Goal=   None    Shift=    0.000
 RMSDP=7.66D-07 MaxDP=1.95D-05 DE=-6.65D-11 OVMax= 1.81D-05

 Cycle   8  Pass 1  IDiag  1:
 E= -289.033670353630     Delta-E=       -0.000000012205 Rises=F Damp=F
 DIIS: error= 8.32D-07 at cycle   4 NSaved=   4.
 NSaved= 4 IEnMin= 4 EnMin= -289.033670353630     IErMin= 4 ErrMin= 8.32D-07
 ErrMax= 8.32D-07  0.00D+00 EMaxC= 1.00D-01 BMatC= 1.78D-10 BMatP= 1.35D-08
 IDIUse=1 WtCom= 1.00D+00 WtEn= 0.00D+00
 Coeff-Com: -0.133D-01 0.228D+00 0.243D+00 0.542D+00
 Coeff:     -0.133D-01 0.228D+00 0.243D+00 0.542D+00
 Gap=     0.297 Goal=   None    Shift=    0.000
 RMSDP=1.12D-07 MaxDP=3.13D-06 DE=-1.22D-08 OVMax= 3.26D-06

 Cycle   9  Pass 1  IDiag  1:
 E= -289.033670353756     Delta-E=       -0.000000000126 Rises=F Damp=F
 DIIS: error= 2.13D-07 at cycle   5 NSaved=   5.
 NSaved= 5 IEnMin= 5 EnMin= -289.033670353756     IErMin= 5 ErrMin= 2.13D-07
 ErrMax= 2.13D-07  0.00D+00 EMaxC= 1.00D-01 BMatC= 1.52D-11 BMatP= 1.78D-10
 IDIUse=1 WtCom= 1.00D+00 WtEn= 0.00D+00
 Coeff-Com: -0.326D-02 0.432D-01 0.499D-01 0.252D+00 0.658D+00
 Coeff:     -0.326D-02 0.432D-01 0.499D-01 0.252D+00 0.658D+00
 Gap=     0.297 Goal=   None    Shift=    0.000
 RMSDP=2.84D-08 MaxDP=7.39D-07 DE=-1.26D-10 OVMax= 7.07D-07

 Cycle  10  Pass 1  IDiag  1:
 E= -289.033670353768     Delta-E=       -0.000000000012 Rises=F Damp=F
 DIIS: error= 2.54D-08 at cycle   6 NSaved=   6.
 NSaved= 6 IEnMin= 6 EnMin= -289.033670353768     IErMin= 6 ErrMin= 2.54D-08
 ErrMax= 2.54D-08  0.00D+00 EMaxC= 1.00D-01 BMatC= 3.45D-13 BMatP= 1.52D-11
 IDIUse=1 WtCom= 1.00D+00 WtEn= 0.00D+00
 Coeff-Com: -0.348D-03 0.163D-02 0.276D-02 0.490D-01 0.199D+00 0.748D+00
 Coeff:     -0.348D-03 0.163D-02 0.276D-02 0.490D-01 0.199D+00 0.748D+00
 Gap=     0.297 Goal=   None    Shift=    0.000
 RMSDP=5.42D-09 MaxDP=1.03D-07 DE=-1.23D-11 OVMax= 1.41D-07

 SCF Done:  E(RB3LYP) =  -289.033670354     A.U. after   10 cycles
            NFock= 10  Conv=0.54D-08     -V/T= 2.0094
 KE= 2.863397717013D+02 PE=-1.207554403185D+03 EE= 3.648908428692D+02
 Leave Link  502 at Thu Sep  8 14:59:06 2022, MaxMem= 24159191040 cpu:        51.1
 (Enter /public/home/users/caep010/software/Gaussian09/g09/l701.exe)
 Compute integral first derivatives.
 ... and contract with generalized density number  0.
 Leave Link  701 at Thu Sep  8 14:59:07 2022, MaxMem= 24159191040 cpu:        11.6
 (Enter /public/home/users/caep010/software/Gaussian09/g09/l702.exe)
 L702 exits ... SP integral derivatives will be done elsewhere.
 Leave Link  702 at Thu Sep  8 14:59:07 2022, MaxMem= 24159191040 cpu:         0.5
 (Enter /public/home/users/caep010/software/Gaussian09/g09/l703.exe)
 Compute integral first derivatives, UseDBF=F ICtDFT=           0.
 Integral derivatives from FoFJK, PRISM(SPDF).
 Calling FoFJK, ICntrl=      2127 FMM=F ISym2X=0 I1Cent= 0 IOpClX= 0 NMat=1 NMatS=1 NMatT=0.
 FoFJK:  IHMeth= 1 ICntrl=    2127 DoSepK=F KAlg= 0 I1Cent=   0 FoldK=F
 IRaf=         0 NMat=   1 IRICut=       1 DoRegI=T DoRafI=F ISym2E= 0.
 FoFCou: FMM=F IPFlag=           0 FMFlag=      100000 FMFlg1=         800
         NFxFlg=           0 DoJE=F BraDBF=F KetDBF=F FulRan=T
         wScrn=  0.000000 ICntrl=    2127 IOpCl=  0 I1Cent=           0 NGrid=           0
         NMat0=    1 NMatS0=      1 NMatT0=    0 NMatD0=    1 NMtDS0=    0 NMtDT0=    0
 Symmetry not used in FoFCou.
 Leave Link  703 at Thu Sep  8 14:59:07 2022, MaxMem= 24159191040 cpu:        13.9
 (Enter /public/home/users/caep010/software/Gaussian09/g09/l716.exe)
 Dipole        = 1.61639243D-01-4.90347391D-01-8.11855236D-01
 ***** Axes restored to original set *****
 -------------------------------------------------------------------
 Center     Atomic                   Forces (Hartrees/Bohr)
 Number     Number              X              Y              Z
 -------------------------------------------------------------------
      1        6          -0.000067467    0.000009766   -0.000009643
      2        6          -0.000075354   -0.000189934    0.000060484
      3        6           0.000053489   -0.000053359    0.000119388
      4        6           0.000321211    0.000507097   -0.000675755
      5        7          -0.000189570    0.000137379    0.000236070
      6        8           0.000088028   -0.000742614    0.000250882
      7        1          -0.000021310    0.000010981    0.000023334
      8        1          -0.000049691    0.000023911    0.000043150
      9        1          -0.000022619   -0.000048047    0.000045454
     10        1           0.000084968    0.000046788   -0.000020796
     11        1           0.000078799    0.000007410   -0.000046111
     12        1           0.000033236   -0.000032361   -0.000044584
     13        1           0.000024664    0.000033186   -0.000029950
     14        1          -0.000064849    0.000039851   -0.000012622
     15        1          -0.000039995    0.000027484    0.000133271
     16        1          -0.000132376    0.000012341    0.000013603
     17        1          -0.000021164    0.000210122   -0.000086175
 -------------------------------------------------------------------
 Cartesian Forces:  Max     0.000742614 RMS     0.000185326
 Leave Link  716 at Thu Sep  8 14:59:07 2022, MaxMem= 24159191040 cpu:         0.6
 (Enter /public/home/users/caep010/software/Gaussian09/g09/l103.exe)

 GradGradGradGradGradGradGradGradGradGradGradGradGradGradGradGradGradGrad
 Berny optimization.
 Using GEDIIS/GDIIS optimizer.
 FormGI is forming the generalized inverse of G from B-inverse, IUseBI=4.
 Internal  Forces:  Max     0.000512438 RMS     0.000115050
 Search for a local minimum.
 Step number   2 out of a maximum of   90
 All quantities printed in internal units (Hartrees-Bohrs-Radians)
 RMS Force = .11505D-03 SwitMx=.10000D-02 MixMth= 2
 Mixed Optimization -- En-DIIS/RFO-DIIS
 Swapping is turned off.
 Update second derivatives using D2CorX and points    1    2
 DE= -2.97D-05 DEPred=-3.51D-05 R= 8.45D-01
 TightC=F SS=  1.41D+00  RLast= 6.51D-02 DXNew= 5.0454D-01 1.9540D-01
 Trust test= 8.45D-01 RLast= 6.51D-02 DXMaxT set to 3.00D-01
 ITU=  1  0
     Eigenvalues ---    0.00291   0.00322   0.00335   0.00986   0.01408
     Eigenvalues ---    0.03397   0.04512   0.04647   0.04976   0.05041
     Eigenvalues ---    0.05363   0.05500   0.05508   0.05628   0.05656
     Eigenvalues ---    0.08117   0.15352   0.16000   0.16000   0.16000
     Eigenvalues ---    0.16000   0.16000   0.16000   0.16000   0.16055
     Eigenvalues ---    0.16878   0.17127   0.17447   0.19767   0.28257
     Eigenvalues ---    0.29133   0.29254   0.32331   0.33415   0.34044
     Eigenvalues ---    0.34051   0.34243   0.34344   0.34367   0.34635
     Eigenvalues ---    0.37355   0.40289   0.45146   0.45795   0.52952
 En-DIIS/RFO-DIIS IScMMF=        0 using points:     2    1
 RFO step:  Lambda=-2.78642606D-06.
 NNeg= 0 NP= 2 Switch=  2.50D-03 Rises=F DC=  2.97D-05 SmlDif=  1.00D-05
 RMS Error=  0.4346835438D-03 NUsed= 2 EDIIS=F
 DidBck=F Rises=F RFO-DIIS coefs:    0.86950    0.13050
 Iteration  1 RMS(Cart)=  0.01155499 RMS(Int)=  0.00004272
 Iteration  2 RMS(Cart)=  0.00006204 RMS(Int)=  0.00000023
 Iteration  3 RMS(Cart)=  0.00000000 RMS(Int)=  0.00000023
 ITry= 1 IFail=0 DXMaxC= 4.48D-02 DCOld= 1.00D+10 DXMaxT= 3.00D-01 DXLimC= 3.00D+00 Rises=F
 Variable       Old X    -DE/DX   Delta X   Delta X   Delta X     New X
                                 (Linear)    (Quad)   (Total)
    R1        2.89717   0.00004  -0.00007   0.00028   0.00022   2.89739
    R2        2.06958   0.00000  -0.00011   0.00029   0.00018   2.06975
    R3        2.06351  -0.00007  -0.00005  -0.00003  -0.00008   2.06343
    R4        2.06733   0.00007  -0.00001   0.00020   0.00019   2.06752
    R5        2.90068  -0.00016  -0.00022   0.00006  -0.00016   2.90053
    R6        2.92079  -0.00012  -0.00033   0.00045   0.00012   2.92091
    R7        2.08133   0.00006  -0.00017   0.00061   0.00043   2.08176
    R8        2.06783  -0.00003  -0.00004   0.00002  -0.00002   2.06781
    R9        2.07286  -0.00004  -0.00004  -0.00000  -0.00004   2.07282
   R10        2.07243   0.00003  -0.00009   0.00032   0.00023   2.07266
   R11        2.74164  -0.00051  -0.00010  -0.00092  -0.00102   2.74063
   R12        2.69108   0.00036  -0.00065   0.00238   0.00173   2.69281
   R13        2.09949   0.00002  -0.00026   0.00072   0.00045   2.09995
   R14        1.92093  -0.00012  -0.00043   0.00086   0.00043   1.92136
   R15        1.92134  -0.00009  -0.00039   0.00081   0.00042   1.92175
   R16        1.82399   0.00010  -0.00088   0.00239   0.00151   1.82550
    A1        1.93346  -0.00002   0.00002  -0.00013  -0.00011   1.93335
    A2        1.93680   0.00002  -0.00002   0.00019   0.00017   1.93697
    A3        1.92251   0.00002   0.00002   0.00002   0.00004   1.92255
    A4        1.90031   0.00001  -0.00002   0.00024   0.00022   1.90053
    A5        1.89218  -0.00001  -0.00003  -0.00008  -0.00011   1.89207
    A6        1.87710  -0.00002   0.00004  -0.00025  -0.00021   1.87688
    A7        1.94744  -0.00007  -0.00008  -0.00027  -0.00035   1.94709
    A8        1.95183   0.00016  -0.00003   0.00090   0.00086   1.95270
    A9        1.89867   0.00004   0.00025   0.00057   0.00083   1.89950
   A10        1.92899  -0.00012  -0.00024  -0.00042  -0.00066   1.92833
   A11        1.87751   0.00004   0.00019  -0.00068  -0.00048   1.87702
   A12        1.85526  -0.00005  -0.00008  -0.00014  -0.00022   1.85504
   A13        1.93832  -0.00008  -0.00008  -0.00034  -0.00042   1.93789
   A14        1.93569  -0.00004   0.00016  -0.00049  -0.00033   1.93536
   A15        1.95293  -0.00001  -0.00015   0.00030   0.00015   1.95309
   A16        1.86837   0.00007   0.00000   0.00042   0.00042   1.86879
   A17        1.87896   0.00002   0.00008  -0.00032  -0.00025   1.87871
   A18        1.88624   0.00005  -0.00000   0.00047   0.00046   1.88670
   A19        1.93083   0.00029  -0.00006   0.00111   0.00104   1.93188
   A20        1.96341  -0.00007  -0.00001  -0.00069  -0.00069   1.96272
   A21        1.87703  -0.00008   0.00031  -0.00056  -0.00025   1.87679
   A22        1.83364  -0.00026  -0.00024  -0.00123  -0.00147   1.83217
   A23        1.97162  -0.00002  -0.00019   0.00084   0.00065   1.97228
   A24        1.88848   0.00014   0.00018   0.00052   0.00070   1.88919
   A25        1.92098  -0.00008  -0.00009  -0.00039  -0.00048   1.92050
   A26        1.90744  -0.00013  -0.00010  -0.00061  -0.00071   1.90673
   A27        1.88153   0.00007  -0.00046   0.00120   0.00074   1.88227
   A28        1.87626  -0.00037   0.00030  -0.00275  -0.00246   1.87380
    D1        0.99787   0.00002  -0.00005  -0.00062  -0.00067   0.99720
    D2       -3.11458  -0.00006  -0.00044  -0.00070  -0.00114  -3.11572
    D3       -1.07073  -0.00000  -0.00040   0.00002  -0.00039  -1.07112
    D4        3.11093   0.00004  -0.00008  -0.00027  -0.00035   3.11057
    D5       -1.00152  -0.00004  -0.00047  -0.00035  -0.00083  -1.00235
    D6        1.04233   0.00001  -0.00044   0.00036  -0.00007   1.04226
    D7       -1.09552   0.00004  -0.00004  -0.00045  -0.00048  -1.09601
    D8        1.07521  -0.00005  -0.00043  -0.00053  -0.00096   1.07425
    D9        3.11906   0.00001  -0.00039   0.00018  -0.00021   3.11886
   D10       -1.03048  -0.00001  -0.00068  -0.00157  -0.00225  -1.03274
   D11        1.04484  -0.00000  -0.00062  -0.00159  -0.00221   1.04263
   D12       -3.13068   0.00003  -0.00062  -0.00113  -0.00175  -3.13243
   D13        3.06920  -0.00008  -0.00040  -0.00223  -0.00263   3.06657
   D14       -1.13866  -0.00007  -0.00035  -0.00224  -0.00259  -1.14125
   D15        0.96900  -0.00005  -0.00034  -0.00178  -0.00213   0.96688
   D16        1.05071   0.00002  -0.00029  -0.00146  -0.00175   1.04897
   D17        3.12604   0.00003  -0.00023  -0.00147  -0.00171   3.12434
   D18       -1.04948   0.00005  -0.00023  -0.00101  -0.00124  -1.05073
   D19        1.01905   0.00002   0.00269   0.01508   0.01776   1.03681
   D20       -1.02567   0.00020   0.00304   0.01633   0.01937  -1.00631
   D21       -3.10344   0.00012   0.00262   0.01645   0.01907  -3.08437
   D22       -3.08313  -0.00004   0.00239   0.01506   0.01745  -3.06568
[...]
 Maximum Force            0.000052     0.000450     YES
 RMS     Force            0.000009     0.000300     YES
 Maximum Displacement     0.002503     0.001800     NO 
 RMS     Displacement     0.000507     0.001200     YES
 Predicted change in Energy=-4.408263D-08
 GradGradGradGradGradGradGradGradGradGradGradGradGradGradGradGradGradGrad

 Leave Link  103 at Thu Sep  8 14:59:43 2022, MaxMem= 24159191040 cpu:         1.5
 (Enter /public/home/users/caep010/software/Gaussian09/g09/l9999.exe)
 1\1\GINC-B1521\Freq\RB3LYP\6-31G(d,p)\C4H11N1O1\ROOT\08-Sep-2022\0\\#P
  Geom=AllCheck Guess=TCheck SCRF=Check GenChk RB3LYP/6-31G(d,p) Freq\\
 Frag_677\\0,1\C,-0.7981279781,-1.1931761629,-0.7865683132\C,-0.2653427
 831,0.2138340751,-0.4922741219\C,-1.3669878922,1.13129237,0.0558152136
 \C,0.941584705,0.1818729336,0.4720413732\N,2.0220303008,-0.6085571432,
 -0.0852988496\O,0.6297304241,-0.4451341102,1.7133953106\H,-1.633746590
 5,-1.1521366992,-1.4932661838\H,-0.0136718434,-1.8283727325,-1.2029924
 578\H,-1.1490595005,-1.6642823399,0.1363893617\H,0.1014170673,0.658372
 9406,-1.4309819529\H,-2.1938982842,1.220075083,-0.6552703429\H,-1.7846
 589126,0.7285349642,0.9866670445\H,-0.9935380995,2.1421412107,0.259441
 3363\H,1.2341232835,1.2336188976,0.6783155477\H,2.3430967905,-0.195274
 9348,-0.9565889358\H,2.8038879833,-0.610995605,0.5644750383\H,0.122962
 3296,0.1881872529,2.2367989321\\Version=ES64L-G09RevE.01\State=1-A\HF=
 -289.0336776\RMSD=8.950e-10\RMSF=1.898e-05\ZeroPoint=0.1540191\Thermal
 =0.1619968\Dipole=0.1161625,0.9510197,-0.0810737\DipoleDeriv=0.0415914
 ,0.0070907,0.0156552,0.0142845,0.0014499,-0.0092264,-0.0065509,-0.0554
 418,0.0738407,0.0140969,0.0075536,-0.0894215,-0.020998,0.1213847,-0.02
 91116,-0.0555859,0.0000422,0.0697197,0.017255,0.0360955,-0.0005092,0.0
 373667,0.0660319,-0.0430615,-0.0454549,-0.0051599,0.0861572,0.8216266,
 -0.1039953,-0.1324078,-0.030171,0.641038,-0.042491,-0.083751,-0.014426
 ,0.8685075,-0.5682258,0.1449325,0.126818,0.237441,-0.5960107,-0.185912
 7,0.0627233,-0.1375274,-0.3062149,-0.5277526,-0.1123332,-0.0477944,-0.
 1129711,-0.3568986,0.2388554,-0.0083183,0.1768352,-0.9077903,-0.097328
 5,-0.0277242,-0.1270122,-0.0009521,0.0246732,0.0083478,-0.1190306,-0.0
 085352,-0.0375514,0.0119368,0.0840817,0.0696879,0.0660485,-0.0337346,-
 0.0398601,0.0652487,-0.0471793,0.0398663,0.044873,-0.0334134,0.0533217
 ,-0.0235832,0.0157026,0.0370897,0.0752199,0.0860805,-0.060507,-0.04191
 56,-0.0363747,0.077158,-0.038353,-0.0554137,0.0608457,0.076032,0.06025
 59,-0.1383782,-0.0912,0.0372352,-0.0828776,0.0206445,0.0562482,-0.0017
 457,-0.1073186,0.0166402,-0.0260187,0.0354206,-0.0101706,0.0528554,-0.
 0312256,0.0121623,0.0736034,0.094498,0.0406045,-0.1113706,0.0180134,-0
 .0797038,-0.004345,-0.039926,-0.1555364,-0.05408,0.0084355,-0.0658627,
 0.0345869,-0.0939822,-0.0396495,0.000287,-0.0298622,-0.3236586,-0.0565
 213,0.0141191,-0.0938827,-0.1037348,0.1478395,0.0252313,0.0493669,-0.0
 521307,0.1765471,0.1655325,0.0272918,0.0804031,0.0909946,0.0258769,0.0
 340047,-0.0593996,-0.0797249,0.2586586,-0.0566758,-0.0732987,-0.010437
 5,0.1040244,0.2418744,0.0671395,0.0986171,0.0841126,0.147356,-0.065588
 3,0.0757406,-0.0224092,0.3238685\Polar=58.194687,-3.0243505,51.9358562
 ,0.1801725,1.7778094,53.6241802\PG=C01 [X(C4H11N1O1)]\NImag=0\\0.57325
 250,-0.04259503,0.48634246,-0.00633396,-0.01540334,0.57490204,-0.09255
 866,-0.03109640,-0.00562096,0.48532215,-0.03472066,-0.16887128,-0.0146
 5066,0.01919759,0.49963262,-0.00632031,-0.01414204,-0.08357669,-0.0435
 8546,-0.03534778,0.54544653,0.00968432,-0.00377784,-0.00314716,-0.1337
 0050,0.04297563,0.02880366,0.52362308,0.02340141,-0.02565035,-0.014030
 08,0.04193183,-0.11385141,-0.02237046,0.04556969,0.53627410,0.00475890
 ,-0.00702012,-0.00272759,0.02683505,-0.02234773,-0.09537584,0.03393429
 ,-0.02143876,0.55307727,-0.01323000,-0.00849421,-0.01191770,-0.1309512
 9,-0.00791943,-0.03940855,-0.02643403,0.00731165,-0.01362976,0.5036479
 8,-0.02807916,0.00139329,-0.02242974,-0.00686855,-0.08171739,-0.006517
 41,0.01882993,-0.00267488,0.01223475,-0.00195078,0.58030364,-0.0088798
 0,-0.00758852,-0.00534998,-0.03819205,-0.00770692,-0.10422762,0.005969
 96,0.00301800,0.01207513,-0.00545426,0.02785743,0.48757150,-0.00036148
 ,-0.00008642,-0.00031146,-0.03027980,0.02019147,0.00789926,-0.00307704
 ,-0.00096359,-0.00450504,-0.15578679,0.09315257,0.03681465,0.57437923,
 -0.00040415,-0.00110615,-0.00096980,0.00729387,-0.00209737,0.00018245,
 0.00064353,0.00030579,0.00146490,0.04730707,-0.12602468,-0.01905800,-0
 .06233477,0.23044089,-0.00032680,-0.00074274,-0.00035534,-0.01506752,0
 .01183658,0.01236509,-0.00398231,-0.00050320,-0.00355131,0.01648383,-0
 .02856201,-0.11270881,0.02224149,-0.10941772,0.67812551,0.00025752,-0.
 00104496,0.00126931,0.01044921,0.01167263,-0.01711994,-0.00105559,-0.0
 0082892,0.00131941,-0.07664968,-0.01286238,0.03405476,-0.01022209,-0.0
 0937758,0.04016374,0.21748979,-0.00033489,-0.00106921,0.00001518,-0.00
 031467,-0.00003706,0.01017917,-0.00120111,0.00062811,0.00050330,0.0052
 9420,-0.13026436,0.03620473,0.00466129,0.01688641,-0.01950958,-0.17064
 936,0.38002883,0.00101795,0.00145995,0.00119775,0.00667610,0.01815017,
 -0.03833644,0.00229091,-0.00137838,-0.00037192,0.02060353,0.07740783,-
 0.17008243,0.01680157,0.00419575,-0.03527900,-0.20070140,0.07578949,0.
 42653690,-0.20028354,0.01018803,-0.12899439,-0.00946518,0.00127119,-0.
 00687221,0.00047953,0.00090941,0.00048378,-0.00008358,-0.00209822,0.00
 147648,-0.00027459,-0.00052435,-0.00069801,0.00053703,0.00051734,-0.00
 015936,0.21561666,0.01103381,-0.04790427,0.00888931,-0.02473294,0.0007
 6992,-0.02198532,-0.00085105,0.00157766,-0.00017147,-0.00043682,-0.007
 63095,0.00039215,0.00074809,0.00083078,0.00043787,0.00084452,0.0009867
 0,0.00001065,-0.00965891,0.05242148,-0.12866040,0.00811412,-0.15837523
 ,-0.00308226,0.00111640,-0.00411587,-0.00038355,0.00063430,-0.00010512
 ,0.00080985,-0.00068513,0.00002344,0.00017444,0.00022375,0.00038344,-0
 .00071998,-0.00079834,0.00032188,0.14305365,-0.00850118,0.16815611,-0.
 19100493,0.11468878,0.07728568,0.01077573,-0.00695047,-0.00513894,-0.0
 0081268,-0.00180608,-0.00083251,0.00049983,0.00044410,-0.00058451,-0.0
 0184958,-0.00106979,-0.00052738,-0.00010830,-0.00001055,0.00007853,-0.
 01629831,0.01239844,0.01024061,0.20479490,0.11185617,-0.13708708,-0.05
 933808,0.02302397,-0.01685404,-0.01208808,-0.00408184,-0.00534495,-0.0
 0069121,0.00204183,-0.00047708,-0.00015975,0.00018097,0.00079556,0.001
 14086,-0.00030418,0.00013080,-0.00011631,-0.00005631,-0.00080446,0.000
 50340,-0.12247759,0.15034181,0.07501576,-0.05907765,-0.08890585,0.0037
 6685,-0.00231532,-0.00338737,-0.00111834,-0.00118991,0.00025460,0.0017
 8337,-0.00133762,-0.00039434,0.00006942,0.00077374,0.00036026,-0.00086
 418,0.00009104,-0.00013170,-0.01574382,0.01366660,0.00946138,-0.083363
 73,0.06563954,0.09104110,-0.07515230,-0.03442317,0.07154289,-0.0053302
 1,-0.00566393,0.01047493,0.00025659,0.00088786,-0.00058405,-0.00014684
 ,-0.00085326,0.00260934,-0.00019079,0.00024115,-0.00079111,0.00075964,
 0.00103403,-0.00083622,0.00948065,0.01148180,-0.02184087,-0.00702333,-
 0.01116488,0.02046141,0.07658862,-0.03458587,-0.09461151,0.09433768,-0
 .01065000,-0.01456787,0.02707167,-0.00066129,0.00143766,0.00152400,0.0
 0036935,-0.00013094,0.00241202,-0.00008812,0.00005635,-0.00019359,0.00
 134256,0.00127877,-0.00104599,0.00018227,-0.00133168,0.00046007,0.0051
 2711,0.00898834,-0.01688117,0.04065544,0.10450085,0.07309092,0.0957990
 4,-0.24071791,-0.00096449,-0.00220124,0.00697020,-0.00031107,-0.000158
 16,0.00068798,-0.00059277,0.00065433,-0.00037724,0.00015498,-0.0001464
 6,0.00018970,-0.00086144,-0.00098994,-0.00064270,0.00737426,0.00740258
 ,-0.01650190,0.00252034,0.00493260,-0.00995460,-0.07953309,-0.10422983
 ,0.25936167,-0.00428173,-0.00585233,0.01029130,-0.07483443,-0.03258839
 ,0.06651162,-0.01011050,-0.00854446,0.02297316,0.00885426,0.01045441,-
 0.02066551,0.00063887,-0.00013459,0.00053873,-0.00342203,0.00145364,-0
 .00629766,0.00000558,0.00044397,0.00021601,0.00062951,0.00024764,-0.00
 054496,-0.00022690,-0.00250487,-0.00098521,0.08466352,-0.01058966,-0.0
 1466355,0.02639718,-0.03239194,-0.08626282,0.08397514,0.00818548,0.006
 74729,-0.01845644,-0.00152660,-0.00174406,0.00096305,0.00001046,0.0001
 5004,-0.00006772,0.00037029,0.00120779,0.00059591,0.00011277,0.0012984
 8,-0.00040112,0.00057084,0.00095783,0.00007206,-0.00251366,-0.00559218
 ,-0.00162138,0.03411649,0.09811396,-0.00280803,-0.00350311,0.00641065,
 0.06565819,0.08347561,-0.22705627,0.00444801,0.00398387,-0.01064332,0.
 01121478,0.00974665,-0.01910164,0.00082948,-0.00020579,0.00138672,-0.0
 0453822,0.00027946,-0.00422898,0.00035885,0.00056969,0.00063800,0.0001
 8001,0.00074158,0.00046379,-0.00082894,-0.00176153,0.00073859,-0.07413
 537,-0.09036235,0.24836097,0.00064817,-0.00126212,-0.00056982,-0.01868
 302,0.00106539,-0.01624755,-0.19610721,0.01462590,-0.13231021,-0.00176
 382,0.00291169,0.00469416,-0.00125487,0.00056047,-0.00140922,0.0007098
 3,0.00007223,-0.00032724,0.00067993,0.00057357,0.00037120,0.00009539,-
 0.00023515,0.00032455,0.00005601,0.00003385,0.00005463,0.00059495,-0.0
 0079522,0.00006469,0.21335894,0.00053829,0.00103524,0.00120275,0.01468
 728,-0.00239197,0.01410659,0.01402496,-0.04856624,0.01293807,0.0008170
 4,-0.00277455,-0.00280931,0.00103981,0.00011937,0.00098757,0.00031019,
 0.00020597,-0.00011988,-0.00030095,-0.00043577,-0.00066190,-0.00021183
 ,0.00023172,-0.00010571,0.00002934,-0.00004996,0.00002527,-0.00084585,
 0.00065612,-0.00014907,-0.01788306,0.05015228,0.00016521,0.00040618,0.
 00028112,0.01144120,-0.00137917,0.00906213,-0.13305552,0.01364594,-0.1
 6329798,0.00166260,-0.00179811,-0.00228381,0.00063076,-0.00010709,0.00
 077910,-0.00089683,-0.00009371,0.00063434,-0.00007220,0.00009619,0.000
 14011,0.00014423,0.00023062,0.00009109,-0.00011610,-0.00006713,-0.0000
 8173,-0.00041663,0.00051911,0.00091258,0.14327564,-0.01299029,0.175047
 87,0.00068638,-0.00115850,-0.00083660,-0.00982209,-0.00989589,0.021100
 39,-0.08313154,-0.03711038,0.08136205,0.00012191,-0.00168838,0.0031523
 5,0.00007068,0.00012485,-0.00050384,0.00184872,0.00053807,-0.00136026,
 0.00005974,0.00011559,-0.00009728,-0.00004042,-0.00008091,-0.00029042,
 0.00055210,0.00076295,-0.00004769,-0.00344922,0.00345772,0.00151823,0.
 01043973,0.01009918,-0.02111470,0.08933860,0.00001416,0.00179402,-0.00
 080874,0.00632845,0.00795440,-0.01788746,-0.03743289,-0.08606694,0.082
 76444,-0.00030162,0.00043676,0.00013426,-0.00017638,0.00002318,-0.0000
 1656,-0.00003090,-0.00017277,0.00019754,-0.00005550,-0.00007270,-0.000
 00121,-0.00005483,0.00015736,0.00025385,-0.00010762,-0.00032029,0.0003
 4506,0.00367859,-0.00185709,-0.00175519,-0.00066523,-0.00159964,0.0010
 3561,0.03845730,0.08949120,-0.00020447,0.00098356,0.00028203,0.0056895
 1,0.00419812,-0.01069413,0.08020471,0.08198540,-0.23295299,-0.00085991
 ,0.00045886,-0.00200685,0.00027285,-0.00017090,0.00016620,-0.00163682,
 -0.00017565,0.00091599,0.00004240,-0.00002304,-0.00008834,-0.00015083,
 -0.00017672,0.00037908,-0.00011541,-0.00085299,0.00027886,0.00195028,-
 0.00200950,0.00021926,0.00880140,0.00859487,-0.01827417,-0.09084868,-0
 .09067414,0.25422575,-0.00383186,0.00199068,0.00120985,0.01006902,0.02
 248269,0.00308622,-0.08084943,-0.08418433,-0.01585660,0.00118201,0.001
 95501,0.00027279,0.00024873,-0.00054522,0.00004402,-0.00001856,-0.0003
 7679,0.00013479,0.00010275,-0.00000359,0.00030667,0.00045138,0.0013994
 7,0.00041224,-0.00010309,0.00003934,-0.00012786,0.00095453,-0.00075820
 ,-0.00020415,-0.00837525,-0.02270556,-0.00262132,-0.00494360,-0.009626
 20,-0.00324956,0.08546588,0.00495246,-0.00114412,-0.00198053,-0.007769
 31,-0.01729281,-0.00208098,-0.08383176,-0.26578144,-0.04209342,-0.0021
 6033,-0.00128169,-0.00109692,0.00004722,0.00110785,0.00045551,0.000643
 54,0.00036016,0.00041098,-0.00011552,0.00030986,0.00001332,-0.00075369
 ,-0.00130889,-0.00044168,-0.00001212,0.00044855,0.00007475,0.00017201,
 0.00087178,-0.00029953,0.00093828,0.00329124,0.00050811,-0.00384744,-0
 .01017299,-0.00244858,0.09091378,0.29025051,0.00257186,-0.00101054,-0.
 00067050,-0.00545605,-0.01113504,-0.00325524,-0.01596431,-0.04193790,-
 0.05748258,-0.00052476,0.00073206,0.00019991,0.00007809,0.00002775,-0.
 00010014,-0.00025783,-0.00005812,0.00001095,0.00026491,0.00042162,0.00
 019702,-0.00027233,-0.00097794,0.00032984,-0.00009393,-0.00039405,0.00
 020560,-0.00050275,0.00018559,0.00006020,-0.00695687,-0.02080531,-0.00
 369602,0.00995767,0.02619314,0.00680009,0.01688880,0.04821920,0.057233
 91,-0.00361793,0.00212438,-0.00354354,-0.00828240,-0.02430770,-0.00753
 734,0.00073428,-0.00218064,-0.00020302,-0.07307556,-0.05788870,-0.0156
 2588,0.00045127,0.03338149,0.01118517,0.00002568,-0.00991742,0.0058552
 0,-0.00052222,-0.00177573,-0.00033366,0.00001829,-0.00003345,-0.000209
 63,0.00014561,0.00016731,0.00033312,0.00061425,0.00061169,-0.00039124,
 0.00035191,0.00030018,0.00006931,-0.00003190,0.00004680,0.00015153,-0.
 00039098,0.00103085,0.00015605,0.08005360,0.00032223,0.00125960,-0.000
 53752,0.00019084,-0.00308184,-0.00129682,0.00083062,0.00011398,0.00075
 292,-0.06052128,-0.23011605,-0.04095705,0.00804941,-0.02057505,-0.0110
 9418,-0.00964080,-0.01790549,0.01270636,-0.00010396,-0.00005964,-0.000
 06934,0.00014240,0.00015348,0.00022758,0.00027326,0.00020529,0.0002359
 3,-0.00044740,0.00018684,-0.00089734,0.00002911,0.00053094,0.00010409,
 0.00012526,0.00003309,-0.00006733,-0.00055227,0.00110036,0.00019781,0.
 06001760,0.26661096,-0.00311347,0.00173074,-0.00240988,-0.00943691,-0.
 02065443,-0.00174478,0.00100733,-0.00049062,0.00027892,-0.01755370,-0.
 04489464,-0.06142991,0.00432687,-0.01930115,-0.00291946,0.01466224,0.0
 4102847,-0.01007898,-0.00052076,-0.00129523,-0.00021049,0.00041692,0.0
 0018254,0.00016050,-0.00033567,-0.00014339,-0.00001663,0.00114104,0.00
 010754,0.00066714,0.00018990,0.00022376,0.00005717,-0.00025539,0.00005
 889,0.00011564,-0.00018994,0.00078533,0.00022219,0.01090212,0.04006041
 ,0.07410252,-0.00025859,0.00002427,-0.00025072,-0.00027641,-0.00049280
 ,0.00092825,0.00024130,0.00043929,-0.00047141,-0.00376793,-0.02079614,
 0.02162559,-0.09760478,-0.03146431,0.11121125,-0.00477270,0.00451866,0
 .00416169,0.00005293,-0.00003085,-0.00006883,-0.00017548,-0.00037308,0
 .00007183,0.00037626,0.00017622,-0.00005656,-0.00067844,0.00086254,-0.
 00128022,0.00004197,-0.00003059,-0.00003113,0.00035015,-0.00016332,-0.
 00012817,-0.00000362,-0.00010904,0.00000757,0.00079626,0.00071193,0.00
 001521,0.09592406,-0.00048043,0.00035949,0.00014337,-0.00010967,0.0010
 1677,-0.00001041,-0.00034866,-0.00007075,-0.00020479,0.00996264,0.0009
 5612,-0.02379195,-0.04338289,-0.08597304,0.17579966,0.00268668,-0.0016
 3868,-0.00148819,0.00002356,-0.00006238,-0.00012224,-0.00026093,-0.000
 54812,0.00005544,0.00033332,-0.00015595,-0.00013086,0.00027253,0.00011
 128,0.00018175,-0.00012741,0.00001380,-0.00002345,0.00001962,0.0000155
 6,0.00000756,0.00008519,-0.00020142,-0.00005888,-0.00040720,0.00035383
 ,0.00044602,0.03494744,0.08881956,0.00000856,0.00025789,0.00001458,-0.
 00079449,0.00028988,0.00035703,-0.00002051,-0.00017347,-0.00016070,0.0
 0312531,0.00992755,-0.01331103,0.09208576,0.12719874,-0.31687673,0.002
 61989,-0.00380511,-0.00118757,-0.00002714,-0.00007266,-0.00003600,-0.0
 0000759,-0.00017671,0.00003744,0.00007107,-0.00005967,-0.00001245,-0.0
 0029116,0.00013782,0.00045395,-0.00011823,-0.00000627,0.00001774,-0.00
 007041,-0.00003012,0.00013765,0.00005235,-0.00014159,-0.00003768,-0.00
 122959,-0.00012063,0.00099241,-0.10812739,-0.14646543,0.34966385,0.000
 47162,0.00052352,0.00019287,-0.00321166,0.00401603,0.00471977,-0.00094
 883,-0.00036461,-0.00174958,-0.02548665,-0.00473128,-0.02389311,-0.273
 67726,0.01874272,-0.18319910,0.00285376,-0.00095311,-0.00011772,-0.000
 03076,-0.00003470,0.00002484,0.00004313,0.00000188,0.00001867,-0.00016
 055,-0.00009483,0.00002807,0.00047085,0.00004631,-0.00011276,-0.000495
 95,0.00041259,0.00035958,-0.00014552,-0.00001769,0.00012579,0.00004988
 ,0.00010052,0.00001527,0.00188231,0.00024712,0.00034033,0.01050332,-0.
 00377965,0.01193859,0.28740712,-0.00027919,-0.00014775,-0.00047161,0.0
 0142272,-0.00193896,-0.00245090,0.00081130,0.00049604,0.00044880,0.023
 12346,-0.00600123,0.01349337,-0.02087107,-0.01376951,-0.02232080,-0.00
 225877,-0.00025842,0.00066593,-0.00024461,0.00009909,0.00014651,0.0002
 1450,0.00069227,0.00034816,-0.00020369,0.00005193,0.00013652,-0.000057
 11,-0.00002141,-0.00028043,0.00023855,-0.00012145,-0.00002436,-0.00003
 256,-0.00001147,-0.00001047,-0.00001395,0.00001064,0.00008946,-0.00035
 304,0.00125891,0.00120473,0.01228821,-0.00442342,0.01209657,-0.0140972
 8,0.02438995,0.00002783,-0.00014874,0.00006173,0.00197448,-0.00080126,
 -0.00129133,0.00057543,-0.00026942,0.00079385,0.01397038,-0.00281976,0
 .01130760,-0.17804759,0.01101015,-0.21538042,-0.00095509,0.00004997,0.
 00071015,-0.00000168,0.00008616,0.00002336,0.00000649,0.00017737,0.000
 00025,-0.00000531,0.00004426,0.00003180,0.00010818,-0.00021695,0.00021
 914,0.00024565,-0.00018476,-0.00005448,-0.00005966,0.00010957,-0.00002
 440,-0.00003248,0.00004452,0.00000507,0.00059319,-0.00002874,0.0000233
 0,-0.02942558,-0.00397894,-0.02010783,0.19120168,-0.00311155,0.2236414
 4,-0.00041951,0.00025132,-0.00026561,0.00077954,-0.00033335,-0.0012938
 0,0.00120824,0.00090598,-0.00152448,-0.00692981,0.01006915,0.00262505,
 -0.00120970,-0.00244039,0.00463703,-0.13868223,0.16566843,0.15217960,-
 0.00005662,-0.00011522,-0.00001045,0.00000487,0.00005545,0.00021096,0.
 00011852,-0.00027141,-0.00007614,-0.00042307,0.00023069,0.00002668,-0.
 00029672,-0.00028102,0.00057589,-0.00190372,0.00010689,-0.00004463,-0.
 00000777,-0.00019946,0.00008861,0.00084753,0.00032593,-0.00159613,-0.0
 0074830,0.00056585,0.00078496,0.00047520,0.00031249,-0.00017590,0.1472
 4357,-0.00004950,0.00007117,-0.00036536,-0.00014310,-0.00040889,0.0006
 6263,0.00031530,0.00042635,-0.00020723,-0.01291616,0.00774805,0.018693
 42,-0.00017804,-0.00117041,0.00177005,0.18912744,-0.25036756,-0.187441
 83,-0.00004625,0.00000787,0.00002858,0.00000962,-0.00002457,0.00022103
 ,0.00000612,-0.00020736,-0.00012821,0.00013571,-0.00016031,0.00023574,
 -0.00008085,-0.00029711,-0.00006252,0.00011349,0.00036832,0.00038096,-
 0.00010006,-0.00056759,0.00031116,-0.00081642,-0.00006922,0.00095102,-
 0.00050843,0.00142735,0.00114322,-0.00001754,-0.00030522,0.00003809,-0
 .17485132,0.24352914,-0.00000978,-0.00011468,-0.00006093,0.00015881,-0
 .00052718,-0.00113939,0.00074845,0.00067283,-0.00049837,0.02028776,-0.
 02997502,-0.01990392,0.00048446,0.00429967,-0.00658483,0.13446237,-0.1
 3871035,-0.16998824,0.00003523,0.00007607,0.00008820,0.00000502,0.0001
 7629,0.00019453,-0.00007895,-0.00022037,-0.00015924,0.00010891,0.00018
 205,0.00049922,-0.00008269,-0.00024637,0.00066495,-0.00160577,0.000081
 06,0.00052032,-0.00012583,0.00007151,-0.00002263,-0.00017178,0.0007838
 4,0.00219033,0.00181860,-0.00035867,0.00005533,0.00010680,0.00004007,0
 .00004077,-0.15614164,0.16376924,0.19410391\\-0.00000134,0.00000054,0.
 00000225,0.00000810,0.00000005,0.00001195,-0.00000211,-0.00000333,0.00
 000613,0.00003432,0.00000838,-0.00008676,-0.00000371,0.00004405,0.0000
 1236,-0.00003916,-0.00000242,0.00006054,0.00000296,-0.00000009,0.00000
 142,0.00000006,0.00000225,-0.00000099,0.00000187,-0.00000066,-0.000000
 68,-0.00000026,0.00000028,0.00000008,0.00000106,-0.00000238,0.00000043
 ,0.00000139,-0.00000109,0.00000076,-0.00000075,-0.00000452,0.00000077,
 -0.00000943,-0.00001029,0.00001105,-0.00000322,-0.00001253,0.00000878,
 -0.00001310,-0.00000148,-0.00001340,0.00002331,-0.00001676,-0.00001469
 \\\@


 THERE IS SOMETHING FASCINATING ABOUT SCIENCE.
 ONE GETS SUCH WHOLESALE CONJECTURE OUT OF SUCH TRIFLING INVESTMENTS.

                                                       -- MARK TWAIN
 Job cpu time:       0 days  0 hours  7 minutes 10.9 seconds.
 File lengths (MBytes):  RWF=     42 Int=      0 D2E=      0 Chk=      3 Scr=      1
 Normal termination of Gaussian 09 at Thu Sep  8 14:59:43 2022.
