 Entering Gaussian System, Link 0=g09
 Input=B3LYP6-31Gdp.Frag_654.gjf
 Output=B3LYP6-31Gdp.Frag_654.log
 Initial command:
 /public/home/users/caep010/software/Gaussian09/g09/l1.exe "/public/home/users/caep010/.cache/gau_scr/Gau-76459.inp" -scrdir="/public/home/users/caep010/.cache/gau_scr/"
 Entering Link 1 = /public/home/users/caep010/software/Gaussian09/g09/l1.exe PID=     76460.
  
 Copyright (c) 1988,1990,1992,1993,1995,1998,2003,2009,2015,
            Gaussian, Inc.  All Rights Reserved.
  
 This is part of the Gaussian(R) 09 program.  It is based on
 the Gaussian(R) 03 system (copyright 2003, Gaussian, Inc.),
 the Gaussian(R) 98 system (copyright 1998, Gaussian, Inc.),
 the Gaussian(R) 94 system (copyright 1995, Gaussian, Inc.),
 the Gaussian 92(TM) system (copyright 1992, Gaussian, Inc.),
 the Gaussian 90(TM) system (copyright 1990, Gaussian, Inc.),
 the Gaussian 88(TM) system (copyright 1988, Gaussian, Inc.),
 the Gaussian 86(TM) system (copyright 1986, Carnegie Mellon
 University), and the Gaussian 82(TM) system (copyright 1983,
 Carnegie Mellon University). Gaussian is a federally registered
 trademark of Gaussian, Inc.
  
 This software contains proprietary and confidential information,
 including trade secrets, belonging to Gaussian, Inc.
  
 This software is provided under written license and may be
 used, copied, transmitted, or stored only in accord with that
 written license.
  
 The following legend is applicable only to US Government
 contracts under FAR:
  
                    RESTRICTED RIGHTS LEGEND
  
 Use, reproduction and disclosure by the US Government is
 subject to restrictions as set forth in subparagraphs (a)
 and (c) of the Commercial Computer Software - Restricted
 Rights clause in FAR 52.227-19.
  
 Gaussian, Inc.
 340 Quinnipiac St., Bldg. 40, Wallingford CT 06492
  
  
 ---------------------------------------------------------------
 Warning -- This program may not be used in any manner that
 competes with the business of Gaussian, Inc. or will provide
 assistance to any competitor of Gaussian, Inc.  The licensee
 of this program is prohibited from giving any competitor of
 Gaussian, Inc. access to this program.  By using this program,
 the user acknowledges that Gaussian, Inc. is engaged in the
 business of creating and licensing software in the field of
 computational chemistry and represents and warrants to the
 licensee that it is not a competitor of Gaussian, Inc. and that
 it will not use this program in any manner prohibited above.
 ---------------------------------------------------------------
  

 Cite this work as:
 Gaussian 09, Revision E.01,
 M. J. Frisch, G. W. Trucks, H. B. Schlegel, G. E. Scuseria, 
 M. A. Robb, J. R. Cheeseman, G. Scalmani, V. Barone, B. Mennucci, 
 G. A. Petersson, H. Nakatsuji, M. Caricato, X. Li, H. P. Hratchian, 
 A. F. Izmaylov, J. Bloino, G. Zheng, J. L. Sonnenberg, M. Hada, 
 M. Ehara, K. Toyota, R. Fukuda, J. Hasegawa, M. Ishida, T. Nakajima, 
 Y. Honda, O. Kitao, H. Nakai, T. Vreven, J. A. Montgomery, Jr., 
 J. E. Peralta, F. Ogliaro, M. Bearpark, J. J. Heyd, E. Brothers, 
 K. N. Kudin, V. N. Staroverov, T. Keith, R. Kobayashi, J. Normand, 
 K. Raghavachari, A. Rendell, J. C. Burant, S. S. Iyengar, J. Tomasi, 
 M. Cossi, N. Rega, J. M. Millam, M. Klene, J. E. Knox, J. B. Cross, 
 V. Bakken, C. Adamo, J. Jaramillo, R. Gomperts, R. E. Stratmann, 
 O. Yazyev, A. J. Austin, R. Cammi, C. Pomelli, J. W. Ochterski, 
 R. L. Martin, K. Morokuma, V. G. Zakrzewski, G. A. Voth, 
 P. Salvador, J. J. Dannenberg, S. Dapprich, A. D. Daniels, 
 O. Farkas, J. B. Foresman, J. V. Ortiz, J. Cioslowski, 
 and D. J. Fox, Gaussian, Inc., Wallingford CT, 2013.
 
 ******************************************
 Gaussian 09:  ES64L-G09RevE.01 30-Nov-2015
                 8-Sep-2022 
 ******************************************
 %nproc=32
 Will use up to   32 processors via shared memory.
 %mem=180GB
 %chk=B3LYP6-31Gdp.Frag_654.chk
 ----------------------------
 #P OPT Freq B3LYP/6-31G(d,p)
 ----------------------------
 1/14=-1,18=20,19=15,26=3,38=1/1,3;
 2/9=110,12=2,17=6,18=5,40=1/2;
 3/5=1,6=6,7=101,11=2,16=1,25=1,30=1,71=1,74=-5/1,2,3;
 4//1;
 5/5=2,38=5/2;
 6/7=2,8=2,9=2,10=2,28=1/1;
 7//1,2,3,16;
 1/14=-1,18=20,19=15,26=3/3(2);
 2/9=110/2;
 99//99;
 2/9=110/2;
 3/5=1,6=6,7=101,11=2,16=1,25=1,30=1,71=1,74=-5/1,2,3;
 4/5=5,16=3,69=1/1;
 5/5=2,38=5/2;
 7//1,2,3,16;
 1/14=-1,18=20,19=15,26=3/3(-5);
 2/9=110/2;
 6/7=2,8=2,9=2,10=2,19=2,28=1/1;
 99/9=1/99;
 Leave Link    1 at Thu Sep  8 14:58:51 2022, MaxMem= 24159191040 cpu:         2.5
 (Enter /public/home/users/caep010/software/Gaussian09/g09/l101.exe)
 --------
 Frag_654
 --------
 Symbolic Z-matrix:
 Charge =  0 Multiplicity = 1
 C                    -1.5946   -0.60159   0.22385 
 C                    -0.65108   0.58885   0.11661 
 O                    -0.12058   0.97057   1.39358 
 N                     0.39054   0.38275  -0.87856 
 C                     1.32217  -0.70588  -0.60682 
 O                     1.14051   1.5918   -0.95624 
 H                    -2.43731  -0.34064   0.86828 
 H                    -1.09573  -1.47604   0.65685 
 H                    -1.97342  -0.87866  -0.76291 
 H                    -1.19431   1.47563  -0.22013 
 H                     0.1381    0.1712    1.8651 
 H                     2.08036  -0.70068  -1.39118 
 H                     0.79319  -1.66221  -0.64373 
 H                     1.83473  -0.61429   0.3667 
 H                     1.36763   1.79918  -0.0314 
 
 NAtoms=     15 NQM=       15 NQMF=       0 NMMI=      0 NMMIF=      0
                NMic=       0 NMicF=      0.
                    Isotopes and Nuclear Properties:
 (Nuclear quadrupole moments (NQMom) in fm**2, nuclear magnetic moments (NMagM)
  in nuclear magnetons)

  Atom         1           2           3           4           5           6           7           8           9          10
 IAtWgt=          12          12          16          14          12          16           1           1           1           1
 AtmWgt=  12.0000000  12.0000000  15.9949146  14.0030740  12.0000000  15.9949146   1.0078250   1.0078250   1.0078250   1.0078250
 NucSpn=           0           0           0           2           0           0           1           1           1           1
 AtZEff=   0.0000000   0.0000000   0.0000000   0.0000000   0.0000000   0.0000000   0.0000000   0.0000000   0.0000000   0.0000000
 NQMom=    0.0000000   0.0000000   0.0000000   2.0440000   0.0000000   0.0000000   0.0000000   0.0000000   0.0000000   0.0000000
 NMagM=    0.0000000   0.0000000   0.0000000   0.4037610   0.0000000   0.0000000   2.7928460   2.7928460   2.7928460   2.7928460
 AtZNuc=   6.0000000   6.0000000   8.0000000   7.0000000   6.0000000   8.0000000   1.0000000   1.0000000   1.0000000   1.0000000

  Atom        11          12          13          14          15
 IAtWgt=           1           1           1           1           1
 AtmWgt=   1.0078250   1.0078250   1.0078250   1.0078250   1.0078250
 NucSpn=           1           1           1           1           1
 AtZEff=   0.0000000   0.0000000   0.0000000   0.0000000   0.0000000
 NQMom=    0.0000000   0.0000000   0.0000000   0.0000000   0.0000000
 NMagM=    2.7928460   2.7928460   2.7928460   2.7928460   2.7928460
 AtZNuc=   1.0000000   1.0000000   1.0000000   1.0000000   1.0000000
 Leave Link  101 at Thu Sep  8 14:58:51 2022, MaxMem= 24159191040 cpu:         9.8
 (Enter /public/home/users/caep010/software/Gaussian09/g09/l103.exe)

 GradGradGradGradGradGradGradGradGradGradGradGradGradGradGradGradGradGrad
 Berny optimization.
 Initialization pass.
                           ----------------------------
                           !    Initial Parameters    !
                           ! (Angstroms and Degrees)  !
 --------------------------                            --------------------------
 ! Name  Definition              Value          Derivative Info.                !
 --------------------------------------------------------------------------------
 ! R1    R(1,2)                  1.5228         estimate D2E/DX2                !
 ! R2    R(1,7)                  1.0925         estimate D2E/DX2                !
 ! R3    R(1,8)                  1.0959         estimate D2E/DX2                !
 ! R4    R(1,9)                  1.0927         estimate D2E/DX2                !
 ! R5    R(2,3)                  1.4345         estimate D2E/DX2                !
 ! R6    R(2,4)                  1.4553         estimate D2E/DX2                !
 ! R7    R(2,10)                 1.0931         estimate D2E/DX2                !
 ! R8    R(3,11)                 0.9635         estimate D2E/DX2                !
 ! R9    R(4,5)                  1.4584         estimate D2E/DX2                !
 ! R10   R(4,6)                  1.4249         estimate D2E/DX2                !
 ! R11   R(5,12)                 1.0909         estimate D2E/DX2                !
 ! R12   R(5,13)                 1.0935         estimate D2E/DX2                !
 ! R13   R(5,14)                 1.104          estimate D2E/DX2                !
 ! R14   R(6,15)                 0.9746         estimate D2E/DX2                !
 ! A1    A(2,1,7)              109.4357         estimate D2E/DX2                !
 ! A2    A(2,1,8)              111.6881         estimate D2E/DX2                !
 ! A3    A(2,1,9)              110.4529         estimate D2E/DX2                !
 ! A4    A(7,1,8)              107.9788         estimate D2E/DX2                !
 ! A5    A(7,1,9)              109.0155         estimate D2E/DX2                !
 ! A6    A(8,1,9)              108.1975         estimate D2E/DX2                !
 ! A7    A(1,2,3)              111.9913         estimate D2E/DX2                !
 ! A8    A(1,2,4)              112.391          estimate D2E/DX2                !
 ! A9    A(1,2,10)             110.3633         estimate D2E/DX2                !
 ! A10   A(3,2,4)              112.4411         estimate D2E/DX2                !
 ! A11   A(3,2,10)             104.0131         estimate D2E/DX2                !
 ! A12   A(4,2,10)             105.0664         estimate D2E/DX2                !
 ! A13   A(2,3,11)             108.3111         estimate D2E/DX2                !
 ! A14   A(2,4,5)              115.819          estimate D2E/DX2                !
 ! A15   A(2,4,6)              107.0876         estimate D2E/DX2                !
 ! A16   A(5,4,6)              107.8979         estimate D2E/DX2                !
 ! A17   A(4,5,12)             107.8453         estimate D2E/DX2                !
 ! A18   A(4,5,13)             109.7249         estimate D2E/DX2                !
 ! A19   A(4,5,14)             113.5129         estimate D2E/DX2                !
 ! A20   A(12,5,13)            108.4273         estimate D2E/DX2                !
 ! A21   A(12,5,14)            108.1165         estimate D2E/DX2                !
 ! A22   A(13,5,14)            109.0814         estimate D2E/DX2                !
 ! A23   A(4,6,15)             104.565          estimate D2E/DX2                !
 ! D1    D(7,1,2,3)             60.6944         estimate D2E/DX2                !
 ! D2    D(7,1,2,4)           -171.5975         estimate D2E/DX2                !
 ! D3    D(7,1,2,10)           -54.6747         estimate D2E/DX2                !
 ! D4    D(8,1,2,3)            -58.8164         estimate D2E/DX2                !
 ! D5    D(8,1,2,4)             68.8917         estimate D2E/DX2                !
 ! D6    D(8,1,2,10)          -174.1855         estimate D2E/DX2                !
 ! D7    D(9,1,2,3)           -179.282          estimate D2E/DX2                !
 ! D8    D(9,1,2,4)            -51.574          estimate D2E/DX2                !
 ! D9    D(9,1,2,10)            65.3489         estimate D2E/DX2                !
 ! D10   D(1,2,3,11)            43.8924         estimate D2E/DX2                !
 ! D11   D(4,2,3,11)           -83.7888         estimate D2E/DX2                !
 ! D12   D(10,2,3,11)          163.0738         estimate D2E/DX2                !
 ! D13   D(1,2,4,5)            -63.8536         estimate D2E/DX2                !
 ! D14   D(1,2,4,6)            175.7553         estimate D2E/DX2                !
 ! D15   D(3,2,4,5)             63.6158         estimate D2E/DX2                !
 ! D16   D(3,2,4,6)            -56.7753         estimate D2E/DX2                !
 ! D17   D(10,2,4,5)           176.1037         estimate D2E/DX2                !
 ! D18   D(10,2,4,6)            55.7126         estimate D2E/DX2                !
 ! D19   D(2,4,5,12)          -176.2041         estimate D2E/DX2                !
 ! D20   D(2,4,5,13)            65.878          estimate D2E/DX2                !
 ! D21   D(2,4,5,14)           -56.4477         estimate D2E/DX2                !
 ! D22   D(6,4,5,12)           -56.2523         estimate D2E/DX2                !
 ! D23   D(6,4,5,13)          -174.1703         estimate D2E/DX2                !
 ! D24   D(6,4,5,14)            63.5041         estimate D2E/DX2                !
 ! D25   D(2,4,6,15)            50.6871         estimate D2E/DX2                !
 ! D26   D(5,4,6,15)           -74.6293         estimate D2E/DX2                !
 --------------------------------------------------------------------------------
 Trust Radius=3.00D-01 FncErr=1.00D-07 GrdErr=1.00D-06
 Number of steps in this run=     73 maximum allowed number of steps=    100.
 GradGradGradGradGradGradGradGradGradGradGradGradGradGradGradGradGradGrad

 Leave Link  103 at Thu Sep  8 14:58:52 2022, MaxMem= 24159191040 cpu:         0.5
 (Enter /public/home/users/caep010/software/Gaussian09/g09/l202.exe)
                          Input orientation:                          
 ---------------------------------------------------------------------
 Center     Atomic      Atomic             Coordinates (Angstroms)
 Number     Number       Type             X           Y           Z
 ---------------------------------------------------------------------
      1          6           0       -1.594595   -0.601592    0.223851
      2          6           0       -0.651077    0.588854    0.116608
      3          8           0       -0.120584    0.970570    1.393576
      4          7           0        0.390543    0.382750   -0.878561
      5          6           0        1.322172   -0.705876   -0.606819
      6          8           0        1.140506    1.591796   -0.956235
      7          1           0       -2.437313   -0.340637    0.868277
      8          1           0       -1.095725   -1.476040    0.656854
      9          1           0       -1.973417   -0.878662   -0.762907
     10          1           0       -1.194314    1.475634   -0.220134
     11          1           0        0.138096    0.171196    1.865101
     12          1           0        2.080361   -0.700681   -1.391182
     13          1           0        0.793186   -1.662205   -0.643733
     14          1           0        1.834726   -0.614285    0.366700
     15          1           0        1.367633    1.799179   -0.031396
 ---------------------------------------------------------------------
                    Distance matrix (angstroms):
                    1          2          3          4          5
     1  C    0.000000
     2  C    1.522790   0.000000
     3  O    2.452072   1.434495   0.000000
     4  N    2.474877   1.455271   2.401955   0.000000
     5  C    3.034537   2.468478   2.982213   1.458384   0.000000
     6  O    3.699234   2.316604   2.738226   1.424875   2.331178
     7  H    1.092500   2.149325   2.713381   3.401691   4.055001
     8  H    1.095912   2.180221   2.734878   2.832242   2.834828
     9  H    1.092687   2.162344   3.391617   2.681948   3.303805
    10  H    2.161531   1.093106   2.003009   2.034624   3.352792
    11  H    2.508609   1.963278   0.963457   2.763361   2.877791
    12  H    4.015402   3.375957   3.923279   2.071735   1.090918
    13  H    2.753017   2.780518   3.452116   2.097405   1.093505
    14  H    3.432318   2.772960   2.718359   2.151841   1.104011
    15  H    3.821472   2.358385   2.220794   1.917984   2.570696
                    6          7          8          9         10
     6  O    0.000000
     7  H    4.456897   0.000000
     8  H    4.124852   1.770225   0.000000
     9  H    3.979580   1.779166   1.772830   0.000000
    10  H    2.450862   2.455306   3.080780   2.538565   0.000000
    11  H    3.314041   2.808623   2.386538   3.530880   2.797334
    12  H    2.515543   5.064007   3.857869   4.106035   4.102584
    13  H    3.287371   3.803793   2.300906   2.877887   3.738399
    14  H    2.664375   4.310079   3.068282   3.980937   3.726556
    15  H    0.974639   4.457111   4.155584   4.343795   2.589184
                   11         12         13         14         15
    11  H    0.000000
    12  H    3.890494   0.000000
    13  H    3.175650   1.772012   0.000000
    14  H    2.395984   1.777062   1.789949   0.000000
    15  H    2.785461   2.933649   3.561759   2.490274   0.000000
 Stoichiometry    C3H9NO2
 Framework group  C1[X(C3H9NO2)]
 Deg. of freedom    39
 Full point group                 C1      NOp   1
 Largest Abelian subgroup         C1      NOp   1
 Largest concise Abelian subgroup C1      NOp   1
                         Standard orientation:                         
 ---------------------------------------------------------------------
 Center     Atomic      Atomic             Coordinates (Angstroms)
 Number     Number       Type             X           Y           Z
 ---------------------------------------------------------------------
      1          6           0        1.807843    0.643793   -0.373765
      2          6           0        0.649486   -0.344326   -0.346968
      3          8           0        0.708364   -1.210204    0.795208
      4          7           0       -0.642404    0.312211   -0.480358
      5          6           0       -1.007589    1.221063    0.600157
      6          8           0       -1.629138   -0.713873   -0.541812
      7          1           0        2.751899    0.096031   -0.421405
      8          1           0        1.825786    1.271262    0.524557
      9          1           0        1.731485    1.298094   -1.245559
     10          1           0        0.711170   -1.025939   -1.199306
     11          1           0        0.926379   -0.677600    1.567900
     12          1           0       -2.017489    1.584294    0.404534
     13          1           0       -0.327657    2.077444    0.607757
     14          1           0       -1.000687    0.745891    1.596653
     15          1           0       -1.436304   -1.285517    0.223668
 ---------------------------------------------------------------------
 Rotational constants (GHZ):      4.7977089      2.9772933      2.4457663
 Leave Link  202 at Thu Sep  8 14:58:52 2022, MaxMem= 24159191040 cpu:         0.8
 (Enter /public/home/users/caep010/software/Gaussian09/g09/l301.exe)
 Standard basis: 6-31G(d,p) (6D, 7F)
 Ernie: Thresh=  0.10000D-02 Tol=  0.10000D-05 Strict=F.
 There are   135 symmetry adapted cartesian basis functions of A   symmetry.
 There are   135 symmetry adapted basis functions of A   symmetry.
   135 basis functions,   231 primitive gaussians,   135 cartesian basis functions
    25 alpha electrons       25 beta electrons
       nuclear repulsion energy       272.7417836138 Hartrees.
 IExCor=  402 DFT=T Ex+Corr=B3LYP ExCW=0 ScaHFX=  0.200000
 ScaDFX=  0.800000  0.720000  1.000000  0.810000 ScalE2=  1.000000  1.000000
 IRadAn=      0 IRanWt=     -1 IRanGd=            0 ICorTp=0 IEmpDi=  4
 NAtoms=   15 NActive=   15 NUniq=   15 SFac= 1.00D+00 NAtFMM=   60 NAOKFM=F Big=F
 Integral buffers will be    131072 words long.
 Raffenetti 2 integral format.
 Two-electron integral symmetry is turned on.
 Leave Link  301 at Thu Sep  8 14:58:52 2022, MaxMem= 24159191040 cpu:         1.8
 (Enter /public/home/users/caep010/software/Gaussian09/g09/l302.exe)
 NPDir=0 NMtPBC=     1 NCelOv=     1 NCel=       1 NClECP=     1 NCelD=      1
         NCelK=      1 NCelE2=     1 NClLst=     1 CellRange=     0.0.
 One-electron integrals computed using PRISM.
 NBasis=   135 RedAO= T EigKep=  3.49D-03  NBF=   135
 NBsUse=   135 1.00D-06 EigRej= -1.00D+00 NBFU=   135
 Precomputing XC quadrature grid using
 IXCGrd= 4 IRadAn=           0 IRanWt=          -1 IRanGd=           0 AccXCQ= 0.00D+00.
 Generated NRdTot=       0 NPtTot=           0 NUsed=           0 NTot=          32
 NSgBfM=   135   135   135   135   135 MxSgAt=    15 MxSgA2=    15.
 Leave Link  302 at Thu Sep  8 14:58:52 2022, MaxMem= 24159191040 cpu:        11.6
 (Enter /public/home/users/caep010/software/Gaussian09/g09/l303.exe)
 DipDrv:  MaxL=1.
 Leave Link  303 at Thu Sep  8 14:58:52 2022, MaxMem= 24159191040 cpu:         0.9
 (Enter /public/home/users/caep010/software/Gaussian09/g09/l401.exe)
 ExpMin= 1.61D-01 ExpMax= 5.48D+03 ExpMxC= 8.25D+02 IAcc=1 IRadAn=         1 AccDes= 0.00D+00
 Harris functional with IExCor=  402 and IRadAn=       1 diagonalized for initial guess.
 HarFok:  IExCor=  402 AccDes= 0.00D+00 IRadAn=         1 IDoV= 1 UseB2=F ITyADJ=14
 ICtDFT=  3500011 ScaDFX=  1.000000  1.000000  1.000000  1.000000
 FoFCou: FMM=F IPFlag=           0 FMFlag=      100000 FMFlg1=           0
         NFxFlg=           0 DoJE=T BraDBF=F KetDBF=T FulRan=T
         wScrn=  0.000000 ICntrl=     500 IOpCl=  0 I1Cent=   200000004 NGrid=           0
         NMat0=    1 NMatS0=      1 NMatT0=    0 NMatD0=    1 NMtDS0=    0 NMtDT0=    0
 Petite list used in FoFCou.
 Harris En= -324.912886770704    
 JPrj=0 DoOrth=F DoCkMO=F.
 Leave Link  401 at Thu Sep  8 14:58:53 2022, MaxMem= 24159191040 cpu:         9.9
 (Enter /public/home/users/caep010/software/Gaussian09/g09/l502.exe)
 Closed shell SCF:
 Using DIIS extrapolation, IDIIS=  1040.
 Integral symmetry usage will be decided dynamically.
 Keep R1 ints in memory in canonical form, NReq=43477021.
 IVT=       78571 IEndB=       78571 NGot= 24159191040 MDV= 24116971680
 LenX= 24116971680 LenY= 24116953014
 Requested convergence on RMS density matrix=1.00D-08 within 128 cycles.
 Requested convergence on MAX density matrix=1.00D-06.
 Requested convergence on             energy=1.00D-06.
 No special actions if energy rises.
 FoFCou: FMM=F IPFlag=           0 FMFlag=           0 FMFlg1=           0
         NFxFlg=           0 DoJE=F BraDBF=F KetDBF=F FulRan=T
         wScrn=  0.000000 ICntrl=     600 IOpCl=  0 I1Cent=           0 NGrid=           0
         NMat0=    1 NMatS0=   9180 NMatT0=    0 NMatD0=    1 NMtDS0=    0 NMtDT0=    0
 Symmetry not used in FoFCou.
 Integral accuracy reduced to 1.0D-05 until final iterations.

 Cycle   1  Pass 0  IDiag  1:
 E= -324.701258799707    
 DIIS: error= 2.28D-02 at cycle   1 NSaved=   1.
 NSaved= 1 IEnMin= 1 EnMin= -324.701258799707     IErMin= 1 ErrMin= 2.28D-02
 ErrMax= 2.28D-02  0.00D+00 EMaxC= 1.00D-01 BMatC= 2.01D-01 BMatP= 2.01D-01
 IDIUse=3 WtCom= 7.72D-01 WtEn= 2.28D-01
 Coeff-Com:  0.100D+01
 Coeff-En:   0.100D+01
 Coeff:      0.100D+01
 Gap=     0.324 Goal=   None    Shift=    0.000
 GapD=    0.324 DampG=1.000 DampE=0.500 DampFc=0.5000 IDamp=-1.
 Damping current iteration by 5.00D-01
 RMSDP=6.15D-03 MaxDP=1.30D-01              OVMax= 1.50D-01

 Cycle   2  Pass 0  IDiag  1:
 E= -324.780987331704     Delta-E=       -0.079728531997 Rises=F Damp=T
 DIIS: error= 6.31D-03 at cycle   2 NSaved=   2.
 NSaved= 2 IEnMin= 2 EnMin= -324.780987331704     IErMin= 2 ErrMin= 6.31D-03
 ErrMax= 6.31D-03  0.00D+00 EMaxC= 1.00D-01 BMatC= 1.17D-02 BMatP= 2.01D-01
 IDIUse=3 WtCom= 9.37D-01 WtEn= 6.31D-02
 Coeff-Com:  0.964D-01 0.904D+00
 Coeff-En:   0.133D+00 0.867D+00
 Coeff:      0.987D-01 0.901D+00
 Gap=     0.299 Goal=   None    Shift=    0.000
 RMSDP=1.13D-03 MaxDP=2.30D-02 DE=-7.97D-02 OVMax= 7.97D-02

 Cycle   3  Pass 0  IDiag  1:
 E= -324.878094201294     Delta-E=       -0.097106869590 Rises=F Damp=F
 DIIS: error= 4.29D-03 at cycle   3 NSaved=   3.
 NSaved= 3 IEnMin= 3 EnMin= -324.878094201294     IErMin= 3 ErrMin= 4.29D-03
 ErrMax= 4.29D-03  0.00D+00 EMaxC= 1.00D-01 BMatC= 5.82D-03 BMatP= 1.17D-02
 IDIUse=3 WtCom= 9.57D-01 WtEn= 4.29D-02
 Coeff-Com:  0.113D-01 0.396D+00 0.592D+00
 Coeff-En:   0.000D+00 0.000D+00 0.100D+01
 Coeff:      0.108D-01 0.379D+00 0.610D+00
 Gap=     0.298 Goal=   None    Shift=    0.000
 RMSDP=7.17D-04 MaxDP=1.36D-02 DE=-9.71D-02 OVMax= 1.93D-02

 Cycle   4  Pass 0  IDiag  1:
 E= -324.881346737970     Delta-E=       -0.003252536675 Rises=F Damp=F
 DIIS: error= 2.16D-03 at cycle   4 NSaved=   4.
 NSaved= 4 IEnMin= 4 EnMin= -324.881346737970     IErMin= 4 ErrMin= 2.16D-03
 ErrMax= 2.16D-03  0.00D+00 EMaxC= 1.00D-01 BMatC= 1.69D-03 BMatP= 5.82D-03
 IDIUse=3 WtCom= 9.78D-01 WtEn= 2.16D-02
 Coeff-Com: -0.167D-02 0.725D-01 0.359D+00 0.570D+00
 Coeff-En:   0.000D+00 0.000D+00 0.254D+00 0.746D+00
 Coeff:     -0.164D-02 0.709D-01 0.357D+00 0.574D+00
 Gap=     0.289 Goal=   None    Shift=    0.000
 RMSDP=2.87D-04 MaxDP=5.37D-03 DE=-3.25D-03 OVMax= 7.18D-03

 Cycle   5  Pass 0  IDiag  1:
 E= -324.882738702220     Delta-E=       -0.001391964251 Rises=F Damp=F
 DIIS: error= 2.87D-04 at cycle   5 NSaved=   5.
 NSaved= 5 IEnMin= 5 EnMin= -324.882738702220     IErMin= 5 ErrMin= 2.87D-04
 ErrMax= 2.87D-04  0.00D+00 EMaxC= 1.00D-01 BMatC= 3.18D-05 BMatP= 1.69D-03
 IDIUse=3 WtCom= 9.97D-01 WtEn= 2.87D-03
 Coeff-Com: -0.509D-03 0.596D-02 0.105D+00 0.221D+00 0.668D+00
 Coeff-En:   0.000D+00 0.000D+00 0.000D+00 0.000D+00 0.100D+01
 Coeff:     -0.508D-03 0.594D-02 0.104D+00 0.221D+00 0.669D+00
 Gap=     0.289 Goal=   None    Shift=    0.000
 RMSDP=4.47D-05 MaxDP=8.91D-04 DE=-1.39D-03 OVMax= 1.17D-03

 Cycle   6  Pass 0  IDiag  1:
 E= -324.882760940773     Delta-E=       -0.000022238553 Rises=F Damp=F
 DIIS: error= 1.43D-04 at cycle   6 NSaved=   6.
 NSaved= 6 IEnMin= 6 EnMin= -324.882760940773     IErMin= 6 ErrMin= 1.43D-04
 ErrMax= 1.43D-04  0.00D+00 EMaxC= 1.00D-01 BMatC= 5.50D-06 BMatP= 3.18D-05
 IDIUse=3 WtCom= 9.99D-01 WtEn= 1.43D-03
 Coeff-Com: -0.144D-03-0.480D-03 0.438D-01 0.102D+00 0.390D+00 0.464D+00
 Coeff-En:   0.000D+00 0.000D+00 0.000D+00 0.000D+00 0.104D-01 0.990D+00
 Coeff:     -0.144D-03-0.479D-03 0.437D-01 0.102D+00 0.390D+00 0.465D+00
 Gap=     0.289 Goal=   None    Shift=    0.000
 RMSDP=1.30D-05 MaxDP=3.29D-04 DE=-2.22D-05 OVMax= 3.76D-04

 Cycle   7  Pass 0  IDiag  1:
 E= -324.882764869815     Delta-E=       -0.000003929042 Rises=F Damp=F
 DIIS: error= 2.18D-05 at cycle   7 NSaved=   7.
 NSaved= 7 IEnMin= 7 EnMin= -324.882764869815     IErMin= 7 ErrMin= 2.18D-05
 ErrMax= 2.18D-05  0.00D+00 EMaxC= 1.00D-01 BMatC= 1.11D-07 BMatP= 5.50D-06
 IDIUse=1 WtCom= 1.00D+00 WtEn= 0.00D+00
 Coeff-Com:  0.202D-04-0.588D-03 0.108D-01 0.266D-01 0.113D+00 0.188D+00
 Coeff-Com:  0.662D+00
 Coeff:      0.202D-04-0.588D-03 0.108D-01 0.266D-01 0.113D+00 0.188D+00
 Coeff:      0.662D+00
 Gap=     0.289 Goal=   None    Shift=    0.000
 RMSDP=2.69D-06 MaxDP=5.21D-05 DE=-3.93D-06 OVMax= 5.89D-05

 Initial convergence to 1.0D-05 achieved.  Increase integral accuracy.
 Cycle   8  Pass 1  IDiag  1:
 E= -324.882800401796     Delta-E=       -0.000035531981 Rises=F Damp=F
 DIIS: error= 1.65D-05 at cycle   1 NSaved=   1.
 NSaved= 1 IEnMin= 1 EnMin= -324.882800401796     IErMin= 1 ErrMin= 1.65D-05
 ErrMax= 1.65D-05  0.00D+00 EMaxC= 1.00D-01 BMatC= 6.70D-08 BMatP= 6.70D-08
 IDIUse=1 WtCom= 1.00D+00 WtEn= 0.00D+00
 Coeff-Com:  0.100D+01
 Coeff:      0.100D+01
 Gap=     0.289 Goal=   None    Shift=    0.000
 RMSDP=2.69D-06 MaxDP=5.21D-05 DE=-3.55D-05 OVMax= 6.24D-05

 Cycle   9  Pass 1  IDiag  1:
 E= -324.882800457128     Delta-E=       -0.000000055332 Rises=F Damp=F
 DIIS: error= 8.40D-06 at cycle   2 NSaved=   2.
 NSaved= 2 IEnMin= 2 EnMin= -324.882800457128     IErMin= 2 ErrMin= 8.40D-06
 ErrMax= 8.40D-06  0.00D+00 EMaxC= 1.00D-01 BMatC= 1.88D-08 BMatP= 6.70D-08
 IDIUse=1 WtCom= 1.00D+00 WtEn= 0.00D+00
 Coeff-Com:  0.277D+00 0.723D+00
 Coeff:      0.277D+00 0.723D+00
 Gap=     0.289 Goal=   None    Shift=    0.000
 RMSDP=1.64D-06 MaxDP=4.07D-05 DE=-5.53D-08 OVMax= 4.36D-05

 Cycle  10  Pass 1  IDiag  1:
 E= -324.882800463033     Delta-E=       -0.000000005906 Rises=F Damp=F
 DIIS: error= 8.20D-06 at cycle   3 NSaved=   3.
 NSaved= 3 IEnMin= 3 EnMin= -324.882800463033     IErMin= 3 ErrMin= 8.20D-06
 ErrMax= 8.20D-06  0.00D+00 EMaxC= 1.00D-01 BMatC= 1.21D-08 BMatP= 1.88D-08
 IDIUse=1 WtCom= 1.00D+00 WtEn= 0.00D+00
 Coeff-Com: -0.199D-01 0.446D+00 0.574D+00
 Coeff:     -0.199D-01 0.446D+00 0.574D+00
 Gap=     0.289 Goal=   None    Shift=    0.000
 RMSDP=7.22D-07 MaxDP=2.04D-05 DE=-5.91D-09 OVMax= 2.06D-05

 Cycle  11  Pass 1  IDiag  1:
 E= -324.882800472377     Delta-E=       -0.000000009344 Rises=F Damp=F
 DIIS: error= 8.61D-07 at cycle   4 NSaved=   4.
 NSaved= 4 IEnMin= 4 EnMin= -324.882800472377     IErMin= 4 ErrMin= 8.61D-07
 ErrMax= 8.61D-07  0.00D+00 EMaxC= 1.00D-01 BMatC= 1.98D-10 BMatP= 1.21D-08
 IDIUse=1 WtCom= 1.00D+00 WtEn= 0.00D+00
 Coeff-Com: -0.138D-01 0.212D+00 0.287D+00 0.515D+00
 Coeff:     -0.138D-01 0.212D+00 0.287D+00 0.515D+00
 Gap=     0.289 Goal=   None    Shift=    0.000
 RMSDP=9.36D-08 MaxDP=2.58D-06 DE=-9.34D-09 OVMax= 2.86D-06

 Cycle  12  Pass 1  IDiag  1:
 E= -324.882800472516     Delta-E=       -0.000000000139 Rises=F Damp=F
 DIIS: error= 2.53D-07 at cycle   5 NSaved=   5.
 NSaved= 5 IEnMin= 5 EnMin= -324.882800472516     IErMin= 5 ErrMin= 2.53D-07
 ErrMax= 2.53D-07  0.00D+00 EMaxC= 1.00D-01 BMatC= 1.79D-11 BMatP= 1.98D-10
 IDIUse=1 WtCom= 1.00D+00 WtEn= 0.00D+00
 Coeff-Com: -0.520D-02 0.653D-01 0.910D-01 0.272D+00 0.577D+00
 Coeff:     -0.520D-02 0.653D-01 0.910D-01 0.272D+00 0.577D+00
 Gap=     0.289 Goal=   None    Shift=    0.000
 RMSDP=3.08D-08 MaxDP=7.97D-07 DE=-1.39D-10 OVMax= 9.41D-07

 Cycle  13  Pass 1  IDiag  1:
 E= -324.882800472530     Delta-E=       -0.000000000014 Rises=F Damp=F
 DIIS: error= 4.99D-08 at cycle   6 NSaved=   6.
 NSaved= 6 IEnMin= 6 EnMin= -324.882800472530     IErMin= 6 ErrMin= 4.99D-08
 ErrMax= 4.99D-08  0.00D+00 EMaxC= 1.00D-01 BMatC= 8.17D-13 BMatP= 1.79D-11
 IDIUse=1 WtCom= 1.00D+00 WtEn= 0.00D+00
 Coeff-Com: -0.109D-02 0.971D-02 0.143D-01 0.701D-01 0.238D+00 0.669D+00
 Coeff:     -0.109D-02 0.971D-02 0.143D-01 0.701D-01 0.238D+00 0.669D+00
 Gap=     0.289 Goal=   None    Shift=    0.000
 RMSDP=9.04D-09 MaxDP=2.02D-07 DE=-1.38D-11 OVMax= 2.79D-07

 SCF Done:  E(RB3LYP) =  -324.882800473     A.U. after   13 cycles
            NFock= 13  Conv=0.90D-08     -V/T= 2.0088
 KE= 3.220383816316D+02 PE=-1.304995452265D+03 EE= 3.853324865474D+02
 Leave Link  502 at Thu Sep  8 14:58:55 2022, MaxMem= 24159191040 cpu:        46.1
 (Enter /public/home/users/caep010/software/Gaussian09/g09/l601.exe)
 Copying SCF densities to generalized density rwf, IOpCl= 0 IROHF=0.

 **********************************************************************

            Population analysis using the SCF density.

 **********************************************************************

 Orbital symmetries:
       Occupied  (A) (A) (A) (A) (A) (A) (A) (A) (A) (A) (A) (A)
                 (A) (A) (A) (A) (A) (A) (A) (A) (A) (A) (A) (A)
                 (A)
       Virtual   (A) (A) (A) (A) (A) (A) (A) (A) (A) (A) (A) (A)
                 (A) (A) (A) (A) (A) (A) (A) (A) (A) (A) (A) (A)
                 (A) (A) (A) (A) (A) (A) (A) (A) (A) (A) (A) (A)
                 (A) (A) (A) (A) (A) (A) (A) (A) (A) (A) (A) (A)
                 (A) (A) (A) (A) (A) (A) (A) (A) (A) (A) (A) (A)
                 (A) (A) (A) (A) (A) (A) (A) (A) (A) (A) (A) (A)
                 (A) (A) (A) (A) (A) (A) (A) (A) (A) (A) (A) (A)
                 (A) (A) (A) (A) (A) (A) (A) (A) (A) (A) (A) (A)
                 (A) (A) (A) (A) (A) (A) (A) (A) (A) (A) (A) (A)
                 (A) (A)
 The electronic state is 1-A.
 Alpha  occ. eigenvalues --  -19.16002 -19.15953 -14.37153 -10.26509 -10.20917
 Alpha  occ. eigenvalues --  -10.19209  -1.06765  -1.02180  -0.84427  -0.74981
 Alpha  occ. eigenvalues --   -0.68409  -0.60492  -0.53649  -0.49546  -0.46909
 Alpha  occ. eigenvalues --   -0.45753  -0.44537  -0.40788  -0.39699  -0.37868
 Alpha  occ. eigenvalues --   -0.35894  -0.34018  -0.30733  -0.27804  -0.23247
 Alpha virt. eigenvalues --    0.05690   0.09758   0.11037   0.12253   0.13929
 Alpha virt. eigenvalues --    0.15711   0.16030   0.17235   0.18278   0.19081
 Alpha virt. eigenvalues --    0.21755   0.23172   0.25873   0.27502   0.50710
 Alpha virt. eigenvalues --    0.52776   0.53757   0.56534   0.57392   0.59228
 Alpha virt. eigenvalues --    0.61725   0.66608   0.74791   0.76609   0.78151
 Alpha virt. eigenvalues --    0.79178   0.80640   0.82260   0.83883   0.86981
 Alpha virt. eigenvalues --    0.87370   0.87738   0.89059   0.92481   0.94788
 Alpha virt. eigenvalues --    0.97991   0.98938   1.01869   1.02255   1.07189
 Alpha virt. eigenvalues --    1.10372   1.14291   1.19835   1.24437   1.32370
 Alpha virt. eigenvalues --    1.38555   1.42262   1.47720   1.55503   1.56033
 Alpha virt. eigenvalues --    1.61801   1.62828   1.66015   1.73479   1.75370
 Alpha virt. eigenvalues --    1.77656   1.84600   1.89669   1.94483   1.96927
 Alpha virt. eigenvalues --    2.00395   2.01060   2.02653   2.04472   2.05720
 Alpha virt. eigenvalues --    2.06939   2.08857   2.10296   2.12306   2.14836
 Alpha virt. eigenvalues --    2.20937   2.27627   2.29124   2.32311   2.36644
 Alpha virt. eigenvalues --    2.42204   2.44341   2.47129   2.55419   2.56835
 Alpha virt. eigenvalues --    2.62972   2.64266   2.64895   2.69984   2.71243
 Alpha virt. eigenvalues --    2.73576   2.76980   2.82833   2.84582   2.85938
 Alpha virt. eigenvalues --    2.87471   2.90509   2.93673   3.04335   3.09999
 Alpha virt. eigenvalues --    3.18311   3.19655   3.33586   3.41129   3.41982
 Alpha virt. eigenvalues --    3.44579   3.46540   3.50448   3.52257   3.83092
 Alpha virt. eigenvalues --    3.88566   4.19468   4.40228   4.50054   4.63109
          Condensed to atoms (all electrons):
               1          2          3          4          5          6
     1  C    5.039582   0.340356  -0.041569  -0.056088  -0.003805   0.004512
     2  C    0.340356   4.697623   0.215826   0.277996  -0.037871  -0.034226
     3  O   -0.041569   0.215826   8.184031  -0.070508  -0.005971  -0.009391
     4  N   -0.056088   0.277996  -0.070508   6.820333   0.281958   0.136768
     5  C   -0.003805  -0.037871  -0.005971   0.281958   4.873234  -0.048489
     6  O    0.004512  -0.034226  -0.009391   0.136768  -0.048489   8.124719
     7  H    0.376597  -0.024615   0.002332   0.004179  -0.000119  -0.000085
     8  H    0.370771  -0.027086  -0.004119  -0.006447   0.001891  -0.000034
     9  H    0.364908  -0.026352   0.003666   0.005303  -0.000896  -0.000022
    10  H   -0.039334   0.406217  -0.051706  -0.059917   0.007417   0.003729
    11  H   -0.008079  -0.030090   0.280829  -0.001534   0.003342   0.000298
    12  H    0.000013   0.005647  -0.000012  -0.034666   0.395068   0.002853
    13  H   -0.000801  -0.000853  -0.000002  -0.033637   0.367168   0.004718
    14  H   -0.000181  -0.010637   0.011146  -0.047392   0.345076  -0.002253
    15  H    0.000740  -0.019343   0.033253  -0.039676  -0.005531   0.255897
               7          8          9         10         11         12
     1  C    0.376597   0.370771   0.364908  -0.039334  -0.008079   0.000013
     2  C   -0.024615  -0.027086  -0.026352   0.406217  -0.030090   0.005647
     3  O    0.002332  -0.004119   0.003666  -0.051706   0.280829  -0.000012
     4  N    0.004179  -0.006447   0.005303  -0.059917  -0.001534  -0.034666
     5  C   -0.000119   0.001891  -0.000896   0.007417   0.003342   0.395068
     6  O   -0.000085  -0.000034  -0.000022   0.003729   0.000298   0.002853
     7  H    0.577811  -0.031323  -0.024351  -0.006062  -0.000682  -0.000002
     8  H   -0.031323   0.611281  -0.028281   0.004959   0.006880  -0.000083
     9  H   -0.024351  -0.028281   0.574455  -0.002247  -0.000048  -0.000074
    10  H   -0.006062   0.004959  -0.002247   0.605578   0.007630  -0.000176
    11  H   -0.000682   0.006880  -0.000048   0.007630   0.436863  -0.000073
    12  H   -0.000002  -0.000083  -0.000074  -0.000176  -0.000073   0.560306
    13  H    0.000077   0.001766   0.000129  -0.000148  -0.000078  -0.023067
    14  H   -0.000009   0.000411   0.000166  -0.000237   0.001035  -0.041562
    15  H    0.000009   0.000012  -0.000020  -0.002816  -0.001259  -0.001657
              13         14         15
     1  C   -0.000801  -0.000181   0.000740
     2  C   -0.000853  -0.010637  -0.019343
     3  O   -0.000002   0.011146   0.033253
     4  N   -0.033637  -0.047392  -0.039676
     5  C    0.367168   0.345076  -0.005531
     6  O    0.004718  -0.002253   0.255897
     7  H    0.000077  -0.000009   0.000009
     8  H    0.001766   0.000411   0.000012
     9  H    0.000129   0.000166  -0.000020
    10  H   -0.000148  -0.000237  -0.002816
    11  H   -0.000078   0.001035  -0.001259
    12  H   -0.023067  -0.041562  -0.001657
    13  H    0.613011  -0.038524  -0.000366
    14  H   -0.038524   0.700662   0.012196
    15  H   -0.000366   0.012196   0.461991
 Mulliken charges:
               1
     1  C   -0.347622
     2  C    0.267407
     3  O   -0.547804
     4  N   -0.176672
     5  C   -0.172471
     6  O   -0.438994
     7  H    0.126244
     8  H    0.099403
     9  H    0.133664
    10  H    0.127112
    11  H    0.304967
    12  H    0.137486
    13  H    0.110608
    14  H    0.070104
    15  H    0.306568
 Sum of Mulliken charges =  -0.00000
 Mulliken charges with hydrogens summed into heavy atoms:
               1
     1  C    0.011689
     2  C    0.394519
     3  O   -0.242837
     4  N   -0.176672
     5  C    0.145728
     6  O   -0.132426
 Electronic spatial extent (au):  <R**2>=            594.6352
 Charge=             -0.0000 electrons
 Dipole moment (field-independent basis, Debye):
    X=              1.8326    Y=              1.3514    Z=              2.1479  Tot=              3.1302
 Quadrupole moment (field-independent basis, Debye-Ang):
   XX=            -38.0550   YY=            -37.9940   ZZ=            -36.2610
   XY=              0.7423   XZ=             -2.8533   YZ=              0.7936
 Traceless Quadrupole moment (field-independent basis, Debye-Ang):
   XX=             -0.6184   YY=             -0.5573   ZZ=              1.1757
   XY=              0.7423   XZ=             -2.8533   YZ=              0.7936
 Octapole moment (field-independent basis, Debye-Ang**2):
  XXX=              1.9503  YYY=             -3.5293  ZZZ=              7.3603  XYY=             -6.1970
  XXY=             -0.2842  XXZ=              5.0028  XZZ=              4.3608  YZZ=             -3.6932
  YYZ=             -0.6069  XYZ=              2.2410
 Hexadecapole moment (field-independent basis, Debye-Ang**3):
 XXXX=           -391.6744 YYYY=           -222.6400 ZZZZ=           -118.5669 XXXY=             -5.6950
 XXXZ=             -1.8081 YYYX=              8.4708 YYYZ=              0.9343 ZZZX=              9.3470
 ZZZY=             -6.5302 XXYY=            -98.3580 XXZZ=            -86.2585 YYZZ=            -59.2771
 XXYZ=             -4.0824 YYXZ=             -3.1077 ZZXY=             -0.3590
 N-N= 2.727417836138D+02 E-N=-1.304995455393D+03  KE= 3.220383816316D+02
 No NMR shielding tensors so no spin-rotation constants.
 Leave Link  601 at Thu Sep  8 14:58:55 2022, MaxMem= 24159191040 cpu:        11.1
 (Enter /public/home/users/caep010/software/Gaussian09/g09/l701.exe)
 Compute integral first derivatives.
 ... and contract with generalized density number  0.
 Leave Link  701 at Thu Sep  8 14:58:56 2022, MaxMem= 24159191040 cpu:        10.5
 (Enter /public/home/users/caep010/software/Gaussian09/g09/l702.exe)
 L702 exits ... SP integral derivatives will be done elsewhere.
 Leave Link  702 at Thu Sep  8 14:58:56 2022, MaxMem= 24159191040 cpu:         0.5
 (Enter /public/home/users/caep010/software/Gaussian09/g09/l703.exe)
 Compute integral first derivatives, UseDBF=F ICtDFT=           0.
 Integral derivatives from FoFJK, PRISM(SPDF).
 Calling FoFJK, ICntrl=      2127 FMM=F ISym2X=0 I1Cent= 0 IOpClX= 0 NMat=1 NMatS=1 NMatT=0.
 FoFJK:  IHMeth= 1 ICntrl=    2127 DoSepK=F KAlg= 0 I1Cent=   0 FoldK=F
 IRaf=         0 NMat=   1 IRICut=       1 DoRegI=T DoRafI=F ISym2E= 0.
 FoFCou: FMM=F IPFlag=           0 FMFlag=      100000 FMFlg1=         800
         NFxFlg=           0 DoJE=F BraDBF=F KetDBF=F FulRan=T
         wScrn=  0.000000 ICntrl=    2127 IOpCl=  0 I1Cent=           0 NGrid=           0
         NMat0=    1 NMatS0=      1 NMatT0=    0 NMatD0=    1 NMtDS0=    0 NMtDT0=    0
 Symmetry not used in FoFCou.
 Leave Link  703 at Thu Sep  8 14:58:56 2022, MaxMem= 24159191040 cpu:        13.0
 (Enter /public/home/users/caep010/software/Gaussian09/g09/l716.exe)
 Dipole        = 7.20985500D-01 5.31664592D-01 8.45044200D-01
 ***** Axes restored to original set *****
 -------------------------------------------------------------------
 Center     Atomic                   Forces (Hartrees/Bohr)
 Number     Number              X              Y              Z
 -------------------------------------------------------------------
      1        6           0.000007029    0.000180577    0.000080962
      2        6          -0.001560395    0.000600384   -0.001063875
      3        8          -0.000275657    0.003192661    0.000300795
      4        7          -0.001544924   -0.002055698   -0.001279694
      5        6           0.000869719   -0.000505950    0.000152657
      6        8           0.000884939    0.001700604   -0.003302797
      7        1          -0.000112633   -0.000062275   -0.000001213
      8        1          -0.000037087   -0.000208080    0.000040335
      9        1          -0.000094675   -0.000044005    0.000014767
     10        1          -0.000079363   -0.000211814   -0.000129147
     11        1           0.001048567   -0.003044136    0.001820341
     12        1          -0.000089319   -0.000057927    0.000011262
     13        1           0.000130298   -0.000069271   -0.000015720
     14        1           0.000198857   -0.000131299    0.000163404
     15        1           0.000654643    0.000716228    0.003207923
 -------------------------------------------------------------------
 Cartesian Forces:  Max     0.003302797 RMS     0.001186653
 Leave Link  716 at Thu Sep  8 14:58:56 2022, MaxMem= 24159191040 cpu:         0.7
 (Enter /public/home/users/caep010/software/Gaussian09/g09/l103.exe)

 GradGradGradGradGradGradGradGradGradGradGradGradGradGradGradGradGradGrad
 Berny optimization.
 FormGI is forming the generalized inverse of G from B-inverse, IUseBI=4.
 Internal  Forces:  Max     0.003688976 RMS     0.000829202
 Search for a local minimum.
 Step number   1 out of a maximum of   73
 All quantities printed in internal units (Hartrees-Bohrs-Radians)
 RMS Force = .82920D-03 SwitMx=.10000D-02 MixMth= 2
 Mixed Optimization -- En-DIIS/RFO-DIIS
 Second derivative matrix not updated -- first step.
 ITU=  0
     Eigenvalues ---    0.00464   0.00919   0.00961   0.00966   0.01235
     Eigenvalues ---    0.03537   0.04513   0.05366   0.05581   0.05767
     Eigenvalues ---    0.07121   0.07742   0.08281   0.16000   0.16000
     Eigenvalues ---    0.16000   0.16000   0.16000   0.16000   0.16000
     Eigenvalues ---    0.16000   0.17636   0.18500   0.20141   0.20650
     Eigenvalues ---    0.30099   0.33242   0.34138   0.34411   0.34456
     Eigenvalues ---    0.34504   0.34525   0.34707   0.37167   0.37563
     Eigenvalues ---    0.40350   0.41735   0.52440   0.54736
 RFO step:  Lambda=-1.05218786D-04 EMin= 4.64481287D-03
 Linear search not attempted -- first point.
 Iteration  1 RMS(Cart)=  0.00856694 RMS(Int)=  0.00002544
 Iteration  2 RMS(Cart)=  0.00003206 RMS(Int)=  0.00000065
 Iteration  3 RMS(Cart)=  0.00000000 RMS(Int)=  0.00000065
 ITry= 1 IFail=0 DXMaxC= 2.44D-02 DCOld= 1.00D+10 DXMaxT= 3.00D-01 DXLimC= 3.00D+00 Rises=F
 Variable       Old X    -DE/DX   Delta X   Delta X   Delta X     New X
                                 (Linear)    (Quad)   (Total)
    R1        2.87766   0.00025   0.00000   0.00084   0.00084   2.87849
    R2        2.06453   0.00008   0.00000   0.00022   0.00022   2.06475
    R3        2.07097   0.00016   0.00000   0.00048   0.00048   2.07145
    R4        2.06488   0.00003   0.00000   0.00007   0.00007   2.06495
    R5        2.71080   0.00221   0.00000   0.00549   0.00549   2.71629
    R6        2.75006   0.00158   0.00000   0.00422   0.00422   2.75428
    R7        2.06567  -0.00009   0.00000  -0.00026  -0.00026   2.06541
    R8        1.82067   0.00369   0.00000   0.00674   0.00674   1.82741
    R9        2.75595   0.00135   0.00000   0.00364   0.00364   2.75958
   R10        2.69262   0.00286   0.00000   0.00685   0.00685   2.69948
   R11        2.06154  -0.00007   0.00000  -0.00021  -0.00021   2.06132
   R12        2.06643   0.00000   0.00000   0.00001   0.00001   2.06644
   R13        2.08628   0.00023   0.00000   0.00068   0.00068   2.08696
   R14        1.84180   0.00334   0.00000   0.00636   0.00636   1.84816
    A1        1.91001   0.00007   0.00000   0.00035   0.00035   1.91037
    A2        1.94932   0.00017   0.00000   0.00123   0.00123   1.95056
    A3        1.92777   0.00008   0.00000   0.00041   0.00041   1.92817
    A4        1.88459  -0.00011   0.00000  -0.00050  -0.00050   1.88408
    A5        1.90268  -0.00012   0.00000  -0.00108  -0.00108   1.90160
    A6        1.88840  -0.00011   0.00000  -0.00049  -0.00049   1.88791
    A7        1.95462  -0.00034   0.00000  -0.00202  -0.00202   1.95260
    A8        1.96159   0.00024   0.00000   0.00055   0.00055   1.96214
    A9        1.92620  -0.00015   0.00000  -0.00172  -0.00172   1.92449
   A10        1.96247   0.00005   0.00000   0.00022   0.00022   1.96269
   A11        1.81537   0.00027   0.00000   0.00305   0.00305   1.81842
   A12        1.83375  -0.00006   0.00000   0.00017   0.00017   1.83392
   A13        1.89039   0.00008   0.00000   0.00050   0.00050   1.89089
   A14        2.02142   0.00035   0.00000   0.00110   0.00110   2.02253
   A15        1.86903  -0.00012   0.00000  -0.00135  -0.00135   1.86768
   A16        1.88317  -0.00023   0.00000  -0.00201  -0.00201   1.88116
   A17        1.88226  -0.00006   0.00000  -0.00057  -0.00057   1.88168
   A18        1.91506   0.00015   0.00000   0.00088   0.00088   1.91594
   A19        1.98117   0.00026   0.00000   0.00183   0.00183   1.98300
   A20        1.89241  -0.00013   0.00000  -0.00129  -0.00129   1.89113
   A21        1.88699  -0.00007   0.00000  -0.00037  -0.00037   1.88662
   A22        1.90383  -0.00016   0.00000  -0.00064  -0.00064   1.90319
   A23        1.82500  -0.00012   0.00000  -0.00073  -0.00073   1.82427
    D1        1.05932   0.00004   0.00000   0.00049   0.00049   1.05981
    D2       -2.99494   0.00002   0.00000  -0.00043  -0.00043  -2.99537
    D3       -0.95425   0.00000   0.00000  -0.00100  -0.00100  -0.95525
    D4       -1.02654   0.00001   0.00000   0.00011   0.00011  -1.02643
    D5        1.20239   0.00000   0.00000  -0.00081  -0.00081   1.20158
    D6       -3.04011  -0.00002   0.00000  -0.00138  -0.00138  -3.04149
    D7       -3.12906  -0.00001   0.00000  -0.00037  -0.00037  -3.12943
    D8       -0.90014  -0.00003   0.00000  -0.00129  -0.00129  -0.90143
    D9        1.14055  -0.00005   0.00000  -0.00186  -0.00186   1.13870
   D10        0.76607   0.00012   0.00000   0.00255   0.00255   0.76861
   D11       -1.46239   0.00003   0.00000   0.00329   0.00330  -1.45910
   D12        2.84617  -0.00007   0.00000   0.00130   0.00130   2.84748
   D13       -1.11446  -0.00014   0.00000  -0.01141  -0.01141  -1.12587
   D14        3.06751   0.00002   0.00000  -0.00854  -0.00853   3.05897
   D15        1.11031  -0.00035   0.00000  -0.01353  -0.01353   1.09678
   D16       -0.99092  -0.00019   0.00000  -0.01065  -0.01065  -1.00156
   D17        3.07359  -0.00005   0.00000  -0.00974  -0.00974   3.06385
   D18        0.97237   0.00011   0.00000  -0.00686  -0.00686   0.96551
   D19       -3.07534  -0.00001   0.00000  -0.00125  -0.00125  -3.07659
   D20        1.14979   0.00009   0.00000   0.00013   0.00013   1.14992
   D21       -0.98520   0.00001   0.00000  -0.00097  -0.00097  -0.98617
   D22       -0.98179  -0.00011   0.00000  -0.00378  -0.00378  -0.98556
   D23       -3.03984  -0.00000   0.00000  -0.00239  -0.00239  -3.04224
   D24        1.10836  -0.00009   0.00000  -0.00350  -0.00350   1.10486
   D25        0.88466   0.00001   0.00000  -0.01003  -0.01003   0.87463
   D26       -1.30253  -0.00020   0.00000  -0.00932  -0.00932  -1.31185
         Item               Value     Threshold  Converged?
 Maximum Force            0.003689     0.000450     NO 
 RMS     Force            0.000829     0.000300     NO 
 Maximum Displacement     0.024364     0.001800     NO 
 RMS     Displacement     0.008573     0.001200     NO 
 Predicted change in Energy=-5.267005D-05
 Lowest energy point so far.  Saving SCF results.
 GradGradGradGradGradGradGradGradGradGradGradGradGradGradGradGradGradGrad

 Leave Link  103 at Thu Sep  8 14:58:56 2022, MaxMem= 24159191040 cpu:         2.3
 (Enter /public/home/users/caep010/software/Gaussian09/g09/l202.exe)
                          Input orientation:                          
 ---------------------------------------------------------------------
 Center     Atomic      Atomic             Coordinates (Angstroms)
 Number     Number       Type             X           Y           Z
 ---------------------------------------------------------------------
      1          6           0       -1.600498   -0.598731    0.223199
      2          6           0       -0.651239    0.587793    0.116874
      3          8           0       -0.117569    0.963161    1.397660
      4          7           0        0.390613    0.378590   -0.880667
      5          6           0        1.328669   -0.706067   -0.604856
      6          8           0        1.139319    1.592321   -0.963825
      7          1           0       -2.441557   -0.335199    0.868940
      8          1           0       -1.106219   -1.477232    0.653899
      9          1           0       -1.982565   -0.872202   -0.763355
     10          1           0       -1.191978    1.476306   -0.218865
     11          1           0        0.140414    0.158303    1.867535
     12          1           0        2.083545   -0.702690   -1.392262
     13          1           0        0.804334   -1.665209   -0.634644
     14          1           0        1.845454   -0.607886    0.366190
     15          1           0        1.359477    1.808745   -0.035824
 ---------------------------------------------------------------------
                    Distance matrix (angstroms):
                    1          2          3          4          5
     1  C    0.000000
     2  C    1.523233   0.000000
     3  O    2.453150   1.437399   0.000000
     4  N    2.477539   1.457501   2.406397   0.000000
     5  C    3.045852   2.472854   2.981275   1.460309   0.000000
     6  O    3.703557   2.320148   2.748131   1.428503   2.333945
     7  H    1.092616   2.150060   2.714075   3.404674   4.064999
     8  H    1.096165   2.181681   2.736079   2.835397   2.847427
     9  H    1.092726   2.163057   3.393634   2.685184   3.319185
    10  H    2.160577   1.092966   2.007691   2.036555   3.356398
    11  H    2.511517   1.968752   0.967023   2.768346   2.876074
    12  H    4.024015   3.379628   3.924746   2.072900   1.090806
    13  H    2.767036   2.785586   3.447969   2.099715   1.093511
    14  H    3.448930   2.779439   2.717642   2.155075   1.104372
    15  H    3.824198   2.357333   2.225209   1.922967   2.578571
                    6          7          8          9         10
     6  O    0.000000
     7  H    4.460609   0.000000
     8  H    4.132993   1.770200   0.000000
     9  H    3.982489   1.778604   1.772753   0.000000
    10  H    2.450178   2.454856   3.080984   2.537122   0.000000
    11  H    3.327284   2.811993   2.387882   3.534198   2.804543
    12  H    2.518372   5.071945   3.867982   4.117949   4.105355
    13  H    3.291212   3.816477   2.312118   2.900384   3.745297
    14  H    2.666173   4.324995   3.090456   3.999933   3.729898
    15  H    0.978006   4.456787   4.165696   4.345805   2.579524
                   11         12         13         14         15
    11  H    0.000000
    12  H    3.891445   0.000000
    13  H    3.166525   1.771104   0.000000
    14  H    2.397550   1.777028   1.789841   0.000000
    15  H    2.798722   2.944742   3.568631   2.497578   0.000000
 Stoichiometry    C3H9NO2
 Framework group  C1[X(C3H9NO2)]
 Deg. of freedom    39
 Full point group                 C1      NOp   1
 RotChk:  IX=0 Diff= 3.76D-03
 Largest Abelian subgroup         C1      NOp   1
 Largest concise Abelian subgroup C1      NOp   1
                         Standard orientation:                         
 ---------------------------------------------------------------------
 Center     Atomic      Atomic             Coordinates (Angstroms)
 Number     Number       Type             X           Y           Z
 ---------------------------------------------------------------------
      1          6           0        1.810613    0.642814   -0.379723
      2          6           0        0.650911   -0.344201   -0.346072
      3          8           0        0.712388   -1.203738    0.804377
      4          7           0       -0.642817    0.313303   -0.481217
      5          6           0       -1.014332    1.218223    0.603032
      6          8           0       -1.630249   -0.716853   -0.547370
      7          1           0        2.754332    0.094073   -0.425400
      8          1           0        1.831129    1.276300    0.514623
      9          1           0        1.734782    1.291981   -1.255440
     10          1           0        0.711883   -1.029031   -1.195699
     11          1           0        0.930582   -0.663740    1.576339
     12          1           0       -2.023157    1.581859    0.403284
     13          1           0       -0.335922    2.075719    0.618104
     14          1           0       -1.012905    0.740045    1.598512
     15          1           0       -1.431261   -1.296615    0.214717
 ---------------------------------------------------------------------
 Rotational constants (GHZ):      4.7887754      2.9592979      2.4424110
 Leave Link  202 at Thu Sep  8 14:58:56 2022, MaxMem= 24159191040 cpu:         0.2
 (Enter /public/home/users/caep010/software/Gaussian09/g09/l301.exe)
 Standard basis: 6-31G(d,p) (6D, 7F)
 Ernie: Thresh=  0.10000D-02 Tol=  0.10000D-05 Strict=F.
 There are   135 symmetry adapted cartesian basis functions of A   symmetry.
 There are   135 symmetry adapted basis functions of A   symmetry.
   135 basis functions,   231 primitive gaussians,   135 cartesian basis functions
    25 alpha electrons       25 beta electrons
       nuclear repulsion energy       272.3301178412 Hartrees.
 IExCor=  402 DFT=T Ex+Corr=B3LYP ExCW=0 ScaHFX=  0.200000
 ScaDFX=  0.800000  0.720000  1.000000  0.810000 ScalE2=  1.000000  1.000000
 IRadAn=      0 IRanWt=     -1 IRanGd=            0 ICorTp=0 IEmpDi=  4
 NAtoms=   15 NActive=   15 NUniq=   15 SFac= 1.00D+00 NAtFMM=   60 NAOKFM=F Big=F
 Integral buffers will be    131072 words long.
 Raffenetti 2 integral format.
 Two-electron integral symmetry is turned on.
 Leave Link  301 at Thu Sep  8 14:58:57 2022, MaxMem= 24159191040 cpu:         1.6
 (Enter /public/home/users/caep010/software/Gaussian09/g09/l302.exe)
 NPDir=0 NMtPBC=     1 NCelOv=     1 NCel=       1 NClECP=     1 NCelD=      1
         NCelK=      1 NCelE2=     1 NClLst=     1 CellRange=     0.0.
 One-electron integrals computed using PRISM.
 NBasis=   135 RedAO= T EigKep=  3.52D-03  NBF=   135
 NBsUse=   135 1.00D-06 EigRej= -1.00D+00 NBFU=   135
 Precomputing XC quadrature grid using
 IXCGrd= 4 IRadAn=           0 IRanWt=          -1 IRanGd=           0 AccXCQ= 0.00D+00.
 Generated NRdTot=       0 NPtTot=           0 NUsed=           0 NTot=          32
 NSgBfM=   135   135   135   135   135 MxSgAt=    15 MxSgA2=    15.
 Leave Link  302 at Thu Sep  8 14:58:57 2022, MaxMem= 24159191040 cpu:        11.0
 (Enter /public/home/users/caep010/software/Gaussian09/g09/l303.exe)
 DipDrv:  MaxL=1.
 Leave Link  303 at Thu Sep  8 14:58:57 2022, MaxMem= 24159191040 cpu:         0.7
 (Enter /public/home/users/caep010/software/Gaussian09/g09/l401.exe)
 Initial guess from the checkpoint file:  "B3LYP6-31Gdp.Frag_654.chk"
 B after Tr=     0.000000    0.000000   -0.000000
         Rot=    0.999999    0.001013    0.000238   -0.000897 Ang=   0.16 deg.
 Guess basis will be translated and rotated to current coordinates.
 JPrj=2 DoOrth=T DoCkMO=T.
 Generating alternative initial guess.
 ExpMin= 1.61D-01 ExpMax= 5.48D+03 ExpMxC= 8.25D+02 IAcc=1 IRadAn=         1 AccDes= 0.00D+00
 Harris functional with IExCor=  402 and IRadAn=       1 diagonalized for initial guess.
 HarFok:  IExCor=  402 AccDes= 0.00D+00 IRadAn=         1 IDoV= 1 UseB2=F ITyADJ=14
 ICtDFT=  3500011 ScaDFX=  1.000000  1.000000  1.000000  1.000000
 FoFCou: FMM=F IPFlag=           0 FMFlag=      100000 FMFlg1=           0
         NFxFlg=           0 DoJE=T BraDBF=F KetDBF=T FulRan=T
         wScrn=  0.000000 ICntrl=     500 IOpCl=  0 I1Cent=   200000004 NGrid=           0
         NMat0=    1 NMatS0=      1 NMatT0=    0 NMatD0=    1 NMtDS0=    0 NMtDT0=    0
 Petite list used in FoFCou.
 Harris En= -324.912932171656    
 Leave Link  401 at Thu Sep  8 14:58:57 2022, MaxMem= 24159191040 cpu:        12.4
 (Enter /public/home/users/caep010/software/Gaussian09/g09/l502.exe)
 Closed shell SCF:
 Using DIIS extrapolation, IDIIS=  1040.
 Integral symmetry usage will be decided dynamically.
 Keep R1 ints in memory in canonical form, NReq=43477021.
 IVT=       78571 IEndB=       78571 NGot= 24159191040 MDV= 24116971680
 LenX= 24116971680 LenY= 24116953014
 Requested convergence on RMS density matrix=1.00D-08 within 128 cycles.
 Requested convergence on MAX density matrix=1.00D-06.
 Requested convergence on             energy=1.00D-06.
 No special actions if energy rises.
 FoFCou: FMM=F IPFlag=           0 FMFlag=           0 FMFlg1=           0
         NFxFlg=           0 DoJE=F BraDBF=F KetDBF=F FulRan=T
         wScrn=  0.000000 ICntrl=     600 IOpCl=  0 I1Cent=           0 NGrid=           0
         NMat0=    1 NMatS0=   9180 NMatT0=    0 NMatD0=    1 NMtDS0=    0 NMtDT0=    0
 Symmetry not used in FoFCou.
 Integral accuracy reduced to 1.0D-05 until final iterations.

 Cycle   1  Pass 0  IDiag  1:
 E= -324.882731052247    
 DIIS: error= 4.43D-04 at cycle   1 NSaved=   1.
 NSaved= 1 IEnMin= 1 EnMin= -324.882731052247     IErMin= 1 ErrMin= 4.43D-04
 ErrMax= 4.43D-04  0.00D+00 EMaxC= 1.00D-01 BMatC= 5.23D-05 BMatP= 5.23D-05
 IDIUse=3 WtCom= 9.96D-01 WtEn= 4.43D-03
 Coeff-Com:  0.100D+01
 Coeff-En:   0.100D+01
 Coeff:      0.100D+01
 Gap=     1.559 Goal=   None    Shift=    0.000
 RMSDP=8.84D-05 MaxDP=1.74D-03              OVMax= 2.28D-03

 Cycle   2  Pass 0  IDiag  1:
 E= -324.882813117821     Delta-E=       -0.000082065574 Rises=F Damp=F
 DIIS: error= 1.47D-04 at cycle   2 NSaved=   2.
 NSaved= 2 IEnMin= 2 EnMin= -324.882813117821     IErMin= 2 ErrMin= 1.47D-04
 ErrMax= 1.47D-04  0.00D+00 EMaxC= 1.00D-01 BMatC= 2.67D-06 BMatP= 5.23D-05
 IDIUse=3 WtCom= 9.99D-01 WtEn= 1.47D-03
 Coeff-Com:  0.239D-01 0.976D+00
 Coeff-En:   0.000D+00 0.100D+01
 Coeff:      0.238D-01 0.976D+00
 Gap=     0.289 Goal=   None    Shift=    0.000
 RMSDP=2.18D-05 MaxDP=6.98D-04 DE=-8.21D-05 OVMax= 6.55D-04

 Cycle   3  Pass 0  IDiag  1:
 E= -324.882812370402     Delta-E=        0.000000747419 Rises=F Damp=F
 DIIS: error= 1.95D-04 at cycle   3 NSaved=   3.
 NSaved= 3 IEnMin= 2 EnMin= -324.882813117821     IErMin= 2 ErrMin= 1.47D-04
 ErrMax= 1.95D-04  0.00D+00 EMaxC= 1.00D-01 BMatC= 4.43D-06 BMatP= 2.67D-06
 IDIUse=3 WtCom= 4.17D-01 WtEn= 5.83D-01
 Coeff-Com: -0.344D-01 0.584D+00 0.451D+00
 Coeff-En:   0.000D+00 0.570D+00 0.430D+00
 Coeff:     -0.144D-01 0.576D+00 0.439D+00
 Gap=     0.289 Goal=   None    Shift=    0.000
 RMSDP=1.26D-05 MaxDP=4.36D-04 DE= 7.47D-07 OVMax= 4.55D-04

 Cycle   4  Pass 0  IDiag  1:
 E= -324.882815454509     Delta-E=       -0.000003084107 Rises=F Damp=F
 DIIS: error= 2.00D-05 at cycle   4 NSaved=   4.
 NSaved= 4 IEnMin= 4 EnMin= -324.882815454509     IErMin= 4 ErrMin= 2.00D-05
 ErrMax= 2.00D-05  0.00D+00 EMaxC= 1.00D-01 BMatC= 1.10D-07 BMatP= 2.67D-06
 IDIUse=1 WtCom= 1.00D+00 WtEn= 0.00D+00
 Coeff-Com: -0.180D-01 0.219D+00 0.218D+00 0.581D+00
 Coeff:     -0.180D-01 0.219D+00 0.218D+00 0.581D+00
 Gap=     0.289 Goal=   None    Shift=    0.000
 RMSDP=2.64D-06 MaxDP=6.35D-05 DE=-3.08D-06 OVMax= 6.60D-05

 Initial convergence to 1.0D-05 achieved.  Increase integral accuracy.
 Cycle   5  Pass 1  IDiag  1:
 E= -324.882853874503     Delta-E=       -0.000038419994 Rises=F Damp=F
 DIIS: error= 1.76D-05 at cycle   1 NSaved=   1.
 NSaved= 1 IEnMin= 1 EnMin= -324.882853874503     IErMin= 1 ErrMin= 1.76D-05
 ErrMax= 1.76D-05  0.00D+00 EMaxC= 1.00D-01 BMatC= 6.54D-08 BMatP= 6.54D-08
 IDIUse=1 WtCom= 1.00D+00 WtEn= 0.00D+00
 Coeff-Com:  0.100D+01
 Coeff:      0.100D+01
 Gap=     0.289 Goal=   None    Shift=    0.000
 RMSDP=2.64D-06 MaxDP=6.35D-05 DE=-3.84D-05 OVMax= 7.22D-05

 Cycle   6  Pass 1  IDiag  1:
 E= -324.882853925449     Delta-E=       -0.000000050946 Rises=F Damp=F
 DIIS: error= 8.57D-06 at cycle   2 NSaved=   2.
 NSaved= 2 IEnMin= 2 EnMin= -324.882853925449     IErMin= 2 ErrMin= 8.57D-06
 ErrMax= 8.57D-06  0.00D+00 EMaxC= 1.00D-01 BMatC= 2.28D-08 BMatP= 6.54D-08
 IDIUse=1 WtCom= 1.00D+00 WtEn= 0.00D+00
 Coeff-Com:  0.313D+00 0.687D+00
 Coeff:      0.313D+00 0.687D+00
 Gap=     0.289 Goal=   None    Shift=    0.000
 RMSDP=1.84D-06 MaxDP=5.76D-05 DE=-5.09D-08 OVMax= 6.03D-05

 Cycle   7  Pass 1  IDiag  1:
 E= -324.882853934468     Delta-E=       -0.000000009019 Rises=F Damp=F
 DIIS: error= 7.38D-06 at cycle   3 NSaved=   3.
 NSaved= 3 IEnMin= 3 EnMin= -324.882853934468     IErMin= 3 ErrMin= 7.38D-06
 ErrMax= 7.38D-06  0.00D+00 EMaxC= 1.00D-01 BMatC= 1.32D-08 BMatP= 2.28D-08
 IDIUse=1 WtCom= 1.00D+00 WtEn= 0.00D+00
 Coeff-Com: -0.105D-01 0.431D+00 0.580D+00
 Coeff:     -0.105D-01 0.431D+00 0.580D+00
 Gap=     0.289 Goal=   None    Shift=    0.000
 RMSDP=7.89D-07 MaxDP=2.52D-05 DE=-9.02D-09 OVMax= 2.67D-05

 Cycle   8  Pass 1  IDiag  1:
 E= -324.882853944922     Delta-E=       -0.000000010454 Rises=F Damp=F
 DIIS: error= 2.09D-06 at cycle   4 NSaved=   4.
 NSaved= 4 IEnMin= 4 EnMin= -324.882853944922     IErMin= 4 ErrMin= 2.09D-06
 ErrMax= 2.09D-06  0.00D+00 EMaxC= 1.00D-01 BMatC= 6.90D-10 BMatP= 1.32D-08
 IDIUse=1 WtCom= 1.00D+00 WtEn= 0.00D+00
 Coeff-Com: -0.172D-01 0.231D+00 0.341D+00 0.445D+00
 Coeff:     -0.172D-01 0.231D+00 0.341D+00 0.445D+00
 Gap=     0.289 Goal=   None    Shift=    0.000
 RMSDP=1.61D-07 MaxDP=4.61D-06 DE=-1.05D-08 OVMax= 4.85D-06

 Cycle   9  Pass 1  IDiag  1:
 E= -324.882853945436     Delta-E=       -0.000000000514 Rises=F Damp=F
 DIIS: error= 1.71D-07 at cycle   5 NSaved=   5.
 NSaved= 5 IEnMin= 5 EnMin= -324.882853945436     IErMin= 5 ErrMin= 1.71D-07
 ErrMax= 1.71D-07  0.00D+00 EMaxC= 1.00D-01 BMatC= 7.24D-12 BMatP= 6.90D-10
 IDIUse=1 WtCom= 1.00D+00 WtEn= 0.00D+00
 Coeff-Com: -0.542D-02 0.649D-01 0.984D-01 0.159D+00 0.683D+00
 Coeff:     -0.542D-02 0.649D-01 0.984D-01 0.159D+00 0.683D+00
 Gap=     0.289 Goal=   None    Shift=    0.000
 RMSDP=2.25D-08 MaxDP=4.92D-07 DE=-5.14D-10 OVMax= 5.46D-07

 Cycle  10  Pass 1  IDiag  1:
 E= -324.882853945440     Delta-E=       -0.000000000005 Rises=F Damp=F
 DIIS: error= 5.95D-08 at cycle   6 NSaved=   6.
 NSaved= 6 IEnMin= 6 EnMin= -324.882853945440     IErMin= 6 ErrMin= 5.95D-08
 ErrMax= 5.95D-08  0.00D+00 EMaxC= 1.00D-01 BMatC= 1.45D-12 BMatP= 7.24D-12
 IDIUse=1 WtCom= 1.00D+00 WtEn= 0.00D+00
 Coeff-Com: -0.108D-02 0.866D-02 0.144D-01 0.339D-01 0.340D+00 0.604D+00
 Coeff:     -0.108D-02 0.866D-02 0.144D-01 0.339D-01 0.340D+00 0.604D+00
 Gap=     0.289 Goal=   None    Shift=    0.000
 RMSDP=9.63D-09 MaxDP=1.64D-07 DE=-4.66D-12 OVMax= 2.08D-07

 SCF Done:  E(RB3LYP) =  -324.882853945     A.U. after   10 cycles
            NFock= 10  Conv=0.96D-08     -V/T= 2.0089
 KE= 3.220055259551D+02 PE=-1.304159456738D+03 EE= 3.849409589962D+02
 Leave Link  502 at Thu Sep  8 14:58:59 2022, MaxMem= 24159191040 cpu:        38.6
 (Enter /public/home/users/caep010/software/Gaussian09/g09/l701.exe)
 Compute integral first derivatives.
 ... and contract with generalized density number  0.
 Leave Link  701 at Thu Sep  8 14:59:00 2022, MaxMem= 24159191040 cpu:        16.0
 (Enter /public/home/users/caep010/software/Gaussian09/g09/l702.exe)
 L702 exits ... SP integral derivatives will be done elsewhere.
 Leave Link  702 at Thu Sep  8 14:59:00 2022, MaxMem= 24159191040 cpu:         0.5
 (Enter /public/home/users/caep010/software/Gaussian09/g09/l703.exe)
 Compute integral first derivatives, UseDBF=F ICtDFT=           0.
 Integral derivatives from FoFJK, PRISM(SPDF).
 Calling FoFJK, ICntrl=      2127 FMM=F ISym2X=0 I1Cent= 0 IOpClX= 0 NMat=1 NMatS=1 NMatT=0.
 FoFJK:  IHMeth= 1 ICntrl=    2127 DoSepK=F KAlg= 0 I1Cent=   0 FoldK=F
 IRaf=         0 NMat=   1 IRICut=       1 DoRegI=T DoRafI=F ISym2E= 0.
 FoFCou: FMM=F IPFlag=           0 FMFlag=      100000 FMFlg1=         800
         NFxFlg=           0 DoJE=F BraDBF=F KetDBF=F FulRan=T
         wScrn=  0.000000 ICntrl=    2127 IOpCl=  0 I1Cent=           0 NGrid=           0
         NMat0=    1 NMatS0=      1 NMatT0=    0 NMatD0=    1 NMtDS0=    0 NMtDT0=    0
 Symmetry not used in FoFCou.
 Leave Link  703 at Thu Sep  8 14:59:01 2022, MaxMem= 24159191040 cpu:        12.9
 (Enter /public/home/users/caep010/software/Gaussian09/g09/l716.exe)
 Dipole        = 7.23483774D-01 5.30003308D-01 8.40406127D-01
 ***** Axes restored to original set *****
 -------------------------------------------------------------------
 Center     Atomic                   Forces (Hartrees/Bohr)
 Number     Number              X              Y              Z
 -------------------------------------------------------------------
      1        6           0.000156701    0.000020314   -0.000034780
      2        6          -0.000142238   -0.000459568   -0.000209919
      3        8          -0.000018045    0.000669948    0.000280952
      4        7          -0.000943200   -0.000928436   -0.000183731
      5        6           0.000419998    0.000079189    0.000342614
      6        8           0.000512086    0.000970055   -0.000155149
      7        1           0.000008247    0.000008459    0.000015968
      8        1           0.000037391   -0.000032796   -0.000055217
      9        1          -0.000017048   -0.000009713   -0.000020663
     10        1           0.000241756    0.000004880    0.000116980
     11        1           0.000026585   -0.000200496   -0.000200137
     12        1          -0.000067089    0.000046878   -0.000055429
     13        1          -0.000153841   -0.000008131   -0.000012276
     14        1          -0.000143343    0.000066461   -0.000123864
     15        1           0.000082040   -0.000227044    0.000294652
 -------------------------------------------------------------------
 Cartesian Forces:  Max     0.000970055 RMS     0.000316979
 Leave Link  716 at Thu Sep  8 14:59:01 2022, MaxMem= 24159191040 cpu:         0.6
 (Enter /public/home/users/caep010/software/Gaussian09/g09/l103.exe)

 GradGradGradGradGradGradGradGradGradGradGradGradGradGradGradGradGradGrad
 Berny optimization.
 Using GEDIIS/GDIIS optimizer.
 FormGI is forming the generalized inverse of G from B-inverse, IUseBI=4.
 Internal  Forces:  Max     0.000929435 RMS     0.000181001
 Search for a local minimum.
 Step number   2 out of a maximum of   73
 All quantities printed in internal units (Hartrees-Bohrs-Radians)
 RMS Force = .18100D-03 SwitMx=.10000D-02 MixMth= 2
 Mixed Optimization -- En-DIIS/RFO-DIIS
 Swapping is turned off.
 Update second derivatives using D2CorX and points    1    2
 DE= -5.35D-05 DEPred=-5.27D-05 R= 1.02D+00
 TightC=F SS=  1.41D+00  RLast= 3.35D-02 DXNew= 5.0454D-01 1.0050D-01
 Trust test= 1.02D+00 RLast= 3.35D-02 DXMaxT set to 3.00D-01
 ITU=  1  0
     Eigenvalues ---    0.00463   0.00915   0.00960   0.01114   0.01228
     Eigenvalues ---    0.03408   0.04527   0.05423   0.05573   0.05764
     Eigenvalues ---    0.07112   0.07733   0.08444   0.15632   0.16000
     Eigenvalues ---    0.16000   0.16000   0.16000   0.16000   0.16000
     Eigenvalues ---    0.16289   0.17614   0.18532   0.20126   0.20931
     Eigenvalues ---    0.30136   0.33107   0.33918   0.34178   0.34421
     Eigenvalues ---    0.34503   0.34525   0.34705   0.35509   0.37376
     Eigenvalues ---    0.38583   0.41129   0.52019   0.55257
 En-DIIS/RFO-DIIS IScMMF=        0 using points:     2    1
 RFO step:  Lambda=-5.65130168D-06.
 NNeg= 0 NP= 2 Switch=  2.50D-03 Rises=F DC=  5.35D-05 SmlDif=  1.00D-05
 RMS Error=  0.5980276225D-03 NUsed= 2 EDIIS=F
 DidBck=F Rises=F RFO-DIIS coefs:    0.99836    0.00164
 Iteration  1 RMS(Cart)=  0.00603837 RMS(Int)=  0.00003157
 Iteration  2 RMS(Cart)=  0.00002924 RMS(Int)=  0.00000220
 Iteration  3 RMS(Cart)=  0.00000000 RMS(Int)=  0.00000220
 ITry= 1 IFail=0 DXMaxC= 2.28D-02 DCOld= 1.00D+10 DXMaxT= 3.00D-01 DXLimC= 3.00D+00 Rises=F
 Variable       Old X    -DE/DX   Delta X   Delta X   Delta X     New X
                                 (Linear)    (Quad)   (Total)
    R1        2.87849  -0.00012  -0.00000  -0.00022  -0.00022   2.87827
    R2        2.06475   0.00001  -0.00000   0.00008   0.00008   2.06482
    R3        2.07145   0.00002  -0.00000   0.00016   0.00016   2.07161
    R4        2.06495   0.00002  -0.00000   0.00008   0.00008   2.06503
    R5        2.71629   0.00020  -0.00001   0.00168   0.00167   2.71796
    R6        2.75428  -0.00027  -0.00001   0.00019   0.00018   2.75446
    R7        2.06541  -0.00015   0.00000  -0.00049  -0.00049   2.06492
    R8        1.82741   0.00007  -0.00001   0.00158   0.00157   1.82898
    R9        2.75958  -0.00006  -0.00001   0.00064   0.00063   2.76021
   R10        2.69948   0.00093  -0.00001   0.00371   0.00370   2.70317
   R11        2.06132  -0.00001   0.00000  -0.00007  -0.00007   2.06125
   R12        2.06644   0.00009  -0.00000   0.00026   0.00026   2.06669
   R13        2.08696  -0.00017  -0.00000  -0.00036  -0.00036   2.08660
   R14        1.84816   0.00024  -0.00001   0.00183   0.00182   1.84998
    A1        1.91037  -0.00003  -0.00000  -0.00003  -0.00003   1.91034
    A2        1.95056  -0.00002  -0.00000   0.00013   0.00013   1.95068
    A3        1.92817   0.00002  -0.00000   0.00019   0.00019   1.92837
    A4        1.88408   0.00003   0.00000   0.00015   0.00015   1.88424
    A5        1.90160   0.00001   0.00000  -0.00015  -0.00014   1.90145
    A6        1.88791  -0.00001   0.00000  -0.00031  -0.00031   1.88761
    A7        1.95260   0.00019   0.00000   0.00066   0.00066   1.95326
    A8        1.96214  -0.00018  -0.00000  -0.00039  -0.00039   1.96175
    A9        1.92449   0.00017   0.00000   0.00148   0.00149   1.92597
   A10        1.96269   0.00001  -0.00000  -0.00005  -0.00005   1.96264
   A11        1.81842  -0.00020  -0.00001  -0.00155  -0.00156   1.81687
   A12        1.83392   0.00001  -0.00000  -0.00023  -0.00023   1.83369
   A13        1.89089  -0.00046  -0.00000  -0.00276  -0.00276   1.88812
   A14        2.02253  -0.00008  -0.00000  -0.00160  -0.00161   2.02092
   A15        1.86768  -0.00002   0.00000  -0.00231  -0.00232   1.86536
   A16        1.88116  -0.00013   0.00000  -0.00301  -0.00302   1.87814
   A17        1.88168  -0.00006   0.00000  -0.00036  -0.00036   1.88132
   A18        1.91594  -0.00016  -0.00000  -0.00092  -0.00092   1.91502
   A19        1.98300  -0.00010  -0.00000  -0.00023  -0.00023   1.98277
   A20        1.89113   0.00009   0.00000   0.00029   0.00029   1.89142
   A21        1.88662   0.00012   0.00000   0.00090   0.00090   1.88752
   A22        1.90319   0.00011   0.00000   0.00036   0.00037   1.90356
   A23        1.82427  -0.00043   0.00000  -0.00285  -0.00285   1.82142
    D1        1.05981  -0.00003  -0.00000  -0.00393  -0.00393   1.05588
    D2       -2.99537  -0.00001   0.00000  -0.00377  -0.00377  -2.99914
    D3       -0.95525  -0.00000   0.00000  -0.00333  -0.00333  -0.95858
    D4       -1.02643  -0.00004  -0.00000  -0.00418  -0.00418  -1.03061
    D5        1.20158  -0.00002   0.00000  -0.00402  -0.00402   1.19756
    D6       -3.04149  -0.00001   0.00000  -0.00358  -0.00358  -3.04507
    D7       -3.12943  -0.00002   0.00000  -0.00401  -0.00401  -3.13344
    D8       -0.90143  -0.00001   0.00000  -0.00385  -0.00384  -0.90527
    D9        1.13870   0.00000   0.00000  -0.00341  -0.00341   1.13529
   D10        0.76861  -0.00003  -0.00000   0.00456   0.00455   0.77317
   D11       -1.45910   0.00005  -0.00001   0.00458   0.00457  -1.45452
   D12        2.84748   0.00015  -0.00000   0.00573   0.00573   2.85321
   D13       -1.12587  -0.00003   0.00002   0.00321   0.00323  -1.12264
   D14        3.05897   0.00020   0.00001   0.00979   0.00981   3.06878
   D15        1.09678   0.00007   0.00002   0.00374   0.00377   1.10054
   D16       -1.00156   0.00031   0.00002   0.01033   0.01034  -0.99122
   D17        3.06385  -0.00015   0.00002   0.00177   0.00178   3.06563
   D18        0.96551   0.00009   0.00001   0.00835   0.00836   0.97387
   D19       -3.07659   0.00005   0.00000   0.00031   0.00031  -3.07628
   D20        1.14992   0.00006  -0.00000   0.00068   0.00068   1.15060
   D21       -0.98617   0.00010   0.00000   0.00105   0.00105  -0.98512
   D22       -0.98556  -0.00013   0.00001  -0.00594  -0.00593  -0.99149
   D23       -3.04224  -0.00012   0.00000  -0.00557  -0.00556  -3.04780
   D24        1.10486  -0.00008   0.00001  -0.00520  -0.00519   1.09967
   D25        0.87463   0.00006   0.00002   0.01114   0.01116   0.88579
   D26       -1.31185   0.00025   0.00002   0.01629   0.01631  -1.29554
         Item               Value     Threshold  Converged?
 Maximum Force            0.000929     0.000450     NO 
 RMS     Force            0.000181     0.000300     YES
 Maximum Displacement     0.022824     0.001800     NO 
 RMS     Displacement     0.006039     0.001200     NO 
 Predicted change in Energy=-1.125177D-05
 Lowest energy point so far.  Saving SCF results.
 GradGradGradGradGradGradGradGradGradGradGradGradGradGradGradGradGradGrad

 Leave Link  103 at Thu Sep  8 14:59:01 2022, MaxMem= 24159191040 cpu:         1.5
 (Enter /public/home/users/caep010/software/Gaussian09/g09/l202.exe)
                          Input orientation:                          
 ---------------------------------------------------------------------
 Center     Atomic      Atomic             Coordinates (Angstroms)
 Number     Number       Type             X           Y           Z
 ---------------------------------------------------------------------
      1          6           0       -1.599093   -0.600391    0.223400
      2          6           0       -0.653515    0.588666    0.114272
      3          8           0       -0.119980    0.969458    1.394505
      4          7           0        0.388546    0.379932   -0.883287
      5          6           0        1.326249   -0.704926   -0.605307
      6          8           0        1.141231    1.594062   -0.957883
      7          1           0       -2.438812   -0.339255    0.871920
      8          1           0       -1.101031   -1.477829    0.652122
      9          1           0       -1.983761   -0.874840   -0.761916
     10          1           0       -1.195604    1.475586   -0.222656
     11          1           0        0.144013    0.164806    1.863103
     12          1           0        2.081935   -0.702043   -1.391883
     13          1           0        0.800919   -1.663663   -0.635560
     14          1           0        1.841042   -0.606229    0.366528
     15          1           0        1.368058    1.796667   -0.027358
 ---------------------------------------------------------------------
                    Distance matrix (angstroms):
                    1          2          3          4          5
     1  C    0.000000
     2  C    1.523116   0.000000
     3  O    2.454321   1.438283   0.000000
     4  N    2.477196   1.457596   2.407172   0.000000
     5  C    3.042254   2.471971   2.982345   1.460643   0.000000
     6  O    3.704111   2.319796   2.741261   1.430458   2.333214
     7  H    1.092656   2.149965   2.713449   3.404693   4.060985
     8  H    1.096251   2.181732   2.739125   2.833302   2.840809
     9  H    1.092767   2.163125   3.394888   2.686452   3.318066
    10  H    2.161354   1.092707   2.007073   2.036277   3.355711
    11  H    2.512484   1.968278   0.967854   2.765635   2.871788
    12  H    4.021124   3.378923   3.925086   2.072898   1.090767
    13  H    2.761959   2.783992   3.450006   2.099452   1.093647
    14  H    3.443117   2.777449   2.717560   2.155063   1.104181
    15  H    3.822663   2.359255   2.218158   1.923330   2.567828
                    6          7          8          9         10
     6  O    0.000000
     7  H    4.461233   0.000000
     8  H    4.129936   1.770401   0.000000
     9  H    3.987412   1.778579   1.772657   0.000000
    10  H    2.452630   2.457094   3.081695   2.537025   0.000000
    11  H    3.315898   2.812029   2.390578   3.535395   2.804124
    12  H    2.519003   5.068883   3.861486   4.117839   4.105048
    13  H    3.291273   3.810828   2.304360   2.897007   3.743191
    14  H    2.661782   4.317852   3.081728   3.996831   3.728580
    15  H    0.978967   4.456806   4.156972   4.348703   2.591061
                   11         12         13         14         15
    11  H    0.000000
    12  H    3.886117   0.000000
    13  H    3.165145   1.771366   0.000000
    14  H    2.390427   1.777420   1.790029   0.000000
    15  H    2.781204   2.935149   3.558854   2.480478   0.000000
 Stoichiometry    C3H9NO2
 Framework group  C1[X(C3H9NO2)]
 Deg. of freedom    39
 Full point group                 C1      NOp   1
 RotChk:  IX=0 Diff= 4.26D-03
 Largest Abelian subgroup         C1      NOp   1
 Largest concise Abelian subgroup C1      NOp   1
                         Standard orientation:                         
 ---------------------------------------------------------------------
 Center     Atomic      Atomic             Coordinates (Angstroms)
 Number     Number       Type             X           Y           Z
 ---------------------------------------------------------------------
      1          6           0        1.811799    0.642182   -0.373548
      2          6           0        0.651073   -0.343695   -0.348168
      3          8           0        0.707393   -1.209765    0.798745
      4          7           0       -0.641370    0.316327   -0.484360
      5          6           0       -1.011268    1.219633    0.602236
      6          8           0       -1.630265   -0.715480   -0.544964
      7          1           0        2.755252    0.092563   -0.414935
      8          1           0        1.827880    1.274324    0.521943
      9          1           0        1.741709    1.293068   -1.248519
     10          1           0        0.712901   -1.025484   -1.199843
     11          1           0        0.919828   -0.670768    1.574048
     12          1           0       -2.019176    1.585821    0.402737
     13          1           0       -0.330570    2.075464    0.618610
     14          1           0       -1.010463    0.739062    1.596352
     15          1           0       -1.434424   -1.285101    0.226758
 ---------------------------------------------------------------------
 Rotational constants (GHZ):      4.7877285      2.9660108      2.4417664
 Leave Link  202 at Thu Sep  8 14:59:01 2022, MaxMem= 24159191040 cpu:         0.5
 (Enter /public/home/users/caep010/software/Gaussian09/g09/l301.exe)
 Standard basis: 6-31G(d,p) (6D, 7F)
[...]
   R11        2.06121  -0.00000   0.00000  -0.00000  -0.00000   2.06121
   R12        2.06669   0.00000   0.00000   0.00000   0.00000   2.06669
   R13        2.08626   0.00000   0.00000   0.00002   0.00002   2.08628
   R14        1.84871  -0.00004   0.00000  -0.00009  -0.00009   1.84862
    A1        1.91032  -0.00001   0.00000  -0.00006  -0.00006   1.91026
    A2        1.95063  -0.00000   0.00000  -0.00001  -0.00001   1.95061
    A3        1.92817   0.00001   0.00000   0.00006   0.00006   1.92823
    A4        1.88435   0.00000   0.00000  -0.00001  -0.00001   1.88434
    A5        1.90159   0.00000   0.00000   0.00002   0.00002   1.90161
    A6        1.88763  -0.00000   0.00000   0.00001   0.00001   1.88764
    A7        1.95289   0.00001   0.00000  -0.00004  -0.00004   1.95286
    A8        1.96202  -0.00002   0.00000  -0.00008  -0.00008   1.96194
    A9        1.92632   0.00001   0.00000   0.00007   0.00007   1.92639
   A10        1.96267   0.00001   0.00000   0.00008   0.00008   1.96275
   A11        1.81659  -0.00001   0.00000  -0.00007  -0.00007   1.81652
   A12        1.83369   0.00001   0.00000   0.00004   0.00004   1.83373
   A13        1.88802   0.00001   0.00000   0.00002   0.00002   1.88804
   A14        2.02139  -0.00000   0.00000   0.00003   0.00003   2.02142
   A15        1.86552  -0.00002   0.00000  -0.00009  -0.00009   1.86543
   A16        1.87857   0.00001   0.00000  -0.00002  -0.00002   1.87855
   A17        1.88130  -0.00001   0.00000  -0.00002  -0.00002   1.88128
   A18        1.91508  -0.00001   0.00000  -0.00005  -0.00005   1.91503
   A19        1.98217   0.00001   0.00000   0.00010   0.00010   1.98227
   A20        1.89160   0.00001   0.00000   0.00001   0.00001   1.89161
   A21        1.88765   0.00000   0.00000  -0.00004  -0.00004   1.88762
   A22        1.90383   0.00000   0.00000  -0.00001  -0.00001   1.90382
   A23        1.82094  -0.00001   0.00000  -0.00006  -0.00006   1.82088
    D1        1.05562   0.00000   0.00000  -0.00025  -0.00025   1.05537
    D2       -2.99944  -0.00000   0.00000  -0.00024  -0.00024  -2.99968
    D3       -0.95849  -0.00000   0.00000  -0.00018  -0.00018  -0.95867
    D4       -1.03097   0.00000   0.00000  -0.00018  -0.00018  -1.03115
    D5        1.19715  -0.00000   0.00000  -0.00017  -0.00017   1.19698
    D6       -3.04508  -0.00000   0.00000  -0.00011  -0.00011  -3.04520
    D7       -3.13366   0.00000   0.00000  -0.00022  -0.00022  -3.13388
    D8       -0.90554  -0.00000   0.00000  -0.00021  -0.00021  -0.90574
    D9        1.13541  -0.00000   0.00000  -0.00015  -0.00015   1.13526
   D10        0.77425  -0.00000   0.00000   0.00144   0.00144   0.77569
   D11       -1.45353   0.00002   0.00000   0.00151   0.00151  -1.45202
   D12        2.85435   0.00001   0.00000   0.00146   0.00146   2.85581
   D13       -1.12542   0.00000   0.00000   0.00009   0.00009  -1.12533
   D14        3.06504   0.00001   0.00000   0.00016   0.00016   3.06521
   D15        1.09751  -0.00000   0.00000   0.00004   0.00004   1.09755
   D16       -0.99521   0.00000   0.00000   0.00011   0.00011  -0.99509
   D17        3.06229  -0.00000   0.00000   0.00001   0.00001   3.06230
   D18        0.96957   0.00000   0.00000   0.00009   0.00009   0.96966
   D19       -3.07654   0.00001   0.00000  -0.00002  -0.00002  -3.07656
   D20        1.15009   0.00001   0.00000   0.00001   0.00001   1.15010
   D21       -0.98560   0.00001   0.00000  -0.00002  -0.00002  -0.98562
   D22       -0.99093  -0.00001   0.00000  -0.00013  -0.00013  -0.99106
   D23       -3.04748  -0.00001   0.00000  -0.00010  -0.00010  -3.04758
   D24        1.10001  -0.00001   0.00000  -0.00012  -0.00012   1.09989
   D25        0.87582  -0.00001   0.00000  -0.00037  -0.00037   0.87545
   D26       -1.30643   0.00000   0.00000  -0.00034  -0.00034  -1.30677
         Item               Value     Threshold  Converged?
 Maximum Force            0.000080     0.000450     YES
 RMS     Force            0.000014     0.000300     YES
 Maximum Displacement     0.001885     0.001800     NO 
 RMS     Displacement     0.000334     0.001200     YES
 Predicted change in Energy=-3.649665D-08
 GradGradGradGradGradGradGradGradGradGradGradGradGradGradGradGradGradGrad

 Leave Link  103 at Thu Sep  8 14:59:25 2022, MaxMem= 24159191040 cpu:         1.5
 (Enter /public/home/users/caep010/software/Gaussian09/g09/l9999.exe)
 1\1\GINC-B1537\Freq\RB3LYP\6-31G(d,p)\C3H9N1O2\ROOT\08-Sep-2022\0\\#P 
 Geom=AllCheck Guess=TCheck SCRF=Check GenChk RB3LYP/6-31G(d,p) Freq\\F
 rag_654\\0,1\C,-1.6000151948,-0.599355323,0.2230845936\C,-0.6524770064
 ,0.5878764985,0.1148396475\O,-0.1185164652,0.9663364874,1.3955002381\N
 ,0.3893558572,0.3783571048,-0.8828029016\C,1.3277965643,-0.7057790411,
 -0.6044944912\O,1.1412003006,1.5933292271,-0.9600725425\H,-2.439077254
 9,-0.337282341,0.8720329662\H,-1.1034103461,-1.4780085684,0.6507533215
 \H,-1.9852739068,-0.8720675764,-0.7624886601\H,-1.192733308,1.47630476
 09,-0.2210461051\H,0.1446045171,0.1612625489,1.8625275759\H,2.08283891
 77,-0.7032907431,-1.3916640764\H,0.8029058321,-1.6648054327,-0.6331310
 127\H,1.8430545083,-0.6052172408,0.3666965261\H,1.3599449849,1.8023406
 387,-0.0297350792\\Version=ES64L-G09RevE.01\State=1-A\HF=-324.8828624\
 RMSD=1.900e-09\RMSF=1.904e-05\ZeroPoint=0.1299945\Thermal=0.1371901\Di
 pole=-0.1296157,-0.9587174,0.7667861\DipoleDeriv=-0.0349637,-0.1201186
 ,0.0024403,-0.1056048,0.0034834,-0.0422959,0.0572374,0.0161584,0.02122
 04,0.7792025,0.0821755,-0.024766,0.0895374,0.3547264,0.1534746,-0.1233
 934,0.172011,0.9923566,-0.636835,-0.1418379,-0.0654799,-0.0912302,-0.3
 325668,-0.1911632,0.1068844,-0.1928745,-0.9440907,-0.3135561,0.1781539
 ,-0.0565566,0.1347615,0.0721038,-0.1112921,-0.0035979,-0.0121413,-0.52
 53412,0.2447029,-0.0555193,0.1081478,-0.1422027,0.2423801,0.0225337,0.
 1453227,0.0139412,0.2790845,-0.5366147,-0.0708978,0.1881401,0.0102523,
 -0.5731666,0.0992375,0.09668,-0.0380983,-0.1039697,-0.0551609,0.004301
 5,0.0807523,0.0215323,0.0379154,-0.0263374,0.1043265,-0.0116388,0.0063
 825,-0.0118085,0.0885127,-0.0617221,0.0436986,-0.0673462,0.050497,-0.0
 521368,0.0634731,0.0239134,0.0564658,-0.0170311,-0.0415452,-0.0276363,
 0.0429092,-0.0323351,-0.0649908,-0.044361,-0.0633818,-0.0185299,0.0256
 875,-0.0157355,0.0768306,-0.0765828,0.0181242,-0.0053139,0.0097337,-0.
 0081256,0.2933241,0.0386838,-0.0448935,0.061603,0.1033696,0.0794332,-0
 .030582,0.0293693,0.3120867,-0.0354701,0.0434539,0.0755109,-0.0042713,
 0.0753909,0.0061695,0.0807777,-0.0095879,-0.018092,0.0120704,-0.083559
 2,-0.0172192,-0.0664558,-0.1106839,0.0006092,-0.0366399,0.0276354,0.06
 36197,-0.0444167,0.0515571,-0.0685896,0.0031512,-0.0199199,-0.052967,-
 0.1620176,0.0363887,-0.1566189,0.30159,-0.023562,-0.0584837,-0.0039658
 ,0.2479875,0.0263117,-0.1125564,-0.0600091,0.120956\Polar=50.0890828,1
 .8358885,49.0076213,-2.0299507,-0.3217631,44.590172\PG=C01 [X(C3H9N1O2
 )]\NImag=0\\0.54136968,-0.04601441,0.51850566,-0.00013929,0.01061309,0
 .59506440,-0.12325555,-0.05362457,0.01216271,0.53627412,-0.04674897,-0
 .16018491,0.01704605,-0.05330166,0.63475457,0.00673138,0.00912399,-0.0
 7930570,0.02537258,-0.07907764,0.41238420,-0.01034759,-0.00835176,-0.0
 3102942,-0.09106713,-0.01742610,-0.04089861,0.12961259,-0.01586262,-0.
 00822603,-0.03304345,0.00272534,-0.10474105,0.00839584,-0.08474785,0.4
 7772221,-0.00830302,-0.00397605,-0.01384563,-0.05175319,-0.03540570,-0
 .13725673,0.13790541,-0.14173339,0.37310417,-0.01964079,-0.00267913,0.
 01115743,-0.13612339,0.03452402,0.07778887,0.01074019,-0.00185939,0.00
 942220,0.45603189,-0.02296237,0.00395865,0.01840047,0.01623171,-0.0989
 9469,0.00373211,0.00030867,-0.00149162,-0.01954706,-0.04112480,0.45870
 714,0.00800684,0.00401641,0.00015778,0.02181021,-0.00773735,-0.0892207
 3,0.01752026,-0.02029726,-0.06799680,-0.06288532,0.00528645,0.28837879
 ,-0.00041176,-0.00014040,0.00057352,-0.02419545,0.02465281,-0.00595441
 ,-0.00049666,-0.00236361,-0.00530552,-0.14738080,0.07748724,0.00338058
 ,0.55295790,0.00098391,0.00113734,-0.00160833,0.01519315,-0.00187286,-
 0.00854977,0.00004759,0.00184609,0.00689551,0.04179036,-0.13329093,0.0
 0527302,0.06723691,0.53533187,0.00000753,-0.00004909,-0.00070971,0.017
 75775,-0.02218587,-0.00014782,-0.00144271,-0.00148052,-0.00013199,-0.0
 2004496,0.04129630,-0.07619630,-0.04298125,0.01574077,0.56272065,-0.00
 305449,0.00318607,0.00750841,-0.03140327,-0.04170065,0.00168291,0.0038
 3464,-0.00032007,-0.00184751,-0.09565530,-0.06121893,0.03603910,0.0066
 5806,0.01005597,-0.00316599,0.14747866,-0.00167351,0.00392309,0.002913
 32,-0.01729799,-0.01978277,0.00128254,0.00177515,0.00305116,-0.0037854
 5,-0.04912832,-0.16049717,0.04365388,-0.02946467,-0.05411152,0.0002551
 1,0.11895044,0.27284926,0.00208447,-0.00167514,-0.00191054,0.02248473,
 0.02286094,-0.01491961,0.00452882,0.00622604,0.00131030,-0.01791737,-0
 .03750468,-0.06740056,-0.00101944,0.01358632,-0.00305921,0.05323821,0.
 03716407,0.51877126,-0.20725164,0.05135484,0.12243741,-0.01646579,0.00
 753400,0.01379732,0.00245029,0.00058574,-0.00120665,-0.00006581,-0.003
 47363,-0.00123501,0.00048660,0.00013397,0.00026839,-0.00136583,-0.0008
 2883,0.00065456,0.22237599,0.05359337,-0.06452961,-0.04200275,-0.02209
 695,0.00734990,0.01802961,0.00189444,0.00092902,0.00035676,-0.00202236
 ,-0.00420751,-0.00061145,0.00033900,-0.00094462,-0.00030509,-0.0023289
 4,-0.00106830,0.00082325,-0.05495990,0.06914545,0.12419239,-0.03969500
 ,-0.14381012,0.00029490,-0.00128006,-0.00318905,-0.00047488,0.00011350
 ,0.00078220,0.00017010,0.00090425,0.00006647,-0.00036284,0.00032861,0.
 00021803,0.00052133,0.00005153,0.00050343,-0.13579601,0.04301600,0.151
 95705,-0.10484817,0.09475784,-0.04827161,0.01138130,-0.01836328,0.0082
 7652,0.00170900,0.00124049,0.00254461,0.00084284,0.00047397,-0.0001322
 2,-0.00089866,-0.00018666,0.00076718,-0.00036262,0.00045491,-0.0000551
 6,-0.01108719,0.01903796,-0.01161181,0.11229778,0.09473989,-0.21320827
 ,0.08044611,0.01519516,-0.02315223,0.01176025,0.00035583,0.00308326,0.
 00011040,0.00078346,0.00025042,-0.00115486,0.00042181,-0.00088202,-0.0
 0045618,-0.00107512,0.00040940,0.00021604,0.00295475,-0.00591055,0.002
 96113,-0.10416856,0.23345924,-0.04685936,0.08047889,-0.08735515,-0.002
 41520,0.00114556,-0.00349084,0.00132156,-0.00112352,0.00120491,-0.0000
 6015,0.00067434,0.00007694,0.00029772,0.00127922,0.00036105,0.00056900
 ,-0.00031920,-0.00009529,0.00834928,-0.01626815,0.00852651,0.05131870,
 -0.08934320,0.08988790,-0.08135657,-0.02329178,-0.08456597,-0.00660629
 ,-0.00096007,-0.02033176,-0.00324905,-0.00510331,-0.00125047,0.0001206
 9,0.00024680,0.00040901,-0.00043657,-0.00021655,-0.00013998,0.00055497
 ,0.00053591,0.00061304,0.01115565,0.00609910,0.02309597,-0.00589834,-0
 .00432734,-0.01326488,0.08404653,-0.02317264,-0.06483501,-0.05810725,-
 0.00556702,-0.00303523,-0.02526540,-0.00603449,-0.00481835,-0.00164464
 ,0.00031200,0.00082581,0.00028394,-0.00012119,0.00019451,0.00006859,0.
 00057275,0.00017251,0.00048830,-0.00323403,-0.00290196,-0.00656098,0.0
 0912218,0.00775447,0.02453228,0.02676325,0.06710334,-0.08697867,-0.060
 50270,-0.27074361,0.00123861,0.00061409,0.00213945,0.00036725,0.000398
 60,0.00167431,0.00109498,0.00032087,-0.00023269,-0.00028378,-0.0000750
 4,0.00008540,-0.00038564,-0.00018755,0.00042698,-0.00724877,-0.0033679
 2,-0.01496920,-0.00286177,-0.00304692,-0.00965822,0.09442414,0.0658997
 5,0.29080166,0.01054503,-0.01795590,0.00683345,-0.11043581,0.09903273,
 -0.03732845,-0.00640328,0.01083698,-0.01374442,-0.01896014,0.02670480,
 0.00232422,-0.00296440,-0.00143159,0.00370437,0.00246881,0.00035049,-0
 .00143769,0.00106266,0.00056641,0.00005193,-0.00210380,-0.00429960,0.0
 0049983,0.00049572,0.00077868,-0.00026778,0.12889383,0.00969585,-0.019
 47428,0.00704708,0.11012923,-0.23260985,0.06892005,-0.00491823,0.00920
 279,-0.00430608,0.00654410,-0.00852766,-0.00128776,-0.00024235,0.00150
 837,-0.00073476,-0.00262003,0.00267893,0.00056216,-0.00004662,0.001154
 87,0.00016151,-0.00320719,-0.00239062,-0.00021920,0.00005296,0.0003038
 0,-0.00038102,-0.11450337,0.24663909,0.00003875,0.00225234,0.00111931,
 -0.03951469,0.06576524,-0.06645671,-0.02009089,0.02316301,-0.02615885,
 0.01871403,-0.02301391,0.00187006,0.00377864,0.00132850,-0.00156870,-0
 .00177817,-0.00063047,0.00046980,-0.00035212,0.00028608,-0.00006203,0.
 00009532,-0.00000370,0.00069648,0.00047708,0.00022493,0.00019255,0.042
 33763,-0.06743584,0.09415681,-0.00004734,0.00163554,0.00110173,-0.0073
 4371,0.01691098,-0.01035905,-0.04103574,0.09238826,-0.07116640,-0.0005
 1808,-0.00118592,0.00185718,0.00232222,-0.00001104,0.00195946,-0.00126
 789,0.00064718,0.00146914,-0.00085149,-0.00004273,-0.00020267,0.000251
 28,-0.00105711,-0.00027201,0.00064310,0.00014543,0.00067473,-0.0010635
 2,-0.00156765,-0.00495544,0.04925523,-0.00198472,0.00369304,-0.0027191
 4,-0.00440762,0.00653449,-0.00843850,0.11261865,-0.37745719,0.20486584
 ,0.00038019,-0.00070920,-0.00243549,0.00038884,0.00008719,0.00048402,-
 0.00044153,-0.00012404,0.00029730,0.00019582,-0.00007315,0.00012245,0.
 00106209,-0.00072287,0.00023966,-0.00024687,-0.00075239,0.00001636,-0.
 00136103,0.00168337,-0.00133338,-0.10716637,0.36874159,0.00090824,0.00
 011530,0.00266420,-0.01415345,0.03528318,-0.02137354,-0.06877460,0.159
 72027,-0.13565261,0.00131845,0.00051052,-0.00070353,-0.00084849,-0.000
 16618,-0.00060313,-0.00016539,-0.00099138,-0.00037987,0.00021637,-0.00
 025531,0.00003520,-0.00073071,-0.00146414,0.00021286,0.00096988,0.0003
 5122,0.00018931,-0.00213407,-0.00281547,-0.00447912,0.08154740,-0.1904
 5256,0.15937936,0.00033688,0.00037571,0.00014996,-0.00059522,0.0034023
 8,-0.00302251,0.00091503,-0.00015508,0.00067840,-0.02412848,0.00328221
 ,0.01591880,-0.17331292,-0.00315844,0.13510720,0.00207224,-0.00203386,
 -0.00082075,-0.00005883,-0.00000002,0.00000283,0.00005833,-0.00003027,
 -0.00013219,0.00003962,-0.00002004,0.00000146,-0.00090863,0.00026292,0
 .00077232,-0.00031944,-0.00008120,0.00025411,0.19398562,-0.00051825,-0
 .00037447,0.00059848,0.00164786,-0.00518347,0.00155644,0.00007919,0.00
 013595,-0.00005481,0.02578703,-0.00511205,-0.01769503,-0.01021309,-0.0
 4498686,0.00682352,0.00037391,0.00253136,-0.00099592,-0.00012196,0.000
 28531,-0.00008595,-0.00009646,0.00047802,-0.00036594,0.00006230,0.0000
 1314,0.00003764,0.00119875,-0.00011774,-0.00082624,-0.00026542,-0.0000
 5376,0.00002204,-0.00179709,0.05092325,-0.00010773,0.00025872,0.000144
 49,-0.00118036,0.00137922,-0.00089877,0.00088514,-0.00016444,0.0008742
 3,-0.00660510,-0.00023207,0.00833873,0.14058987,0.00246346,-0.19848223
 ,-0.00122567,-0.00005698,0.00032083,-0.00002318,0.00000020,-0.00000274
 ,0.00002071,-0.00013509,-0.00004026,0.00008100,-0.00002004,0.00004847,
 -0.00032472,0.00005804,0.00025777,-0.00056868,0.00005385,0.00057112,-0
 .14755596,-0.00513388,0.20816360,-0.00164858,0.00022653,0.00122009,0.0
 0052774,-0.00078976,0.00096413,0.00008436,-0.00011386,0.00002225,0.013
 19507,0.01760352,-0.00036036,-0.11830097,-0.11730039,-0.00536448,0.000
 58746,0.00637266,-0.00007106,-0.00024858,0.00008251,-0.00015448,-0.001
 38115,0.00059751,0.00068401,-0.00021043,0.00002366,-0.00008146,0.00017
 223,-0.00010425,-0.00032316,-0.00014162,-0.00005434,0.00011065,-0.0094
 7400,-0.01867519,-0.00298277,0.12339389,-0.00029993,-0.00014599,0.0006
 2100,-0.00151820,-0.00061299,0.00022394,0.00077573,0.00023594,-0.00065
 508,-0.01339085,-0.02134663,0.00085375,-0.10899752,-0.24727865,-0.0069
 4833,0.00327691,-0.00673827,0.00067758,-0.00020469,0.00061149,-0.00012
 453,-0.00012079,0.00088881,-0.00063096,0.00018603,-0.00007430,0.000069
 91,-0.00007094,0.00009193,0.00010112,-0.00021059,-0.00025117,-0.000098
 89,0.00000791,0.00147445,0.00025693,0.12222303,0.27429407,0.00069601,-
 0.00057732,0.00036301,-0.00011648,-0.00030063,-0.00010704,0.00066327,0
 .00008039,0.00011829,0.00473403,0.00425875,-0.00172639,-0.00679716,-0.
 00821752,-0.04973884,-0.00025190,0.00254115,0.00168985,-0.00011421,0.0
 0011368,-0.00009335,0.00078199,0.00007657,-0.00045547,-0.00020592,0.00
 012098,-0.00008447,0.00008755,0.00007119,-0.00000884,-0.00034527,-0.00
 033047,-0.00005326,0.01018191,0.02121150,0.00206394,0.00518718,0.00526
 423,0.04789340,-0.00020845,0.00038220,0.00038477,0.00193967,-0.0014030
 4,-0.00734816,0.00231818,-0.00072317,0.00302553,-0.02107267,0.00619883
 ,-0.02316347,-0.09583162,-0.01442007,-0.08958355,0.00156841,-0.0009773
 9,0.00349734,-0.00009007,-0.00014626,0.00012373,-0.00007813,-0.0002744
 0,0.00006445,0.00033281,0.00009330,0.00006461,0.00006226,0.00011474,0.
 00058114,-0.00160095,0.00053207,0.00167780,0.01140348,0.00267658,0.018
 76627,-0.00619434,-0.00191424,-0.01401069,0.10663666,0.00004571,-0.000
 09008,-0.00016736,-0.00185876,0.00101139,0.00337169,-0.00087053,0.0003
 3034,-0.00182320,0.01942913,-0.00396764,0.02602555,-0.01557114,-0.0572
 9829,-0.02735488,0.00122046,0.00579675,0.00086387,0.00005704,0.0001395
 0,-0.00002651,0.00003608,0.00001238,-0.00012097,0.00001891,-0.00015401
 ,0.00006111,-0.00003410,-0.00003650,-0.00033266,0.00048317,-0.00015095
 ,-0.00058441,-0.00021473,0.00023030,0.00113279,-0.01076969,-0.00127893
 ,-0.02531627,0.00861968,0.05560745,-0.00019362,0.00022298,0.00024173,0
 .00318434,-0.00072511,-0.00395072,0.00203924,0.00024894,0.00228475,-0.
 01408579,0.00755949,-0.00227150,-0.08802970,-0.02873477,-0.23485954,0.
 00219723,0.00026035,0.00209446,-0.00008087,-0.00008981,0.00006874,-0.0
 0012010,-0.00012081,0.00003612,0.00014439,0.00002318,0.00006695,-0.000
 14930,0.00015536,0.00019369,-0.00024364,-0.00067574,0.00043168,-0.0115
 8634,-0.00487376,-0.02078378,0.00142018,-0.00041251,0.00036707,0.10629
 494,0.02559410,0.25662723,-0.00018065,0.00013921,0.00047680,-0.0026312
 2,-0.00536339,-0.00937076,0.00093519,0.00347213,0.00097877,-0.01738520
 ,-0.01857210,-0.01948982,0.00180502,0.00128289,0.00315105,-0.03211385,
 -0.02768217,-0.06724883,-0.00004595,-0.00001563,0.00014950,0.00011753,
 0.00018399,-0.00010076,0.00036817,0.00033815,0.00024209,-0.00086095,0.
 00040987,0.00021954,0.00171796,0.00056601,-0.00019619,-0.00001366,-0.0
 0013816,0.00023120,-0.00036107,0.00025816,-0.00049031,0.00081476,-0.00
 059124,-0.00079096,0.04783390,0.00017869,-0.00014912,-0.00003731,-0.00
 144971,0.00051968,-0.00506515,0.00449371,0.00019748,0.00070295,-0.0193
 4544,-0.02559694,-0.03417380,-0.00341265,0.00056037,-0.00515360,-0.027
 93125,-0.04909041,-0.04359013,0.00005351,0.00002014,0.00011403,-0.0000
 4259,-0.00006945,0.00004119,0.00018065,0.00020365,0.00014282,0.0001876
 9,-0.00010653,0.00045499,-0.00070371,-0.00044497,0.00082580,0.00015959
 ,-0.00024345,0.00013930,0.00067806,0.00013024,0.00100378,0.00124115,-0
 .00015173,0.00156812,0.04571227,0.07422102,-0.00008393,-0.00060642,-0.
 00207446,0.00482754,0.00261808,0.00579360,-0.00251983,-0.00050401,-0.0
 0031056,-0.00280141,-0.00264584,0.00685973,0.00296227,0.00045619,0.002
 11234,-0.09293591,-0.08215091,-0.43782183,0.00033349,0.00027490,-0.000
 03116,-0.00002166,0.00015440,0.00009246,-0.00045553,-0.00039487,0.0000
 6312,-0.00045256,0.00020474,-0.00022222,-0.00049647,0.00030580,-0.0002
 3867,0.00005076,-0.00021807,-0.00057541,-0.00027073,0.00080184,-0.0002
 2791,-0.00037472,-0.00132285,-0.00054688,0.09223870,0.08302702,0.42712
 785\\-0.00000761,0.00000777,0.00001410,-0.00005715,-0.00001837,0.00001
 613,0.00001882,0.00003175,-0.00000525,0.00004399,0.00002470,-0.0000238
 3,0.00000800,-0.00003112,-0.00000338,0.00000225,-0.00001106,-0.0000662
 3,-0.00000697,0.00000699,0.00000591,-0.00000446,0.00000938,0.00001111,
 0.00000025,0.00000137,0.00000896,-0.00000377,-0.00000688,-0.00000503,-
 0.00000616,-0.00000491,0.00001003,-0.00000010,-0.00001518,0.00000409,0
 .00000352,-0.00000734,0.00000989,-0.00000519,0.00000341,-0.00000134,0.
 00001458,0.00000947,0.00002483\\\@


 VIRTUE IS LEARNED AT YOUR MOTHER'S KNEE,
 VICES ARE PICKED UP AT SOME OTHER JOINT.
 Job cpu time:       0 days  0 hours  6 minutes  2.2 seconds.
 File lengths (MBytes):  RWF=     34 Int=      0 D2E=      0 Chk=      3 Scr=      1
 Normal termination of Gaussian 09 at Thu Sep  8 14:59:25 2022.
