 Entering Gaussian System, Link 0=g09
 Input=B3LYP6-31Gdp.Frag_1005.gjf
 Output=B3LYP6-31Gdp.Frag_1005.log
 Initial command:
 /public/home/users/caep010/software/Gaussian09/g09/l1.exe "/public/home/users/caep010/.cache/gau_scr/Gau-156823.inp" -scrdir="/public/home/users/caep010/.cache/gau_scr/"
 Entering Link 1 = /public/home/users/caep010/software/Gaussian09/g09/l1.exe PID=    156824.
  
 Copyright (c) 1988,1990,1992,1993,1995,1998,2003,2009,2015,
            Gaussian, Inc.  All Rights Reserved.
  
 This is part of the Gaussian(R) 09 program.  It is based on
 the Gaussian(R) 03 system (copyright 2003, Gaussian, Inc.),
 the Gaussian(R) 98 system (copyright 1998, Gaussian, Inc.),
 the Gaussian(R) 94 system (copyright 1995, Gaussian, Inc.),
 the Gaussian 92(TM) system (copyright 1992, Gaussian, Inc.),
 the Gaussian 90(TM) system (copyright 1990, Gaussian, Inc.),
 the Gaussian 88(TM) system (copyright 1988, Gaussian, Inc.),
 the Gaussian 86(TM) system (copyright 1986, Carnegie Mellon
 University), and the Gaussian 82(TM) system (copyright 1983,
 Carnegie Mellon University). Gaussian is a federally registered
 trademark of Gaussian, Inc.
  
 This software contains proprietary and confidential information,
 including trade secrets, belonging to Gaussian, Inc.
  
 This software is provided under written license and may be
 used, copied, transmitted, or stored only in accord with that
 written license.
  
 The following legend is applicable only to US Government
 contracts under FAR:
  
                    RESTRICTED RIGHTS LEGEND
  
 Use, reproduction and disclosure by the US Government is
 subject to restrictions as set forth in subparagraphs (a)
 and (c) of the Commercial Computer Software - Restricted
 Rights clause in FAR 52.227-19.
  
 Gaussian, Inc.
 340 Quinnipiac St., Bldg. 40, Wallingford CT 06492
  
  
 ---------------------------------------------------------------
 Warning -- This program may not be used in any manner that
 competes with the business of Gaussian, Inc. or will provide
 assistance to any competitor of Gaussian, Inc.  The licensee
 of this program is prohibited from giving any competitor of
 Gaussian, Inc. access to this program.  By using this program,
 the user acknowledges that Gaussian, Inc. is engaged in the
 business of creating and licensing software in the field of
 computational chemistry and represents and warrants to the
 licensee that it is not a competitor of Gaussian, Inc. and that
 it will not use this program in any manner prohibited above.
 ---------------------------------------------------------------
  

 Cite this work as:
 Gaussian 09, Revision E.01,
 M. J. Frisch, G. W. Trucks, H. B. Schlegel, G. E. Scuseria, 
 M. A. Robb, J. R. Cheeseman, G. Scalmani, V. Barone, B. Mennucci, 
 G. A. Petersson, H. Nakatsuji, M. Caricato, X. Li, H. P. Hratchian, 
 A. F. Izmaylov, J. Bloino, G. Zheng, J. L. Sonnenberg, M. Hada, 
 M. Ehara, K. Toyota, R. Fukuda, J. Hasegawa, M. Ishida, T. Nakajima, 
 Y. Honda, O. Kitao, H. Nakai, T. Vreven, J. A. Montgomery, Jr., 
 J. E. Peralta, F. Ogliaro, M. Bearpark, J. J. Heyd, E. Brothers, 
 K. N. Kudin, V. N. Staroverov, T. Keith, R. Kobayashi, J. Normand, 
 K. Raghavachari, A. Rendell, J. C. Burant, S. S. Iyengar, J. Tomasi, 
 M. Cossi, N. Rega, J. M. Millam, M. Klene, J. E. Knox, J. B. Cross, 
 V. Bakken, C. Adamo, J. Jaramillo, R. Gomperts, R. E. Stratmann, 
 O. Yazyev, A. J. Austin, R. Cammi, C. Pomelli, J. W. Ochterski, 
 R. L. Martin, K. Morokuma, V. G. Zakrzewski, G. A. Voth, 
 P. Salvador, J. J. Dannenberg, S. Dapprich, A. D. Daniels, 
 O. Farkas, J. B. Foresman, J. V. Ortiz, J. Cioslowski, 
 and D. J. Fox, Gaussian, Inc., Wallingford CT, 2013.
 
 ******************************************
 Gaussian 09:  ES64L-G09RevE.01 30-Nov-2015
                 8-Sep-2022 
 ******************************************
 %nproc=32
 Will use up to   32 processors via shared memory.
 %mem=180GB
 %chk=B3LYP6-31Gdp.Frag_1005.chk
 ----------------------------
 #P OPT Freq B3LYP/6-31G(d,p)
 ----------------------------
 1/14=-1,18=20,19=15,26=3,38=1/1,3;
 2/9=110,12=2,17=6,18=5,40=1/2;
 3/5=1,6=6,7=101,11=2,16=1,25=1,30=1,71=1,74=-5/1,2,3;
 4//1;
 5/5=2,38=5/2;
 6/7=2,8=2,9=2,10=2,28=1/1;
 7//1,2,3,16;
 1/14=-1,18=20,19=15,26=3/3(2);
 2/9=110/2;
 99//99;
 2/9=110/2;
 3/5=1,6=6,7=101,11=2,16=1,25=1,30=1,71=1,74=-5/1,2,3;
 4/5=5,16=3,69=1/1;
 5/5=2,38=5/2;
 7//1,2,3,16;
 1/14=-1,18=20,19=15,26=3/3(-5);
 2/9=110/2;
 6/7=2,8=2,9=2,10=2,19=2,28=1/1;
 99/9=1/99;
 Leave Link    1 at Thu Sep  8 14:49:45 2022, MaxMem= 24159191040 cpu:         2.1
 (Enter /public/home/users/caep010/software/Gaussian09/g09/l101.exe)
 ---------
 Frag_1005
 ---------
 Symbolic Z-matrix:
 Charge =  0 Multiplicity = 1
 C                    -1.27902  -0.55476  -0.74456 
 C                    -0.33107   0.1805    0.21958 
 N                    -0.45654  -0.43849   1.5493 
 N                    -0.70814   1.57996   0.42192 
 C                     1.13993   0.16182  -0.27701 
 N                     1.95961   1.13313  -0.17674 
 N                     1.55403  -1.02405  -0.86499 
 H                    -1.22876  -0.11204  -1.74324 
 H                    -1.04689  -1.61982  -0.84738 
 H                    -2.30227  -0.47385  -0.36709 
 H                     0.22461  -0.00993   2.17105 
 H                    -0.23887  -1.42916   1.5067 
 H                    -1.60153   1.59758   0.90432 
 H                    -0.82582   2.04664  -0.4724 
 H                     1.46865   1.93164   0.2263 
 H                     1.11306  -1.87662  -0.55949 
 H                     2.55892  -1.09255  -0.9462 
 
 NAtoms=     17 NQM=       17 NQMF=       0 NMMI=      0 NMMIF=      0
                NMic=       0 NMicF=      0.
                    Isotopes and Nuclear Properties:
 (Nuclear quadrupole moments (NQMom) in fm**2, nuclear magnetic moments (NMagM)
  in nuclear magnetons)

  Atom         1           2           3           4           5           6           7           8           9          10
 IAtWgt=          12          12          14          14          12          14          14           1           1           1
 AtmWgt=  12.0000000  12.0000000  14.0030740  14.0030740  12.0000000  14.0030740  14.0030740   1.0078250   1.0078250   1.0078250
 NucSpn=           0           0           2           2           0           2           2           1           1           1
 AtZEff=   0.0000000   0.0000000   0.0000000   0.0000000   0.0000000   0.0000000   0.0000000   0.0000000   0.0000000   0.0000000
 NQMom=    0.0000000   0.0000000   2.0440000   2.0440000   0.0000000   2.0440000   2.0440000   0.0000000   0.0000000   0.0000000
 NMagM=    0.0000000   0.0000000   0.4037610   0.4037610   0.0000000   0.4037610   0.4037610   2.7928460   2.7928460   2.7928460
 AtZNuc=   6.0000000   6.0000000   7.0000000   7.0000000   6.0000000   7.0000000   7.0000000   1.0000000   1.0000000   1.0000000

  Atom        11          12          13          14          15          16          17
 IAtWgt=           1           1           1           1           1           1           1
 AtmWgt=   1.0078250   1.0078250   1.0078250   1.0078250   1.0078250   1.0078250   1.0078250
 NucSpn=           1           1           1           1           1           1           1
 AtZEff=   0.0000000   0.0000000   0.0000000   0.0000000   0.0000000   0.0000000   0.0000000
 NQMom=    0.0000000   0.0000000   0.0000000   0.0000000   0.0000000   0.0000000   0.0000000
 NMagM=    2.7928460   2.7928460   2.7928460   2.7928460   2.7928460   2.7928460   2.7928460
 AtZNuc=   1.0000000   1.0000000   1.0000000   1.0000000   1.0000000   1.0000000   1.0000000
 Leave Link  101 at Thu Sep  8 14:49:45 2022, MaxMem= 24159191040 cpu:        10.3
 (Enter /public/home/users/caep010/software/Gaussian09/g09/l103.exe)

 GradGradGradGradGradGradGradGradGradGradGradGradGradGradGradGradGradGrad
 Berny optimization.
 Initialization pass.
                           ----------------------------
                           !    Initial Parameters    !
                           ! (Angstroms and Degrees)  !
 --------------------------                            --------------------------
 ! Name  Definition              Value          Derivative Info.                !
 --------------------------------------------------------------------------------
 ! R1    R(1,2)                  1.5391         estimate D2E/DX2                !
 ! R2    R(1,8)                  1.0936         estimate D2E/DX2                !
 ! R3    R(1,9)                  1.0949         estimate D2E/DX2                !
 ! R4    R(1,10)                 1.0936         estimate D2E/DX2                !
 ! R5    R(2,3)                  1.4721         estimate D2E/DX2                !
 ! R6    R(2,4)                  1.4634         estimate D2E/DX2                !
 ! R7    R(2,5)                  1.5527         estimate D2E/DX2                !
 ! R8    R(3,11)                 1.017          estimate D2E/DX2                !
 ! R9    R(3,12)                 1.0152         estimate D2E/DX2                !
 ! R10   R(4,13)                 1.0155         estimate D2E/DX2                !
 ! R11   R(4,14)                 1.0156         estimate D2E/DX2                !
 ! R12   R(5,6)                  1.2749         estimate D2E/DX2                !
 ! R13   R(5,7)                  1.3869         estimate D2E/DX2                !
 ! R14   R(6,15)                 1.0203         estimate D2E/DX2                !
 ! R15   R(7,16)                 1.0073         estimate D2E/DX2                !
 ! R16   R(7,17)                 1.0105         estimate D2E/DX2                !
 ! A1    A(2,1,8)              110.5104         estimate D2E/DX2                !
 ! A2    A(2,1,9)              113.1383         estimate D2E/DX2                !
 ! A3    A(2,1,10)             108.9483         estimate D2E/DX2                !
 ! A4    A(8,1,9)              107.3556         estimate D2E/DX2                !
 ! A5    A(8,1,10)             109.1629         estimate D2E/DX2                !
 ! A6    A(9,1,10)             107.6217         estimate D2E/DX2                !
 ! A7    A(1,2,3)              108.209          estimate D2E/DX2                !
 ! A8    A(1,2,4)              112.6289         estimate D2E/DX2                !
 ! A9    A(1,2,5)              112.174          estimate D2E/DX2                !
 ! A10   A(3,2,4)              104.7888         estimate D2E/DX2                !
 ! A11   A(3,2,5)              111.3821         estimate D2E/DX2                !
 ! A12   A(4,2,5)              107.4473         estimate D2E/DX2                !
 ! A13   A(2,3,11)             108.5404         estimate D2E/DX2                !
 ! A14   A(2,3,12)             110.7416         estimate D2E/DX2                !
 ! A15   A(11,3,12)            107.0543         estimate D2E/DX2                !
 ! A16   A(2,4,13)             107.9962         estimate D2E/DX2                !
 ! A17   A(2,4,14)             110.3362         estimate D2E/DX2                !
 ! A18   A(13,4,14)            107.9632         estimate D2E/DX2                !
 ! A19   A(2,5,6)              125.0855         estimate D2E/DX2                !
 ! A20   A(2,5,7)              115.3884         estimate D2E/DX2                !
 ! A21   A(6,5,7)              119.5258         estimate D2E/DX2                !
 ! A22   A(5,6,15)             108.5386         estimate D2E/DX2                !
 ! A23   A(5,7,16)             117.6723         estimate D2E/DX2                !
 ! A24   A(5,7,17)             112.8895         estimate D2E/DX2                !
 ! A25   A(16,7,17)            113.7254         estimate D2E/DX2                !
 ! D1    D(8,1,2,3)            178.9968         estimate D2E/DX2                !
 ! D2    D(8,1,2,4)             63.6403         estimate D2E/DX2                !
 ! D3    D(8,1,2,5)            -57.737          estimate D2E/DX2                !
 ! D4    D(9,1,2,3)            -60.5914         estimate D2E/DX2                !
 ! D5    D(9,1,2,4)           -175.948          estimate D2E/DX2                !
 ! D6    D(9,1,2,5)             62.6747         estimate D2E/DX2                !
 ! D7    D(10,1,2,3)            59.0641         estimate D2E/DX2                !
 ! D8    D(10,1,2,4)           -56.2925         estimate D2E/DX2                !
 ! D9    D(10,1,2,5)          -177.6698         estimate D2E/DX2                !
 ! D10   D(1,2,3,11)           175.2198         estimate D2E/DX2                !
 ! D11   D(1,2,3,12)            57.976          estimate D2E/DX2                !
 ! D12   D(4,2,3,11)           -64.398          estimate D2E/DX2                !
 ! D13   D(4,2,3,12)           178.3582         estimate D2E/DX2                !
 ! D14   D(5,2,3,11)            51.4758         estimate D2E/DX2                !
 ! D15   D(5,2,3,12)           -65.7681         estimate D2E/DX2                !
 ! D16   D(1,2,4,13)            66.156          estimate D2E/DX2                !
 ! D17   D(1,2,4,14)           -51.6334         estimate D2E/DX2                !
 ! D18   D(3,2,4,13)           -51.2437         estimate D2E/DX2                !
 ! D19   D(3,2,4,14)          -169.0331         estimate D2E/DX2                !
 ! D20   D(5,2,4,13)          -169.8139         estimate D2E/DX2                !
 ! D21   D(5,2,4,14)            72.3967         estimate D2E/DX2                !
 ! D22   D(1,2,5,6)            141.4086         estimate D2E/DX2                !
 ! D23   D(1,2,5,7)            -38.8024         estimate D2E/DX2                !
 ! D24   D(3,2,5,6)            -97.1277         estimate D2E/DX2                !
 ! D25   D(3,2,5,7)             82.6613         estimate D2E/DX2                !
 ! D26   D(4,2,5,6)             17.1023         estimate D2E/DX2                !
 ! D27   D(4,2,5,7)           -163.1088         estimate D2E/DX2                !
 ! D28   D(2,5,6,15)            -3.5369         estimate D2E/DX2                !
 ! D29   D(7,5,6,15)           176.6822         estimate D2E/DX2                !
 ! D30   D(2,5,7,16)           -28.8645         estimate D2E/DX2                !
 ! D31   D(2,5,7,17)          -164.471          estimate D2E/DX2                !
 ! D32   D(6,5,7,16)           150.937          estimate D2E/DX2                !
 ! D33   D(6,5,7,17)            15.3305         estimate D2E/DX2                !
 --------------------------------------------------------------------------------
 Trust Radius=3.00D-01 FncErr=1.00D-07 GrdErr=1.00D-06
 Number of steps in this run=     84 maximum allowed number of steps=    102.
 GradGradGradGradGradGradGradGradGradGradGradGradGradGradGradGradGradGrad

 Leave Link  103 at Thu Sep  8 14:49:45 2022, MaxMem= 24159191040 cpu:         0.6
 (Enter /public/home/users/caep010/software/Gaussian09/g09/l202.exe)
                          Input orientation:                          
 ---------------------------------------------------------------------
 Center     Atomic      Atomic             Coordinates (Angstroms)
 Number     Number       Type             X           Y           Z
 ---------------------------------------------------------------------
      1          6           0       -1.279020   -0.554756   -0.744558
      2          6           0       -0.331072    0.180498    0.219583
      3          7           0       -0.456539   -0.438492    1.549296
      4          7           0       -0.708135    1.579963    0.421921
      5          6           0        1.139930    0.161820   -0.277007
      6          7           0        1.959609    1.133127   -0.176735
      7          7           0        1.554031   -1.024052   -0.864988
      8          1           0       -1.228758   -0.112038   -1.743244
      9          1           0       -1.046894   -1.619824   -0.847377
     10          1           0       -2.302269   -0.473850   -0.367086
     11          1           0        0.224605   -0.009929    2.171053
     12          1           0       -0.238870   -1.429163    1.506702
     13          1           0       -1.601532    1.597578    0.904320
     14          1           0       -0.825817    2.046640   -0.472399
     15          1           0        1.468654    1.931644    0.226304
     16          1           0        1.113055   -1.876619   -0.559490
     17          1           0        2.558921   -1.092547   -0.946195
 ---------------------------------------------------------------------
                    Distance matrix (angstroms):
                    1          2          3          4          5
     1  C    0.000000
     2  C    1.539081   0.000000
     3  N    2.439623   1.472083   0.000000
     4  N    2.498721   1.463427   2.325604   0.000000
     5  C    2.565815   1.552674   2.498894   2.432072   0.000000
     6  N    3.695956   2.512327   3.359604   2.770363   1.274898
     7  N    2.874182   2.486131   3.195941   3.681633   1.386901
     8  H    1.093572   2.178097   3.397604   2.796758   2.799202
     9  H    1.094908   2.211778   2.736440   3.458976   2.877808
    10  H    1.093650   2.158233   2.660919   2.716973   3.501560
    11  H    3.325434   2.037958   1.016959   2.541107   2.619220
    12  H    2.629576   2.063052   1.015196   3.232924   2.759336
    13  H    2.730449   2.022634   2.423342   1.015469   3.312484
    14  H    2.654567   2.050877   3.224825   1.015601   2.730364
    15  H    3.830727   2.511090   3.327795   2.213675   1.869133
    16  H    2.739269   2.631385   2.996467   4.028382   2.058094
    17  H    3.880679   3.366265   3.968408   4.437083   2.008677
                    6          7          8          9         10
     6  N    0.000000
     7  N    2.300349   0.000000
     8  H    3.764315   3.057289   0.000000
     9  H    4.131290   2.668345   1.763256   0.000000
    10  H    4.558751   3.927044   1.782455   1.766325   0.000000
    11  H    3.135112   3.466030   4.176651   3.649574   3.611435
    12  H    3.772612   3.000587   3.643741   2.496186   2.946408
    13  H    3.750483   4.467770   3.173538   3.705097   2.529490
    14  H    2.946272   3.904735   2.537183   3.692214   2.922990
    15  H    1.020346   3.151880   3.915583   4.482599   4.512025
    16  H    3.149877   1.007303   3.162137   2.194129   3.697191
    17  H    2.429993   1.010490   3.992893   3.645502   4.934503
                   11         12         13         14         15
    11  H    0.000000
    12  H    1.634135   0.000000
    13  H    2.742894   3.373555   0.000000
    14  H    3.510086   4.042592   1.642786   0.000000
    15  H    3.016523   3.981216   3.161858   2.401251   0.000000
    16  H    3.424871   2.509396   4.645618   4.377073   3.904714
    17  H    4.042070   3.735994   5.288719   4.640628   3.421866
                   16         17
    16  H    0.000000
    17  H    1.689627   0.000000
 Stoichiometry    C3H10N4
 Framework group  C1[X(C3H10N4)]
 Deg. of freedom    45
 Full point group                 C1      NOp   1
 Largest Abelian subgroup         C1      NOp   1
 Largest concise Abelian subgroup C1      NOp   1
                         Standard orientation:                         
 ---------------------------------------------------------------------
 Center     Atomic      Atomic             Coordinates (Angstroms)
 Number     Number       Type             X           Y           Z
 ---------------------------------------------------------------------
      1          6           0       -1.073847   -1.177967   -0.849082
      2          6           0       -0.577296   -0.002978    0.012086
      3          7           0       -1.035885   -0.219503    1.394055
      4          7           0       -1.171240    1.274910   -0.382695
      5          6           0        0.965342    0.160670   -0.053366
      6          7           0        1.583261    1.275315   -0.086666
      7          7           0        1.688625   -1.022566   -0.070928
      8          1           0       -0.768014   -1.045719   -1.890656
      9          1           0       -0.689516   -2.147744   -0.516447
     10          1           0       -2.165519   -1.219266   -0.797950
     11          1           0       -0.644245    0.511259    1.982962
     12          1           0       -0.693427   -1.105700    1.751828
     13          1           0       -2.165789    1.234021   -0.181752
     14          1           0       -1.059259    1.422674   -1.381230
     15          1           0        0.894404    2.027168   -0.122742
     16          1           0        1.284547   -1.824664    0.385162
     17          1           0        2.668298   -0.887483    0.136638
 ---------------------------------------------------------------------
 Rotational constants (GHZ):      3.3691280      2.3809879      1.9524657
 Leave Link  202 at Thu Sep  8 14:49:45 2022, MaxMem= 24159191040 cpu:         1.1
 (Enter /public/home/users/caep010/software/Gaussian09/g09/l301.exe)
 Standard basis: 6-31G(d,p) (6D, 7F)
 Ernie: Thresh=  0.10000D-02 Tol=  0.10000D-05 Strict=F.
 There are   155 symmetry adapted cartesian basis functions of A   symmetry.
 There are   155 symmetry adapted basis functions of A   symmetry.
   155 basis functions,   266 primitive gaussians,   155 cartesian basis functions
    28 alpha electrons       28 beta electrons
       nuclear repulsion energy       332.1404159254 Hartrees.
 IExCor=  402 DFT=T Ex+Corr=B3LYP ExCW=0 ScaHFX=  0.200000
 ScaDFX=  0.800000  0.720000  1.000000  0.810000 ScalE2=  1.000000  1.000000
 IRadAn=      0 IRanWt=     -1 IRanGd=            0 ICorTp=0 IEmpDi=  4
 NAtoms=   17 NActive=   17 NUniq=   17 SFac= 1.00D+00 NAtFMM=   60 NAOKFM=F Big=F
 Integral buffers will be    131072 words long.
 Raffenetti 2 integral format.
 Two-electron integral symmetry is turned on.
 Leave Link  301 at Thu Sep  8 14:49:45 2022, MaxMem= 24159191040 cpu:         1.9
 (Enter /public/home/users/caep010/software/Gaussian09/g09/l302.exe)
 NPDir=0 NMtPBC=     1 NCelOv=     1 NCel=       1 NClECP=     1 NCelD=      1
         NCelK=      1 NCelE2=     1 NClLst=     1 CellRange=     0.0.
 One-electron integrals computed using PRISM.
 NBasis=   155 RedAO= T EigKep=  2.22D-03  NBF=   155
 NBsUse=   155 1.00D-06 EigRej= -1.00D+00 NBFU=   155
 Precomputing XC quadrature grid using
 IXCGrd= 4 IRadAn=           0 IRanWt=          -1 IRanGd=           0 AccXCQ= 0.00D+00.
 Generated NRdTot=       0 NPtTot=           0 NUsed=           0 NTot=          32
 NSgBfM=   155   155   155   155   155 MxSgAt=    17 MxSgA2=    17.
 Leave Link  302 at Thu Sep  8 14:49:46 2022, MaxMem= 24159191040 cpu:        11.6
 (Enter /public/home/users/caep010/software/Gaussian09/g09/l303.exe)
 DipDrv:  MaxL=1.
 Leave Link  303 at Thu Sep  8 14:49:46 2022, MaxMem= 24159191040 cpu:         1.1
 (Enter /public/home/users/caep010/software/Gaussian09/g09/l401.exe)
 ExpMin= 1.61D-01 ExpMax= 4.17D+03 ExpMxC= 6.27D+02 IAcc=1 IRadAn=         1 AccDes= 0.00D+00
 Harris functional with IExCor=  402 and IRadAn=       1 diagonalized for initial guess.
 HarFok:  IExCor=  402 AccDes= 0.00D+00 IRadAn=         1 IDoV= 1 UseB2=F ITyADJ=14
 ICtDFT=  3500011 ScaDFX=  1.000000  1.000000  1.000000  1.000000
 FoFCou: FMM=F IPFlag=           0 FMFlag=      100000 FMFlg1=           0
         NFxFlg=           0 DoJE=T BraDBF=F KetDBF=T FulRan=T
         wScrn=  0.000000 ICntrl=     500 IOpCl=  0 I1Cent=   200000004 NGrid=           0
         NMat0=    1 NMatS0=      1 NMatT0=    0 NMatD0=    1 NMtDS0=    0 NMtDT0=    0
 Petite list used in FoFCou.
 Harris En= -339.374808681642    
 JPrj=0 DoOrth=F DoCkMO=F.
 Leave Link  401 at Thu Sep  8 14:49:46 2022, MaxMem= 24159191040 cpu:        10.8
 (Enter /public/home/users/caep010/software/Gaussian09/g09/l502.exe)
 Closed shell SCF:
 Using DIIS extrapolation, IDIIS=  1040.
 Integral symmetry usage will be decided dynamically.
 Keep R1 ints in memory in canonical form, NReq=75084987.
 IVT=       96762 IEndB=       96762 NGot= 24159191040 MDV= 24086004184
 LenX= 24086004184 LenY= 24085979718
 Requested convergence on RMS density matrix=1.00D-08 within 128 cycles.
 Requested convergence on MAX density matrix=1.00D-06.
 Requested convergence on             energy=1.00D-06.
 No special actions if energy rises.
 FoFCou: FMM=F IPFlag=           0 FMFlag=           0 FMFlg1=           0
         NFxFlg=           0 DoJE=F BraDBF=F KetDBF=F FulRan=T
         wScrn=  0.000000 ICntrl=     600 IOpCl=  0 I1Cent=           0 NGrid=           0
         NMat0=    1 NMatS0=  12090 NMatT0=    0 NMatD0=    1 NMtDS0=    0 NMtDT0=    0
 Symmetry not used in FoFCou.
 Integral accuracy reduced to 1.0D-05 until final iterations.

 Cycle   1  Pass 0  IDiag  1:
 E= -339.082429583777    
 DIIS: error= 2.89D-02 at cycle   1 NSaved=   1.
 NSaved= 1 IEnMin= 1 EnMin= -339.082429583777     IErMin= 1 ErrMin= 2.89D-02
 ErrMax= 2.89D-02  0.00D+00 EMaxC= 1.00D-01 BMatC= 3.03D-01 BMatP= 3.03D-01
 IDIUse=3 WtCom= 7.11D-01 WtEn= 2.89D-01
 Coeff-Com:  0.100D+01
 Coeff-En:   0.100D+01
 Coeff:      0.100D+01
 Gap=     0.220 Goal=   None    Shift=    0.000
 GapD=    0.220 DampG=1.000 DampE=0.500 DampFc=0.5000 IDamp=-1.
 Damping current iteration by 5.00D-01
 RMSDP=7.79D-03 MaxDP=2.00D-01              OVMax= 2.69D-01

 Cycle   2  Pass 0  IDiag  1:
 E= -339.185396556207     Delta-E=       -0.102966972430 Rises=F Damp=T
 DIIS: error= 6.66D-03 at cycle   2 NSaved=   2.
 NSaved= 2 IEnMin= 2 EnMin= -339.185396556207     IErMin= 2 ErrMin= 6.66D-03
 ErrMax= 6.66D-03  0.00D+00 EMaxC= 1.00D-01 BMatC= 2.12D-02 BMatP= 3.03D-01
 IDIUse=3 WtCom= 9.33D-01 WtEn= 6.66D-02
 Coeff-Com:  0.144D+00 0.856D+00
 Coeff-En:   0.242D+00 0.758D+00
 Coeff:      0.151D+00 0.849D+00
 Gap=     0.293 Goal=   None    Shift=    0.000
 RMSDP=1.66D-03 MaxDP=4.80D-02 DE=-1.03D-01 OVMax= 1.82D-01

 Cycle   3  Pass 0  IDiag  1:
 E= -339.337235880994     Delta-E=       -0.151839324786 Rises=F Damp=F
 DIIS: error= 7.38D-03 at cycle   3 NSaved=   3.
 NSaved= 3 IEnMin= 3 EnMin= -339.337235880994     IErMin= 2 ErrMin= 6.66D-03
 ErrMax= 7.38D-03  0.00D+00 EMaxC= 1.00D-01 BMatC= 1.62D-02 BMatP= 2.12D-02
 IDIUse=3 WtCom= 9.26D-01 WtEn= 7.38D-02
 Coeff-Com:  0.545D-01 0.472D+00 0.473D+00
 Coeff-En:   0.000D+00 0.000D+00 0.100D+01
 Coeff:      0.504D-01 0.437D+00 0.512D+00
 Gap=     0.266 Goal=   None    Shift=    0.000
 RMSDP=1.11D-03 MaxDP=4.14D-02 DE=-1.52D-01 OVMax= 7.17D-02

 Cycle   4  Pass 0  IDiag  1:
 E= -339.348703699836     Delta-E=       -0.011467818842 Rises=F Damp=F
 DIIS: error= 4.23D-03 at cycle   4 NSaved=   4.
 NSaved= 4 IEnMin= 4 EnMin= -339.348703699836     IErMin= 4 ErrMin= 4.23D-03
 ErrMax= 4.23D-03  0.00D+00 EMaxC= 1.00D-01 BMatC= 4.03D-03 BMatP= 1.62D-02
 IDIUse=3 WtCom= 9.58D-01 WtEn= 4.23D-02
 Coeff-Com:  0.331D-02 0.576D-01 0.333D+00 0.606D+00
 Coeff-En:   0.000D+00 0.000D+00 0.236D+00 0.764D+00
 Coeff:      0.317D-02 0.551D-01 0.329D+00 0.613D+00
 Gap=     0.266 Goal=   None    Shift=    0.000
 RMSDP=4.25D-04 MaxDP=1.56D-02 DE=-1.15D-02 OVMax= 2.32D-02

 Cycle   5  Pass 0  IDiag  1:
 E= -339.352163169793     Delta-E=       -0.003459469957 Rises=F Damp=F
 DIIS: error= 6.78D-04 at cycle   5 NSaved=   5.
 NSaved= 5 IEnMin= 5 EnMin= -339.352163169793     IErMin= 5 ErrMin= 6.78D-04
 ErrMax= 6.78D-04  0.00D+00 EMaxC= 1.00D-01 BMatC= 1.76D-04 BMatP= 4.03D-03
 IDIUse=3 WtCom= 9.93D-01 WtEn= 6.78D-03
 Coeff-Com: -0.165D-03 0.705D-02 0.153D+00 0.330D+00 0.511D+00
 Coeff-En:   0.000D+00 0.000D+00 0.000D+00 0.000D+00 0.100D+01
 Coeff:     -0.164D-03 0.701D-02 0.152D+00 0.328D+00 0.514D+00
 Gap=     0.266 Goal=   None    Shift=    0.000
 RMSDP=9.48D-05 MaxDP=2.45D-03 DE=-3.46D-03 OVMax= 4.31D-03

 Cycle   6  Pass 0  IDiag  1:
 E= -339.352317779964     Delta-E=       -0.000154610171 Rises=F Damp=F
 DIIS: error= 1.20D-04 at cycle   6 NSaved=   6.
 NSaved= 6 IEnMin= 6 EnMin= -339.352317779964     IErMin= 6 ErrMin= 1.20D-04
 ErrMax= 1.20D-04  0.00D+00 EMaxC= 1.00D-01 BMatC= 6.52D-06 BMatP= 1.76D-04
 IDIUse=3 WtCom= 9.99D-01 WtEn= 1.20D-03
 Coeff-Com: -0.195D-03-0.192D-02 0.352D-01 0.819D-01 0.220D+00 0.665D+00
 Coeff-En:   0.000D+00 0.000D+00 0.000D+00 0.000D+00 0.000D+00 0.100D+01
 Coeff:     -0.194D-03-0.191D-02 0.352D-01 0.818D-01 0.220D+00 0.665D+00
 Gap=     0.266 Goal=   None    Shift=    0.000
 RMSDP=1.81D-05 MaxDP=3.40D-04 DE=-1.55D-04 OVMax= 5.70D-04

 Cycle   7  Pass 0  IDiag  1:
 E= -339.352323564895     Delta-E=       -0.000005784931 Rises=F Damp=F
 DIIS: error= 1.66D-05 at cycle   7 NSaved=   7.
 NSaved= 7 IEnMin= 7 EnMin= -339.352323564895     IErMin= 7 ErrMin= 1.66D-05
 ErrMax= 1.66D-05  0.00D+00 EMaxC= 1.00D-01 BMatC= 1.26D-07 BMatP= 6.52D-06
 IDIUse=1 WtCom= 1.00D+00 WtEn= 0.00D+00
 Coeff-Com: -0.439D-05-0.854D-03 0.914D-02 0.208D-01 0.675D-01 0.225D+00
 Coeff-Com:  0.679D+00
 Coeff:     -0.439D-05-0.854D-03 0.914D-02 0.208D-01 0.675D-01 0.225D+00
 Coeff:      0.679D+00
 Gap=     0.266 Goal=   None    Shift=    0.000
 RMSDP=3.20D-06 MaxDP=7.61D-05 DE=-5.78D-06 OVMax= 7.92D-05

 Initial convergence to 1.0D-05 achieved.  Increase integral accuracy.
 Cycle   8  Pass 1  IDiag  1:
 E= -339.352233868182     Delta-E=        0.000089696713 Rises=F Damp=F
 DIIS: error= 1.48D-05 at cycle   1 NSaved=   1.
 NSaved= 1 IEnMin= 1 EnMin= -339.352233868182     IErMin= 1 ErrMin= 1.48D-05
 ErrMax= 1.48D-05  0.00D+00 EMaxC= 1.00D-01 BMatC= 7.36D-08 BMatP= 7.36D-08
 IDIUse=1 WtCom= 1.00D+00 WtEn= 0.00D+00
 Coeff-Com:  0.100D+01
 Coeff:      0.100D+01
 Gap=     0.266 Goal=   None    Shift=    0.000
 RMSDP=3.20D-06 MaxDP=7.61D-05 DE= 8.97D-05 OVMax= 1.01D-04

 Cycle   9  Pass 1  IDiag  1:
 E= -339.352233891361     Delta-E=       -0.000000023178 Rises=F Damp=F
 DIIS: error= 1.20D-05 at cycle   2 NSaved=   2.
 NSaved= 2 IEnMin= 2 EnMin= -339.352233891361     IErMin= 2 ErrMin= 1.20D-05
 ErrMax= 1.20D-05  0.00D+00 EMaxC= 1.00D-01 BMatC= 6.77D-08 BMatP= 7.36D-08
 IDIUse=1 WtCom= 1.00D+00 WtEn= 0.00D+00
 Coeff-Com:  0.487D+00 0.513D+00
 Coeff:      0.487D+00 0.513D+00
 Gap=     0.266 Goal=   None    Shift=    0.000
 RMSDP=1.84D-06 MaxDP=4.95D-05 DE=-2.32D-08 OVMax= 7.84D-05

 Cycle  10  Pass 1  IDiag  1:
 E= -339.352233944736     Delta-E=       -0.000000053375 Rises=F Damp=F
 DIIS: error= 4.02D-06 at cycle   3 NSaved=   3.
 NSaved= 3 IEnMin= 3 EnMin= -339.352233944736     IErMin= 3 ErrMin= 4.02D-06
 ErrMax= 4.02D-06  0.00D+00 EMaxC= 1.00D-01 BMatC= 7.27D-09 BMatP= 6.77D-08
 IDIUse=1 WtCom= 1.00D+00 WtEn= 0.00D+00
 Coeff-Com:  0.475D-01 0.244D+00 0.708D+00
 Coeff:      0.475D-01 0.244D+00 0.708D+00
 Gap=     0.266 Goal=   None    Shift=    0.000
 RMSDP=7.32D-07 MaxDP=2.98D-05 DE=-5.34D-08 OVMax= 4.09D-05

 Cycle  11  Pass 1  IDiag  1:
 E= -339.352233948399     Delta-E=       -0.000000003663 Rises=F Damp=F
 DIIS: error= 3.22D-06 at cycle   4 NSaved=   4.
 NSaved= 4 IEnMin= 4 EnMin= -339.352233948399     IErMin= 4 ErrMin= 3.22D-06
 ErrMax= 3.22D-06  0.00D+00 EMaxC= 1.00D-01 BMatC= 2.91D-09 BMatP= 7.27D-09
 IDIUse=1 WtCom= 1.00D+00 WtEn= 0.00D+00
 Coeff-Com: -0.130D-01 0.119D+00 0.484D+00 0.410D+00
 Coeff:     -0.130D-01 0.119D+00 0.484D+00 0.410D+00
 Gap=     0.266 Goal=   None    Shift=    0.000
 RMSDP=3.64D-07 MaxDP=1.39D-05 DE=-3.66D-09 OVMax= 1.87D-05

 Cycle  12  Pass 1  IDiag  1:
 E= -339.352233951022     Delta-E=       -0.000000002623 Rises=F Damp=F
 DIIS: error= 3.28D-07 at cycle   5 NSaved=   5.
 NSaved= 5 IEnMin= 5 EnMin= -339.352233951022     IErMin= 5 ErrMin= 3.28D-07
 ErrMax= 3.28D-07  0.00D+00 EMaxC= 1.00D-01 BMatC= 3.80D-11 BMatP= 2.91D-09
 IDIUse=1 WtCom= 1.00D+00 WtEn= 0.00D+00
 Coeff-Com: -0.693D-02 0.435D-01 0.183D+00 0.189D+00 0.591D+00
 Coeff:     -0.693D-02 0.435D-01 0.183D+00 0.189D+00 0.591D+00
 Gap=     0.266 Goal=   None    Shift=    0.000
 RMSDP=4.49D-08 MaxDP=1.14D-06 DE=-2.62D-09 OVMax= 1.63D-06

 Cycle  13  Pass 1  IDiag  1:
 E= -339.352233951058     Delta-E=       -0.000000000036 Rises=F Damp=F
 DIIS: error= 1.30D-07 at cycle   6 NSaved=   6.
 NSaved= 6 IEnMin= 6 EnMin= -339.352233951058     IErMin= 6 ErrMin= 1.30D-07
 ErrMax= 1.30D-07  0.00D+00 EMaxC= 1.00D-01 BMatC= 4.63D-12 BMatP= 3.80D-11
 IDIUse=1 WtCom= 1.00D+00 WtEn= 0.00D+00
 Coeff-Com: -0.228D-02 0.105D-01 0.451D-01 0.600D-01 0.306D+00 0.581D+00
 Coeff:     -0.228D-02 0.105D-01 0.451D-01 0.600D-01 0.306D+00 0.581D+00
 Gap=     0.266 Goal=   None    Shift=    0.000
 RMSDP=1.48D-08 MaxDP=4.40D-07 DE=-3.59D-11 OVMax= 4.26D-07

 Cycle  14  Pass 1  IDiag  1:
 E= -339.352233951063     Delta-E=       -0.000000000005 Rises=F Damp=F
 DIIS: error= 1.55D-08 at cycle   7 NSaved=   7.
 NSaved= 7 IEnMin= 7 EnMin= -339.352233951063     IErMin= 7 ErrMin= 1.55D-08
 ErrMax= 1.55D-08  0.00D+00 EMaxC= 1.00D-01 BMatC= 1.39D-13 BMatP= 4.63D-12
 IDIUse=1 WtCom= 1.00D+00 WtEn= 0.00D+00
 Coeff-Com: -0.335D-03 0.538D-03 0.258D-02 0.836D-02 0.553D-01 0.194D+00
 Coeff-Com:  0.739D+00
 Coeff:     -0.335D-03 0.538D-03 0.258D-02 0.836D-02 0.553D-01 0.194D+00
 Coeff:      0.739D+00
 Gap=     0.266 Goal=   None    Shift=    0.000
 RMSDP=3.18D-09 MaxDP=6.76D-08 DE=-5.34D-12 OVMax= 8.62D-08

 SCF Done:  E(RB3LYP) =  -339.352233951     A.U. after   14 cycles
            NFock= 14  Conv=0.32D-08     -V/T= 2.0093
 KE= 3.362388029755D+02 PE=-1.454013263702D+03 EE= 4.462818108500D+02
 Leave Link  502 at Thu Sep  8 14:49:50 2022, MaxMem= 24159191040 cpu:        62.3
 (Enter /public/home/users/caep010/software/Gaussian09/g09/l601.exe)
 Copying SCF densities to generalized density rwf, IOpCl= 0 IROHF=0.

 **********************************************************************

            Population analysis using the SCF density.

 **********************************************************************

 Orbital symmetries:
       Occupied  (A) (A) (A) (A) (A) (A) (A) (A) (A) (A) (A) (A)
                 (A) (A) (A) (A) (A) (A) (A) (A) (A) (A) (A) (A)
                 (A) (A) (A) (A)
       Virtual   (A) (A) (A) (A) (A) (A) (A) (A) (A) (A) (A) (A)
                 (A) (A) (A) (A) (A) (A) (A) (A) (A) (A) (A) (A)
                 (A) (A) (A) (A) (A) (A) (A) (A) (A) (A) (A) (A)
                 (A) (A) (A) (A) (A) (A) (A) (A) (A) (A) (A) (A)
                 (A) (A) (A) (A) (A) (A) (A) (A) (A) (A) (A) (A)
                 (A) (A) (A) (A) (A) (A) (A) (A) (A) (A) (A) (A)
                 (A) (A) (A) (A) (A) (A) (A) (A) (A) (A) (A) (A)
                 (A) (A) (A) (A) (A) (A) (A) (A) (A) (A) (A) (A)
                 (A) (A) (A) (A) (A) (A) (A) (A) (A) (A) (A) (A)
                 (A) (A) (A) (A) (A) (A) (A) (A) (A) (A) (A) (A)
                 (A) (A) (A) (A) (A) (A) (A)
 The electronic state is 1-A.
 Alpha  occ. eigenvalues --  -14.33720 -14.32459 -14.32021 -14.27703 -10.25669
 Alpha  occ. eigenvalues --  -10.24078 -10.18405  -0.95146  -0.90991  -0.84879
 Alpha  occ. eigenvalues --   -0.83030  -0.72957  -0.62875  -0.56472  -0.53914
 Alpha  occ. eigenvalues --   -0.50180  -0.49471  -0.43518  -0.43304  -0.42104
 Alpha  occ. eigenvalues --   -0.40384  -0.39106  -0.37801  -0.34762  -0.27219
 Alpha  occ. eigenvalues --   -0.25023  -0.23367  -0.22620
 Alpha virt. eigenvalues --    0.03954   0.05095   0.09797   0.11981   0.12966
 Alpha virt. eigenvalues --    0.14049   0.15052   0.15916   0.17977   0.19092
 Alpha virt. eigenvalues --    0.20815   0.22303   0.25130   0.26671   0.28059
 Alpha virt. eigenvalues --    0.36522   0.42690   0.52107   0.54994   0.55650
 Alpha virt. eigenvalues --    0.58381   0.61476   0.62472   0.63212   0.66927
 Alpha virt. eigenvalues --    0.67862   0.70164   0.71219   0.72624   0.73685
 Alpha virt. eigenvalues --    0.75722   0.79452   0.80927   0.82945   0.84075
 Alpha virt. eigenvalues --    0.84523   0.86025   0.88201   0.89008   0.90276
 Alpha virt. eigenvalues --    0.91210   0.93735   0.95899   0.96460   0.98350
 Alpha virt. eigenvalues --    1.01155   1.04031   1.04885   1.11432   1.17951
 Alpha virt. eigenvalues --    1.24077   1.31969   1.34064   1.36000   1.43084
 Alpha virt. eigenvalues --    1.47396   1.50670   1.53770   1.55580   1.60724
 Alpha virt. eigenvalues --    1.69852   1.73782   1.74587   1.82312   1.82707
 Alpha virt. eigenvalues --    1.84034   1.88463   1.92150   1.92977   1.96878
 Alpha virt. eigenvalues --    1.99905   2.03486   2.03749   2.09173   2.10639
 Alpha virt. eigenvalues --    2.13630   2.14318   2.15398   2.17260   2.19511
 Alpha virt. eigenvalues --    2.21633   2.25674   2.30581   2.32317   2.34529
 Alpha virt. eigenvalues --    2.34755   2.37125   2.41843   2.43901   2.46037
 Alpha virt. eigenvalues --    2.47324   2.51228   2.52541   2.55593   2.61673
 Alpha virt. eigenvalues --    2.64629   2.65634   2.70140   2.72142   2.74751
 Alpha virt. eigenvalues --    2.76881   2.81253   2.86555   2.92762   2.96024
 Alpha virt. eigenvalues --    2.98962   2.99541   3.01223   3.05440   3.16092
 Alpha virt. eigenvalues --    3.20467   3.29033   3.31019   3.35871   3.40322
 Alpha virt. eigenvalues --    3.42363   3.43450   3.45733   3.53624   3.56291
 Alpha virt. eigenvalues --    3.96690   4.03602   4.06487   4.14492   4.42443
 Alpha virt. eigenvalues --    4.49762   4.72859
          Condensed to atoms (all electrons):
               1          2          3          4          5          6
     1  C    5.060070   0.357370  -0.075441  -0.066272  -0.064159   0.003776
     2  C    0.357370   4.931423   0.305691   0.300963   0.321554  -0.073508
     3  N   -0.075441   0.305691   6.805988  -0.077681  -0.054628  -0.002859
     4  N   -0.066272   0.300963  -0.077681   6.825520  -0.062200  -0.021774
     5  C   -0.064159   0.321554  -0.054628  -0.062200   4.601931   0.624567
     6  N    0.003776  -0.073508  -0.002859  -0.021774   0.624567   6.812937
     7  N    0.001537  -0.096114  -0.000514   0.003141   0.296101  -0.095861
     8  H    0.374865  -0.026048   0.004379  -0.003206  -0.000957   0.000059
     9  H    0.346306  -0.019689  -0.002452   0.005795  -0.004568  -0.000112
    10  H    0.365780  -0.025928   0.000754  -0.003738   0.004074  -0.000149
    11  H    0.009018  -0.030261   0.324618   0.000840  -0.002236   0.003878
    12  H   -0.006296  -0.033452   0.330527   0.007020  -0.002458  -0.000434
    13  H   -0.004814  -0.027913   0.004066   0.322405   0.007511   0.000541
    14  H   -0.004738  -0.037613   0.006635   0.331708   0.000940   0.001715
    15  H    0.001383  -0.025056   0.000285   0.030888  -0.067148   0.332194
    16  H   -0.002131  -0.000299   0.002879   0.000286  -0.036600   0.004135
    17  H   -0.000104   0.008103  -0.000404  -0.000123  -0.013410   0.004147
               7          8          9         10         11         12
     1  C    0.001537   0.374865   0.346306   0.365780   0.009018  -0.006296
     2  C   -0.096114  -0.026048  -0.019689  -0.025928  -0.030261  -0.033452
     3  N   -0.000514   0.004379  -0.002452   0.000754   0.324618   0.330527
     4  N    0.003141  -0.003206   0.005795  -0.003738   0.000840   0.007020
     5  C    0.296101  -0.000957  -0.004568   0.004074  -0.002236  -0.002458
     6  N   -0.095861   0.000059  -0.000112  -0.000149   0.003878  -0.000434
     7  N    6.824100   0.000366   0.001677   0.000187  -0.000490   0.002878
     8  H    0.000366   0.589352  -0.028514  -0.028453  -0.000262  -0.000146
     9  H    0.001677  -0.028514   0.638864  -0.028016  -0.000248   0.002304
    10  H    0.000187  -0.028453  -0.028016   0.600746  -0.000187  -0.000521
    11  H   -0.000490  -0.000262  -0.000248  -0.000187   0.476054  -0.031334
    12  H    0.002878  -0.000146   0.002304  -0.000521  -0.031334   0.499852
    13  H   -0.000151   0.000064  -0.000038   0.004231  -0.001401  -0.000246
    14  H   -0.000136   0.003909   0.000101   0.000188  -0.000402  -0.000332
    15  H    0.009316  -0.000029  -0.000061  -0.000045   0.001218   0.000045
    16  H    0.338550  -0.000188   0.002038  -0.000284   0.000001   0.003369
    17  H    0.324631  -0.000047   0.000017   0.000008  -0.000058  -0.000051
              13         14         15         16         17
     1  C   -0.004814  -0.004738   0.001383  -0.002131  -0.000104
     2  C   -0.027913  -0.037613  -0.025056  -0.000299   0.008103
     3  N    0.004066   0.006635   0.000285   0.002879  -0.000404
     4  N    0.322405   0.331708   0.030888   0.000286  -0.000123
     5  C    0.007511   0.000940  -0.067148  -0.036600  -0.013410
     6  N    0.000541   0.001715   0.332194   0.004135   0.004147
     7  N   -0.000151  -0.000136   0.009316   0.338550   0.324631
     8  H    0.000064   0.003909  -0.000029  -0.000188  -0.000047
     9  H   -0.000038   0.000101  -0.000061   0.002038   0.000017
    10  H    0.004231   0.000188  -0.000045  -0.000284   0.000008
    11  H   -0.001401  -0.000402   0.001218   0.000001  -0.000058
    12  H   -0.000246  -0.000332   0.000045   0.003369  -0.000051
    13  H    0.470661  -0.025403  -0.000606  -0.000015   0.000005
    14  H   -0.025403   0.481237  -0.002352  -0.000005   0.000001
    15  H   -0.000606  -0.002352   0.482054  -0.000309  -0.000660
    16  H   -0.000015  -0.000005  -0.000309   0.472671  -0.029408
    17  H    0.000005   0.000001  -0.000660  -0.029408   0.438965
 Mulliken charges:
               1
     1  C   -0.296151
     2  C    0.170780
     3  N   -0.571843
     4  N   -0.593571
     5  C    0.451686
     6  N   -0.593252
     7  N   -0.609217
     8  H    0.114856
     9  H    0.086596
    10  H    0.111352
    11  H    0.251252
    12  H    0.229275
    13  H    0.251102
    14  H    0.244549
    15  H    0.238884
    16  H    0.245313
    17  H    0.268389
 Sum of Mulliken charges =  -0.00000
 Mulliken charges with hydrogens summed into heavy atoms:
               1
     1  C    0.016653
     2  C    0.170780
     3  N   -0.091316
     4  N   -0.097920
     5  C    0.451686
     6  N   -0.354367
     7  N   -0.095516
 Electronic spatial extent (au):  <R**2>=            750.5712
 Charge=             -0.0000 electrons
 Dipole moment (field-independent basis, Debye):
    X=             -1.4565    Y=             -2.4430    Z=              0.4165  Tot=              2.8746
 Quadrupole moment (field-independent basis, Debye-Ang):
   XX=            -46.4873   YY=            -42.4796   ZZ=            -40.7418
   XY=             -6.0414   XZ=              5.0155   YZ=             -3.2630
 Traceless Quadrupole moment (field-independent basis, Debye-Ang):
   XX=             -3.2511   YY=              0.7567   ZZ=              2.4944
   XY=             -6.0414   XZ=              5.0155   YZ=             -3.2630
 Octapole moment (field-independent basis, Debye-Ang**2):
  XXX=             -2.7665  YYY=             -7.2485  ZZZ=              5.3109  XYY=             -2.3552
  XXY=             -9.0414  XXZ=             -1.8927  XZZ=             -1.2063  YZZ=              3.0517
  YYZ=              4.0540  XYZ=             -1.2570
 Hexadecapole moment (field-independent basis, Debye-Ang**3):
 XXXX=           -431.7714 YYYY=           -300.0740 ZZZZ=           -164.8213 XXXY=            -54.4590
 XXXZ=             21.6141 YYYX=            -12.8067 YYYZ=            -16.1119 ZZZX=              4.7241
 ZZZY=             -7.8773 XXYY=           -134.4679 XXZZ=           -119.3040 YYZZ=            -76.1152
 XXYZ=             -6.2975 YYXZ=              5.5476 ZZXY=             -5.5229
 N-N= 3.321404159254D+02 E-N=-1.454013266918D+03  KE= 3.362388029755D+02
 No NMR shielding tensors so no spin-rotation constants.
 Leave Link  601 at Thu Sep  8 14:49:50 2022, MaxMem= 24159191040 cpu:        11.1
 (Enter /public/home/users/caep010/software/Gaussian09/g09/l701.exe)
 Compute integral first derivatives.
 ... and contract with generalized density number  0.
 Leave Link  701 at Thu Sep  8 14:49:50 2022, MaxMem= 24159191040 cpu:        10.3
 (Enter /public/home/users/caep010/software/Gaussian09/g09/l702.exe)
 L702 exits ... SP integral derivatives will be done elsewhere.
 Leave Link  702 at Thu Sep  8 14:49:50 2022, MaxMem= 24159191040 cpu:         0.5
 (Enter /public/home/users/caep010/software/Gaussian09/g09/l703.exe)
 Compute integral first derivatives, UseDBF=F ICtDFT=           0.
 Integral derivatives from FoFJK, PRISM(SPDF).
 Calling FoFJK, ICntrl=      2127 FMM=F ISym2X=0 I1Cent= 0 IOpClX= 0 NMat=1 NMatS=1 NMatT=0.
 FoFJK:  IHMeth= 1 ICntrl=    2127 DoSepK=F KAlg= 0 I1Cent=   0 FoldK=F
 IRaf=         0 NMat=   1 IRICut=       1 DoRegI=T DoRafI=F ISym2E= 0.
 FoFCou: FMM=F IPFlag=           0 FMFlag=      100000 FMFlg1=         800
         NFxFlg=           0 DoJE=F BraDBF=F KetDBF=F FulRan=T
         wScrn=  0.000000 ICntrl=    2127 IOpCl=  0 I1Cent=           0 NGrid=           0
         NMat0=    1 NMatS0=      1 NMatT0=    0 NMatD0=    1 NMtDS0=    0 NMtDT0=    0
 Symmetry not used in FoFCou.
 Leave Link  703 at Thu Sep  8 14:49:51 2022, MaxMem= 24159191040 cpu:        14.5
 (Enter /public/home/users/caep010/software/Gaussian09/g09/l716.exe)
 Dipole        =-5.73041562D-01-9.61152618D-01 1.63854307D-01
 ***** Axes restored to original set *****
 -------------------------------------------------------------------
 Center     Atomic                   Forces (Hartrees/Bohr)
 Number     Number              X              Y              Z
 -------------------------------------------------------------------
      1        6          -0.000387865   -0.000021391   -0.000082610
      2        6          -0.000844962   -0.000406193    0.000401567
      3        7          -0.001044852    0.000420763    0.000040837
      4        7           0.001297373    0.000029442    0.000436384
      5        6          -0.002568483   -0.000995066   -0.000646887
      6        7           0.004196164    0.002100482   -0.000025348
      7        7           0.000117156   -0.000658912   -0.000913932
      8        1           0.000001313   -0.000038692   -0.000156404
      9        1          -0.000032872   -0.000133658   -0.000062634
     10        1          -0.000083312   -0.000002885    0.000055577
     11        1           0.000663656    0.000812597    0.000774957
     12        1           0.000104182   -0.001416403   -0.000145957
     13        1          -0.000995515   -0.000135676    0.000772774
     14        1          -0.000013253    0.000576759   -0.001374167
     15        1          -0.001021547    0.000989054    0.000724781
     16        1          -0.000655661   -0.001377893    0.000511867
     17        1           0.001268479    0.000257671   -0.000310805
 -------------------------------------------------------------------
 Cartesian Forces:  Max     0.004196164 RMS     0.000992009
 Leave Link  716 at Thu Sep  8 14:49:51 2022, MaxMem= 24159191040 cpu:         0.7
 (Enter /public/home/users/caep010/software/Gaussian09/g09/l103.exe)

 GradGradGradGradGradGradGradGradGradGradGradGradGradGradGradGradGradGrad
 Berny optimization.
 FormGI is forming the generalized inverse of G from B-inverse, IUseBI=4.
 Internal  Forces:  Max     0.004451369 RMS     0.000767544
 Search for a local minimum.
 Step number   1 out of a maximum of   84
 All quantities printed in internal units (Hartrees-Bohrs-Radians)
 RMS Force = .76754D-03 SwitMx=.10000D-02 MixMth= 2
 Mixed Optimization -- En-DIIS/RFO-DIIS
 Second derivative matrix not updated -- first step.
 ITU=  0
     Eigenvalues ---    0.00230   0.00249   0.00738   0.00853   0.01299
     Eigenvalues ---    0.01865   0.03347   0.04121   0.04342   0.04478
     Eigenvalues ---    0.05029   0.05295   0.05634   0.05799   0.07545
     Eigenvalues ---    0.15910   0.16000   0.16000   0.16000   0.16000
     Eigenvalues ---    0.16000   0.16000   0.16000   0.16000   0.16000
     Eigenvalues ---    0.16000   0.16833   0.25000   0.25000   0.27425
     Eigenvalues ---    0.28600   0.34252   0.34394   0.34403   0.35492
     Eigenvalues ---    0.36539   0.44283   0.44827   0.45047   0.45069
     Eigenvalues ---    0.45113   0.45891   0.46427   0.47862   0.74676
 RFO step:  Lambda=-1.30848165D-04 EMin= 2.30000000D-03
 Linear search not attempted -- first point.
 Iteration  1 RMS(Cart)=  0.02459974 RMS(Int)=  0.00018200
 Iteration  2 RMS(Cart)=  0.00030735 RMS(Int)=  0.00000488
 Iteration  3 RMS(Cart)=  0.00000003 RMS(Int)=  0.00000488
 ITry= 1 IFail=0 DXMaxC= 1.07D-01 DCOld= 1.00D+10 DXMaxT= 3.00D-01 DXLimC= 3.00D+00 Rises=F
 Variable       Old X    -DE/DX   Delta X   Delta X   Delta X     New X
                                 (Linear)    (Quad)   (Total)
    R1        2.90844   0.00056   0.00000   0.00196   0.00196   2.91040
    R2        2.06655   0.00013   0.00000   0.00038   0.00038   2.06693
    R3        2.06908   0.00013   0.00000   0.00037   0.00037   2.06945
    R4        2.06670   0.00009   0.00000   0.00027   0.00027   2.06697
    R5        2.78183   0.00071   0.00000   0.00199   0.00199   2.78383
    R6        2.76548   0.00035   0.00000   0.00096   0.00096   2.76644
    R7        2.93413   0.00147   0.00000   0.00537   0.00537   2.93950
    R8        1.92177   0.00126   0.00000   0.00280   0.00280   1.92457
    R9        1.91844   0.00142   0.00000   0.00314   0.00314   1.92158
   R10        1.91896   0.00124   0.00000   0.00276   0.00276   1.92172
   R11        1.91921   0.00147   0.00000   0.00327   0.00327   1.92247
   R12        2.40921   0.00445   0.00000   0.00596   0.00596   2.41517
   R13        2.62086   0.00204   0.00000   0.00425   0.00425   2.62512
   R14        1.92818   0.00156   0.00000   0.00351   0.00351   1.93169
   R15        1.90353   0.00160   0.00000   0.00345   0.00345   1.90698
   R16        1.90955   0.00127   0.00000   0.00277   0.00277   1.91232
    A1        1.92877   0.00009   0.00000   0.00060   0.00060   1.92937
    A2        1.97464   0.00010   0.00000   0.00053   0.00053   1.97517
    A3        1.90151  -0.00004   0.00000  -0.00026  -0.00026   1.90124
    A4        1.87371  -0.00010   0.00000  -0.00066  -0.00066   1.87304
    A5        1.90525  -0.00001   0.00000   0.00011   0.00011   1.90536
    A6        1.87835  -0.00004   0.00000  -0.00034  -0.00034   1.87801
    A7        1.88860  -0.00023   0.00000   0.00026   0.00025   1.88886
    A8        1.96574   0.00008   0.00000  -0.00082  -0.00081   1.96493
    A9        1.95780   0.00028   0.00000   0.00226   0.00225   1.96006
   A10        1.82891   0.00011   0.00000  -0.00015  -0.00015   1.82876
   A11        1.94399   0.00024   0.00000   0.00303   0.00302   1.94701
   A12        1.87531  -0.00047   0.00000  -0.00466  -0.00466   1.87065
   A13        1.89439  -0.00008   0.00000   0.00043   0.00042   1.89481
   A14        1.93281  -0.00000   0.00000   0.00091   0.00091   1.93372
   A15        1.86845   0.00021   0.00000   0.00326   0.00326   1.87171
   A16        1.88489  -0.00019   0.00000  -0.00089  -0.00089   1.88400
   A17        1.92573  -0.00018   0.00000  -0.00086  -0.00086   1.92487
   A18        1.88431   0.00024   0.00000   0.00213   0.00213   1.88644
   A19        2.18315  -0.00036   0.00000  -0.00146  -0.00148   2.18168
   A20        2.01391   0.00056   0.00000   0.00223   0.00221   2.01612
   A21        2.08612  -0.00020   0.00000  -0.00082  -0.00084   2.08528
   A22        1.89436  -0.00069   0.00000  -0.00433  -0.00433   1.89002
   A23        2.05377   0.00017   0.00000   0.00163   0.00163   2.05540
   A24        1.97029  -0.00030   0.00000  -0.00129  -0.00129   1.96901
   A25        1.98488   0.00018   0.00000   0.00191   0.00190   1.98679
    D1        3.12408  -0.00009   0.00000   0.00122   0.00122   3.12530
    D2        1.11073  -0.00011   0.00000   0.00170   0.00170   1.11243
    D3       -1.00770   0.00024   0.00000   0.00673   0.00673  -1.00097
    D4       -1.05752  -0.00009   0.00000   0.00116   0.00116  -1.05636
    D5       -3.07087  -0.00012   0.00000   0.00164   0.00164  -3.06924
    D6        1.09388   0.00024   0.00000   0.00667   0.00667   1.10055
    D7        1.03086  -0.00010   0.00000   0.00088   0.00089   1.03175
    D8       -0.98249  -0.00013   0.00000   0.00136   0.00136  -0.98113
    D9       -3.10092   0.00023   0.00000   0.00639   0.00639  -3.09453
   D10        3.05816   0.00024   0.00000   0.00836   0.00836   3.06653
   D11        1.01187   0.00003   0.00000   0.00363   0.00363   1.01550
   D12       -1.12396   0.00027   0.00000   0.00746   0.00746  -1.11649
   D13        3.11294   0.00006   0.00000   0.00273   0.00273   3.11567
   D14        0.89842  -0.00011   0.00000   0.00335   0.00335   0.90177
   D15       -1.14787  -0.00032   0.00000  -0.00138  -0.00138  -1.14925
   D16        1.15464  -0.00002   0.00000   0.00400   0.00400   1.15864
   D17       -0.90117  -0.00009   0.00000   0.00244   0.00244  -0.89874
   D18       -0.89437   0.00016   0.00000   0.00420   0.00420  -0.89017
   D19       -2.95018   0.00009   0.00000   0.00264   0.00264  -2.94755
   D20       -2.96381   0.00005   0.00000   0.00299   0.00299  -2.96082
   D21        1.26356  -0.00002   0.00000   0.00143   0.00143   1.26500
   D22        2.46805   0.00013   0.00000   0.04159   0.04159   2.50964
   D23       -0.67723  -0.00003   0.00000   0.02947   0.02947  -0.64776
   D24       -1.69520   0.00020   0.00000   0.04570   0.04571  -1.64949
   D25        1.44271   0.00004   0.00000   0.03358   0.03359   1.47630
   D26        0.29849   0.00018   0.00000   0.04444   0.04444   0.34293
   D27       -2.84679   0.00002   0.00000   0.03232   0.03231  -2.81447
   D28       -0.06173   0.00002   0.00000  -0.00327  -0.00326  -0.06499
   D29        3.08369   0.00018   0.00000   0.00931   0.00930   3.09299
   D30       -0.50378  -0.00002   0.00000  -0.00163  -0.00163  -0.50541
   D31       -2.87056  -0.00016   0.00000  -0.00503  -0.00502  -2.87558
   D32        2.63435  -0.00017   0.00000  -0.01303  -0.01304   2.62131
   D33        0.26757  -0.00031   0.00000  -0.01643  -0.01643   0.25113
         Item               Value     Threshold  Converged?
 Maximum Force            0.004451     0.000450     NO 
 RMS     Force            0.000768     0.000300     NO 
 Maximum Displacement     0.107286     0.001800     NO 
 RMS     Displacement     0.024611     0.001200     NO 
 Predicted change in Energy=-6.609342D-05
 Lowest energy point so far.  Saving SCF results.
 GradGradGradGradGradGradGradGradGradGradGradGradGradGradGradGradGradGrad

 Leave Link  103 at Thu Sep  8 14:49:51 2022, MaxMem= 24159191040 cpu:         3.9
 (Enter /public/home/users/caep010/software/Gaussian09/g09/l202.exe)
                          Input orientation:                          
 ---------------------------------------------------------------------
 Center     Atomic      Atomic             Coordinates (Angstroms)
 Number     Number       Type             X           Y           Z
 ---------------------------------------------------------------------
      1          6           0       -1.280526   -0.564792   -0.738506
      2          6           0       -0.331954    0.179726    0.219549
      3          7           0       -0.459580   -0.425275    1.556642
      4          7           0       -0.708691    1.581937    0.406584
      5          6           0        1.141979    0.162312   -0.277286
      6          7           0        1.972068    1.124859   -0.143593
      7          7           0        1.552572   -1.014129   -0.891402
      8          1           0       -1.228067   -0.133809   -1.742420
      9          1           0       -1.050908   -1.631692   -0.829374
     10          1           0       -2.304224   -0.477560   -0.363247
     11          1           0        0.216972    0.014987    2.177663
     12          1           0       -0.239698   -1.417610    1.526341
     13          1           0       -1.602058    1.604292    0.891909
     14          1           0       -0.827426    2.038522   -0.494744
     15          1           0        1.482144    1.914055    0.283077
     16          1           0        1.108626   -1.873826   -0.604735
     17          1           0        2.558669   -1.081996   -0.976358
 ---------------------------------------------------------------------
                    Distance matrix (angstroms):
                    1          2          3          4          5
     1  C    0.000000
     2  C    1.540118   0.000000
     3  N    2.441541   1.473137   0.000000
     4  N    2.499334   1.463936   2.326712   0.000000
     5  C    2.570979   1.555515   2.504704   2.430636   0.000000
     6  N    3.713248   2.516678   3.347630   2.774542   1.278052
     7  N    2.872582   2.492176   3.223109   3.679353   1.389151
     8  H    1.093775   2.179598   3.399903   2.798527   2.802039
     9  H    1.095105   2.213226   2.738282   3.460074   2.886521
    10  H    1.093794   2.159056   2.662972   2.716595   3.506157
    11  H    3.329067   2.040262   1.018440   2.539470   2.627569
    12  H    2.634417   2.065841   1.016856   3.235907   2.767356
    13  H    2.732501   2.023517   2.422038   1.016929   3.313014
    14  H    2.653670   2.052030   3.227040   1.017330   2.728737
    15  H    3.849761   2.510555   3.296168   2.219305   1.870380
    16  H    2.727547   2.640415   3.037948   4.033325   2.062570
    17  H    3.881171   3.373105   3.994646   4.436745   2.010973
                    6          7          8          9         10
     6  N    0.000000
     7  N    2.304445   0.000000
     8  H    3.792276   3.038281   0.000000
     9  H    4.148162   2.676441   1.763148   0.000000
    10  H    4.571943   3.929597   1.782806   1.766379   0.000000
    11  H    3.114548   3.501724   4.180590   3.655317   3.613206
    12  H    3.760949   3.036530   3.648263   2.500657   2.952373
    13  H    3.751866   4.470797   3.178138   3.706504   2.530328
    14  H    2.965680   3.891068   2.536973   3.692207   2.920426
    15  H    1.022205   3.155729   3.954950   4.497357   4.524835
    16  H    3.154409   1.009131   3.127638   2.184646   3.695324
    17  H    2.430598   1.011955   3.978100   3.654150   4.938519
                   11         12         13         14         15
    11  H    0.000000
    12  H    1.638629   0.000000
    13  H    2.736407   3.374970   0.000000
    14  H    3.511015   4.046611   1.646638   0.000000
    15  H    2.965902   3.951005   3.158945   2.440207   0.000000
    16  H    3.479138   2.562732   4.656722   4.366562   3.908423
    17  H    4.078573   3.769216   5.293223   4.629819   3.423654
                   16         17
    16  H    0.000000
    17  H    1.693435   0.000000
 Stoichiometry    C3H10N4
 Framework group  C1[X(C3H10N4)]
 Deg. of freedom    45
 Full point group                 C1      NOp   1
 RotChk:  IX=0 Diff= 3.98D-02
 Largest Abelian subgroup         C1      NOp   1
 Largest concise Abelian subgroup C1      NOp   1
                         Standard orientation:                         
 ---------------------------------------------------------------------
 Center     Atomic      Atomic             Coordinates (Angstroms)
 Number     Number       Type             X           Y           Z
 ---------------------------------------------------------------------
      1          6           0       -1.078957   -1.207004   -0.808367
      2          6           0       -0.578530   -0.003034    0.011387
      3          7           0       -1.045150   -0.164756    1.399279
      4          7           0       -1.163657    1.262721   -0.434257
      5          6           0        0.967313    0.156108   -0.056943
      6          7           0        1.588801    1.272522   -0.085024
      7          7           0        1.690998   -1.029595   -0.068365
      8          1           0       -0.766583   -1.116798   -1.852698
      9          1           0       -0.703615   -2.166632   -0.437575
     10          1           0       -2.171294   -1.238749   -0.761684
     11          1           0       -0.657525    0.590599    1.961779
     12          1           0       -0.707151   -1.038687    1.794244
     13          1           0       -2.159986    1.235583   -0.232425
     14          1           0       -1.047831    1.370402   -1.439219
     15          1           0        0.896807    2.024161   -0.118011
     16          1           0        1.288188   -1.830682    0.394614
     17          1           0        2.673086   -0.891861    0.133091
 ---------------------------------------------------------------------
 Rotational constants (GHZ):      3.3632262      2.3742504      1.9454868
 Leave Link  202 at Thu Sep  8 14:49:51 2022, MaxMem= 24159191040 cpu:         0.3
 (Enter /public/home/users/caep010/software/Gaussian09/g09/l301.exe)
 Standard basis: 6-31G(d,p) (6D, 7F)
 Ernie: Thresh=  0.10000D-02 Tol=  0.10000D-05 Strict=F.
 There are   155 symmetry adapted cartesian basis functions of A   symmetry.
 There are   155 symmetry adapted basis functions of A   symmetry.
   155 basis functions,   266 primitive gaussians,   155 cartesian basis functions
    28 alpha electrons       28 beta electrons
       nuclear repulsion energy       331.7034620148 Hartrees.
 IExCor=  402 DFT=T Ex+Corr=B3LYP ExCW=0 ScaHFX=  0.200000
 ScaDFX=  0.800000  0.720000  1.000000  0.810000 ScalE2=  1.000000  1.000000
 IRadAn=      0 IRanWt=     -1 IRanGd=            0 ICorTp=0 IEmpDi=  4
 NAtoms=   17 NActive=   17 NUniq=   17 SFac= 1.00D+00 NAtFMM=   60 NAOKFM=F Big=F
 Integral buffers will be    131072 words long.
 Raffenetti 2 integral format.
 Two-electron integral symmetry is turned on.
 Leave Link  301 at Thu Sep  8 14:49:51 2022, MaxMem= 24159191040 cpu:         1.7
 (Enter /public/home/users/caep010/software/Gaussian09/g09/l302.exe)
 NPDir=0 NMtPBC=     1 NCelOv=     1 NCel=       1 NClECP=     1 NCelD=      1
         NCelK=      1 NCelE2=     1 NClLst=     1 CellRange=     0.0.
 One-electron integrals computed using PRISM.
 NBasis=   155 RedAO= T EigKep=  2.28D-03  NBF=   155
 NBsUse=   155 1.00D-06 EigRej= -1.00D+00 NBFU=   155
 Precomputing XC quadrature grid using
 IXCGrd= 4 IRadAn=           0 IRanWt=          -1 IRanGd=           0 AccXCQ= 0.00D+00.
 Generated NRdTot=       0 NPtTot=           0 NUsed=           0 NTot=          32
 NSgBfM=   155   155   155   155   155 MxSgAt=    17 MxSgA2=    17.
 Leave Link  302 at Thu Sep  8 14:49:52 2022, MaxMem= 24159191040 cpu:        13.4
 (Enter /public/home/users/caep010/software/Gaussian09/g09/l303.exe)
 DipDrv:  MaxL=1.
 Leave Link  303 at Thu Sep  8 14:49:52 2022, MaxMem= 24159191040 cpu:         0.7
 (Enter /public/home/users/caep010/software/Gaussian09/g09/l401.exe)
 Initial guess from the checkpoint file:  "B3LYP6-31Gdp.Frag_1005.chk"
 B after Tr=     0.000000   -0.000000   -0.000000
         Rot=    0.999910    0.013298    0.001207    0.001400 Ang=   1.54 deg.
 Guess basis will be translated and rotated to current coordinates.
 JPrj=2 DoOrth=T DoCkMO=T.
 Generating alternative initial guess.
 ExpMin= 1.61D-01 ExpMax= 4.17D+03 ExpMxC= 6.27D+02 IAcc=1 IRadAn=         1 AccDes= 0.00D+00
 Harris functional with IExCor=  402 and IRadAn=       1 diagonalized for initial guess.
 HarFok:  IExCor=  402 AccDes= 0.00D+00 IRadAn=         1 IDoV= 1 UseB2=F ITyADJ=14
 ICtDFT=  3500011 ScaDFX=  1.000000  1.000000  1.000000  1.000000
 FoFCou: FMM=F IPFlag=           0 FMFlag=      100000 FMFlg1=           0
         NFxFlg=           0 DoJE=T BraDBF=F KetDBF=T FulRan=T
         wScrn=  0.000000 ICntrl=     500 IOpCl=  0 I1Cent=   200000004 NGrid=           0
         NMat0=    1 NMatS0=      1 NMatT0=    0 NMatD0=    1 NMtDS0=    0 NMtDT0=    0
 Petite list used in FoFCou.
 Harris En= -339.373927467037    
 Leave Link  401 at Thu Sep  8 14:49:52 2022, MaxMem= 24159191040 cpu:        12.1
 (Enter /public/home/users/caep010/software/Gaussian09/g09/l502.exe)
 Closed shell SCF:
 Using DIIS extrapolation, IDIIS=  1040.
 Integral symmetry usage will be decided dynamically.
 Keep R1 ints in memory in canonical form, NReq=75084987.
 IVT=       96762 IEndB=       96762 NGot= 24159191040 MDV= 24086004184
 LenX= 24086004184 LenY= 24085979718
 Requested convergence on RMS density matrix=1.00D-08 within 128 cycles.
 Requested convergence on MAX density matrix=1.00D-06.
 Requested convergence on             energy=1.00D-06.
 No special actions if energy rises.
 FoFCou: FMM=F IPFlag=           0 FMFlag=           0 FMFlg1=           0
         NFxFlg=           0 DoJE=F BraDBF=F KetDBF=F FulRan=T
         wScrn=  0.000000 ICntrl=     600 IOpCl=  0 I1Cent=           0 NGrid=           0
         NMat0=    1 NMatS0=  12090 NMatT0=    0 NMatD0=    1 NMtDS0=    0 NMtDT0=    0
 Symmetry not used in FoFCou.
 Integral accuracy reduced to 1.0D-05 until final iterations.

 Cycle   1  Pass 0  IDiag  1:
 E= -339.351472135882    
 DIIS: error= 1.36D-03 at cycle   1 NSaved=   1.
 NSaved= 1 IEnMin= 1 EnMin= -339.351472135882     IErMin= 1 ErrMin= 1.36D-03
 ErrMax= 1.36D-03  0.00D+00 EMaxC= 1.00D-01 BMatC= 4.42D-04 BMatP= 4.42D-04
 IDIUse=3 WtCom= 9.86D-01 WtEn= 1.36D-02
 Coeff-Com:  0.100D+01
 Coeff-En:   0.100D+01
 Coeff:      0.100D+01
 Gap=     1.660 Goal=   None    Shift=    0.000
 GapD=    1.660 DampG=2.000 DampE=1.000 DampFc=2.0000 IDamp=-1.
 RMSDP=2.65D-04 MaxDP=7.17D-03              OVMax= 1.02D-02

 Cycle   2  Pass 0  IDiag  1:
 E= -339.352360922354     Delta-E=       -0.000888786473 Rises=F Damp=F
 DIIS: error= 1.98D-04 at cycle   2 NSaved=   2.
 NSaved= 2 IEnMin= 2 EnMin= -339.352360922354     IErMin= 2 ErrMin= 1.98D-04
 ErrMax= 1.98D-04  0.00D+00 EMaxC= 1.00D-01 BMatC= 8.69D-06 BMatP= 4.42D-04
 IDIUse=3 WtCom= 9.98D-01 WtEn= 1.98D-03
 Coeff-Com: -0.605D-01 0.106D+01
 Coeff-En:   0.000D+00 0.100D+01
 Coeff:     -0.603D-01 0.106D+01
 Gap=     0.264 Goal=   None    Shift=    0.000
 RMSDP=3.98D-05 MaxDP=1.08D-03 DE=-8.89D-04 OVMax= 1.47D-03

 Cycle   3  Pass 0  IDiag  1:
 E= -339.352369262034     Delta-E=       -0.000008339680 Rises=F Damp=F
 DIIS: error= 2.13D-04 at cycle   3 NSaved=   3.
 NSaved= 3 IEnMin= 3 EnMin= -339.352369262034     IErMin= 2 ErrMin= 1.98D-04
 ErrMax= 2.13D-04  0.00D+00 EMaxC= 1.00D-01 BMatC= 7.30D-06 BMatP= 8.69D-06
 IDIUse=3 WtCom= 9.98D-01 WtEn= 2.13D-03
 Coeff-Com: -0.437D-01 0.539D+00 0.505D+00
 Coeff-En:   0.000D+00 0.351D-01 0.965D+00
 Coeff:     -0.436D-01 0.537D+00 0.506D+00
 Gap=     0.264 Goal=   None    Shift=    0.000
 RMSDP=1.81D-05 MaxDP=8.03D-04 DE=-8.34D-06 OVMax= 8.91D-04

 Cycle   4  Pass 0  IDiag  1:
 E= -339.352375071321     Delta-E=       -0.000005809287 Rises=F Damp=F
 DIIS: error= 5.88D-05 at cycle   4 NSaved=   4.
 NSaved= 4 IEnMin= 4 EnMin= -339.352375071321     IErMin= 4 ErrMin= 5.88D-05
 ErrMax= 5.88D-05  0.00D+00 EMaxC= 1.00D-01 BMatC= 6.50D-07 BMatP= 7.30D-06
 IDIUse=1 WtCom= 1.00D+00 WtEn= 0.00D+00
 Coeff-Com: -0.167D-01 0.187D+00 0.268D+00 0.561D+00
 Coeff:     -0.167D-01 0.187D+00 0.268D+00 0.561D+00
 Gap=     0.264 Goal=   None    Shift=    0.000
 RMSDP=6.39D-06 MaxDP=2.58D-04 DE=-5.81D-06 OVMax= 3.79D-04

 Initial convergence to 1.0D-05 achieved.  Increase integral accuracy.
 Cycle   5  Pass 1  IDiag  1:
 E= -339.352286436177     Delta-E=        0.000088635144 Rises=F Damp=F
 DIIS: error= 2.19D-05 at cycle   1 NSaved=   1.
 NSaved= 1 IEnMin= 1 EnMin= -339.352286436177     IErMin= 1 ErrMin= 2.19D-05
 ErrMax= 2.19D-05  0.00D+00 EMaxC= 1.00D-01 BMatC= 1.84D-07 BMatP= 1.84D-07
 IDIUse=1 WtCom= 1.00D+00 WtEn= 0.00D+00
 Coeff-Com:  0.100D+01
 Coeff:      0.100D+01
 Gap=     0.264 Goal=   None    Shift=    0.000
 RMSDP=6.39D-06 MaxDP=2.58D-04 DE= 8.86D-05 OVMax= 4.15D-04

 Cycle   6  Pass 1  IDiag  1:
 E= -339.352286051387     Delta-E=        0.000000384790 Rises=F Damp=F
 DIIS: error= 5.01D-05 at cycle   2 NSaved=   2.
 NSaved= 2 IEnMin= 1 EnMin= -339.352286436177     IErMin= 1 ErrMin= 2.19D-05
 ErrMax= 5.01D-05  0.00D+00 EMaxC= 1.00D-01 BMatC= 6.40D-07 BMatP= 1.84D-07
 IDIUse=1 WtCom= 1.00D+00 WtEn= 0.00D+00
 Coeff-Com:  0.660D+00 0.340D+00
 Coeff:      0.660D+00 0.340D+00
 Gap=     0.264 Goal=   None    Shift=    0.000
 RMSDP=5.10D-06 MaxDP=2.27D-04 DE= 3.85D-07 OVMax= 3.01D-04

 Cycle   7  Pass 1  IDiag  1:
 E= -339.352286616140     Delta-E=       -0.000000564753 Rises=F Damp=F
 DIIS: error= 5.11D-06 at cycle   3 NSaved=   3.
 NSaved= 3 IEnMin= 3 EnMin= -339.352286616140     IErMin= 3 ErrMin= 5.11D-06
 ErrMax= 5.11D-06  0.00D+00 EMaxC= 1.00D-01 BMatC= 5.82D-09 BMatP= 1.84D-07
 IDIUse=1 WtCom= 1.00D+00 WtEn= 0.00D+00
 Coeff-Com:  0.120D+00 0.107D+00 0.773D+00
 Coeff:      0.120D+00 0.107D+00 0.773D+00
 Gap=     0.264 Goal=   None    Shift=    0.000
 RMSDP=7.36D-07 MaxDP=1.98D-05 DE=-5.65D-07 OVMax= 2.63D-05

 Cycle   8  Pass 1  IDiag  1:
 E= -339.352286619798     Delta-E=       -0.000000003658 Rises=F Damp=F
 DIIS: error= 3.29D-06 at cycle   4 NSaved=   4.
 NSaved= 4 IEnMin= 4 EnMin= -339.352286619798     IErMin= 4 ErrMin= 3.29D-06
 ErrMax= 3.29D-06  0.00D+00 EMaxC= 1.00D-01 BMatC= 1.86D-09 BMatP= 5.82D-09
 IDIUse=1 WtCom= 1.00D+00 WtEn= 0.00D+00
 Coeff-Com: -0.160D-01 0.149D-01 0.415D+00 0.587D+00
 Coeff:     -0.160D-01 0.149D-01 0.415D+00 0.587D+00
 Gap=     0.264 Goal=   None    Shift=    0.000
 RMSDP=3.11D-07 MaxDP=8.55D-06 DE=-3.66D-09 OVMax= 7.83D-06

 Cycle   9  Pass 1  IDiag  1:
 E= -339.352286621519     Delta-E=       -0.000000001722 Rises=F Damp=F
 DIIS: error= 1.88D-07 at cycle   5 NSaved=   5.
 NSaved= 5 IEnMin= 5 EnMin= -339.352286621519     IErMin= 5 ErrMin= 1.88D-07
 ErrMax= 1.88D-07  0.00D+00 EMaxC= 1.00D-01 BMatC= 1.20D-11 BMatP= 1.86D-09
 IDIUse=1 WtCom= 1.00D+00 WtEn= 0.00D+00
 Coeff-Com: -0.708D-02 0.392D-02 0.128D+00 0.202D+00 0.673D+00
 Coeff:     -0.708D-02 0.392D-02 0.128D+00 0.202D+00 0.673D+00
 Gap=     0.264 Goal=   None    Shift=    0.000
 RMSDP=2.99D-08 MaxDP=8.59D-07 DE=-1.72D-09 OVMax= 9.18D-07

 Cycle  10  Pass 1  IDiag  1:
 E= -339.352286621519     Delta-E=        0.000000000001 Rises=F Damp=F
 DIIS: error= 8.21D-08 at cycle   6 NSaved=   6.
 NSaved= 6 IEnMin= 5 EnMin= -339.352286621519     IErMin= 6 ErrMin= 8.21D-08
 ErrMax= 8.21D-08  0.00D+00 EMaxC= 1.00D-01 BMatC= 2.40D-12 BMatP= 1.20D-11
 IDIUse=1 WtCom= 1.00D+00 WtEn= 0.00D+00
 Coeff-Com: -0.139D-02 0.662D-03 0.190D-01 0.378D-01 0.328D+00 0.616D+00
 Coeff:     -0.139D-02 0.662D-03 0.190D-01 0.378D-01 0.328D+00 0.616D+00
 Gap=     0.264 Goal=   None    Shift=    0.000
 RMSDP=1.13D-08 MaxDP=3.23D-07 DE= 5.68D-13 OVMax= 5.54D-07

 Cycle  11  Pass 1  IDiag  1:
 E= -339.352286621529     Delta-E=       -0.000000000011 Rises=F Damp=F
 DIIS: error= 2.17D-08 at cycle   7 NSaved=   7.
 NSaved= 7 IEnMin= 7 EnMin= -339.352286621529     IErMin= 7 ErrMin= 2.17D-08
 ErrMax= 2.17D-08  0.00D+00 EMaxC= 1.00D-01 BMatC= 1.84D-13 BMatP= 2.40D-12
 IDIUse=1 WtCom= 1.00D+00 WtEn= 0.00D+00
 Coeff-Com: -0.133D-03-0.968D-04-0.228D-02-0.418D-04 0.809D-01 0.278D+00
 Coeff-Com:  0.644D+00
 Coeff:     -0.133D-03-0.968D-04-0.228D-02-0.418D-04 0.809D-01 0.278D+00
 Coeff:      0.644D+00
 Gap=     0.264 Goal=   None    Shift=    0.000
 RMSDP=3.43D-09 MaxDP=8.24D-08 DE=-1.07D-11 OVMax= 9.14D-08

 SCF Done:  E(RB3LYP) =  -339.352286622     A.U. after   11 cycles
            NFock= 11  Conv=0.34D-08     -V/T= 2.0094
 KE= 3.361942559056D+02 PE=-1.453117017758D+03 EE= 4.458670132159D+02
 Leave Link  502 at Thu Sep  8 14:49:56 2022, MaxMem= 24159191040 cpu:        57.4
 (Enter /public/home/users/caep010/software/Gaussian09/g09/l701.exe)
 Compute integral first derivatives.
 ... and contract with generalized density number  0.
 Leave Link  701 at Thu Sep  8 14:49:56 2022, MaxMem= 24159191040 cpu:        10.8
 (Enter /public/home/users/caep010/software/Gaussian09/g09/l702.exe)
 L702 exits ... SP integral derivatives will be done elsewhere.
 Leave Link  702 at Thu Sep  8 14:49:56 2022, MaxMem= 24159191040 cpu:         0.5
 (Enter /public/home/users/caep010/software/Gaussian09/g09/l703.exe)
 Compute integral first derivatives, UseDBF=F ICtDFT=           0.
 Integral derivatives from FoFJK, PRISM(SPDF).
 Calling FoFJK, ICntrl=      2127 FMM=F ISym2X=0 I1Cent= 0 IOpClX= 0 NMat=1 NMatS=1 NMatT=0.
 FoFJK:  IHMeth= 1 ICntrl=    2127 DoSepK=F KAlg= 0 I1Cent=   0 FoldK=F
 IRaf=         0 NMat=   1 IRICut=       1 DoRegI=T DoRafI=F ISym2E= 0.
 FoFCou: FMM=F IPFlag=           0 FMFlag=      100000 FMFlg1=         800
         NFxFlg=           0 DoJE=F BraDBF=F KetDBF=F FulRan=T
         wScrn=  0.000000 ICntrl=    2127 IOpCl=  0 I1Cent=           0 NGrid=           0
         NMat0=    1 NMatS0=      1 NMatT0=    0 NMatD0=    1 NMtDS0=    0 NMtDT0=    0
 Symmetry not used in FoFCou.
 Leave Link  703 at Thu Sep  8 14:49:57 2022, MaxMem= 24159191040 cpu:        15.4
 (Enter /public/home/users/caep010/software/Gaussian09/g09/l716.exe)
 Dipole        =-5.80411173D-01-9.68008047D-01 1.79555845D-01
 ***** Axes restored to original set *****
 -------------------------------------------------------------------
 Center     Atomic                   Forces (Hartrees/Bohr)
 Number     Number              X              Y              Z
 -------------------------------------------------------------------
      1        6           0.000011937    0.000184389    0.000139802
      2        6          -0.000309809   -0.000135351   -0.000035857
      3        7          -0.000153549    0.000095662   -0.000247969
      4        7           0.000114222    0.000262231    0.000172696
      5        6           0.000138868   -0.000918478    0.000660063
      6        7           0.000641492   -0.000120394    0.000288302
      7        7          -0.000108397    0.000103301   -0.000399178
      8        1           0.000013884   -0.000039130    0.000025947
      9        1          -0.000068907   -0.000122792    0.000067765
     10        1           0.000072932   -0.000047262    0.000043412
     11        1           0.000043570   -0.000030083   -0.000172307
     12        1           0.000175641    0.000064796   -0.000134772
     13        1          -0.000096431   -0.000032519   -0.000016318
     14        1           0.000166387    0.000033453    0.000075174
     15        1          -0.000625947    0.000336663   -0.000531694
     16        1           0.000009080    0.000176573    0.000013926
     17        1          -0.000024974    0.000188943    0.000051008
 -------------------------------------------------------------------
 Cartesian Forces:  Max     0.000918478 RMS     0.000257813
 Leave Link  716 at Thu Sep  8 14:49:57 2022, MaxMem= 24159191040 cpu:         0.8
 (Enter /public/home/users/caep010/software/Gaussian09/g09/l103.exe)

 GradGradGradGradGradGradGradGradGradGradGradGradGradGradGradGradGradGrad
 Berny optimization.
 Using GEDIIS/GDIIS optimizer.
 FormGI is forming the generalized inverse of G from B-inverse, IUseBI=4.
 Internal  Forces:  Max     0.000808051 RMS     0.000219041
 Search for a local minimum.
 Step number   2 out of a maximum of   84
 All quantities printed in internal units (Hartrees-Bohrs-Radians)
 RMS Force = .21904D-03 SwitMx=.10000D-02 MixMth= 2
 Mixed Optimization -- En-DIIS/RFO-DIIS
 Swapping is turned off.
 Update second derivatives using D2CorX and points    1    2
 DE= -5.27D-05 DEPred=-6.61D-05 R= 7.97D-01
 TightC=F SS=  1.41D+00  RLast= 1.00D-01 DXNew= 5.0454D-01 3.0011D-01
 Trust test= 7.97D-01 RLast= 1.00D-01 DXMaxT set to 3.00D-01
 ITU=  1  0
     Eigenvalues ---    0.00247   0.00301   0.00732   0.00866   0.01433
     Eigenvalues ---    0.01799   0.03582   0.04123   0.04457   0.04481
     Eigenvalues ---    0.05231   0.05346   0.05632   0.05777   0.07522
     Eigenvalues ---    0.14484   0.15912   0.16000   0.16000   0.16000
     Eigenvalues ---    0.16000   0.16000   0.16000   0.16000   0.16000
     Eigenvalues ---    0.16086   0.16656   0.24041   0.25021   0.27358
     Eigenvalues ---    0.28715   0.34228   0.34397   0.34408   0.35936
     Eigenvalues ---    0.36366   0.42422   0.44874   0.44932   0.45083
     Eigenvalues ---    0.45141   0.45864   0.46500   0.48218   0.71282
 En-DIIS/RFO-DIIS IScMMF=        0 using points:     2    1
 RFO step:  Lambda=-1.22449134D-05.
 NNeg= 0 NP= 2 Switch=  2.50D-03 Rises=F DC=  5.27D-05 SmlDif=  1.00D-05
 RMS Error=  0.9036146327D-03 NUsed= 2 EDIIS=F
 DidBck=T Rises=F RFO-DIIS coefs:    0.77945    0.22055
 Iteration  1 RMS(Cart)=  0.01811501 RMS(Int)=  0.00012696
 Iteration  2 RMS(Cart)=  0.00018314 RMS(Int)=  0.00000275
 Iteration  3 RMS(Cart)=  0.00000002 RMS(Int)=  0.00000275
 ITry= 1 IFail=0 DXMaxC= 8.03D-02 DCOld= 1.00D+10 DXMaxT= 3.00D-01 DXLimC= 3.00D+00 Rises=F
 Variable       Old X    -DE/DX   Delta X   Delta X   Delta X     New X
                                 (Linear)    (Quad)   (Total)
    R1        2.91040  -0.00018  -0.00043   0.00075   0.00032   2.91072
    R2        2.06693  -0.00003  -0.00008   0.00016   0.00008   2.06701
    R3        2.06945   0.00010  -0.00008   0.00046   0.00037   2.06982
    R4        2.06697  -0.00006  -0.00006   0.00004  -0.00002   2.06695
    R5        2.78383  -0.00056  -0.00044   0.00002  -0.00042   2.78340
    R6        2.76644   0.00024  -0.00021   0.00111   0.00089   2.76733
    R7        2.93950   0.00000  -0.00118   0.00338   0.00219   2.94169
    R8        1.92457  -0.00009  -0.00062   0.00159   0.00098   1.92555
    R9        1.92158  -0.00002  -0.00069   0.00193   0.00124   1.92282
   R10        1.92172   0.00008  -0.00061   0.00186   0.00125   1.92297
   R11        1.92247  -0.00007  -0.00072   0.00193   0.00121   1.92368
   R12        2.41517   0.00015  -0.00131   0.00389   0.00258   2.41775
   R13        2.62512  -0.00029  -0.00094   0.00220   0.00127   2.62638
   R14        1.93169   0.00034  -0.00077   0.00280   0.00202   1.93371
   R15        1.90698  -0.00015  -0.00076   0.00192   0.00116   1.90814
   R16        1.91232  -0.00004  -0.00061   0.00167   0.00106   1.91337
    A1        1.92937   0.00003  -0.00013   0.00078   0.00065   1.93002
    A2        1.97517   0.00003  -0.00012   0.00041   0.00029   1.97546
    A3        1.90124  -0.00006   0.00006  -0.00065  -0.00059   1.90065
    A4        1.87304   0.00000   0.00015  -0.00009   0.00005   1.87310
    A5        1.90536   0.00004  -0.00002   0.00044   0.00041   1.90577
    A6        1.87801  -0.00004   0.00008  -0.00090  -0.00083   1.87718
    A7        1.88886  -0.00017  -0.00006  -0.00069  -0.00074   1.88811
    A8        1.96493   0.00015   0.00018   0.00109   0.00127   1.96620
    A9        1.96006   0.00023  -0.00050   0.00286   0.00237   1.96243
   A10        1.82876   0.00008   0.00003  -0.00019  -0.00016   1.82860
   A11        1.94701  -0.00010  -0.00067   0.00052  -0.00015   1.94686
   A12        1.87065  -0.00021   0.00103  -0.00377  -0.00274   1.86790
   A13        1.89481  -0.00020  -0.00009  -0.00138  -0.00148   1.89333
   A14        1.93372  -0.00029  -0.00020  -0.00149  -0.00169   1.93203
   A15        1.87171   0.00008  -0.00072   0.00103   0.00031   1.87202
   A16        1.88400  -0.00005   0.00020  -0.00062  -0.00042   1.88358
   A17        1.92487   0.00006   0.00019  -0.00006   0.00013   1.92500
   A18        1.88644   0.00003  -0.00047   0.00184   0.00137   1.88781
   A19        2.18168  -0.00056   0.00033  -0.00264  -0.00232   2.17935
   A20        2.01612   0.00053  -0.00049   0.00307   0.00258   2.01870
   A21        2.08528   0.00004   0.00018  -0.00034  -0.00017   2.08511
   A22        1.89002  -0.00064   0.00096  -0.00584  -0.00488   1.88514
   A23        2.05540  -0.00006  -0.00036   0.00053   0.00017   2.05557
   A24        1.96901  -0.00023   0.00028  -0.00217  -0.00189   1.96712
   A25        1.98679   0.00017  -0.00042   0.00173   0.00131   1.98810
    D1        3.12530   0.00006  -0.00027   0.00638   0.00611   3.13141
    D2        1.11243  -0.00001  -0.00037   0.00642   0.00605   1.11848
    D3       -1.00097  -0.00002  -0.00148   0.00845   0.00697  -0.99401
    D4       -1.05636   0.00011  -0.00026   0.00709   0.00684  -1.04952
    D5       -3.06924   0.00004  -0.00036   0.00714   0.00678  -3.06245
    D6        1.10055   0.00003  -0.00147   0.00917   0.00770   1.10825
    D7        1.03175   0.00003  -0.00020   0.00577   0.00557   1.03732
    D8       -0.98113  -0.00004  -0.00030   0.00581   0.00551  -0.97561
    D9       -3.09453  -0.00005  -0.00141   0.00784   0.00643  -3.08809
   D10        3.06653  -0.00009  -0.00184   0.00506   0.00322   3.06975
   D11        1.01550   0.00010  -0.00080   0.00550   0.00470   1.02020
   D12       -1.11649   0.00005  -0.00165   0.00589   0.00424  -1.11225
   D13        3.11567   0.00024  -0.00060   0.00632   0.00572   3.12139
[...]
 eom=AllCheck Guess=TCheck SCRF=Check GenChk RB3LYP/6-31G(d,p) Freq\\Fr
 ag_1005\\0,1\C,-1.2822020153,-0.5628597329,-0.7388113523\C,-0.33296410
 52,0.1787892827,0.2199485303\N,-0.4609240628,-0.4293612176,1.555078597
 5\N,-0.7066594647,1.5816507313,0.4109235618\C,1.1415483212,0.159887212
 ,-0.2750488873\N,1.9698555439,1.1249647117,-0.1449827336\N,1.553299627
 3,-1.015876024,-0.8890774199\H,-1.227649552,-0.1335133316,-1.743233641
 1\H,-1.0554468205,-1.6307154379,-0.8274968643\H,-2.3058164164,-0.47304
 07892,-0.3641693687\H,0.2152171317,0.0114078369,2.176157558\H,-0.23540
 19287,-1.4203688314,1.5211839032\H,-1.6032358555,1.6046427872,0.890424
 4218\H,-0.8182092275,2.0422595474,-0.4892021986\H,1.4734831251,1.91685
 19124,0.2702740257\H,1.1153793733,-1.8764443461,-0.5958932855\H,2.5596
 253261,-1.0782743109,-0.9759748469\\Version=ES64L-G09RevE.01\State=1-A
 \HF=-339.3523051\RMSD=2.504e-09\RMSF=2.606e-05\ZeroPoint=0.1499873\The
 rmal=0.1582844\Dipole=-0.7156278,-0.8806515,0.0297441\DipoleDeriv=-0.0
 065239,-0.0777951,-0.0733346,-0.0158475,0.0192799,-0.0483498,-0.043088
 4,-0.0383941,-0.0003584,0.483677,-0.0864135,0.12617,-0.0767235,0.57991
 34,-0.0481384,0.0836364,-0.0917561,0.6025858,-0.5723541,-0.0739984,0.2
 082191,0.0186648,-0.2805321,0.0955161,0.1777142,0.1749057,-0.6325782,-
 0.4082273,0.0021245,-0.0798638,0.0103108,-0.6940222,-0.1393132,-0.0526
 721,-0.1878981,-0.3411789,0.5272619,0.065273,-0.1459389,0.0313207,1.11
 45842,0.4670215,-0.1483638,0.4077608,0.2207022,-0.741152,-0.4378662,-0
 .0751672,-0.093405,-0.8168506,-0.1018172,0.0440928,0.0066696,-0.461760
 1,-0.3898584,0.2245325,0.0361665,0.0703991,-0.7779045,-0.2598281,-0.02
 81794,-0.5298932,-0.7186542,0.0538918,-0.0155421,0.0093244,-0.0087154,
 0.0148644,0.0773113,-0.0159442,0.049621,-0.0932583,0.0406374,0.0612623
 ,-0.0149805,0.0384544,-0.176443,-0.0377337,-0.0182695,-0.0153698,0.036
 2876,-0.1334235,-0.0070451,0.0379367,0.017305,0.0490218,-0.0171467,0.0
 661056,-0.0155219,0.0371534,0.1293238,-0.063182,-0.1731864,-0.0642376,
 0.1352967,-0.0034908,-0.0829653,0.0009889,0.1777544,0.2265923,0.146238
 8,-0.0742808,0.0645374,0.0060259,-0.0159186,-0.030384,-0.0812939,0.166
 6849,0.01878,0.0544318,0.0932007,-0.0463944,0.2045998,0.0615144,0.0187
 717,0.0565197,0.228043,0.1928767,0.0804207,-0.0147954,0.0389852,0.1988
 425,0.0190714,-0.0039294,0.0918169,0.0190623,0.2780625,0.13215,0.03777
 9,0.0867454,0.1620352,-0.036341,0.0063147,-0.0468486,0.1771454,0.19147
 58,-0.0165039,0.0793805,-0.0502611,0.1121388,0.0137255,0.0782247,0.170
 4025,0.2648293,0.1089599,0.0119129,0.0233707,-0.0211382,0.1491496,-0.0
 260827,-0.0510641,0.0482905,0.3175399\Polar=60.8147869,2.4528046,65.64
 06219,-3.1119026,4.0719278,50.0915618\PG=C01 [X(C3H10N4)]\NImag=0\\0.5
 3378908,-0.03542766,0.55391052,-0.05255381,-0.03650544,0.54788825,-0.1
 2365786,-0.02451566,-0.03179332,0.47793689,-0.02784902,-0.09256433,-0.
 02175508,-0.00447467,0.51479341,-0.04191731,-0.02513246,-0.11022780,0.
 00704157,0.02068291,0.48110711,0.00197136,0.00825131,-0.02400947,-0.06
 650506,-0.00441722,-0.01165873,0.30344138,0.00065960,0.00919233,-0.015
 76676,-0.01954422,-0.11025127,0.03456213,0.04458096,0.67730980,-0.0031
 1025,0.01059305,-0.03619406,0.02234345,0.02758923,-0.17847288,0.171921
 41,0.03965249,0.46976927,0.00648658,-0.01795033,-0.00161821,-0.0858230
 4,0.05313428,0.02452692,0.00521786,-0.00117464,-0.00120444,0.48829976,
 0.00625791,-0.03913929,-0.00806668,0.00485980,-0.18425222,-0.02416000,
 0.00537371,-0.03756977,0.01060539,-0.10265210,0.42661933,0.00642180,-0
 .02599485,-0.00113752,0.01422293,-0.00635427,-0.09405757,-0.00790715,0
 .04833280,-0.00214904,-0.16724073,-0.15341606,0.56877109,-0.02168663,-
 0.00613348,0.00065352,-0.13722926,0.00616592,0.01323752,0.00119488,-0.
 00539438,0.00706131,-0.02022019,0.01116347,0.00867998,0.63094150,-0.01
 635441,0.00306190,0.00495813,0.00531998,-0.08339556,-0.00524053,-0.017
 95570,-0.00287406,0.01560029,0.03083511,-0.01168435,-0.01687558,0.1688
 3167,0.78171840,-0.02031636,0.00178404,0.01127410,0.01116838,-0.008446
 83,-0.07831222,0.02962489,0.00899971,-0.02719242,0.00695340,-0.0060479
 8,-0.00125217,-0.06320805,0.15863602,0.27880360,-0.00438688,0.00188267
 ,0.00403783,-0.01994800,-0.02887841,-0.00257932,-0.00511178,-0.0010322
 4,0.00487939,-0.00330629,-0.00110405,0.00243402,-0.31396423,-0.2065415
 9,-0.00277588,0.45439668,-0.00046660,0.00060139,0.00128150,-0.01493716
 ,-0.00043293,-0.00495562,0.00191108,0.00205177,-0.00211262,0.00567237,
 0.00052447,-0.00163198,-0.25846627,-0.37825155,-0.04427644,0.12705910,
 0.69916474,0.00440005,-0.00114584,-0.00337894,0.01122172,0.00250341,0.
 02168775,-0.00331217,-0.00112705,0.00372983,0.00320082,-0.00039399,-0.
 00025054,-0.02506239,-0.05949682,-0.07238672,-0.06245629,0.20004565,0.
 14212199,-0.00338223,0.00013922,0.00124470,-0.00744673,0.02817762,0.01
 217895,-0.00041585,-0.00025556,0.00152944,-0.00539418,0.00122282,0.004
 24919,-0.14382044,0.05321457,0.06410737,0.02073233,-0.03059424,-0.0156
 8378,0.72343109,0.00095107,0.00007243,-0.00013827,0.00383235,-0.001035
 56,-0.00453825,0.00044144,0.00053227,-0.00023222,0.00111180,0.00209036
 ,0.00043091,0.04312716,-0.24344830,-0.10020393,-0.00457557,-0.07107229
 ,-0.03116294,0.07405683,0.72839150,0.00019866,-0.00042380,-0.00117464,
 0.00297558,-0.01021255,-0.00478609,0.00249335,-0.00010891,0.00034232,0
 .00309462,0.00121017,0.00033853,0.04659543,-0.06140579,-0.09316867,-0.
 01006638,-0.02700700,-0.00192575,-0.16440878,0.01859694,0.13948941,-0.
 04932256,-0.00745834,0.01503825,0.00101096,0.01037282,-0.01865779,-0.0
 0229429,-0.00271042,-0.00311630,-0.00006700,0.00126840,0.00113961,0.00
 069723,0.00010810,-0.00048331,-0.00003509,0.00004120,-0.00000362,-0.00
 011673,0.00020056,0.00038801,0.04913771,-0.00614233,-0.09088416,0.0991
 3815,0.00220826,0.00497513,-0.01427427,-0.00192011,-0.00149546,-0.0025
 7617,0.00046259,0.00198973,0.00017399,0.00032789,0.00105144,0.00076001
 ,0.00010403,-0.00026486,-0.00007231,-0.00032533,-0.00035394,-0.0006581
 6,0.00855293,0.09565674,0.01328202,0.09793790,-0.27299385,0.00345974,0
 .01026502,-0.01668758,-0.00360859,-0.00359209,-0.00280864,0.00063380,0
 .00066017,0.00179537,0.00093269,-0.00038181,-0.00008082,-0.00041562,-0
 .00024919,0.00016560,0.00016739,0.00014148,0.00060966,-0.01367612,-0.1
 0643864,0.29568659,-0.06120918,0.05539624,0.00213103,0.00647977,-0.018
 05569,0.00197199,0.00061343,0.00037577,0.00137327,-0.00092429,-0.00442
 479,-0.00327686,0.00083011,-0.00050607,-0.00026627,0.00020311,0.000497
 95,0.00004715,-0.00164184,0.00063659,0.00058440,-0.00046580,-0.0020419
 2,0.00003524,0.06409116,0.05431017,-0.29520962,-0.01877388,0.00635940,
 -0.01323128,0.00292439,0.00031360,0.00100337,0.00073126,-0.00376470,-0
 .00310582,-0.00398885,0.00075211,-0.00240498,-0.00178232,-0.00017328,0
 .00130619,0.00062661,0.00159553,0.00058903,0.00116203,0.00303774,-0.01
 193001,-0.00156776,-0.06202228,0.32100691,0.00257769,-0.01924287,-0.04
 968527,0.00817474,-0.01689693,-0.00034687,0.00061596,0.00023428,0.0012
 5013,-0.00325986,-0.00525021,-0.00270854,0.00022703,0.00044524,0.00000
 447,-0.00003155,0.00002741,0.00008513,-0.00003991,-0.00010461,-0.00017
 870,-0.00691751,0.02945892,0.00354629,-0.00242057,0.02158446,0.0488342
 5,-0.28029447,0.02273005,0.08771353,-0.02318443,0.00211418,0.00787834,
 0.00223564,0.00078758,0.00100653,0.00281489,0.00155225,0.00078353,0.00
 075377,-0.00178718,-0.00372221,-0.00181372,-0.00063467,0.00085553,-0.0
 0029877,-0.00022508,0.00006299,0.00062802,-0.00008533,-0.00044803,-0.0
 0537265,0.00042337,0.00181367,0.30399579,0.02375140,-0.04985759,-0.007
 34180,-0.01761415,-0.00053857,0.00453078,0.00111692,0.00017772,0.00089
 779,0.00023442,0.00178146,0.00124115,0.00010026,-0.00257643,-0.0035598
 3,-0.00111919,0.00007320,0.00101341,0.00071419,0.00032352,0.00058138,-
 0.01313913,0.00058316,0.00356857,0.03013705,-0.00195313,-0.01115792,-0
 .02319742,0.05185457,0.08945971,-0.00786807,-0.08092678,-0.02178205,0.
 00104092,0.00578760,0.00052181,0.00013718,0.00142110,0.00004147,0.0021
 3103,0.00070861,-0.00075683,-0.00261204,-0.00359463,-0.00126596,-0.000
 28779,0.00117180,0.00023665,0.00023718,0.00084517,0.02734124,-0.004291
 91,-0.00821080,0.00080530,0.00029224,-0.00119738,-0.09512347,0.0113128
 8,0.08420134,0.00090916,0.00076689,-0.00035996,-0.00219688,-0.00036185
 ,0.00947364,-0.20127428,-0.13107309,-0.18750546,-0.00034857,0.00059507
 ,0.00064192,0.00133139,0.00176047,0.00183850,0.00008399,0.00006545,-0.
 00095542,-0.00010571,-0.00018056,-0.00019648,0.00053005,-0.00026716,-0
 .00041994,-0.00002619,-0.00018896,0.00011338,0.00054288,0.00003518,0.0
 0036476,0.19895721,-0.00002413,-0.00135203,0.00261588,0.01115375,0.008
 91474,0.00993118,-0.10221870,-0.12859381,-0.08665200,0.00014343,0.0011
 4688,-0.00073965,0.00086366,0.00112733,0.00073805,-0.00059094,-0.00058
 270,-0.00044006,0.00010854,-0.00081878,-0.00005617,0.00039114,0.000854
 36,0.00087676,-0.00004403,0.00019084,0.00018136,-0.00012179,-0.0001384
 0,-0.00011264,0.11954962,0.13540116,0.00175654,0.00432518,-0.00631840,
 -0.02617055,-0.01686117,-0.02575444,-0.14227916,-0.08417463,-0.1716845
 8,0.00049326,-0.00090044,0.00233628,-0.00090992,-0.00296958,0.00007683
 ,0.00004027,0.00068395,0.00098936,0.00022774,0.00049403,0.00073855,-0.
 00160231,-0.00090804,-0.00105292,0.00025607,-0.00002093,0.00029027,-0.
 00002023,0.00019125,0.00022774,0.16813707,0.09871115,0.20094996,-0.000
 11609,0.00063811,-0.00048335,-0.00541972,-0.00643154,0.00817077,-0.038
 54544,0.11397883,-0.01445475,-0.00005104,0.00127962,-0.00153957,0.0002
 9302,-0.00159552,-0.00023392,0.00019532,0.00022460,0.00032215,-0.00024
 618,0.00049730,-0.00091338,-0.00018873,-0.00046652,0.00022585,0.000318
 24,-0.00045460,-0.00066742,-0.00038192,0.00038692,-0.00022127,0.001809
 23,-0.02897955,-0.00051592,0.04047191,-0.00014734,0.00085707,-0.000820
 29,0.00656229,-0.01395195,-0.00733583,0.06445783,-0.40458200,-0.012265
 64,-0.00085491,-0.00134155,0.00524671,-0.00030397,-0.00066818,-0.00080
 033,0.00020140,0.00041922,0.00026659,-0.00014243,0.00064845,-0.0007565
 9,-0.00029285,0.00014437,-0.00003477,0.00017057,0.00064521,0.00012976,
 -0.00011193,-0.00000625,0.00010971,0.00963789,-0.01586127,0.00079522,-
 0.07978776,0.43346775,-0.00029665,0.00086243,0.00128299,-0.00708214,0.
 03439263,0.00307803,-0.01149587,-0.02928226,-0.05769305,0.00079618,0.0
 0326318,-0.00639142,-0.00014669,0.00129895,0.00061683,-0.00002740,-0.0
 0047379,-0.00030652,0.00009892,-0.00009396,-0.00011719,0.00037677,-0.0
 0038456,0.00024928,-0.00025223,-0.00070681,-0.00090905,0.00003224,-0.0
 0014104,-0.00010116,0.00915728,-0.02506959,-0.00018260,0.00918944,0.01
 526133,0.06103637,0.00157757,-0.00104637,-0.00039235,-0.01268208,-0.00
 557365,0.00205275,0.00080698,-0.00191293,-0.00097263,-0.33890926,0.024
 30088,0.18688526,-0.00122361,0.00192716,0.00045611,-0.00023788,0.00144
 159,0.00043859,-0.00103113,0.00026997,0.00035997,0.00001475,-0.0000175
 2,-0.00000855,-0.00023985,-0.00023696,-0.00016983,0.00029346,-0.000133
 85,0.00031086,-0.00094058,0.00060830,0.00017466,0.00079102,-0.00045031
 ,-0.00017409,0.34698468,0.00134196,0.00057557,0.00006670,0.03792536,-0
 .00597030,-0.02090435,-0.00076372,0.00282067,-0.00058046,0.00065840,-0
 .04721823,0.02268412,-0.00107248,-0.00759639,-0.00047804,-0.00106259,0
 .00125219,-0.00024304,0.00210717,0.00062032,-0.00016381,-0.00013222,-0
 .00000990,0.00012764,-0.00037886,0.00020622,0.00034872,-0.00114500,-0.
 00039298,-0.00036721,-0.00014493,0.00018601,0.00013787,-0.00091864,0.0
 0025032,-0.00007523,-0.01925763,0.05519521,0.00071490,0.00103106,-0.00
 062496,0.00715867,-0.00496454,-0.00319587,-0.00077944,0.00066221,-0.00
 012456,0.14365330,0.01166011,-0.11496877,-0.00162089,-0.00040365,-0.00
 004480,-0.00144955,0.00089144,0.00070494,-0.00017459,0.00028573,0.0003
 2346,0.00005026,-0.00019325,-0.00012252,-0.00041092,0.00053553,0.00041
 693,-0.00073951,-0.00074082,0.00007272,-0.00110668,0.00044345,0.000060
 64,0.00017555,-0.00016889,-0.00047848,-0.17939580,-0.00677996,0.134251
 43,0.00002332,0.00035303,0.00053584,-0.00249518,-0.00329466,-0.0112772
 2,-0.00015939,0.00205523,0.00041722,-0.04497012,0.05181660,-0.04266520
 ,0.00150014,0.00354609,0.00060978,-0.00068850,-0.00219351,0.00146338,-
 0.00047306,-0.00119005,-0.00067544,0.00040889,-0.00010482,-0.00009488,
 -0.00004257,0.00040691,0.00008832,-0.00024222,-0.00034320,0.00022679,0
 .00024974,-0.00047734,0.00051118,0.00092358,0.00072267,-0.00068533,0.0
 0350500,-0.01843110,0.03225174,0.04394265,-0.00068546,0.00217933,0.001
 44893,0.00268166,-0.01569397,0.03447569,0.00110520,-0.00836611,-0.0008
 8480,0.03022287,-0.11043968,0.13151488,0.00027421,0.00011942,-0.000029
 63,-0.00016012,-0.00012806,0.00037953,-0.00028958,-0.00024085,-0.00042
 264,-0.00023982,-0.00038752,-0.00132167,0.00037706,0.00099697,-0.00000
 734,-0.00030115,-0.00028114,-0.00008775,0.00028343,-0.00025454,0.00002
 057,0.00100744,-0.00060079,0.00207070,-0.00082243,0.00018806,-0.002513
 23,-0.03338184,0.13234912,0.00026862,-0.00132001,0.00149005,-0.0009908
 6,-0.00890659,0.00283388,0.00010949,0.00074595,0.00086436,-0.01078949,
 0.16815720,-0.34867054,0.00059646,0.00112325,0.00070396,0.00006426,-0.
 00074268,0.00038421,-0.00017718,-0.00047239,-0.00032032,0.00025503,0.0
 0003832,0.00006398,-0.00006508,-0.00020538,-0.00010985,0.00000399,0.00
 016327,-0.00007676,0.00041875,-0.00055567,0.00011264,-0.00032949,-0.00
 002953,0.00057679,-0.00989994,0.00603541,-0.01625259,0.02129194,-0.164
 24841,0.35900622,-0.00010088,0.00079604,-0.00018753,-0.00106006,-0.003
 07140,-0.00157761,-0.00004413,0.00088742,-0.00039190,-0.00223321,-0.00
 061631,-0.00247869,0.00514729,-0.02885805,-0.01283282,-0.12757427,0.17
 002796,0.08620137,-0.00185341,-0.00511550,0.00080421,0.00003784,-0.000
 06555,-0.00001552,0.00016153,0.00053198,0.00025585,0.00001032,-0.00022
 893,-0.00011862,0.00032759,-0.00025572,0.00010867,-0.00004125,0.000220
 73,-0.00012601,0.00121119,0.00104686,0.00160744,-0.00167126,-0.0002506
 1,-0.00083034,0.12632957,0.00085410,-0.00052611,-0.00046316,0.00221311
 ,-0.00182108,0.00147133,-0.00038412,-0.00020999,0.00018657,0.00273538,
 0.00021087,-0.00016555,0.01843860,-0.03904094,-0.01818635,0.11401204,-
 0.25175486,-0.11086314,-0.00530731,-0.00150127,-0.00133025,0.00001137,
 -0.00002275,0.00005799,-0.00002672,0.00005028,-0.00004044,0.00022180,0
 .00031799,0.00032671,-0.00039607,-0.00024374,0.00043427,0.00000119,0.0
 0005769,-0.00000170,0.00052531,0.00027105,0.00037331,0.00056078,0.0006
 0819,0.00023756,-0.13263829,0.29348612,-0.00087928,-0.00012743,0.00067
 993,-0.00203961,0.00251708,-0.00637104,0.00252142,0.00053855,-0.001790
 08,0.00063035,0.00079213,-0.00111324,0.00350418,-0.00495266,-0.0063459
 1,0.06728583,-0.12463761,-0.09134217,-0.00008651,-0.00176510,0.0122634
 0,0.00003418,0.00001387,-0.00000084,0.00003776,-0.00014305,-0.00006985
 ,-0.00017491,-0.00013144,-0.00014172,0.00014464,0.00043608,-0.00016376
 ,-0.00018465,-0.00013496,0.00003026,0.00025084,0.00058454,-0.00022799,
 -0.00214811,-0.00059684,-0.00062689,-0.07083486,0.12956440,0.09502929,
 -0.00084701,0.00174961,-0.00016515,0.00063783,0.00106470,0.00128475,-0
 .00101077,0.00013658,-0.00010349,-0.00050979,-0.00080440,-0.00060915,0
 .00797259,0.00459836,-0.01143249,0.00055845,0.00307321,0.00220528,-0.1
 3543304,-0.13234458,0.06826709,0.00004092,-0.00023768,0.00002751,-0.00
 264904,-0.00099102,-0.00032953,0.00020060,-0.00074981,-0.00004042,0.00
 012590,-0.00012166,-0.00024774,0.00030176,0.00028038,0.00051964,-0.000
 01406,0.00002034,0.00003852,0.00029130,0.00018338,0.00007791,0.0014652
 9,-0.00009100,0.00100829,0.13690178,-0.00027724,-0.00023897,0.00018900
 ,-0.00010275,-0.00096494,-0.00043594,-0.00036897,0.00059881,-0.0000088
 8,-0.00003643,0.00062685,0.00035330,-0.01702997,-0.01929034,0.01456152
 ,0.00380520,-0.00498129,-0.00101400,-0.14708555,-0.34429261,0.08800043
 ,0.00000321,-0.00000565,-0.00005834,-0.00013308,0.00123557,0.00019812,
 -0.00017710,0.00037048,0.00002904,-0.00005312,-0.00006417,0.00003695,0
 .00065960,0.00048216,-0.00067504,0.00006248,0.00010839,-0.00006887,-0.
 00014016,-0.00004776,-0.00004799,-0.00137152,0.00002946,-0.00243245,0.
 15611450,0.36054886,0.00035816,0.00124492,-0.00023558,0.00112193,-0.00
 013299,0.00133295,-0.00134626,0.00018572,-0.00021413,-0.00071834,-0.00
 018817,-0.00072827,-0.01265459,-0.01883585,-0.00340286,0.00248948,-0.0
 0166520,-0.00023671,0.08368343,0.11815208,-0.04171230,-0.00033175,0.00
 035920,-0.00017312,-0.00064577,-0.00092180,0.00085085,0.00016599,-0.00
 065295,-0.00023639,0.00004202,-0.00015760,-0.00036943,0.00137282,0.000
 40831,-0.00081512,0.00002662,0.00001231,0.00009816,0.00008875,0.000198
 47,-0.00002937,0.00055921,-0.00235090,0.00145223,-0.07074966,-0.097738
 97,0.04979462,0.00024672,-0.00017132,0.00020845,0.00158286,0.00137860,
 -0.00014922,-0.00012055,-0.00036448,0.00032721,-0.00006209,-0.00008887
 ,0.00025911,-0.01251756,0.00345700,0.00051287,0.00089677,-0.00272207,-
 0.00288237,-0.44250411,0.01850626,0.05043615,-0.00001617,0.00001856,-0
 .00007698,-0.00012593,0.00010098,-0.00003046,0.00011283,0.00004933,0.0
 0000005,0.00002510,0.00001541,0.00004037,-0.00011371,-0.00016225,0.000
 11595,0.00009381,0.00020710,0.00002699,-0.00010232,-0.00000423,-0.0000
 0409,-0.00011215,-0.00073015,0.00093045,-0.00803272,0.00613089,-0.0034
 6205,0.46074923,-0.00075201,-0.00067846,-0.00006695,-0.00192735,-0.004
 57931,-0.00160114,0.00047649,0.00025573,-0.00054329,0.00122246,-0.0002
 3904,-0.00081106,0.03835560,0.00415260,-0.00166766,-0.00182647,0.00207
 538,0.00112398,0.02266351,-0.07050428,-0.00700532,-0.00001469,0.000099
 32,0.00000875,0.00004222,0.00060424,0.00009205,-0.00004258,0.00026240,
 0.00001053,-0.00002829,0.00008811,0.00000434,-0.00003948,0.00003974,-0
 .00024523,0.00031595,-0.00048622,-0.00004962,0.00009537,-0.00000064,0.
 00002768,-0.00103908,0.00008910,0.00047492,-0.03188091,0.00588515,0.00
 208343,-0.02562074,0.06293620,-0.00036448,-0.00001780,0.00028246,0.000
 96984,-0.00446026,0.00238504,-0.00141147,0.00000069,0.00094642,0.00080
 694,-0.00005585,-0.00052229,0.02287126,-0.00888757,-0.00569859,-0.0001
 6314,0.00510997,-0.00121326,0.01284696,0.00037335,-0.01156685,0.000165
 36,-0.00014516,0.00001430,0.00009548,0.00025427,-0.00007282,-0.0000879
 9,0.00022532,0.00004953,0.00021198,-0.00015052,-0.00025615,0.00008714,
 0.00012918,0.00012404,0.00005753,-0.00040523,0.00011227,0.00006124,0.0
 0000353,0.00005024,-0.00014286,0.00074936,-0.00126161,0.01024864,-0.00
 088788,-0.00537555,-0.04625243,0.00816460,0.02200282\\0.00000086,0.000
 01504,-0.00003718,-0.00002744,-0.00004870,0.00005704,0.00003751,0.0000
 2296,-0.00002612,0.00001145,0.00001072,-0.00003580,0.00000677,-0.00008
 211,-0.00003062,0.00000165,0.00000633,-0.00000694,0.00000743,0.0000009
 4,0.00007197,-0.00000093,-0.00000026,-0.00000465,0.00000315,0.00000881
 ,-0.00000040,0.00000437,0.00000119,-0.00000630,-0.00001574,-0.00002980
 ,0.00000241,-0.00000902,0.00002824,0.00000168,0.00002098,-0.00000581,-
 0.00000854,-0.00000548,-0.00001234,0.00002540,-0.00000487,0.00002566,0
 .00002573,0.00000613,0.00004625,-0.00002892,-0.00003681,0.00001288,0.0
 0000126\\\@


 10 WHATSOEVER THY HAND FINDETH TO DO, DO IT WITH THY  
 MIGHT. FOR THERE IS NO WORK, NOR DEVICE, NOR KNOWLEDGE, NOR  
 WISDOM, IN THE GRAVE, WHITHER THOU GOEST.                    
 11 I RETURNED AND SAW UNDER THE SUN, THAT THE RACE IS NOT TO 
 THE SWIFT, NOR THE BATTLE TO THE STRONG, NEITHER YET BREAD TO
 THE WISE, NOR YET RICHES TO MEN OF UNDERSTANDING, NOR YET    
 FAVOR TO MEN OF SKILL. BUT TIME AND CHANCE HAPPEN TO THEM ALL.
 12 FOR MAN ALSO KNOWETH NOT HIS TIME. AS THE FISHES   
 THAT ARE TAKEN IN AN EVIL NET, AND AS THE BIRDS THAT ARE     
 CAUGHT IN THE SNARE. SO ARE THE SONS OF MEN SNARED IN AN EVIL
 TIME, WHEN IT FALLETH SUDDENLY UPON THEM.
                                         ECCLESIASTES 9
 Job cpu time:       0 days  0 hours  8 minutes  9.2 seconds.
 File lengths (MBytes):  RWF=     48 Int=      0 D2E=      0 Chk=      3 Scr=      1
 Normal termination of Gaussian 09 at Thu Sep  8 14:50:34 2022.
