 Entering Gaussian System, Link 0=g09
 Input=B3LYP6-31Gdp.Frag_554.gjf
 Output=B3LYP6-31Gdp.Frag_554.log
 Initial command:
 /public/home/users/caep010/software/Gaussian09/g09/l1.exe "/public/home/users/caep010/.cache/gau_scr/Gau-126650.inp" -scrdir="/public/home/users/caep010/.cache/gau_scr/"
 Entering Link 1 = /public/home/users/caep010/software/Gaussian09/g09/l1.exe PID=    126651.
  
 Copyright (c) 1988,1990,1992,1993,1995,1998,2003,2009,2015,
            Gaussian, Inc.  All Rights Reserved.
  
 This is part of the Gaussian(R) 09 program.  It is based on
 the Gaussian(R) 03 system (copyright 2003, Gaussian, Inc.),
 the Gaussian(R) 98 system (copyright 1998, Gaussian, Inc.),
 the Gaussian(R) 94 system (copyright 1995, Gaussian, Inc.),
 the Gaussian 92(TM) system (copyright 1992, Gaussian, Inc.),
 the Gaussian 90(TM) system (copyright 1990, Gaussian, Inc.),
 the Gaussian 88(TM) system (copyright 1988, Gaussian, Inc.),
 the Gaussian 86(TM) system (copyright 1986, Carnegie Mellon
 University), and the Gaussian 82(TM) system (copyright 1983,
 Carnegie Mellon University). Gaussian is a federally registered
 trademark of Gaussian, Inc.
  
 This software contains proprietary and confidential information,
 including trade secrets, belonging to Gaussian, Inc.
  
 This software is provided under written license and may be
 used, copied, transmitted, or stored only in accord with that
 written license.
  
 The following legend is applicable only to US Government
 contracts under FAR:
  
                    RESTRICTED RIGHTS LEGEND
  
 Use, reproduction and disclosure by the US Government is
 subject to restrictions as set forth in subparagraphs (a)
 and (c) of the Commercial Computer Software - Restricted
 Rights clause in FAR 52.227-19.
  
 Gaussian, Inc.
 340 Quinnipiac St., Bldg. 40, Wallingford CT 06492
  
  
 ---------------------------------------------------------------
 Warning -- This program may not be used in any manner that
 competes with the business of Gaussian, Inc. or will provide
 assistance to any competitor of Gaussian, Inc.  The licensee
 of this program is prohibited from giving any competitor of
 Gaussian, Inc. access to this program.  By using this program,
 the user acknowledges that Gaussian, Inc. is engaged in the
 business of creating and licensing software in the field of
 computational chemistry and represents and warrants to the
 licensee that it is not a competitor of Gaussian, Inc. and that
 it will not use this program in any manner prohibited above.
 ---------------------------------------------------------------
  

 Cite this work as:
 Gaussian 09, Revision E.01,
 M. J. Frisch, G. W. Trucks, H. B. Schlegel, G. E. Scuseria, 
 M. A. Robb, J. R. Cheeseman, G. Scalmani, V. Barone, B. Mennucci, 
 G. A. Petersson, H. Nakatsuji, M. Caricato, X. Li, H. P. Hratchian, 
 A. F. Izmaylov, J. Bloino, G. Zheng, J. L. Sonnenberg, M. Hada, 
 M. Ehara, K. Toyota, R. Fukuda, J. Hasegawa, M. Ishida, T. Nakajima, 
 Y. Honda, O. Kitao, H. Nakai, T. Vreven, J. A. Montgomery, Jr., 
 J. E. Peralta, F. Ogliaro, M. Bearpark, J. J. Heyd, E. Brothers, 
 K. N. Kudin, V. N. Staroverov, T. Keith, R. Kobayashi, J. Normand, 
 K. Raghavachari, A. Rendell, J. C. Burant, S. S. Iyengar, J. Tomasi, 
 M. Cossi, N. Rega, J. M. Millam, M. Klene, J. E. Knox, J. B. Cross, 
 V. Bakken, C. Adamo, J. Jaramillo, R. Gomperts, R. E. Stratmann, 
 O. Yazyev, A. J. Austin, R. Cammi, C. Pomelli, J. W. Ochterski, 
 R. L. Martin, K. Morokuma, V. G. Zakrzewski, G. A. Voth, 
 P. Salvador, J. J. Dannenberg, S. Dapprich, A. D. Daniels, 
 O. Farkas, J. B. Foresman, J. V. Ortiz, J. Cioslowski, 
 and D. J. Fox, Gaussian, Inc., Wallingford CT, 2013.
 
 ******************************************
 Gaussian 09:  ES64L-G09RevE.01 30-Nov-2015
                 8-Sep-2022 
 ******************************************
 %nproc=32
 Will use up to   32 processors via shared memory.
 %mem=180GB
 %chk=B3LYP6-31Gdp.Frag_554.chk
 ----------------------------
 #P OPT Freq B3LYP/6-31G(d,p)
 ----------------------------
 1/14=-1,18=20,19=15,26=3,38=1/1,3;
 2/9=110,12=2,17=6,18=5,40=1/2;
 3/5=1,6=6,7=101,11=2,16=1,25=1,30=1,71=1,74=-5/1,2,3;
 4//1;
 5/5=2,38=5/2;
 6/7=2,8=2,9=2,10=2,28=1/1;
 7//1,2,3,16;
 1/14=-1,18=20,19=15,26=3/3(2);
 2/9=110/2;
 99//99;
 2/9=110/2;
 3/5=1,6=6,7=101,11=2,16=1,25=1,30=1,71=1,74=-5/1,2,3;
 4/5=5,16=3,69=1/1;
 5/5=2,38=5/2;
 7//1,2,3,16;
 1/14=-1,18=20,19=15,26=3/3(-5);
 2/9=110/2;
 6/7=2,8=2,9=2,10=2,19=2,28=1/1;
 99/9=1/99;
 Leave Link    1 at Thu Sep  8 14:56:41 2022, MaxMem= 24159191040 cpu:         2.3
 (Enter /public/home/users/caep010/software/Gaussian09/g09/l101.exe)
 --------
 Frag_554
 --------
 Symbolic Z-matrix:
 Charge =  0 Multiplicity = 1
 C                     1.07265  -0.50387  -0.87495 
 C                     0.01916   0.09178   0.01869 
 C                     0.18035   1.53662   0.40413 
 C                    -1.02223  -0.6127    0.46249 
 O                    -1.21785  -1.93292   0.14257 
 H                     1.13769   0.0426   -1.82523 
 H                     2.06554  -0.43895  -0.41038 
 H                     0.86679  -1.5523   -1.09681 
 H                    -0.63074   1.88069   1.05322 
 H                     1.12769   1.7061    0.93373 
 H                     0.19986   2.18704  -0.48087 
 H                    -1.77531  -0.16609   1.10834 
 H                    -2.0235   -2.23801   0.56506 
 
 NAtoms=     13 NQM=       13 NQMF=       0 NMMI=      0 NMMIF=      0
                NMic=       0 NMicF=      0.
                    Isotopes and Nuclear Properties:
 (Nuclear quadrupole moments (NQMom) in fm**2, nuclear magnetic moments (NMagM)
  in nuclear magnetons)

  Atom         1           2           3           4           5           6           7           8           9          10
 IAtWgt=          12          12          12          12          16           1           1           1           1           1
 AtmWgt=  12.0000000  12.0000000  12.0000000  12.0000000  15.9949146   1.0078250   1.0078250   1.0078250   1.0078250   1.0078250
 NucSpn=           0           0           0           0           0           1           1           1           1           1
 AtZEff=   0.0000000   0.0000000   0.0000000   0.0000000   0.0000000   0.0000000   0.0000000   0.0000000   0.0000000   0.0000000
 NQMom=    0.0000000   0.0000000   0.0000000   0.0000000   0.0000000   0.0000000   0.0000000   0.0000000   0.0000000   0.0000000
 NMagM=    0.0000000   0.0000000   0.0000000   0.0000000   0.0000000   2.7928460   2.7928460   2.7928460   2.7928460   2.7928460
 AtZNuc=   6.0000000   6.0000000   6.0000000   6.0000000   8.0000000   1.0000000   1.0000000   1.0000000   1.0000000   1.0000000

  Atom        11          12          13
 IAtWgt=           1           1           1
 AtmWgt=   1.0078250   1.0078250   1.0078250
 NucSpn=           1           1           1
 AtZEff=   0.0000000   0.0000000   0.0000000
 NQMom=    0.0000000   0.0000000   0.0000000
 NMagM=    2.7928460   2.7928460   2.7928460
 AtZNuc=   1.0000000   1.0000000   1.0000000
 Leave Link  101 at Thu Sep  8 14:56:42 2022, MaxMem= 24159191040 cpu:         9.9
 (Enter /public/home/users/caep010/software/Gaussian09/g09/l103.exe)

 GradGradGradGradGradGradGradGradGradGradGradGradGradGradGradGradGradGrad
 Berny optimization.
 Initialization pass.
                           ----------------------------
                           !    Initial Parameters    !
                           ! (Angstroms and Degrees)  !
 --------------------------                            --------------------------
 ! Name  Definition              Value          Derivative Info.                !
 --------------------------------------------------------------------------------
 ! R1    R(1,2)                  1.5044         estimate D2E/DX2                !
 ! R2    R(1,6)                  1.0981         estimate D2E/DX2                !
 ! R3    R(1,7)                  1.0981         estimate D2E/DX2                !
 ! R4    R(1,8)                  1.0912         estimate D2E/DX2                !
 ! R5    R(2,3)                  1.504          estimate D2E/DX2                !
 ! R6    R(2,4)                  1.3333         estimate D2E/DX2                !
 ! R7    R(3,9)                  1.0943         estimate D2E/DX2                !
 ! R8    R(3,10)                 1.0985         estimate D2E/DX2                !
 ! R9    R(3,11)                 1.0985         estimate D2E/DX2                !
 ! R10   R(4,5)                  1.3724         estimate D2E/DX2                !
 ! R11   R(4,12)                 1.088          estimate D2E/DX2                !
 ! R12   R(5,13)                 0.9595         estimate D2E/DX2                !
 ! A1    A(2,1,6)              111.0073         estimate D2E/DX2                !
 ! A2    A(2,1,7)              111.0054         estimate D2E/DX2                !
 ! A3    A(2,1,8)              111.6586         estimate D2E/DX2                !
 ! A4    A(6,1,7)              106.4465         estimate D2E/DX2                !
 ! A5    A(6,1,8)              108.2614         estimate D2E/DX2                !
 ! A6    A(7,1,8)              108.2625         estimate D2E/DX2                !
 ! A7    A(1,2,3)              117.2281         estimate D2E/DX2                !
 ! A8    A(1,2,4)              122.3754         estimate D2E/DX2                !
 ! A9    A(3,2,4)              120.3965         estimate D2E/DX2                !
 ! A10   A(2,3,9)              112.0            estimate D2E/DX2                !
 ! A11   A(2,3,10)             111.3577         estimate D2E/DX2                !
 ! A12   A(2,3,11)             111.3613         estimate D2E/DX2                !
 ! A13   A(9,3,10)             107.7409         estimate D2E/DX2                !
 ! A14   A(9,3,11)             107.7504         estimate D2E/DX2                !
 ! A15   A(10,3,11)            106.3654         estimate D2E/DX2                !
 ! A16   A(2,4,5)              122.8197         estimate D2E/DX2                !
 ! A17   A(2,4,12)             121.4214         estimate D2E/DX2                !
 ! A18   A(5,4,12)             115.7588         estimate D2E/DX2                !
 ! A19   A(4,5,13)             108.8384         estimate D2E/DX2                !
 ! D1    D(6,1,2,3)            -59.0702         estimate D2E/DX2                !
 ! D2    D(6,1,2,4)            120.9332         estimate D2E/DX2                !
 ! D3    D(7,1,2,3)             59.1144         estimate D2E/DX2                !
 ! D4    D(7,1,2,4)           -120.8821         estimate D2E/DX2                !
 ! D5    D(8,1,2,3)           -179.9779         estimate D2E/DX2                !
 ! D6    D(8,1,2,4)              0.0256         estimate D2E/DX2                !
 ! D7    D(1,2,3,9)           -179.9997         estimate D2E/DX2                !
 ! D8    D(1,2,3,10)           -59.2779         estimate D2E/DX2                !
 ! D9    D(1,2,3,11)            59.2639         estimate D2E/DX2                !
 ! D10   D(4,2,3,9)             -0.0031         estimate D2E/DX2                !
 ! D11   D(4,2,3,10)           120.7187         estimate D2E/DX2                !
 ! D12   D(4,2,3,11)          -120.7395         estimate D2E/DX2                !
 ! D13   D(1,2,4,5)              0.0187         estimate D2E/DX2                !
 ! D14   D(1,2,4,12)          -179.998          estimate D2E/DX2                !
 ! D15   D(3,2,4,5)           -179.9778         estimate D2E/DX2                !
 ! D16   D(3,2,4,12)             0.0055         estimate D2E/DX2                !
 ! D17   D(2,4,5,13)          -179.8832         estimate D2E/DX2                !
 ! D18   D(12,4,5,13)            0.1326         estimate D2E/DX2                !
 --------------------------------------------------------------------------------
 Trust Radius=3.00D-01 FncErr=1.00D-07 GrdErr=1.00D-06
 Number of steps in this run=     59 maximum allowed number of steps=    100.
 GradGradGradGradGradGradGradGradGradGradGradGradGradGradGradGradGradGrad

 Leave Link  103 at Thu Sep  8 14:56:42 2022, MaxMem= 24159191040 cpu:         0.6
 (Enter /public/home/users/caep010/software/Gaussian09/g09/l202.exe)
                          Input orientation:                          
 ---------------------------------------------------------------------
 Center     Atomic      Atomic             Coordinates (Angstroms)
 Number     Number       Type             X           Y           Z
 ---------------------------------------------------------------------
      1          6           0        1.072647   -0.503869   -0.874952
      2          6           0        0.019158    0.091784    0.018693
      3          6           0        0.180350    1.536624    0.404127
      4          6           0       -1.022231   -0.612697    0.462493
      5          8           0       -1.217851   -1.932923    0.142570
      6          1           0        1.137694    0.042600   -1.825230
      7          1           0        2.065543   -0.438954   -0.410384
      8          1           0        0.866794   -1.552296   -1.096809
      9          1           0       -0.630737    1.880694    1.053222
     10          1           0        1.127686    1.706097    0.933733
     11          1           0        0.199863    2.187038   -0.480866
     12          1           0       -1.775314   -0.166093    1.108343
     13          1           0       -2.023500   -2.238006    0.565059
 ---------------------------------------------------------------------
                    Distance matrix (angstroms):
                    1          2          3          4          5
     1  C    0.000000
     2  C    1.504408   0.000000
     3  C    2.568238   1.504030   0.000000
     4  C    2.487793   1.333320   2.463572   0.000000
     5  O    2.885122   2.375916   3.749818   1.372448   0.000000
     6  H    1.098129   2.157219   2.849324   3.213778   3.650140
     7  H    1.098126   2.157193   2.849612   3.213479   3.649435
     8  H    1.091236   2.160053   3.502205   2.623487   2.454930
     9  H    3.507921   2.166290   1.094336   2.592147   3.964551
    10  H    2.856277   2.161513   1.098476   3.197032   4.401130
    11  H    2.856228   2.161551   1.098468   3.197179   4.401439
    12  H    3.486895   2.115176   2.686966   1.087985   2.089299
    13  H    3.829751   3.146250   4.373864   1.911724   0.959501
                    6          7          8          9         10
     6  H    0.000000
     7  H    1.759144   0.000000
     8  H    1.774169   1.774178   0.000000
     9  H    3.845962   3.846145   4.318640   0.000000
    10  H    3.221676   2.699531   3.848154   1.771105   0.000000
    11  H    2.699158   3.222043   3.847961   1.771206   1.758764
    12  H    4.139447   4.139223   3.710120   2.345726   3.458756
    13  H    4.572504   4.572565   3.403792   4.375132   5.061802
                   11         12         13
    11  H    0.000000
    12  H    3.458921   0.000000
    13  H    5.061454   2.156288   0.000000
 Stoichiometry    C4H8O
 Framework group  C1[X(C4H8O)]
 Deg. of freedom    33
 Full point group                 C1      NOp   1
 Largest Abelian subgroup         C1      NOp   1
 Largest concise Abelian subgroup C1      NOp   1
                         Standard orientation:                         
 ---------------------------------------------------------------------
 Center     Atomic      Atomic             Coordinates (Angstroms)
 Number     Number       Type             X           Y           Z
 ---------------------------------------------------------------------
      1          6           0       -0.520185    1.472452   -0.000068
      2          6           0       -0.416739   -0.028395   -0.000059
      3          6           0       -1.703626   -0.806871    0.000027
      4          6           0        0.755754   -0.663221   -0.000057
      5          8           0        1.959043   -0.003136    0.000314
      6          1           0       -1.072970    1.828945   -0.879402
      7          1           0       -1.072188    1.828973    0.879742
      8          1           0        0.463915    1.943984   -0.000524
      9          1           0       -1.529209   -1.887218    0.000032
     10          1           0       -2.316387   -0.566740    0.879521
     11          1           0       -2.316648   -0.566618   -0.879242
     12          1           0        0.812484   -1.749725   -0.000083
     13          1           0        2.667434   -0.650300   -0.001610
 ---------------------------------------------------------------------
 Rotational constants (GHZ):      8.3493349      3.7488304      2.6725098
 Leave Link  202 at Thu Sep  8 14:56:42 2022, MaxMem= 24159191040 cpu:         0.6
 (Enter /public/home/users/caep010/software/Gaussian09/g09/l301.exe)
 Standard basis: 6-31G(d,p) (6D, 7F)
 Ernie: Thresh=  0.10000D-02 Tol=  0.10000D-05 Strict=F.
 There are   115 symmetry adapted cartesian basis functions of A   symmetry.
 There are   115 symmetry adapted basis functions of A   symmetry.
   115 basis functions,   196 primitive gaussians,   115 cartesian basis functions
    20 alpha electrons       20 beta electrons
       nuclear repulsion energy       175.3457323653 Hartrees.
 IExCor=  402 DFT=T Ex+Corr=B3LYP ExCW=0 ScaHFX=  0.200000
 ScaDFX=  0.800000  0.720000  1.000000  0.810000 ScalE2=  1.000000  1.000000
 IRadAn=      0 IRanWt=     -1 IRanGd=            0 ICorTp=0 IEmpDi=  4
 NAtoms=   13 NActive=   13 NUniq=   13 SFac= 1.00D+00 NAtFMM=   60 NAOKFM=F Big=F
 Integral buffers will be    131072 words long.
 Raffenetti 2 integral format.
 Two-electron integral symmetry is turned on.
 Leave Link  301 at Thu Sep  8 14:56:42 2022, MaxMem= 24159191040 cpu:         2.3
 (Enter /public/home/users/caep010/software/Gaussian09/g09/l302.exe)
 NPDir=0 NMtPBC=     1 NCelOv=     1 NCel=       1 NClECP=     1 NCelD=      1
         NCelK=      1 NCelE2=     1 NClLst=     1 CellRange=     0.0.
 One-electron integrals computed using PRISM.
 NBasis=   115 RedAO= T EigKep=  2.57D-03  NBF=   115
 NBsUse=   115 1.00D-06 EigRej= -1.00D+00 NBFU=   115
 Precomputing XC quadrature grid using
 IXCGrd= 4 IRadAn=           0 IRanWt=          -1 IRanGd=           0 AccXCQ= 0.00D+00.
 Generated NRdTot=       0 NPtTot=           0 NUsed=           0 NTot=          32
 NSgBfM=   115   115   115   115   115 MxSgAt=    13 MxSgA2=    13.
 Leave Link  302 at Thu Sep  8 14:56:42 2022, MaxMem= 24159191040 cpu:        11.6
 (Enter /public/home/users/caep010/software/Gaussian09/g09/l303.exe)
 DipDrv:  MaxL=1.
 Leave Link  303 at Thu Sep  8 14:56:42 2022, MaxMem= 24159191040 cpu:         0.7
 (Enter /public/home/users/caep010/software/Gaussian09/g09/l401.exe)
 ExpMin= 1.61D-01 ExpMax= 5.48D+03 ExpMxC= 8.25D+02 IAcc=1 IRadAn=         1 AccDes= 0.00D+00
 Harris functional with IExCor=  402 and IRadAn=       1 diagonalized for initial guess.
 HarFok:  IExCor=  402 AccDes= 0.00D+00 IRadAn=         1 IDoV= 1 UseB2=F ITyADJ=14
 ICtDFT=  3500011 ScaDFX=  1.000000  1.000000  1.000000  1.000000
 FoFCou: FMM=F IPFlag=           0 FMFlag=      100000 FMFlg1=           0
         NFxFlg=           0 DoJE=T BraDBF=F KetDBF=T FulRan=T
         wScrn=  0.000000 ICntrl=     500 IOpCl=  0 I1Cent=   200000004 NGrid=           0
         NMat0=    1 NMatS0=      1 NMatT0=    0 NMatD0=    1 NMtDS0=    0 NMtDT0=    0
 Petite list used in FoFCou.
 Harris En= -232.517795959835    
 JPrj=0 DoOrth=F DoCkMO=F.
 Leave Link  401 at Thu Sep  8 14:56:43 2022, MaxMem= 24159191040 cpu:        10.6
 (Enter /public/home/users/caep010/software/Gaussian09/g09/l502.exe)
 Closed shell SCF:
 Using DIIS extrapolation, IDIIS=  1040.
 Integral symmetry usage will be decided dynamically.
 Keep R1 ints in memory in canonical form, NReq=23246455.
 IVT=       62780 IEndB=       62780 NGot= 24159191040 MDV= 24136880476
 LenX= 24136880476 LenY= 24136866810
 Requested convergence on RMS density matrix=1.00D-08 within 128 cycles.
 Requested convergence on MAX density matrix=1.00D-06.
 Requested convergence on             energy=1.00D-06.
 No special actions if energy rises.
 FoFCou: FMM=F IPFlag=           0 FMFlag=           0 FMFlg1=           0
         NFxFlg=           0 DoJE=F BraDBF=F KetDBF=F FulRan=T
         wScrn=  0.000000 ICntrl=     600 IOpCl=  0 I1Cent=           0 NGrid=           0
         NMat0=    1 NMatS0=   6670 NMatT0=    0 NMatD0=    1 NMtDS0=    0 NMtDT0=    0
 Symmetry not used in FoFCou.
 Integral accuracy reduced to 1.0D-05 until final iterations.

 Cycle   1  Pass 0  IDiag  1:
 E= -232.260134008454    
 DIIS: error= 4.34D-02 at cycle   1 NSaved=   1.
 NSaved= 1 IEnMin= 1 EnMin= -232.260134008454     IErMin= 1 ErrMin= 4.34D-02
 ErrMax= 4.34D-02  0.00D+00 EMaxC= 1.00D-01 BMatC= 1.88D-01 BMatP= 1.88D-01
 IDIUse=3 WtCom= 5.66D-01 WtEn= 4.34D-01
 Coeff-Com:  0.100D+01
 Coeff-En:   0.100D+01
 Coeff:      0.100D+01
 Gap=     0.240 Goal=   None    Shift=    0.000
 GapD=    0.240 DampG=1.000 DampE=0.500 DampFc=0.5000 IDamp=-1.
 Damping current iteration by 5.00D-01
 RMSDP=8.68D-03 MaxDP=1.36D-01              OVMax= 1.77D-01

 Cycle   2  Pass 0  IDiag  1:
 E= -232.343784714939     Delta-E=       -0.083650706485 Rises=F Damp=T
 DIIS: error= 9.13D-03 at cycle   2 NSaved=   2.
 NSaved= 2 IEnMin= 2 EnMin= -232.343784714939     IErMin= 2 ErrMin= 9.13D-03
 ErrMax= 9.13D-03  0.00D+00 EMaxC= 1.00D-01 BMatC= 9.68D-03 BMatP= 1.88D-01
 IDIUse=3 WtCom= 9.09D-01 WtEn= 9.13D-02
 Coeff-Com:  0.876D-01 0.912D+00
 Coeff-En:   0.149D+00 0.851D+00
 Coeff:      0.932D-01 0.907D+00
 Gap=     0.266 Goal=   None    Shift=    0.000
 RMSDP=1.96D-03 MaxDP=3.62D-02 DE=-8.37D-02 OVMax= 1.35D-01

 Cycle   3  Pass 0  IDiag  1:
 E= -232.448879801713     Delta-E=       -0.105095086774 Rises=F Damp=F
 DIIS: error= 5.76D-03 at cycle   3 NSaved=   3.
 NSaved= 3 IEnMin= 3 EnMin= -232.448879801713     IErMin= 3 ErrMin= 5.76D-03
 ErrMax= 5.76D-03  0.00D+00 EMaxC= 1.00D-01 BMatC= 5.83D-03 BMatP= 9.68D-03
 IDIUse=3 WtCom= 9.42D-01 WtEn= 5.76D-02
 Coeff-Com:  0.149D-01 0.423D+00 0.562D+00
 Coeff-En:   0.000D+00 0.000D+00 0.100D+01
 Coeff:      0.140D-01 0.399D+00 0.587D+00
 Gap=     0.252 Goal=   None    Shift=    0.000
 RMSDP=9.30D-04 MaxDP=3.44D-02 DE=-1.05D-01 OVMax= 6.41D-02

 Cycle   4  Pass 0  IDiag  1:
 E= -232.452730346820     Delta-E=       -0.003850545107 Rises=F Damp=F
 DIIS: error= 4.17D-03 at cycle   4 NSaved=   4.
 NSaved= 4 IEnMin= 4 EnMin= -232.452730346820     IErMin= 4 ErrMin= 4.17D-03
 ErrMax= 4.17D-03  0.00D+00 EMaxC= 1.00D-01 BMatC= 2.07D-03 BMatP= 5.83D-03
 IDIUse=3 WtCom= 9.58D-01 WtEn= 4.17D-02
 Coeff-Com: -0.451D-02 0.812D-01 0.376D+00 0.547D+00
 Coeff-En:   0.000D+00 0.000D+00 0.292D+00 0.708D+00
 Coeff:     -0.432D-02 0.778D-01 0.373D+00 0.554D+00
 Gap=     0.254 Goal=   None    Shift=    0.000
 RMSDP=3.99D-04 MaxDP=1.35D-02 DE=-3.85D-03 OVMax= 2.76D-02

 Cycle   5  Pass 0  IDiag  1:
 E= -232.454711075048     Delta-E=       -0.001980728229 Rises=F Damp=F
 DIIS: error= 1.21D-03 at cycle   5 NSaved=   5.
 NSaved= 5 IEnMin= 5 EnMin= -232.454711075048     IErMin= 5 ErrMin= 1.21D-03
 ErrMax= 1.21D-03  0.00D+00 EMaxC= 1.00D-01 BMatC= 9.86D-05 BMatP= 2.07D-03
 IDIUse=3 WtCom= 9.88D-01 WtEn= 1.21D-02
 Coeff-Com: -0.207D-02 0.191D-01 0.169D+00 0.296D+00 0.518D+00
 Coeff-En:   0.000D+00 0.000D+00 0.000D+00 0.000D+00 0.100D+01
 Coeff:     -0.204D-02 0.188D-01 0.167D+00 0.292D+00 0.524D+00
 Gap=     0.255 Goal=   None    Shift=    0.000
 RMSDP=9.34D-05 MaxDP=2.68D-03 DE=-1.98D-03 OVMax= 3.91D-03

 Cycle   6  Pass 0  IDiag  1:
 E= -232.454782213831     Delta-E=       -0.000071138782 Rises=F Damp=F
 DIIS: error= 2.64D-04 at cycle   6 NSaved=   6.
 NSaved= 6 IEnMin= 6 EnMin= -232.454782213831     IErMin= 6 ErrMin= 2.64D-04
 ErrMax= 2.64D-04  0.00D+00 EMaxC= 1.00D-01 BMatC= 1.07D-05 BMatP= 9.86D-05
 IDIUse=3 WtCom= 9.97D-01 WtEn= 2.64D-03
 Coeff-Com: -0.501D-03-0.350D-03 0.435D-01 0.875D-01 0.291D+00 0.579D+00
 Coeff-En:   0.000D+00 0.000D+00 0.000D+00 0.000D+00 0.667D-01 0.933D+00
 Coeff:     -0.500D-03-0.349D-03 0.434D-01 0.873D-01 0.291D+00 0.580D+00
 Gap=     0.255 Goal=   None    Shift=    0.000
 RMSDP=2.49D-05 MaxDP=6.10D-04 DE=-7.11D-05 OVMax= 6.86D-04

 Cycle   7  Pass 0  IDiag  1:
 E= -232.454790735056     Delta-E=       -0.000008521225 Rises=F Damp=F
 DIIS: error= 1.40D-05 at cycle   7 NSaved=   7.
 NSaved= 7 IEnMin= 7 EnMin= -232.454790735056     IErMin= 7 ErrMin= 1.40D-05
 ErrMax= 1.40D-05  0.00D+00 EMaxC= 1.00D-01 BMatC= 4.12D-08 BMatP= 1.07D-05
 IDIUse=1 WtCom= 1.00D+00 WtEn= 0.00D+00
 Coeff-Com: -0.124D-04-0.536D-03 0.751D-02 0.147D-01 0.621D-01 0.136D+00
 Coeff-Com:  0.781D+00
 Coeff:     -0.124D-04-0.536D-03 0.751D-02 0.147D-01 0.621D-01 0.136D+00
 Coeff:      0.781D+00
 Gap=     0.255 Goal=   None    Shift=    0.000
 RMSDP=2.28D-06 MaxDP=3.97D-05 DE=-8.52D-06 OVMax= 4.93D-05

 Initial convergence to 1.0D-05 achieved.  Increase integral accuracy.
 Cycle   8  Pass 1  IDiag  1:
 E= -232.454819943805     Delta-E=       -0.000029208749 Rises=F Damp=F
 DIIS: error= 1.14D-05 at cycle   1 NSaved=   1.
 NSaved= 1 IEnMin= 1 EnMin= -232.454819943805     IErMin= 1 ErrMin= 1.14D-05
 ErrMax= 1.14D-05  0.00D+00 EMaxC= 1.00D-01 BMatC= 2.28D-08 BMatP= 2.28D-08
 IDIUse=1 WtCom= 1.00D+00 WtEn= 0.00D+00
 Coeff-Com:  0.100D+01
 Coeff:      0.100D+01
 Gap=     0.255 Goal=   None    Shift=    0.000
 RMSDP=2.28D-06 MaxDP=3.97D-05 DE=-2.92D-05 OVMax= 5.49D-05

 Cycle   9  Pass 1  IDiag  1:
 E= -232.454819960743     Delta-E=       -0.000000016938 Rises=F Damp=F
 DIIS: error= 6.71D-06 at cycle   2 NSaved=   2.
 NSaved= 2 IEnMin= 2 EnMin= -232.454819960743     IErMin= 2 ErrMin= 6.71D-06
 ErrMax= 6.71D-06  0.00D+00 EMaxC= 1.00D-01 BMatC= 1.22D-08 BMatP= 2.28D-08
 IDIUse=1 WtCom= 1.00D+00 WtEn= 0.00D+00
 Coeff-Com:  0.401D+00 0.599D+00
 Coeff:      0.401D+00 0.599D+00
 Gap=     0.255 Goal=   None    Shift=    0.000
 RMSDP=1.28D-06 MaxDP=3.41D-05 DE=-1.69D-08 OVMax= 4.85D-05

 Cycle  10  Pass 1  IDiag  1:
 E= -232.454819970456     Delta-E=       -0.000000009713 Rises=F Damp=F
 DIIS: error= 3.72D-06 at cycle   3 NSaved=   3.
 NSaved= 3 IEnMin= 3 EnMin= -232.454819970456     IErMin= 3 ErrMin= 3.72D-06
 ErrMax= 3.72D-06  0.00D+00 EMaxC= 1.00D-01 BMatC= 2.31D-09 BMatP= 1.22D-08
 IDIUse=1 WtCom= 1.00D+00 WtEn= 0.00D+00
 Coeff-Com:  0.729D-02 0.296D+00 0.697D+00
 Coeff:      0.729D-02 0.296D+00 0.697D+00
 Gap=     0.255 Goal=   None    Shift=    0.000
 RMSDP=5.36D-07 MaxDP=1.65D-05 DE=-9.71D-09 OVMax= 3.10D-05

 Cycle  11  Pass 1  IDiag  1:
 E= -232.454819972093     Delta-E=       -0.000000001638 Rises=F Damp=F
 DIIS: error= 2.67D-06 at cycle   4 NSaved=   4.
 NSaved= 4 IEnMin= 4 EnMin= -232.454819972093     IErMin= 4 ErrMin= 2.67D-06
 ErrMax= 2.67D-06  0.00D+00 EMaxC= 1.00D-01 BMatC= 6.11D-10 BMatP= 2.31D-09
 IDIUse=1 WtCom= 1.00D+00 WtEn= 0.00D+00
 Coeff-Com: -0.184D-01 0.160D+00 0.463D+00 0.396D+00
 Coeff:     -0.184D-01 0.160D+00 0.463D+00 0.396D+00
 Gap=     0.255 Goal=   None    Shift=    0.000
 RMSDP=2.07D-07 MaxDP=5.77D-06 DE=-1.64D-09 OVMax= 1.28D-05

 Cycle  12  Pass 1  IDiag  1:
 E= -232.454819972685     Delta-E=       -0.000000000592 Rises=F Damp=F
 DIIS: error= 1.30D-07 at cycle   5 NSaved=   5.
 NSaved= 5 IEnMin= 5 EnMin= -232.454819972685     IErMin= 5 ErrMin= 1.30D-07
 ErrMax= 1.30D-07  0.00D+00 EMaxC= 1.00D-01 BMatC= 2.59D-12 BMatP= 6.11D-10
 IDIUse=1 WtCom= 1.00D+00 WtEn= 0.00D+00
 Coeff-Com: -0.633D-02 0.431D-01 0.129D+00 0.128D+00 0.706D+00
 Coeff:     -0.633D-02 0.431D-01 0.129D+00 0.128D+00 0.706D+00
 Gap=     0.255 Goal=   None    Shift=    0.000
 RMSDP=2.10D-08 MaxDP=3.55D-07 DE=-5.92D-10 OVMax= 5.94D-07

 Cycle  13  Pass 1  IDiag  1:
 E= -232.454819972688     Delta-E=       -0.000000000002 Rises=F Damp=F
 DIIS: error= 3.15D-08 at cycle   6 NSaved=   6.
 NSaved= 6 IEnMin= 6 EnMin= -232.454819972688     IErMin= 6 ErrMin= 3.15D-08
 ErrMax= 3.15D-08  0.00D+00 EMaxC= 1.00D-01 BMatC= 2.14D-13 BMatP= 2.59D-12
 IDIUse=1 WtCom= 1.00D+00 WtEn= 0.00D+00
 Coeff-Com: -0.140D-02 0.776D-02 0.234D-01 0.245D-01 0.251D+00 0.695D+00
 Coeff:     -0.140D-02 0.776D-02 0.234D-01 0.245D-01 0.251D+00 0.695D+00
 Gap=     0.255 Goal=   None    Shift=    0.000
 RMSDP=5.02D-09 MaxDP=1.13D-07 DE=-2.16D-12 OVMax= 1.89D-07

 SCF Done:  E(RB3LYP) =  -232.454819973     A.U. after   13 cycles
            NFock= 13  Conv=0.50D-08     -V/T= 2.0094
 KE= 2.302889502652D+02 PE=-8.917475382337D+02 EE= 2.536580356305D+02
 Leave Link  502 at Thu Sep  8 14:56:44 2022, MaxMem= 24159191040 cpu:        32.4
 (Enter /public/home/users/caep010/software/Gaussian09/g09/l601.exe)
 Copying SCF densities to generalized density rwf, IOpCl= 0 IROHF=0.

 **********************************************************************

            Population analysis using the SCF density.

 **********************************************************************

 Orbital symmetries:
       Occupied  (A) (A) (A) (A) (A) (A) (A) (A) (A) (A) (A) (A)
                 (A) (A) (A) (A) (A) (A) (A) (A)
       Virtual   (A) (A) (A) (A) (A) (A) (A) (A) (A) (A) (A) (A)
                 (A) (A) (A) (A) (A) (A) (A) (A) (A) (A) (A) (A)
                 (A) (A) (A) (A) (A) (A) (A) (A) (A) (A) (A) (A)
                 (A) (A) (A) (A) (A) (A) (A) (A) (A) (A) (A) (A)
                 (A) (A) (A) (A) (A) (A) (A) (A) (A) (A) (A) (A)
                 (A) (A) (A) (A) (A) (A) (A) (A) (A) (A) (A) (A)
                 (A) (A) (A) (A) (A) (A) (A) (A) (A) (A) (A) (A)
                 (A) (A) (A) (A) (A) (A) (A) (A) (A) (A) (A)
 The electronic state is 1-A.
 Alpha  occ. eigenvalues --  -19.16534 -10.22226 -10.17448 -10.17186 -10.16712
 Alpha  occ. eigenvalues --   -1.04288  -0.79142  -0.68211  -0.66878  -0.53825
 Alpha  occ. eigenvalues --   -0.51997  -0.44627  -0.42134  -0.39109  -0.37442
 Alpha  occ. eigenvalues --   -0.36648  -0.36385  -0.35179  -0.32949  -0.20184
 Alpha virt. eigenvalues --    0.05303   0.06808   0.11084   0.14217   0.16447
 Alpha virt. eigenvalues --    0.16729   0.18507   0.19468   0.21892   0.23538
 Alpha virt. eigenvalues --    0.24903   0.32972   0.43546   0.50619   0.52422
 Alpha virt. eigenvalues --    0.55774   0.56863   0.58398   0.61905   0.65806
 Alpha virt. eigenvalues --    0.66497   0.73449   0.73817   0.76460   0.77999
 Alpha virt. eigenvalues --    0.82005   0.83936   0.85697   0.88501   0.88536
 Alpha virt. eigenvalues --    0.90866   0.92876   0.94849   0.96108   0.96623
 Alpha virt. eigenvalues --    1.13851   1.19747   1.22189   1.29858   1.31124
 Alpha virt. eigenvalues --    1.32254   1.42304   1.42374   1.51561   1.60769
 Alpha virt. eigenvalues --    1.68678   1.72834   1.78195   1.79328   1.81938
 Alpha virt. eigenvalues --    1.85561   1.87574   1.97012   2.04194   2.05241
 Alpha virt. eigenvalues --    2.05966   2.08135   2.10357   2.12248   2.13799
 Alpha virt. eigenvalues --    2.16452   2.22546   2.29664   2.35965   2.36748
 Alpha virt. eigenvalues --    2.38123   2.44542   2.49300   2.51707   2.58669
 Alpha virt. eigenvalues --    2.60036   2.65295   2.70294   2.70908   2.72331
 Alpha virt. eigenvalues --    2.78092   2.84298   2.85763   2.91439   2.94909
 Alpha virt. eigenvalues --    3.03567   3.12800   3.18733   3.24374   3.37947
 Alpha virt. eigenvalues --    3.41600   3.44146   3.45754   3.50864   3.59450
 Alpha virt. eigenvalues --    4.00180   4.17682   4.39578   4.50475   4.64152
          Condensed to atoms (all electrons):
               1          2          3          4          5          6
     1  C    4.978587   0.373969  -0.072981  -0.042756  -0.009282   0.374300
     2  C    0.373969   4.751675   0.395247   0.666836  -0.050537  -0.033971
     3  C   -0.072981   0.395247   4.960973  -0.032057   0.002717  -0.002459
     4  C   -0.042756   0.666836  -0.032057   4.742161   0.255975   0.000383
     5  O   -0.009282  -0.050537   0.002717   0.255975   8.062525   0.000414
     6  H    0.374300  -0.033971  -0.002459   0.000383   0.000414   0.619659
     7  H    0.374315  -0.033964  -0.002452   0.000367   0.000414  -0.039019
     8  H    0.379951  -0.025647   0.004690  -0.010034   0.008885  -0.028358
     9  H    0.005073  -0.027286   0.371095  -0.008376   0.000012  -0.000043
    10  H   -0.001742  -0.037319   0.374050  -0.000732  -0.000023  -0.000957
    11  H   -0.001746  -0.037329   0.374049  -0.000718  -0.000023   0.004794
    12  H    0.007228  -0.053954  -0.010933   0.362446  -0.048218  -0.000172
    13  H    0.000225   0.007743  -0.000223  -0.024884   0.292172  -0.000008
               7          8          9         10         11         12
     1  C    0.374315   0.379951   0.005073  -0.001742  -0.001746   0.007228
     2  C   -0.033964  -0.025647  -0.027286  -0.037319  -0.037329  -0.053954
     3  C   -0.002452   0.004690   0.371095   0.374050   0.374049  -0.010933
     4  C    0.000367  -0.010034  -0.008376  -0.000732  -0.000718   0.362446
     5  O    0.000414   0.008885   0.000012  -0.000023  -0.000023  -0.048218
     6  H   -0.039019  -0.028358  -0.000043  -0.000957   0.004794  -0.000172
     7  H    0.619628  -0.028362  -0.000043   0.004790  -0.000956  -0.000173
     8  H   -0.028362   0.570398  -0.000191  -0.000036  -0.000035   0.000328
     9  H   -0.000043  -0.000191   0.613500  -0.029913  -0.029900   0.007624
    10  H    0.004790  -0.000036  -0.029913   0.629136  -0.044266   0.000103
    11  H   -0.000956  -0.000035  -0.029900  -0.044266   0.629124   0.000105
    12  H   -0.000173   0.000328   0.007624   0.000103   0.000105   0.671126
    13  H   -0.000008  -0.000303  -0.000010   0.000004   0.000004  -0.011058
              13
     1  C    0.000225
     2  C    0.007743
     3  C   -0.000223
     4  C   -0.024884
     5  O    0.292172
     6  H   -0.000008
     7  H   -0.000008
     8  H   -0.000303
     9  H   -0.000010
    10  H    0.000004
    11  H    0.000004
    12  H   -0.011058
    13  H    0.417811
 Mulliken charges:
               1
     1  C   -0.365141
     2  C    0.104537
     3  C   -0.361715
     4  C    0.091390
     5  O   -0.515030
     6  H    0.105435
     7  H    0.105462
     8  H    0.128714
     9  H    0.098460
    10  H    0.106906
    11  H    0.106898
    12  H    0.075548
    13  H    0.318537
 Sum of Mulliken charges =  -0.00000
 Mulliken charges with hydrogens summed into heavy atoms:
               1
     1  C   -0.025529
     2  C    0.104537
     3  C   -0.049452
     4  C    0.166937
     5  O   -0.196493
 Electronic spatial extent (au):  <R**2>=            489.1601
 Charge=             -0.0000 electrons
 Dipole moment (field-independent basis, Debye):
    X=              0.5907    Y=             -1.4341    Z=             -0.0032  Tot=              1.5510
 Quadrupole moment (field-independent basis, Debye-Ang):
   XX=            -26.9467   YY=            -29.6033   ZZ=            -32.7728
   XY=             -4.0217   XZ=             -0.0102   YZ=              0.0022
 Traceless Quadrupole moment (field-independent basis, Debye-Ang):
   XX=              2.8276   YY=              0.1709   ZZ=             -2.9985
   XY=             -4.0217   XZ=             -0.0102   YZ=              0.0022
 Octapole moment (field-independent basis, Debye-Ang**2):
  XXX=             27.2249  YYY=             -3.4433  ZZZ=              0.0006  XYY=              6.7089
  XXY=             -9.4776  XXZ=             -0.0280  XZZ=              1.6911  YZZ=              0.8690
  YYZ=             -0.0014  XYZ=              0.0064
 Hexadecapole moment (field-independent basis, Debye-Ang**3):
 XXXX=           -313.0160 YYYY=           -210.8748 ZZZZ=            -45.6466 XXXY=            -28.9167
 XXXZ=             -0.0726 YYYX=             -3.5378 YYYZ=              0.0018 ZZZX=             -0.0048
 ZZZY=              0.0022 XXYY=            -91.3203 XXZZ=            -68.3005 YYZZ=            -43.8700
 XXYZ=              0.0158 YYXZ=             -0.0057 ZZXY=             -1.8334
 N-N= 1.753457323653D+02 E-N=-8.917475347503D+02  KE= 2.302889502652D+02
 No NMR shielding tensors so no spin-rotation constants.
 Leave Link  601 at Thu Sep  8 14:56:45 2022, MaxMem= 24159191040 cpu:        13.6
 (Enter /public/home/users/caep010/software/Gaussian09/g09/l701.exe)
 Compute integral first derivatives.
 ... and contract with generalized density number  0.
 Leave Link  701 at Thu Sep  8 14:56:45 2022, MaxMem= 24159191040 cpu:        11.5
 (Enter /public/home/users/caep010/software/Gaussian09/g09/l702.exe)
 L702 exits ... SP integral derivatives will be done elsewhere.
 Leave Link  702 at Thu Sep  8 14:56:45 2022, MaxMem= 24159191040 cpu:         0.5
 (Enter /public/home/users/caep010/software/Gaussian09/g09/l703.exe)
 Compute integral first derivatives, UseDBF=F ICtDFT=           0.
 Integral derivatives from FoFJK, PRISM(SPDF).
 Calling FoFJK, ICntrl=      2127 FMM=F ISym2X=0 I1Cent= 0 IOpClX= 0 NMat=1 NMatS=1 NMatT=0.
 FoFJK:  IHMeth= 1 ICntrl=    2127 DoSepK=F KAlg= 0 I1Cent=   0 FoldK=F
 IRaf=         0 NMat=   1 IRICut=       1 DoRegI=T DoRafI=F ISym2E= 0.
 FoFCou: FMM=F IPFlag=           0 FMFlag=      100000 FMFlg1=         800
         NFxFlg=           0 DoJE=F BraDBF=F KetDBF=F FulRan=T
         wScrn=  0.000000 ICntrl=    2127 IOpCl=  0 I1Cent=           0 NGrid=           0
         NMat0=    1 NMatS0=      1 NMatT0=    0 NMatD0=    1 NMtDS0=    0 NMtDT0=    0
 Symmetry not used in FoFCou.
 Leave Link  703 at Thu Sep  8 14:56:46 2022, MaxMem= 24159191040 cpu:        10.1
 (Enter /public/home/users/caep010/software/Gaussian09/g09/l716.exe)
 Dipole        = 2.32383535D-01-5.64216978D-01-1.26843866D-03
 ***** Axes restored to original set *****
 -------------------------------------------------------------------
 Center     Atomic                   Forces (Hartrees/Bohr)
 Number     Number              X              Y              Z
 -------------------------------------------------------------------
      1        6           0.000324222   -0.000474133   -0.000373476
      2        6           0.003524095    0.002081360   -0.001615744
      3        6          -0.000084609    0.000743116    0.000328331
      4        6          -0.002991256    0.000520055    0.002139594
      5        8           0.002642196   -0.002368781   -0.002531892
      6        1          -0.000107417    0.000044421   -0.000130259
      7        1           0.000080797   -0.000055994    0.000146099
      8        1           0.000082682   -0.000142610   -0.000099703
      9        1          -0.000064142    0.000321148    0.000141388
     10        1           0.000025059   -0.000041139    0.000126439
     11        1          -0.000115681    0.000028182   -0.000077019
     12        1          -0.000365245    0.000613852    0.000448554
     13        1          -0.002950702   -0.001269478    0.001497689
 -------------------------------------------------------------------
 Cartesian Forces:  Max     0.003524095 RMS     0.001309083
 Leave Link  716 at Thu Sep  8 14:56:46 2022, MaxMem= 24159191040 cpu:         0.7
 (Enter /public/home/users/caep010/software/Gaussian09/g09/l103.exe)

 GradGradGradGradGradGradGradGradGradGradGradGradGradGradGradGradGradGrad
 Berny optimization.
 FormGI is forming the generalized inverse of G from B-inverse, IUseBI=4.
 Internal  Forces:  Max     0.004705959 RMS     0.001038242
 Search for a local minimum.
 Step number   1 out of a maximum of   59
 All quantities printed in internal units (Hartrees-Bohrs-Radians)
 RMS Force = .10382D-02 SwitMx=.10000D-02 MixMth= 1
 Mixed Optimization -- RFO/linear search
 Second derivative matrix not updated -- first step.
 ITU=  0
     Eigenvalues ---    0.00708   0.00713   0.01311   0.02056   0.02687
     Eigenvalues ---    0.02971   0.07012   0.07067   0.07170   0.07247
     Eigenvalues ---    0.16000   0.16000   0.16000   0.16000   0.16000
     Eigenvalues ---    0.16000   0.16000   0.16000   0.22000   0.25000
     Eigenvalues ---    0.25000   0.31919   0.31958   0.33851   0.33852
     Eigenvalues ---    0.33890   0.33890   0.34316   0.34670   0.35047
     Eigenvalues ---    0.50509   0.55581   0.58728
 RFO step:  Lambda=-1.03122055D-04 EMin= 7.07640137D-03
 Linear search not attempted -- first point.
 Iteration  1 RMS(Cart)=  0.00382605 RMS(Int)=  0.00000238
 Iteration  2 RMS(Cart)=  0.00000495 RMS(Int)=  0.00000009
 Iteration  3 RMS(Cart)=  0.00000000 RMS(Int)=  0.00000009
 ITry= 1 IFail=0 DXMaxC= 1.58D-02 DCOld= 1.00D+10 DXMaxT= 3.00D-01 DXLimC= 3.00D+00 Rises=F
 Variable       Old X    -DE/DX   Delta X   Delta X   Delta X     New X
                                 (Linear)    (Quad)   (Total)
    R1        2.84292   0.00079   0.00000   0.00247   0.00247   2.84539
    R2        2.07516   0.00013   0.00000   0.00037   0.00037   2.07554
    R3        2.07516   0.00013   0.00000   0.00038   0.00038   2.07554
    R4        2.06214   0.00015   0.00000   0.00042   0.00042   2.06256
    R5        2.84220   0.00112   0.00000   0.00349   0.00349   2.84570
    R6        2.51961   0.00471   0.00000   0.00801   0.00801   2.52762
    R7        2.06799   0.00023   0.00000   0.00066   0.00066   2.06866
    R8        2.07582   0.00008   0.00000   0.00023   0.00023   2.07605
    R9        2.07580   0.00008   0.00000   0.00023   0.00023   2.07604
   R10        2.59355   0.00377   0.00000   0.00747   0.00747   2.60102
   R11        2.05599   0.00077   0.00000   0.00221   0.00221   2.05820
   R12        1.81319   0.00355   0.00000   0.00638   0.00638   1.81957
    A1        1.93744  -0.00010   0.00000  -0.00055  -0.00055   1.93689
    A2        1.93741  -0.00009   0.00000  -0.00049  -0.00049   1.93692
    A3        1.94881   0.00019   0.00000   0.00105   0.00105   1.94985
    A4        1.85784   0.00013   0.00000   0.00104   0.00104   1.85888
    A5        1.88952  -0.00006   0.00000  -0.00051  -0.00051   1.88901
    A6        1.88954  -0.00007   0.00000  -0.00055  -0.00055   1.88899
    A7        2.04602   0.00049   0.00000   0.00196   0.00196   2.04797
    A8        2.13585  -0.00035   0.00000  -0.00142  -0.00142   2.13444
    A9        2.10132  -0.00014   0.00000  -0.00054  -0.00054   2.10078
   A10        1.95477   0.00040   0.00000   0.00253   0.00253   1.95730
   A11        1.94356  -0.00011   0.00000  -0.00065  -0.00065   1.94291
   A12        1.94362  -0.00011   0.00000  -0.00072  -0.00072   1.94290
   A13        1.88043  -0.00015   0.00000  -0.00090  -0.00090   1.87953
   A14        1.88060  -0.00016   0.00000  -0.00102  -0.00102   1.87958
   A15        1.85643   0.00011   0.00000   0.00064   0.00064   1.85707
   A16        2.14361  -0.00039   0.00000  -0.00178  -0.00178   2.14183
   A17        2.11920  -0.00016   0.00000  -0.00134  -0.00134   2.11786
   A18        2.02037   0.00055   0.00000   0.00313   0.00313   2.02350
   A19        1.89959   0.00027   0.00000   0.00168   0.00168   1.90127
    D1       -1.03097  -0.00002   0.00000  -0.00032  -0.00032  -1.03129
    D2        2.11068  -0.00002   0.00000  -0.00028  -0.00028   2.11041
    D3        1.03174   0.00002   0.00000   0.00031   0.00031   1.03206
    D4       -2.10979   0.00002   0.00000   0.00035   0.00035  -2.10944
    D5       -3.14121  -0.00000   0.00000  -0.00000  -0.00000  -3.14121
    D6        0.00045   0.00000   0.00000   0.00004   0.00004   0.00048
    D7       -3.14159  -0.00000   0.00000  -0.00006  -0.00006   3.14154
    D8       -1.03459   0.00001   0.00000   0.00008   0.00008  -1.03451
    D9        1.03435  -0.00000   0.00000  -0.00000  -0.00000   1.03435
   D10       -0.00005  -0.00000   0.00000  -0.00010  -0.00010  -0.00015
   D11        2.10694   0.00001   0.00000   0.00005   0.00005   2.10699
   D12       -2.10730  -0.00000   0.00000  -0.00004  -0.00004  -2.10734
   D13        0.00033  -0.00000   0.00000  -0.00004  -0.00004   0.00028
   D14       -3.14156  -0.00000   0.00000  -0.00005  -0.00005   3.14158
   D15       -3.14120  -0.00000   0.00000  -0.00000  -0.00000  -3.14120
   D16        0.00010  -0.00000   0.00000  -0.00001  -0.00001   0.00009
   D17       -3.13955  -0.00000   0.00000  -0.00007  -0.00007  -3.13962
   D18        0.00231  -0.00000   0.00000  -0.00006  -0.00006   0.00226
         Item               Value     Threshold  Converged?
 Maximum Force            0.004706     0.000450     NO 
 RMS     Force            0.001038     0.000300     NO 
 Maximum Displacement     0.015809     0.001800     NO 
 RMS     Displacement     0.003827     0.001200     NO 
 Predicted change in Energy=-5.157248D-05
 Lowest energy point so far.  Saving SCF results.
 GradGradGradGradGradGradGradGradGradGradGradGradGradGradGradGradGradGrad

 Leave Link  103 at Thu Sep  8 14:56:46 2022, MaxMem= 24159191040 cpu:         1.6
 (Enter /public/home/users/caep010/software/Gaussian09/g09/l202.exe)
                          Input orientation:                          
 ---------------------------------------------------------------------
 Center     Atomic      Atomic             Coordinates (Angstroms)
 Number     Number       Type             X           Y           Z
 ---------------------------------------------------------------------
      1          6           0        1.073666   -0.504662   -0.875885
      2          6           0        0.020318    0.093451    0.018484
      3          6           0        0.181106    1.540022    0.404812
      4          6           0       -1.024403   -0.613216    0.463732
      5          8           0       -1.218605   -1.937215    0.141562
      6          1           0        1.138355    0.041280   -1.826717
      7          1           0        2.066737   -0.440622   -0.411093
      8          1           0        0.867375   -1.553277   -1.097547
      9          1           0       -0.629351    1.886253    1.054136
     10          1           0        1.128600    1.709051    0.934533
     11          1           0        0.200432    2.190126   -0.480567
     12          1           0       -1.777528   -0.164819    1.110261
     13          1           0       -2.026600   -2.246372    0.564288
 ---------------------------------------------------------------------
                    Distance matrix (angstroms):
                    1          2          3          4          5
     1  C    0.000000
     2  C    1.505714   0.000000
     3  C    2.572466   1.505879   0.000000
     4  C    2.491636   1.337560   2.468432   0.000000
     5  O    2.888236   2.381949   3.757614   1.376401   0.000000
     6  H    1.098326   2.158122   2.853467   3.217459   3.652920
     7  H    1.098327   2.158147   2.853815   3.217181   3.652217
     8  H    1.091459   2.162116   3.506644   2.626810   2.456443
     9  H    3.513078   2.169973   1.094686   2.598458   3.974785
    10  H    2.860272   2.162775   1.098599   3.201561   4.408336
    11  H    2.860191   2.162762   1.098592   3.201663   4.408588
    12  H    3.491357   2.119182   2.690797   1.089154   2.095748
    13  H    3.836574   3.156351   4.385907   1.918778   0.962877
                    6          7          8          9         10
     6  H    0.000000
     7  H    1.760146   0.000000
     8  H    1.774185   1.774173   0.000000
     9  H    3.850717   3.850991   4.324384   0.000000
    10  H    3.225841   2.704053   3.852320   1.770902   0.000000
    11  H    2.703581   3.226260   3.852083   1.770930   1.759385
    12  H    4.143753   4.143544   3.714532   2.351245   3.462347
    13  H    4.578995   4.579029   3.408397   4.389857   5.073237
                   11         12         13
    11  H    0.000000
    12  H    3.462489   0.000000
    13  H    5.072860   2.166330   0.000000
 Stoichiometry    C4H8O
 Framework group  C1[X(C4H8O)]
 Deg. of freedom    33
 Full point group                 C1      NOp   1
 RotChk:  IX=0 Diff= 2.21D-03
 Largest Abelian subgroup         C1      NOp   1
 Largest concise Abelian subgroup C1      NOp   1
                         Standard orientation:                         
 ---------------------------------------------------------------------
 Center     Atomic      Atomic             Coordinates (Angstroms)
 Number     Number       Type             X           Y           Z
 ---------------------------------------------------------------------
      1          6           0       -0.518056    1.474703   -0.000065
      2          6           0       -0.419073   -0.027754   -0.000069
      3          6           0       -1.708378   -0.805805    0.000039
      4          6           0        0.756119   -0.666494   -0.000052
      5          8           0        1.962760   -0.004302    0.000301
      6          1           0       -1.069674    1.832384   -0.879895
      7          1           0       -1.068848    1.832468    0.880251
      8          1           0        0.467179    1.944376   -0.000536
      9          1           0       -1.537799   -1.887119   -0.000025
     10          1           0       -2.320470   -0.564477    0.879825
     11          1           0       -2.320677   -0.564351   -0.879560
     12          1           0        0.809694   -1.754330   -0.000041
     13          1           0        2.674845   -0.652425   -0.001549
 ---------------------------------------------------------------------
 Rotational constants (GHZ):      8.3280582      3.7343639      2.6630587
 Leave Link  202 at Thu Sep  8 14:56:46 2022, MaxMem= 24159191040 cpu:         0.2
 (Enter /public/home/users/caep010/software/Gaussian09/g09/l301.exe)
 Standard basis: 6-31G(d,p) (6D, 7F)
 Ernie: Thresh=  0.10000D-02 Tol=  0.10000D-05 Strict=F.
 There are   115 symmetry adapted cartesian basis functions of A   symmetry.
 There are   115 symmetry adapted basis functions of A   symmetry.
   115 basis functions,   196 primitive gaussians,   115 cartesian basis functions
    20 alpha electrons       20 beta electrons
       nuclear repulsion energy       175.0445052222 Hartrees.
 IExCor=  402 DFT=T Ex+Corr=B3LYP ExCW=0 ScaHFX=  0.200000
 ScaDFX=  0.800000  0.720000  1.000000  0.810000 ScalE2=  1.000000  1.000000
 IRadAn=      0 IRanWt=     -1 IRanGd=            0 ICorTp=0 IEmpDi=  4
 NAtoms=   13 NActive=   13 NUniq=   13 SFac= 1.00D+00 NAtFMM=   60 NAOKFM=F Big=F
 Integral buffers will be    131072 words long.
 Raffenetti 2 integral format.
 Two-electron integral symmetry is turned on.
 Leave Link  301 at Thu Sep  8 14:56:46 2022, MaxMem= 24159191040 cpu:         1.9
 (Enter /public/home/users/caep010/software/Gaussian09/g09/l302.exe)
 NPDir=0 NMtPBC=     1 NCelOv=     1 NCel=       1 NClECP=     1 NCelD=      1
         NCelK=      1 NCelE2=     1 NClLst=     1 CellRange=     0.0.
 One-electron integrals computed using PRISM.
 NBasis=   115 RedAO= T EigKep=  2.62D-03  NBF=   115
 NBsUse=   115 1.00D-06 EigRej= -1.00D+00 NBFU=   115
 Precomputing XC quadrature grid using
 IXCGrd= 4 IRadAn=           0 IRanWt=          -1 IRanGd=           0 AccXCQ= 0.00D+00.
 Generated NRdTot=       0 NPtTot=           0 NUsed=           0 NTot=          32
 NSgBfM=   115   115   115   115   115 MxSgAt=    13 MxSgA2=    13.
 Leave Link  302 at Thu Sep  8 14:56:46 2022, MaxMem= 24159191040 cpu:        10.8
 (Enter /public/home/users/caep010/software/Gaussian09/g09/l303.exe)
 DipDrv:  MaxL=1.
 Leave Link  303 at Thu Sep  8 14:56:46 2022, MaxMem= 24159191040 cpu:         0.9
 (Enter /public/home/users/caep010/software/Gaussian09/g09/l401.exe)
 Initial guess from the checkpoint file:  "B3LYP6-31Gdp.Frag_554.chk"
 B after Tr=    -0.000000    0.000000    0.000000
         Rot=    1.000000    0.000001    0.000000    0.000693 Ang=   0.08 deg.
 Guess basis will be translated and rotated to current coordinates.
 JPrj=2 DoOrth=T DoCkMO=T.
 Leave Link  401 at Thu Sep  8 14:56:47 2022, MaxMem= 24159191040 cpu:         3.3
 (Enter /public/home/users/caep010/software/Gaussian09/g09/l502.exe)
 Closed shell SCF:
 Using DIIS extrapolation, IDIIS=  1040.
 Integral symmetry usage will be decided dynamically.
 Keep R1 ints in memory in canonical form, NReq=23246455.
 IVT=       62780 IEndB=       62780 NGot= 24159191040 MDV= 24136880476
 LenX= 24136880476 LenY= 24136866810
 Requested convergence on RMS density matrix=1.00D-08 within 128 cycles.
 Requested convergence on MAX density matrix=1.00D-06.
 Requested convergence on             energy=1.00D-06.
 No special actions if energy rises.
 FoFCou: FMM=F IPFlag=           0 FMFlag=           0 FMFlg1=           0
         NFxFlg=           0 DoJE=F BraDBF=F KetDBF=F FulRan=T
         wScrn=  0.000000 ICntrl=     600 IOpCl=  0 I1Cent=           0 NGrid=           0
         NMat0=    1 NMatS0=   6670 NMatT0=    0 NMatD0=    1 NMtDS0=    0 NMtDT0=    0
 Symmetry not used in FoFCou.

 Cycle   1  Pass 1  IDiag  1:
 E= -232.454852457241    
 DIIS: error= 3.20D-04 at cycle   1 NSaved=   1.
 NSaved= 1 IEnMin= 1 EnMin= -232.454852457241     IErMin= 1 ErrMin= 3.20D-04
 ErrMax= 3.20D-04  0.00D+00 EMaxC= 1.00D-01 BMatC= 1.37D-05 BMatP= 1.37D-05
 IDIUse=3 WtCom= 9.97D-01 WtEn= 3.20D-03
 Coeff-Com:  0.100D+01
 Coeff-En:   0.100D+01
 Coeff:      0.100D+01
 Gap=     2.179 Goal=   None    Shift=    0.000
 RMSDP=5.72D-05 MaxDP=1.32D-03              OVMax= 1.19D-03

 Cycle   2  Pass 1  IDiag  1:
 E= -232.454867574706     Delta-E=       -0.000015117464 Rises=F Damp=F
 DIIS: error= 1.30D-04 at cycle   2 NSaved=   2.
 NSaved= 2 IEnMin= 2 EnMin= -232.454867574706     IErMin= 2 ErrMin= 1.30D-04
 ErrMax= 1.30D-04  0.00D+00 EMaxC= 1.00D-01 BMatC= 2.69D-06 BMatP= 1.37D-05
 IDIUse=3 WtCom= 9.99D-01 WtEn= 1.30D-03
 Coeff-Com:  0.237D+00 0.763D+00
 Coeff-En:   0.000D+00 0.100D+01
 Coeff:      0.237D+00 0.763D+00
 Gap=     0.254 Goal=   None    Shift=    0.000
 RMSDP=2.35D-05 MaxDP=4.95D-04 DE=-1.51D-05 OVMax= 7.82D-04

 Cycle   3  Pass 1  IDiag  1:
 E= -232.454868851566     Delta-E=       -0.000001276861 Rises=F Damp=F
 DIIS: error= 9.94D-05 at cycle   3 NSaved=   3.
 NSaved= 3 IEnMin= 3 EnMin= -232.454868851566     IErMin= 3 ErrMin= 9.94D-05
 ErrMax= 9.94D-05  0.00D+00 EMaxC= 1.00D-01 BMatC= 1.28D-06 BMatP= 2.69D-06
 IDIUse=1 WtCom= 1.00D+00 WtEn= 0.00D+00
 Coeff-Com: -0.285D-02 0.405D+00 0.598D+00
 Coeff:     -0.285D-02 0.405D+00 0.598D+00
 Gap=     0.254 Goal=   None    Shift=    0.000
 RMSDP=1.16D-05 MaxDP=2.61D-04 DE=-1.28D-06 OVMax= 5.11D-04

 Cycle   4  Pass 1  IDiag  1:
 E= -232.454869915086     Delta-E=       -0.000001063520 Rises=F Damp=F
 DIIS: error= 3.82D-05 at cycle   4 NSaved=   4.
 NSaved= 4 IEnMin= 4 EnMin= -232.454869915086     IErMin= 4 ErrMin= 3.82D-05
 ErrMax= 3.82D-05  0.00D+00 EMaxC= 1.00D-01 BMatC= 1.16D-07 BMatP= 1.28D-06
 IDIUse=1 WtCom= 1.00D+00 WtEn= 0.00D+00
 Coeff-Com: -0.930D-02 0.203D+00 0.358D+00 0.448D+00
 Coeff:     -0.930D-02 0.203D+00 0.358D+00 0.448D+00
 Gap=     0.254 Goal=   None    Shift=    0.000
 RMSDP=3.43D-06 MaxDP=1.07D-04 DE=-1.06D-06 OVMax= 2.03D-04

 Cycle   5  Pass 1  IDiag  1:
 E= -232.454870019730     Delta-E=       -0.000000104643 Rises=F Damp=F
 DIIS: error= 5.48D-06 at cycle   5 NSaved=   5.
 NSaved= 5 IEnMin= 5 EnMin= -232.454870019730     IErMin= 5 ErrMin= 5.48D-06
 ErrMax= 5.48D-06  0.00D+00 EMaxC= 1.00D-01 BMatC= 7.10D-09 BMatP= 1.16D-07
 IDIUse=1 WtCom= 1.00D+00 WtEn= 0.00D+00
 Coeff-Com: -0.454D-02 0.413D-01 0.975D-01 0.231D+00 0.635D+00
 Coeff:     -0.454D-02 0.413D-01 0.975D-01 0.231D+00 0.635D+00
 Gap=     0.254 Goal=   None    Shift=    0.000
 RMSDP=8.77D-07 MaxDP=2.30D-05 DE=-1.05D-07 OVMax= 3.87D-05

 Cycle   6  Pass 1  IDiag  1:
 E= -232.454870026596     Delta-E=       -0.000000006866 Rises=F Damp=F
 DIIS: error= 1.27D-06 at cycle   6 NSaved=   6.
 NSaved= 6 IEnMin= 6 EnMin= -232.454870026596     IErMin= 6 ErrMin= 1.27D-06
 ErrMax= 1.27D-06  0.00D+00 EMaxC= 1.00D-01 BMatC= 2.75D-10 BMatP= 7.10D-09
 IDIUse=1 WtCom= 1.00D+00 WtEn= 0.00D+00
 Coeff-Com: -0.136D-02 0.891D-02 0.270D-01 0.809D-01 0.272D+00 0.613D+00
 Coeff:     -0.136D-02 0.891D-02 0.270D-01 0.809D-01 0.272D+00 0.613D+00
 Gap=     0.254 Goal=   None    Shift=    0.000
 RMSDP=1.81D-07 MaxDP=6.14D-06 DE=-6.87D-09 OVMax= 9.10D-06

 Cycle   7  Pass 1  IDiag  1:
 E= -232.454870026802     Delta-E=       -0.000000000206 Rises=F Damp=F
 DIIS: error= 7.81D-07 at cycle   7 NSaved=   7.
 NSaved= 7 IEnMin= 7 EnMin= -232.454870026802     IErMin= 7 ErrMin= 7.81D-07
 ErrMax= 7.81D-07  0.00D+00 EMaxC= 1.00D-01 BMatC= 6.54D-11 BMatP= 2.75D-10
 IDIUse=1 WtCom= 1.00D+00 WtEn= 0.00D+00
 Coeff-Com: -0.211D-03-0.115D-02 0.123D-02 0.138D-01 0.622D-01 0.352D+00
 Coeff-Com:  0.572D+00
 Coeff:     -0.211D-03-0.115D-02 0.123D-02 0.138D-01 0.622D-01 0.352D+00
 Coeff:      0.572D+00
 Gap=     0.254 Goal=   None    Shift=    0.000
 RMSDP=5.53D-08 MaxDP=1.92D-06 DE=-2.06D-10 OVMax= 2.43D-06

 Cycle   8  Pass 1  IDiag  1:
 E= -232.454870026858     Delta-E=       -0.000000000055 Rises=F Damp=F
 DIIS: error= 7.85D-08 at cycle   8 NSaved=   8.
 NSaved= 8 IEnMin= 8 EnMin= -232.454870026858     IErMin= 8 ErrMin= 7.85D-08
 ErrMax= 7.85D-08  0.00D+00 EMaxC= 1.00D-01 BMatC= 1.14D-12 BMatP= 6.54D-11
 IDIUse=1 WtCom= 1.00D+00 WtEn= 0.00D+00
 Coeff-Com: -0.144D-04-0.785D-03-0.846D-03 0.160D-02 0.909D-02 0.963D-01
 Coeff-Com:  0.190D+00 0.704D+00
 Coeff:     -0.144D-04-0.785D-03-0.846D-03 0.160D-02 0.909D-02 0.963D-01
 Coeff:      0.190D+00 0.704D+00
 Gap=     0.254 Goal=   None    Shift=    0.000
 RMSDP=1.05D-08 MaxDP=2.38D-07 DE=-5.55D-11 OVMax= 2.86D-07

 Cycle   9  Pass 1  IDiag  1:
 E= -232.454870026858     Delta-E=        0.000000000000 Rises=F Damp=F
 DIIS: error= 4.53D-08 at cycle   9 NSaved=   9.
 NSaved= 9 IEnMin= 8 EnMin= -232.454870026858     IErMin= 9 ErrMin= 4.53D-08
 ErrMax= 4.53D-08  0.00D+00 EMaxC= 1.00D-01 BMatC= 1.94D-13 BMatP= 1.14D-12
 IDIUse=1 WtCom= 1.00D+00 WtEn= 0.00D+00
 Coeff-Com:  0.138D-04-0.229D-03-0.499D-03-0.449D-03-0.198D-02 0.988D-02
 Coeff-Com:  0.279D-01 0.320D+00 0.645D+00
 Coeff:      0.138D-04-0.229D-03-0.499D-03-0.449D-03-0.198D-02 0.988D-02
 Coeff:      0.279D-01 0.320D+00 0.645D+00
 Gap=     0.254 Goal=   None    Shift=    0.000
 RMSDP=3.78D-09 MaxDP=1.05D-07 DE= 0.00D+00 OVMax= 9.78D-08

 SCF Done:  E(RB3LYP) =  -232.454870027     A.U. after    9 cycles
            NFock=  9  Conv=0.38D-08     -V/T= 2.0096
 KE= 2.302520838422D+02 PE=-8.911220227043D+02 EE= 2.533705636130D+02
 Leave Link  502 at Thu Sep  8 14:56:48 2022, MaxMem= 24159191040 cpu:        32.5
 (Enter /public/home/users/caep010/software/Gaussian09/g09/l701.exe)
 Compute integral first derivatives.
 ... and contract with generalized density number  0.
 Leave Link  701 at Thu Sep  8 14:56:48 2022, MaxMem= 24159191040 cpu:        10.3
 (Enter /public/home/users/caep010/software/Gaussian09/g09/l702.exe)
 L702 exits ... SP integral derivatives will be done elsewhere.
 Leave Link  702 at Thu Sep  8 14:56:48 2022, MaxMem= 24159191040 cpu:         0.5
 (Enter /public/home/users/caep010/software/Gaussian09/g09/l703.exe)
 Compute integral first derivatives, UseDBF=F ICtDFT=           0.
 Integral derivatives from FoFJK, PRISM(SPDF).
 Calling FoFJK, ICntrl=      2127 FMM=F ISym2X=0 I1Cent= 0 IOpClX= 0 NMat=1 NMatS=1 NMatT=0.
 FoFJK:  IHMeth= 1 ICntrl=    2127 DoSepK=F KAlg= 0 I1Cent=   0 FoldK=F
 IRaf=         0 NMat=   1 IRICut=       1 DoRegI=T DoRafI=F ISym2E= 0.
 FoFCou: FMM=F IPFlag=           0 FMFlag=      100000 FMFlg1=         800
         NFxFlg=           0 DoJE=F BraDBF=F KetDBF=F FulRan=T
         wScrn=  0.000000 ICntrl=    2127 IOpCl=  0 I1Cent=           0 NGrid=           0
         NMat0=    1 NMatS0=      1 NMatT0=    0 NMatD0=    1 NMtDS0=    0 NMtDT0=    0
 Symmetry not used in FoFCou.
 Leave Link  703 at Thu Sep  8 14:56:49 2022, MaxMem= 24159191040 cpu:        10.4
 (Enter /public/home/users/caep010/software/Gaussian09/g09/l716.exe)
 Dipole        = 2.27305095D-01-5.64821152D-01-1.21274277D-03
 ***** Axes restored to original set *****
 -------------------------------------------------------------------
 Center     Atomic                   Forces (Hartrees/Bohr)
 Number     Number              X              Y              Z
 -------------------------------------------------------------------
      1        6          -0.000010348   -0.000032074   -0.000005591
      2        6           0.000013541   -0.000287859   -0.000104959
      3        6          -0.000079926   -0.000031063    0.000046848
      4        6          -0.000162113    0.000846226    0.000395391
      5        8           0.000486683   -0.000513918   -0.000495250
      6        1          -0.000032728    0.000012814    0.000014971
      7        1          -0.000023787    0.000007273    0.000029312
      8        1          -0.000060141    0.000042545    0.000054421
      9        1          -0.000007055   -0.000060185   -0.000018040
     10        1          -0.000023241   -0.000058549    0.000013822
     11        1          -0.000040170   -0.000047743   -0.000012018
     12        1           0.000091250   -0.000102467   -0.000095845
     13        1          -0.000151965    0.000225000    0.000176938
 -------------------------------------------------------------------
 Cartesian Forces:  Max     0.000846226 RMS     0.000221087
 Leave Link  716 at Thu Sep  8 14:56:49 2022, MaxMem= 24159191040 cpu:         0.6
 (Enter /public/home/users/caep010/software/Gaussian09/g09/l103.exe)

 GradGradGradGradGradGradGradGradGradGradGradGradGradGradGradGradGradGrad
 Berny optimization.
 Using GEDIIS/GDIIS optimizer.
 FormGI is forming the generalized inverse of G from B-inverse, IUseBI=4.
 Internal  Forces:  Max     0.000554314 RMS     0.000149228
 Search for a local minimum.
 Step number   2 out of a maximum of   59
 All quantities printed in internal units (Hartrees-Bohrs-Radians)
 RMS Force = .14923D-03 SwitMx=.10000D-02 MixMth= 2
 Mixed Optimization -- En-DIIS/RFO-DIIS
 Update second derivatives using D2CorX and points    1    2
 DE= -5.01D-05 DEPred=-5.16D-05 R= 9.71D-01
 TightC=F SS=  1.41D+00  RLast= 1.49D-02 DXNew= 5.0454D-01 4.4691D-02
 Trust test= 9.71D-01 RLast= 1.49D-02 DXMaxT set to 3.00D-01
 ITU=  1  0
 Use linear search instead of GDIIS.
     Eigenvalues ---    0.00708   0.00713   0.01309   0.02056   0.02687
     Eigenvalues ---    0.02971   0.06999   0.07064   0.07175   0.07244
     Eigenvalues ---    0.15677   0.16000   0.16000   0.16000   0.16000
     Eigenvalues ---    0.16000   0.16000   0.16555   0.21357   0.24704
     Eigenvalues ---    0.25017   0.31932   0.32506   0.33852   0.33856
     Eigenvalues ---    0.33890   0.33897   0.34328   0.34677   0.35309
     Eigenvalues ---    0.48282   0.54932   0.63276
 RFO step:  Lambda=-4.39455342D-06 EMin= 7.07639913D-03
 Quartic linear search produced a step of -0.01574.
 Iteration  1 RMS(Cart)=  0.00121848 RMS(Int)=  0.00000073
 Iteration  2 RMS(Cart)=  0.00000105 RMS(Int)=  0.00000004
 Iteration  3 RMS(Cart)=  0.00000000 RMS(Int)=  0.00000004
 ITry= 1 IFail=0 DXMaxC= 3.94D-03 DCOld= 1.00D+10 DXMaxT= 3.00D-01 DXLimC= 3.00D+00 Rises=F
 Variable       Old X    -DE/DX   Delta X   Delta X   Delta X     New X
                                 (Linear)    (Quad)   (Total)
    R1        2.84539  -0.00015  -0.00004  -0.00034  -0.00037   2.84501
    R2        2.07554  -0.00001  -0.00001  -0.00001  -0.00002   2.07552
    R3        2.07554  -0.00001  -0.00001  -0.00001  -0.00002   2.07552
    R4        2.06256  -0.00004  -0.00001  -0.00008  -0.00008   2.06248
    R5        2.84570  -0.00020  -0.00006  -0.00041  -0.00046   2.84523
    R6        2.52762  -0.00045  -0.00013  -0.00029  -0.00042   2.52721
    R7        2.06866  -0.00003  -0.00001  -0.00005  -0.00006   2.06860
    R8        2.07605  -0.00002  -0.00000  -0.00004  -0.00005   2.07600
    R9        2.07604  -0.00002  -0.00000  -0.00004  -0.00004   2.07600
   R10        2.60102   0.00029  -0.00012   0.00101   0.00089   2.60191
   R11        2.05820  -0.00016  -0.00003  -0.00032  -0.00035   2.05785
   R12        1.81957   0.00014  -0.00010   0.00061   0.00051   1.82009
    A1        1.93689  -0.00001   0.00001  -0.00008  -0.00007   1.93682
    A2        1.93692  -0.00001   0.00001  -0.00008  -0.00007   1.93686
    A3        1.94985  -0.00012  -0.00002  -0.00076  -0.00078   1.94908
    A4        1.85888   0.00004  -0.00002   0.00051   0.00049   1.85937
    A5        1.88901   0.00006   0.00001   0.00024   0.00025   1.88926
    A6        1.88899   0.00006   0.00001   0.00023   0.00024   1.88923
    A7        2.04797   0.00023  -0.00003   0.00102   0.00099   2.04897
    A8        2.13444  -0.00007   0.00002  -0.00035  -0.00033   2.13411
    A9        2.10078  -0.00016   0.00001  -0.00067  -0.00066   2.10011
   A10        1.95730  -0.00006  -0.00004  -0.00030  -0.00034   1.95696
   A11        1.94291  -0.00005   0.00001  -0.00028  -0.00027   1.94264
   A12        1.94290  -0.00005   0.00001  -0.00029  -0.00028   1.94262
   A13        1.87953   0.00005   0.00001   0.00017   0.00018   1.87971
   A14        1.87958   0.00004   0.00002   0.00014   0.00016   1.87974
   A15        1.85707   0.00007  -0.00001   0.00064   0.00063   1.85770
   A16        2.14183  -0.00041   0.00003  -0.00194  -0.00192   2.13991
   A17        2.11786   0.00024   0.00002   0.00107   0.00109   2.11895
   A18        2.02350   0.00017  -0.00005   0.00088   0.00083   2.02433
   A19        1.90127  -0.00055  -0.00003  -0.00331  -0.00334   1.89793
    D1       -1.03129  -0.00002   0.00000  -0.00024  -0.00023  -1.03152
    D2        2.11041  -0.00002   0.00000  -0.00026  -0.00025   2.11015
    D3        1.03206   0.00002  -0.00000   0.00030   0.00030   1.03235
    D4       -2.10944   0.00002  -0.00001   0.00028   0.00028  -2.10916
    D5       -3.14121  -0.00000   0.00000   0.00003   0.00003  -3.14118
    D6        0.00048  -0.00000  -0.00000   0.00001   0.00001   0.00049
    D7        3.14154  -0.00000   0.00000  -0.00004  -0.00004   3.14150
    D8       -1.03451  -0.00002  -0.00000  -0.00023  -0.00023  -1.03474
    D9        1.03435   0.00002   0.00000   0.00020   0.00020   1.03454
   D10       -0.00015  -0.00000   0.00000  -0.00002  -0.00002  -0.00017
   D11        2.10699  -0.00002  -0.00000  -0.00021  -0.00021   2.10677
   D12       -2.10734   0.00002   0.00000   0.00021   0.00022  -2.10713
   D13        0.00028  -0.00000   0.00000  -0.00001  -0.00001   0.00027
   D14        3.14158   0.00000   0.00000   0.00001   0.00002  -3.14159
   D15       -3.14120  -0.00000   0.00000  -0.00003  -0.00003  -3.14124
   D16        0.00009  -0.00000   0.00000  -0.00001  -0.00001   0.00008
   D17       -3.13962  -0.00000   0.00000  -0.00004  -0.00004  -3.13966
   D18        0.00226  -0.00000   0.00000  -0.00006  -0.00006   0.00219
         Item               Value     Threshold  Converged?
 Maximum Force            0.000554     0.000450     NO 
 RMS     Force            0.000149     0.000300     YES
 Maximum Displacement     0.003936     0.001800     NO 
 RMS     Displacement     0.001219     0.001200     NO 
 Predicted change in Energy=-2.211499D-06
 Lowest energy point so far.  Saving SCF results.
 GradGradGradGradGradGradGradGradGradGradGradGradGradGradGradGradGradGrad

 Leave Link  103 at Thu Sep  8 14:56:49 2022, MaxMem= 24159191040 cpu:         2.2
 (Enter /public/home/users/caep010/software/Gaussian09/g09/l202.exe)
                          Input orientation:                          
 ---------------------------------------------------------------------
 Center     Atomic      Atomic             Coordinates (Angstroms)
 Number     Number       Type             X           Y           Z
 ---------------------------------------------------------------------
      1          6           0        1.073334   -0.505082   -0.875811
      2          6           0        0.020594    0.093786    0.018433
      3          6           0        0.180898    1.540097    0.404977
      4          6           0       -1.024093   -0.612434    0.463808
      5          8           0       -1.216522   -1.936853    0.140295
      6          1           0        1.137905    0.040401   -1.826905
      7          1           0        2.066443   -0.441623   -0.411040
      8          1           0        0.865766   -1.553580   -1.096617
      9          1           0       -0.629867    1.885634    1.054235
     10          1           0        1.128235    1.708967    0.934977
     11          1           0        0.199877    2.190131   -0.480435
     12          1           0       -1.777511   -0.164853    1.110247
     13          1           0       -2.024956   -2.244593    0.563834
 ---------------------------------------------------------------------
                    Distance matrix (angstroms):
                    1          2          3          4          5
     1  C    0.000000
     2  C    1.505516   0.000000
     3  C    2.572862   1.505633   0.000000
     4  C    2.491045   1.337340   2.467561   0.000000
     5  O    2.885460   2.380924   3.756597   1.376871   0.000000
     6  H    1.098318   2.157894   2.854164   3.216799   3.650032
     7  H    1.098319   2.157918   2.854537   3.216513   3.649321
     8  H    1.091415   2.161357   3.506375   2.625309   2.452095
     9  H    3.513047   2.169494   1.094656   2.596991   3.973771
    10  H    2.860766   2.162344   1.098574   3.200534   4.406972
    11  H    2.860669   2.162331   1.098571   3.200635   4.407208
    12  H    3.491061   2.119466   2.690656   1.088968   2.096544
    13  H    3.833781   3.154323   4.383481   1.917205   0.963149
                    6          7          8          9         10
     6  H    0.000000
     7  H    1.760456   0.000000
     8  H    1.774304   1.774286   0.000000
     9  H    3.851087   3.851395   4.323340   0.000000
    10  H    3.226794   2.705002   3.852334   1.770976   0.000000
    11  H    2.704481   3.227230   3.852072   1.770990   1.759762
    12  H    4.143506   4.143296   3.712913   2.350473   3.461977
    13  H    4.576081   4.576093   3.404537   4.386975   5.070601
                   11         12         13
    11  H    0.000000
    12  H    3.462121   0.000000
    13  H    5.070223   2.164513   0.000000
 Stoichiometry    C4H8O
 Framework group  C1[X(C4H8O)]
 Deg. of freedom    33
 Full point group                 C1      NOp   1
 RotChk:  IX=0 Diff= 1.73D-03
 Largest Abelian subgroup         C1      NOp   1
 Largest concise Abelian subgroup C1      NOp   1
                         Standard orientation:                         
 ---------------------------------------------------------------------
 Center     Atomic      Atomic             Coordinates (Angstroms)
 Number     Number       Type             X           Y           Z
 ---------------------------------------------------------------------
      1          6           0       -0.515372    1.474976   -0.000065
      2          6           0       -0.419198   -0.027465   -0.000057
      3          6           0       -1.708969   -0.804266    0.000036
      4          6           0        0.754820   -0.667900   -0.000040
      5          8           0        1.961620   -0.005021    0.000288
      6          1           0       -1.066110    1.833619   -0.880045
      7          1           0       -1.065255    1.833717    0.880411
      8          1           0        0.471060    1.942029   -0.000550
      9          1           0       -1.538969   -1.885640   -0.000057
     10          1           0       -2.320534   -0.562386    0.880006
     11          1           0       -2.320729   -0.562241   -0.879756
     12          1           0        0.807903   -1.755573   -0.000035
     13          1           0        2.671984   -0.655432   -0.001526
 ---------------------------------------------------------------------
 Rotational constants (GHZ):      8.3278424      3.7378732      2.6648549
 Leave Link  202 at Thu Sep  8 14:56:49 2022, MaxMem= 24159191040 cpu:         0.3
 (Enter /public/home/users/caep010/software/Gaussian09/g09/l301.exe)
 Standard basis: 6-31G(d,p) (6D, 7F)
 Ernie: Thresh=  0.10000D-02 Tol=  0.10000D-05 Strict=F.
 There are   115 symmetry adapted cartesian basis functions of A   symmetry.
 There are   115 symmetry adapted basis functions of A   symmetry.
   115 basis functions,   196 primitive gaussians,   115 cartesian basis functions
    20 alpha electrons       20 beta electrons
       nuclear repulsion energy       175.0739324369 Hartrees.
 IExCor=  402 DFT=T Ex+Corr=B3LYP ExCW=0 ScaHFX=  0.200000
 ScaDFX=  0.800000  0.720000  1.000000  0.810000 ScalE2=  1.000000  1.000000
 IRadAn=      0 IRanWt=     -1 IRanGd=            0 ICorTp=0 IEmpDi=  4
 NAtoms=   13 NActive=   13 NUniq=   13 SFac= 1.00D+00 NAtFMM=   60 NAOKFM=F Big=F
 Integral buffers will be    131072 words long.
 Raffenetti 2 integral format.
 Two-electron integral symmetry is turned on.
 Leave Link  301 at Thu Sep  8 14:56:49 2022, MaxMem= 24159191040 cpu:         1.8
 (Enter /public/home/users/caep010/software/Gaussian09/g09/l302.exe)
 NPDir=0 NMtPBC=     1 NCelOv=     1 NCel=       1 NClECP=     1 NCelD=      1
         NCelK=      1 NCelE2=     1 NClLst=     1 CellRange=     0.0.
 One-electron integrals computed using PRISM.
 NBasis=   115 RedAO= T EigKep=  2.62D-03  NBF=   115
 NBsUse=   115 1.00D-06 EigRej= -1.00D+00 NBFU=   115
 Precomputing XC quadrature grid using
 IXCGrd= 4 IRadAn=           0 IRanWt=          -1 IRanGd=           0 AccXCQ= 0.00D+00.
 Generated NRdTot=       0 NPtTot=           0 NUsed=           0 NTot=          32
 NSgBfM=   115   115   115   115   115 MxSgAt=    13 MxSgA2=    13.
 Leave Link  302 at Thu Sep  8 14:56:50 2022, MaxMem= 24159191040 cpu:        16.6
 (Enter /public/home/users/caep010/software/Gaussian09/g09/l303.exe)
 DipDrv:  MaxL=1.
 Leave Link  303 at Thu Sep  8 14:56:50 2022, MaxMem= 24159191040 cpu:         0.6
 (Enter /public/home/users/caep010/software/Gaussian09/g09/l401.exe)
 Initial guess from the checkpoint file:  "B3LYP6-31Gdp.Frag_554.chk"
 B after Tr=     0.000000    0.000000    0.000000
         Rot=    1.000000   -0.000000   -0.000000    0.000517 Ang=  -0.06 deg.
 Guess basis will be translated and rotated to current coordinates.
 JPrj=2 DoOrth=T DoCkMO=T.
 Leave Link  401 at Thu Sep  8 14:56:50 2022, MaxMem= 24159191040 cpu:         2.8
 (Enter /public/home/users/caep010/software/Gaussian09/g09/l502.exe)
 Closed shell SCF:
 Using DIIS extrapolation, IDIIS=  1040.
 Integral symmetry usage will be decided dynamically.
 Keep R1 ints in memory in canonical form, NReq=23246455.
 IVT=       62780 IEndB=       62780 NGot= 24159191040 MDV= 24136880476
 LenX= 24136880476 LenY= 24136866810
 Requested convergence on RMS density matrix=1.00D-08 within 128 cycles.
 Requested convergence on MAX density matrix=1.00D-06.
 Requested convergence on             energy=1.00D-06.
 No special actions if energy rises.
 FoFCou: FMM=F IPFlag=           0 FMFlag=           0 FMFlg1=           0
         NFxFlg=           0 DoJE=F BraDBF=F KetDBF=F FulRan=T
         wScrn=  0.000000 ICntrl=     600 IOpCl=  0 I1Cent=           0 NGrid=           0
         NMat0=    1 NMatS0=   6670 NMatT0=    0 NMatD0=    1 NMtDS0=    0 NMtDT0=    0
 Symmetry not used in FoFCou.

 Cycle   1  Pass 1  IDiag  1:
 E= -232.454870334105    
 DIIS: error= 7.36D-05 at cycle   1 NSaved=   1.
 NSaved= 1 IEnMin= 1 EnMin= -232.454870334105     IErMin= 1 ErrMin= 7.36D-05
 ErrMax= 7.36D-05  0.00D+00 EMaxC= 1.00D-01 BMatC= 9.65D-07 BMatP= 9.65D-07
 IDIUse=1 WtCom= 1.00D+00 WtEn= 0.00D+00
 Coeff-Com:  0.100D+01
 Coeff:      0.100D+01
 Gap=     2.185 Goal=   None    Shift=    0.000
 RMSDP=1.46D-05 MaxDP=2.85D-04              OVMax= 3.68D-04

 Cycle   2  Pass 1  IDiag  1:
 E= -232.454871785454     Delta-E=       -0.000001451349 Rises=F Damp=F
 DIIS: error= 2.24D-05 at cycle   2 NSaved=   2.
 NSaved= 2 IEnMin= 2 EnMin= -232.454871785454     IErMin= 2 ErrMin= 2.24D-05
 ErrMax= 2.24D-05  0.00D+00 EMaxC= 1.00D-01 BMatC= 7.27D-08 BMatP= 9.65D-07
 IDIUse=1 WtCom= 1.00D+00 WtEn= 0.00D+00
 Coeff-Com:  0.561D-01 0.944D+00
 Coeff:      0.561D-01 0.944D+00
 Gap=     0.254 Goal=   None    Shift=    0.000
 RMSDP=4.26D-06 MaxDP=1.19D-04 DE=-1.45D-06 OVMax= 1.61D-04

 Cycle   3  Pass 1  IDiag  1:
 E= -232.454871745978     Delta-E=        0.000000039476 Rises=F Damp=F
 DIIS: error= 2.98D-05 at cycle   3 NSaved=   3.
 NSaved= 3 IEnMin= 2 EnMin= -232.454871785454     IErMin= 2 ErrMin= 2.24D-05
 ErrMax= 2.98D-05  0.00D+00 EMaxC= 1.00D-01 BMatC= 1.33D-07 BMatP= 7.27D-08
 IDIUse=1 WtCom= 1.00D+00 WtEn= 0.00D+00
 Coeff-Com: -0.360D-01 0.594D+00 0.442D+00
 Coeff:     -0.360D-01 0.594D+00 0.442D+00
 Gap=     0.254 Goal=   None    Shift=    0.000
 RMSDP=2.46D-06 MaxDP=7.24D-05 DE= 3.95D-08 OVMax= 8.88D-05

 Cycle   4  Pass 1  IDiag  1:
 E= -232.454871846280     Delta-E=       -0.000000100302 Rises=F Damp=F
 DIIS: error= 2.38D-06 at cycle   4 NSaved=   4.
 NSaved= 4 IEnMin= 4 EnMin= -232.454871846280     IErMin= 4 ErrMin= 2.38D-06
 ErrMax= 2.38D-06  0.00D+00 EMaxC= 1.00D-01 BMatC= 5.37D-10 BMatP= 7.27D-08
 IDIUse=1 WtCom= 1.00D+00 WtEn= 0.00D+00
 Coeff-Com: -0.114D-01 0.169D+00 0.145D+00 0.697D+00
 Coeff:     -0.114D-01 0.169D+00 0.145D+00 0.697D+00
 Gap=     0.254 Goal=   None    Shift=    0.000
 RMSDP=3.52D-07 MaxDP=9.22D-06 DE=-1.00D-07 OVMax= 1.99D-05

 Cycle   5  Pass 1  IDiag  1:
 E= -232.454871846546     Delta-E=       -0.000000000266 Rises=F Damp=F
 DIIS: error= 1.53D-06 at cycle   5 NSaved=   5.
 NSaved= 5 IEnMin= 5 EnMin= -232.454871846546     IErMin= 5 ErrMin= 1.53D-06
 ErrMax= 1.53D-06  0.00D+00 EMaxC= 1.00D-01 BMatC= 2.66D-10 BMatP= 5.37D-10
 IDIUse=1 WtCom= 1.00D+00 WtEn= 0.00D+00
 Coeff-Com: -0.313D-02 0.340D-01 0.378D-01 0.428D+00 0.503D+00
 Coeff:     -0.313D-02 0.340D-01 0.378D-01 0.428D+00 0.503D+00
 Gap=     0.254 Goal=   None    Shift=    0.000
 RMSDP=1.47D-07 MaxDP=5.32D-06 DE=-2.66D-10 OVMax= 9.82D-06

 Cycle   6  Pass 1  IDiag  1:
 E= -232.454871846788     Delta-E=       -0.000000000242 Rises=F Damp=F
 DIIS: error= 3.97D-07 at cycle   6 NSaved=   6.
 NSaved= 6 IEnMin= 6 EnMin= -232.454871846788     IErMin= 6 ErrMin= 3.97D-07
 ErrMax= 3.97D-07  0.00D+00 EMaxC= 1.00D-01 BMatC= 2.02D-11 BMatP= 2.66D-10
 IDIUse=1 WtCom= 1.00D+00 WtEn= 0.00D+00
 Coeff-Com: -0.447D-03 0.944D-03 0.646D-02 0.186D+00 0.280D+00 0.527D+00
 Coeff:     -0.447D-03 0.944D-03 0.646D-02 0.186D+00 0.280D+00 0.527D+00
 Gap=     0.254 Goal=   None    Shift=    0.000
 RMSDP=4.88D-08 MaxDP=1.47D-06 DE=-2.42D-10 OVMax= 2.50D-06

 Cycle   7  Pass 1  IDiag  1:
 E= -232.454871846808     Delta-E=       -0.000000000020 Rises=F Damp=F
 DIIS: error= 7.54D-08 at cycle   7 NSaved=   7.
 NSaved= 7 IEnMin= 7 EnMin= -232.454871846808     IErMin= 7 ErrMin= 7.54D-08
 ErrMax= 7.54D-08  0.00D+00 EMaxC= 1.00D-01 BMatC= 1.24D-12 BMatP= 2.02D-11
 IDIUse=1 WtCom= 1.00D+00 WtEn= 0.00D+00
 Coeff-Com:  0.677D-04-0.264D-02-0.101D-02 0.348D-01 0.523D-01 0.242D+00
 Coeff-Com:  0.675D+00
 Coeff:      0.677D-04-0.264D-02-0.101D-02 0.348D-01 0.523D-01 0.242D+00
 Coeff:      0.675D+00
 Gap=     0.254 Goal=   None    Shift=    0.000
 RMSDP=1.18D-08 MaxDP=2.89D-07 DE=-1.97D-11 OVMax= 5.76D-07

 Cycle   8  Pass 1  IDiag  1:
 E= -232.454871846808     Delta-E=       -0.000000000001 Rises=F Damp=F
 DIIS: error= 7.28D-09 at cycle   8 NSaved=   8.
 NSaved= 8 IEnMin= 8 EnMin= -232.454871846808     IErMin= 8 ErrMin= 7.28D-09
 ErrMax= 7.28D-09  0.00D+00 EMaxC= 1.00D-01 BMatC= 8.59D-15 BMatP= 1.24D-12
 IDIUse=1 WtCom= 1.00D+00 WtEn= 0.00D+00
 Coeff-Com:  0.372D-04-0.722D-03-0.535D-03 0.150D-02 0.135D-02 0.394D-01
 Coeff-Com:  0.134D+00 0.825D+00
 Coeff:      0.372D-04-0.722D-03-0.535D-03 0.150D-02 0.135D-02 0.394D-01
 Coeff:      0.134D+00 0.825D+00
 Gap=     0.254 Goal=   None    Shift=    0.000
 RMSDP=1.09D-09 MaxDP=1.91D-08 DE=-5.12D-13 OVMax= 2.25D-08

 SCF Done:  E(RB3LYP) =  -232.454871847     A.U. after    8 cycles
            NFock=  8  Conv=0.11D-08     -V/T= 2.0096
 KE= 2.302537307464D+02 PE=-8.911829273285D+02 EE= 2.534003922984D+02
 Leave Link  502 at Thu Sep  8 14:56:51 2022, MaxMem= 24159191040 cpu:        25.5
 (Enter /public/home/users/caep010/software/Gaussian09/g09/l701.exe)
 Compute integral first derivatives.
 ... and contract with generalized density number  0.
 Leave Link  701 at Thu Sep  8 14:56:51 2022, MaxMem= 24159191040 cpu:        11.3
 (Enter /public/home/users/caep010/software/Gaussian09/g09/l702.exe)
 L702 exits ... SP integral derivatives will be done elsewhere.
[...]
    A3        1.94908  -0.00002   0.00000  -0.00016  -0.00016   1.94892
    A4        1.85937  -0.00000   0.00000  -0.00003  -0.00003   1.85934
    A5        1.88926   0.00001   0.00000   0.00011   0.00011   1.88937
    A6        1.88923   0.00001   0.00000   0.00014   0.00014   1.88937
    A7        2.04897   0.00003   0.00000   0.00025   0.00025   2.04922
    A8        2.13411  -0.00001   0.00000  -0.00009  -0.00009   2.13402
    A9        2.10011  -0.00002   0.00000  -0.00016  -0.00016   2.09995
   A10        1.95696  -0.00003   0.00000  -0.00027  -0.00027   1.95669
   A11        1.94264   0.00002   0.00000   0.00011   0.00011   1.94275
   A12        1.94262   0.00002   0.00000   0.00013   0.00013   1.94275
   A13        1.87971   0.00001   0.00000   0.00005   0.00005   1.87976
   A14        1.87974   0.00001   0.00000   0.00002   0.00002   1.87976
   A15        1.85770  -0.00001   0.00000  -0.00003  -0.00003   1.85767
   A16        2.13991   0.00007   0.00000   0.00014   0.00014   2.14005
   A17        2.11895   0.00004   0.00000   0.00064   0.00064   2.11959
   A18        2.02433  -0.00011   0.00000  -0.00079  -0.00079   2.02354
   A19        1.89793   0.00005   0.00000   0.00002   0.00002   1.89795
    D1       -1.03152   0.00000   0.00000  -0.00036  -0.00036  -1.03187
    D2        2.11015   0.00000   0.00000  -0.00043  -0.00043   2.10972
    D3        1.03235  -0.00000   0.00000  -0.00042  -0.00042   1.03193
    D4       -2.10916  -0.00000   0.00000  -0.00050  -0.00050  -2.10966
    D5       -3.14118   0.00000   0.00000  -0.00038  -0.00038  -3.14156
    D6        0.00049   0.00000   0.00000  -0.00046  -0.00046   0.00003
    D7        3.14150  -0.00000   0.00000   0.00009   0.00009   3.14159
    D8       -1.03474  -0.00000   0.00000   0.00004   0.00004  -1.03471
    D9        1.03454   0.00000   0.00000   0.00016   0.00016   1.03470
   D10       -0.00017  -0.00000   0.00000   0.00016   0.00016  -0.00001
   D11        2.10677  -0.00000   0.00000   0.00011   0.00011   2.10689
   D12       -2.10713   0.00000   0.00000   0.00023   0.00023  -2.10690
   D13        0.00027   0.00000   0.00000  -0.00027  -0.00027   0.00001
   D14        3.14159  -0.00000   0.00000  -0.00000  -0.00000   3.14159
   D15       -3.14124   0.00000   0.00000  -0.00035  -0.00035  -3.14158
   D16        0.00008  -0.00000   0.00000  -0.00008  -0.00008   0.00000
   D17       -3.13966  -0.00000   0.00000  -0.00187  -0.00187  -3.14153
   D18        0.00219  -0.00000   0.00000  -0.00213  -0.00213   0.00007
         Item               Value     Threshold  Converged?
 Maximum Force            0.000266     0.000450     YES
 RMS     Force            0.000049     0.000300     YES
 Maximum Displacement     0.001362     0.001800     YES
 RMS     Displacement     0.000431     0.001200     YES
 Predicted change in Energy=-2.088286D-07
 Optimization completed.
    -- Stationary point found.
                           ----------------------------
                           !   Optimized Parameters   !
                           ! (Angstroms and Degrees)  !
 --------------------------                            --------------------------
 ! Name  Definition              Value          Derivative Info.                !
 --------------------------------------------------------------------------------
 ! R1    R(1,2)                  1.5055         -DE/DX =    0.0                 !
 ! R2    R(1,6)                  1.0983         -DE/DX =    0.0                 !
 ! R3    R(1,7)                  1.0983         -DE/DX =    0.0                 !
 ! R4    R(1,8)                  1.0914         -DE/DX =    0.0                 !
 ! R5    R(2,3)                  1.5056         -DE/DX =    0.0                 !
 ! R6    R(2,4)                  1.3373         -DE/DX =   -0.0001              !
 ! R7    R(3,9)                  1.0947         -DE/DX =    0.0                 !
 ! R8    R(3,10)                 1.0986         -DE/DX =    0.0                 !
 ! R9    R(3,11)                 1.0986         -DE/DX =    0.0                 !
 ! R10   R(4,5)                  1.3769         -DE/DX =    0.0003              !
 ! R11   R(4,12)                 1.089          -DE/DX =   -0.0001              !
 ! R12   R(5,13)                 0.9631         -DE/DX =   -0.0001              !
 ! A1    A(2,1,6)              110.9718         -DE/DX =    0.0                 !
 ! A2    A(2,1,7)              110.9736         -DE/DX =    0.0                 !
 ! A3    A(2,1,8)              111.6739         -DE/DX =    0.0                 !
 ! A4    A(6,1,7)              106.5342         -DE/DX =    0.0                 !
 ! A5    A(6,1,8)              108.2469         -DE/DX =    0.0                 !
 ! A6    A(7,1,8)              108.2451         -DE/DX =    0.0                 !
 ! A7    A(1,2,3)              117.3971         -DE/DX =    0.0                 !
 ! A8    A(1,2,4)              122.2754         -DE/DX =    0.0                 !
 ! A9    A(3,2,4)              120.3276         -DE/DX =    0.0                 !
 ! A10   A(2,3,9)              112.1255         -DE/DX =    0.0                 !
 ! A11   A(2,3,10)             111.3049         -DE/DX =    0.0                 !
 ! A12   A(2,3,11)             111.304          -DE/DX =    0.0                 !
 ! A13   A(9,3,10)             107.6996         -DE/DX =    0.0                 !
 ! A14   A(9,3,11)             107.701          -DE/DX =    0.0                 !
 ! A15   A(10,3,11)            106.4382         -DE/DX =    0.0                 !
 ! A16   A(2,4,5)              122.6078         -DE/DX =    0.0001              !
 ! A17   A(2,4,12)             121.4068         -DE/DX =    0.0                 !
 ! A18   A(5,4,12)             115.9854         -DE/DX =   -0.0001              !
 ! A19   A(4,5,13)             108.7433         -DE/DX =    0.0                 !
 ! D1    D(6,1,2,3)            -59.1016         -DE/DX =    0.0                 !
 ! D2    D(6,1,2,4)            120.903          -DE/DX =    0.0                 !
 ! D3    D(7,1,2,3)             59.1494         -DE/DX =    0.0                 !
 ! D4    D(7,1,2,4)           -120.846          -DE/DX =    0.0                 !
 ! D5    D(8,1,2,3)           -179.9765         -DE/DX =    0.0                 !
 ! D6    D(8,1,2,4)              0.028          -DE/DX =    0.0                 !
 ! D7    D(1,2,3,9)            179.9948         -DE/DX =    0.0                 !
 ! D8    D(1,2,3,10)           -59.2863         -DE/DX =    0.0                 !
 ! D9    D(1,2,3,11)            59.2748         -DE/DX =    0.0                 !
 ! D10   D(4,2,3,9)             -0.0096         -DE/DX =    0.0                 !
 ! D11   D(4,2,3,10)           120.7092         -DE/DX =    0.0                 !
 ! D12   D(4,2,3,11)          -120.7296         -DE/DX =    0.0                 !
 ! D13   D(1,2,4,5)              0.0156         -DE/DX =    0.0                 !
 ! D14   D(1,2,4,12)           180.0            -DE/DX =    0.0                 !
 ! D15   D(3,2,4,5)           -179.9797         -DE/DX =    0.0                 !
 ! D16   D(3,2,4,12)             0.0047         -DE/DX =    0.0                 !
 ! D17   D(2,4,5,13)          -179.8892         -DE/DX =    0.0                 !
 ! D18   D(12,4,5,13)            0.1256         -DE/DX =    0.0                 !
 --------------------------------------------------------------------------------
 GradGradGradGradGradGradGradGradGradGradGradGradGradGradGradGradGradGrad

 Leave Link  103 at Thu Sep  8 14:57:02 2022, MaxMem= 24159191040 cpu:         1.2
 (Enter /public/home/users/caep010/software/Gaussian09/g09/l9999.exe)
 1\1\GINC-B1473\Freq\RB3LYP\6-31G(d,p)\C4H8O1\ROOT\08-Sep-2022\0\\#P Ge
 om=AllCheck Guess=TCheck SCRF=Check GenChk RB3LYP/6-31G(d,p) Freq\\Fra
 g_554\\0,1\C,1.0733344645,-0.5050823486,-0.8758107385\C,0.0205941764,0
 .0937861464,0.0184331087\C,0.1808979041,1.5400973607,0.4049771738\C,-1
 .0240934886,-0.6124336578,0.4638077689\O,-1.2165219557,-1.9368525683,0
 .1402952345\H,1.1379045684,0.0404009071,-1.8269050724\H,2.0664434201,-
 0.4416229732,-0.4110401813\H,0.8657658124,-1.5535796328,-1.0966165691\
 H,-0.6298670087,1.8856343085,1.0542346723\H,1.128234763,1.7089669598,0
 .9349774599\H,0.1998765433,2.1901309462,-0.4804353064\H,-1.7775112681,
 -0.1648531991,1.1102472189\H,-2.0249559309,-2.2445932491,0.5638342307\
 \Version=ES64L-G09RevE.01\State=1-A\HF=-232.4548718\RMSD=4.031e-10\RMS
 F=8.785e-05\ZeroPoint=0.1126794\Thermal=0.1194522\Dipole=-0.496547,0.0
 655703,0.3465785\DipoleDeriv=0.1239955,0.0121028,0.0389766,-0.0355947,
 -0.0244797,-0.0452109,0.0226235,-0.07655,0.1362686,-0.0894996,-0.11565
 27,-0.0903551,-0.0544217,-0.0312977,0.081955,-0.0695615,0.1221287,-0.0
 802311,0.0955978,0.0258323,0.0463309,0.0638637,0.1566041,-0.0406097,0.
 0592217,-0.0157415,0.1086272,0.272292,0.2563146,-0.13994,0.6702299,1.0
 617757,-0.0538973,0.0004082,0.2173162,0.0002491,-0.3936285,-0.168199,-
 0.0491196,-0.639404,-1.3290821,0.097601,-0.2086699,-0.2108291,-0.31731
 56,0.0115832,0.0047772,0.0279765,0.0087336,0.0051351,0.1101631,0.07455
 62,0.0918561,-0.1256423,-0.1741001,-0.0128253,-0.0298071,-0.0066608,0.
 0723006,-0.0303071,-0.0729404,-0.0053395,-0.0071535,0.0639791,-0.02158
 87,-0.0014439,0.0125512,-0.0869281,-0.0626848,0.0101992,-0.0402855,0.0
 5259,-0.0578532,0.0759645,0.1074403,0.0172034,-0.0032479,-0.0350262,0.
 0874742,-0.0735632,-0.0158,-0.12611,-0.0735182,-0.1027689,-0.0466047,-
 0.0261054,-0.0096663,-0.103063,-0.0507355,0.0160526,0.0614678,-0.01954
 76,0.0041346,-0.0465988,-0.1044104,0.083133,0.0043802,0.1241043,-0.093
 1824,-0.0299857,0.0322996,0.1168382,0.0119825,-0.0263572,-0.0614769,0.
 1101719,-0.0746172,0.033745,0.2422617,0.0040404,0.0717376,0.0447202,0.
 336093,-0.0339729,0.0851999,-0.0077438,0.2917924\Polar=52.087249,10.81
 041,52.9121533,-10.030873,0.2943209,37.8674175\PG=C01 [X(C4H8O1)]\NIma
 g=0\\0.51238777,0.03225529,0.57786285,0.02302195,-0.00514177,0.5139193
 6,-0.14292293,0.03238693,0.05704981,0.62238421,0.03248952,-0.10887338,
 -0.03360331,0.18769794,0.59755088,0.05708337,-0.03352543,-0.12160059,-
 0.23648354,0.02399886,0.32798814,0.00432856,0.02362143,0.00647077,-0.0
 8330643,-0.01415671,0.00574369,0.56506183,0.00154000,-0.01389460,-0.00
 639807,-0.01539581,-0.20409714,-0.03643150,-0.01052580,0.49143436,-0.0
 0103828,-0.02087853,-0.00447310,0.00531543,-0.03724661,-0.08336849,-0.
 02506157,-0.00700136,0.54639129,-0.02267535,-0.00864431,0.01620897,-0.
 36138989,-0.17475558,0.14425411,-0.00205035,-0.00887657,-0.00302933,0.
 67161885,0.00692976,0.01660956,-0.00110382,-0.18045466,-0.21025973,0.0
 6422379,-0.02384597,-0.02738153,0.00704906,0.17060057,0.63224085,0.021
 49892,0.00910082,-0.00450335,0.14233326,0.06050951,-0.12376432,-0.0081
 2148,-0.00277868,0.00231341,-0.30471764,0.06259062,0.33982095,-0.00010
 897,0.00084471,-0.00300526,0.00122122,-0.04152076,-0.00956932,-0.00098
 833,-0.00110171,0.00689031,-0.09274048,-0.05857024,0.02050828,0.461690
 41,0.00321471,-0.00347433,-0.00154220,-0.01256992,-0.03543340,-0.00653
 491,-0.00438752,0.00516590,0.00118895,-0.01401615,-0.28862600,-0.07821
 786,0.19031758,0.42955214,-0.00220840,0.00000914,-0.00368576,0.0002560
 4,0.01243519,0.01218412,0.00576925,-0.00095541,0.00596525,0.03562231,-
 0.04910956,-0.07104118,-0.22841153,0.01688480,0.16823052,-0.04382050,-
 0.00685805,0.01012779,-0.00534496,-0.01305628,0.02420890,0.00044757,-0
 .00101039,-0.00074476,-0.00010765,0.00355539,0.00194231,0.00031994,-0.
 00116449,-0.00002841,0.04966421,-0.00516500,-0.11402006,0.10931179,-0.
 00130645,0.00811582,-0.01254647,-0.00017747,0.00099148,-0.00045136,0.0
 0139357,-0.00181767,-0.00119040,-0.00092323,0.00104327,-0.00032348,0.0
 0497480,0.11867674,0.00876269,0.11151069,-0.23591205,0.00610116,0.0089
 8471,-0.01690564,-0.00016689,0.00109902,0.00076437,-0.00081049,-0.0045
 0498,-0.00157082,-0.00028541,0.00186744,0.00013774,-0.01394965,-0.1219
 6035,0.25806778,-0.25070116,-0.01516081,-0.10281840,-0.02491836,-0.002
 24842,-0.00444871,0.00075223,-0.00133471,-0.00040011,0.00030138,0.0052
 6381,0.00071424,-0.00027657,-0.00159737,-0.00082610,0.00147481,0.00022
 497,-0.00026901,0.27697093,-0.01339622,-0.04967768,-0.00837221,0.01149
 726,0.00113485,0.00635577,0.00047785,0.00073768,0.00061257,0.00059830,
 -0.00240207,-0.00143740,0.00022367,0.00083776,0.00136114,0.01580341,0.
 00052499,0.00785430,0.01449768,0.04752833,-0.10027256,-0.00830815,-0.0
 9336373,0.02233395,0.00154795,0.00964895,-0.00007913,0.00079956,0.0007
 1166,0.00114916,-0.00260326,-0.00139312,0.00013008,0.00052402,0.000947
 13,-0.02613401,-0.00247249,-0.01324233,0.10814933,0.00910988,0.1019007
 8,-0.05944854,-0.05431679,-0.01153948,0.00650785,0.02441703,0.00304367
 ,-0.00352218,0.00074540,0.00291154,0.00068487,0.00197159,0.00049349,-0
 .00161677,-0.00150770,0.00031906,-0.00125084,0.00024674,-0.00020791,-0
 .00467414,-0.02842301,-0.00414418,0.06264532,-0.05080503,-0.30069883,-
 0.05241669,-0.00158340,-0.01085990,-0.00213893,0.00238165,0.00041065,-
 0.00160500,-0.00088498,-0.00195717,-0.00022283,-0.00129274,0.00116851,
 0.00136671,-0.00317522,-0.01365453,-0.00342049,-0.00018511,0.00059231,
 0.00047389,0.05630289,0.32496235,-0.01034302,-0.05011271,-0.05913149,-
 0.00580803,-0.01919007,-0.00424610,0.00346856,-0.00052909,-0.00192387,
 -0.00047898,-0.00210105,0.00001382,0.00038850,0.00150772,-0.00010119,0
 .00624047,0.02769806,0.00737293,-0.00214455,-0.01437131,-0.00345575,0.
 00891083,0.05769692,0.06080730,0.00085779,-0.00039601,-0.00004983,0.00
 322873,-0.00049003,-0.00342697,-0.19533136,0.05999771,0.11725797,-0.00
 012883,-0.00208502,-0.00079439,0.00036427,0.00065297,-0.00021973,-0.00
 013348,-0.00009454,0.00008408,0.00038948,-0.00028235,-0.00008420,0.000
 15049,-0.00023112,0.00017236,0.20943350,-0.00262244,-0.00590316,-0.000
 62314,0.02539957,-0.00797388,-0.01877875,0.05823409,-0.07301798,-0.046
 81657,0.00192671,0.00097416,-0.00084487,-0.00023025,0.00017440,0.00031
 700,-0.00016796,0.00020481,-0.00009539,-0.00021814,0.00018752,0.000328
 48,0.00132190,-0.00066106,-0.00127312,-0.06437901,0.07947299,-0.000805
 63,-0.00208235,0.00080767,0.00537403,-0.00179804,-0.00587885,0.1166583
 1,-0.04797258,-0.14048356,0.00056824,0.00178803,-0.00002738,-0.0005199
 0,-0.00026401,-0.00005712,-0.00031873,0.00021387,0.00051872,0.00031578
 ,0.00001217,0.00001232,0.00070033,-0.00025478,-0.00001226,-0.12942076,
 0.05378127,0.14865748,0.00052684,0.00020119,0.00053995,-0.00264340,-0.
 00511993,0.00072126,-0.23750584,-0.02680014,-0.10490816,0.00105588,0.0
 0079178,-0.00147332,0.00007495,-0.00127366,0.00036912,0.00003637,0.000
 12294,-0.00011148,0.00043777,-0.00037144,-0.00052543,0.00015590,-0.000
 10500,0.00010040,-0.01938065,-0.00301509,-0.01193746,0.25714053,-0.000
 80199,0.00147378,0.00100524,-0.03124943,-0.00878920,-0.01460488,-0.029
 47780,-0.05017219,-0.01841315,0.00149742,-0.00015138,-0.00373791,-0.00
 049875,-0.00322843,0.00147301,0.00021096,-0.00004451,-0.00001705,0.001
 11232,-0.00005018,-0.00006662,-0.00001341,0.00012559,0.00051558,0.0079
 9435,0.00055463,0.00571441,0.03442233,0.05790815,-0.00048114,0.0003954
 4,0.00024075,-0.00564635,-0.00217487,-0.00158480,-0.10592613,-0.017575
 28,-0.10706141,0.00117665,0.00064686,-0.00046672,-0.00059766,-0.000997
 90,-0.00026504,-0.00013122,-0.00002703,-0.00012448,0.00049325,-0.00029
 324,-0.00000733,0.00020215,0.00006729,0.00019407,0.01750205,0.00349896
 ,0.01049384,0.11774035,0.01953880,0.11232144,-0.00004243,0.00041406,-0
 .00036597,-0.00108389,-0.00519628,0.00402626,-0.04702815,0.00053637,0.
 00379780,0.00102070,-0.00082022,0.00037038,-0.00070254,-0.00007983,-0.
 00086106,0.00027143,-0.00002065,0.00002114,0.00005882,0.00013172,-0.00
 014611,-0.00009070,-0.00007535,0.00005219,0.00008251,-0.01514469,0.019
 80236,0.00016204,0.01698422,-0.02457989,0.04689650,-0.00084885,0.00153
 963,0.00095590,-0.00512273,-0.02270664,0.02474352,0.00001235,-0.130796
 98,0.12072575,0.00426939,-0.00074900,-0.00049346,-0.00237301,-0.002660
 74,-0.00135583,0.00067117,0.00004182,-0.00115466,0.00014021,-0.0000181
 9,-0.00008879,-0.00038381,0.00036931,-0.00021982,-0.00084155,0.0061927
 0,-0.00882873,0.00087508,0.00258193,-0.00300153,0.00353265,0.14641016,
 -0.00011422,0.00007782,0.00074347,0.00153610,-0.00477810,0.01077283,0.
 00372670,0.11779137,-0.21692239,-0.00030899,-0.00107301,0.00016053,-0.
 00041079,0.00011466,-0.00004923,-0.00025800,0.00049911,0.00006738,-0.0
 0009391,-0.00001519,-0.00017260,-0.00012340,0.00008578,0.00019782,-0.0
 0103154,0.00998934,-0.01460444,0.00016232,0.00873566,-0.01409835,-0.00
 260725,-0.13132188,0.23407017,0.00173378,-0.00483441,0.00453434,-0.012
 88675,0.01217557,0.01550372,-0.00156567,0.00260858,-0.00209475,-0.1878
 9729,0.06968532,0.12387149,0.00721027,-0.00567307,-0.00433054,-0.00163
 334,0.00076896,0.00102452,0.00015272,-0.00035510,-0.00034143,0.0002299
 4,0.00000717,-0.00020977,0.00046507,-0.00107919,-0.00044703,-0.0001331
 3,-0.00060377,0.00002318,0.00046077,0.00024123,-0.00023739,0.19144966,
 -0.00371338,-0.00099094,-0.00169063,-0.01102479,0.00887880,0.00874550,
 -0.00069505,0.00071979,0.00277917,0.06864829,-0.09481565,-0.06530541,0
 .01832934,-0.02631425,-0.02217532,0.00010564,-0.00009784,-0.00005810,-
 0.00072148,0.00043301,0.00079813,-0.00003326,-0.00005365,0.00003552,0.
 00011995,-0.00015498,-0.00024803,0.00019137,0.00015728,-0.00002088,-0.
 00022263,-0.00022590,-0.00004635,-0.07351289,0.11104386,0.00491712,-0.
 00095719,0.00760494,0.00761711,-0.00647350,-0.00276716,-0.00321869,0.0
 0060977,-0.00379472,0.12353165,-0.06599076,-0.13865596,0.00380906,-0.0
 0641200,-0.00114511,-0.00111638,0.00084868,0.00073334,0.00145174,-0.00
 078452,-0.00158507,-0.00022374,0.00000849,0.00005611,-0.00003994,0.000
 53971,0.00055234,-0.00056416,-0.00053699,0.00025906,0.00046247,0.00068
 862,0.00004857,-0.13614876,0.07847943,0.13801423,-0.00011485,0.0004867
 6,-0.00017463,0.00115460,-0.00023608,-0.00065645,0.00070813,-0.0003829
 2,0.00110391,-0.00769184,0.00697789,0.00337447,-0.37444740,-0.15191555
 ,0.19455001,0.00007645,-0.00004464,-0.00019274,0.00003207,-0.00040175,
 -0.00003547,0.00022880,-0.00035377,-0.00034896,0.00000248,-0.00002551,
 0.00003046,0.00007273,0.00042355,0.00022477,-0.00000506,-0.00017213,-0
 .00023962,0.00241398,0.00252890,-0.00047746,0.37756990,0.00092363,0.00
 004714,-0.00038108,0.00172549,-0.00668708,-0.00350659,-0.00146104,-0.0
 0009944,0.00005710,-0.04175664,-0.02166437,0.02202786,-0.10320461,-0.0
 7820485,0.04007261,0.00011102,0.00003567,-0.00010514,0.00022704,0.0001
 7165,-0.00004262,-0.00032758,0.00025640,0.00034335,0.00003465,-0.00005
 015,-0.00006123,0.00008057,-0.00036547,-0.00005662,-0.00003937,0.00002
 190,-0.00005921,0.00057159,0.00142046,-0.00001974,0.14311526,0.1051181
 5,-0.00002080,-0.00008779,-0.00064614,0.00002106,-0.00221172,-0.000478
 10,0.00073661,-0.00065776,0.00188155,-0.01316566,-0.00981193,-0.000885
 86,0.21107364,0.07188129,-0.11112014,0.00016169,0.00040006,0.00009305,
 -0.00012354,-0.00003195,-0.00000093,-0.00034233,0.00035964,0.00022861,
 0.00005089,-0.00002292,0.00002124,-0.00011337,0.00039390,0.00009896,0.
 00002768,-0.00064910,-0.00021376,-0.00114759,-0.00129303,0.00067944,-0
 .19715828,-0.05826869,0.11034209\\0.00000625,0.00002258,0.00000381,0.0
 0004532,0.00005200,-0.00001233,0.00000151,-0.00001295,-0.00000639,-0.0
 0016278,-0.00039318,-0.00002701,0.00016068,0.00025492,-0.00001691,-0.0
 0000299,-0.00000650,-0.00001700,0.00001108,-0.00001365,0.00000444,0.00
 000368,-0.00002817,-0.00001198,0.00000323,0.00002592,0.00000694,0.0000
 1161,-0.00001145,0.00000027,0.00000173,-0.00000655,-0.00001447,-0.0000
 1776,0.00010564,0.00004810,-0.00006154,0.00001139,0.00004253\\\@


 Ideas are like rabbits. You get a couple and learn
 how to handle them, and pretty soon you have a dozen.
                                    -- John Steinbeck
 Job cpu time:       0 days  0 hours  4 minutes 24.7 seconds.
 File lengths (MBytes):  RWF=     22 Int=      0 D2E=      0 Chk=      2 Scr=      1
 Normal termination of Gaussian 09 at Thu Sep  8 14:57:02 2022.
