 Entering Gaussian System, Link 0=g09
 Input=B3LYP6-31Gdp.Frag_501.gjf
 Output=B3LYP6-31Gdp.Frag_501.log
 Initial command:
 /public/home/users/caep010/software/Gaussian09/g09/l1.exe "/public/home/users/caep010/.cache/gau_scr/Gau-137489.inp" -scrdir="/public/home/users/caep010/.cache/gau_scr/"
 Entering Link 1 = /public/home/users/caep010/software/Gaussian09/g09/l1.exe PID=    137490.
  
 Copyright (c) 1988,1990,1992,1993,1995,1998,2003,2009,2015,
            Gaussian, Inc.  All Rights Reserved.
  
 This is part of the Gaussian(R) 09 program.  It is based on
 the Gaussian(R) 03 system (copyright 2003, Gaussian, Inc.),
 the Gaussian(R) 98 system (copyright 1998, Gaussian, Inc.),
 the Gaussian(R) 94 system (copyright 1995, Gaussian, Inc.),
 the Gaussian 92(TM) system (copyright 1992, Gaussian, Inc.),
 the Gaussian 90(TM) system (copyright 1990, Gaussian, Inc.),
 the Gaussian 88(TM) system (copyright 1988, Gaussian, Inc.),
 the Gaussian 86(TM) system (copyright 1986, Carnegie Mellon
 University), and the Gaussian 82(TM) system (copyright 1983,
 Carnegie Mellon University). Gaussian is a federally registered
 trademark of Gaussian, Inc.
  
 This software contains proprietary and confidential information,
 including trade secrets, belonging to Gaussian, Inc.
  
 This software is provided under written license and may be
 used, copied, transmitted, or stored only in accord with that
 written license.
  
 The following legend is applicable only to US Government
 contracts under FAR:
  
                    RESTRICTED RIGHTS LEGEND
  
 Use, reproduction and disclosure by the US Government is
 subject to restrictions as set forth in subparagraphs (a)
 and (c) of the Commercial Computer Software - Restricted
 Rights clause in FAR 52.227-19.
  
 Gaussian, Inc.
 340 Quinnipiac St., Bldg. 40, Wallingford CT 06492
  
  
 ---------------------------------------------------------------
 Warning -- This program may not be used in any manner that
 competes with the business of Gaussian, Inc. or will provide
 assistance to any competitor of Gaussian, Inc.  The licensee
 of this program is prohibited from giving any competitor of
 Gaussian, Inc. access to this program.  By using this program,
 the user acknowledges that Gaussian, Inc. is engaged in the
 business of creating and licensing software in the field of
 computational chemistry and represents and warrants to the
 licensee that it is not a competitor of Gaussian, Inc. and that
 it will not use this program in any manner prohibited above.
 ---------------------------------------------------------------
  

 Cite this work as:
 Gaussian 09, Revision E.01,
 M. J. Frisch, G. W. Trucks, H. B. Schlegel, G. E. Scuseria, 
 M. A. Robb, J. R. Cheeseman, G. Scalmani, V. Barone, B. Mennucci, 
 G. A. Petersson, H. Nakatsuji, M. Caricato, X. Li, H. P. Hratchian, 
 A. F. Izmaylov, J. Bloino, G. Zheng, J. L. Sonnenberg, M. Hada, 
 M. Ehara, K. Toyota, R. Fukuda, J. Hasegawa, M. Ishida, T. Nakajima, 
 Y. Honda, O. Kitao, H. Nakai, T. Vreven, J. A. Montgomery, Jr., 
 J. E. Peralta, F. Ogliaro, M. Bearpark, J. J. Heyd, E. Brothers, 
 K. N. Kudin, V. N. Staroverov, T. Keith, R. Kobayashi, J. Normand, 
 K. Raghavachari, A. Rendell, J. C. Burant, S. S. Iyengar, J. Tomasi, 
 M. Cossi, N. Rega, J. M. Millam, M. Klene, J. E. Knox, J. B. Cross, 
 V. Bakken, C. Adamo, J. Jaramillo, R. Gomperts, R. E. Stratmann, 
 O. Yazyev, A. J. Austin, R. Cammi, C. Pomelli, J. W. Ochterski, 
 R. L. Martin, K. Morokuma, V. G. Zakrzewski, G. A. Voth, 
 P. Salvador, J. J. Dannenberg, S. Dapprich, A. D. Daniels, 
 O. Farkas, J. B. Foresman, J. V. Ortiz, J. Cioslowski, 
 and D. J. Fox, Gaussian, Inc., Wallingford CT, 2013.
 
 ******************************************
 Gaussian 09:  ES64L-G09RevE.01 30-Nov-2015
                 8-Sep-2022 
 ******************************************
 %nproc=32
 Will use up to   32 processors via shared memory.
 %mem=180GB
 %chk=B3LYP6-31Gdp.Frag_501.chk
 ----------------------------
 #P OPT Freq B3LYP/6-31G(d,p)
 ----------------------------
 1/14=-1,18=20,19=15,26=3,38=1/1,3;
 2/9=110,12=2,17=6,18=5,40=1/2;
 3/5=1,6=6,7=101,11=2,16=1,25=1,30=1,71=1,74=-5/1,2,3;
 4//1;
 5/5=2,38=5/2;
 6/7=2,8=2,9=2,10=2,28=1/1;
 7//1,2,3,16;
 1/14=-1,18=20,19=15,26=3/3(2);
 2/9=110/2;
 99//99;
 2/9=110/2;
 3/5=1,6=6,7=101,11=2,16=1,25=1,30=1,71=1,74=-5/1,2,3;
 4/5=5,16=3,69=1/1;
 5/5=2,38=5/2;
 7//1,2,3,16;
 1/14=-1,18=20,19=15,26=3/3(-5);
 2/9=110/2;
 6/7=2,8=2,9=2,10=2,19=2,28=1/1;
 99/9=1/99;
 Leave Link    1 at Thu Sep  8 15:11:13 2022, MaxMem= 24159191040 cpu:         2.5
 (Enter /public/home/users/caep010/software/Gaussian09/g09/l101.exe)
 --------
 Frag_501
 --------
 Symbolic Z-matrix:
 Charge =  0 Multiplicity = 1
 C                    -1.55678   0.77839  -1.27494 
 C                    -0.92201   0.36076  -0.17411 
 N                    -1.50936   0.37934   1.09959 
 C                     0.5395   -0.10327  -0.19854 
 C                     0.61704  -1.62737  -0.0216 
 C                     1.3656    0.61999   0.88221 
 O                     1.12603   0.13947  -1.47329 
 H                    -2.59178   1.10265  -1.24163 
 H                    -1.05906   0.7895   -2.2328 
 H                    -1.21846  -0.37205   1.70964 
 H                    -2.51826   0.44342   1.07685 
 H                     0.07412  -2.12142  -0.83074 
 H                     0.18971  -1.94751   0.93344 
 H                     1.6616   -1.94931  -0.05251 
 H                     1.31389   1.70463   0.73911 
 H                     1.00873   0.40852   1.8931 
 H                     2.41022   0.3064    0.80387 
 H                     1.06918   1.08767  -1.63785 
 
 NAtoms=     18 NQM=       18 NQMF=       0 NMMI=      0 NMMIF=      0
                NMic=       0 NMicF=      0.
                    Isotopes and Nuclear Properties:
 (Nuclear quadrupole moments (NQMom) in fm**2, nuclear magnetic moments (NMagM)
  in nuclear magnetons)

  Atom         1           2           3           4           5           6           7           8           9          10
 IAtWgt=          12          12          14          12          12          12          16           1           1           1
 AtmWgt=  12.0000000  12.0000000  14.0030740  12.0000000  12.0000000  12.0000000  15.9949146   1.0078250   1.0078250   1.0078250
 NucSpn=           0           0           2           0           0           0           0           1           1           1
 AtZEff=   0.0000000   0.0000000   0.0000000   0.0000000   0.0000000   0.0000000   0.0000000   0.0000000   0.0000000   0.0000000
 NQMom=    0.0000000   0.0000000   2.0440000   0.0000000   0.0000000   0.0000000   0.0000000   0.0000000   0.0000000   0.0000000
 NMagM=    0.0000000   0.0000000   0.4037610   0.0000000   0.0000000   0.0000000   0.0000000   2.7928460   2.7928460   2.7928460
 AtZNuc=   6.0000000   6.0000000   7.0000000   6.0000000   6.0000000   6.0000000   8.0000000   1.0000000   1.0000000   1.0000000

  Atom        11          12          13          14          15          16          17          18
 IAtWgt=           1           1           1           1           1           1           1           1
 AtmWgt=   1.0078250   1.0078250   1.0078250   1.0078250   1.0078250   1.0078250   1.0078250   1.0078250
 NucSpn=           1           1           1           1           1           1           1           1
 AtZEff=   0.0000000   0.0000000   0.0000000   0.0000000   0.0000000   0.0000000   0.0000000   0.0000000
 NQMom=    0.0000000   0.0000000   0.0000000   0.0000000   0.0000000   0.0000000   0.0000000   0.0000000
 NMagM=    2.7928460   2.7928460   2.7928460   2.7928460   2.7928460   2.7928460   2.7928460   2.7928460
 AtZNuc=   1.0000000   1.0000000   1.0000000   1.0000000   1.0000000   1.0000000   1.0000000   1.0000000
 Leave Link  101 at Thu Sep  8 15:11:13 2022, MaxMem= 24159191040 cpu:         9.8
 (Enter /public/home/users/caep010/software/Gaussian09/g09/l103.exe)

 GradGradGradGradGradGradGradGradGradGradGradGradGradGradGradGradGradGrad
 Berny optimization.
 Initialization pass.
                           ----------------------------
                           !    Initial Parameters    !
                           ! (Angstroms and Degrees)  !
 --------------------------                            --------------------------
 ! Name  Definition              Value          Derivative Info.                !
 --------------------------------------------------------------------------------
 ! R1    R(1,2)                  1.3376         estimate D2E/DX2                !
 ! R2    R(1,8)                  1.0851         estimate D2E/DX2                !
 ! R3    R(1,9)                  1.0795         estimate D2E/DX2                !
 ! R4    R(2,3)                  1.4027         estimate D2E/DX2                !
 ! R5    R(2,4)                  1.5336         estimate D2E/DX2                !
 ! R6    R(3,10)                 1.0106         estimate D2E/DX2                !
 ! R7    R(3,11)                 1.0112         estimate D2E/DX2                !
 ! R8    R(4,5)                  1.5363         estimate D2E/DX2                !
 ! R9    R(4,6)                  1.5406         estimate D2E/DX2                !
 ! R10   R(4,7)                  1.4241         estimate D2E/DX2                !
 ! R11   R(5,12)                 1.0925         estimate D2E/DX2                !
 ! R12   R(5,13)                 1.0942         estimate D2E/DX2                !
 ! R13   R(5,14)                 1.0935         estimate D2E/DX2                !
 ! R14   R(6,15)                 1.0953         estimate D2E/DX2                !
 ! R15   R(6,16)                 1.0927         estimate D2E/DX2                !
 ! R16   R(6,17)                 1.0935         estimate D2E/DX2                !
 ! R17   R(7,18)                 0.964          estimate D2E/DX2                !
 ! A1    A(2,1,8)              121.3778         estimate D2E/DX2                !
 ! A2    A(2,1,9)              120.9748         estimate D2E/DX2                !
 ! A3    A(8,1,9)              117.6406         estimate D2E/DX2                !
 ! A4    A(1,2,3)              122.9869         estimate D2E/DX2                !
 ! A5    A(1,2,4)              122.25           estimate D2E/DX2                !
 ! A6    A(3,2,4)              114.6772         estimate D2E/DX2                !
 ! A7    A(2,3,10)             114.6917         estimate D2E/DX2                !
 ! A8    A(2,3,11)             113.4651         estimate D2E/DX2                !
 ! A9    A(10,3,11)            110.3577         estimate D2E/DX2                !
 ! A10   A(2,4,5)              110.2694         estimate D2E/DX2                !
 ! A11   A(2,4,6)              110.9644         estimate D2E/DX2                !
 ! A12   A(2,4,7)              110.8052         estimate D2E/DX2                !
 ! A13   A(5,4,6)              110.9695         estimate D2E/DX2                !
 ! A14   A(5,4,7)              104.561          estimate D2E/DX2                !
 ! A15   A(6,4,7)              109.0917         estimate D2E/DX2                !
 ! A16   A(4,5,12)             109.7705         estimate D2E/DX2                !
 ! A17   A(4,5,13)             111.782          estimate D2E/DX2                !
 ! A18   A(4,5,14)             109.6965         estimate D2E/DX2                !
 ! A19   A(12,5,13)            108.6666         estimate D2E/DX2                !
 ! A20   A(12,5,14)            108.7015         estimate D2E/DX2                !
 ! A21   A(13,5,14)            108.1562         estimate D2E/DX2                !
 ! A22   A(4,6,15)             110.3609         estimate D2E/DX2                !
 ! A23   A(4,6,16)             112.5201         estimate D2E/DX2                !
 ! A24   A(4,6,17)             109.1084         estimate D2E/DX2                !
 ! A25   A(15,6,16)            107.2839         estimate D2E/DX2                !
 ! A26   A(15,6,17)            108.647          estimate D2E/DX2                !
 ! A27   A(16,6,17)            108.8315         estimate D2E/DX2                !
 ! A28   A(4,7,18)             107.2275         estimate D2E/DX2                !
 ! D1    D(8,1,2,3)             -3.6228         estimate D2E/DX2                !
 ! D2    D(8,1,2,4)            179.9285         estimate D2E/DX2                !
 ! D3    D(9,1,2,3)            177.3459         estimate D2E/DX2                !
 ! D4    D(9,1,2,4)              0.8972         estimate D2E/DX2                !
 ! D5    D(1,2,3,10)           146.852          estimate D2E/DX2                !
 ! D6    D(1,2,3,11)            18.7555         estimate D2E/DX2                !
 ! D7    D(4,2,3,10)           -36.453          estimate D2E/DX2                !
 ! D8    D(4,2,3,11)          -164.5495         estimate D2E/DX2                !
 ! D9    D(1,2,4,5)           -107.8829         estimate D2E/DX2                !
 ! D10   D(1,2,4,6)            128.7474         estimate D2E/DX2                !
 ! D11   D(1,2,4,7)              7.3961         estimate D2E/DX2                !
 ! D12   D(3,2,4,5)             75.395          estimate D2E/DX2                !
 ! D13   D(3,2,4,6)            -47.9747         estimate D2E/DX2                !
 ! D14   D(3,2,4,7)           -169.3261         estimate D2E/DX2                !
 ! D15   D(2,4,5,12)            59.943          estimate D2E/DX2                !
 ! D16   D(2,4,5,13)           -60.7138         estimate D2E/DX2                !
 ! D17   D(2,4,5,14)           179.321          estimate D2E/DX2                !
 ! D18   D(6,4,5,12)          -176.6903         estimate D2E/DX2                !
 ! D19   D(6,4,5,13)            62.6529         estimate D2E/DX2                !
 ! D20   D(6,4,5,14)           -57.3123         estimate D2E/DX2                !
 ! D21   D(7,4,5,12)           -59.2093         estimate D2E/DX2                !
 ! D22   D(7,4,5,13)          -179.8661         estimate D2E/DX2                !
 ! D23   D(7,4,5,14)            60.1687         estimate D2E/DX2                !
 ! D24   D(2,4,6,15)           -57.7596         estimate D2E/DX2                !
 ! D25   D(2,4,6,16)            62.0383         estimate D2E/DX2                !
 ! D26   D(2,4,6,17)          -177.0676         estimate D2E/DX2                !
 ! D27   D(5,4,6,15)           179.2737         estimate D2E/DX2                !
 ! D28   D(5,4,6,16)           -60.9283         estimate D2E/DX2                !
 ! D29   D(5,4,6,17)            59.9657         estimate D2E/DX2                !
 ! D30   D(7,4,6,15)            64.5928         estimate D2E/DX2                !
 ! D31   D(7,4,6,16)          -175.6093         estimate D2E/DX2                !
 ! D32   D(7,4,6,17)           -54.7152         estimate D2E/DX2                !
 ! D33   D(2,4,7,18)            59.2681         estimate D2E/DX2                !
 ! D34   D(5,4,7,18)           178.0578         estimate D2E/DX2                !
 ! D35   D(6,4,7,18)           -63.1801         estimate D2E/DX2                !
 --------------------------------------------------------------------------------
 Trust Radius=3.00D-01 FncErr=1.00D-07 GrdErr=1.00D-06
 Number of steps in this run=     90 maximum allowed number of steps=    108.
 GradGradGradGradGradGradGradGradGradGradGradGradGradGradGradGradGradGrad

 Leave Link  103 at Thu Sep  8 15:11:14 2022, MaxMem= 24159191040 cpu:         0.4
 (Enter /public/home/users/caep010/software/Gaussian09/g09/l202.exe)
                          Input orientation:                          
 ---------------------------------------------------------------------
 Center     Atomic      Atomic             Coordinates (Angstroms)
 Number     Number       Type             X           Y           Z
 ---------------------------------------------------------------------
      1          6           0       -1.556778    0.778386   -1.274940
      2          6           0       -0.922012    0.360757   -0.174113
      3          7           0       -1.509360    0.379342    1.099589
      4          6           0        0.539498   -0.103266   -0.198536
      5          6           0        0.617038   -1.627371   -0.021601
      6          6           0        1.365595    0.619985    0.882213
      7          8           0        1.126025    0.139474   -1.473288
      8          1           0       -2.591777    1.102646   -1.241634
      9          1           0       -1.059059    0.789500   -2.232797
     10          1           0       -1.218462   -0.372049    1.709636
     11          1           0       -2.518256    0.443424    1.076848
     12          1           0        0.074120   -2.121424   -0.830737
     13          1           0        0.189713   -1.947507    0.933441
     14          1           0        1.661604   -1.949312   -0.052514
     15          1           0        1.313888    1.704633    0.739113
     16          1           0        1.008728    0.408518    1.893100
     17          1           0        2.410217    0.306397    0.803866
     18          1           0        1.069178    1.087666   -1.637845
 ---------------------------------------------------------------------
                    Distance matrix (angstroms):
                    1          2          3          4          5
     1  C    0.000000
     2  C    1.337596   0.000000
     3  N    2.408292   1.402726   0.000000
     4  C    2.516014   1.533599   2.473026   0.000000
     5  C    3.476205   2.518847   3.131379   1.536299   0.000000
     6  C    3.635748   2.533016   2.893186   1.540632   2.535316
     7  O    2.764956   2.435421   3.690865   1.424054   2.342692
     8  H    1.085116   2.116156   2.678828   3.513853   4.386111
     9  H    1.079508   2.107316   3.387595   2.736902   3.679668
    10  H    3.216466   2.042890   1.010627   2.608407   2.818169
    11  H    2.562722   2.029712   1.011185   3.357876   3.914697
    12  H    3.356493   2.754026   3.533751   2.165460   1.092497
    13  H    3.918886   2.791181   2.885945   2.192019   1.094166
    14  H    4.392339   3.467892   4.099388   2.165255   1.093490
    15  H    3.626991   2.763916   3.139597   2.178845   3.488056
    16  H    4.093300   2.829029   2.640318   2.203870   2.822117
    17  H    4.503472   3.473204   3.931394   2.161533   2.763394
    18  H    2.668895   2.575994   3.826764   1.941775   3.191881
                    6          7          8          9         10
     6  C    0.000000
     7  O    2.415920   0.000000
     8  H    4.517132   3.847521   0.000000
     9  H    3.951072   2.402911   1.851942   0.000000
    10  H    2.888964   3.986136   3.573614   4.113075   0.000000
    11  H    3.892731   4.458292   2.411501   3.633562   1.659784
    12  H    3.481010   2.575080   4.203626   3.423937   3.344335
    13  H    2.824418   3.320318   4.665948   4.367574   2.251112
    14  H    2.750022   2.582338   5.368399   4.433591   3.726622
    15  H    1.095268   2.716566   4.420403   3.911597   3.415746
    16  H    1.092687   3.379158   4.824107   4.630758   2.367133
    17  H    1.093486   2.619626   5.462419   4.635794   3.801055
    18  H    2.580171   0.964043   3.682363   2.229857   4.309257
                   11         12         13         14         15
    11  H    0.000000
    12  H    4.115548   0.000000
    13  H    3.615275   1.776495   0.000000
    14  H    4.946905   1.776333   1.771602   0.000000
    15  H    4.048462   4.317426   3.826181   3.754849   0.000000
    16  H    3.620373   3.833195   2.672561   3.125864   1.762022
    17  H    4.937929   3.744809   3.166625   2.526268   1.777975
    18  H    4.544699   3.455405   4.073972   3.476705   2.467886
                   16         17         18
    16  H    0.000000
    17  H    1.777929   0.000000
    18  H    3.596174   2.893220   0.000000
 Stoichiometry    C5H11NO
 Framework group  C1[X(C5H11NO)]
 Deg. of freedom    48
 Full point group                 C1      NOp   1
 Largest Abelian subgroup         C1      NOp   1
 Largest concise Abelian subgroup C1      NOp   1
                         Standard orientation:                         
 ---------------------------------------------------------------------
 Center     Atomic      Atomic             Coordinates (Angstroms)
 Number     Number       Type             X           Y           Z
 ---------------------------------------------------------------------
      1          6           0        1.667661    1.183399   -0.008122
      2          6           0        0.952657    0.052968   -0.000460
      3          7           0        1.537085   -1.220766   -0.061179
      4          6           0       -0.580935    0.054624   -0.004370
      5          6           0       -1.117133   -0.375827    1.369464
      6          6           0       -1.130294   -0.854588   -1.120203
      7          8           0       -1.084855    1.373808   -0.188079
      8          1           0        2.752625    1.165721   -0.004061
      9          1           0        1.182473    2.147714   -0.002947
     10          1           0        1.040150   -1.938010    0.448708
     11          1           0        2.516945   -1.226499    0.188494
     12          1           0       -0.763317    0.315873    2.137522
     13          1           0       -0.793313   -1.387208    1.632995
     14          1           0       -2.210463   -0.359741    1.359915
     15          1           0       -0.752275   -0.531199   -2.095976
     16          1           0       -0.839548   -1.899749   -0.989552
     17          1           0       -2.221854   -0.790373   -1.129354
     18          1           0       -0.743909    1.694917   -1.030708
 ---------------------------------------------------------------------
 Rotational constants (GHZ):      3.2770564      2.3430047      1.9491596
 Leave Link  202 at Thu Sep  8 15:11:14 2022, MaxMem= 24159191040 cpu:         0.7
 (Enter /public/home/users/caep010/software/Gaussian09/g09/l301.exe)
 Standard basis: 6-31G(d,p) (6D, 7F)
 Ernie: Thresh=  0.10000D-02 Tol=  0.10000D-05 Strict=F.
 There are   160 symmetry adapted cartesian basis functions of A   symmetry.
 There are   160 symmetry adapted basis functions of A   symmetry.
   160 basis functions,   273 primitive gaussians,   160 cartesian basis functions
    28 alpha electrons       28 beta electrons
       nuclear repulsion energy       328.5274646752 Hartrees.
 IExCor=  402 DFT=T Ex+Corr=B3LYP ExCW=0 ScaHFX=  0.200000
 ScaDFX=  0.800000  0.720000  1.000000  0.810000 ScalE2=  1.000000  1.000000
 IRadAn=      0 IRanWt=     -1 IRanGd=            0 ICorTp=0 IEmpDi=  4
 NAtoms=   18 NActive=   18 NUniq=   18 SFac= 1.00D+00 NAtFMM=   60 NAOKFM=F Big=F
 Integral buffers will be    131072 words long.
 Raffenetti 2 integral format.
 Two-electron integral symmetry is turned on.
 Leave Link  301 at Thu Sep  8 15:11:14 2022, MaxMem= 24159191040 cpu:         1.9
 (Enter /public/home/users/caep010/software/Gaussian09/g09/l302.exe)
 NPDir=0 NMtPBC=     1 NCelOv=     1 NCel=       1 NClECP=     1 NCelD=      1
         NCelK=      1 NCelE2=     1 NClLst=     1 CellRange=     0.0.
 One-electron integrals computed using PRISM.
 NBasis=   160 RedAO= T EigKep=  1.93D-03  NBF=   160
 NBsUse=   160 1.00D-06 EigRej= -1.00D+00 NBFU=   160
 Precomputing XC quadrature grid using
 IXCGrd= 4 IRadAn=           0 IRanWt=          -1 IRanGd=           0 AccXCQ= 0.00D+00.
 Generated NRdTot=       0 NPtTot=           0 NUsed=           0 NTot=          32
 NSgBfM=   160   160   160   160   160 MxSgAt=    18 MxSgA2=    18.
 Leave Link  302 at Thu Sep  8 15:11:14 2022, MaxMem= 24159191040 cpu:        11.9
 (Enter /public/home/users/caep010/software/Gaussian09/g09/l303.exe)
 DipDrv:  MaxL=1.
 Leave Link  303 at Thu Sep  8 15:11:14 2022, MaxMem= 24159191040 cpu:         0.8
 (Enter /public/home/users/caep010/software/Gaussian09/g09/l401.exe)
 ExpMin= 1.61D-01 ExpMax= 5.48D+03 ExpMxC= 8.25D+02 IAcc=1 IRadAn=         1 AccDes= 0.00D+00
 Harris functional with IExCor=  402 and IRadAn=       1 diagonalized for initial guess.
 HarFok:  IExCor=  402 AccDes= 0.00D+00 IRadAn=         1 IDoV= 1 UseB2=F ITyADJ=14
 ICtDFT=  3500011 ScaDFX=  1.000000  1.000000  1.000000  1.000000
 FoFCou: FMM=F IPFlag=           0 FMFlag=      100000 FMFlg1=           0
         NFxFlg=           0 DoJE=T BraDBF=F KetDBF=T FulRan=T
         wScrn=  0.000000 ICntrl=     500 IOpCl=  0 I1Cent=   200000004 NGrid=           0
         NMat0=    1 NMatS0=      1 NMatT0=    0 NMatD0=    1 NMtDS0=    0 NMtDT0=    0
 Petite list used in FoFCou.
 Harris En= -327.194683716428    
 JPrj=0 DoOrth=F DoCkMO=F.
 Leave Link  401 at Thu Sep  8 15:11:15 2022, MaxMem= 24159191040 cpu:        10.4
 (Enter /public/home/users/caep010/software/Gaussian09/g09/l502.exe)
 Closed shell SCF:
 Using DIIS extrapolation, IDIIS=  1040.
 Integral symmetry usage will be decided dynamically.
 Keep R1 ints in memory in canonical form, NReq=85141887.
 IVT=      101687 IEndB=      101687 NGot= 24159191040 MDV= 24076135714
 LenX= 24076135714 LenY= 24076109673
 Requested convergence on RMS density matrix=1.00D-08 within 128 cycles.
 Requested convergence on MAX density matrix=1.00D-06.
 Requested convergence on             energy=1.00D-06.
 No special actions if energy rises.
 FoFCou: FMM=F IPFlag=           0 FMFlag=           0 FMFlg1=           0
         NFxFlg=           0 DoJE=F BraDBF=F KetDBF=F FulRan=T
         wScrn=  0.000000 ICntrl=     600 IOpCl=  0 I1Cent=           0 NGrid=           0
         NMat0=    1 NMatS0=  12880 NMatT0=    0 NMatD0=    1 NMtDS0=    0 NMtDT0=    0
 Symmetry not used in FoFCou.
 Integral accuracy reduced to 1.0D-05 until final iterations.

 Cycle   1  Pass 0  IDiag  1:
 E= -326.843170580075    
 DIIS: error= 2.79D-02 at cycle   1 NSaved=   1.
 NSaved= 1 IEnMin= 1 EnMin= -326.843170580075     IErMin= 1 ErrMin= 2.79D-02
 ErrMax= 2.79D-02  0.00D+00 EMaxC= 1.00D-01 BMatC= 2.88D-01 BMatP= 2.88D-01
 IDIUse=3 WtCom= 7.21D-01 WtEn= 2.79D-01
 Coeff-Com:  0.100D+01
 Coeff-En:   0.100D+01
 Coeff:      0.100D+01
 Gap=     0.228 Goal=   None    Shift=    0.000
 GapD=    0.228 DampG=1.000 DampE=0.500 DampFc=0.5000 IDamp=-1.
 Damping current iteration by 5.00D-01
 RMSDP=6.91D-03 MaxDP=1.75D-01              OVMax= 2.15D-01

 Cycle   2  Pass 0  IDiag  1:
 E= -326.969512015554     Delta-E=       -0.126341435479 Rises=F Damp=T
 DIIS: error= 9.56D-03 at cycle   2 NSaved=   2.
 NSaved= 2 IEnMin= 2 EnMin= -326.969512015554     IErMin= 2 ErrMin= 9.56D-03
 ErrMax= 9.56D-03  0.00D+00 EMaxC= 1.00D-01 BMatC= 1.19D-02 BMatP= 2.88D-01
 IDIUse=3 WtCom= 9.04D-01 WtEn= 9.56D-02
 Coeff-Com:  0.814D-01 0.919D+00
 Coeff-En:   0.124D+00 0.876D+00
 Coeff:      0.854D-01 0.915D+00
 Gap=     0.256 Goal=   None    Shift=    0.000
 RMSDP=1.14D-03 MaxDP=2.61D-02 DE=-1.26D-01 OVMax= 1.29D-01

 Cycle   3  Pass 0  IDiag  1:
 E= -327.120327128517     Delta-E=       -0.150815112962 Rises=F Damp=F
 DIIS: error= 3.86D-03 at cycle   3 NSaved=   3.
 NSaved= 3 IEnMin= 3 EnMin= -327.120327128517     IErMin= 3 ErrMin= 3.86D-03
 ErrMax= 3.86D-03  0.00D+00 EMaxC= 1.00D-01 BMatC= 4.95D-03 BMatP= 1.19D-02
 IDIUse=3 WtCom= 9.61D-01 WtEn= 3.86D-02
 Coeff-Com:  0.153D-01 0.366D+00 0.618D+00
 Coeff-En:   0.000D+00 0.000D+00 0.100D+01
 Coeff:      0.148D-01 0.352D+00 0.633D+00
 Gap=     0.247 Goal=   None    Shift=    0.000
 RMSDP=6.51D-04 MaxDP=2.05D-02 DE=-1.51D-01 OVMax= 3.45D-02

 Cycle   4  Pass 0  IDiag  1:
 E= -327.122546943880     Delta-E=       -0.002219815363 Rises=F Damp=F
 DIIS: error= 2.52D-03 at cycle   4 NSaved=   4.
 NSaved= 4 IEnMin= 4 EnMin= -327.122546943880     IErMin= 4 ErrMin= 2.52D-03
 ErrMax= 2.52D-03  0.00D+00 EMaxC= 1.00D-01 BMatC= 2.25D-03 BMatP= 4.95D-03
 IDIUse=3 WtCom= 9.75D-01 WtEn= 2.52D-02
 Coeff-Com: -0.152D-02 0.460D-01 0.403D+00 0.552D+00
 Coeff-En:   0.000D+00 0.000D+00 0.350D+00 0.650D+00
 Coeff:     -0.148D-02 0.449D-01 0.402D+00 0.555D+00
 Gap=     0.247 Goal=   None    Shift=    0.000
 RMSDP=3.18D-04 MaxDP=9.35D-03 DE=-2.22D-03 OVMax= 1.90D-02

 Cycle   5  Pass 0  IDiag  1:
 E= -327.124491067472     Delta-E=       -0.001944123592 Rises=F Damp=F
 DIIS: error= 6.42D-04 at cycle   5 NSaved=   5.
 NSaved= 5 IEnMin= 5 EnMin= -327.124491067472     IErMin= 5 ErrMin= 6.42D-04
 ErrMax= 6.42D-04  0.00D+00 EMaxC= 1.00D-01 BMatC= 8.08D-05 BMatP= 2.25D-03
 IDIUse=3 WtCom= 9.94D-01 WtEn= 6.42D-03
 Coeff-Com: -0.856D-03 0.109D-01 0.190D+00 0.295D+00 0.505D+00
 Coeff-En:   0.000D+00 0.000D+00 0.000D+00 0.000D+00 0.100D+01
 Coeff:     -0.851D-03 0.109D-01 0.189D+00 0.293D+00 0.508D+00
 Gap=     0.247 Goal=   None    Shift=    0.000
 RMSDP=6.95D-05 MaxDP=2.97D-03 DE=-1.94D-03 OVMax= 5.90D-03

 Cycle   6  Pass 0  IDiag  1:
 E= -327.124561162898     Delta-E=       -0.000070095425 Rises=F Damp=F
 DIIS: error= 1.60D-04 at cycle   6 NSaved=   6.
 NSaved= 6 IEnMin= 6 EnMin= -327.124561162898     IErMin= 6 ErrMin= 1.60D-04
 ErrMax= 1.60D-04  0.00D+00 EMaxC= 1.00D-01 BMatC= 9.70D-06 BMatP= 8.08D-05
 IDIUse=3 WtCom= 9.98D-01 WtEn= 1.60D-03
 Coeff-Com: -0.171D-03-0.869D-03 0.516D-01 0.897D-01 0.293D+00 0.566D+00
 Coeff-En:   0.000D+00 0.000D+00 0.000D+00 0.000D+00 0.921D-01 0.908D+00
 Coeff:     -0.171D-03-0.867D-03 0.515D-01 0.895D-01 0.293D+00 0.567D+00
 Gap=     0.247 Goal=   None    Shift=    0.000
 RMSDP=1.88D-05 MaxDP=7.34D-04 DE=-7.01D-05 OVMax= 1.53D-03

 Cycle   7  Pass 0  IDiag  1:
 E= -327.124570314982     Delta-E=       -0.000009152084 Rises=F Damp=F
 DIIS: error= 1.66D-05 at cycle   7 NSaved=   7.
 NSaved= 7 IEnMin= 7 EnMin= -327.124570314982     IErMin= 7 ErrMin= 1.66D-05
 ErrMax= 1.66D-05  0.00D+00 EMaxC= 1.00D-01 BMatC= 1.32D-07 BMatP= 9.70D-06
 IDIUse=1 WtCom= 1.00D+00 WtEn= 0.00D+00
 Coeff-Com: -0.566D-05-0.638D-03 0.171D-01 0.305D-01 0.111D+00 0.232D+00
 Coeff-Com:  0.609D+00
 Coeff:     -0.566D-05-0.638D-03 0.171D-01 0.305D-01 0.111D+00 0.232D+00
 Coeff:      0.609D+00
 Gap=     0.247 Goal=   None    Shift=    0.000
 RMSDP=2.95D-06 MaxDP=8.27D-05 DE=-9.15D-06 OVMax= 9.87D-05

 Initial convergence to 1.0D-05 achieved.  Increase integral accuracy.
 Cycle   8  Pass 1  IDiag  1:
 E= -327.124608898786     Delta-E=       -0.000038583804 Rises=F Damp=F
 DIIS: error= 1.21D-05 at cycle   1 NSaved=   1.
 NSaved= 1 IEnMin= 1 EnMin= -327.124608898786     IErMin= 1 ErrMin= 1.21D-05
 ErrMax= 1.21D-05  0.00D+00 EMaxC= 1.00D-01 BMatC= 5.64D-08 BMatP= 5.64D-08
 IDIUse=1 WtCom= 1.00D+00 WtEn= 0.00D+00
 Coeff-Com:  0.100D+01
 Coeff:      0.100D+01
 Gap=     0.247 Goal=   None    Shift=    0.000
 RMSDP=2.95D-06 MaxDP=8.27D-05 DE=-3.86D-05 OVMax= 9.59D-05

 Cycle   9  Pass 1  IDiag  1:
 E= -327.124608929221     Delta-E=       -0.000000030435 Rises=F Damp=F
 DIIS: error= 1.02D-05 at cycle   2 NSaved=   2.
 NSaved= 2 IEnMin= 2 EnMin= -327.124608929221     IErMin= 2 ErrMin= 1.02D-05
 ErrMax= 1.02D-05  0.00D+00 EMaxC= 1.00D-01 BMatC= 3.86D-08 BMatP= 5.64D-08
 IDIUse=1 WtCom= 1.00D+00 WtEn= 0.00D+00
 Coeff-Com:  0.438D+00 0.562D+00
 Coeff:      0.438D+00 0.562D+00
 Gap=     0.247 Goal=   None    Shift=    0.000
 RMSDP=1.42D-06 MaxDP=6.63D-05 DE=-3.04D-08 OVMax= 7.88D-05

 Cycle  10  Pass 1  IDiag  1:
 E= -327.124608958935     Delta-E=       -0.000000029714 Rises=F Damp=F
 DIIS: error= 4.82D-06 at cycle   3 NSaved=   3.
 NSaved= 3 IEnMin= 3 EnMin= -327.124608958935     IErMin= 3 ErrMin= 4.82D-06
 ErrMax= 4.82D-06  0.00D+00 EMaxC= 1.00D-01 BMatC= 6.39D-09 BMatP= 3.86D-08
 IDIUse=1 WtCom= 1.00D+00 WtEn= 0.00D+00
 Coeff-Com:  0.117D-02 0.283D+00 0.716D+00
 Coeff:      0.117D-02 0.283D+00 0.716D+00
 Gap=     0.247 Goal=   None    Shift=    0.000
 RMSDP=5.84D-07 MaxDP=2.56D-05 DE=-2.97D-08 OVMax= 4.72D-05

 Cycle  11  Pass 1  IDiag  1:
 E= -327.124608963820     Delta-E=       -0.000000004885 Rises=F Damp=F
 DIIS: error= 1.84D-06 at cycle   4 NSaved=   4.
 NSaved= 4 IEnMin= 4 EnMin= -327.124608963820     IErMin= 4 ErrMin= 1.84D-06
 ErrMax= 1.84D-06  0.00D+00 EMaxC= 1.00D-01 BMatC= 1.22D-09 BMatP= 6.39D-09
 IDIUse=1 WtCom= 1.00D+00 WtEn= 0.00D+00
 Coeff-Com: -0.183D-01 0.160D+00 0.465D+00 0.394D+00
 Coeff:     -0.183D-01 0.160D+00 0.465D+00 0.394D+00
 Gap=     0.247 Goal=   None    Shift=    0.000
 RMSDP=2.26D-07 MaxDP=9.07D-06 DE=-4.89D-09 OVMax= 1.85D-05

 Cycle  12  Pass 1  IDiag  1:
 E= -327.124608965078     Delta-E=       -0.000000001258 Rises=F Damp=F
 DIIS: error= 2.53D-07 at cycle   5 NSaved=   5.
 NSaved= 5 IEnMin= 5 EnMin= -327.124608965078     IErMin= 5 ErrMin= 2.53D-07
 ErrMax= 2.53D-07  0.00D+00 EMaxC= 1.00D-01 BMatC= 9.93D-12 BMatP= 1.22D-09
 IDIUse=1 WtCom= 1.00D+00 WtEn= 0.00D+00
 Coeff-Com: -0.730D-02 0.556D-01 0.164D+00 0.163D+00 0.625D+00
 Coeff:     -0.730D-02 0.556D-01 0.164D+00 0.163D+00 0.625D+00
 Gap=     0.247 Goal=   None    Shift=    0.000
 RMSDP=2.60D-08 MaxDP=6.74D-07 DE=-1.26D-09 OVMax= 8.69D-07

 Cycle  13  Pass 1  IDiag  1:
 E= -327.124608965080     Delta-E=       -0.000000000001 Rises=F Damp=F
 DIIS: error= 8.48D-08 at cycle   6 NSaved=   6.
 NSaved= 6 IEnMin= 6 EnMin= -327.124608965080     IErMin= 6 ErrMin= 8.48D-08
 ErrMax= 8.48D-08  0.00D+00 EMaxC= 1.00D-01 BMatC= 1.81D-12 BMatP= 9.93D-12
 IDIUse=1 WtCom= 1.00D+00 WtEn= 0.00D+00
 Coeff-Com: -0.161D-02 0.967D-02 0.281D-01 0.396D-01 0.322D+00 0.602D+00
 Coeff:     -0.161D-02 0.967D-02 0.281D-01 0.396D-01 0.322D+00 0.602D+00
 Gap=     0.247 Goal=   None    Shift=    0.000
 RMSDP=9.60D-09 MaxDP=2.45D-07 DE=-1.14D-12 OVMax= 2.86D-07

 SCF Done:  E(RB3LYP) =  -327.124608965     A.U. after   13 cycles
            NFock= 13  Conv=0.96D-08     -V/T= 2.0093
 KE= 3.241078453867D+02 PE=-1.418201630970D+03 EE= 4.384417119427D+02
 Leave Link  502 at Thu Sep  8 15:11:19 2022, MaxMem= 24159191040 cpu:        69.9
 (Enter /public/home/users/caep010/software/Gaussian09/g09/l601.exe)
 Copying SCF densities to generalized density rwf, IOpCl= 0 IROHF=0.

 **********************************************************************

            Population analysis using the SCF density.

 **********************************************************************

 Orbital symmetries:
       Occupied  (A) (A) (A) (A) (A) (A) (A) (A) (A) (A) (A) (A)
                 (A) (A) (A) (A) (A) (A) (A) (A) (A) (A) (A) (A)
                 (A) (A) (A) (A)
       Virtual   (A) (A) (A) (A) (A) (A) (A) (A) (A) (A) (A) (A)
                 (A) (A) (A) (A) (A) (A) (A) (A) (A) (A) (A) (A)
                 (A) (A) (A) (A) (A) (A) (A) (A) (A) (A) (A) (A)
                 (A) (A) (A) (A) (A) (A) (A) (A) (A) (A) (A) (A)
                 (A) (A) (A) (A) (A) (A) (A) (A) (A) (A) (A) (A)
                 (A) (A) (A) (A) (A) (A) (A) (A) (A) (A) (A) (A)
                 (A) (A) (A) (A) (A) (A) (A) (A) (A) (A) (A) (A)
                 (A) (A) (A) (A) (A) (A) (A) (A) (A) (A) (A) (A)
                 (A) (A) (A) (A) (A) (A) (A) (A) (A) (A) (A) (A)
                 (A) (A) (A) (A) (A) (A) (A) (A) (A) (A) (A) (A)
                 (A) (A) (A) (A) (A) (A) (A) (A) (A) (A) (A) (A)
 The electronic state is 1-A.
 Alpha  occ. eigenvalues --  -19.13882 -14.33520 -10.24576 -10.21335 -10.17618
 Alpha  occ. eigenvalues --  -10.17437 -10.15139  -1.01924  -0.90776  -0.77353
 Alpha  occ. eigenvalues --   -0.72171  -0.69049  -0.60499  -0.55368  -0.52055
 Alpha  occ. eigenvalues --   -0.47235  -0.46246  -0.43245  -0.42247  -0.39782
 Alpha  occ. eigenvalues --   -0.39363  -0.37933  -0.36101  -0.34686  -0.32437
 Alpha  occ. eigenvalues --   -0.31257  -0.26784  -0.20291
 Alpha virt. eigenvalues --    0.04447   0.06654   0.09864   0.11956   0.12881
 Alpha virt. eigenvalues --    0.15012   0.16180   0.16450   0.18078   0.19376
 Alpha virt. eigenvalues --    0.20358   0.21607   0.23399   0.25492   0.26236
 Alpha virt. eigenvalues --    0.27954   0.35227   0.38474   0.49815   0.53420
 Alpha virt. eigenvalues --    0.55200   0.56844   0.57589   0.59095   0.61090
 Alpha virt. eigenvalues --    0.62784   0.64990   0.68417   0.68857   0.72551
 Alpha virt. eigenvalues --    0.72938   0.77246   0.79095   0.79555   0.81979
 Alpha virt. eigenvalues --    0.83871   0.85305   0.86389   0.87830   0.88447
 Alpha virt. eigenvalues --    0.89893   0.91053   0.92612   0.93951   0.95785
 Alpha virt. eigenvalues --    0.97282   1.02749   1.04108   1.09208   1.12423
 Alpha virt. eigenvalues --    1.14690   1.20041   1.22247   1.26810   1.32736
 Alpha virt. eigenvalues --    1.38246   1.46999   1.49940   1.50985   1.55041
 Alpha virt. eigenvalues --    1.56057   1.60215   1.66095   1.70403   1.77524
 Alpha virt. eigenvalues --    1.79326   1.83167   1.85922   1.87185   1.88958
 Alpha virt. eigenvalues --    1.90804   1.97911   1.99420   2.03015   2.03875
 Alpha virt. eigenvalues --    2.05273   2.06295   2.08893   2.10486   2.11639
 Alpha virt. eigenvalues --    2.12452   2.15080   2.16740   2.20062   2.20905
 Alpha virt. eigenvalues --    2.21834   2.25409   2.30069   2.34773   2.36324
 Alpha virt. eigenvalues --    2.40137   2.41828   2.45085   2.45665   2.52930
 Alpha virt. eigenvalues --    2.54648   2.55954   2.60109   2.63367   2.66514
 Alpha virt. eigenvalues --    2.66844   2.69363   2.72190   2.74643   2.80920
 Alpha virt. eigenvalues --    2.84021   2.86235   2.88425   2.90612   2.94032
 Alpha virt. eigenvalues --    2.97638   3.03736   3.05392   3.13340   3.19404
 Alpha virt. eigenvalues --    3.23568   3.30645   3.38883   3.42674   3.43110
 Alpha virt. eigenvalues --    3.44392   3.47488   3.49763   3.51891   3.64267
 Alpha virt. eigenvalues --    3.98965   4.08285   4.23348   4.40457   4.54070
 Alpha virt. eigenvalues --    4.58705   4.72751
          Condensed to atoms (all electrons):
               1          2          3          4          5          6
     1  C    5.085652   0.655653  -0.080650  -0.042189  -0.006002   0.001867
     2  C    0.655653   4.648335   0.304177   0.371628  -0.059264  -0.075308
     3  N   -0.080650   0.304177   6.793974  -0.061722  -0.000612  -0.000399
     4  C   -0.042189   0.371628  -0.061722   4.752185   0.365524   0.366584
     5  C   -0.006002  -0.059264  -0.000612   0.365524   5.005184  -0.066192
     6  C    0.001867  -0.075308  -0.000399   0.366584  -0.066192   5.044217
     7  O   -0.011018  -0.045847   0.002254   0.226937  -0.058100  -0.052062
     8  H    0.360463  -0.023078  -0.009905   0.005754  -0.000163  -0.000118
     9  H    0.367904  -0.018761   0.005387  -0.016142   0.000265   0.000740
    10  H    0.005883  -0.037556   0.339423  -0.007125   0.004032  -0.001275
    11  H   -0.010922  -0.023095   0.341135   0.005148  -0.000153   0.000078
    12  H    0.003345  -0.003594  -0.000323  -0.022930   0.369997   0.006189
    13  H   -0.000082  -0.003356   0.000349  -0.030684   0.365767  -0.002043
    14  H   -0.000113   0.005005   0.000057  -0.023844   0.370908  -0.006877
    15  H    0.001123  -0.003184  -0.000324  -0.026021   0.005658   0.370759
    16  H   -0.000426  -0.003701   0.004559  -0.019311  -0.002670   0.351753
    17  H   -0.000127   0.005708   0.000187  -0.027788  -0.007457   0.371520
    18  H    0.005287  -0.000591  -0.000001  -0.029603   0.009948  -0.008791
               7          8          9         10         11         12
     1  C   -0.011018   0.360463   0.367904   0.005883  -0.010922   0.003345
     2  C   -0.045847  -0.023078  -0.018761  -0.037556  -0.023095  -0.003594
     3  N    0.002254  -0.009905   0.005387   0.339423   0.341135  -0.000323
     4  C    0.226937   0.005754  -0.016142  -0.007125   0.005148  -0.022930
     5  C   -0.058100  -0.000163   0.000265   0.004032  -0.000153   0.369997
     6  C   -0.052062  -0.000118   0.000740  -0.001275   0.000078   0.006189
     7  O    8.185535   0.000423   0.016351   0.000051  -0.000072   0.000536
     8  H    0.000423   0.630933  -0.040920  -0.000029   0.005922  -0.000039
     9  H    0.016351  -0.040920   0.592685  -0.000197  -0.000222   0.000311
    10  H    0.000051  -0.000029  -0.000197   0.474238  -0.033201  -0.000177
    11  H   -0.000072   0.005922  -0.000222  -0.033201   0.461491  -0.000055
    12  H    0.000536  -0.000039   0.000311  -0.000177  -0.000055   0.580951
    13  H    0.003675  -0.000000   0.000019   0.004955   0.000037  -0.029548
    14  H    0.000504   0.000004  -0.000038  -0.000329   0.000013  -0.027454
    15  H   -0.002560  -0.000024  -0.000044   0.000273  -0.000083  -0.000220
    16  H    0.003996  -0.000006  -0.000041  -0.000012   0.000097  -0.000110
    17  H    0.001403   0.000004  -0.000022  -0.000188   0.000003  -0.000066
    18  H    0.277436  -0.000209   0.000610   0.000039  -0.000006  -0.000357
              13         14         15         16         17         18
     1  C   -0.000082  -0.000113   0.001123  -0.000426  -0.000127   0.005287
     2  C   -0.003356   0.005005  -0.003184  -0.003701   0.005708  -0.000591
     3  N    0.000349   0.000057  -0.000324   0.004559   0.000187  -0.000001
     4  C   -0.030684  -0.023844  -0.026021  -0.019311  -0.027788  -0.029603
     5  C    0.365767   0.370908   0.005658  -0.002670  -0.007457   0.009948
     6  C   -0.002043  -0.006877   0.370759   0.351753   0.371520  -0.008791
     7  O    0.003675   0.000504  -0.002560   0.003996   0.001403   0.277436
     8  H   -0.000000   0.000004  -0.000024  -0.000006   0.000004  -0.000209
     9  H    0.000019  -0.000038  -0.000044  -0.000041  -0.000022   0.000610
    10  H    0.004955  -0.000329   0.000273  -0.000012  -0.000188   0.000039
    11  H    0.000037   0.000013  -0.000083   0.000097   0.000003  -0.000006
    12  H   -0.029548  -0.027454  -0.000220  -0.000110  -0.000066  -0.000357
    13  H    0.637003  -0.029643  -0.000031   0.000924   0.000065  -0.000333
    14  H   -0.029643   0.592027  -0.000070   0.000313   0.004126  -0.000229
    15  H   -0.000031  -0.000070   0.606882  -0.028538  -0.031398   0.005306
    16  H    0.000924   0.000313  -0.028538   0.623636  -0.027668  -0.000070
    17  H    0.000065   0.004126  -0.031398  -0.027668   0.601823  -0.000558
    18  H   -0.000333  -0.000229   0.005306  -0.000070  -0.000558   0.443082
 Mulliken charges:
               1
     1  C   -0.335648
     2  C    0.306830
     3  N   -0.637567
     4  C    0.213600
     5  C   -0.296671
     6  C   -0.300642
     7  O   -0.549441
     8  H    0.070988
     9  H    0.092117
    10  H    0.251195
    11  H    0.253887
    12  H    0.123545
    13  H    0.082926
    14  H    0.115639
    15  H    0.102497
    16  H    0.097274
    17  H    0.110432
    18  H    0.299040
 Sum of Mulliken charges =  -0.00000
 Mulliken charges with hydrogens summed into heavy atoms:
               1
     1  C   -0.172544
     2  C    0.306830
     3  N   -0.132484
     4  C    0.213600
     5  C    0.025439
     6  C    0.009561
     7  O   -0.250401
 Electronic spatial extent (au):  <R**2>=            776.9315
 Charge=             -0.0000 electrons
 Dipole moment (field-independent basis, Debye):
    X=              0.7018    Y=             -1.6712    Z=              0.1425  Tot=              1.8182
 Quadrupole moment (field-independent basis, Debye-Ang):
   XX=            -42.8774   YY=            -42.6864   ZZ=            -43.8984
   XY=             -0.0815   XZ=              2.2958   YZ=             -4.3794
 Traceless Quadrupole moment (field-independent basis, Debye-Ang):
   XX=              0.2767   YY=              0.4677   ZZ=             -0.7444
   XY=             -0.0815   XZ=              2.2958   YZ=             -4.3794
 Octapole moment (field-independent basis, Debye-Ang**2):
  XXX=             11.5490  YYY=             -0.7197  ZZZ=             -2.2970  XYY=              3.4926
  XXY=             -7.2263  XXZ=              3.3311  XZZ=             -5.2063  YZZ=              4.0008
  YYZ=             -0.5317  XYZ=             -1.7629
 Hexadecapole moment (field-independent basis, Debye-Ang**3):
 XXXX=           -436.7211 YYYY=           -288.7701 ZZZZ=           -215.8101 XXXY=            -21.1296
 XXXZ=              7.3713 YYYX=            -16.1301 YYYZ=            -19.8287 ZZZX=              3.8602
 ZZZY=             -6.3375 XXYY=           -135.0965 XXZZ=           -123.5581 YYZZ=            -85.8797
 XXYZ=             -6.8444 YYXZ=              9.3206 ZZXY=             -8.3903
 N-N= 3.285274646752D+02 E-N=-1.418201624276D+03  KE= 3.241078453867D+02
 No NMR shielding tensors so no spin-rotation constants.
 Leave Link  601 at Thu Sep  8 15:11:19 2022, MaxMem= 24159191040 cpu:        10.7
 (Enter /public/home/users/caep010/software/Gaussian09/g09/l701.exe)
 Compute integral first derivatives.
 ... and contract with generalized density number  0.
 Leave Link  701 at Thu Sep  8 15:11:19 2022, MaxMem= 24159191040 cpu:        10.5
 (Enter /public/home/users/caep010/software/Gaussian09/g09/l702.exe)
 L702 exits ... SP integral derivatives will be done elsewhere.
 Leave Link  702 at Thu Sep  8 15:11:19 2022, MaxMem= 24159191040 cpu:         0.5
 (Enter /public/home/users/caep010/software/Gaussian09/g09/l703.exe)
 Compute integral first derivatives, UseDBF=F ICtDFT=           0.
 Integral derivatives from FoFJK, PRISM(SPDF).
 Calling FoFJK, ICntrl=      2127 FMM=F ISym2X=0 I1Cent= 0 IOpClX= 0 NMat=1 NMatS=1 NMatT=0.
 FoFJK:  IHMeth= 1 ICntrl=    2127 DoSepK=F KAlg= 0 I1Cent=   0 FoldK=F
 IRaf=         0 NMat=   1 IRICut=       1 DoRegI=T DoRafI=F ISym2E= 0.
 FoFCou: FMM=F IPFlag=           0 FMFlag=      100000 FMFlg1=         800
         NFxFlg=           0 DoJE=F BraDBF=F KetDBF=F FulRan=T
         wScrn=  0.000000 ICntrl=    2127 IOpCl=  0 I1Cent=           0 NGrid=           0
         NMat0=    1 NMatS0=      1 NMatT0=    0 NMatD0=    1 NMtDS0=    0 NMtDT0=    0
 Symmetry not used in FoFCou.
 Leave Link  703 at Thu Sep  8 15:11:20 2022, MaxMem= 24159191040 cpu:        15.6
 (Enter /public/home/users/caep010/software/Gaussian09/g09/l716.exe)
 Dipole        = 2.76100015D-01-6.57500448D-01 5.60646385D-02
 ***** Axes restored to original set *****
 -------------------------------------------------------------------
 Center     Atomic                   Forces (Hartrees/Bohr)
 Number     Number              X              Y              Z
 -------------------------------------------------------------------
      1        6          -0.001964716    0.001248082   -0.003412428
      2        6           0.001379731   -0.000772332    0.002917070
      3        7           0.000030647    0.000600995    0.000474436
      4        6           0.000045965   -0.000608805    0.001481319
      5        6           0.000234619   -0.000268519   -0.000127915
      6        6           0.000117721    0.000138988    0.000031450
      7        8           0.001416412   -0.003286974   -0.001460961
      8        1          -0.000679567    0.000289128   -0.000001081
      9        1           0.000373384   -0.000165148   -0.000724798
     10        1           0.000464284   -0.001044956    0.000875788
     11        1          -0.001231882    0.000352958   -0.000002415
     12        1          -0.000027745    0.000002650   -0.000079767
     13        1          -0.000060835   -0.000107437    0.000238668
     14        1           0.000078817   -0.000034859   -0.000021680
     15        1           0.000033813    0.000086233    0.000016065
     16        1           0.000038146    0.000078101    0.000176183
     17        1           0.000079018   -0.000071396    0.000038811
     18        1          -0.000327812    0.003563291   -0.000418745
 -------------------------------------------------------------------
 Cartesian Forces:  Max     0.003563291 RMS     0.001092314
 Leave Link  716 at Thu Sep  8 15:11:20 2022, MaxMem= 24159191040 cpu:         0.7
 (Enter /public/home/users/caep010/software/Gaussian09/g09/l103.exe)

 GradGradGradGradGradGradGradGradGradGradGradGradGradGradGradGradGradGrad
 Berny optimization.
 FormGI is forming the generalized inverse of G from B-inverse, IUseBI=4.
 Internal  Forces:  Max     0.004905257 RMS     0.000814725
 Search for a local minimum.
 Step number   1 out of a maximum of   90
 All quantities printed in internal units (Hartrees-Bohrs-Radians)
 RMS Force = .81472D-03 SwitMx=.10000D-02 MixMth= 2
 Mixed Optimization -- En-DIIS/RFO-DIIS
 Second derivative matrix not updated -- first step.
 ITU=  0
     Eigenvalues ---    0.00230   0.00286   0.00321   0.01374   0.01519
     Eigenvalues ---    0.01656   0.02914   0.02915   0.04688   0.04708
     Eigenvalues ---    0.05344   0.05465   0.05637   0.05685   0.06299
     Eigenvalues ---    0.07145   0.16000   0.16000   0.16000   0.16000
     Eigenvalues ---    0.16000   0.16000   0.16000   0.16000   0.16000
     Eigenvalues ---    0.16000   0.16000   0.16620   0.17063   0.24959
     Eigenvalues ---    0.24977   0.28463   0.28849   0.29094   0.34211
     Eigenvalues ---    0.34336   0.34412   0.34413   0.34504   0.34526
     Eigenvalues ---    0.35383   0.36054   0.41856   0.45172   0.45775
     Eigenvalues ---    0.45868   0.54613   0.57747
 RFO step:  Lambda=-1.19939615D-04 EMin= 2.30000000D-03
 Linear search not attempted -- first point.
 Iteration  1 RMS(Cart)=  0.01070643 RMS(Int)=  0.00003000
 Iteration  2 RMS(Cart)=  0.00004791 RMS(Int)=  0.00000089
 Iteration  3 RMS(Cart)=  0.00000000 RMS(Int)=  0.00000089
 ITry= 1 IFail=0 DXMaxC= 3.95D-02 DCOld= 1.00D+10 DXMaxT= 3.00D-01 DXLimC= 3.00D+00 Rises=F
 Variable       Old X    -DE/DX   Delta X   Delta X   Delta X     New X
                                 (Linear)    (Quad)   (Total)
    R1        2.52769   0.00491   0.00000   0.00849   0.00849   2.53618
    R2        2.05057   0.00074   0.00000   0.00209   0.00209   2.05266
    R3        2.03997   0.00081   0.00000   0.00224   0.00224   2.04221
    R4        2.65077   0.00154   0.00000   0.00341   0.00341   2.65417
    R5        2.89808   0.00171   0.00000   0.00588   0.00588   2.90396
    R6        1.90981   0.00145   0.00000   0.00315   0.00315   1.91296
    R7        1.91086   0.00125   0.00000   0.00273   0.00273   1.91359
    R8        2.90318   0.00041   0.00000   0.00143   0.00143   2.90461
    R9        2.91137   0.00043   0.00000   0.00153   0.00153   2.91290
   R10        2.69107   0.00218   0.00000   0.00520   0.00520   2.69627
   R11        2.06452   0.00008   0.00000   0.00022   0.00022   2.06474
   R12        2.06767   0.00026   0.00000   0.00075   0.00075   2.06842
   R13        2.06640   0.00009   0.00000   0.00025   0.00025   2.06665
   R14        2.06976   0.00008   0.00000   0.00023   0.00023   2.06999
   R15        2.06488   0.00013   0.00000   0.00039   0.00039   2.06527
   R16        2.06639   0.00009   0.00000   0.00028   0.00028   2.06666
   R17        1.82178   0.00360   0.00000   0.00659   0.00659   1.82837
    A1        2.11844   0.00008   0.00000   0.00046   0.00046   2.11891
    A2        2.11141  -0.00009   0.00000  -0.00060  -0.00060   2.11081
    A3        2.05322   0.00002   0.00000   0.00010   0.00010   2.05332
    A4        2.14653   0.00014   0.00000   0.00056   0.00056   2.14709
    A5        2.13366  -0.00032   0.00000  -0.00127  -0.00127   2.13239
    A6        2.00150   0.00019   0.00000   0.00075   0.00075   2.00225
    A7        2.00175   0.00001   0.00000   0.00092   0.00092   2.00267
    A8        1.98034   0.00011   0.00000   0.00150   0.00150   1.98184
    A9        1.92611   0.00008   0.00000   0.00181   0.00180   1.92791
   A10        1.92456   0.00014   0.00000   0.00195   0.00195   1.92652
   A11        1.93669  -0.00003   0.00000   0.00024   0.00024   1.93693
   A12        1.93391   0.00003   0.00000   0.00016   0.00016   1.93407
   A13        1.93678  -0.00001   0.00000   0.00009   0.00009   1.93687
   A14        1.82493  -0.00006   0.00000  -0.00078  -0.00078   1.82415
   A15        1.90401  -0.00008   0.00000  -0.00175  -0.00175   1.90226
   A16        1.91586  -0.00008   0.00000  -0.00055  -0.00055   1.91531
   A17        1.95096   0.00008   0.00000   0.00065   0.00065   1.95162
   A18        1.91456  -0.00000   0.00000  -0.00010  -0.00010   1.91446
   A19        1.89659   0.00002   0.00000   0.00030   0.00030   1.89689
   A20        1.89720   0.00001   0.00000  -0.00026  -0.00026   1.89694
   A21        1.88768  -0.00003   0.00000  -0.00005  -0.00005   1.88763
   A22        1.92616   0.00004   0.00000   0.00029   0.00029   1.92645
   A23        1.96385   0.00019   0.00000   0.00123   0.00123   1.96508
   A24        1.90430  -0.00004   0.00000  -0.00036  -0.00036   1.90394
   A25        1.87246  -0.00010   0.00000  -0.00046  -0.00046   1.87200
   A26        1.89625  -0.00001   0.00000  -0.00014  -0.00014   1.89611
   A27        1.89947  -0.00008   0.00000  -0.00061  -0.00061   1.89886
   A28        1.87147  -0.00042   0.00000  -0.00264  -0.00264   1.86884
    D1       -0.06323   0.00007   0.00000   0.00249   0.00249  -0.06074
    D2        3.14034   0.00005   0.00000   0.00168   0.00168  -3.14116
    D3        3.09527   0.00015   0.00000   0.00512   0.00512   3.10039
    D4        0.01566   0.00013   0.00000   0.00431   0.00431   0.01997
    D5        2.56305   0.00002   0.00000  -0.00362  -0.00362   2.55943
    D6        0.32735  -0.00021   0.00000  -0.00843  -0.00843   0.31891
    D7       -0.63622   0.00002   0.00000  -0.00294  -0.00293  -0.63916
    D8       -2.87193  -0.00021   0.00000  -0.00775  -0.00775  -2.87968
    D9       -1.88291   0.00006   0.00000   0.01427   0.01427  -1.86864
   D10        2.24707  -0.00000   0.00000   0.01262   0.01262   2.25969
   D11        0.12909   0.00010   0.00000   0.01457   0.01457   0.14365
   D12        1.31589   0.00005   0.00000   0.01352   0.01352   1.32941
   D13       -0.83732  -0.00002   0.00000   0.01188   0.01188  -0.82544
   D14       -2.95530   0.00008   0.00000   0.01382   0.01382  -2.94147
   D15        1.04620   0.00002   0.00000  -0.00309  -0.00309   1.04311
   D16       -1.05966  -0.00000   0.00000  -0.00352  -0.00352  -1.06318
   D17        3.12974  -0.00002   0.00000  -0.00381  -0.00381   3.12593
   D18       -3.08383   0.00007   0.00000  -0.00136  -0.00136  -3.08519
   D19        1.09350   0.00005   0.00000  -0.00179  -0.00179   1.09171
   D20       -1.00029   0.00003   0.00000  -0.00208  -0.00208  -1.00236
   D21       -1.03340  -0.00006   0.00000  -0.00382  -0.00382  -1.03721
   D22       -3.13926  -0.00008   0.00000  -0.00425  -0.00425   3.13968
   D23        1.05014  -0.00010   0.00000  -0.00453  -0.00453   1.04561
   D24       -1.00810   0.00003   0.00000  -0.00768  -0.00768  -1.01578
   D25        1.08277   0.00006   0.00000  -0.00725  -0.00725   1.07553
   D26       -3.09041   0.00004   0.00000  -0.00746  -0.00746  -3.09788
   D27        3.12892  -0.00012   0.00000  -0.01041  -0.01041   3.11850
   D28       -1.06340  -0.00010   0.00000  -0.00998  -0.00998  -1.07338
   D29        1.04660  -0.00011   0.00000  -0.01019  -0.01019   1.03641
   D30        1.12736  -0.00001   0.00000  -0.00851  -0.00851   1.11885
   D31       -3.06496   0.00002   0.00000  -0.00807  -0.00807  -3.07303
   D32       -0.95496   0.00001   0.00000  -0.00829  -0.00829  -0.96325
   D33        1.03442  -0.00009   0.00000  -0.00162  -0.00162   1.03280
   D34        3.10770   0.00007   0.00000   0.00032   0.00032   3.10801
   D35       -1.10270  -0.00001   0.00000  -0.00085  -0.00085  -1.10355
         Item               Value     Threshold  Converged?
 Maximum Force            0.004905     0.000450     NO 
 RMS     Force            0.000815     0.000300     NO 
 Maximum Displacement     0.039464     0.001800     NO 
 RMS     Displacement     0.010713     0.001200     NO 
 Predicted change in Energy=-6.011232D-05
 Lowest energy point so far.  Saving SCF results.
 GradGradGradGradGradGradGradGradGradGradGradGradGradGradGradGradGradGrad

 Leave Link  103 at Thu Sep  8 15:11:20 2022, MaxMem= 24159191040 cpu:         1.7
 (Enter /public/home/users/caep010/software/Gaussian09/g09/l202.exe)
                          Input orientation:                          
 ---------------------------------------------------------------------
 Center     Atomic      Atomic             Coordinates (Angstroms)
 Number     Number       Type             X           Y           Z
 ---------------------------------------------------------------------
      1          6           0       -1.562972    0.770082   -1.280211
      2          6           0       -0.924236    0.361139   -0.172969
      3          7           0       -1.509951    0.390052    1.103276
      4          6           0        0.540331   -0.103531   -0.197528
      5          6           0        0.620818   -1.629095   -0.028078
      6          6           0        1.365963    0.616400    0.886938
      7          8           0        1.130193    0.146311   -1.472446
      8          1           0       -2.598529    1.096397   -1.248359
      9          1           0       -1.066979    0.768617   -2.240359
     10          1           0       -1.219820   -0.358675    1.719696
     11          1           0       -2.519898    0.460969    1.083450
     12          1           0        0.077092   -2.119644   -0.838958
     13          1           0        0.196143   -1.955365    0.926524
     14          1           0        1.665983   -1.949115   -0.063175
     15          1           0        1.320937    1.701371    0.743088
     16          1           0        1.004650    0.407994    1.897105
     17          1           0        2.409297    0.297004    0.812982
     18          1           0        1.070878    1.098889   -1.631175
 ---------------------------------------------------------------------
                    Distance matrix (angstroms):
                    1          2          3          4          5
     1  C    0.000000
     2  C    1.342090   0.000000
     3  N    2.414176   1.404528   0.000000
     4  C    2.521762   1.536710   2.477775   0.000000
     5  C    3.477475   2.523731   3.145965   1.537055   0.000000
     6  C    3.646754   2.536448   2.892908   1.541439   2.536679
     7  O    2.771134   2.440383   3.696500   1.426806   2.344724
     8  H    1.086220   2.121397   2.685910   3.520868   4.391081
     9  H    1.080693   2.111994   3.394029   2.741759   3.673128
    10  H    3.223552   2.046382   1.012295   2.615144   2.838421
    11  H    2.568687   2.033395   1.012629   3.365199   3.932933
    12  H    3.351870   2.756897   3.548176   2.165810   1.092613
    13  H    3.923293   2.798272   2.905680   2.193456   1.094562
    14  H    4.393332   3.472544   4.113255   2.165947   1.093624
    15  H    3.643895   2.770592   3.140576   2.179857   3.489537
    16  H    4.101113   2.829841   2.636987   2.205615   2.829026
    17  H    4.514885   3.476874   3.931086   2.162081   2.759692
    18  H    2.677397   2.578976   3.826271   1.944901   3.195993
                    6          7          8          9         10
     6  C    0.000000
     7  O    2.417285   0.000000
     8  H    4.528475   3.854380   0.000000
     9  H    3.965144   2.409257   1.853956   0.000000
    10  H    2.886266   3.995916   3.581539   4.120216   0.000000
    11  H    3.893930   4.467078   2.418116   3.640513   1.663378
    12  H    3.482218   2.577766   4.203507   3.408060   3.365962
    13  H    2.825600   3.323334   4.674779   4.364024   2.276728
    14  H    2.752198   2.581458   5.372697   4.426655   3.746463
    15  H    1.095392   2.713520   4.437800   3.933590   3.413649
    16  H    1.092894   3.382028   4.832260   4.641153   2.359560
    17  H    1.093632   2.623356   5.474165   4.650785   3.797702
    18  H    2.580846   0.967532   3.689323   2.247358   4.312786
                   11         12         13         14         15
    11  H    0.000000
    12  H    4.135163   0.000000
    13  H    3.638705   1.777101   0.000000
    14  H    4.964358   1.776371   1.771997   0.000000
    15  H    4.050489   4.318585   3.830212   3.754353   0.000000
    16  H    3.617635   3.838666   2.679772   3.136243   1.761992
    17  H    4.939333   3.742763   3.159764   2.522938   1.778106
    18  H    4.546406   3.460371   4.078658   3.478951   2.462243
                   16         17         18
    16  H    0.000000
    17  H    1.777829   0.000000
    18  H    3.595898   2.899705   0.000000
 Stoichiometry    C5H11NO
 Framework group  C1[X(C5H11NO)]
 Deg. of freedom    48
 Full point group                 C1      NOp   1
 RotChk:  IX=0 Diff= 1.69D-02
 Largest Abelian subgroup         C1      NOp   1
 Largest concise Abelian subgroup C1      NOp   1
                         Standard orientation:                         
 ---------------------------------------------------------------------
 Center     Atomic      Atomic             Coordinates (Angstroms)
 Number     Number       Type             X           Y           Z
 ---------------------------------------------------------------------
      1          6           0        1.670555    1.187224   -0.010463
      2          6           0        0.954796    0.051979    0.000123
      3          7           0        1.541188   -1.223058   -0.055771
      4          6           0       -0.581906    0.053350   -0.004558
      5          6           0       -1.121778   -0.353496    1.375860
      6          6           0       -1.131225   -0.873504   -1.106930
      7          8           0       -1.087099    1.371525   -0.211853
      8          1           0        2.756659    1.171604   -0.007394
      9          1           0        1.182898    2.151614   -0.004272
     10          1           0        1.045918   -1.940157    0.459221
     11          1           0        2.524109   -1.227386    0.187673
     12          1           0       -0.766546    0.349688    2.132923
     13          1           0       -0.802195   -1.362017    1.656603
     14          1           0       -2.215157   -0.333339    1.364488
     15          1           0       -0.759267   -0.560706   -2.088605
     16          1           0       -0.835109   -1.915912   -0.965094
     17          1           0       -2.223277   -0.814971   -1.112039
     18          1           0       -0.742199    1.677466   -1.062477
 ---------------------------------------------------------------------
 Rotational constants (GHZ):      3.2693871      2.3350552      1.9414511
 Leave Link  202 at Thu Sep  8 15:11:20 2022, MaxMem= 24159191040 cpu:         0.4
 (Enter /public/home/users/caep010/software/Gaussian09/g09/l301.exe)
 Standard basis: 6-31G(d,p) (6D, 7F)
 Ernie: Thresh=  0.10000D-02 Tol=  0.10000D-05 Strict=F.
 There are   160 symmetry adapted cartesian basis functions of A   symmetry.
 There are   160 symmetry adapted basis functions of A   symmetry.
   160 basis functions,   273 primitive gaussians,   160 cartesian basis functions
    28 alpha electrons       28 beta electrons
       nuclear repulsion energy       328.0233856824 Hartrees.
 IExCor=  402 DFT=T Ex+Corr=B3LYP ExCW=0 ScaHFX=  0.200000
 ScaDFX=  0.800000  0.720000  1.000000  0.810000 ScalE2=  1.000000  1.000000
 IRadAn=      0 IRanWt=     -1 IRanGd=            0 ICorTp=0 IEmpDi=  4
 NAtoms=   18 NActive=   18 NUniq=   18 SFac= 1.00D+00 NAtFMM=   60 NAOKFM=F Big=F
 Integral buffers will be    131072 words long.
 Raffenetti 2 integral format.
 Two-electron integral symmetry is turned on.
 Leave Link  301 at Thu Sep  8 15:11:20 2022, MaxMem= 24159191040 cpu:         1.9
 (Enter /public/home/users/caep010/software/Gaussian09/g09/l302.exe)
 NPDir=0 NMtPBC=     1 NCelOv=     1 NCel=       1 NClECP=     1 NCelD=      1
         NCelK=      1 NCelE2=     1 NClLst=     1 CellRange=     0.0.
 One-electron integrals computed using PRISM.
 NBasis=   160 RedAO= T EigKep=  1.96D-03  NBF=   160
 NBsUse=   160 1.00D-06 EigRej= -1.00D+00 NBFU=   160
 Precomputing XC quadrature grid using
 IXCGrd= 4 IRadAn=           0 IRanWt=          -1 IRanGd=           0 AccXCQ= 0.00D+00.
 Generated NRdTot=       0 NPtTot=           0 NUsed=           0 NTot=          32
 NSgBfM=   160   160   160   160   160 MxSgAt=    18 MxSgA2=    18.
 Leave Link  302 at Thu Sep  8 15:11:21 2022, MaxMem= 24159191040 cpu:        10.9
 (Enter /public/home/users/caep010/software/Gaussian09/g09/l303.exe)
 DipDrv:  MaxL=1.
 Leave Link  303 at Thu Sep  8 15:11:21 2022, MaxMem= 24159191040 cpu:         0.7
 (Enter /public/home/users/caep010/software/Gaussian09/g09/l401.exe)
 Initial guess from the checkpoint file:  "B3LYP6-31Gdp.Frag_501.chk"
 B after Tr=    -0.000000    0.000000    0.000000
         Rot=    0.999981    0.006097    0.000337   -0.000168 Ang=   0.70 deg.
 Guess basis will be translated and rotated to current coordinates.
 JPrj=2 DoOrth=T DoCkMO=T.
 Generating alternative initial guess.
 ExpMin= 1.61D-01 ExpMax= 5.48D+03 ExpMxC= 8.25D+02 IAcc=1 IRadAn=         1 AccDes= 0.00D+00
 Harris functional with IExCor=  402 and IRadAn=       1 diagonalized for initial guess.
 HarFok:  IExCor=  402 AccDes= 0.00D+00 IRadAn=         1 IDoV= 1 UseB2=F ITyADJ=14
 ICtDFT=  3500011 ScaDFX=  1.000000  1.000000  1.000000  1.000000
 FoFCou: FMM=F IPFlag=           0 FMFlag=      100000 FMFlg1=           0
         NFxFlg=           0 DoJE=T BraDBF=F KetDBF=T FulRan=T
         wScrn=  0.000000 ICntrl=     500 IOpCl=  0 I1Cent=   200000004 NGrid=           0
         NMat0=    1 NMatS0=      1 NMatT0=    0 NMatD0=    1 NMtDS0=    0 NMtDT0=    0
 Petite list used in FoFCou.
 Harris En= -327.193706035641    
 Leave Link  401 at Thu Sep  8 15:11:21 2022, MaxMem= 24159191040 cpu:        12.7
 (Enter /public/home/users/caep010/software/Gaussian09/g09/l502.exe)
 Closed shell SCF:
 Using DIIS extrapolation, IDIIS=  1040.
 Integral symmetry usage will be decided dynamically.
 Keep R1 ints in memory in canonical form, NReq=85141887.
 IVT=      101687 IEndB=      101687 NGot= 24159191040 MDV= 24076135714
 LenX= 24076135714 LenY= 24076109673
 Requested convergence on RMS density matrix=1.00D-08 within 128 cycles.
 Requested convergence on MAX density matrix=1.00D-06.
 Requested convergence on             energy=1.00D-06.
 No special actions if energy rises.
 FoFCou: FMM=F IPFlag=           0 FMFlag=           0 FMFlg1=           0
         NFxFlg=           0 DoJE=F BraDBF=F KetDBF=F FulRan=T
         wScrn=  0.000000 ICntrl=     600 IOpCl=  0 I1Cent=           0 NGrid=           0
         NMat0=    1 NMatS0=  12880 NMatT0=    0 NMatD0=    1 NMtDS0=    0 NMtDT0=    0
 Symmetry not used in FoFCou.
 Integral accuracy reduced to 1.0D-05 until final iterations.

 Cycle   1  Pass 0  IDiag  1:
 E= -327.124493832243    
 DIIS: error= 5.03D-04 at cycle   1 NSaved=   1.
 NSaved= 1 IEnMin= 1 EnMin= -327.124493832243     IErMin= 1 ErrMin= 5.03D-04
 ErrMax= 5.03D-04  0.00D+00 EMaxC= 1.00D-01 BMatC= 6.96D-05 BMatP= 6.96D-05
 IDIUse=3 WtCom= 9.95D-01 WtEn= 5.03D-03
 Coeff-Com:  0.100D+01
 Coeff-En:   0.100D+01
 Coeff:      0.100D+01
 Gap=     1.697 Goal=   None    Shift=    0.000
 RMSDP=9.15D-05 MaxDP=2.18D-03              OVMax= 2.94D-03

 Cycle   2  Pass 0  IDiag  1:
 E= -327.124620704002     Delta-E=       -0.000126871759 Rises=F Damp=F
 DIIS: error= 1.02D-04 at cycle   2 NSaved=   2.
 NSaved= 2 IEnMin= 2 EnMin= -327.124620704002     IErMin= 2 ErrMin= 1.02D-04
 ErrMax= 1.02D-04  0.00D+00 EMaxC= 1.00D-01 BMatC= 3.05D-06 BMatP= 6.96D-05
 IDIUse=3 WtCom= 9.99D-01 WtEn= 1.02D-03
 Coeff-Com:  0.117D-01 0.988D+00
 Coeff-En:   0.000D+00 0.100D+01
 Coeff:      0.117D-01 0.988D+00
 Gap=     0.246 Goal=   None    Shift=    0.000
 RMSDP=2.40D-05 MaxDP=4.61D-04 DE=-1.27D-04 OVMax= 7.79D-04

 Cycle   3  Pass 0  IDiag  1:
 E= -327.124621589241     Delta-E=       -0.000000885239 Rises=F Damp=F
 DIIS: error= 1.19D-04 at cycle   3 NSaved=   3.
 NSaved= 3 IEnMin= 3 EnMin= -327.124621589241     IErMin= 2 ErrMin= 1.02D-04
 ErrMax= 1.19D-04  0.00D+00 EMaxC= 1.00D-01 BMatC= 3.06D-06 BMatP= 3.05D-06
 IDIUse=3 WtCom= 9.99D-01 WtEn= 1.19D-03
 Coeff-Com: -0.378D-01 0.517D+00 0.521D+00
 Coeff-En:   0.000D+00 0.416D+00 0.584D+00
 Coeff:     -0.377D-01 0.516D+00 0.521D+00
 Gap=     0.246 Goal=   None    Shift=    0.000
 RMSDP=1.22D-05 MaxDP=2.50D-04 DE=-8.85D-07 OVMax= 3.09D-04

 Cycle   4  Pass 0  IDiag  1:
 E= -327.124624406811     Delta-E=       -0.000002817570 Rises=F Damp=F
 DIIS: error= 1.09D-05 at cycle   4 NSaved=   4.
 NSaved= 4 IEnMin= 4 EnMin= -327.124624406811     IErMin= 4 ErrMin= 1.09D-05
 ErrMax= 1.09D-05  0.00D+00 EMaxC= 1.00D-01 BMatC= 5.17D-08 BMatP= 3.05D-06
 IDIUse=1 WtCom= 1.00D+00 WtEn= 0.00D+00
 Coeff-Com: -0.135D-01 0.151D+00 0.196D+00 0.666D+00
 Coeff:     -0.135D-01 0.151D+00 0.196D+00 0.666D+00
 Gap=     0.246 Goal=   None    Shift=    0.000
 RMSDP=1.82D-06 MaxDP=5.15D-05 DE=-2.82D-06 OVMax= 8.63D-05

 Initial convergence to 1.0D-05 achieved.  Increase integral accuracy.
 Cycle   5  Pass 1  IDiag  1:
 E= -327.124661757998     Delta-E=       -0.000037351187 Rises=F Damp=F
 DIIS: error= 1.20D-05 at cycle   1 NSaved=   1.
 NSaved= 1 IEnMin= 1 EnMin= -327.124661757998     IErMin= 1 ErrMin= 1.20D-05
 ErrMax= 1.20D-05  0.00D+00 EMaxC= 1.00D-01 BMatC= 4.56D-08 BMatP= 4.56D-08
 IDIUse=1 WtCom= 1.00D+00 WtEn= 0.00D+00
 Coeff-Com:  0.100D+01
 Coeff:      0.100D+01
 Gap=     0.246 Goal=   None    Shift=    0.000
 RMSDP=1.82D-06 MaxDP=5.15D-05 DE=-3.74D-05 OVMax= 1.36D-04

 Cycle   6  Pass 1  IDiag  1:
 E= -327.124661785041     Delta-E=       -0.000000027043 Rises=F Damp=F
 DIIS: error= 9.12D-06 at cycle   2 NSaved=   2.
 NSaved= 2 IEnMin= 2 EnMin= -327.124661785041     IErMin= 2 ErrMin= 9.12D-06
 ErrMax= 9.12D-06  0.00D+00 EMaxC= 1.00D-01 BMatC= 3.04D-08 BMatP= 4.56D-08
 IDIUse=1 WtCom= 1.00D+00 WtEn= 0.00D+00
 Coeff-Com:  0.430D+00 0.570D+00
 Coeff:      0.430D+00 0.570D+00
 Gap=     0.246 Goal=   None    Shift=    0.000
 RMSDP=1.51D-06 MaxDP=6.88D-05 DE=-2.70D-08 OVMax= 1.21D-04

 Cycle   7  Pass 1  IDiag  1:
 E= -327.124661805186     Delta-E=       -0.000000020146 Rises=F Damp=F
 DIIS: error= 5.17D-06 at cycle   3 NSaved=   3.
 NSaved= 3 IEnMin= 3 EnMin= -327.124661805186     IErMin= 3 ErrMin= 5.17D-06
 ErrMax= 5.17D-06  0.00D+00 EMaxC= 1.00D-01 BMatC= 8.74D-09 BMatP= 3.04D-08
 IDIUse=1 WtCom= 1.00D+00 WtEn= 0.00D+00
 Coeff-Com: -0.313D-03 0.345D+00 0.655D+00
 Coeff:     -0.313D-03 0.345D+00 0.655D+00
 Gap=     0.246 Goal=   None    Shift=    0.000
 RMSDP=6.37D-07 MaxDP=2.58D-05 DE=-2.01D-08 OVMax= 5.55D-05

 Cycle   8  Pass 1  IDiag  1:
 E= -327.124661812825     Delta-E=       -0.000000007639 Rises=F Damp=F
 DIIS: error= 2.13D-06 at cycle   4 NSaved=   4.
 NSaved= 4 IEnMin= 4 EnMin= -327.124661812825     IErMin= 4 ErrMin= 2.13D-06
 ErrMax= 2.13D-06  0.00D+00 EMaxC= 1.00D-01 BMatC= 8.47D-10 BMatP= 8.74D-09
 IDIUse=1 WtCom= 1.00D+00 WtEn= 0.00D+00
 Coeff-Com: -0.185D-01 0.192D+00 0.405D+00 0.421D+00
 Coeff:     -0.185D-01 0.192D+00 0.405D+00 0.421D+00
 Gap=     0.246 Goal=   None    Shift=    0.000
 RMSDP=1.91D-07 MaxDP=5.36D-06 DE=-7.64D-09 OVMax= 1.18D-05

 Cycle   9  Pass 1  IDiag  1:
 E= -327.124661813624     Delta-E=       -0.000000000798 Rises=F Damp=F
 DIIS: error= 1.94D-07 at cycle   5 NSaved=   5.
 NSaved= 5 IEnMin= 5 EnMin= -327.124661813624     IErMin= 5 ErrMin= 1.94D-07
 ErrMax= 1.94D-07  0.00D+00 EMaxC= 1.00D-01 BMatC= 1.91D-11 BMatP= 8.47D-10
 IDIUse=1 WtCom= 1.00D+00 WtEn= 0.00D+00
 Coeff-Com: -0.932D-02 0.875D-01 0.186D+00 0.224D+00 0.512D+00
 Coeff:     -0.932D-02 0.875D-01 0.186D+00 0.224D+00 0.512D+00
 Gap=     0.246 Goal=   None    Shift=    0.000
 RMSDP=2.98D-08 MaxDP=8.82D-07 DE=-7.98D-10 OVMax= 1.51D-06

 Cycle  10  Pass 1  IDiag  1:
 E= -327.124661813640     Delta-E=       -0.000000000016 Rises=F Damp=F
 DIIS: error= 5.05D-08 at cycle   6 NSaved=   6.
 NSaved= 6 IEnMin= 6 EnMin= -327.124661813640     IErMin= 6 ErrMin= 5.05D-08
 ErrMax= 5.05D-08  0.00D+00 EMaxC= 1.00D-01 BMatC= 8.50D-13 BMatP= 1.91D-11
 IDIUse=1 WtCom= 1.00D+00 WtEn= 0.00D+00
 Coeff-Com: -0.620D-03 0.222D-02 0.524D-02 0.203D-01 0.185D+00 0.788D+00
 Coeff:     -0.620D-03 0.222D-02 0.524D-02 0.203D-01 0.185D+00 0.788D+00
 Gap=     0.246 Goal=   None    Shift=    0.000
 RMSDP=6.76D-09 MaxDP=1.76D-07 DE=-1.59D-11 OVMax= 2.34D-07

 SCF Done:  E(RB3LYP) =  -327.124661814     A.U. after   10 cycles
            NFock= 10  Conv=0.68D-08     -V/T= 2.0095
 KE= 3.240600168901D+02 PE=-1.417164398550D+03 EE= 4.379563341635D+02
 Leave Link  502 at Thu Sep  8 15:11:25 2022, MaxMem= 24159191040 cpu:        65.2
 (Enter /public/home/users/caep010/software/Gaussian09/g09/l701.exe)
 Compute integral first derivatives.
 ... and contract with generalized density number  0.
 Leave Link  701 at Thu Sep  8 15:11:25 2022, MaxMem= 24159191040 cpu:        10.8
 (Enter /public/home/users/caep010/software/Gaussian09/g09/l702.exe)
 L702 exits ... SP integral derivatives will be done elsewhere.
 Leave Link  702 at Thu Sep  8 15:11:25 2022, MaxMem= 24159191040 cpu:         0.5
 (Enter /public/home/users/caep010/software/Gaussian09/g09/l703.exe)
 Compute integral first derivatives, UseDBF=F ICtDFT=           0.
 Integral derivatives from FoFJK, PRISM(SPDF).
 Calling FoFJK, ICntrl=      2127 FMM=F ISym2X=0 I1Cent= 0 IOpClX= 0 NMat=1 NMatS=1 NMatT=0.
 FoFJK:  IHMeth= 1 ICntrl=    2127 DoSepK=F KAlg= 0 I1Cent=   0 FoldK=F
 IRaf=         0 NMat=   1 IRICut=       1 DoRegI=T DoRafI=F ISym2E= 0.
 FoFCou: FMM=F IPFlag=           0 FMFlag=      100000 FMFlg1=         800
         NFxFlg=           0 DoJE=F BraDBF=F KetDBF=F FulRan=T
         wScrn=  0.000000 ICntrl=    2127 IOpCl=  0 I1Cent=           0 NGrid=           0
         NMat0=    1 NMatS0=      1 NMatT0=    0 NMatD0=    1 NMtDS0=    0 NMtDT0=    0
 Symmetry not used in FoFCou.
 Leave Link  703 at Thu Sep  8 15:11:26 2022, MaxMem= 24159191040 cpu:        16.4
 (Enter /public/home/users/caep010/software/Gaussian09/g09/l716.exe)
 Dipole        = 2.81040556D-01-6.66568145D-01 6.11469335D-02
 ***** Axes restored to original set *****
 -------------------------------------------------------------------
 Center     Atomic                   Forces (Hartrees/Bohr)
 Number     Number              X              Y              Z
 -------------------------------------------------------------------
      1        6           0.000024270   -0.000125719    0.000073258
      2        6          -0.000216925    0.000061801    0.000003470
      3        7           0.000118718    0.000038482   -0.000162323
      4        6          -0.000189281   -0.000119857    0.000874122
      5        6          -0.000017954    0.000144047   -0.000163777
      6        6          -0.000034776   -0.000052363   -0.000166478
      7        8           0.000246650   -0.000240507   -0.000611909
      8        1           0.000040195   -0.000077015    0.000100788
      9        1           0.000244453    0.000037417    0.000142118
     10        1           0.000003499   -0.000031575   -0.000132371
     11        1           0.000089337    0.000028705   -0.000114599
     12        1          -0.000012456    0.000009923    0.000018046
     13        1          -0.000088248    0.000058199    0.000058800
     14        1           0.000011001    0.000061877   -0.000005754
     15        1          -0.000017210   -0.000011268    0.000007703
     16        1           0.000019490    0.000011080    0.000013721
     17        1          -0.000011869    0.000009496   -0.000005980
     18        1          -0.000208894    0.000197276    0.000071163
 -------------------------------------------------------------------
 Cartesian Forces:  Max     0.000874122 RMS     0.000179985
 Leave Link  716 at Thu Sep  8 15:11:26 2022, MaxMem= 24159191040 cpu:         0.6
 (Enter /public/home/users/caep010/software/Gaussian09/g09/l103.exe)

 GradGradGradGradGradGradGradGradGradGradGradGradGradGradGradGradGradGrad
 Berny optimization.
 Using GEDIIS/GDIIS optimizer.
 FormGI is forming the generalized inverse of G from B-inverse, IUseBI=4.
 Internal  Forces:  Max     0.000491432 RMS     0.000143090
 Search for a local minimum.
 Step number   2 out of a maximum of   90
 All quantities printed in internal units (Hartrees-Bohrs-Radians)
 RMS Force = .14309D-03 SwitMx=.10000D-02 MixMth= 2
 Mixed Optimization -- En-DIIS/RFO-DIIS
 Swapping is turned off.
 Update second derivatives using D2CorX and points    1    2
 DE= -5.28D-05 DEPred=-6.01D-05 R= 8.79D-01
 TightC=F SS=  1.41D+00  RLast= 4.83D-02 DXNew= 5.0454D-01 1.4489D-01
 Trust test= 8.79D-01 RLast= 4.83D-02 DXMaxT set to 3.00D-01
 ITU=  1  0
     Eigenvalues ---    0.00231   0.00286   0.00349   0.01368   0.01519
     Eigenvalues ---    0.01630   0.02915   0.02970   0.04627   0.04701
     Eigenvalues ---    0.05336   0.05462   0.05637   0.05691   0.06334
     Eigenvalues ---    0.07226   0.15534   0.16000   0.16000   0.16000
     Eigenvalues ---    0.16000   0.16000   0.16000   0.16000   0.16000
     Eigenvalues ---    0.16000   0.16078   0.16628   0.17080   0.24565
     Eigenvalues ---    0.24968   0.28492   0.28801   0.29991   0.34212
     Eigenvalues ---    0.34290   0.34413   0.34415   0.34503   0.34526
     Eigenvalues ---    0.35414   0.36020   0.39699   0.45401   0.45815
     Eigenvalues ---    0.46600   0.53275   0.60801
 En-DIIS/RFO-DIIS IScMMF=        0 using points:     2    1
 RFO step:  Lambda=-3.69204014D-06.
 NNeg= 0 NP= 2 Switch=  2.50D-03 Rises=F DC=  5.28D-05 SmlDif=  1.00D-05
 RMS Error=  0.4327914982D-03 NUsed= 2 EDIIS=F
 DidBck=F Rises=F RFO-DIIS coefs:    0.92407    0.07593
 Iteration  1 RMS(Cart)=  0.01176040 RMS(Int)=  0.00003932
 Iteration  2 RMS(Cart)=  0.00006272 RMS(Int)=  0.00000028
 Iteration  3 RMS(Cart)=  0.00000000 RMS(Int)=  0.00000028
 ITry= 1 IFail=0 DXMaxC= 4.29D-02 DCOld= 1.00D+10 DXMaxT= 3.00D-01 DXLimC= 3.00D+00 Rises=F
 Variable       Old X    -DE/DX   Delta X   Delta X   Delta X     New X
                                 (Linear)    (Quad)   (Total)
    R1        2.53618  -0.00046  -0.00064   0.00092   0.00028   2.53646
    R2        2.05266  -0.00006  -0.00016   0.00027   0.00011   2.05277
    R3        2.04221  -0.00002  -0.00017   0.00039   0.00022   2.04243
    R4        2.65417  -0.00045  -0.00026  -0.00026  -0.00052   2.65366
    R5        2.90396  -0.00031  -0.00045   0.00017  -0.00027   2.90369
    R6        1.91296  -0.00005  -0.00024   0.00051   0.00028   1.91324
    R7        1.91359  -0.00009  -0.00021   0.00036   0.00015   1.91374
    R8        2.90461  -0.00029  -0.00011  -0.00065  -0.00076   2.90385
    R9        2.91290  -0.00015  -0.00012  -0.00020  -0.00031   2.91258
   R10        2.69627   0.00049  -0.00039   0.00211   0.00171   2.69798
   R11        2.06474  -0.00001  -0.00002   0.00002   0.00000   2.06474
   R12        2.06842   0.00006  -0.00006   0.00032   0.00026   2.06869
   R13        2.06665  -0.00001  -0.00002   0.00003   0.00001   2.06666
   R14        2.06999  -0.00001  -0.00002   0.00001  -0.00001   2.06998
   R15        2.06527   0.00000  -0.00003   0.00008   0.00005   2.06532
   R16        2.06666  -0.00001  -0.00002   0.00002   0.00000   2.06667
   R17        1.82837   0.00020  -0.00050   0.00163   0.00113   1.82950
    A1        2.11891   0.00001  -0.00004   0.00014   0.00010   2.11901
    A2        2.11081  -0.00025   0.00005  -0.00158  -0.00153   2.10927
    A3        2.05332   0.00025  -0.00001   0.00147   0.00146   2.05478
    A4        2.14709   0.00016  -0.00004   0.00071   0.00067   2.14776
    A5        2.13239  -0.00034   0.00010  -0.00152  -0.00142   2.13097
    A6        2.00225   0.00018  -0.00006   0.00083   0.00078   2.00302
    A7        2.00267  -0.00014  -0.00007  -0.00098  -0.00105   2.00162
    A8        1.98184  -0.00014  -0.00011  -0.00086  -0.00098   1.98086
    A9        1.92791   0.00011  -0.00014   0.00046   0.00032   1.92823
   A10        1.92652  -0.00003  -0.00015   0.00023   0.00008   1.92660
   A11        1.93693   0.00011  -0.00002   0.00097   0.00095   1.93788
   A12        1.93407  -0.00016  -0.00001  -0.00198  -0.00199   1.93208
   A13        1.93687   0.00001  -0.00001   0.00088   0.00087   1.93774
   A14        1.82415   0.00003   0.00006  -0.00025  -0.00019   1.82396
   A15        1.90226   0.00004   0.00013   0.00004   0.00018   1.90244
   A16        1.91531   0.00002   0.00004  -0.00002   0.00003   1.91533
   A17        1.95162  -0.00011  -0.00005  -0.00059  -0.00064   1.95098
   A18        1.91446  -0.00006   0.00001  -0.00030  -0.00029   1.91417
   A19        1.89689   0.00003  -0.00002   0.00007   0.00005   1.89694
[...]
 0.065787,0.4129915,-0.0533957,-0.0827939,-0.0247902,0.5766779,0.004678
 1,0.0372243,-0.0477544,-0.0274463,-0.0336981,0.0169591,-0.0151485,-0.0
 312886,0.0853085,0.0083839,-0.0357718,-0.107107,0.0021109,0.0241993,-0
 .0572961,-0.0244422,-0.0160953,-0.0100781,-0.6770801,-0.068653,0.13572
 74,-0.0479882,-0.3071489,0.0664661,0.1024974,0.0643768,-0.783749,-0.12
 28373,0.0830862,0.006209,0.0672703,0.1213399,0.0197624,0.0396301,0.005
 0985,0.0411977,0.0509881,0.0124126,0.0767874,0.0087547,0.1367108,0.008
 3235,0.0450691,0.0162552,-0.0068908,0.2005548,0.0417988,0.0604157,0.05
 93707,0.1180071,0.2070827,-0.0028445,0.0489855,0.2258819,0.0409586,0.0
 266943,0.0219951,-0.0371837,0.2481036,0.1211052,-0.0588478,0.0488499,0
 .1818521,0.0230909,-0.0539939,-0.0686156,-0.0402902,-0.0018669,-0.0447
 586,-0.0608852,-0.079988,-0.0262455,0.027828,-0.034925,0.0843899,-0.02
 10682,0.028668,0.01755,0.0810616,0.0609755,-0.1121108,-0.1208222,0.078
 192,-0.0052048,0.06432,0.0083454,0.0180044,-0.0004213,0.0006857,0.0627
 389,0.05423,0.0039841,-0.0178613,-0.0161276,-0.1536822,0.0043569,-0.00
 63717,0.0393584,0.0334366,0.0428992,-0.0268997,0.074428,-0.0316224,0.0
 40302,0.0447133,0.0422091,0.0223446,-0.1137527,-0.1426898,0.0439262,-0
 .0251796,0.0555787,0.0365327,-0.0139134,0.0032765,-0.0119137,0.0425755
 ,0.3685629,0.0622128,-0.0281399,0.0264105,0.0706356,0.0110257,0.006258
 3,-0.0239162,0.2690129\Polar=67.0430747,-6.4900963,53.665408,4.2943474
 ,-6.8886602,70.0185856\PG=C01 [X(C5H11N1O1)]\NImag=0\\0.64117416,-0.18
 726928,0.16593594,0.03011675,-0.13284607,0.77090111,-0.20707780,0.0796
 9848,-0.15249216,0.55832483,0.08247735,-0.09971915,0.11256399,-0.14225
 308,0.26172764,-0.16346567,0.11421206,-0.37577081,0.08549047,-0.144846
 85,0.77484859,0.01599010,-0.00037958,-0.01229698,-0.14239862,0.0352636
 1,0.08472953,0.68212166,-0.00689327,0.01357582,0.01113208,0.01830244,-
 0.06123791,0.03951978,-0.15632200,0.31525326,0.01619222,0.00592423,-0.
 05934809,0.05926281,-0.00029450,-0.25307827,-0.02954957,-0.24497422,0.
 53662190,-0.01531390,0.00723205,-0.00832911,-0.15601643,0.02958452,-0.
 00899554,-0.01311912,0.00171648,0.00748825,0.47687847,0.01074776,0.001
 27490,0.00201943,0.02352548,-0.08580312,0.00463074,-0.00049834,0.00055
 761,-0.00203730,-0.00365233,0.49926479,-0.02388789,0.00926160,0.006977
 15,-0.00736830,0.00117715,-0.08131063,0.03056570,-0.01012746,-0.005753
 55,-0.00290942,-0.00730496,0.48277173,-0.00302423,0.00055899,0.0018691
 7,-0.00428869,0.03425871,-0.00633557,0.00006267,0.00064860,-0.00031095
 ,-0.07709065,0.01552105,-0.00288814,0.58763481,-0.00189548,0.00037280,
 -0.00132654,0.01298643,-0.01508352,0.00032179,-0.00028920,-0.00020305,
 0.00051801,0.00213475,-0.17394523,0.00824044,0.01034357,0.46388478,0.0
 0016699,-0.00027989,-0.00086026,-0.00374895,0.00047737,0.00341865,0.00
 037475,0.00102693,-0.00041724,-0.00045299,-0.00294639,-0.07317950,0.00
 197621,0.00964542,0.59080026,-0.00275797,0.00036041,0.00256824,-0.0243
 7891,-0.01387122,-0.02522775,-0.00241018,0.00026686,-0.00062903,-0.110
 93099,-0.02915122,-0.04080539,0.00105409,-0.00275206,-0.00043694,0.550
 19687,0.00235168,-0.00122991,-0.00034104,0.00394150,0.00635197,0.00713
 982,0.00107208,-0.00022528,0.00027068,-0.02443462,-0.10176629,-0.03211
 615,-0.01953767,-0.02307341,-0.02624755,-0.03677526,0.55391216,0.00191
 968,-0.00102310,-0.00024345,-0.00993609,0.00069583,0.00247038,-0.00084
 989,-0.00061895,-0.00057782,-0.03120568,-0.02611052,-0.10850737,0.0004
 6754,-0.00361597,0.00401347,-0.05325675,-0.03914326,0.53104195,-0.0026
 5440,0.00131667,-0.00072965,-0.01846003,-0.00559330,0.03829528,-0.0086
 4111,0.00335828,0.00096284,-0.08971717,0.00884048,0.04575451,0.0011379
 6,-0.00330287,0.00407881,0.00763035,0.00172665,-0.00946398,0.12588350,
 0.00213012,0.00061050,0.00008621,0.00338392,0.00206142,-0.00473907,0.0
 0194688,0.00087761,-0.00058525,-0.01265691,-0.09471827,0.03608731,-0.0
 1917540,-0.01713093,0.04398857,0.00531513,0.00460271,-0.01293842,-0.03
 559439,0.59582614,-0.00284960,-0.00002300,-0.00174853,0.01180582,0.003
 98147,-0.02133950,0.00466258,0.00004756,0.00470711,0.05434481,-0.00704
 297,-0.17893833,0.00884989,0.01217443,-0.01714421,0.01782746,0.0074987
 2,-0.05160138,-0.09587355,-0.10170868,0.30617682,-0.31024934,0.0882694
 2,0.01043929,-0.01266663,0.00423165,0.00390406,0.00121957,-0.00234738,
 0.00068401,0.00194480,0.00263003,-0.00039718,-0.00110431,0.00004670,0.
 00004504,0.00011558,0.00009687,0.00000475,-0.00039465,0.00049823,-0.00
 111757,0.32870983,0.08793299,-0.05559175,0.00279423,0.01044979,-0.0003
 0207,-0.00277785,-0.00116394,-0.00478963,-0.00220898,0.00230471,0.0092
 6256,0.00411784,-0.00198139,0.00044781,0.00004117,0.00224499,-0.001056
 37,-0.00058554,-0.00053484,0.00082901,-0.00049228,-0.09715375,0.050848
 02,0.01389105,0.00084850,-0.05620532,-0.02730622,0.00878080,0.00257869
 ,-0.00117225,-0.00131552,0.00198725,0.00127957,0.00260234,-0.00497470,
 -0.00097957,-0.00009576,0.00015190,-0.00048194,0.00029998,0.00037245,0
 .00193176,-0.00066481,0.00180274,-0.00987300,-0.00285900,0.05165641,-0
 .11667666,0.00760226,0.12730550,0.01117688,-0.00214782,-0.01122393,-0.
 00136726,0.00381021,-0.00235983,-0.00044926,-0.00143464,-0.00072600,0.
 00030585,0.00007932,0.00021531,-0.00029957,-0.00008316,0.00030787,-0.0
 0338563,0.00033373,-0.00038994,-0.00844830,-0.00144441,0.02288219,0.12
 009102,0.00955539,-0.02509140,0.00258346,-0.00731124,-0.00023160,0.008
 47953,0.00219778,0.00736356,0.00416948,-0.00174779,-0.00523565,-0.0011
 9241,0.00132377,-0.00010708,0.00014125,-0.00090614,0.00060141,0.000149
 43,0.00040709,-0.00136281,-0.00000454,0.00305766,0.00028851,-0.0075476
 4,-0.00692012,0.02295879,0.12263785,0.00527965,-0.28687043,0.01332172,
 -0.00164131,-0.01915857,-0.00325985,0.00410306,-0.00078137,0.00226756,
 -0.00088442,-0.00266641,-0.00010025,-0.00000122,0.00002395,-0.00033772
 ,0.00023533,0.00019281,0.00247271,-0.00119009,0.00277074,-0.00234700,0
 .00021473,0.00328291,-0.13359966,-0.00519840,0.30415904,-0.00111865,0.
 00032942,0.00406208,0.00780158,-0.01610025,0.00294109,-0.09011603,0.08
 788539,-0.04438211,0.00003656,-0.00074127,0.00250855,-0.00081712,-0.00
 003004,0.00092395,-0.00041119,-0.00045538,0.00094953,-0.00038929,0.000
 31895,-0.00126863,0.00020238,-0.00027900,0.00009550,0.00108259,0.00101
 408,0.00056328,0.09172281,0.00028093,0.00033671,0.00034845,-0.00285741
 ,-0.00237628,-0.01028655,0.10949371,-0.24754799,0.21271560,0.00077040,
 0.00102935,0.00135070,0.00014903,0.00029835,-0.00133980,-0.00002907,-0
 .00055402,0.00123924,-0.00060977,-0.00043667,-0.00089755,-0.00031922,-
 0.00089798,-0.00024176,0.00073307,0.00216124,-0.00032660,-0.10241429,0
 .25236113,0.00570810,-0.00074531,-0.00166580,-0.01241735,0.02590834,-0
 .02673095,-0.05277185,0.17591902,-0.17101621,0.00006482,0.00067223,0.0
 0021845,-0.00000506,0.00018821,-0.00079857,0.00019082,-0.00026331,0.00
 058103,-0.00064001,-0.00052023,0.00024359,0.00013981,0.00048518,0.0003
 9413,-0.00105035,-0.00035946,-0.00131341,0.05991768,-0.19903565,0.1985
 3655,0.00294230,0.00012076,-0.00268729,-0.01630844,-0.00076525,-0.0026
 3313,-0.43881713,0.04925840,-0.00478697,0.00208977,-0.00089150,0.00196
 515,-0.00001995,-0.00020001,-0.00001064,0.00023376,0.00014863,-0.00024
 599,-0.00072313,0.00023037,0.00074661,-0.00002182,-0.00121545,0.000551
 48,0.00012908,0.00095972,-0.00013108,-0.00761427,-0.00564870,0.0012523
 6,0.45838965,-0.00081547,-0.00131267,0.00251483,0.00482869,-0.00181622
 ,-0.00943758,0.00777195,-0.02406745,0.02664050,0.00058425,0.00243498,-
 0.00033740,-0.00059502,-0.00008797,0.00022046,-0.00015485,0.00030425,0
 .00017447,-0.00015339,0.00024285,0.00013631,0.00052432,0.00053155,0.00
 034982,0.00007545,-0.00128501,-0.00003315,0.02972359,-0.00351244,-0.00
 130228,-0.04222450,0.02835193,0.00107858,-0.00136899,0.00168483,0.0404
 3874,-0.00514055,0.00064546,-0.02243262,0.02608596,-0.05401879,-0.0006
 7836,0.00187964,-0.00543257,-0.00005347,0.00022635,-0.00003807,-0.0007
 3812,0.00023559,-0.00047302,0.00240045,-0.00032001,-0.00117181,-0.0012
 9420,0.00071390,-0.00056062,-0.00052438,-0.00040560,0.00026796,-0.0241
 8943,-0.00244985,0.00027544,0.00596954,-0.01876272,0.05750558,0.000092
 16,-0.00009303,-0.00020585,0.00065150,0.00033161,0.00110000,-0.0002130
 4,-0.00020855,0.00000990,-0.00002347,0.00165444,0.00236774,-0.11771852
 ,-0.06021839,-0.10210115,0.00049467,0.00016521,0.00020183,-0.00011391,
 -0.00019934,0.00008518,-0.00000468,-0.00005993,0.00003163,0.00006386,0
 .00000685,0.00004256,0.00018484,0.00006875,-0.00002928,-0.00000475,0.0
 0015265,0.00002269,0.12216686,0.00056128,0.00046469,0.00066060,-0.0018
 3840,0.00140274,-0.00154769,0.00029343,0.00020891,0.00061699,-0.016848
 43,-0.01609513,-0.02653317,-0.05861648,-0.09904130,-0.08715621,0.00125
 617,-0.00672166,0.00245278,0.00105422,0.00286322,-0.00024680,-0.000002
 38,-0.00004708,0.00010018,-0.00002752,-0.00020450,0.00004830,-0.000187
 63,-0.00019974,-0.00002440,0.00002348,-0.00009683,-0.00008402,0.064729
 16,0.10902948,0.00028504,0.00010620,0.00022801,-0.00008700,0.00013183,
 0.00010956,0.00038769,0.00022892,-0.00012171,0.00232006,0.00185974,0.0
 0156806,-0.10163221,-0.09015456,-0.19938530,0.00045455,0.00055531,0.00
 043355,0.00009139,0.00022717,0.00117601,0.00002860,-0.00003244,-0.0000
 0299,-0.00001652,0.00000645,0.00000493,-0.00039888,-0.00012802,-0.0000
 1719,0.00003699,-0.00018054,0.00001615,0.11124866,0.09758782,0.2122379
 4,0.00003933,0.00002570,-0.00005531,0.00005400,-0.00027440,-0.00005952
 ,-0.00065585,0.00039146,-0.00000397,-0.00150577,0.00100758,-0.00251034
 ,-0.08751311,-0.02973990,0.08993976,-0.00019006,-0.00005099,0.00031642
 ,0.00068098,-0.00002164,-0.00029141,0.00006634,0.00011070,0.00002942,-
 0.00001033,-0.00009576,0.00000209,-0.00006836,0.00093186,0.00040920,-0
 .00005288,0.00011417,-0.00002877,0.00701902,0.00624945,-0.01444240,0.0
 9147035,0.00022483,0.00008321,-0.00013388,-0.00102268,0.00077954,0.000
 96377,0.00043669,-0.00023104,-0.00032665,-0.01309536,-0.00259948,0.026
 95805,-0.02877554,-0.07072103,0.06449304,0.00004597,0.00137270,0.00040
 600,0.00027191,-0.00854753,0.00217981,0.00002517,-0.00012154,-0.000050
 62,-0.00011492,0.00008581,-0.00012657,0.00098011,-0.00104187,-0.000713
 76,0.00014972,0.00020149,-0.00019477,0.00741620,0.00449205,-0.01239611
 ,0.03150435,0.07481906,-0.00019055,0.00003310,0.00049039,0.00108868,0.
 00044503,-0.00175738,0.00001235,-0.00105615,0.00054315,0.00026201,-0.0
 0186908,-0.00369656,0.08973116,0.06685120,-0.24930642,-0.00012317,-0.0
 0023842,-0.00022937,-0.00026802,0.00192778,0.00070937,-0.00011221,0.00
 000749,-0.00000358,0.00009845,-0.00008237,0.00011409,0.00004216,0.0001
 7227,0.00084314,-0.00011373,-0.00016295,0.00012938,0.01054969,0.007470
 43,-0.01901633,-0.10075805,-0.07297691,0.27050469,0.00020721,0.0003121
 2,0.00038797,0.00066886,0.00074626,0.00000105,0.00022203,0.00022748,-0
 .00025535,-0.00272284,-0.00027925,0.00030231,-0.29556486,0.07289707,0.
 00827946,0.00045537,-0.00069636,-0.00004241,0.00095154,-0.00046211,-0.
 00033510,-0.00000485,-0.00003519,-0.00005360,-0.00000590,-0.00003969,-
 0.00004579,0.00007192,-0.00029829,-0.00022676,0.00002332,-0.00006613,-
 0.00002879,-0.01355038,0.00431834,0.00185183,-0.01023017,0.00276329,-0
 .00037063,0.31845325,0.00131607,-0.00026989,-0.00050125,-0.00207748,-0
 .00612051,0.00208825,0.00021086,-0.00001718,0.00009322,0.03408078,-0.0
 1212527,-0.00186823,0.07063566,-0.06769272,-0.00325258,0.00134403,0.00
 158521,0.00039024,-0.00084692,0.00268235,-0.00146904,0.00038771,0.0005
 3396,0.00036802,-0.00006951,-0.00037398,0.00001824,0.00001593,-0.00003
 422,-0.00015327,0.00008498,0.00016682,-0.00004228,-0.01416132,0.004240
 62,0.00189299,-0.01004933,0.00233162,-0.00054984,-0.07951072,0.0747435
 2,-0.00002256,0.00028940,0.00043542,0.00038987,0.00103714,-0.00080564,
 0.00008289,-0.00042534,0.00033107,-0.00322051,0.00140467,-0.00086798,0
 .00825613,-0.00407971,-0.04817149,0.00056510,-0.00037443,-0.00022915,-
 0.00043773,0.00005424,0.00032553,-0.00007440,-0.00013498,-0.00002439,-
 0.00003332,0.00002061,0.00001196,-0.00032649,0.00039952,0.00049414,-0.
 00009378,-0.00007206,0.00002045,-0.02334082,0.00805162,0.00203580,0.02
 778385,-0.00916578,-0.00038437,-0.00941882,0.00350095,0.04672787,0.000
 06870,0.00039891,-0.00014357,0.00124954,-0.00108325,0.00041026,0.00004
 767,0.00011771,0.00029491,-0.00055530,-0.01963170,0.00383907,-0.001945
 90,-0.00105108,-0.00316897,-0.04939226,0.01486112,-0.00257332,-0.00028
 021,0.00095001,0.00162280,-0.00003149,-0.00004818,-0.00000663,0.000026
 88,-0.00001357,0.00003356,0.00018265,-0.00005799,-0.00013705,-0.000058
 07,0.00013414,0.00002901,0.00056148,-0.00135046,-0.00007545,-0.0000357
 1,0.00031827,-0.00003724,0.00027434,-0.00030412,-0.00013088,0.04885309
 ,-0.00033068,0.00056777,-0.00015601,0.00132797,0.00025017,-0.00014510,
 -0.00016512,0.00039550,0.00027705,0.00055418,-0.01623801,0.00437095,-0
 .00249307,-0.00008655,-0.00338497,0.01346545,-0.30549651,0.03729755,0.
 00069392,0.00249144,0.00018313,-0.00007835,-0.00005502,-0.00008080,0.0
 0001536,-0.00003588,-0.00000815,0.00023434,-0.00000856,-0.00010438,-0.
 00007828,-0.00003521,-0.00003968,-0.00004102,-0.00111049,0.00010265,0.
 00005888,0.00023337,0.00015203,-0.00001344,0.00040351,0.00014336,-0.01
 325778,0.33186961,0.00007836,0.00039016,-0.00018037,0.00111357,0.00002
 745,0.00118796,-0.00013064,-0.00015048,-0.00056004,0.00153779,-0.02364
 723,0.00212134,-0.00253494,-0.00161960,-0.00350709,-0.00148525,0.03778
 120,-0.05324414,0.00000796,0.00013785,0.00304336,0.00000003,-0.0000366
 0,-0.00002383,-0.00001695,-0.00001631,-0.00001339,-0.00014124,-0.00006
 720,-0.00000315,0.00001731,-0.00009974,0.00008592,-0.00012420,-0.00150
 566,0.00041367,-0.00020905,-0.00012005,0.00023941,-0.00002087,0.000228
 55,-0.00011666,0.00418850,-0.03910486,0.05535907,-0.00002408,0.0000263
 3,0.00020574,0.00085726,0.00021738,-0.00033140,-0.00196726,0.00007004,
 0.00044839,0.00686811,0.00611348,-0.01337888,0.00037152,0.00044561,0.0
 0045565,-0.07884933,-0.01932470,0.08358953,0.00016299,-0.00156875,-0.0
 0546328,-0.00003308,-0.00014813,0.00001840,0.00008968,0.00003443,0.000
 09374,-0.00151246,-0.00075267,-0.00048050,-0.00020543,0.00004608,0.000
 15326,-0.00008129,0.00022540,0.00000506,0.00022134,-0.00015366,-0.0000
 9599,0.00001527,-0.00011959,0.00011376,-0.00009750,0.00067940,-0.00223
 800,0.08251071,0.00005461,0.00021156,-0.00034165,-0.00005446,0.0000913
 5,0.00114088,-0.00063650,-0.00029939,-0.00069079,0.00775877,0.00288365
 ,-0.01106560,0.00053292,0.00050031,0.00026567,-0.01880036,-0.05801697,
 0.04839574,-0.00121237,0.00012519,-0.00524993,0.00000354,-0.00002041,0
 .00004373,0.00004794,-0.00001932,0.00001229,-0.00046827,0.00038232,0.0
 0011677,-0.00005483,-0.00009656,-0.00005794,0.00002920,0.00021715,0.00
 019331,-0.00032452,-0.00040761,-0.00019689,0.00003765,-0.00007450,-0.0
 0011813,-0.01113984,-0.00536930,0.03044297,0.02203627,0.05902834,-0.00
 017887,-0.00008321,0.00060064,0.00073919,-0.00043273,-0.00173837,0.001
 29845,0.00053096,0.00133882,0.01088214,0.00798989,-0.01558497,0.000616
 38,0.00102640,0.00053159,0.08099927,0.04791436,-0.27628830,-0.00302851
 ,-0.00279318,-0.00673181,-0.00011305,0.00005712,0.00005214,0.00020419,
 -0.00010799,0.00014934,-0.00087565,-0.00104349,0.00003973,0.00018010,0
 .00020497,0.00067780,-0.00021933,0.00006717,0.00025506,-0.00033547,-0.
 00070242,0.00061226,-0.00007701,-0.00005307,-0.00003144,0.00125910,0.0
 0055487,-0.00333269,-0.09162071,-0.05240527,0.29893963,-0.00094061,0.0
 0010270,0.00036241,-0.00027009,-0.00241142,-0.00265407,-0.00017941,0.0
 0014946,-0.00050225,-0.01987554,0.00557444,0.00238211,0.00032139,0.001
 19698,0.00070580,-0.29047836,0.07578990,0.01971343,0.00312951,0.000280
 91,0.00132145,0.00000561,0.00038825,-0.00019475,-0.00002171,-0.0001206
 3,-0.00011770,0.00020649,0.00022877,0.00004294,0.00003691,-0.00009130,
 -0.00011413,0.00048578,-0.00002607,-0.00005177,0.00003930,-0.00003476,
 -0.00012708,0.00058587,-0.00098616,-0.00015400,0.00046441,-0.00032016,
 0.00002578,-0.00816580,0.00249140,-0.00004291,0.31509135,-0.00075379,0
 .00048683,0.00020053,-0.00082347,-0.00118515,-0.00269649,-0.00012186,0
 .00045315,0.00015707,-0.01652091,0.00357541,0.00100786,-0.00097933,0.0
 0099955,0.00042706,0.07709828,-0.07322484,-0.00565101,0.00038035,-0.00
 009751,0.00170846,-0.00006043,0.00027516,-0.00014149,-0.00002091,-0.00
 012099,-0.00001477,0.00018712,0.00008408,0.00001212,-0.00002440,-0.000
 04908,-0.00007818,0.00026349,0.00013643,0.00008264,-0.00006049,-0.0001
 0481,-0.00002778,0.00012205,-0.00034289,-0.00030997,0.03069456,-0.0076
 1947,-0.00305294,-0.00752034,0.00117962,-0.00002319,-0.08222061,0.0756
 8502,-0.00105149,0.00018013,0.00062733,-0.00072257,-0.00272582,-0.0046
 5815,0.00102213,0.00033334,0.00081125,-0.02437242,0.00578080,-0.000405
 33,0.00026756,0.00118851,0.00041510,0.02183807,-0.00513744,-0.04868338
 ,0.00099758,0.00043861,0.00269145,-0.00002275,0.00063768,-0.00011771,-
 0.00015228,-0.00026658,-0.00007248,-0.00054435,-0.00060920,-0.00018648
 ,0.00007214,0.00016943,0.00027802,0.00014177,0.00018575,-0.00006715,0.
 00013666,-0.00006594,0.00004734,0.00023284,-0.00040863,0.00028688,-0.0
 0524768,0.00146451,-0.00058725,0.02829010,-0.00988396,-0.00028006,-0.0
 2047998,0.00852641,0.05013376,-0.00067632,0.00138765,-0.00037723,0.001
 08119,-0.00261111,0.00405483,0.00022134,-0.00043162,-0.00256328,-0.000
 49727,-0.01933451,0.00518639,-0.00180094,-0.00065139,0.00275791,-0.000
 08186,0.00120449,0.00010355,-0.01481729,0.05429029,0.00632246,0.000695
 04,0.00063278,-0.00064302,-0.00230123,-0.00140185,-0.00149603,0.000555
 56,0.00033088,0.00003246,-0.00001892,0.00014537,-0.00001000,-0.0000101
 5,0.00018644,-0.00000562,0.00067159,-0.00093957,0.00041216,0.00015001,
 0.00004913,0.00006169,0.00066768,-0.00025160,-0.00006817,-0.00016065,-
 0.00030114,0.00031268,-0.00043511,0.00036071,-0.00040533,0.01675735,0.
 00032497,-0.00070594,0.00074262,-0.00020646,0.00121068,-0.00201943,0.0
 0088953,-0.00006650,-0.00026515,0.00223545,-0.01175680,-0.00202651,-0.
 00181840,0.00066919,0.00388046,0.00104289,0.00263484,-0.00151451,0.029
 79829,-0.49091870,0.08922489,0.00019021,-0.00013473,-0.00039596,-0.000
 43433,0.00060888,-0.00048690,-0.00001283,-0.00004341,-0.00007982,0.000
 12685,0.00012557,-0.00019685,0.00016400,0.00046143,-0.00008337,0.00022
 288,-0.00062394,0.00010103,-0.00002309,0.00036353,-0.00022111,0.000463
 25,-0.00015636,0.00041250,-0.00030659,-0.00031544,-0.00070119,0.000008
 30,-0.00013053,0.00019240,-0.03266494,0.49877823,-0.00042800,-0.000155
 46,0.00094819,0.00042776,-0.00014464,0.00108897,-0.00067242,-0.0002595
 0,-0.00066747,-0.00028295,0.04300340,-0.01233883,0.00280613,0.00051261
 ,-0.00654676,-0.00092145,0.00193061,0.00097174,0.01344815,0.04251200,-
 0.04497117,0.00010576,0.00005833,-0.00036548,-0.00092035,-0.00036890,-
 0.00010167,0.00012298,0.00019989,0.00010555,-0.00008907,-0.00002237,0.
 00010788,0.00021896,-0.00014368,0.00013194,0.00007688,0.00197278,0.000
 16079,-0.00018033,-0.00028226,-0.00003798,-0.00015640,-0.00152214,-0.0
 0088211,0.00023510,-0.00060121,0.00079064,-0.00011530,-0.00012634,-0.0
 0023313,-0.01367546,-0.08656312,0.06183889\\0.00000504,0.00000660,0.00
 000556,-0.00003163,0.00000418,-0.00001290,0.00000441,-0.00002041,-0.00
 001021,-0.00002357,-0.00002013,0.00005087,0.00000147,0.00000566,-0.000
 01028,0.00000013,0.00000269,-0.00001736,0.00000539,0.00004449,-0.00003
 707,0.00001082,-0.00000172,0.00001834,0.00000156,-0.00000087,0.0000208
 5,0.00000006,0.00001492,-0.00000420,0.00001982,-0.00000616,0.00000854,
 0.00000022,0.00000150,-0.00000207,0.00000404,-0.00000290,-0.00000910,-
 0.00000282,0.00000134,-0.00000658,0.00000124,-0.00000164,0.00000297,0.
 00000097,-0.00000523,-0.00000243,0.00000068,0.00000076,0.00000080,0.00
 000216,-0.00002308,0.00000427\\\@


 SUPPORT THE RIGHT TO ARM BEARS!
 (ADD A CLAWS TO THE BILL OF RIGHTS)
 Job cpu time:       0 days  0 hours  8 minutes 42.1 seconds.
 File lengths (MBytes):  RWF=     53 Int=      0 D2E=      0 Chk=      3 Scr=      1
 Normal termination of Gaussian 09 at Thu Sep  8 15:12:03 2022.
