 Entering Gaussian System, Link 0=g09
 Input=B3LYP6-31Gdp.Frag_643.gjf
 Output=B3LYP6-31Gdp.Frag_643.log
 Initial command:
 /public/home/users/caep010/software/Gaussian09/g09/l1.exe "/public/home/users/caep010/.cache/gau_scr/Gau-1968.inp" -scrdir="/public/home/users/caep010/.cache/gau_scr/"
 Entering Link 1 = /public/home/users/caep010/software/Gaussian09/g09/l1.exe PID=      1969.
  
 Copyright (c) 1988,1990,1992,1993,1995,1998,2003,2009,2015,
            Gaussian, Inc.  All Rights Reserved.
  
 This is part of the Gaussian(R) 09 program.  It is based on
 the Gaussian(R) 03 system (copyright 2003, Gaussian, Inc.),
 the Gaussian(R) 98 system (copyright 1998, Gaussian, Inc.),
 the Gaussian(R) 94 system (copyright 1995, Gaussian, Inc.),
 the Gaussian 92(TM) system (copyright 1992, Gaussian, Inc.),
 the Gaussian 90(TM) system (copyright 1990, Gaussian, Inc.),
 the Gaussian 88(TM) system (copyright 1988, Gaussian, Inc.),
 the Gaussian 86(TM) system (copyright 1986, Carnegie Mellon
 University), and the Gaussian 82(TM) system (copyright 1983,
 Carnegie Mellon University). Gaussian is a federally registered
 trademark of Gaussian, Inc.
  
 This software contains proprietary and confidential information,
 including trade secrets, belonging to Gaussian, Inc.
  
 This software is provided under written license and may be
 used, copied, transmitted, or stored only in accord with that
 written license.
  
 The following legend is applicable only to US Government
 contracts under FAR:
  
                    RESTRICTED RIGHTS LEGEND
  
 Use, reproduction and disclosure by the US Government is
 subject to restrictions as set forth in subparagraphs (a)
 and (c) of the Commercial Computer Software - Restricted
 Rights clause in FAR 52.227-19.
  
 Gaussian, Inc.
 340 Quinnipiac St., Bldg. 40, Wallingford CT 06492
  
  
 ---------------------------------------------------------------
 Warning -- This program may not be used in any manner that
 competes with the business of Gaussian, Inc. or will provide
 assistance to any competitor of Gaussian, Inc.  The licensee
 of this program is prohibited from giving any competitor of
 Gaussian, Inc. access to this program.  By using this program,
 the user acknowledges that Gaussian, Inc. is engaged in the
 business of creating and licensing software in the field of
 computational chemistry and represents and warrants to the
 licensee that it is not a competitor of Gaussian, Inc. and that
 it will not use this program in any manner prohibited above.
 ---------------------------------------------------------------
  

 Cite this work as:
 Gaussian 09, Revision E.01,
 M. J. Frisch, G. W. Trucks, H. B. Schlegel, G. E. Scuseria, 
 M. A. Robb, J. R. Cheeseman, G. Scalmani, V. Barone, B. Mennucci, 
 G. A. Petersson, H. Nakatsuji, M. Caricato, X. Li, H. P. Hratchian, 
 A. F. Izmaylov, J. Bloino, G. Zheng, J. L. Sonnenberg, M. Hada, 
 M. Ehara, K. Toyota, R. Fukuda, J. Hasegawa, M. Ishida, T. Nakajima, 
 Y. Honda, O. Kitao, H. Nakai, T. Vreven, J. A. Montgomery, Jr., 
 J. E. Peralta, F. Ogliaro, M. Bearpark, J. J. Heyd, E. Brothers, 
 K. N. Kudin, V. N. Staroverov, T. Keith, R. Kobayashi, J. Normand, 
 K. Raghavachari, A. Rendell, J. C. Burant, S. S. Iyengar, J. Tomasi, 
 M. Cossi, N. Rega, J. M. Millam, M. Klene, J. E. Knox, J. B. Cross, 
 V. Bakken, C. Adamo, J. Jaramillo, R. Gomperts, R. E. Stratmann, 
 O. Yazyev, A. J. Austin, R. Cammi, C. Pomelli, J. W. Ochterski, 
 R. L. Martin, K. Morokuma, V. G. Zakrzewski, G. A. Voth, 
 P. Salvador, J. J. Dannenberg, S. Dapprich, A. D. Daniels, 
 O. Farkas, J. B. Foresman, J. V. Ortiz, J. Cioslowski, 
 and D. J. Fox, Gaussian, Inc., Wallingford CT, 2013.
 
 ******************************************
 Gaussian 09:  ES64L-G09RevE.01 30-Nov-2015
                 8-Sep-2022 
 ******************************************
 %nproc=32
 Will use up to   32 processors via shared memory.
 %mem=180GB
 %chk=B3LYP6-31Gdp.Frag_643.chk
 ----------------------------
 #P OPT Freq B3LYP/6-31G(d,p)
 ----------------------------
 1/14=-1,18=20,19=15,26=3,38=1/1,3;
 2/9=110,12=2,17=6,18=5,40=1/2;
 3/5=1,6=6,7=101,11=2,16=1,25=1,30=1,71=1,74=-5/1,2,3;
 4//1;
 5/5=2,38=5/2;
 6/7=2,8=2,9=2,10=2,28=1/1;
 7//1,2,3,16;
 1/14=-1,18=20,19=15,26=3/3(2);
 2/9=110/2;
 99//99;
 2/9=110/2;
 3/5=1,6=6,7=101,11=2,16=1,25=1,30=1,71=1,74=-5/1,2,3;
 4/5=5,16=3,69=1/1;
 5/5=2,38=5/2;
 7//1,2,3,16;
 1/14=-1,18=20,19=15,26=3/3(-5);
 2/9=110/2;
 6/7=2,8=2,9=2,10=2,19=2,28=1/1;
 99/9=1/99;
 Leave Link    1 at Thu Sep  8 15:06:20 2022, MaxMem= 24159191040 cpu:         3.8
 (Enter /public/home/users/caep010/software/Gaussian09/g09/l101.exe)
 --------
 Frag_643
 --------
 Symbolic Z-matrix:
 Charge =  0 Multiplicity = 1
 N                     1.50918   0.06587  -0.05407 
 N                     0.17299  -0.31787   0.13601 
 C                    -0.79162   0.6854    0.043 
 O                    -0.58719   1.85187  -0.11614 
 O                    -2.05637   0.1882    0.17124 
 H                     1.79379  -0.04926  -1.02293 
 H                     2.0986   -0.50752   0.53744 
 H                    -0.1069   -1.21703  -0.24237 
 H                    -2.03248  -0.69978   0.54782 
 
 NAtoms=      9 NQM=        9 NQMF=       0 NMMI=      0 NMMIF=      0
                NMic=       0 NMicF=      0.
                    Isotopes and Nuclear Properties:
 (Nuclear quadrupole moments (NQMom) in fm**2, nuclear magnetic moments (NMagM)
  in nuclear magnetons)

  Atom         1           2           3           4           5           6           7           8           9
 IAtWgt=          14          14          12          16          16           1           1           1           1
 AtmWgt=  14.0030740  14.0030740  12.0000000  15.9949146  15.9949146   1.0078250   1.0078250   1.0078250   1.0078250
 NucSpn=           2           2           0           0           0           1           1           1           1
 AtZEff=   0.0000000   0.0000000   0.0000000   0.0000000   0.0000000   0.0000000   0.0000000   0.0000000   0.0000000
 NQMom=    2.0440000   2.0440000   0.0000000   0.0000000   0.0000000   0.0000000   0.0000000   0.0000000   0.0000000
 NMagM=    0.4037610   0.4037610   0.0000000   0.0000000   0.0000000   2.7928460   2.7928460   2.7928460   2.7928460
 AtZNuc=   7.0000000   7.0000000   6.0000000   8.0000000   8.0000000   1.0000000   1.0000000   1.0000000   1.0000000
 Leave Link  101 at Thu Sep  8 15:06:20 2022, MaxMem= 24159191040 cpu:         9.9
 (Enter /public/home/users/caep010/software/Gaussian09/g09/l103.exe)

 GradGradGradGradGradGradGradGradGradGradGradGradGradGradGradGradGradGrad
 Berny optimization.
 Initialization pass.
                           ----------------------------
                           !    Initial Parameters    !
                           ! (Angstroms and Degrees)  !
 --------------------------                            --------------------------
 ! Name  Definition              Value          Derivative Info.                !
 --------------------------------------------------------------------------------
 ! R1    R(1,2)                  1.4031         estimate D2E/DX2                !
 ! R2    R(1,6)                  1.0163         estimate D2E/DX2                !
 ! R3    R(1,7)                  1.013          estimate D2E/DX2                !
 ! R4    R(2,3)                  1.3949         estimate D2E/DX2                !
 ! R5    R(2,8)                  1.0149         estimate D2E/DX2                !
 ! R6    R(3,4)                  1.1949         estimate D2E/DX2                !
 ! R7    R(3,5)                  1.365          estimate D2E/DX2                !
 ! R8    R(5,9)                  0.9648         estimate D2E/DX2                !
 ! A1    A(2,1,6)              111.3973         estimate D2E/DX2                !
 ! A2    A(2,1,7)              108.6753         estimate D2E/DX2                !
 ! A3    A(6,1,7)              109.2446         estimate D2E/DX2                !
 ! A4    A(1,2,3)              116.9241         estimate D2E/DX2                !
 ! A5    A(1,2,8)              117.0274         estimate D2E/DX2                !
 ! A6    A(3,2,8)              114.9395         estimate D2E/DX2                !
 ! A7    A(2,3,4)              126.3495         estimate D2E/DX2                !
 ! A8    A(2,3,5)              111.8697         estimate D2E/DX2                !
 ! A9    A(4,3,5)              121.7773         estimate D2E/DX2                !
 ! A10   A(3,5,9)              110.4236         estimate D2E/DX2                !
 ! D1    D(6,1,2,3)            -93.2015         estimate D2E/DX2                !
 ! D2    D(6,1,2,8)             48.9816         estimate D2E/DX2                !
 ! D3    D(7,1,2,3)            146.3929         estimate D2E/DX2                !
 ! D4    D(7,1,2,8)            -71.424          estimate D2E/DX2                !
 ! D5    D(1,2,3,4)             -4.0391         estimate D2E/DX2                !
 ! D6    D(1,2,3,5)            176.6383         estimate D2E/DX2                !
 ! D7    D(8,2,3,4)           -147.0011         estimate D2E/DX2                !
 ! D8    D(8,2,3,5)             33.6764         estimate D2E/DX2                !
 ! D9    D(2,3,5,9)             16.2136         estimate D2E/DX2                !
 ! D10   D(4,3,5,9)           -163.1445         estimate D2E/DX2                !
 --------------------------------------------------------------------------------
 Trust Radius=3.00D-01 FncErr=1.00D-07 GrdErr=1.00D-06
 Number of steps in this run=     38 maximum allowed number of steps=    100.
 GradGradGradGradGradGradGradGradGradGradGradGradGradGradGradGradGradGrad

 Leave Link  103 at Thu Sep  8 15:06:20 2022, MaxMem= 24159191040 cpu:         0.5
 (Enter /public/home/users/caep010/software/Gaussian09/g09/l202.exe)
                          Input orientation:                          
 ---------------------------------------------------------------------
 Center     Atomic      Atomic             Coordinates (Angstroms)
 Number     Number       Type             X           Y           Z
 ---------------------------------------------------------------------
      1          7           0        1.509183    0.065869   -0.054072
      2          7           0        0.172990   -0.317865    0.136012
      3          6           0       -0.791621    0.685402    0.043000
      4          8           0       -0.587187    1.851874   -0.116143
      5          8           0       -2.056373    0.188200    0.171243
      6          1           0        1.793788   -0.049259   -1.022927
      7          1           0        2.098599   -0.507519    0.537437
      8          1           0       -0.106900   -1.217026   -0.242367
      9          1           0       -2.032477   -0.699776    0.547816
 ---------------------------------------------------------------------
                    Distance matrix (angstroms):
                    1          2          3          4          5
     1  N    0.000000
     2  N    1.403138   0.000000
     3  C    2.384731   1.394873   0.000000
     4  O    2.754711   2.312838   1.194896   0.000000
     5  O    3.574762   2.286351   1.365011   2.238059   0.000000
     6  H    1.016334   2.010541   2.891413   3.178932   4.038090
     7  H    1.012950   1.976128   3.165581   3.634192   4.228701
     8  H    2.071955   1.014889   2.041938   3.108819   2.438479
     9  H    3.673124   2.275857   1.926988   3.006763   0.964821
                    6          7          8          9
     6  H    0.000000
     7  H    1.654584   0.000000
     8  H    2.363381   2.444529   0.000000
     9  H    4.186969   4.135560   2.144711   0.000000
 Stoichiometry    CH4N2O2
 Framework group  C1[X(CH4N2O2)]
 Deg. of freedom    21
 Full point group                 C1      NOp   1
 Largest Abelian subgroup         C1      NOp   1
 Largest concise Abelian subgroup C1      NOp   1
                         Standard orientation:                         
 ---------------------------------------------------------------------
 Center     Atomic      Atomic             Coordinates (Angstroms)
 Number     Number       Type             X           Y           Z
 ---------------------------------------------------------------------
      1          7           0       -1.849753    0.073826   -0.034884
      2          7           0       -0.624988   -0.610371   -0.059824
      3          6           0        0.533070    0.165474   -0.008475
      4          8           0        0.586611    1.359161   -0.013009
      5          8           0        1.659365   -0.604444    0.035566
      6          1           0       -2.207736    0.158888    0.912505
      7          1           0       -2.517973   -0.436579   -0.599718
      8          1           0       -0.575865   -1.486789    0.449566
      9          1           0        1.458532   -1.510285   -0.229008
 ---------------------------------------------------------------------
 Rotational constants (GHZ):     10.7181895      4.1602814      3.0525631
 Leave Link  202 at Thu Sep  8 15:06:20 2022, MaxMem= 24159191040 cpu:         0.4
 (Enter /public/home/users/caep010/software/Gaussian09/g09/l301.exe)
 Standard basis: 6-31G(d,p) (6D, 7F)
 Ernie: Thresh=  0.10000D-02 Tol=  0.10000D-05 Strict=F.
 There are    95 symmetry adapted cartesian basis functions of A   symmetry.
 There are    95 symmetry adapted basis functions of A   symmetry.
    95 basis functions,   168 primitive gaussians,    95 cartesian basis functions
    20 alpha electrons       20 beta electrons
       nuclear repulsion energy       182.6498666943 Hartrees.
 IExCor=  402 DFT=T Ex+Corr=B3LYP ExCW=0 ScaHFX=  0.200000
 ScaDFX=  0.800000  0.720000  1.000000  0.810000 ScalE2=  1.000000  1.000000
 IRadAn=      0 IRanWt=     -1 IRanGd=            0 ICorTp=0 IEmpDi=  4
 NAtoms=    9 NActive=    9 NUniq=    9 SFac= 1.00D+00 NAtFMM=   60 NAOKFM=F Big=F
 Integral buffers will be    131072 words long.
 Raffenetti 2 integral format.
 Two-electron integral symmetry is turned on.
 Leave Link  301 at Thu Sep  8 15:06:20 2022, MaxMem= 24159191040 cpu:         2.4
 (Enter /public/home/users/caep010/software/Gaussian09/g09/l302.exe)
 NPDir=0 NMtPBC=     1 NCelOv=     1 NCel=       1 NClECP=     1 NCelD=      1
         NCelK=      1 NCelE2=     1 NClLst=     1 CellRange=     0.0.
 One-electron integrals computed using PRISM.
 NBasis=    95 RedAO= T EigKep=  3.45D-03  NBF=    95
 NBsUse=    95 1.00D-06 EigRej= -1.00D+00 NBFU=    95
 Precomputing XC quadrature grid using
 IXCGrd= 4 IRadAn=           0 IRanWt=          -1 IRanGd=           0 AccXCQ= 0.00D+00.
 Generated NRdTot=       0 NPtTot=           0 NUsed=           0 NTot=          32
 NSgBfM=    95    95    95    95    95 MxSgAt=     9 MxSgA2=     9.
 Leave Link  302 at Thu Sep  8 15:06:21 2022, MaxMem= 24159191040 cpu:        10.8
 (Enter /public/home/users/caep010/software/Gaussian09/g09/l303.exe)
 DipDrv:  MaxL=1.
 Leave Link  303 at Thu Sep  8 15:06:21 2022, MaxMem= 24159191040 cpu:         0.9
 (Enter /public/home/users/caep010/software/Gaussian09/g09/l401.exe)
 ExpMin= 1.61D-01 ExpMax= 5.48D+03 ExpMxC= 8.25D+02 IAcc=1 IRadAn=         1 AccDes= 0.00D+00
 Harris functional with IExCor=  402 and IRadAn=       1 diagonalized for initial guess.
 HarFok:  IExCor=  402 AccDes= 0.00D+00 IRadAn=         1 IDoV= 1 UseB2=F ITyADJ=14
 ICtDFT=  3500011 ScaDFX=  1.000000  1.000000  1.000000  1.000000
 FoFCou: FMM=F IPFlag=           0 FMFlag=      100000 FMFlg1=           0
         NFxFlg=           0 DoJE=T BraDBF=F KetDBF=T FulRan=T
         wScrn=  0.000000 ICntrl=     500 IOpCl=  0 I1Cent=   200000004 NGrid=           0
         NMat0=    1 NMatS0=      1 NMatT0=    0 NMatD0=    1 NMtDS0=    0 NMtDT0=    0
 Petite list used in FoFCou.
 Harris En= -300.462000263732    
 JPrj=0 DoOrth=F DoCkMO=F.
 Leave Link  401 at Thu Sep  8 15:06:21 2022, MaxMem= 24159191040 cpu:         9.1
 (Enter /public/home/users/caep010/software/Gaussian09/g09/l502.exe)
 Closed shell SCF:
 Using DIIS extrapolation, IDIIS=  1040.
 Integral symmetry usage will be decided dynamically.
 Keep R1 ints in memory in canonical form, NReq=11363314.
 IVT=       49380 IEndB=       49380 NGot= 24159191040 MDV= 24148742581
 LenX= 24148742581 LenY= 24148733115
 Requested convergence on RMS density matrix=1.00D-08 within 128 cycles.
 Requested convergence on MAX density matrix=1.00D-06.
 Requested convergence on             energy=1.00D-06.
 No special actions if energy rises.
 FoFCou: FMM=F IPFlag=           0 FMFlag=           0 FMFlg1=           0
         NFxFlg=           0 DoJE=F BraDBF=F KetDBF=F FulRan=T
         wScrn=  0.000000 ICntrl=     600 IOpCl=  0 I1Cent=           0 NGrid=           0
         NMat0=    1 NMatS0=   4560 NMatT0=    0 NMatD0=    1 NMtDS0=    0 NMtDT0=    0
 Symmetry not used in FoFCou.
 Integral accuracy reduced to 1.0D-05 until final iterations.

 Cycle   1  Pass 0  IDiag  1:
 E= -300.272753436442    
 DIIS: error= 2.94D-02 at cycle   1 NSaved=   1.
 NSaved= 1 IEnMin= 1 EnMin= -300.272753436442     IErMin= 1 ErrMin= 2.94D-02
 ErrMax= 2.94D-02  0.00D+00 EMaxC= 1.00D-01 BMatC= 2.17D-01 BMatP= 2.17D-01
 IDIUse=3 WtCom= 7.06D-01 WtEn= 2.94D-01
 Coeff-Com:  0.100D+01
 Coeff-En:   0.100D+01
 Coeff:      0.100D+01
 Gap=     0.310 Goal=   None    Shift=    0.000
 GapD=    0.310 DampG=1.000 DampE=0.500 DampFc=0.5000 IDamp=-1.
 Damping current iteration by 5.00D-01
 RMSDP=1.22D-02 MaxDP=2.43D-01              OVMax= 3.45D-01

 Cycle   2  Pass 0  IDiag  1:
 E= -300.291701021799     Delta-E=       -0.018947585357 Rises=F Damp=T
 DIIS: error= 1.39D-02 at cycle   2 NSaved=   2.
 NSaved= 2 IEnMin= 2 EnMin= -300.291701021799     IErMin= 2 ErrMin= 1.39D-02
 ErrMax= 1.39D-02  0.00D+00 EMaxC= 1.00D-01 BMatC= 4.60D-02 BMatP= 2.17D-01
 IDIUse=3 WtCom= 8.61D-01 WtEn= 1.39D-01
 Coeff-Com:  0.281D+00 0.719D+00
 Coeff-En:   0.451D+00 0.549D+00
 Coeff:      0.304D+00 0.696D+00
 Gap=     0.313 Goal=   None    Shift=    0.000
 RMSDP=3.66D-03 MaxDP=7.74D-02 DE=-1.89D-02 OVMax= 2.05D-01

 Cycle   3  Pass 0  IDiag  1:
 E= -300.420995423622     Delta-E=       -0.129294401823 Rises=F Damp=F
 DIIS: error= 1.33D-02 at cycle   3 NSaved=   3.
 NSaved= 3 IEnMin= 3 EnMin= -300.420995423622     IErMin= 3 ErrMin= 1.33D-02
 ErrMax= 1.33D-02  0.00D+00 EMaxC= 1.00D-01 BMatC= 2.43D-02 BMatP= 4.60D-02
 IDIUse=3 WtCom= 8.67D-01 WtEn= 1.33D-01
 Coeff-Com:  0.131D+00 0.428D+00 0.442D+00
 Coeff-En:   0.000D+00 0.000D+00 0.100D+01
 Coeff:      0.113D+00 0.371D+00 0.516D+00
 Gap=     0.310 Goal=   None    Shift=    0.000
 RMSDP=1.72D-03 MaxDP=3.48D-02 DE=-1.29D-01 OVMax= 4.89D-02

 Cycle   4  Pass 0  IDiag  1:
 E= -300.437662055234     Delta-E=       -0.016666631612 Rises=F Damp=F
 DIIS: error= 4.36D-03 at cycle   4 NSaved=   4.
 NSaved= 4 IEnMin= 4 EnMin= -300.437662055234     IErMin= 4 ErrMin= 4.36D-03
 ErrMax= 4.36D-03  0.00D+00 EMaxC= 1.00D-01 BMatC= 3.73D-03 BMatP= 2.43D-02
 IDIUse=3 WtCom= 9.56D-01 WtEn= 4.36D-02
 Coeff-Com:  0.182D-01 0.673D-01 0.289D+00 0.626D+00
 Coeff-En:   0.000D+00 0.000D+00 0.137D+00 0.863D+00
 Coeff:      0.174D-01 0.644D-01 0.282D+00 0.636D+00
 Gap=     0.307 Goal=   None    Shift=    0.000
 RMSDP=5.37D-04 MaxDP=1.07D-02 DE=-1.67D-02 OVMax= 1.49D-02

 Cycle   5  Pass 0  IDiag  1:
 E= -300.440293713185     Delta-E=       -0.002631657950 Rises=F Damp=F
 DIIS: error= 6.56D-04 at cycle   5 NSaved=   5.
 NSaved= 5 IEnMin= 5 EnMin= -300.440293713185     IErMin= 5 ErrMin= 6.56D-04
 ErrMax= 6.56D-04  0.00D+00 EMaxC= 1.00D-01 BMatC= 1.54D-04 BMatP= 3.73D-03
 IDIUse=3 WtCom= 9.93D-01 WtEn= 6.56D-03
 Coeff-Com:  0.937D-03 0.529D-02 0.106D+00 0.312D+00 0.576D+00
 Coeff-En:   0.000D+00 0.000D+00 0.000D+00 0.000D+00 0.100D+01
 Coeff:      0.931D-03 0.525D-02 0.105D+00 0.310D+00 0.578D+00
 Gap=     0.303 Goal=   None    Shift=    0.000
 RMSDP=1.33D-04 MaxDP=2.34D-03 DE=-2.63D-03 OVMax= 3.55D-03

 Cycle   6  Pass 0  IDiag  1:
 E= -300.440407044443     Delta-E=       -0.000113331259 Rises=F Damp=F
 DIIS: error= 2.24D-04 at cycle   6 NSaved=   6.
 NSaved= 6 IEnMin= 6 EnMin= -300.440407044443     IErMin= 6 ErrMin= 2.24D-04
 ErrMax= 2.24D-04  0.00D+00 EMaxC= 1.00D-01 BMatC= 1.41D-05 BMatP= 1.54D-04
 IDIUse=3 WtCom= 9.98D-01 WtEn= 2.24D-03
 Coeff-Com: -0.495D-03-0.178D-02 0.344D-01 0.110D+00 0.307D+00 0.550D+00
 Coeff-En:   0.000D+00 0.000D+00 0.000D+00 0.000D+00 0.000D+00 0.100D+01
 Coeff:     -0.493D-03-0.178D-02 0.343D-01 0.110D+00 0.306D+00 0.551D+00
 Gap=     0.303 Goal=   None    Shift=    0.000
 RMSDP=3.64D-05 MaxDP=7.17D-04 DE=-1.13D-04 OVMax= 9.98D-04

 Cycle   7  Pass 0  IDiag  1:
 E= -300.440417503761     Delta-E=       -0.000010459318 Rises=F Damp=F
 DIIS: error= 4.86D-05 at cycle   7 NSaved=   7.
 NSaved= 7 IEnMin= 7 EnMin= -300.440417503761     IErMin= 7 ErrMin= 4.86D-05
 ErrMax= 4.86D-05  0.00D+00 EMaxC= 1.00D-01 BMatC= 9.80D-07 BMatP= 1.41D-05
 IDIUse=1 WtCom= 1.00D+00 WtEn= 0.00D+00
 Coeff-Com: -0.268D-03-0.161D-02 0.110D-01 0.352D-01 0.125D+00 0.290D+00
 Coeff-Com:  0.540D+00
 Coeff:     -0.268D-03-0.161D-02 0.110D-01 0.352D-01 0.125D+00 0.290D+00
 Coeff:      0.540D+00
 Gap=     0.303 Goal=   None    Shift=    0.000
 RMSDP=1.02D-05 MaxDP=1.88D-04 DE=-1.05D-05 OVMax= 2.32D-04

 Cycle   8  Pass 0  IDiag  1:
 E= -300.440418333417     Delta-E=       -0.000000829656 Rises=F Damp=F
 DIIS: error= 1.29D-05 at cycle   8 NSaved=   8.
 NSaved= 8 IEnMin= 8 EnMin= -300.440418333417     IErMin= 8 ErrMin= 1.29D-05
 ErrMax= 1.29D-05  0.00D+00 EMaxC= 1.00D-01 BMatC= 2.74D-08 BMatP= 9.80D-07
 IDIUse=1 WtCom= 1.00D+00 WtEn= 0.00D+00
 Coeff-Com:  0.402D-04-0.325D-03 0.516D-03 0.137D-03 0.916D-02 0.289D-01
 Coeff-Com:  0.122D+00 0.840D+00
 Coeff:      0.402D-04-0.325D-03 0.516D-03 0.137D-03 0.916D-02 0.289D-01
 Coeff:      0.122D+00 0.840D+00
 Gap=     0.303 Goal=   None    Shift=    0.000
 RMSDP=1.95D-06 MaxDP=3.01D-05 DE=-8.30D-07 OVMax= 4.05D-05

 Initial convergence to 1.0D-05 achieved.  Increase integral accuracy.
 Cycle   9  Pass 1  IDiag  1:
 E= -300.440415858751     Delta-E=        0.000002474666 Rises=F Damp=F
 DIIS: error= 1.14D-05 at cycle   1 NSaved=   1.
 NSaved= 1 IEnMin= 1 EnMin= -300.440415858751     IErMin= 1 ErrMin= 1.14D-05
 ErrMax= 1.14D-05  0.00D+00 EMaxC= 1.00D-01 BMatC= 2.20D-08 BMatP= 2.20D-08
 IDIUse=1 WtCom= 1.00D+00 WtEn= 0.00D+00
 Coeff-Com:  0.100D+01
 Coeff:      0.100D+01
 Gap=     0.303 Goal=   None    Shift=    0.000
 RMSDP=1.95D-06 MaxDP=3.01D-05 DE= 2.47D-06 OVMax= 4.04D-05

 Cycle  10  Pass 1  IDiag  1:
 E= -300.440415875498     Delta-E=       -0.000000016747 Rises=F Damp=F
 DIIS: error= 3.60D-06 at cycle   2 NSaved=   2.
 NSaved= 2 IEnMin= 2 EnMin= -300.440415875498     IErMin= 2 ErrMin= 3.60D-06
 ErrMax= 3.60D-06  0.00D+00 EMaxC= 1.00D-01 BMatC= 5.13D-09 BMatP= 2.20D-08
 IDIUse=1 WtCom= 1.00D+00 WtEn= 0.00D+00
 Coeff-Com:  0.243D+00 0.757D+00
 Coeff:      0.243D+00 0.757D+00
 Gap=     0.303 Goal=   None    Shift=    0.000
 RMSDP=9.75D-07 MaxDP=2.20D-05 DE=-1.67D-08 OVMax= 2.57D-05

 Cycle  11  Pass 1  IDiag  1:
 E= -300.440415876648     Delta-E=       -0.000000001150 Rises=F Damp=F
 DIIS: error= 3.13D-06 at cycle   3 NSaved=   3.
 NSaved= 3 IEnMin= 3 EnMin= -300.440415876648     IErMin= 3 ErrMin= 3.13D-06
 ErrMax= 3.13D-06  0.00D+00 EMaxC= 1.00D-01 BMatC= 3.70D-09 BMatP= 5.13D-09
 IDIUse=1 WtCom= 1.00D+00 WtEn= 0.00D+00
 Coeff-Com: -0.138D-01 0.460D+00 0.554D+00
 Coeff:     -0.138D-01 0.460D+00 0.554D+00
 Gap=     0.303 Goal=   None    Shift=    0.000
 RMSDP=4.52D-07 MaxDP=1.17D-05 DE=-1.15D-09 OVMax= 1.21D-05

 Cycle  12  Pass 1  IDiag  1:
 E= -300.440415879471     Delta-E=       -0.000000002824 Rises=F Damp=F
 DIIS: error= 4.37D-07 at cycle   4 NSaved=   4.
 NSaved= 4 IEnMin= 4 EnMin= -300.440415879471     IErMin= 4 ErrMin= 4.37D-07
 ErrMax= 4.37D-07  0.00D+00 EMaxC= 1.00D-01 BMatC= 4.30D-11 BMatP= 3.70D-09
 IDIUse=1 WtCom= 1.00D+00 WtEn= 0.00D+00
 Coeff-Com: -0.104D-01 0.186D+00 0.242D+00 0.583D+00
 Coeff:     -0.104D-01 0.186D+00 0.242D+00 0.583D+00
 Gap=     0.303 Goal=   None    Shift=    0.000
 RMSDP=7.37D-08 MaxDP=1.65D-06 DE=-2.82D-09 OVMax= 1.96D-06

 Cycle  13  Pass 1  IDiag  1:
 E= -300.440415879498     Delta-E=       -0.000000000026 Rises=F Damp=F
 DIIS: error= 1.58D-07 at cycle   5 NSaved=   5.
 NSaved= 5 IEnMin= 5 EnMin= -300.440415879498     IErMin= 5 ErrMin= 1.58D-07
 ErrMax= 1.58D-07  0.00D+00 EMaxC= 1.00D-01 BMatC= 7.62D-12 BMatP= 4.30D-11
 IDIUse=1 WtCom= 1.00D+00 WtEn= 0.00D+00
 Coeff-Com: -0.479D-02 0.711D-01 0.960D-01 0.341D+00 0.497D+00
 Coeff:     -0.479D-02 0.711D-01 0.960D-01 0.341D+00 0.497D+00
 Gap=     0.303 Goal=   None    Shift=    0.000
 RMSDP=2.36D-08 MaxDP=5.45D-07 DE=-2.61D-11 OVMax= 5.42D-07

 Cycle  14  Pass 1  IDiag  1:
 E= -300.440415879507     Delta-E=       -0.000000000009 Rises=F Damp=F
 DIIS: error= 1.80D-08 at cycle   6 NSaved=   6.
 NSaved= 6 IEnMin= 6 EnMin= -300.440415879507     IErMin= 6 ErrMin= 1.80D-08
 ErrMax= 1.80D-08  0.00D+00 EMaxC= 1.00D-01 BMatC= 8.86D-14 BMatP= 7.62D-12
 IDIUse=1 WtCom= 1.00D+00 WtEn= 0.00D+00
 Coeff-Com: -0.451D-03 0.357D-02 0.538D-02 0.441D-01 0.126D+00 0.821D+00
 Coeff:     -0.451D-03 0.357D-02 0.538D-02 0.441D-01 0.126D+00 0.821D+00
 Gap=     0.303 Goal=   None    Shift=    0.000
 RMSDP=3.98D-09 MaxDP=6.62D-08 DE=-9.32D-12 OVMax= 9.12D-08

 SCF Done:  E(RB3LYP) =  -300.440415880     A.U. after   14 cycles
            NFock= 14  Conv=0.40D-08     -V/T= 2.0086
 KE= 2.978731951090D+02 PE=-1.070079848829D+03 EE= 2.891163711465D+02
 Leave Link  502 at Thu Sep  8 15:06:22 2022, MaxMem= 24159191040 cpu:        28.6
 (Enter /public/home/users/caep010/software/Gaussian09/g09/l601.exe)
 Copying SCF densities to generalized density rwf, IOpCl= 0 IROHF=0.

 **********************************************************************

            Population analysis using the SCF density.

 **********************************************************************

 Orbital symmetries:
       Occupied  (A) (A) (A) (A) (A) (A) (A) (A) (A) (A) (A) (A)
                 (A) (A) (A) (A) (A) (A) (A) (A)
       Virtual   (A) (A) (A) (A) (A) (A) (A) (A) (A) (A) (A) (A)
                 (A) (A) (A) (A) (A) (A) (A) (A) (A) (A) (A) (A)
                 (A) (A) (A) (A) (A) (A) (A) (A) (A) (A) (A) (A)
                 (A) (A) (A) (A) (A) (A) (A) (A) (A) (A) (A) (A)
                 (A) (A) (A) (A) (A) (A) (A) (A) (A) (A) (A) (A)
                 (A) (A) (A) (A) (A) (A) (A) (A) (A) (A) (A) (A)
                 (A) (A) (A)
 The electronic state is 1-A.
 Alpha  occ. eigenvalues --  -19.18970 -19.11731 -14.39380 -14.36707 -10.33189
 Alpha  occ. eigenvalues --   -1.10325  -1.01697  -0.98640  -0.80528  -0.61800
 Alpha  occ. eigenvalues --   -0.57933  -0.54032  -0.51799  -0.44066  -0.42611
 Alpha  occ. eigenvalues --   -0.38995  -0.31556  -0.28760  -0.27375  -0.26330
 Alpha virt. eigenvalues --    0.03997   0.04881   0.06587   0.12094   0.14699
 Alpha virt. eigenvalues --    0.19368   0.22999   0.35915   0.39595   0.53973
 Alpha virt. eigenvalues --    0.56056   0.58840   0.64976   0.66108   0.69330
 Alpha virt. eigenvalues --    0.71053   0.73845   0.76277   0.80846   0.84525
 Alpha virt. eigenvalues --    0.84951   0.85992   0.88761   0.92877   0.96777
 Alpha virt. eigenvalues --    1.04045   1.05562   1.07198   1.11491   1.25040
 Alpha virt. eigenvalues --    1.29826   1.31876   1.39857   1.43042   1.50210
 Alpha virt. eigenvalues --    1.58777   1.69661   1.73610   1.76189   1.78157
 Alpha virt. eigenvalues --    1.82390   1.85961   1.88131   1.91464   2.04574
 Alpha virt. eigenvalues --    2.06348   2.11674   2.18124   2.19770   2.27202
 Alpha virt. eigenvalues --    2.33284   2.34069   2.40628   2.45244   2.53016
 Alpha virt. eigenvalues --    2.56540   2.59876   2.65803   2.67226   2.78197
 Alpha virt. eigenvalues --    2.78869   2.86977   2.93516   2.96859   3.08215
 Alpha virt. eigenvalues --    3.17503   3.26962   3.40718   3.43113   3.48789
 Alpha virt. eigenvalues --    3.83946   3.99996   4.11511   4.22391   4.38611
          Condensed to atoms (all electrons):
               1          2          3          4          5          6
     1  N    6.586051   0.218401  -0.047861   0.006473   0.003046   0.348561
     2  N    0.218401   6.988234   0.218695  -0.094153  -0.109318  -0.050329
     3  C   -0.047861   0.218695   4.207731   0.649220   0.280713   0.001658
     4  O    0.006473  -0.094153   0.649220   7.939411  -0.070897   0.001265
     5  O    0.003046  -0.109318   0.280713  -0.070897   8.118228  -0.000044
     6  H    0.348561  -0.050329   0.001658   0.001265  -0.000044   0.485897
     7  H    0.348820  -0.043605   0.004539   0.000239  -0.000085  -0.040747
     8  H   -0.038516   0.329563  -0.039362   0.002375   0.007596  -0.004638
     9  H    0.000190   0.011155  -0.027351   0.004471   0.273470   0.000010
               7          8          9
     1  N    0.348820  -0.038516   0.000190
     2  N   -0.043605   0.329563   0.011155
     3  C    0.004539  -0.039362  -0.027351
     4  O    0.000239   0.002375   0.004471
     5  O   -0.000085   0.007596   0.273470
     6  H   -0.040747  -0.004638   0.000010
     7  H    0.468321  -0.001547  -0.000096
     8  H   -0.001547   0.494797   0.000912
     9  H   -0.000096   0.000912   0.425684
 Mulliken charges:
               1
     1  N   -0.425164
     2  N   -0.468643
     3  C    0.752018
     4  O   -0.438403
     5  O   -0.502710
     6  H    0.258367
     7  H    0.264161
     8  H    0.248820
     9  H    0.311554
 Sum of Mulliken charges =  -0.00000
 Mulliken charges with hydrogens summed into heavy atoms:
               1
     1  N    0.097364
     2  N   -0.219824
     3  C    0.752018
     4  O   -0.438403
     5  O   -0.191156
 Electronic spatial extent (au):  <R**2>=            394.5130
 Charge=             -0.0000 electrons
 Dipole moment (field-independent basis, Debye):
    X=             -2.7232    Y=             -5.1804    Z=              0.9410  Tot=              5.9277
 Quadrupole moment (field-independent basis, Debye-Ang):
   XX=            -25.9315   YY=            -28.1261   ZZ=            -27.2084
   XY=             -0.4388   XZ=             -2.2374   YZ=              0.3721
 Traceless Quadrupole moment (field-independent basis, Debye-Ang):
   XX=              1.1572   YY=             -1.0374   ZZ=             -0.1197
   XY=             -0.4388   XZ=             -2.2374   YZ=              0.3721
 Octapole moment (field-independent basis, Debye-Ang**2):
  XXX=            -20.0482  YYY=            -15.9992  ZZZ=              1.5687  XYY=              3.7797
  XXY=             -7.9232  XXZ=              0.5696  XZZ=             -1.7784  YZZ=             -0.1602
  YYZ=              0.8976  XYZ=              0.0007
 Hexadecapole moment (field-independent basis, Debye-Ang**3):
 XXXX=           -266.6228 YYYY=           -115.1458 ZZZZ=            -26.7159 XXXY=              6.6503
 XXXZ=             -3.4838 YYYX=            -10.1014 YYYZ=             -0.6726 ZZZX=             -2.9417
 ZZZY=              0.1502 XXYY=            -66.1987 XXZZ=            -48.0000 YYZZ=            -24.7862
 XXYZ=              6.0678 YYXZ=             -2.9234 ZZXY=              0.1539
 N-N= 1.826498666943D+02 E-N=-1.070079851633D+03  KE= 2.978731951090D+02
 No NMR shielding tensors so no spin-rotation constants.
 Leave Link  601 at Thu Sep  8 15:06:23 2022, MaxMem= 24159191040 cpu:        18.2
 (Enter /public/home/users/caep010/software/Gaussian09/g09/l701.exe)
 Compute integral first derivatives.
 ... and contract with generalized density number  0.
 Leave Link  701 at Thu Sep  8 15:06:23 2022, MaxMem= 24159191040 cpu:        10.9
 (Enter /public/home/users/caep010/software/Gaussian09/g09/l702.exe)
 L702 exits ... SP integral derivatives will be done elsewhere.
 Leave Link  702 at Thu Sep  8 15:06:23 2022, MaxMem= 24159191040 cpu:         0.5
 (Enter /public/home/users/caep010/software/Gaussian09/g09/l703.exe)
 Compute integral first derivatives, UseDBF=F ICtDFT=           0.
 Integral derivatives from FoFJK, PRISM(SPDF).
 Calling FoFJK, ICntrl=      2127 FMM=F ISym2X=0 I1Cent= 0 IOpClX= 0 NMat=1 NMatS=1 NMatT=0.
 FoFJK:  IHMeth= 1 ICntrl=    2127 DoSepK=F KAlg= 0 I1Cent=   0 FoldK=F
 IRaf=         0 NMat=   1 IRICut=       1 DoRegI=T DoRafI=F ISym2E= 0.
 FoFCou: FMM=F IPFlag=           0 FMFlag=      100000 FMFlg1=         800
         NFxFlg=           0 DoJE=F BraDBF=F KetDBF=F FulRan=T
         wScrn=  0.000000 ICntrl=    2127 IOpCl=  0 I1Cent=           0 NGrid=           0
         NMat0=    1 NMatS0=      1 NMatT0=    0 NMatD0=    1 NMtDS0=    0 NMtDT0=    0
 Symmetry not used in FoFCou.
 Leave Link  703 at Thu Sep  8 15:06:24 2022, MaxMem= 24159191040 cpu:         9.0
 (Enter /public/home/users/caep010/software/Gaussian09/g09/l716.exe)
 Dipole        =-1.07139087D+00-2.03812834D+00 3.70233884D-01
 ***** Axes restored to original set *****
 -------------------------------------------------------------------
 Center     Atomic                   Forces (Hartrees/Bohr)
 Number     Number              X              Y              Z
 -------------------------------------------------------------------
      1        7           0.000001739    0.000138539    0.000428375
      2        7           0.001948973   -0.000793163    0.000226597
      3        6          -0.000424041   -0.007497611    0.001530475
      4        8           0.001878367    0.011214706   -0.001672851
      5        8          -0.003020562    0.001225205   -0.001331329
      6        1           0.000197266    0.000347202   -0.001300411
      7        1           0.000592238   -0.000159018    0.001158310
      8        1          -0.000963312   -0.001694359   -0.000819151
      9        1          -0.000210668   -0.002781500    0.001779986
 -------------------------------------------------------------------
 Cartesian Forces:  Max     0.011214706 RMS     0.002898909
 Leave Link  716 at Thu Sep  8 15:06:24 2022, MaxMem= 24159191040 cpu:         0.7
 (Enter /public/home/users/caep010/software/Gaussian09/g09/l103.exe)

 GradGradGradGradGradGradGradGradGradGradGradGradGradGradGradGradGradGrad
 Berny optimization.
 FormGI is forming the generalized inverse of G from B-inverse, IUseBI=4.
 Internal  Forces:  Max     0.011492402 RMS     0.002489244
 Search for a local minimum.
 Step number   1 out of a maximum of   38
 All quantities printed in internal units (Hartrees-Bohrs-Radians)
 RMS Force = .24892D-02 SwitMx=.10000D-02 MixMth= 1
 Mixed Optimization -- RFO/linear search
 Second derivative matrix not updated -- first step.
 ITU=  0
     Eigenvalues ---    0.01253   0.01760   0.01883   0.02155   0.02495
     Eigenvalues ---    0.05651   0.14230   0.16000   0.16000   0.16000
     Eigenvalues ---    0.22522   0.24999   0.25000   0.44928   0.45104
     Eigenvalues ---    0.45164   0.45482   0.46481   0.51948   0.54449
     Eigenvalues ---    1.07430
 RFO step:  Lambda=-2.63645773D-04 EMin= 1.25329895D-02
 Linear search not attempted -- first point.
 Iteration  1 RMS(Cart)=  0.01365937 RMS(Int)=  0.00009467
 Iteration  2 RMS(Cart)=  0.00010109 RMS(Int)=  0.00001186
 Iteration  3 RMS(Cart)=  0.00000001 RMS(Int)=  0.00001186
 ITry= 1 IFail=0 DXMaxC= 4.09D-02 DCOld= 1.00D+10 DXMaxT= 3.00D-01 DXLimC= 3.00D+00 Rises=F
 Variable       Old X    -DE/DX   Delta X   Delta X   Delta X     New X
                                 (Linear)    (Quad)   (Total)
    R1        2.65155   0.00080   0.00000   0.00178   0.00178   2.65333
    R2        1.92059   0.00126   0.00000   0.00279   0.00279   1.92339
    R3        1.91420   0.00111   0.00000   0.00244   0.00244   1.91664
    R4        2.63593   0.00276   0.00000   0.00594   0.00594   2.64187
    R5        1.91786   0.00207   0.00000   0.00459   0.00459   1.92245
    R6        2.25803   0.01149   0.00000   0.01069   0.01069   2.26872
    R7        2.57950   0.00360   0.00000   0.00693   0.00693   2.58643
    R8        1.82325   0.00325   0.00000   0.00596   0.00596   1.82921
    A1        1.94425   0.00020   0.00000   0.00359   0.00357   1.94782
    A2        1.89674   0.00022   0.00000   0.00384   0.00382   1.90056
    A3        1.90668   0.00040   0.00000   0.00714   0.00710   1.91378
    A4        2.04071  -0.00021   0.00000   0.00003   0.00002   2.04073
    A5        2.04251   0.00058   0.00000   0.00548   0.00548   2.04799
    A6        2.00607  -0.00027   0.00000  -0.00037  -0.00039   2.00569
    A7        2.20522   0.00018   0.00000   0.00074   0.00073   2.20595
    A8        1.95249  -0.00017   0.00000  -0.00064  -0.00065   1.95184
    A9        2.12541  -0.00001   0.00000  -0.00002  -0.00003   2.12538
   A10        1.92725   0.00047   0.00000   0.00294   0.00294   1.93019
    D1       -1.62667   0.00028   0.00000  -0.00302  -0.00301  -1.62968
    D2        0.85489   0.00033   0.00000   0.00448   0.00451   0.85940
    D3        2.55504  -0.00049   0.00000  -0.01661  -0.01664   2.53840
    D4       -1.24658  -0.00044   0.00000  -0.00912  -0.00912  -1.25571
    D5       -0.07050   0.00051   0.00000   0.02254   0.02253  -0.04796
    D6        3.08292   0.00036   0.00000   0.01506   0.01506   3.09798
    D7       -2.56565   0.00014   0.00000   0.01301   0.01301  -2.55264
    D8        0.58776  -0.00000   0.00000   0.00553   0.00554   0.59330
    D9        0.28298   0.00055   0.00000   0.02577   0.02576   0.30874
   D10       -2.84741   0.00042   0.00000   0.01868   0.01868  -2.82873
         Item               Value     Threshold  Converged?
 Maximum Force            0.011492     0.000450     NO 
 RMS     Force            0.002489     0.000300     NO 
 Maximum Displacement     0.040857     0.001800     NO 
 RMS     Displacement     0.013655     0.001200     NO 
 Predicted change in Energy=-1.322494D-04
 Lowest energy point so far.  Saving SCF results.
 GradGradGradGradGradGradGradGradGradGradGradGradGradGradGradGradGradGrad

 Leave Link  103 at Thu Sep  8 15:06:24 2022, MaxMem= 24159191040 cpu:         1.8
 (Enter /public/home/users/caep010/software/Gaussian09/g09/l202.exe)
                          Input orientation:                          
 ---------------------------------------------------------------------
 Center     Atomic      Atomic             Coordinates (Angstroms)
 Number     Number       Type             X           Y           Z
 ---------------------------------------------------------------------
      1          7           0        1.511386    0.062592   -0.051671
      2          7           0        0.172971   -0.323116    0.125286
      3          6           0       -0.792648    0.684293    0.040697
      4          8           0       -0.587363    1.855791   -0.122961
      5          8           0       -2.060608    0.186472    0.173863
      6          1           0        1.806143   -0.040597   -1.020388
      7          1           0        2.099368   -0.507770    0.546369
      8          1           0       -0.109455   -1.221023   -0.260632
      9          1           0       -2.039791   -0.696743    0.569436
 ---------------------------------------------------------------------
                    Distance matrix (angstroms):
                    1          2          3          4          5
     1  N    0.000000
     2  N    1.404079   0.000000
     3  C    2.388224   1.398016   0.000000
     4  O    2.761411   2.321071   1.200556   0.000000
     5  O    3.581250   2.291487   1.368679   2.246148   0.000000
     6  H    1.017813   2.014854   2.899151   3.182849   4.053339
     7  H    1.014243   1.980509   3.168671   3.640460   4.233927
     8  H    2.078090   1.017317   2.046406   3.116750   2.444755
     9  H    3.684185   2.287614   1.934474   3.017348   0.967977
                    6          7          8          9
     6  H    0.000000
     7  H    1.661011   0.000000
     8  H    2.374900   2.457413   0.000000
     9  H    4.212988   4.143535   2.165659   0.000000
 Stoichiometry    CH4N2O2
 Framework group  C1[X(CH4N2O2)]
 Deg. of freedom    21
 Full point group                 C1      NOp   1
 RotChk:  IX=0 Diff= 3.00D-03
 Largest Abelian subgroup         C1      NOp   1
 Largest concise Abelian subgroup C1      NOp   1
                         Standard orientation:                         
 ---------------------------------------------------------------------
 Center     Atomic      Atomic             Coordinates (Angstroms)
 Number     Number       Type             X           Y           Z
 ---------------------------------------------------------------------
      1          7           0       -1.852685    0.071179   -0.040407
      2          7           0       -0.626820   -0.613366   -0.049993
      3          6           0        0.533467    0.165389   -0.008508
      4          8           0        0.586830    1.364754   -0.011733
      5          8           0        1.663149   -0.606212    0.033101
      6          1           0       -2.218283    0.171829    0.904129
      7          1           0       -2.518122   -0.438824   -0.611178
      8          1           0       -0.575440   -1.486982    0.468745
      9          1           0        1.467750   -1.511384   -0.248790
 ---------------------------------------------------------------------
 Rotational constants (GHZ):     10.6397221      4.1438070      3.0378207
 Leave Link  202 at Thu Sep  8 15:06:24 2022, MaxMem= 24159191040 cpu:         0.2
 (Enter /public/home/users/caep010/software/Gaussian09/g09/l301.exe)
 Standard basis: 6-31G(d,p) (6D, 7F)
 Ernie: Thresh=  0.10000D-02 Tol=  0.10000D-05 Strict=F.
 There are    95 symmetry adapted cartesian basis functions of A   symmetry.
 There are    95 symmetry adapted basis functions of A   symmetry.
    95 basis functions,   168 primitive gaussians,    95 cartesian basis functions
    20 alpha electrons       20 beta electrons
       nuclear repulsion energy       182.1678534080 Hartrees.
 IExCor=  402 DFT=T Ex+Corr=B3LYP ExCW=0 ScaHFX=  0.200000
 ScaDFX=  0.800000  0.720000  1.000000  0.810000 ScalE2=  1.000000  1.000000
 IRadAn=      0 IRanWt=     -1 IRanGd=            0 ICorTp=0 IEmpDi=  4
 NAtoms=    9 NActive=    9 NUniq=    9 SFac= 1.00D+00 NAtFMM=   60 NAOKFM=F Big=F
 Integral buffers will be    131072 words long.
 Raffenetti 2 integral format.
 Two-electron integral symmetry is turned on.
 Leave Link  301 at Thu Sep  8 15:06:24 2022, MaxMem= 24159191040 cpu:         1.6
 (Enter /public/home/users/caep010/software/Gaussian09/g09/l302.exe)
 NPDir=0 NMtPBC=     1 NCelOv=     1 NCel=       1 NClECP=     1 NCelD=      1
         NCelK=      1 NCelE2=     1 NClLst=     1 CellRange=     0.0.
 One-electron integrals computed using PRISM.
 NBasis=    95 RedAO= T EigKep=  3.50D-03  NBF=    95
 NBsUse=    95 1.00D-06 EigRej= -1.00D+00 NBFU=    95
 Precomputing XC quadrature grid using
 IXCGrd= 4 IRadAn=           0 IRanWt=          -1 IRanGd=           0 AccXCQ= 0.00D+00.
 Generated NRdTot=       0 NPtTot=           0 NUsed=           0 NTot=          32
 NSgBfM=    95    95    95    95    95 MxSgAt=     9 MxSgA2=     9.
 Leave Link  302 at Thu Sep  8 15:06:25 2022, MaxMem= 24159191040 cpu:        10.4
 (Enter /public/home/users/caep010/software/Gaussian09/g09/l303.exe)
 DipDrv:  MaxL=1.
 Leave Link  303 at Thu Sep  8 15:06:25 2022, MaxMem= 24159191040 cpu:         0.7
 (Enter /public/home/users/caep010/software/Gaussian09/g09/l401.exe)
 Initial guess from the checkpoint file:  "B3LYP6-31Gdp.Frag_643.chk"
 B after Tr=    -0.000000   -0.000000    0.000000
         Rot=    1.000000    0.000526    0.000132   -0.000275 Ang=   0.07 deg.
 Guess basis will be translated and rotated to current coordinates.
 JPrj=2 DoOrth=T DoCkMO=T.
 Generating alternative initial guess.
 ExpMin= 1.61D-01 ExpMax= 5.48D+03 ExpMxC= 8.25D+02 IAcc=1 IRadAn=         1 AccDes= 0.00D+00
 Harris functional with IExCor=  402 and IRadAn=       1 diagonalized for initial guess.
 HarFok:  IExCor=  402 AccDes= 0.00D+00 IRadAn=         1 IDoV= 1 UseB2=F ITyADJ=14
 ICtDFT=  3500011 ScaDFX=  1.000000  1.000000  1.000000  1.000000
 FoFCou: FMM=F IPFlag=           0 FMFlag=      100000 FMFlg1=           0
         NFxFlg=           0 DoJE=T BraDBF=F KetDBF=T FulRan=T
         wScrn=  0.000000 ICntrl=     500 IOpCl=  0 I1Cent=   200000004 NGrid=           0
         NMat0=    1 NMatS0=      1 NMatT0=    0 NMatD0=    1 NMtDS0=    0 NMtDT0=    0
 Petite list used in FoFCou.
 Harris En= -300.461819970255    
 Leave Link  401 at Thu Sep  8 15:06:25 2022, MaxMem= 24159191040 cpu:        15.9
 (Enter /public/home/users/caep010/software/Gaussian09/g09/l502.exe)
 Closed shell SCF:
 Using DIIS extrapolation, IDIIS=  1040.
 Integral symmetry usage will be decided dynamically.
 Keep R1 ints in memory in canonical form, NReq=11363314.
 IVT=       49380 IEndB=       49380 NGot= 24159191040 MDV= 24148742581
 LenX= 24148742581 LenY= 24148733115
 Requested convergence on RMS density matrix=1.00D-08 within 128 cycles.
 Requested convergence on MAX density matrix=1.00D-06.
 Requested convergence on             energy=1.00D-06.
 No special actions if energy rises.
 FoFCou: FMM=F IPFlag=           0 FMFlag=           0 FMFlg1=           0
         NFxFlg=           0 DoJE=F BraDBF=F KetDBF=F FulRan=T
         wScrn=  0.000000 ICntrl=     600 IOpCl=  0 I1Cent=           0 NGrid=           0
         NMat0=    1 NMatS0=   4560 NMatT0=    0 NMatD0=    1 NMtDS0=    0 NMtDT0=    0
 Symmetry not used in FoFCou.
 Integral accuracy reduced to 1.0D-05 until final iterations.

 Cycle   1  Pass 0  IDiag  1:
 E= -300.440375285961    
 DIIS: error= 5.24D-04 at cycle   1 NSaved=   1.
 NSaved= 1 IEnMin= 1 EnMin= -300.440375285961     IErMin= 1 ErrMin= 5.24D-04
 ErrMax= 5.24D-04  0.00D+00 EMaxC= 1.00D-01 BMatC= 1.19D-04 BMatP= 1.19D-04
 IDIUse=3 WtCom= 9.95D-01 WtEn= 5.24D-03
 Coeff-Com:  0.100D+01
 Coeff-En:   0.100D+01
 Coeff:      0.100D+01
 Gap=     1.570 Goal=   None    Shift=    0.000
 RMSDP=2.01D-04 MaxDP=3.24D-03              OVMax= 3.81D-03

 Cycle   2  Pass 0  IDiag  1:
 E= -300.440553111062     Delta-E=       -0.000177825101 Rises=F Damp=F
 DIIS: error= 1.28D-04 at cycle   2 NSaved=   2.
 NSaved= 2 IEnMin= 2 EnMin= -300.440553111062     IErMin= 2 ErrMin= 1.28D-04
 ErrMax= 1.28D-04  0.00D+00 EMaxC= 1.00D-01 BMatC= 4.15D-06 BMatP= 1.19D-04
 IDIUse=3 WtCom= 9.99D-01 WtEn= 1.28D-03
 Coeff-Com:  0.199D-01 0.980D+00
 Coeff-En:   0.000D+00 0.100D+01
 Coeff:      0.199D-01 0.980D+00
 Gap=     0.303 Goal=   None    Shift=    0.000
 RMSDP=3.97D-05 MaxDP=5.88D-04 DE=-1.78D-04 OVMax= 7.88D-04

 Cycle   3  Pass 0  IDiag  1:
 E= -300.440555454598     Delta-E=       -0.000002343536 Rises=F Damp=F
 DIIS: error= 8.75D-05 at cycle   3 NSaved=   3.
 NSaved= 3 IEnMin= 3 EnMin= -300.440555454598     IErMin= 3 ErrMin= 8.75D-05
 ErrMax= 8.75D-05  0.00D+00 EMaxC= 1.00D-01 BMatC= 2.49D-06 BMatP= 4.15D-06
 IDIUse=1 WtCom= 1.00D+00 WtEn= 0.00D+00
 Coeff-Com: -0.263D-01 0.436D+00 0.590D+00
 Coeff:     -0.263D-01 0.436D+00 0.590D+00
 Gap=     0.303 Goal=   None    Shift=    0.000
 RMSDP=1.80D-05 MaxDP=2.75D-04 DE=-2.34D-06 OVMax= 3.76D-04

 Cycle   4  Pass 0  IDiag  1:
 E= -300.440557422526     Delta-E=       -0.000001967928 Rises=F Damp=F
 DIIS: error= 2.79D-05 at cycle   4 NSaved=   4.
 NSaved= 4 IEnMin= 4 EnMin= -300.440557422526     IErMin= 4 ErrMin= 2.79D-05
 ErrMax= 2.79D-05  0.00D+00 EMaxC= 1.00D-01 BMatC= 1.54D-07 BMatP= 2.49D-06
 IDIUse=1 WtCom= 1.00D+00 WtEn= 0.00D+00
 Coeff-Com: -0.126D-01 0.158D+00 0.285D+00 0.570D+00
 Coeff:     -0.126D-01 0.158D+00 0.285D+00 0.570D+00
 Gap=     0.303 Goal=   None    Shift=    0.000
 RMSDP=5.13D-06 MaxDP=9.29D-05 DE=-1.97D-06 OVMax= 1.55D-04

 Initial convergence to 1.0D-05 achieved.  Increase integral accuracy.
 Cycle   5  Pass 1  IDiag  1:
 E= -300.440554967611     Delta-E=        0.000002454915 Rises=F Damp=F
 DIIS: error= 1.53D-05 at cycle   1 NSaved=   1.
 NSaved= 1 IEnMin= 1 EnMin= -300.440554967611     IErMin= 1 ErrMin= 1.53D-05
 ErrMax= 1.53D-05  0.00D+00 EMaxC= 1.00D-01 BMatC= 6.32D-08 BMatP= 6.32D-08
 IDIUse=1 WtCom= 1.00D+00 WtEn= 0.00D+00
 Coeff-Com:  0.100D+01
 Coeff:      0.100D+01
 Gap=     0.303 Goal=   None    Shift=    0.000
 RMSDP=5.13D-06 MaxDP=9.29D-05 DE= 2.45D-06 OVMax= 1.64D-04

 Cycle   6  Pass 1  IDiag  1:
 E= -300.440554881155     Delta-E=        0.000000086456 Rises=F Damp=F
 DIIS: error= 3.34D-05 at cycle   2 NSaved=   2.
 NSaved= 2 IEnMin= 1 EnMin= -300.440554967611     IErMin= 1 ErrMin= 1.53D-05
 ErrMax= 3.34D-05  0.00D+00 EMaxC= 1.00D-01 BMatC= 1.83D-07 BMatP= 6.32D-08
 IDIUse=1 WtCom= 1.00D+00 WtEn= 0.00D+00
 Coeff-Com:  0.642D+00 0.358D+00
 Coeff:      0.642D+00 0.358D+00
 Gap=     0.303 Goal=   None    Shift=    0.000
 RMSDP=3.84D-06 MaxDP=9.90D-05 DE= 8.65D-08 OVMax= 1.19D-04

 Cycle   7  Pass 1  IDiag  1:
 E= -300.440555018054     Delta-E=       -0.000000136899 Rises=F Damp=F
 DIIS: error= 4.59D-06 at cycle   3 NSaved=   3.
 NSaved= 3 IEnMin= 3 EnMin= -300.440555018054     IErMin= 3 ErrMin= 4.59D-06
 ErrMax= 4.59D-06  0.00D+00 EMaxC= 1.00D-01 BMatC= 3.29D-09 BMatP= 6.32D-08
 IDIUse=1 WtCom= 1.00D+00 WtEn= 0.00D+00
 Coeff-Com:  0.773D-01 0.127D+00 0.796D+00
 Coeff:      0.773D-01 0.127D+00 0.796D+00
 Gap=     0.303 Goal=   None    Shift=    0.000
 RMSDP=8.79D-07 MaxDP=1.86D-05 DE=-1.37D-07 OVMax= 2.32D-05

 Cycle   8  Pass 1  IDiag  1:
 E= -300.440555019538     Delta-E=       -0.000000001484 Rises=F Damp=F
 DIIS: error= 2.17D-06 at cycle   4 NSaved=   4.
 NSaved= 4 IEnMin= 4 EnMin= -300.440555019538     IErMin= 4 ErrMin= 2.17D-06
 ErrMax= 2.17D-06  0.00D+00 EMaxC= 1.00D-01 BMatC= 1.45D-09 BMatP= 3.29D-09
 IDIUse=1 WtCom= 1.00D+00 WtEn= 0.00D+00
 Coeff-Com: -0.118D-01 0.454D-01 0.506D+00 0.460D+00
 Coeff:     -0.118D-01 0.454D-01 0.506D+00 0.460D+00
 Gap=     0.303 Goal=   None    Shift=    0.000
 RMSDP=3.36D-07 MaxDP=6.33D-06 DE=-1.48D-09 OVMax= 1.11D-05

 Cycle   9  Pass 1  IDiag  1:
 E= -300.440555020646     Delta-E=       -0.000000001109 Rises=F Damp=F
 DIIS: error= 3.82D-07 at cycle   5 NSaved=   5.
 NSaved= 5 IEnMin= 5 EnMin= -300.440555020646     IErMin= 5 ErrMin= 3.82D-07
 ErrMax= 3.82D-07  0.00D+00 EMaxC= 1.00D-01 BMatC= 3.88D-11 BMatP= 1.45D-09
 IDIUse=1 WtCom= 1.00D+00 WtEn= 0.00D+00
 Coeff-Com: -0.970D-02 0.187D-01 0.245D+00 0.246D+00 0.500D+00
 Coeff:     -0.970D-02 0.187D-01 0.245D+00 0.246D+00 0.500D+00
 Gap=     0.303 Goal=   None    Shift=    0.000
 RMSDP=5.89D-08 MaxDP=1.22D-06 DE=-1.11D-09 OVMax= 1.31D-06

 Cycle  10  Pass 1  IDiag  1:
 E= -300.440555020679     Delta-E=       -0.000000000032 Rises=F Damp=F
 DIIS: error= 6.38D-08 at cycle   6 NSaved=   6.
 NSaved= 6 IEnMin= 6 EnMin= -300.440555020679     IErMin= 6 ErrMin= 6.38D-08
 ErrMax= 6.38D-08  0.00D+00 EMaxC= 1.00D-01 BMatC= 4.65D-13 BMatP= 3.88D-11
 IDIUse=1 WtCom= 1.00D+00 WtEn= 0.00D+00
 Coeff-Com: -0.120D-02 0.711D-03 0.223D-01 0.214D-01 0.100D+00 0.857D+00
 Coeff:     -0.120D-02 0.711D-03 0.223D-01 0.214D-01 0.100D+00 0.857D+00
 Gap=     0.303 Goal=   None    Shift=    0.000
 RMSDP=9.38D-09 MaxDP=1.48D-07 DE=-3.24D-11 OVMax= 2.76D-07

 SCF Done:  E(RB3LYP) =  -300.440555021     A.U. after   10 cycles
            NFock= 10  Conv=0.94D-08     -V/T= 2.0088
 KE= 2.978122313031D+02 PE=-1.069087431174D+03 EE= 2.886667914417D+02
 Leave Link  502 at Thu Sep  8 15:06:26 2022, MaxMem= 24159191040 cpu:        21.7
 (Enter /public/home/users/caep010/software/Gaussian09/g09/l701.exe)
 Compute integral first derivatives.
 ... and contract with generalized density number  0.
 Leave Link  701 at Thu Sep  8 15:06:26 2022, MaxMem= 24159191040 cpu:        10.3
 (Enter /public/home/users/caep010/software/Gaussian09/g09/l702.exe)
 L702 exits ... SP integral derivatives will be done elsewhere.
 Leave Link  702 at Thu Sep  8 15:06:26 2022, MaxMem= 24159191040 cpu:         0.5
 (Enter /public/home/users/caep010/software/Gaussian09/g09/l703.exe)
 Compute integral first derivatives, UseDBF=F ICtDFT=           0.
 Integral derivatives from FoFJK, PRISM(SPDF).
 Calling FoFJK, ICntrl=      2127 FMM=F ISym2X=0 I1Cent= 0 IOpClX= 0 NMat=1 NMatS=1 NMatT=0.
 FoFJK:  IHMeth= 1 ICntrl=    2127 DoSepK=F KAlg= 0 I1Cent=   0 FoldK=F
 IRaf=         0 NMat=   1 IRICut=       1 DoRegI=T DoRafI=F ISym2E= 0.
 FoFCou: FMM=F IPFlag=           0 FMFlag=      100000 FMFlg1=         800
         NFxFlg=           0 DoJE=F BraDBF=F KetDBF=F FulRan=T
         wScrn=  0.000000 ICntrl=    2127 IOpCl=  0 I1Cent=           0 NGrid=           0
         NMat0=    1 NMatS0=      1 NMatT0=    0 NMatD0=    1 NMtDS0=    0 NMtDT0=    0
 Symmetry not used in FoFCou.
 Leave Link  703 at Thu Sep  8 15:06:27 2022, MaxMem= 24159191040 cpu:        12.5
 (Enter /public/home/users/caep010/software/Gaussian09/g09/l716.exe)
 Dipole        =-1.07511277D+00-2.03268265D+00 3.57850737D-01
 ***** Axes restored to original set *****
 -------------------------------------------------------------------
 Center     Atomic                   Forces (Hartrees/Bohr)
 Number     Number              X              Y              Z
 -------------------------------------------------------------------
      1        7          -0.000485794   -0.000349341   -0.000068772
      2        7           0.000616444    0.000343215   -0.000045617
      3        6           0.000544848   -0.001619590   -0.000136010
      4        8          -0.000020951    0.000819973    0.000126611
      5        8          -0.000377922    0.000285060   -0.000441897
      6        1          -0.000220740    0.000087242    0.000258904
      7        1          -0.000305255    0.000182052    0.000003603
      8        1          -0.000242983    0.000203129   -0.000112649
      9        1           0.000492351    0.000048260    0.000415827
 -------------------------------------------------------------------
 Cartesian Forces:  Max     0.001619590 RMS     0.000459049
 Leave Link  716 at Thu Sep  8 15:06:27 2022, MaxMem= 24159191040 cpu:         0.6
 (Enter /public/home/users/caep010/software/Gaussian09/g09/l103.exe)

 GradGradGradGradGradGradGradGradGradGradGradGradGradGradGradGradGradGrad
 Berny optimization.
 Using GEDIIS/GDIIS optimizer.
 FormGI is forming the generalized inverse of G from B-inverse, IUseBI=4.
 Internal  Forces:  Max     0.001011777 RMS     0.000381379
 Search for a local minimum.
 Step number   2 out of a maximum of   38
 All quantities printed in internal units (Hartrees-Bohrs-Radians)
 RMS Force = .38138D-03 SwitMx=.10000D-02 MixMth= 2
 Mixed Optimization -- En-DIIS/RFO-DIIS
 Update second derivatives using D2CorX and points    1    2
 DE= -1.39D-04 DEPred=-1.32D-04 R= 1.05D+00
 TightC=F SS=  1.41D+00  RLast= 5.22D-02 DXNew= 5.0454D-01 1.5662D-01
 Trust test= 1.05D+00 RLast= 5.22D-02 DXMaxT set to 3.00D-01
 ITU=  1  0
 Use linear search instead of GDIIS.
     Eigenvalues ---    0.01245   0.01647   0.01918   0.01993   0.02490
     Eigenvalues ---    0.05530   0.14067   0.15993   0.16000   0.16370
     Eigenvalues ---    0.22493   0.24929   0.25001   0.44541   0.44972
     Eigenvalues ---    0.45382   0.45725   0.48433   0.53340   0.55868
     Eigenvalues ---    1.04497
 RFO step:  Lambda=-2.96076364D-05 EMin= 1.24496894D-02
 Quartic linear search produced a step of  0.06518.
 Iteration  1 RMS(Cart)=  0.00888065 RMS(Int)=  0.00005661
 Iteration  2 RMS(Cart)=  0.00005431 RMS(Int)=  0.00000606
 Iteration  3 RMS(Cart)=  0.00000000 RMS(Int)=  0.00000606
 ITry= 1 IFail=0 DXMaxC= 2.72D-02 DCOld= 1.00D+10 DXMaxT= 3.00D-01 DXLimC= 3.00D+00 Rises=F
 Variable       Old X    -DE/DX   Delta X   Delta X   Delta X     New X
                                 (Linear)    (Quad)   (Total)
    R1        2.65333  -0.00101   0.00012  -0.00231  -0.00219   2.65113
    R2        1.92339  -0.00032   0.00018  -0.00063  -0.00044   1.92294
    R3        1.91664  -0.00028   0.00016  -0.00053  -0.00038   1.91627
    R4        2.64187  -0.00077   0.00039  -0.00150  -0.00111   2.64075
    R5        1.92245  -0.00007   0.00030   0.00005   0.00035   1.92280
    R6        2.26872   0.00078   0.00070   0.00127   0.00196   2.27069
    R7        2.58643  -0.00023   0.00045  -0.00015   0.00030   2.58673
    R8        1.82921   0.00014   0.00039   0.00054   0.00093   1.83014
    A1        1.94782  -0.00010   0.00023  -0.00033  -0.00010   1.94772
    A2        1.90056  -0.00020   0.00025  -0.00094  -0.00069   1.89987
    A3        1.91378   0.00021   0.00046   0.00210   0.00256   1.91634
    A4        2.04073  -0.00007   0.00000  -0.00059  -0.00059   2.04014
    A5        2.04799   0.00029   0.00036   0.00190   0.00226   2.05025
    A6        2.00569  -0.00026  -0.00003  -0.00247  -0.00249   2.00319
    A7        2.20595   0.00030   0.00005   0.00128   0.00131   2.20726
    A8        1.95184  -0.00021  -0.00004  -0.00095  -0.00101   1.95083
    A9        2.12538  -0.00008  -0.00000  -0.00038  -0.00040   2.12499
   A10        1.93019  -0.00094   0.00019  -0.00611  -0.00592   1.92427
    D1       -1.62968   0.00008  -0.00020  -0.00011  -0.00030  -1.62998
    D2        0.85940  -0.00007   0.00029  -0.00278  -0.00248   0.85691
    D3        2.53840   0.00002  -0.00108  -0.00189  -0.00298   2.53542
    D4       -1.25571  -0.00013  -0.00059  -0.00456  -0.00516  -1.26087
    D5       -0.04796   0.00000   0.00147  -0.00049   0.00098  -0.04699
    D6        3.09798   0.00021   0.00098   0.01087   0.01185   3.10983
    D7       -2.55264  -0.00005   0.00085   0.00052   0.00136  -2.55128
    D8        0.59330   0.00016   0.00036   0.01188   0.01224   0.60554
    D9        0.30874   0.00021   0.00168   0.01117   0.01286   0.32160
   D10       -2.82873   0.00041   0.00122   0.02193   0.02314  -2.80559
         Item               Value     Threshold  Converged?
 Maximum Force            0.001012     0.000450     NO 
 RMS     Force            0.000381     0.000300     NO 
 Maximum Displacement     0.027180     0.001800     NO 
 RMS     Displacement     0.008887     0.001200     NO 
 Predicted change in Energy=-1.523290D-05
 Lowest energy point so far.  Saving SCF results.
 GradGradGradGradGradGradGradGradGradGradGradGradGradGradGradGradGradGrad

 Leave Link  103 at Thu Sep  8 15:06:27 2022, MaxMem= 24159191040 cpu:         1.3
 (Enter /public/home/users/caep010/software/Gaussian09/g09/l202.exe)
                          Input orientation:                          
 ---------------------------------------------------------------------
 Center     Atomic      Atomic             Coordinates (Angstroms)
 Number     Number       Type             X           Y           Z
 ---------------------------------------------------------------------
      1          7           0        1.509811    0.061772   -0.049135
      2          7           0        0.171854   -0.325106    0.119334
      3          6           0       -0.792894    0.682282    0.034286
      4          8           0       -0.588171    1.855645   -0.124263
      5          8           0       -2.060386    0.184607    0.173935
      6          1           0        1.809355   -0.037267   -1.016568
      7          1           0        2.094164   -0.509220    0.551518
      8          1           0       -0.110815   -1.220394   -0.272928
      9          1           0       -2.032917   -0.692419    0.583820
 ---------------------------------------------------------------------
                    Distance matrix (angstroms):
                    1          2          3          4          5
     1  N    0.000000
     2  N    1.402920   0.000000
     3  C    2.386303   1.397427   0.000000
     4  O    2.761368   2.322209   1.201595   0.000000
     5  O    3.579267   2.290345   1.368838   2.246933   0.000000
     6  H    1.017577   2.013588   2.897196   3.182367   4.054802
     7  H    1.014044   1.978877   3.165803   3.639257   4.228977
     8  H    2.078572   1.017503   2.044453   3.116406   2.444287
     9  H    3.677003   2.282910   1.931177   3.013519   0.968469
                    6          7          8          9
     6  H    0.000000
     7  H    1.662153   0.000000
     8  H    2.374835   2.459148   0.000000
     9  H    4.213492   4.131271   2.169620   0.000000
 Stoichiometry    CH4N2O2
 Framework group  C1[X(CH4N2O2)]
 Deg. of freedom    21
 Full point group                 C1      NOp   1
 RotChk:  IX=0 Diff= 7.22D-04
 Largest Abelian subgroup         C1      NOp   1
 Largest concise Abelian subgroup C1      NOp   1
                         Standard orientation:                         
 ---------------------------------------------------------------------
 Center     Atomic      Atomic             Coordinates (Angstroms)
 Number     Number       Type             X           Y           Z
 ---------------------------------------------------------------------
      1          7           0       -1.851382    0.071253   -0.043837
      2          7           0       -0.626966   -0.613575   -0.045145
      3          6           0        0.532742    0.164993   -0.003773
      4          8           0        0.587803    1.365294   -0.012488
      5          8           0        1.662099   -0.607695    0.031198
      6          1           0       -2.220322    0.177083    0.898578
      7          1           0       -2.513633   -0.440378   -0.616500
      8          1           0       -0.575297   -1.483726    0.479715
      9          1           0        1.462021   -1.507474   -0.265955
 ---------------------------------------------------------------------
 Rotational constants (GHZ):     10.6289314      4.1482842      3.0397503
 Leave Link  202 at Thu Sep  8 15:06:27 2022, MaxMem= 24159191040 cpu:         0.2
 (Enter /public/home/users/caep010/software/Gaussian09/g09/l301.exe)
 Standard basis: 6-31G(d,p) (6D, 7F)
 Ernie: Thresh=  0.10000D-02 Tol=  0.10000D-05 Strict=F.
 There are    95 symmetry adapted cartesian basis functions of A   symmetry.
 There are    95 symmetry adapted basis functions of A   symmetry.
    95 basis functions,   168 primitive gaussians,    95 cartesian basis functions
    20 alpha electrons       20 beta electrons
       nuclear repulsion energy       182.1919040421 Hartrees.
 IExCor=  402 DFT=T Ex+Corr=B3LYP ExCW=0 ScaHFX=  0.200000
 ScaDFX=  0.800000  0.720000  1.000000  0.810000 ScalE2=  1.000000  1.000000
 IRadAn=      0 IRanWt=     -1 IRanGd=            0 ICorTp=0 IEmpDi=  4
 NAtoms=    9 NActive=    9 NUniq=    9 SFac= 1.00D+00 NAtFMM=   60 NAOKFM=F Big=F
 Integral buffers will be    131072 words long.
 Raffenetti 2 integral format.
 Two-electron integral symmetry is turned on.
 Leave Link  301 at Thu Sep  8 15:06:27 2022, MaxMem= 24159191040 cpu:         1.7
 (Enter /public/home/users/caep010/software/Gaussian09/g09/l302.exe)
 NPDir=0 NMtPBC=     1 NCelOv=     1 NCel=       1 NClECP=     1 NCelD=      1
         NCelK=      1 NCelE2=     1 NClLst=     1 CellRange=     0.0.
 One-electron integrals computed using PRISM.
 NBasis=    95 RedAO= T EigKep=  3.51D-03  NBF=    95
 NBsUse=    95 1.00D-06 EigRej= -1.00D+00 NBFU=    95
 Precomputing XC quadrature grid using
 IXCGrd= 4 IRadAn=           0 IRanWt=          -1 IRanGd=           0 AccXCQ= 0.00D+00.
 Generated NRdTot=       0 NPtTot=           0 NUsed=           0 NTot=          32
 NSgBfM=    95    95    95    95    95 MxSgAt=     9 MxSgA2=     9.
 Leave Link  302 at Thu Sep  8 15:06:28 2022, MaxMem= 24159191040 cpu:        11.8
 (Enter /public/home/users/caep010/software/Gaussian09/g09/l303.exe)
 DipDrv:  MaxL=1.
 Leave Link  303 at Thu Sep  8 15:06:28 2022, MaxMem= 24159191040 cpu:         0.7
 (Enter /public/home/users/caep010/software/Gaussian09/g09/l401.exe)
 Initial guess from the checkpoint file:  "B3LYP6-31Gdp.Frag_643.chk"
 B after Tr=    -0.000000    0.000000   -0.000000
         Rot=    1.000000    0.000218    0.000054    0.000242 Ang=   0.04 deg.
 Guess basis will be translated and rotated to current coordinates.
 JPrj=2 DoOrth=T DoCkMO=T.
 Generating alternative initial guess.
 ExpMin= 1.61D-01 ExpMax= 5.48D+03 ExpMxC= 8.25D+02 IAcc=1 IRadAn=         1 AccDes= 0.00D+00
 Harris functional with IExCor=  402 and IRadAn=       1 diagonalized for initial guess.
 HarFok:  IExCor=  402 AccDes= 0.00D+00 IRadAn=         1 IDoV= 1 UseB2=F ITyADJ=14
 ICtDFT=  3500011 ScaDFX=  1.000000  1.000000  1.000000  1.000000
 FoFCou: FMM=F IPFlag=           0 FMFlag=      100000 FMFlg1=           0
         NFxFlg=           0 DoJE=T BraDBF=F KetDBF=T FulRan=T
         wScrn=  0.000000 ICntrl=     500 IOpCl=  0 I1Cent=   200000004 NGrid=           0
         NMat0=    1 NMatS0=      1 NMatT0=    0 NMatD0=    1 NMtDS0=    0 NMtDT0=    0
 Petite list used in FoFCou.
 Harris En= -300.461727464912    
 Leave Link  401 at Thu Sep  8 15:06:28 2022, MaxMem= 24159191040 cpu:        11.0
 (Enter /public/home/users/caep010/software/Gaussian09/g09/l502.exe)
 Closed shell SCF:
 Using DIIS extrapolation, IDIIS=  1040.
 Integral symmetry usage will be decided dynamically.
 Keep R1 ints in memory in canonical form, NReq=11363314.
 IVT=       49380 IEndB=       49380 NGot= 24159191040 MDV= 24148742581
 LenX= 24148742581 LenY= 24148733115
 Requested convergence on RMS density matrix=1.00D-08 within 128 cycles.
 Requested convergence on MAX density matrix=1.00D-06.
 Requested convergence on             energy=1.00D-06.
 No special actions if energy rises.
 FoFCou: FMM=F IPFlag=           0 FMFlag=           0 FMFlg1=           0
         NFxFlg=           0 DoJE=F BraDBF=F KetDBF=F FulRan=T
         wScrn=  0.000000 ICntrl=     600 IOpCl=  0 I1Cent=           0 NGrid=           0
         NMat0=    1 NMatS0=   4560 NMatT0=    0 NMatD0=    1 NMtDS0=    0 NMtDT0=    0
 Symmetry not used in FoFCou.
 Integral accuracy reduced to 1.0D-05 until final iterations.

 Cycle   1  Pass 0  IDiag  1:
 E= -300.440487075790    
 DIIS: error= 3.51D-04 at cycle   1 NSaved=   1.
 NSaved= 1 IEnMin= 1 EnMin= -300.440487075790     IErMin= 1 ErrMin= 3.51D-04
 ErrMax= 3.51D-04  0.00D+00 EMaxC= 1.00D-01 BMatC= 5.24D-05 BMatP= 5.24D-05
 IDIUse=3 WtCom= 9.96D-01 WtEn= 3.51D-03
 Coeff-Com:  0.100D+01
 Coeff-En:   0.100D+01
 Coeff:      0.100D+01
 Gap=     1.575 Goal=   None    Shift=    0.000
 RMSDP=1.35D-04 MaxDP=2.93D-03              OVMax= 3.35D-03

 Cycle   2  Pass 0  IDiag  1:
 E= -300.440568661122     Delta-E=       -0.000081585332 Rises=F Damp=F
 DIIS: error= 5.04D-05 at cycle   2 NSaved=   2.
 NSaved= 2 IEnMin= 2 EnMin= -300.440568661122     IErMin= 2 ErrMin= 5.04D-05
 ErrMax= 5.04D-05  0.00D+00 EMaxC= 1.00D-01 BMatC= 8.86D-07 BMatP= 5.24D-05
 IDIUse=1 WtCom= 1.00D+00 WtEn= 0.00D+00
 Coeff-Com: -0.392D-01 0.104D+01
 Coeff:     -0.392D-01 0.104D+01
 Gap=     0.304 Goal=   None    Shift=    0.000
 RMSDP=2.18D-05 MaxDP=4.01D-04 DE=-8.16D-05 OVMax= 5.81D-04

 Cycle   3  Pass 0  IDiag  1:
 E= -300.440568654992     Delta-E=        0.000000006130 Rises=F Damp=F
 DIIS: error= 7.35D-05 at cycle   3 NSaved=   3.
 NSaved= 3 IEnMin= 2 EnMin= -300.440568661122     IErMin= 2 ErrMin= 5.04D-05
 ErrMax= 7.35D-05  0.00D+00 EMaxC= 1.00D-01 BMatC= 1.56D-06 BMatP= 8.86D-07
 IDIUse=1 WtCom= 1.00D+00 WtEn= 0.00D+00
 Coeff-Com: -0.371D-01 0.622D+00 0.416D+00
 Coeff:     -0.371D-01 0.622D+00 0.416D+00
 Gap=     0.304 Goal=   None    Shift=    0.000
 RMSDP=1.23D-05 MaxDP=2.64D-04 DE= 6.13D-09 OVMax= 3.80D-04

 Cycle   4  Pass 0  IDiag  1:
 E= -300.440569823652     Delta-E=       -0.000001168660 Rises=F Damp=F
 DIIS: error= 2.54D-05 at cycle   4 NSaved=   4.
 NSaved= 4 IEnMin= 4 EnMin= -300.440569823652     IErMin= 4 ErrMin= 2.54D-05
 ErrMax= 2.54D-05  0.00D+00 EMaxC= 1.00D-01 BMatC= 8.06D-08 BMatP= 8.86D-07
 IDIUse=1 WtCom= 1.00D+00 WtEn= 0.00D+00
 Coeff-Com: -0.117D-01 0.158D+00 0.212D+00 0.642D+00
 Coeff:     -0.117D-01 0.158D+00 0.212D+00 0.642D+00
 Gap=     0.304 Goal=   None    Shift=    0.000
 RMSDP=3.52D-06 MaxDP=8.60D-05 DE=-1.17D-06 OVMax= 9.89D-05

 Initial convergence to 1.0D-05 achieved.  Increase integral accuracy.
 Cycle   5  Pass 1  IDiag  1:
 E= -300.440567999180     Delta-E=        0.000001824472 Rises=F Damp=F
 DIIS: error= 1.13D-05 at cycle   1 NSaved=   1.
 NSaved= 1 IEnMin= 1 EnMin= -300.440567999180     IErMin= 1 ErrMin= 1.13D-05
 ErrMax= 1.13D-05  0.00D+00 EMaxC= 1.00D-01 BMatC= 4.33D-08 BMatP= 4.33D-08
 IDIUse=1 WtCom= 1.00D+00 WtEn= 0.00D+00
 Coeff-Com:  0.100D+01
 Coeff:      0.100D+01
 Gap=     0.304 Goal=   None    Shift=    0.000
 RMSDP=3.52D-06 MaxDP=8.60D-05 DE= 1.82D-06 OVMax= 1.19D-04

 Cycle   6  Pass 1  IDiag  1:
 E= -300.440567966348     Delta-E=        0.000000032832 Rises=F Damp=F
 DIIS: error= 2.24D-05 at cycle   2 NSaved=   2.
 NSaved= 2 IEnMin= 1 EnMin= -300.440567999180     IErMin= 1 ErrMin= 1.13D-05
 ErrMax= 2.24D-05  0.00D+00 EMaxC= 1.00D-01 BMatC= 9.47D-08 BMatP= 4.33D-08
 IDIUse=1 WtCom= 1.00D+00 WtEn= 0.00D+00
 Coeff-Com:  0.611D+00 0.389D+00
 Coeff:      0.611D+00 0.389D+00
 Gap=     0.304 Goal=   None    Shift=    0.000
 RMSDP=2.94D-06 MaxDP=7.59D-05 DE= 3.28D-08 OVMax= 1.00D-04

 Cycle   7  Pass 1  IDiag  1:
 E= -300.440568033367     Delta-E=       -0.000000067019 Rises=F Damp=F
 DIIS: error= 5.91D-06 at cycle   3 NSaved=   3.
 NSaved= 3 IEnMin= 3 EnMin= -300.440568033367     IErMin= 3 ErrMin= 5.91D-06
 ErrMax= 5.91D-06  0.00D+00 EMaxC= 1.00D-01 BMatC= 3.87D-09 BMatP= 4.33D-08
 IDIUse=1 WtCom= 1.00D+00 WtEn= 0.00D+00
 Coeff-Com:  0.552D-01 0.169D+00 0.776D+00
 Coeff:      0.552D-01 0.169D+00 0.776D+00
 Gap=     0.304 Goal=   None    Shift=    0.000
 RMSDP=8.05D-07 MaxDP=1.68D-05 DE=-6.70D-08 OVMax= 2.44D-05

 Cycle   8  Pass 1  IDiag  1:
 E= -300.440568035216     Delta-E=       -0.000000001848 Rises=F Damp=F
 DIIS: error= 2.29D-06 at cycle   4 NSaved=   4.
 NSaved= 4 IEnMin= 4 EnMin= -300.440568035216     IErMin= 4 ErrMin= 2.29D-06
 ErrMax= 2.29D-06  0.00D+00 EMaxC= 1.00D-01 BMatC= 1.43D-09 BMatP= 3.87D-09
 IDIUse=1 WtCom= 1.00D+00 WtEn= 0.00D+00
 Coeff-Com: -0.136D-01 0.750D-01 0.506D+00 0.433D+00
 Coeff:     -0.136D-01 0.750D-01 0.506D+00 0.433D+00
 Gap=     0.304 Goal=   None    Shift=    0.000
 RMSDP=3.29D-07 MaxDP=8.84D-06 DE=-1.85D-09 OVMax= 9.42D-06

 Cycle   9  Pass 1  IDiag  1:
 E= -300.440568036373     Delta-E=       -0.000000001157 Rises=F Damp=F
 DIIS: error= 3.43D-07 at cycle   5 NSaved=   5.
 NSaved= 5 IEnMin= 5 EnMin= -300.440568036373     IErMin= 5 ErrMin= 3.43D-07
 ErrMax= 3.43D-07  0.00D+00 EMaxC= 1.00D-01 BMatC= 2.47D-11 BMatP= 1.43D-09
 IDIUse=1 WtCom= 1.00D+00 WtEn= 0.00D+00
 Coeff-Com: -0.866D-02 0.312D-01 0.231D+00 0.215D+00 0.531D+00
 Coeff:     -0.866D-02 0.312D-01 0.231D+00 0.215D+00 0.531D+00
 Gap=     0.304 Goal=   None    Shift=    0.000
 RMSDP=4.90D-08 MaxDP=1.13D-06 DE=-1.16D-09 OVMax= 1.03D-06

 Cycle  10  Pass 1  IDiag  1:
 E= -300.440568036393     Delta-E=       -0.000000000020 Rises=F Damp=F
 DIIS: error= 7.23D-08 at cycle   6 NSaved=   6.
 NSaved= 6 IEnMin= 6 EnMin= -300.440568036393     IErMin= 6 ErrMin= 7.23D-08
 ErrMax= 7.23D-08  0.00D+00 EMaxC= 1.00D-01 BMatC= 1.22D-12 BMatP= 2.47D-11
 IDIUse=1 WtCom= 1.00D+00 WtEn= 0.00D+00
 Coeff-Com: -0.244D-02 0.651D-02 0.563D-01 0.529D-01 0.225D+00 0.661D+00
 Coeff:     -0.244D-02 0.651D-02 0.563D-01 0.529D-01 0.225D+00 0.661D+00
 Gap=     0.304 Goal=   None    Shift=    0.000
 RMSDP=1.02D-08 MaxDP=1.97D-07 DE=-1.98D-11 OVMax= 2.55D-07

 Cycle  11  Pass 1  IDiag  1:
 E= -300.440568036394     Delta-E=       -0.000000000001 Rises=F Damp=F
 DIIS: error= 2.19D-08 at cycle   7 NSaved=   7.
 NSaved= 7 IEnMin= 7 EnMin= -300.440568036394     IErMin= 7 ErrMin= 2.19D-08
 ErrMax= 2.19D-08  0.00D+00 EMaxC= 1.00D-01 BMatC= 1.10D-13 BMatP= 1.22D-12
 IDIUse=1 WtCom= 1.00D+00 WtEn= 0.00D+00
 Coeff-Com: -0.285D-03-0.557D-04 0.324D-02 0.294D-02 0.518D-01 0.293D+00
 Coeff-Com:  0.649D+00
 Coeff:     -0.285D-03-0.557D-04 0.324D-02 0.294D-02 0.518D-01 0.293D+00
 Coeff:      0.649D+00
 Gap=     0.304 Goal=   None    Shift=    0.000
 RMSDP=3.51D-09 MaxDP=7.11D-08 DE=-1.36D-12 OVMax= 9.90D-08

 SCF Done:  E(RB3LYP) =  -300.440568036     A.U. after   11 cycles
            NFock= 11  Conv=0.35D-08     -V/T= 2.0088
 KE= 2.978127231504D+02 PE=-1.069136246899D+03 EE= 2.886910516697D+02
 Leave Link  502 at Thu Sep  8 15:06:29 2022, MaxMem= 24159191040 cpu:        21.8
 (Enter /public/home/users/caep010/software/Gaussian09/g09/l701.exe)
 Compute integral first derivatives.
 ... and contract with generalized density number  0.
 Leave Link  701 at Thu Sep  8 15:06:30 2022, MaxMem= 24159191040 cpu:        10.7
 (Enter /public/home/users/caep010/software/Gaussian09/g09/l702.exe)
 L702 exits ... SP integral derivatives will be done elsewhere.
 Leave Link  702 at Thu Sep  8 15:06:30 2022, MaxMem= 24159191040 cpu:         0.5
 (Enter /public/home/users/caep010/software/Gaussian09/g09/l703.exe)
 Compute integral first derivatives, UseDBF=F ICtDFT=           0.
 Integral derivatives from FoFJK, PRISM(SPDF).
 Calling FoFJK, ICntrl=      2127 FMM=F ISym2X=0 I1Cent= 0 IOpClX= 0 NMat=1 NMatS=1 NMatT=0.
 FoFJK:  IHMeth= 1 ICntrl=    2127 DoSepK=F KAlg= 0 I1Cent=   0 FoldK=F
 IRaf=         0 NMat=   1 IRICut=       1 DoRegI=T DoRafI=F ISym2E= 0.
 FoFCou: FMM=F IPFlag=           0 FMFlag=      100000 FMFlg1=         800
         NFxFlg=           0 DoJE=F BraDBF=F KetDBF=F FulRan=T
         wScrn=  0.000000 ICntrl=    2127 IOpCl=  0 I1Cent=           0 NGrid=           0
         NMat0=    1 NMatS0=      1 NMatT0=    0 NMatD0=    1 NMtDS0=    0 NMtDT0=    0
 Symmetry not used in FoFCou.
 Leave Link  703 at Thu Sep  8 15:06:30 2022, MaxMem= 24159191040 cpu:         8.6
 (Enter /public/home/users/caep010/software/Gaussian09/g09/l716.exe)
 Dipole        =-1.08306913D+00-2.02551759D+00 3.53622368D-01
 ***** Axes restored to original set *****
 -------------------------------------------------------------------
 Center     Atomic                   Forces (Hartrees/Bohr)
 Number     Number              X              Y              Z
 -------------------------------------------------------------------
      1        7          -0.000072424   -0.000284099   -0.000140731
      2        7          -0.000074244    0.000230796   -0.000317462
      3        6           0.000207808    0.000797924    0.001317408
      4        8          -0.000077544   -0.000965640   -0.000388143
      5        8          -0.000112854   -0.000399165   -0.000535706
      6        1           0.000054343    0.000013685    0.000211337
      7        1          -0.000023730    0.000114965   -0.000127714
      8        1          -0.000032387    0.000172549   -0.000084635
      9        1           0.000131033    0.000318986    0.000065646
 -------------------------------------------------------------------
 Cartesian Forces:  Max     0.001317408 RMS     0.000406796
 Leave Link  716 at Thu Sep  8 15:06:30 2022, MaxMem= 24159191040 cpu:         0.6
 (Enter /public/home/users/caep010/software/Gaussian09/g09/l103.exe)

 GradGradGradGradGradGradGradGradGradGradGradGradGradGradGradGradGradGrad
 Berny optimization.
 Using GEDIIS/GDIIS optimizer.
 FormGI is forming the generalized inverse of G from B-inverse, IUseBI=4.
 Internal  Forces:  Max     0.000904686 RMS     0.000275097
 Search for a local minimum.
 Step number   3 out of a maximum of   38
 All quantities printed in internal units (Hartrees-Bohrs-Radians)
 RMS Force = .27510D-03 SwitMx=.10000D-02 MixMth= 2
 Mixed Optimization -- En-DIIS/RFO-DIIS
 Swapping is turned off.
 Update second derivatives using D2CorX and points    1    2    3
 DE= -1.30D-05 DEPred=-1.52D-05 R= 8.54D-01
 TightC=F SS=  1.41D+00  RLast= 3.32D-02 DXNew= 5.0454D-01 9.9659D-02
 Trust test= 8.54D-01 RLast= 3.32D-02 DXMaxT set to 3.00D-01
 ITU=  1  1  0
     Eigenvalues ---    0.00784   0.01282   0.01849   0.02488   0.04334
     Eigenvalues ---    0.05532   0.13676   0.15568   0.16000   0.16531
     Eigenvalues ---    0.22857   0.24804   0.25409   0.44658   0.45068
     Eigenvalues ---    0.45470   0.45683   0.47558   0.53473   0.56197
     Eigenvalues ---    1.16103
 En-DIIS/RFO-DIIS IScMMF=        0 using points:     3    2
 RFO step:  Lambda=-5.94583273D-06.
 NNeg= 0 NP= 2 Switch=  2.50D-03 Rises=F DC=  1.30D-05 SmlDif=  1.00D-05
 RMS Error=  0.1106215073D-02 NUsed= 2 EDIIS=F
 DidBck=F Rises=F RFO-DIIS coefs:    0.87083    0.12917
 Iteration  1 RMS(Cart)=  0.00979853 RMS(Int)=  0.00015230
 Iteration  2 RMS(Cart)=  0.00013603 RMS(Int)=  0.00002388
 Iteration  3 RMS(Cart)=  0.00000004 RMS(Int)=  0.00002388
 ITry= 1 IFail=0 DXMaxC= 3.12D-02 DCOld= 1.00D+10 DXMaxT= 3.00D-01 DXLimC= 3.00D+00 Rises=F
 Variable       Old X    -DE/DX   Delta X   Delta X   Delta X     New X
                                 (Linear)    (Quad)   (Total)
    R1        2.65113  -0.00008   0.00028  -0.00252  -0.00224   2.64889
    R2        1.92294  -0.00019   0.00006  -0.00059  -0.00053   1.92241
    R3        1.91627  -0.00015   0.00005  -0.00048  -0.00043   1.91584
    R4        2.64075  -0.00031   0.00014  -0.00125  -0.00111   2.63964
    R5        1.92280  -0.00011  -0.00005   0.00069   0.00064   1.92344
    R6        2.27069  -0.00090  -0.00025   0.00270   0.00244   2.27313
    R7        2.58673  -0.00004  -0.00004   0.00103   0.00099   2.58772
    R8        1.83014  -0.00026  -0.00012   0.00131   0.00119   1.83133
    A1        1.94772   0.00015   0.00001   0.00118   0.00119   1.94892
    A2        1.89987   0.00009   0.00009   0.00019   0.00028   1.90014
    A3        1.91634  -0.00010  -0.00033   0.00334   0.00301   1.91935
    A4        2.04014   0.00024   0.00008  -0.00007   0.00001   2.04015
    A5        2.05025  -0.00005  -0.00029   0.00262   0.00232   2.05257
    A6        2.00319  -0.00020   0.00032  -0.00447  -0.00414   1.99905
    A7        2.20726  -0.00005  -0.00017   0.00155   0.00131   2.20857
    A8        1.95083  -0.00012   0.00013  -0.00156  -0.00150   1.94933
    A9        2.12499   0.00018   0.00005   0.00029   0.00027   2.12526
   A10        1.92427  -0.00028   0.00077  -0.00813  -0.00736   1.91691
    D1       -1.62998   0.00005   0.00004   0.00022   0.00027  -1.62971
    D2        0.85691  -0.00004   0.00032  -0.00433  -0.00401   0.85290
    D3        2.53542   0.00002   0.00038  -0.00484  -0.00446   2.53096
    D4       -1.26087  -0.00007   0.00067  -0.00940  -0.00874  -1.26961
    D5       -0.04699   0.00036  -0.00013   0.01986   0.01974  -0.02725
    D6        3.10983  -0.00036  -0.00153  -0.00133  -0.00286   3.10697
    D7       -2.55128   0.00040  -0.00018   0.02172   0.02155  -2.52973
    D8        0.60554  -0.00032  -0.00158   0.00053  -0.00106   0.60448
    D9        0.32160   0.00049  -0.00166   0.03985   0.03819   0.35979
   D10       -2.80559  -0.00018  -0.00299   0.01980   0.01682  -2.78877
         Item               Value     Threshold  Converged?
 Maximum Force            0.000905     0.000450     NO 
 RMS     Force            0.000275     0.000300     YES
 Maximum Displacement     0.031182     0.001800     NO 
 RMS     Displacement     0.009796     0.001200     NO 
 Predicted change in Energy=-1.713906D-05
 Lowest energy point so far.  Saving SCF results.
 GradGradGradGradGradGradGradGradGradGradGradGradGradGradGradGradGradGrad

 Leave Link  103 at Thu Sep  8 15:06:30 2022, MaxMem= 24159191040 cpu:         6.1
 (Enter /public/home/users/caep010/software/Gaussian09/g09/l202.exe)
                          Input orientation:                          
 ---------------------------------------------------------------------
 Center     Atomic      Atomic             Coordinates (Angstroms)
 Number     Number       Type             X           Y           Z
 ---------------------------------------------------------------------
      1          7           0        1.508951    0.060058   -0.045980
      2          7           0        0.171635   -0.327305    0.116486
      3          6           0       -0.792175    0.680648    0.037363
      4          8           0       -0.588978    1.854299   -0.130553
      5          8           0       -2.060041    0.179804    0.167073
      6          1           0        1.811446   -0.030819   -1.013002
      7          1           0        2.091488   -0.512746    0.554331
      8          1           0       -0.113738   -1.217551   -0.286039
      9          1           0       -2.028586   -0.686486    0.600320
 ---------------------------------------------------------------------
                    Distance matrix (angstroms):
[...]
     20  0.757734D-03 -0.637558D-03 -0.199465D-03  0.160604D-04  0.504481D-03
     21 -0.875077D-03 -0.235511D-03  0.144337D-02 -0.579617D-03 -0.483653D-03
     22  0.559028D-02 -0.220934D-02 -0.252516D-02 -0.191082D-02 -0.106811D-02
     23 -0.163420D-03  0.701542D-03 -0.694941D-03  0.327645D-02  0.326039D-02
     24  0.107332D-02  0.361925D-02  0.359141D-02  0.227792D-02 -0.107969D-02
     25 -0.330429D-02  0.121343D-03 -0.453273D-01  0.464407D-01 -0.227073D-01
     26  0.298917D-02  0.110238D-02 -0.455790D-03 -0.398491D+00  0.197621D+00
     27 -0.173405D-02  0.506703D-02  0.229631D-02  0.202408D+00 -0.105583D+00
               16            17            18            19            20 
     16  0.102184D+00
     17 -0.947348D-02  0.223361D-01
     18 -0.984599D-01  0.245690D-01  0.410120D+00
     19  0.896256D-02 -0.571676D-02  0.722915D-02  0.196363D+00
     20 -0.333531D-02 -0.370236D-02 -0.111490D-01 -0.128179D+00  0.152824D+00
     21 -0.223813D-01  0.240359D-01 -0.207881D-01  0.127028D+00 -0.152050D+00
     22  0.134674D-02  0.699948D-04 -0.917954D-03 -0.155157D-03 -0.188098D-02
     23  0.386629D-03  0.529706D-03 -0.133908D-03  0.591832D-03  0.845913D-03
     24  0.897237D-03  0.383780D-02  0.172975D-02 -0.178548D-02 -0.206498D-02
     25  0.656706D-03 -0.379658D-04 -0.121683D-04  0.475239D-04 -0.308680D-03
     26  0.618585D-03 -0.318717D-05 -0.844990D-04  0.193506D-03  0.241772D-03
     27  0.963869D-04  0.148242D-03 -0.413523D-04 -0.274163D-03  0.100710D-03
               21            22            23            24            25 
     21  0.200100D+00
     22 -0.824046D-04  0.981586D-01
     23  0.823579D-03  0.835232D-01  0.346981D+00
     24 -0.853784D-03  0.347705D-01  0.144693D+00  0.759696D-01
     25 -0.297485D-03 -0.201725D-02  0.926585D-03  0.331070D-02  0.503896D-01
     26  0.718483D-04  0.105729D-02  0.582663D-03 -0.779362D-03 -0.371358D-02
     27  0.291495D-03  0.222646D-02 -0.166088D-02 -0.273228D-03  0.235557D-02
               26            27 
     26  0.416557D+00
     27 -0.203316D+00  0.107297D+00
 FormGI is forming the generalized inverse of G from B-inverse, IUseBI=4.
 Force constants in internal coordinates: 
                1             2             3             4             5 
      1  0.395309D+00
      2  0.752677D-02  0.440172D+00
      3  0.387169D-02 -0.130451D-02  0.455069D+00
      4  0.178938D-01 -0.150300D-02 -0.302031D-03  0.392984D+00
      5  0.129601D-01  0.151251D-03 -0.427980D-03  0.992409D-03  0.433839D+00
      6  0.500487D-03  0.116290D-02 -0.598168D-03  0.607052D-01 -0.207101D-02
      7 -0.277064D-04  0.164743D-05  0.197525D-03  0.514689D-01  0.278957D-02
      8 -0.680749D-03 -0.204011D-03 -0.331140D-04 -0.293328D-02  0.829268D-03
      9  0.523551D-01  0.116265D-02  0.166764D-02 -0.580057D-02 -0.326276D-02
     10  0.576384D-01  0.249010D-02  0.495852D-02  0.378899D-03  0.118246D-02
     11 -0.299850D-01  0.108817D-01  0.962603D-02  0.822222D-03  0.382852D-04
     12  0.313391D-01  0.301681D-02  0.402014D-02  0.299068D-01 -0.390612D-02
     13  0.126707D-01 -0.289129D-02 -0.241044D-02 -0.205535D-01 -0.383723D-02
     14 -0.331529D-01  0.248555D-03 -0.146729D-02  0.235705D-02  0.100188D-01
     15 -0.134858D-01 -0.390828D-03 -0.452763D-03  0.203733D-01  0.498467D-02
     16  0.131777D-01  0.863240D-03  0.751290D-03  0.292496D-01 -0.461719D-02
     17  0.317185D-03 -0.471891D-03 -0.298948D-03 -0.496136D-01 -0.357709D-03
     18 -0.297105D-02 -0.428130D-03 -0.486439D-04  0.857617D-02  0.278234D-02
     19  0.148822D-01  0.637107D-02  0.907376D-02 -0.798716D-02 -0.494371D-02
     20  0.187387D-01  0.703680D-02  0.874995D-02  0.105367D-01  0.222195D-02
     21 -0.201608D-01 -0.970791D-02 -0.742220D-02 -0.553624D-02 -0.368746D-02
     22 -0.163042D-01 -0.904217D-02 -0.774600D-02  0.129877D-01  0.347821D-02
     23  0.105896D-01 -0.314243D-03 -0.398856D-03  0.471969D-02  0.226701D-02
     24  0.774564D-02 -0.474891D-03 -0.268116D-03  0.193252D-02 -0.757081D-03
     25 -0.936578D-02  0.255779D-03  0.349245D-03 -0.428081D-02  0.294057D-03
     26 -0.122097D-01  0.951308D-04  0.479985D-03 -0.706799D-02 -0.273003D-02
     27  0.295393D-03  0.210516D-03 -0.904063D-04  0.522248D-02  0.208455D-02
     28 -0.236041D-02  0.584859D-04  0.338282D-04  0.242572D-02 -0.790635D-03
                6             7             8             9            10 
      6  0.906157D+00
      7  0.697850D-01  0.379520D+00
      8 -0.302816D-02  0.603321D-03  0.517194D+00
      9  0.264619D-02  0.943887D-03 -0.580778D-03  0.171062D+00
     10  0.143294D-02  0.275827D-02 -0.448311D-03 -0.438129D-01  0.164777D+00
     11 -0.230444D-02 -0.163813D-02  0.399292D-03 -0.548455D-01 -0.557411D-01
     12 -0.120607D-01  0.791291D-02 -0.662572D-04  0.163484D-02  0.708255D-02
     13 -0.129042D-03 -0.757781D-02  0.736964D-04 -0.137482D-02 -0.102221D-02
     14  0.984629D-02 -0.347629D-03  0.506669D-03  0.122827D-02 -0.628673D-02
     15  0.201942D-01 -0.545757D-01  0.250525D-02 -0.883705D-03 -0.544499D-02
     16 -0.455704D-01  0.325972D-01 -0.144531D-01  0.161495D-02  0.659002D-02
     17  0.253734D-01  0.219794D-01  0.119428D-01 -0.724473D-03 -0.115144D-02
     18  0.848850D-02  0.414660D-01  0.183387D-01 -0.171314D-02  0.526757D-03
     19 -0.129588D-02  0.307038D-03 -0.455530D-03  0.487725D-02  0.850077D-02
     20 -0.113565D-02  0.190320D-03  0.504039D-03  0.757279D-02  0.582012D-02
     21 -0.107819D-02 -0.108760D-03 -0.279415D-03 -0.698806D-02 -0.459718D-02
     22 -0.917952D-03 -0.225478D-03  0.680154D-03 -0.429252D-02 -0.727783D-02
     23 -0.308229D-02  0.175973D-02 -0.325003D-03  0.570787D-03 -0.977108D-05
     24 -0.227724D-02  0.141087D-02  0.122137D-02 -0.152797D-02  0.197495D-02
     25  0.175629D-03  0.470164D-02 -0.110288D-02 -0.106548D-02  0.817787D-03
     26  0.980673D-03  0.435278D-02  0.443488D-03 -0.316424D-02  0.280250D-02
     27 -0.113551D-02 -0.255801D-02 -0.104570D-02  0.153586D-02 -0.112837D-02
     28 -0.370888D-03 -0.270051D-02  0.436905D-03 -0.449426D-03  0.761221D-03
               11            12            13            14            15 
     11  0.658419D-01
     12 -0.655229D-02  0.177687D+00
     13  0.310127D-02 -0.772924D-01  0.939763D-01
     14  0.256832D-02 -0.751818D-01 -0.242091D-01  0.874902D-01
     15  0.240736D-02 -0.408854D-02 -0.368117D-02  0.868891D-02  0.184885D+00
     16 -0.370477D-02  0.143339D-01 -0.510459D-02 -0.876549D-02 -0.101253D+00
     17  0.129561D-02 -0.102423D-01  0.877482D-02  0.820050D-04 -0.836395D-01
     18  0.872463D-03 -0.133036D-02 -0.212829D-02  0.264045D-02 -0.109883D-01
     19  0.464013D-02 -0.508215D-02  0.110586D-01 -0.785388D-02 -0.106467D-02
     20  0.426184D-02  0.499639D-02 -0.965066D-02  0.704516D-02  0.357071D-02
     21 -0.496710D-02 -0.269901D-02  0.874482D-02 -0.762240D-02  0.161416D-03
     22 -0.534539D-02  0.737953D-02 -0.119644D-01  0.727664D-02  0.479679D-02
     23 -0.269014D-03  0.520963D-02  0.967768D-02 -0.115772D-01 -0.280677D-02
     24  0.287187D-03  0.425359D-02  0.130483D-01 -0.132520D-01 -0.200193D-03
     25 -0.235246D-03 -0.713239D-04 -0.152501D-01  0.133943D-01 -0.286275D-02
     26  0.320955D-03 -0.102736D-02 -0.118795D-01  0.117195D-01 -0.256166D-03
     27 -0.199753D-03 -0.102391D-02 -0.335975D-02  0.362616D-02 -0.280160D-02
     28  0.323174D-03 -0.194017D-02 -0.141858D-03  0.201919D-02 -0.990458D-03
               16            17            18            19            20 
     16  0.208143D+00
     17 -0.106887D+00  0.190531D+00
     18 -0.105580D-01  0.215379D-01  0.168613D+00
     19  0.253662D-03  0.807832D-03  0.157049D-03  0.113226D-01
     20 -0.229971D-02 -0.127567D-02 -0.757170D-04  0.553104D-02  0.117848D-01
     21 -0.589395D-03  0.427022D-03 -0.188899D-03 -0.337950D-02 -0.862388D-02
     22 -0.314277D-02 -0.165648D-02 -0.421665D-03 -0.917109D-02 -0.237010D-02
     23  0.243803D-02  0.442435D-03  0.126763D-02 -0.807912D-03 -0.204610D-03
     24  0.157138D-02 -0.146133D-02  0.382803D-02  0.173163D-03  0.124670D-02
     25  0.388537D-02 -0.941389D-03  0.322091D-02 -0.222611D-02 -0.545021D-04
     26  0.301872D-02 -0.284515D-02  0.578131D-02 -0.124504D-02  0.139681D-02
     27  0.715667D-02 -0.428439D-02  0.359734D-02 -0.665421D-03 -0.434272D-03
     28  0.636622D-02 -0.546008D-02  0.609485D-02  0.267420D-03  0.927135D-03
               21            22            23            24            25 
     21  0.104575D-01
     22  0.521317D-02  0.120141D-01
     23 -0.831726D-03 -0.228424D-03  0.183156D-01
     24 -0.535738D-03  0.537797D-03 -0.452579D-02  0.234135D-01
     25 -0.179654D-02  0.375065D-03  0.100177D-01 -0.151589D-01  0.184373D-01
     26 -0.150056D-02  0.114129D-02 -0.128237D-01  0.127804D-01 -0.673926D-02
     27 -0.642823D-03 -0.411674D-03  0.916336D-02 -0.127363D-01  0.114865D-01
     28 -0.362232D-03  0.297483D-03 -0.124427D-01  0.136992D-01 -0.123321D-01
               26            27            28 
     26  0.188649D-01
     27 -0.104132D-01  0.143108D-01
     28  0.138098D-01 -0.641432D-02  0.183138D-01
 Leave Link  716 at Thu Sep  8 15:06:49 2022, MaxMem= 24159191040 cpu:         1.1
 (Enter /public/home/users/caep010/software/Gaussian09/g09/l103.exe)

 GradGradGradGradGradGradGradGradGradGradGradGradGradGradGradGradGradGrad
 Berny optimization.
 Red2BG is reusing G-inverse.
 Internal  Forces:  Max     0.000068595 RMS     0.000019965
 Search for a local minimum.
 Step number   1 out of a maximum of    2
 All quantities printed in internal units (Hartrees-Bohrs-Radians)
 Second derivative matrix not updated -- analytic derivatives used.
 ITU=  0
     Eigenvalues ---    0.00375   0.00709   0.00839   0.01495   0.03338
     Eigenvalues ---    0.07320   0.12158   0.15378   0.15748   0.21083
     Eigenvalues ---    0.22167   0.23184   0.28503   0.38947   0.41869
     Eigenvalues ---    0.43687   0.44356   0.45575   0.47449   0.52097
     Eigenvalues ---    0.92772
 Angle between quadratic step and forces=  72.79 degrees.
 Linear search not attempted -- first point.
 Iteration  1 RMS(Cart)=  0.00123961 RMS(Int)=  0.00000144
 Iteration  2 RMS(Cart)=  0.00000169 RMS(Int)=  0.00000035
 Iteration  3 RMS(Cart)=  0.00000000 RMS(Int)=  0.00000035
 ITry= 1 IFail=0 DXMaxC= 3.51D-03 DCOld= 1.00D+10 DXMaxT= 3.00D-01 DXLimC= 3.00D+00 Rises=F
 Variable       Old X    -DE/DX   Delta X   Delta X   Delta X     New X
                                 (Linear)    (Quad)   (Total)
    R1        2.65046   0.00005   0.00000   0.00042   0.00042   2.65088
    R2        1.92244   0.00002   0.00000   0.00010   0.00010   1.92253
    R3        1.91580   0.00001   0.00000   0.00004   0.00004   1.91584
    R4        2.64029   0.00002   0.00000   0.00020   0.00020   2.64049
    R5        1.92260   0.00001   0.00000   0.00009   0.00009   1.92269
    R6        2.26956   0.00007   0.00000   0.00007   0.00007   2.26963
    R7        2.58751   0.00002   0.00000  -0.00004  -0.00004   2.58747
    R8        1.82971   0.00003   0.00000   0.00006   0.00006   1.82977
    A1        1.94904  -0.00001   0.00000  -0.00024  -0.00024   1.94880
    A2        1.90088  -0.00002   0.00000  -0.00048  -0.00048   1.90040
    A3        1.91641   0.00001   0.00000  -0.00024  -0.00024   1.91617
    A4        2.04077  -0.00003   0.00000  -0.00054  -0.00055   2.04022
    A5        2.05043   0.00001   0.00000  -0.00035  -0.00035   2.05008
    A6        1.99897   0.00001   0.00000  -0.00057  -0.00058   1.99840
    A7        2.20795  -0.00000   0.00000  -0.00001  -0.00001   2.20793
    A8        1.94855  -0.00001   0.00000  -0.00005  -0.00005   1.94849
    A9        2.12669   0.00001   0.00000   0.00006   0.00006   2.12675
   A10        1.92046  -0.00000   0.00000  -0.00014  -0.00014   1.92031
    D1       -1.62391   0.00000   0.00000   0.00276   0.00276  -1.62115
    D2        0.85628  -0.00001   0.00000   0.00034   0.00034   0.85662
    D3        2.53988   0.00002   0.00000   0.00354   0.00354   2.54341
    D4       -1.26312   0.00001   0.00000   0.00112   0.00112  -1.26200
    D5       -0.03697   0.00000   0.00000   0.00022   0.00022  -0.03675
    D6        3.10829  -0.00001   0.00000   0.00010   0.00011   3.10840
    D7       -2.53632   0.00001   0.00000   0.00248   0.00248  -2.53384
    D8        0.60895   0.00001   0.00000   0.00237   0.00237   0.61131
    D9        0.35319  -0.00000   0.00000  -0.00030  -0.00030   0.35289
   D10       -2.78493  -0.00001   0.00000  -0.00041  -0.00041  -2.78534
         Item               Value     Threshold  Converged?
 Maximum Force            0.000069     0.000450     YES
 RMS     Force            0.000020     0.000300     YES
 Maximum Displacement     0.003509     0.001800     NO 
 RMS     Displacement     0.001240     0.001200     NO 
 Predicted change in Energy=-9.235366D-08
 GradGradGradGradGradGradGradGradGradGradGradGradGradGradGradGradGradGrad

 Leave Link  103 at Thu Sep  8 15:06:49 2022, MaxMem= 24159191040 cpu:         1.1
 (Enter /public/home/users/caep010/software/Gaussian09/g09/l9999.exe)
 1\1\GINC-B0854\Freq\RB3LYP\6-31G(d,p)\C1H4N2O2\ROOT\08-Sep-2022\0\\#P 
 Geom=AllCheck Guess=TCheck SCRF=Check GenChk RB3LYP/6-31G(d,p) Freq\\F
 rag_643\\0,1\N,1.5096422976,0.060347212,-0.0452611491\N,0.1713633612,-
 0.3262443689,0.1182634298\C,-0.7930596972,0.6811912387,0.0341237324\O,
 -0.5893558079,1.8534381534,-0.1294159124\O,-2.0601866111,0.1796754568,
 0.1672159299\H,1.8112016004,-0.0297767199,-1.0126589028\H,2.0931858425
 ,-0.5151768503,0.5514265354\H,-0.112312464,-1.2171724507,-0.2828273724
 \H,-2.0304765215,-0.6863816711,0.5991327092\\Version=ES64L-G09RevE.01\
 State=1-A\HF=-300.4405809\RMSD=3.092e-09\RMSF=2.587e-05\ZeroPoint=0.06
 81027\Thermal=0.073575\Dipole=0.5903598,-2.2289092,-0.1128528\DipoleDe
 riv=-0.0946724,-0.0886138,-0.077496,-0.0606036,-0.3759583,-0.1319312,0
 .0381084,-0.119477,-0.0175477,-0.3636571,0.428598,0.1038933,0.3594328,
 -0.5267196,0.2093958,-0.1602801,0.3191778,-0.4056537,1.8156197,-0.0095
 375,-0.2057689,-0.2367993,1.8286133,-0.1626971,-0.1478454,-0.1990118,0
 .421062,-0.5843145,-0.0549496,0.0586226,0.0610628,-1.1539292,0.0850534
 ,0.0621837,0.0991006,-0.3833223,-1.2017362,-0.3298701,0.1764364,-0.262
 3805,-0.4699107,-0.0521387,0.0885501,-0.0611158,-0.3718994,0.0364112,0
 .0229075,0.01566,0.0622128,0.2589957,-0.0786695,0.0738583,-0.0103878,0
 .0228193,0.085609,0.0333692,0.0115541,0.137155,0.1749713,0.1246027,0.0
 434354,0.0688638,0.1675505,-0.0418381,-0.0827984,-0.0224616,-0.0976199
 ,0.0976662,-0.0544091,0.0207356,-0.1818661,0.2610978,0.3485784,0.08089
 47,-0.0604398,0.03754,0.1662714,0.0607938,-0.0187458,0.0847163,0.30589
 34\Polar=37.0579315,-0.1204199,33.6102327,-1.5991008,-2.5507386,20.133
 3213\PG=C01 [X(C1H4N2O2)]\NImag=0\\0.55891181,-0.10817730,0.23934865,0
 .01385953,-0.13444511,0.66096714,-0.24590753,-0.01707533,0.04584573,0.
 63377292,-0.06305145,-0.08752757,0.01703338,0.01075611,0.67011697,0.00
 075450,-0.00083403,-0.07294259,-0.00371813,0.14531330,0.14953417,-0.04
 663194,0.01867952,-0.00865661,-0.18053804,0.06810210,0.01699454,0.5731
 7008,-0.00229393,0.01053455,0.00577331,0.07539953,-0.19485227,-0.01800
 997,0.07866772,1.10081878,0.00867124,0.00186094,-0.00894879,-0.0201924
 2,0.01273047,-0.05384601,-0.03369097,-0.11550594,0.23359350,0.00289310
 ,0.00449187,-0.00164531,0.01244761,0.03076049,-0.00271314,-0.12231974,
 -0.10575187,0.01621430,0.12876577,-0.00549737,0.00377609,-0.00257166,0
 .01274901,-0.07651916,0.01407004,-0.10102486,-0.75238999,0.09067799,0.
 13406755,0.86677576,-0.00137269,-0.00052931,-0.00029408,0.00246954,0.0
 0759354,0.02151725,0.01348688,0.09093602,-0.09524027,-0.02432861,-0.11
 362362,0.05199831,-0.00134292,0.00627609,0.00034884,-0.06645236,-0.004
 23438,-0.00204212,-0.24277507,-0.00609863,-0.00393204,-0.01168018,-0.0
 4583870,0.01291841,0.37477040,0.00431262,-0.00076008,0.00190188,0.0184
 0823,0.01758253,-0.00513439,-0.05542493,-0.11624835,0.01860138,-0.0642
 0566,-0.04391442,0.01281289,0.05072565,0.53926381,-0.00025903,-0.00138
 111,0.00811609,0.00078017,0.00093961,0.01143494,0.02565674,0.01777660,
 -0.06375603,0.01259918,0.01324566,0.01391179,-0.01434524,-0.23219133,0
 .13761910,-0.08162280,0.01170254,0.07955072,-0.03117305,0.00562390,0.0
 3753985,0.00111804,-0.00865599,0.00555087,0.00086841,0.00264467,-0.000
 92231,-0.00234041,0.00048845,-0.00187158,0.10218382,0.02913686,-0.0141
 5302,-0.06225493,-0.01514045,-0.00698324,0.01152903,0.00168890,0.00401
 250,-0.00373378,-0.00104727,-0.00131176,0.00164412,0.00052018,-0.00072
 476,0.00022465,-0.00947348,0.02233612,0.08997082,-0.01003835,-0.398248
 40,0.00224079,-0.00352925,0.00790927,0.00003396,0.00072514,-0.00015825
 ,0.00019421,-0.00026261,-0.00034377,-0.00027893,-0.00009649,-0.0001792
 8,-0.09845987,0.02456901,0.41012014,-0.16304922,0.11412451,-0.11611610
 ,-0.03710311,0.02388250,-0.01457145,-0.00367376,-0.00667627,-0.0025620
 6,0.00093554,0.00061372,-0.00016321,-0.00232700,0.00116576,0.00121516,
 0.00896256,-0.00571676,0.00722915,0.19636263,0.15534398,-0.14982893,0.
 17534293,-0.02325707,0.00176595,-0.01089443,0.00032711,-0.00292002,0.0
 0084785,0.00148920,0.00075773,-0.00063756,-0.00019946,0.00001606,0.000
 50448,-0.00333531,-0.00370236,-0.01114904,-0.12817879,0.15282389,-0.11
 320435,0.13551403,-0.18786695,0.00514408,-0.00767338,0.00850680,0.0018
 7118,0.00073273,0.00132940,0.00047875,-0.00087508,-0.00023551,0.001443
 37,-0.00057962,-0.00048365,-0.02238130,0.02403585,-0.02078811,0.127028
 16,-0.15204996,0.20010031,-0.02404074,-0.03081100,-0.01218139,-0.08264
 431,-0.07482720,-0.03077957,0.01551612,0.01918923,0.01024185,-0.003638
 83,0.00559028,-0.00220934,-0.00252516,-0.00191082,-0.00106811,0.001346
 74,0.00006999,-0.00091795,-0.00015516,-0.00188098,-0.00008240,0.098158
 59,-0.00904035,-0.00093050,0.00060192,-0.06854810,-0.32465205,-0.13671
 897,-0.01173429,-0.02646948,-0.01156624,0.00458944,-0.00016342,0.00070
 154,-0.00069494,0.00327645,0.00326039,0.00038663,0.00052971,-0.0001339
 1,0.00059183,0.00084591,0.00082358,0.08352320,0.34698072,0.00269464,0.
 01053332,0.00005794,-0.03245838,-0.17189894,-0.07229452,-0.01035240,0.
 01232836,-0.00687534,-0.00066817,0.00107332,0.00361925,0.00359141,0.00
 227792,-0.00107969,0.00089724,0.00383780,0.00172975,-0.00178548,-0.002
 06498,-0.00085378,0.03477045,0.14469257,0.07596961,0.00079024,0.000789
 10,-0.00100541,-0.00240213,0.00298793,-0.00146450,0.00613430,-0.043779
 78,0.01969924,-0.00827167,-0.00330429,0.00012134,-0.04532729,0.0464406
 9,-0.02270729,0.00065671,-0.00003797,-0.00001217,0.00004752,-0.0003086
 8,-0.00029749,-0.00201725,0.00092658,0.00331070,0.05038956,-0.00073307
 ,-0.00045918,-0.00138172,0.00670807,0.00106884,0.00067942,0.00071874,-
 0.02248571,0.00608733,-0.00439375,0.00298917,0.00110238,-0.00045579,-0
 .39849124,0.19762104,0.00061858,-0.00000319,-0.00008450,0.00019351,0.0
 0024177,0.00007185,0.00105729,0.00058266,-0.00077936,-0.00371358,0.416
 55687,-0.00111466,-0.00068039,-0.00084036,-0.00011137,-0.00050873,0.00
 018069,-0.00534332,0.00524376,-0.00609821,-0.00013121,-0.00173405,0.00
 506703,0.00229631,0.20240777,-0.10558327,0.00009639,0.00014824,-0.0000
 4135,-0.00027416,0.00010071,0.00029150,0.00222646,-0.00166088,-0.00027
 323,0.00235557,-0.20331643,0.10729721\\-0.00004342,-0.00005657,-0.0000
 0523,0.00003144,0.00004715,-0.00003827,0.00000334,0.00003217,-0.000003
 71,-0.00001349,-0.00006474,0.00002167,0.00001889,-0.00001686,0.0000059
 1,0.00000178,0.00000441,0.00001736,0.00000349,0.00001785,-0.00000130,0
 .00000139,0.00000998,0.00001224,-0.00000343,0.00002661,-0.00000868\\\@


 THEREFORE SHALL EVIL COME UPON THEE...
 THOU SHALT NOT KNOW FROM WHENCE IT RISETH...
 AND MISCHIEF SHALL FALL UPON THEE...
 THOU SHALT NOT BE ABLE TO PUT IT OFF...
 AND DESOLATION SHALL COME UPON THEE SUDDENLY...
 WHICH THOU SHALT NOT KNOW...

                                         ISAIAH 47.11
 Job cpu time:       0 days  0 hours  3 minutes 10.8 seconds.
 File lengths (MBytes):  RWF=     13 Int=      0 D2E=      0 Chk=      2 Scr=      1
 Normal termination of Gaussian 09 at Thu Sep  8 15:06:49 2022.
