 Entering Gaussian System, Link 0=g09
 Input=B3LYP6-31Gxx.Frag_361.gjf
 Output=B3LYP6-31Gxx.Frag_361.log
 Initial command:
 /public/home/users/caep010/software/Gaussian09/g09/l1.exe "/public/home/users/caep010/.cache/gau_scr/Gau-180425.inp" -scrdir="/public/home/users/caep010/.cache/gau_scr/"
 Entering Link 1 = /public/home/users/caep010/software/Gaussian09/g09/l1.exe PID=    180426.
  
 Copyright (c) 1988,1990,1992,1993,1995,1998,2003,2009,2015,
            Gaussian, Inc.  All Rights Reserved.
  
 This is part of the Gaussian(R) 09 program.  It is based on
 the Gaussian(R) 03 system (copyright 2003, Gaussian, Inc.),
 the Gaussian(R) 98 system (copyright 1998, Gaussian, Inc.),
 the Gaussian(R) 94 system (copyright 1995, Gaussian, Inc.),
 the Gaussian 92(TM) system (copyright 1992, Gaussian, Inc.),
 the Gaussian 90(TM) system (copyright 1990, Gaussian, Inc.),
 the Gaussian 88(TM) system (copyright 1988, Gaussian, Inc.),
 the Gaussian 86(TM) system (copyright 1986, Carnegie Mellon
 University), and the Gaussian 82(TM) system (copyright 1983,
 Carnegie Mellon University). Gaussian is a federally registered
 trademark of Gaussian, Inc.
  
 This software contains proprietary and confidential information,
 including trade secrets, belonging to Gaussian, Inc.
  
 This software is provided under written license and may be
 used, copied, transmitted, or stored only in accord with that
 written license.
  
 The following legend is applicable only to US Government
 contracts under FAR:
  
                    RESTRICTED RIGHTS LEGEND
  
 Use, reproduction and disclosure by the US Government is
 subject to restrictions as set forth in subparagraphs (a)
 and (c) of the Commercial Computer Software - Restricted
 Rights clause in FAR 52.227-19.
  
 Gaussian, Inc.
 340 Quinnipiac St., Bldg. 40, Wallingford CT 06492
  
  
 ---------------------------------------------------------------
 Warning -- This program may not be used in any manner that
 competes with the business of Gaussian, Inc. or will provide
 assistance to any competitor of Gaussian, Inc.  The licensee
 of this program is prohibited from giving any competitor of
 Gaussian, Inc. access to this program.  By using this program,
 the user acknowledges that Gaussian, Inc. is engaged in the
 business of creating and licensing software in the field of
 computational chemistry and represents and warrants to the
 licensee that it is not a competitor of Gaussian, Inc. and that
 it will not use this program in any manner prohibited above.
 ---------------------------------------------------------------
  

 Cite this work as:
 Gaussian 09, Revision E.01,
 M. J. Frisch, G. W. Trucks, H. B. Schlegel, G. E. Scuseria, 
 M. A. Robb, J. R. Cheeseman, G. Scalmani, V. Barone, B. Mennucci, 
 G. A. Petersson, H. Nakatsuji, M. Caricato, X. Li, H. P. Hratchian, 
 A. F. Izmaylov, J. Bloino, G. Zheng, J. L. Sonnenberg, M. Hada, 
 M. Ehara, K. Toyota, R. Fukuda, J. Hasegawa, M. Ishida, T. Nakajima, 
 Y. Honda, O. Kitao, H. Nakai, T. Vreven, J. A. Montgomery, Jr., 
 J. E. Peralta, F. Ogliaro, M. Bearpark, J. J. Heyd, E. Brothers, 
 K. N. Kudin, V. N. Staroverov, T. Keith, R. Kobayashi, J. Normand, 
 K. Raghavachari, A. Rendell, J. C. Burant, S. S. Iyengar, J. Tomasi, 
 M. Cossi, N. Rega, J. M. Millam, M. Klene, J. E. Knox, J. B. Cross, 
 V. Bakken, C. Adamo, J. Jaramillo, R. Gomperts, R. E. Stratmann, 
 O. Yazyev, A. J. Austin, R. Cammi, C. Pomelli, J. W. Ochterski, 
 R. L. Martin, K. Morokuma, V. G. Zakrzewski, G. A. Voth, 
 P. Salvador, J. J. Dannenberg, S. Dapprich, A. D. Daniels, 
 O. Farkas, J. B. Foresman, J. V. Ortiz, J. Cioslowski, 
 and D. J. Fox, Gaussian, Inc., Wallingford CT, 2013.
 
 ******************************************
 Gaussian 09:  ES64L-G09RevE.01 30-Nov-2015
                10-Sep-2021 
 ******************************************
 %nproc=32
 Will use up to   32 processors via shared memory.
 %mem=180GB
 --------------------------------
 #P OPT=calcfc Freq B3LYP/6-31G**
 --------------------------------
 1/10=4,14=-1,18=20,19=15,26=3,38=1/1,3;
 2/9=110,12=2,17=6,18=5,40=1/2;
 3/5=1,6=6,7=101,11=2,16=1,25=1,30=1,71=2,74=-5,140=1/1,2,3;
 4//1;
 5/5=2,38=5/2;
 8/6=4,10=90,11=11/1;
 11/6=1,8=1,9=11,15=111,16=1/1,2,10;
 10/6=1,13=1/2;
 6/7=2,8=2,9=2,10=2,28=1/1;
 7/10=1,18=20,25=1/1,2,3,16;
 1/10=4,14=-1,18=20,19=15,26=3/3(2);
 2/9=110/2;
 99//99;
 2/9=110/2;
 3/5=1,6=6,7=101,11=2,16=1,25=1,30=1,71=1,74=-5/1,2,3;
 4/5=5,16=3,69=1/1;
 5/5=2,38=5/2;
 7//1,2,3,16;
 1/14=-1,18=20,19=15,26=3/3(-5);
 2/9=110/2;
 6/7=2,8=2,9=2,10=2,19=2,28=1/1;
 99/9=1/99;
 Leave Link    1 at Fri Sep 10 15:27:22 2021, MaxMem= 24159191040 cpu:         3.2
 (Enter /public/home/users/caep010/software/Gaussian09/g09/l101.exe)
 --------
 Frag_361
 --------
 Symbolic Z-matrix:
 Charge =  0 Multiplicity = 1
 C                     1.6825   -0.4236   -0.6884 
 C                     0.806     0.5338   -0.3848 
 N                    -0.4849    0.2589    0.1882 
 N                    -0.9218   -1.0483    0.4728 
 N                    -1.3341    1.3388    0.4708 
 H                     2.6396   -0.1575   -1.1179 
 H                     1.4724   -1.4705   -0.5202 
 H                     1.0817    1.5632   -0.5797 
 H                    -0.2435   -1.4785    1.142 
 H                    -0.9111   -1.5951   -0.4181 
 H                    -1.5629    1.2972    1.4899 
 H                    -2.2239    1.1817   -0.0547 
 
 NAtoms=     12 NQM=       12 NQMF=       0 NMMI=      0 NMMIF=      0
                NMic=       0 NMicF=      0.
                    Isotopes and Nuclear Properties:
 (Nuclear quadrupole moments (NQMom) in fm**2, nuclear magnetic moments (NMagM)
  in nuclear magnetons)

  Atom         1           2           3           4           5           6           7           8           9          10
 IAtWgt=          12          12          14          14          14           1           1           1           1           1
 AtmWgt=  12.0000000  12.0000000  14.0030740  14.0030740  14.0030740   1.0078250   1.0078250   1.0078250   1.0078250   1.0078250
 NucSpn=           0           0           2           2           2           1           1           1           1           1
 AtZEff=   0.0000000   0.0000000   0.0000000   0.0000000   0.0000000   0.0000000   0.0000000   0.0000000   0.0000000   0.0000000
 NQMom=    0.0000000   0.0000000   2.0440000   2.0440000   2.0440000   0.0000000   0.0000000   0.0000000   0.0000000   0.0000000
 NMagM=    0.0000000   0.0000000   0.4037610   0.4037610   0.4037610   2.7928460   2.7928460   2.7928460   2.7928460   2.7928460
 AtZNuc=   6.0000000   6.0000000   7.0000000   7.0000000   7.0000000   1.0000000   1.0000000   1.0000000   1.0000000   1.0000000

  Atom        11          12
 IAtWgt=           1           1
 AtmWgt=   1.0078250   1.0078250
 NucSpn=           1           1
 AtZEff=   0.0000000   0.0000000
 NQMom=    0.0000000   0.0000000
 NMagM=    2.7928460   2.7928460
 AtZNuc=   1.0000000   1.0000000
 Leave Link  101 at Fri Sep 10 15:27:22 2021, MaxMem= 24159191040 cpu:        10.5
 (Enter /public/home/users/caep010/software/Gaussian09/g09/l103.exe)

 GradGradGradGradGradGradGradGradGradGradGradGradGradGradGradGradGradGrad
 Berny optimization.
 Initialization pass.
                           ----------------------------
                           !    Initial Parameters    !
                           ! (Angstroms and Degrees)  !
 --------------------------                            --------------------------
 ! Name  Definition              Value          Derivative Info.                !
 --------------------------------------------------------------------------------
 ! R1    R(1,2)                  1.3331         calculate D2E/DX2 analytically  !
 ! R2    R(1,6)                  1.0823         calculate D2E/DX2 analytically  !
 ! R3    R(1,7)                  1.0809         calculate D2E/DX2 analytically  !
 ! R4    R(2,3)                  1.4389         calculate D2E/DX2 analytically  !
 ! R5    R(2,8)                  1.0834         calculate D2E/DX2 analytically  !
 ! R6    R(3,4)                  1.4074         calculate D2E/DX2 analytically  !
 ! R7    R(3,5)                  1.4026         calculate D2E/DX2 analytically  !
 ! R8    R(4,9)                  1.0455         calculate D2E/DX2 analytically  !
 ! R9    R(4,10)                 1.0454         calculate D2E/DX2 analytically  !
 ! R10   R(5,11)                 1.0453         calculate D2E/DX2 analytically  !
 ! R11   R(5,12)                 1.0453         calculate D2E/DX2 analytically  !
 ! A1    A(2,1,6)              119.687          calculate D2E/DX2 analytically  !
 ! A2    A(2,1,7)              122.164          calculate D2E/DX2 analytically  !
 ! A3    A(6,1,7)              118.1491         calculate D2E/DX2 analytically  !
 ! A4    A(1,2,3)              122.914          calculate D2E/DX2 analytically  !
 ! A5    A(1,2,8)              118.3026         calculate D2E/DX2 analytically  !
 ! A6    A(3,2,8)              118.7834         calculate D2E/DX2 analytically  !
 ! A7    A(2,3,4)              122.4461         calculate D2E/DX2 analytically  !
 ! A8    A(2,3,5)              118.4466         calculate D2E/DX2 analytically  !
 ! A9    A(4,3,5)              119.1073         calculate D2E/DX2 analytically  !
 ! A10   A(3,4,9)              108.0735         calculate D2E/DX2 analytically  !
 ! A11   A(3,4,10)             108.0787         calculate D2E/DX2 analytically  !
 ! A12   A(9,4,10)             108.8828         calculate D2E/DX2 analytically  !
 ! A13   A(3,5,11)             107.3569         calculate D2E/DX2 analytically  !
 ! A14   A(3,5,12)             107.3611         calculate D2E/DX2 analytically  !
 ! A15   A(11,5,12)            107.3275         calculate D2E/DX2 analytically  !
 ! D1    D(6,1,2,3)            179.9992         calculate D2E/DX2 analytically  !
 ! D2    D(6,1,2,8)              0.0001         calculate D2E/DX2 analytically  !
 ! D3    D(7,1,2,3)             -0.0048         calculate D2E/DX2 analytically  !
 ! D4    D(7,1,2,8)            179.9961         calculate D2E/DX2 analytically  !
 ! D5    D(1,2,3,4)             -0.0011         calculate D2E/DX2 analytically  !
 ! D6    D(1,2,3,5)           -179.9929         calculate D2E/DX2 analytically  !
 ! D7    D(8,2,3,4)            179.9981         calculate D2E/DX2 analytically  !
 ! D8    D(8,2,3,5)              0.0062         calculate D2E/DX2 analytically  !
 ! D9    D(2,3,4,9)             58.849          calculate D2E/DX2 analytically  !
 ! D10   D(2,3,4,10)           -58.8379         calculate D2E/DX2 analytically  !
 ! D11   D(5,3,4,9)           -121.1592         calculate D2E/DX2 analytically  !
 ! D12   D(5,3,4,10)           121.1539         calculate D2E/DX2 analytically  !
 ! D13   D(2,3,5,11)          -122.4364         calculate D2E/DX2 analytically  !
 ! D14   D(2,3,5,12)           122.435          calculate D2E/DX2 analytically  !
 ! D15   D(4,3,5,11)            57.5715         calculate D2E/DX2 analytically  !
 ! D16   D(4,3,5,12)           -57.5572         calculate D2E/DX2 analytically  !
 --------------------------------------------------------------------------------
 Trust Radius=3.00D-01 FncErr=1.00D-07 GrdErr=1.00D-06
 Number of steps in this run=     52 maximum allowed number of steps=    100.
 GradGradGradGradGradGradGradGradGradGradGradGradGradGradGradGradGradGrad

 Leave Link  103 at Fri Sep 10 15:27:22 2021, MaxMem= 24159191040 cpu:         0.3
 (Enter /public/home/users/caep010/software/Gaussian09/g09/l202.exe)
                          Input orientation:                          
 ---------------------------------------------------------------------
 Center     Atomic      Atomic             Coordinates (Angstroms)
 Number     Number       Type             X           Y           Z
 ---------------------------------------------------------------------
      1          6           0        1.682500   -0.423600   -0.688400
      2          6           0        0.806000    0.533800   -0.384800
      3          7           0       -0.484900    0.258900    0.188200
      4          7           0       -0.921800   -1.048300    0.472800
      5          7           0       -1.334100    1.338800    0.470800
      6          1           0        2.639600   -0.157500   -1.117900
      7          1           0        1.472400   -1.470500   -0.520200
      8          1           0        1.081700    1.563200   -0.579700
      9          1           0       -0.243500   -1.478500    1.142000
     10          1           0       -0.911100   -1.595100   -0.418100
     11          1           0       -1.562900    1.297200    1.489900
     12          1           0       -2.223900    1.181700   -0.054700
 ---------------------------------------------------------------------
                    Distance matrix (angstroms):
                    1          2          3          4          5
     1  C    0.000000
     2  C    1.333057   0.000000
     3  N    2.435540   1.438861   0.000000
     4  N    2.919078   2.494757   1.407356   0.000000
     5  N    3.680988   2.441332   1.402565   2.422445   0.000000
     6  H    1.082275   2.092229   3.412006   4.000928   4.533561
     7  H    1.080941   2.116516   2.706230   2.626118   4.092761
     8  H    2.078497   1.083356   2.178326   3.455677   2.643860
     9  H    2.858785   2.735310   1.996639   1.045462   3.094689
    10  H    2.858712   2.735280   1.996638   1.045374   3.094647
    11  H    4.270687   3.115922   1.983576   2.635692   1.045297
    12  H    4.270659   3.115932   1.983603   2.635644   1.045263
                    6          7          8          9         10
     6  H    0.000000
     7  H    1.855686   0.000000
     8  H    2.382755   3.059334   0.000000
     9  H    3.894156   2.388993   3.737960   0.000000
    10  H    3.894083   2.388937   3.737944   1.700940   0.000000
    11  H    5.155364   4.573151   3.368666   3.092953   3.525721
    12  H    5.155335   4.573127   3.368703   3.525725   3.092915
                   11         12
    11  H    0.000000
    12  H    1.684058   0.000000
 Stoichiometry    C2H7N3
 Framework group  C1[X(C2H7N3)]
 Deg. of freedom    30
 Full point group                 C1      NOp   1
 Largest Abelian subgroup         C1      NOp   1
 Largest concise Abelian subgroup C1      NOp   1
                         Standard orientation:                         
 ---------------------------------------------------------------------
 Center     Atomic      Atomic             Coordinates (Angstroms)
 Number     Number       Type             X           Y           Z
 ---------------------------------------------------------------------
      1          6           0       -1.990944   -0.089621   -0.000032
      2          6           0       -0.817365   -0.721880    0.000029
      3          7           0        0.443849   -0.029304    0.000049
      4          7           0        0.534017    1.375161   -0.000017
      5          7           0        1.623053   -0.788688   -0.000037
      6          1           0       -2.908769   -0.663135   -0.000057
      7          1           0       -2.063537    0.988879    0.000005
      8          1           0       -0.817566   -1.805236    0.000052
      9          1           0        0.041687    1.731817    0.850512
     10          1           0        0.041660    1.731802   -0.850428
     11          1           0        2.174983   -0.507678    0.842015
     12          1           0        2.174966   -0.507629   -0.842042
 ---------------------------------------------------------------------
 Rotational constants (GHZ):      9.0735910      4.0390358      2.8870982
 Leave Link  202 at Fri Sep 10 15:27:23 2021, MaxMem= 24159191040 cpu:         0.4
 (Enter /public/home/users/caep010/software/Gaussian09/g09/l301.exe)
 Standard basis: 6-31G(d,p) (6D, 7F)
 Ernie: Thresh=  0.10000D-02 Tol=  0.10000D-05 Strict=F.
 There are   110 symmetry adapted cartesian basis functions of A   symmetry.
 There are   110 symmetry adapted basis functions of A   symmetry.
   110 basis functions,   189 primitive gaussians,   110 cartesian basis functions
    20 alpha electrons       20 beta electrons
       nuclear repulsion energy       180.7651839687 Hartrees.
 IExCor=  402 DFT=T Ex+Corr=B3LYP ExCW=0 ScaHFX=  0.200000
 ScaDFX=  0.800000  0.720000  1.000000  0.810000 ScalE2=  1.000000  1.000000
 IRadAn=      0 IRanWt=     -1 IRanGd=            0 ICorTp=0 IEmpDi=  4
 NAtoms=   12 NActive=   12 NUniq=   12 SFac= 1.00D+00 NAtFMM=   60 NAOKFM=F Big=F
 Integral buffers will be    131072 words long.
 Raffenetti 2 integral format.
 Two-electron integral symmetry is turned on.
 Leave Link  301 at Fri Sep 10 15:27:23 2021, MaxMem= 24159191040 cpu:         2.0
 (Enter /public/home/users/caep010/software/Gaussian09/g09/l302.exe)
 NPDir=0 NMtPBC=     1 NCelOv=     1 NCel=       1 NClECP=     1 NCelD=      1
         NCelK=      1 NCelE2=     1 NClLst=     1 CellRange=     0.0.
 One-electron integrals computed using PRISM.
 NBasis=   110 RedAO= T EigKep=  3.33D-03  NBF=   110
 NBsUse=   110 1.00D-06 EigRej= -1.00D+00 NBFU=   110
 Precomputing XC quadrature grid using
 IXCGrd= 4 IRadAn=           0 IRanWt=          -1 IRanGd=           0 AccXCQ= 0.00D+00.
 Generated NRdTot=       0 NPtTot=           0 NUsed=           0 NTot=          32
 NSgBfM=   110   110   110   110   110 MxSgAt=    12 MxSgA2=    12.
 Leave Link  302 at Fri Sep 10 15:27:23 2021, MaxMem= 24159191040 cpu:        10.6
 (Enter /public/home/users/caep010/software/Gaussian09/g09/l303.exe)
 DipDrv:  MaxL=1.
 Leave Link  303 at Fri Sep 10 15:27:23 2021, MaxMem= 24159191040 cpu:         0.7
 (Enter /public/home/users/caep010/software/Gaussian09/g09/l401.exe)
 ExpMin= 1.61D-01 ExpMax= 4.17D+03 ExpMxC= 6.27D+02 IAcc=1 IRadAn=         1 AccDes= 0.00D+00
 Harris functional with IExCor=  402 and IRadAn=       1 diagonalized for initial guess.
 HarFok:  IExCor=  402 AccDes= 0.00D+00 IRadAn=         1 IDoV= 1 UseB2=F ITyADJ=14
 ICtDFT=  3500011 ScaDFX=  1.000000  1.000000  1.000000  1.000000
 FoFCou: FMM=F IPFlag=           0 FMFlag=      100000 FMFlg1=           0
         NFxFlg=           0 DoJE=T BraDBF=F KetDBF=T FulRan=T
         wScrn=  0.000000 ICntrl=     500 IOpCl=  0 I1Cent=   200000004 NGrid=           0
         NMat0=    1 NMatS0=      1 NMatT0=    0 NMatD0=    1 NMtDS0=    0 NMtDT0=    0
 Petite list used in FoFCou.
 Harris En= -244.598670924285    
 JPrj=0 DoOrth=F DoCkMO=F.
 Leave Link  401 at Fri Sep 10 15:27:24 2021, MaxMem= 24159191040 cpu:        14.3
 (Enter /public/home/users/caep010/software/Gaussian09/g09/l502.exe)
 Closed shell SCF:
 Using DIIS extrapolation, IDIIS=  1040.
 Integral symmetry usage will be decided dynamically.
 Keep R1 ints in memory in canonical form, NReq=19629370.
 IVT=       59205 IEndB=       59205 NGot= 24159191040 MDV= 24140493271
 LenX= 24140493271 LenY= 24140480730
 Requested convergence on RMS density matrix=1.00D-08 within 128 cycles.
 Requested convergence on MAX density matrix=1.00D-06.
 Requested convergence on             energy=1.00D-06.
 No special actions if energy rises.
 FoFCou: FMM=F IPFlag=           0 FMFlag=           0 FMFlg1=           0
         NFxFlg=           0 DoJE=F BraDBF=F KetDBF=F FulRan=T
         wScrn=  0.000000 ICntrl=     600 IOpCl=  0 I1Cent=           0 NGrid=           0
         NMat0=    1 NMatS0=   6105 NMatT0=    0 NMatD0=    1 NMtDS0=    0 NMtDT0=    0
 Symmetry not used in FoFCou.
 Integral accuracy reduced to 1.0D-05 until final iterations.

 Cycle   1  Pass 0  IDiag  1:
 E= -244.411272743313    
 DIIS: error= 4.03D-02 at cycle   1 NSaved=   1.
 NSaved= 1 IEnMin= 1 EnMin= -244.411272743313     IErMin= 1 ErrMin= 4.03D-02
 ErrMax= 4.03D-02  0.00D+00 EMaxC= 1.00D-01 BMatC= 1.77D-01 BMatP= 1.77D-01
 IDIUse=3 WtCom= 5.97D-01 WtEn= 4.03D-01
 Coeff-Com:  0.100D+01
 Coeff-En:   0.100D+01
 Coeff:      0.100D+01
 Gap=     0.301 Goal=   None    Shift=    0.000
 GapD=    0.301 DampG=1.000 DampE=0.500 DampFc=0.5000 IDamp=-1.
 Damping current iteration by 5.00D-01
 RMSDP=8.03D-03 MaxDP=2.25D-01              OVMax= 3.46D-01

 Cycle   2  Pass 0  IDiag  1:
 E= -244.481739855511     Delta-E=       -0.070467112198 Rises=F Damp=T
 DIIS: error= 1.03D-02 at cycle   2 NSaved=   2.
 NSaved= 2 IEnMin= 2 EnMin= -244.481739855511     IErMin= 2 ErrMin= 1.03D-02
 ErrMax= 1.03D-02  0.00D+00 EMaxC= 1.00D-01 BMatC= 1.62D-02 BMatP= 1.77D-01
 IDIUse=3 WtCom= 8.97D-01 WtEn= 1.03D-01
 Coeff-Com:  0.144D+00 0.856D+00
 Coeff-En:   0.223D+00 0.777D+00
 Coeff:      0.152D+00 0.848D+00
 Gap=     0.248 Goal=   None    Shift=    0.000
 RMSDP=1.96D-03 MaxDP=4.23D-02 DE=-7.05D-02 OVMax= 2.37D-01

 Cycle   3  Pass 0  IDiag  1:
 E= -244.578582111342     Delta-E=       -0.096842255830 Rises=F Damp=F
 DIIS: error= 8.72D-03 at cycle   3 NSaved=   3.
 NSaved= 3 IEnMin= 3 EnMin= -244.578582111342     IErMin= 3 ErrMin= 8.72D-03
 ErrMax= 8.72D-03  0.00D+00 EMaxC= 1.00D-01 BMatC= 1.08D-02 BMatP= 1.62D-02
 IDIUse=3 WtCom= 9.13D-01 WtEn= 8.72D-02
 Coeff-Com:  0.441D-01 0.438D+00 0.518D+00
 Coeff-En:   0.000D+00 0.000D+00 0.100D+01
 Coeff:      0.403D-01 0.400D+00 0.560D+00
 Gap=     0.258 Goal=   None    Shift=    0.000
 RMSDP=1.37D-03 MaxDP=3.42D-02 DE=-9.68D-02 OVMax= 7.06D-02

 Cycle   4  Pass 0  IDiag  1:
 E= -244.586713069353     Delta-E=       -0.008130958012 Rises=F Damp=F
 DIIS: error= 5.15D-03 at cycle   4 NSaved=   4.
 NSaved= 4 IEnMin= 4 EnMin= -244.586713069353     IErMin= 4 ErrMin= 5.15D-03
 ErrMax= 5.15D-03  0.00D+00 EMaxC= 1.00D-01 BMatC= 2.59D-03 BMatP= 1.08D-02
 IDIUse=3 WtCom= 9.48D-01 WtEn= 5.15D-02
 Coeff-Com:  0.116D-01 0.200D-01 0.323D+00 0.645D+00
 Coeff-En:   0.000D+00 0.000D+00 0.227D+00 0.773D+00
 Coeff:      0.110D-01 0.190D-01 0.318D+00 0.652D+00
 Gap=     0.243 Goal=   None    Shift=    0.000
 RMSDP=4.97D-04 MaxDP=1.06D-02 DE=-8.13D-03 OVMax= 2.42D-02

 Cycle   5  Pass 0  IDiag  1:
 E= -244.589239351148     Delta-E=       -0.002526281795 Rises=F Damp=F
 DIIS: error= 5.86D-04 at cycle   5 NSaved=   5.
 NSaved= 5 IEnMin= 5 EnMin= -244.589239351148     IErMin= 5 ErrMin= 5.86D-04
 ErrMax= 5.86D-04  0.00D+00 EMaxC= 1.00D-01 BMatC= 5.16D-05 BMatP= 2.59D-03
 IDIUse=3 WtCom= 9.94D-01 WtEn= 5.86D-03
 Coeff-Com:  0.412D-02-0.758D-02 0.120D+00 0.293D+00 0.590D+00
 Coeff-En:   0.000D+00 0.000D+00 0.000D+00 0.000D+00 0.100D+01
 Coeff:      0.409D-02-0.753D-02 0.120D+00 0.291D+00 0.592D+00
 Gap=     0.243 Goal=   None    Shift=    0.000
 RMSDP=7.37D-05 MaxDP=1.93D-03 DE=-2.53D-03 OVMax= 3.54D-03

 Cycle   6  Pass 0  IDiag  1:
 E= -244.589281197557     Delta-E=       -0.000041846409 Rises=F Damp=F
 DIIS: error= 1.99D-04 at cycle   6 NSaved=   6.
 NSaved= 6 IEnMin= 6 EnMin= -244.589281197557     IErMin= 6 ErrMin= 1.99D-04
 ErrMax= 1.99D-04  0.00D+00 EMaxC= 1.00D-01 BMatC= 6.66D-06 BMatP= 5.16D-05
 IDIUse=3 WtCom= 9.98D-01 WtEn= 1.99D-03
 Coeff-Com:  0.141D-02-0.626D-02 0.298D-01 0.834D-01 0.309D+00 0.583D+00
 Coeff-En:   0.000D+00 0.000D+00 0.000D+00 0.000D+00 0.604D-01 0.940D+00
 Coeff:      0.140D-02-0.625D-02 0.297D-01 0.832D-01 0.309D+00 0.583D+00
 Gap=     0.243 Goal=   None    Shift=    0.000
 RMSDP=2.22D-05 MaxDP=4.68D-04 DE=-4.18D-05 OVMax= 5.55D-04

 Cycle   7  Pass 0  IDiag  1:
 E= -244.589287384250     Delta-E=       -0.000006186694 Rises=F Damp=F
 DIIS: error= 2.08D-05 at cycle   7 NSaved=   7.
 NSaved= 7 IEnMin= 7 EnMin= -244.589287384250     IErMin= 7 ErrMin= 2.08D-05
 ErrMax= 2.08D-05  0.00D+00 EMaxC= 1.00D-01 BMatC= 9.78D-08 BMatP= 6.66D-06
 IDIUse=1 WtCom= 1.00D+00 WtEn= 0.00D+00
 Coeff-Com:  0.280D-03-0.127D-02 0.596D-03 0.192D-02 0.332D-01 0.119D+00
 Coeff-Com:  0.847D+00
 Coeff:      0.280D-03-0.127D-02 0.596D-03 0.192D-02 0.332D-01 0.119D+00
 Coeff:      0.847D+00
 Gap=     0.243 Goal=   None    Shift=    0.000
 RMSDP=3.74D-06 MaxDP=7.10D-05 DE=-6.19D-06 OVMax= 7.36D-05

 Initial convergence to 1.0D-05 achieved.  Increase integral accuracy.
 Cycle   8  Pass 1  IDiag  1:
 E= -244.589291226023     Delta-E=       -0.000003841773 Rises=F Damp=F
 DIIS: error= 1.40D-05 at cycle   1 NSaved=   1.
 NSaved= 1 IEnMin= 1 EnMin= -244.589291226023     IErMin= 1 ErrMin= 1.40D-05
 ErrMax= 1.40D-05  0.00D+00 EMaxC= 1.00D-01 BMatC= 5.09D-08 BMatP= 5.09D-08
 IDIUse=1 WtCom= 1.00D+00 WtEn= 0.00D+00
 Coeff-Com:  0.100D+01
 Coeff:      0.100D+01
 Gap=     0.243 Goal=   None    Shift=    0.000
 RMSDP=3.74D-06 MaxDP=7.10D-05 DE=-3.84D-06 OVMax= 1.33D-04

 Cycle   9  Pass 1  IDiag  1:
 E= -244.589291213603     Delta-E=        0.000000012420 Rises=F Damp=F
 DIIS: error= 2.24D-05 at cycle   2 NSaved=   2.
 NSaved= 2 IEnMin= 1 EnMin= -244.589291226023     IErMin= 1 ErrMin= 1.40D-05
 ErrMax= 2.24D-05  0.00D+00 EMaxC= 1.00D-01 BMatC= 7.35D-08 BMatP= 5.09D-08
 IDIUse=1 WtCom= 1.00D+00 WtEn= 0.00D+00
 Coeff-Com:  0.552D+00 0.448D+00
 Coeff:      0.552D+00 0.448D+00
 Gap=     0.243 Goal=   None    Shift=    0.000
 RMSDP=2.30D-06 MaxDP=6.00D-05 DE= 1.24D-08 OVMax= 9.85D-05

 Cycle  10  Pass 1  IDiag  1:
 E= -244.589291277705     Delta-E=       -0.000000064102 Rises=F Damp=F
 DIIS: error= 4.22D-06 at cycle   3 NSaved=   3.
 NSaved= 3 IEnMin= 3 EnMin= -244.589291277705     IErMin= 3 ErrMin= 4.22D-06
 ErrMax= 4.22D-06  0.00D+00 EMaxC= 1.00D-01 BMatC= 2.53D-09 BMatP= 5.09D-08
 IDIUse=1 WtCom= 1.00D+00 WtEn= 0.00D+00
 Coeff-Com:  0.193D-01 0.154D+00 0.826D+00
 Coeff:      0.193D-01 0.154D+00 0.826D+00
 Gap=     0.243 Goal=   None    Shift=    0.000
 RMSDP=5.48D-07 MaxDP=1.52D-05 DE=-6.41D-08 OVMax= 2.97D-05

 Cycle  11  Pass 1  IDiag  1:
 E= -244.589291279203     Delta-E=       -0.000000001498 Rises=F Damp=F
 DIIS: error= 2.51D-06 at cycle   4 NSaved=   4.
 NSaved= 4 IEnMin= 4 EnMin= -244.589291279203     IErMin= 4 ErrMin= 2.51D-06
 ErrMax= 2.51D-06  0.00D+00 EMaxC= 1.00D-01 BMatC= 8.79D-10 BMatP= 2.53D-09
 IDIUse=1 WtCom= 1.00D+00 WtEn= 0.00D+00
 Coeff-Com: -0.149D-01 0.795D-01 0.536D+00 0.399D+00
 Coeff:     -0.149D-01 0.795D-01 0.536D+00 0.399D+00
 Gap=     0.243 Goal=   None    Shift=    0.000
 RMSDP=2.78D-07 MaxDP=7.50D-06 DE=-1.50D-09 OVMax= 1.68D-05

 Cycle  12  Pass 1  IDiag  1:
 E= -244.589291280060     Delta-E=       -0.000000000857 Rises=F Damp=F
 DIIS: error= 3.04D-07 at cycle   5 NSaved=   5.
 NSaved= 5 IEnMin= 5 EnMin= -244.589291280060     IErMin= 5 ErrMin= 3.04D-07
 ErrMax= 3.04D-07  0.00D+00 EMaxC= 1.00D-01 BMatC= 1.40D-11 BMatP= 8.79D-10
 IDIUse=1 WtCom= 1.00D+00 WtEn= 0.00D+00
 Coeff-Com: -0.642D-02 0.226D-01 0.159D+00 0.175D+00 0.650D+00
 Coeff:     -0.642D-02 0.226D-01 0.159D+00 0.175D+00 0.650D+00
 Gap=     0.243 Goal=   None    Shift=    0.000
 RMSDP=3.69D-08 MaxDP=6.90D-07 DE=-8.57D-10 OVMax= 1.38D-06

 Cycle  13  Pass 1  IDiag  1:
 E= -244.589291280068     Delta-E=       -0.000000000008 Rises=F Damp=F
 DIIS: error= 1.26D-07 at cycle   6 NSaved=   6.
 NSaved= 6 IEnMin= 6 EnMin= -244.589291280068     IErMin= 6 ErrMin= 1.26D-07
 ErrMax= 1.26D-07  0.00D+00 EMaxC= 1.00D-01 BMatC= 1.76D-12 BMatP= 1.40D-11
 IDIUse=1 WtCom= 1.00D+00 WtEn= 0.00D+00
 Coeff-Com: -0.238D-02 0.634D-02 0.454D-01 0.697D-01 0.347D+00 0.534D+00
 Coeff:     -0.238D-02 0.634D-02 0.454D-01 0.697D-01 0.347D+00 0.534D+00
 Gap=     0.243 Goal=   None    Shift=    0.000
 RMSDP=1.03D-08 MaxDP=3.09D-07 DE=-8.41D-12 OVMax= 2.76D-07

 Cycle  14  Pass 1  IDiag  1:
 E= -244.589291280073     Delta-E=       -0.000000000005 Rises=F Damp=F
 DIIS: error= 1.66D-08 at cycle   7 NSaved=   7.
 NSaved= 7 IEnMin= 7 EnMin= -244.589291280073     IErMin= 7 ErrMin= 1.66D-08
 ErrMax= 1.66D-08  0.00D+00 EMaxC= 1.00D-01 BMatC= 4.83D-14 BMatP= 1.76D-12
 IDIUse=1 WtCom= 1.00D+00 WtEn= 0.00D+00
 Coeff-Com: -0.698D-04-0.297D-03-0.213D-02 0.552D-02 0.446D-01 0.173D+00
 Coeff-Com:  0.779D+00
 Coeff:     -0.698D-04-0.297D-03-0.213D-02 0.552D-02 0.446D-01 0.173D+00
 Coeff:      0.779D+00
 Gap=     0.243 Goal=   None    Shift=    0.000
 RMSDP=2.14D-09 MaxDP=3.50D-08 DE=-4.83D-12 OVMax= 4.95D-08

 SCF Done:  E(RB3LYP) =  -244.589291280     A.U. after   14 cycles
            NFock= 14  Conv=0.21D-08     -V/T= 2.0106
 KE= 2.420332579388D+02 PE=-9.305815518025D+02 EE= 2.631938186149D+02
 Leave Link  502 at Fri Sep 10 15:27:26 2021, MaxMem= 24159191040 cpu:        44.8
 (Enter /public/home/users/caep010/software/Gaussian09/g09/l801.exe)
 DoSCS=F DFT=T ScalE2(SS,OS)=  1.000000  1.000000
 Range of M.O.s used for correlation:     1   110
 NBasis=   110 NAE=    20 NBE=    20 NFC=     0 NFV=     0
 NROrb=    110 NOA=    20 NOB=    20 NVA=    90 NVB=    90
 Leave Link  801 at Fri Sep 10 15:27:26 2021, MaxMem= 24159191040 cpu:         0.6
 (Enter /public/home/users/caep010/software/Gaussian09/g09/l1101.exe)
 Using compressed storage, NAtomX=    12.
 Will process     13 centers per pass.
 Leave Link 1101 at Fri Sep 10 15:27:26 2021, MaxMem= 24159191040 cpu:        10.6
 (Enter /public/home/users/caep010/software/Gaussian09/g09/l1102.exe)
 Symmetrizing basis deriv contribution to polar:
 IMax=3 JMax=2 DiffMx= 0.00D+00
 Leave Link 1102 at Fri Sep 10 15:27:26 2021, MaxMem= 24159191040 cpu:         0.6
 (Enter /public/home/users/caep010/software/Gaussian09/g09/l1110.exe)
 Forming Gx(P) for the SCF density, NAtomX=    12.
 Integral derivatives from FoFJK, PRISM(SPDF).
 Do as many integral derivatives as possible in FoFJK.
 G2DrvN: MDV=   24159190840.
 G2DrvN: will do    13 centers at a time, making    1 passes.
 Calling FoFCou, ICntrl=  3107 FMM=F I1Cent=   0 AccDes= 0.00D+00.
 FoFJK:  IHMeth= 1 ICntrl=    3107 DoSepK=F KAlg= 0 I1Cent=   0 FoldK=F
 IRaf=         0 NMat=   1 IRICut=       1 DoRegI=T DoRafI=F ISym2E= 0.
 FoFCou: FMM=F IPFlag=           0 FMFlag=      100000 FMFlg1=           0
         NFxFlg=           0 DoJE=F BraDBF=F KetDBF=F FulRan=T
         wScrn=  0.000000 ICntrl=    3107 IOpCl=  0 I1Cent=           0 NGrid=           0
         NMat0=    1 NMatS0=      1 NMatT0=    0 NMatD0=    1 NMtDS0=    0 NMtDT0=    0
 Symmetry not used in FoFCou.
 End of G2Drv F.D. properties file   721 does not exist.
 End of G2Drv F.D. properties file   722 does not exist.
 End of G2Drv F.D. properties file   788 does not exist.
 Leave Link 1110 at Fri Sep 10 15:27:27 2021, MaxMem= 24159191040 cpu:        40.4
 (Enter /public/home/users/caep010/software/Gaussian09/g09/l1002.exe)
 Minotr:  Closed shell wavefunction.
          IDoAtm=111111111111
          Direct CPHF calculation.
          Differentiating once with respect to nuclear coordinates.
          Requested convergence is 1.0D-08 RMS, and 1.0D-07 maximum.
          Secondary convergence is 1.0D-12 RMS, and 1.0D-12 maximum.
          NewPWx=T KeepS1=F KeepF1=F KeepIn=T MapXYZ=F SortEE=F KeepMc=T.
          MDV=   24159190806 using IRadAn=       2.
 Generate precomputed XC quadrature information.
 Keep R1 ints in memory in canonical form, NReq=19572397.
 FoFCou: FMM=F IPFlag=           0 FMFlag=           0 FMFlg1=           0
         NFxFlg=           0 DoJE=F BraDBF=F KetDBF=F FulRan=T
         wScrn=  0.000000 ICntrl=     600 IOpCl=  0 I1Cent=           0 NGrid=           0
         NMat0=    1 NMatS0=   6105 NMatT0=    0 NMatD0=    1 NMtDS0=    0 NMtDT0=    0
 Symmetry not used in FoFCou.
          Solving linear equations simultaneously, MaxMat=       0.
          There are    39 degrees of freedom in the 1st order CPHF.  IDoFFX=6 NUNeed=     0.
     33 vectors produced by pass  0 Test12= 4.62D-15 2.56D-09 XBig12= 1.39D-01 1.45D-01.
 AX will form    33 AO Fock derivatives at one time.
     33 vectors produced by pass  1 Test12= 4.62D-15 2.56D-09 XBig12= 2.48D-02 7.73D-02.
     33 vectors produced by pass  2 Test12= 4.62D-15 2.56D-09 XBig12= 3.53D-04 4.45D-03.
     33 vectors produced by pass  3 Test12= 4.62D-15 2.56D-09 XBig12= 1.13D-06 2.48D-04.
     33 vectors produced by pass  4 Test12= 4.62D-15 2.56D-09 XBig12= 9.68D-10 5.76D-06.
     18 vectors produced by pass  5 Test12= 4.62D-15 2.56D-09 XBig12= 6.14D-13 1.23D-07.
      1 vectors produced by pass  6 Test12= 4.62D-15 2.56D-09 XBig12= 4.58D-16 3.19D-09.
 InvSVY:  IOpt=1 It=  1 EMax= 2.22D-15
 Solved reduced A of dimension   184 with    33 vectors.
 End of Minotr F.D. properties file   721 does not exist.
 End of Minotr F.D. properties file   722 does not exist.
 End of Minotr F.D. properties file   788 does not exist.
 Leave Link 1002 at Fri Sep 10 15:27:29 2021, MaxMem= 24159191040 cpu:        48.9
 (Enter /public/home/users/caep010/software/Gaussian09/g09/l601.exe)
 Copying SCF densities to generalized density rwf, IOpCl= 0 IROHF=0.

 **********************************************************************

            Population analysis using the SCF density.

 **********************************************************************

 Orbital symmetries:
       Occupied  (A) (A) (A) (A) (A) (A) (A) (A) (A) (A) (A) (A)
                 (A) (A) (A) (A) (A) (A) (A) (A)
       Virtual   (A) (A) (A) (A) (A) (A) (A) (A) (A) (A) (A) (A)
                 (A) (A) (A) (A) (A) (A) (A) (A) (A) (A) (A) (A)
                 (A) (A) (A) (A) (A) (A) (A) (A) (A) (A) (A) (A)
                 (A) (A) (A) (A) (A) (A) (A) (A) (A) (A) (A) (A)
                 (A) (A) (A) (A) (A) (A) (A) (A) (A) (A) (A) (A)
                 (A) (A) (A) (A) (A) (A) (A) (A) (A) (A) (A) (A)
                 (A) (A) (A) (A) (A) (A) (A) (A) (A) (A) (A) (A)
                 (A) (A) (A) (A) (A) (A)
 The electronic state is 1-A.
 Alpha  occ. eigenvalues --  -14.38688 -14.36185 -14.35594 -10.21267 -10.15329
 Alpha  occ. eigenvalues --   -1.00680  -0.86606  -0.77694  -0.68133  -0.56320
 Alpha  occ. eigenvalues --   -0.51705  -0.50273  -0.49291  -0.46712  -0.40572
 Alpha  occ. eigenvalues --   -0.36660  -0.30403  -0.28412  -0.26081  -0.19112
 Alpha virt. eigenvalues --    0.05229   0.06270   0.09559   0.13207   0.14225
 Alpha virt. eigenvalues --    0.15297   0.15750   0.17296   0.22088   0.26482
 Alpha virt. eigenvalues --    0.31405   0.36824   0.50907   0.56275   0.58009
 Alpha virt. eigenvalues --    0.61637   0.63059   0.63441   0.67846   0.69048
 Alpha virt. eigenvalues --    0.70218   0.71091   0.77579   0.83282   0.83935
 Alpha virt. eigenvalues --    0.84397   0.86077   0.86903   0.89766   0.89793
 Alpha virt. eigenvalues --    0.90498   0.93362   0.96999   1.05931   1.15778
 Alpha virt. eigenvalues --    1.20044   1.26245   1.30606   1.33118   1.37444
 Alpha virt. eigenvalues --    1.40676   1.41862   1.49604   1.71557   1.78694
 Alpha virt. eigenvalues --    1.79133   1.84895   1.87809   1.92881   1.96041
 Alpha virt. eigenvalues --    1.99828   2.02741   2.02896   2.09590   2.14652
 Alpha virt. eigenvalues --    2.15450   2.19054   2.22273   2.22771   2.28293
 Alpha virt. eigenvalues --    2.29618   2.36463   2.37219   2.43537   2.47369
 Alpha virt. eigenvalues --    2.50411   2.56695   2.58094   2.64534   2.67918
 Alpha virt. eigenvalues --    2.73418   2.75692   2.81179   2.84104   2.84240
 Alpha virt. eigenvalues --    2.92304   3.02967   3.10367   3.21106   3.22870
 Alpha virt. eigenvalues --    3.30520   3.38579   3.39891   3.47073   3.69419
 Alpha virt. eigenvalues --    3.77246   4.01746   4.06359   4.22153   4.55267
          Condensed to atoms (all electrons):
               1          2          3          4          5          6
     1  C    5.022018   0.643516  -0.059290  -0.006512   0.004258   0.378811
     2  C    0.643516   4.616306   0.341848  -0.056068  -0.055332  -0.017723
     3  N   -0.059290   0.341848   6.748709   0.258066   0.263918   0.003853
     4  N   -0.006512  -0.056068   0.258066   6.643376  -0.076504   0.000250
     5  N    0.004258  -0.055332   0.263918  -0.076504   6.604892  -0.000108
     6  H    0.378811  -0.017723   0.003853   0.000250  -0.000108   0.592120
     7  H    0.368771  -0.033223  -0.013631   0.010265   0.000141  -0.040595
     8  H   -0.048378   0.375029  -0.039167   0.003877   0.004978  -0.007431
     9  H    0.004131   0.000931  -0.059093   0.331763   0.004698   0.000026
    10  H    0.004134   0.000931  -0.059082   0.331767   0.004697   0.000026
    11  H   -0.000139   0.003504  -0.059509   0.004536   0.334028   0.000004
    12  H   -0.000139   0.003504  -0.059496   0.004536   0.334027   0.000004
               7          8          9         10         11         12
     1  C    0.368771  -0.048378   0.004131   0.004134  -0.000139  -0.000139
     2  C   -0.033223   0.375029   0.000931   0.000931   0.003504   0.003504
     3  N   -0.013631  -0.039167  -0.059093  -0.059082  -0.059509  -0.059496
     4  N    0.010265   0.003877   0.331763   0.331767   0.004536   0.004536
     5  N    0.000141   0.004978   0.004698   0.004697   0.334028   0.334027
     6  H   -0.040595  -0.007431   0.000026   0.000026   0.000004   0.000004
     7  H    0.634432   0.006370   0.002595   0.002595  -0.000012  -0.000012
     8  H    0.006370   0.593615  -0.000042  -0.000041  -0.000292  -0.000292
     9  H    0.002595  -0.000042   0.509469  -0.050987   0.002197  -0.000949
    10  H    0.002595  -0.000041  -0.050987   0.509439  -0.000949   0.002197
    11  H   -0.000012  -0.000292   0.002197  -0.000949   0.513178  -0.046140
    12  H   -0.000012  -0.000292  -0.000949   0.002197  -0.046140   0.513162
 Mulliken charges:
               1
     1  C   -0.311182
     2  C    0.176778
     3  N   -0.267124
     4  N   -0.449351
     5  N   -0.423693
     6  H    0.090763
     7  H    0.062304
     8  H    0.111773
     9  H    0.255262
    10  H    0.255274
    11  H    0.249595
    12  H    0.249600
 Sum of Mulliken charges =  -0.00000
 Mulliken charges with hydrogens summed into heavy atoms:
               1
     1  C   -0.158115
     2  C    0.288551
     3  N   -0.267124
     4  N    0.061185
     5  N    0.075502
 APT charges:
               1
     1  C   -0.641491
     2  C   -0.526277
     3  N   -0.156102
     4  N   -0.846055
     5  N   -0.995650
     6  H    0.571524
     7  H    0.264540
     8  H    0.436720
     9  H    0.439878
    10  H    0.439902
    11  H    0.506491
    12  H    0.506520
 Sum of APT charges =  -0.00000
 APT charges with hydrogens summed into heavy atoms:
               1
     1  C    0.194574
     2  C   -0.089557
     3  N   -0.156102
     4  N    0.033725
     5  N    0.017360
 Electronic spatial extent (au):  <R**2>=            450.2014
 Charge=             -0.0000 electrons
 Dipole moment (field-independent basis, Debye):
    X=              0.5117    Y=              1.0662    Z=              0.0000  Tot=              1.1826
 Quadrupole moment (field-independent basis, Debye-Ang):
   XX=            -29.5465   YY=            -30.5854   ZZ=            -30.0857
   XY=             -0.6493   XZ=             -0.0001   YZ=             -0.0001
 Traceless Quadrupole moment (field-independent basis, Debye-Ang):
   XX=              0.5260   YY=             -0.5129   ZZ=             -0.0132
   XY=             -0.6493   XZ=             -0.0001   YZ=             -0.0001
 Octapole moment (field-independent basis, Debye-Ang**2):
  XXX=             17.0730  YYY=              6.5278  ZZZ=             -0.0000  XYY=             -8.2865
  XXY=             -3.3334  XXZ=             -0.0002  XZZ=              8.5595  YZZ=              3.3845
  YYZ=              0.0004  XYZ=             -0.0002
 Hexadecapole moment (field-independent basis, Debye-Ang**3):
 XXXX=           -337.5760 YYYY=           -167.3987 ZZZZ=            -38.2369 XXXY=             -2.6441
 XXXZ=             -0.0000 YYYX=              0.2831 YYYZ=             -0.0005 ZZZX=             -0.0006
 ZZZY=              0.0002 XXYY=            -99.1220 XXZZ=            -67.1409 YYZZ=            -31.4847
 XXYZ=              0.0000 YYXZ=              0.0003 ZZXY=             -2.8683
 N-N= 1.807651839687D+02 E-N=-9.305815512149D+02  KE= 2.420332579388D+02
  Exact polarizability:   0.000   0.000   0.000   0.000   0.000   0.000
 Approx polarizability:  87.634  -7.900  61.275   0.002   0.000  39.946
 No NMR shielding tensors so no spin-rotation constants.
 Leave Link  601 at Fri Sep 10 15:27:29 2021, MaxMem= 24159191040 cpu:        10.5
 (Enter /public/home/users/caep010/software/Gaussian09/g09/l701.exe)
 Compute integral second derivatives.
 ... and contract with generalized density number  0.
 Leave Link  701 at Fri Sep 10 15:27:30 2021, MaxMem= 24159191040 cpu:        13.1
 (Enter /public/home/users/caep010/software/Gaussian09/g09/l702.exe)
 L702 exits ... SP integral derivatives will be done elsewhere.
 Leave Link  702 at Fri Sep 10 15:27:30 2021, MaxMem= 24159191040 cpu:         0.5
 (Enter /public/home/users/caep010/software/Gaussian09/g09/l703.exe)
 Compute integral second derivatives, UseDBF=F ICtDFT=           0.
 Integral derivatives from FoFJK, PRISM(SPDF).
 Calling FoFJK, ICntrl=    100147 FMM=F ISym2X=0 I1Cent= 0 IOpClX= 0 NMat=1 NMatS=1 NMatT=0.
 FoFJK:  IHMeth= 1 ICntrl=  100147 DoSepK=F KAlg= 0 I1Cent=   0 FoldK=F
 IRaf=         0 NMat=   1 IRICut=       1 DoRegI=T DoRafI=F ISym2E= 0.
 FoFCou: FMM=F IPFlag=           0 FMFlag=      100000 FMFlg1=         800
         NFxFlg=           0 DoJE=F BraDBF=F KetDBF=F FulRan=T
         wScrn=  0.000000 ICntrl=  100147 IOpCl=  0 I1Cent=           0 NGrid=           0
         NMat0=    1 NMatS0=      1 NMatT0=    0 NMatD0=    1 NMtDS0=    0 NMtDT0=    0
 Symmetry not used in FoFCou.
 Leave Link  703 at Fri Sep 10 15:27:32 2021, MaxMem= 24159191040 cpu:        49.0
 (Enter /public/home/users/caep010/software/Gaussian09/g09/l716.exe)
 Dipole        = 2.01330873D-01 4.19463862D-01 1.95789315D-05
 Polarizability= 0.00000000D+00 0.00000000D+00 0.00000000D+00
                 0.00000000D+00 0.00000000D+00 0.00000000D+00
 ***** Axes restored to original set *****
 -------------------------------------------------------------------
 Center     Atomic                   Forces (Hartrees/Bohr)
 Number     Number              X              Y              Z
 -------------------------------------------------------------------
      1        6           0.006931268   -0.006157742   -0.002501953
      2        6          -0.031007137   -0.014030636    0.014311868
      3        7           0.031340810    0.016499493   -0.014651984
      4        7           0.012874931   -0.001993513   -0.005296906
      5        7          -0.014720322   -0.010547609    0.007116841
      6        1           0.000406045   -0.000897202   -0.000105437
      7        1           0.001518780   -0.002688398   -0.000452015
      8        1          -0.011921898    0.004000484    0.004802106
      9        1          -0.011370415    0.003316115   -0.014054384
     10        1           0.002076295    0.005640063    0.017304563
     11        1           0.000315059    0.002275743   -0.018717631
     12        1           0.013556584    0.004583203    0.012244932
 -------------------------------------------------------------------
 Cartesian Forces:  Max     0.031340810 RMS     0.011874976
 Force constants in Cartesian coordinates: 
                1             2             3             4             5 
      1  0.663801D+00
      2 -0.112981D+00  0.757910D+00
      3 -0.243830D+00 -0.273801D-02  0.178919D+00
      4 -0.280690D+00  0.206029D+00  0.842532D-01  0.558992D+00
      5  0.214410D+00 -0.358947D+00 -0.685181D-01 -0.141532D+00  0.841431D+00
      6  0.836287D-01 -0.649322D-01 -0.787949D-01 -0.173293D+00  0.736836D-02
      7 -0.438336D-01  0.879939D-02  0.235947D-01 -0.176070D+00 -0.185847D-01
      8  0.214700D-01  0.158708D-01 -0.941586D-02 -0.129431D-01 -0.123945D+00
      9  0.226487D-01 -0.399562D-02  0.343538D-02  0.670508D-01  0.156005D-01
     10 -0.728170D-04 -0.162596D-02  0.297893D-03 -0.116780D-01 -0.307658D-01
     11  0.746783D-02  0.267859D-02 -0.337097D-02 -0.719452D-02 -0.211573D-01
     12 -0.381910D-03  0.521595D-03  0.464257D-03  0.201311D-02  0.141328D-01
     13 -0.154595D-02 -0.324328D-02  0.209114D-02 -0.257390D-01  0.280179D-01
     14 -0.160460D-02  0.130083D-02  0.797494D-03  0.661824D-02  0.117886D-02
     15  0.196867D-02  0.149864D-02  0.182026D-02  0.389062D-02 -0.132367D-01
     16 -0.279696D+00 -0.636814D-01  0.115582D+00 -0.155298D-01 -0.905776D-02
     17 -0.690075D-01 -0.740825D-01  0.335192D-01  0.221346D-01  0.814190D-02
     18  0.115978D+00  0.312397D-01 -0.727206D-01  0.434177D-02  0.315442D-02
     19 -0.626491D-01 -0.574022D-01  0.202376D-01  0.102064D-01  0.204917D-01
     20 -0.526955D-01 -0.328822D+00  0.452396D-01 -0.801130D-02 -0.196778D-01
     21  0.198851D-01  0.472582D-01 -0.374349D-01 -0.179398D-02 -0.695695D-02
     22  0.843044D-02  0.209018D-01 -0.235340D-02 -0.681042D-01 -0.668671D-01
     23 -0.634380D-02 -0.178666D-01  0.454216D-02 -0.686052D-01 -0.324367D+00
     24 -0.317257D-03 -0.711904D-02  0.724984D-02  0.186710D-01  0.501279D-01
     25 -0.457324D-03  0.231117D-02 -0.116963D-02  0.489544D-02 -0.287772D-02
     26 -0.163053D-02  0.115672D-02  0.589696D-04  0.453927D-02  0.470428D-03
     27 -0.460058D-04  0.365888D-03 -0.629422D-03 -0.312571D-02 -0.533887D-03
     28  0.549075D-04  0.131719D-02  0.225942D-03  0.286359D-02 -0.207369D-02
     29 -0.129315D-02  0.102657D-02  0.881932D-03  0.296916D-02  0.399144D-03
     30 -0.408017D-03 -0.222961D-02 -0.101133D-02 -0.108338D-02  0.253075D-02
     31 -0.201544D-02 -0.228764D-03  0.141646D-05  0.206633D-02  0.481657D-02
     32  0.106412D-02 -0.111729D-03 -0.543470D-03 -0.300236D-02 -0.191912D-02
     33  0.313652D-03  0.146111D-03 -0.305028D-03 -0.230429D-02 -0.189782D-02
     34 -0.132635D-02 -0.196183D-03  0.106968D-02 -0.121330D-02  0.402197D-02
     35  0.114345D-02 -0.113319D-03 -0.452940D-03 -0.100195D-02 -0.160845D-02
     36  0.560517D-03 -0.155897D-04 -0.992339D-03  0.138002D-02 -0.177123D-02
                6             7             8             9            10 
      6  0.202974D+00
      7  0.674836D-01  0.522920D+00
      8  0.131876D-01 -0.641217D-01  0.551875D+00
      9 -0.514971D-01 -0.193984D+00 -0.944190D-02  0.142115D+00
     10  0.377087D-02 -0.913600D-01  0.252290D-02  0.136336D-01  0.286576D+00
     11  0.404193D-02 -0.657990D-01 -0.196359D+00  0.384239D-01 -0.428994D-01
     12 -0.101533D-01  0.187360D-01  0.916996D-02 -0.677680D-01  0.127685D+00
     13  0.228571D-02 -0.161623D+00  0.104201D+00  0.409826D-01  0.117451D-01
     14 -0.407937D-02  0.454977D-01 -0.139972D+00 -0.125749D-01  0.160337D-01
     15 -0.161723D-01  0.453628D-01 -0.376878D-01 -0.642387D-01 -0.864970D-02
     16  0.667147D-02  0.186584D-02  0.337741D-02  0.141563D-02  0.176437D-03
     17 -0.101947D-01  0.225376D-02 -0.427343D-02 -0.214344D-03 -0.151416D-02
     18 -0.361545D-02  0.149881D-02 -0.696131D-03  0.517431D-02  0.926595D-03
     19 -0.392655D-02 -0.110564D-02 -0.952215D-03 -0.117894D-02 -0.836907D-03
     20  0.524445D-02 -0.184312D-02 -0.160263D-02  0.607454D-03 -0.256131D-02
     21  0.589832D-02 -0.111297D-02  0.226475D-03 -0.356708D-02 -0.530548D-03
     22  0.185416D-01 -0.377707D-02 -0.256579D-01  0.301714D-02 -0.471260D-02
     23  0.508714D-01  0.256068D-02 -0.224751D-02 -0.101797D-02 -0.200409D-03
     24 -0.481910D-01  0.908805D-03  0.110590D-01 -0.242174D-02  0.326649D-02
     25  0.130714D-02  0.561623D-02 -0.125034D-01  0.198584D-01 -0.169551D+00
     26  0.267438D-03  0.186162D-01 -0.343929D-01  0.191796D-01  0.626423D-01
     27 -0.608542D-03  0.411221D-02  0.157719D-01  0.274452D-02 -0.119233D+00
     28 -0.458542D-02 -0.680493D-02 -0.193313D-01 -0.498745D-02 -0.226454D-01
     29 -0.360230D-02  0.143899D-02 -0.382008D-01 -0.202451D-01 -0.938039D-03
     30  0.149671D-02  0.688165D-02  0.537358D-02  0.189779D-01 -0.204118D-01
     31  0.409668D-02 -0.159891D-01  0.160348D-02  0.283936D-01  0.353103D-03
     32 -0.121401D-02  0.273794D-01 -0.150879D-01 -0.329736D-01 -0.138252D-02
     33 -0.215253D-02  0.145937D-01 -0.223310D-02  0.330772D-02 -0.774202D-03
     34 -0.598080D-02 -0.298384D-01  0.233445D-02  0.314981D-02  0.200527D-02
     35  0.304142D-02  0.438025D-01 -0.116652D-01  0.665198D-02  0.688787D-03
     36  0.815864D-03  0.119244D-01  0.468624D-02  0.137377D-01  0.184393D-04
               11            12            13            14            15 
     11  0.470287D+00
     12  0.264950D-01  0.521071D+00
     13 -0.743394D-03 -0.739877D-02  0.496983D+00
     14 -0.489507D-01 -0.362266D-02 -0.578642D-01  0.265788D+00
     15  0.355101D-02 -0.223633D-02  0.351877D-01  0.474491D-01  0.550345D+00
     16  0.365225D-03  0.786147D-03 -0.106352D-03  0.519989D-04  0.145758D-02
     17  0.227031D-03  0.786237D-03  0.112683D-02  0.380158D-03 -0.263504D-03
     18 -0.175869D-04  0.168179D-02  0.137742D-02  0.196624D-03  0.270375D-02
     19  0.992790D-03 -0.796576D-03 -0.168098D-03 -0.378023D-03 -0.498293D-03
     20  0.154364D-02  0.791872D-03  0.540402D-03  0.584278D-03 -0.379515D-03
     21 -0.729112D-03 -0.224280D-02 -0.567038D-03  0.134547D-04 -0.115668D-02
     22 -0.115615D-02  0.333799D-02  0.118656D-02 -0.505965D-03 -0.925887D-03
     23  0.141477D-02  0.195750D-03  0.109986D-02  0.666306D-03 -0.600124D-03
     24  0.604556D-03  0.144242D-02 -0.104586D-02  0.869724D-04 -0.624445D-03
     25  0.828916D-01 -0.167842D+00  0.177666D-04  0.155796D-02 -0.116967D-02
     26 -0.958376D-01  0.633965D-01  0.000000D+00 -0.480804D-02  0.504491D-02
     27  0.501204D-01 -0.160533D+00  0.857995D-04 -0.243413D-02 -0.584748D-03
     28  0.285550D-01  0.244822D-01  0.274246D-03  0.314629D-02  0.973401D-04
     29 -0.120976D+00 -0.111666D+00 -0.346010D-02 -0.514205D-02 -0.292437D-02
     30 -0.119682D+00 -0.282477D+00 -0.547430D-03  0.106189D-02 -0.506784D-03
     31 -0.954089D-03 -0.144567D-02 -0.695198D-01  0.127749D-01  0.588028D-01
     32  0.345762D-02 -0.238246D-02 -0.142357D-02 -0.291276D-01  0.566803D-01
     33  0.121679D-02  0.130763D-02  0.375359D-01  0.681337D-02 -0.332018D+00
     34 -0.152591D-02  0.824536D-03 -0.251505D+00 -0.253280D-01 -0.135524D+00
     35  0.367099D-02  0.218127D-02 -0.682517D-01 -0.418982D-01 -0.591320D-01
     36 -0.654221D-03 -0.555428D-03 -0.109987D+00 -0.337078D-01 -0.137331D+00
               16            17            18            19            20 
     16  0.295411D+00
     17  0.676503D-01  0.713089D-01
     18 -0.123441D+00 -0.328773D-01  0.740805D-01
     19 -0.125150D-02 -0.239514D-01  0.205521D-02  0.583763D-01
     20  0.109281D-02 -0.275975D-02 -0.308585D-03  0.593103D-01  0.351528D+00
     21  0.182915D-03  0.104090D-01 -0.148929D-02 -0.216140D-01 -0.503029D-01
     22 -0.442975D-03  0.148814D-03 -0.248407D-02 -0.735122D-03  0.369702D-02
     23  0.726018D-04  0.953060D-03 -0.567018D-03  0.277347D-02 -0.144283D-02
     24 -0.247846D-02 -0.599875D-03 -0.511580D-02  0.446993D-02 -0.712389D-03
     25 -0.372488D-03  0.354570D-04 -0.100265D-02 -0.144361D-03  0.449075D-04
     26 -0.224945D-04  0.174122D-03 -0.166753D-03 -0.347839D-03  0.365762D-03
     27 -0.135750D-03 -0.708598D-03  0.147456D-03  0.743970D-03 -0.810152D-03
     28  0.431470D-03  0.628532D-03  0.588041D-03 -0.184919D-02  0.379541D-03
     29  0.896960D-04  0.272735D-03  0.451362D-04 -0.623781D-03  0.427967D-03
     30 -0.234419D-03  0.331731D-03 -0.755145D-03  0.490920D-03  0.623356D-03
     31 -0.517209D-03  0.198144D-03 -0.476012D-03  0.194548D-03  0.233528D-04
     32  0.238572D-03 -0.135093D-03  0.498790D-03 -0.747161D-04 -0.967039D-04
     33  0.115062D-03 -0.940348D-04  0.192215D-03  0.229493D-04 -0.407716D-04
     34  0.310247D-04  0.296609D-03  0.637372D-03 -0.374560D-04  0.228427D-04
     35 -0.176977D-03 -0.207150D-03 -0.501272D-03  0.161858D-03 -0.483959D-04
     36  0.787133D-04 -0.938354D-04 -0.283792D-03 -0.629135D-05  0.476519D-04
               21            22            23            24            25 
     21  0.312480D-01
     22  0.440077D-02  0.681043D-01
     23 -0.318001D-03  0.687529D-01  0.342548D+00
     24  0.833304D-02 -0.236617D-01 -0.531628D-01  0.389181D-01
     25  0.207848D-02 -0.214339D-03 -0.411355D-04 -0.463731D-03  0.166569D+00
     26  0.444192D-03  0.899058D-04 -0.479410D-04 -0.416127D-03 -0.726547D-01
     27 -0.717226D-03 -0.863972D-04 -0.137950D-03  0.420496D-03  0.141036D+00
     28 -0.948425D-03  0.366118D-03  0.153288D-03  0.466571D-03 -0.595966D-02
     29 -0.337896D-04  0.395640D-03  0.216831D-04  0.223648D-03  0.132440D-02
     30  0.925014D-03  0.613699D-04  0.105250D-03 -0.229500D-03  0.823829D-02
     31  0.226963D-03  0.182310D-04 -0.973439D-04  0.334480D-03 -0.395170D-04
     32 -0.291054D-03  0.214575D-03  0.204143D-03  0.235008D-03  0.484422D-03
     33  0.997431D-05 -0.434359D-04  0.279167D-04  0.202442D-04 -0.826620D-03
     34 -0.207272D-03 -0.119317D-03 -0.124904D-03 -0.150228D-03 -0.359877D-03
     35  0.280498D-03 -0.135649D-04  0.163697D-03 -0.326770D-03 -0.573056D-03
     36  0.193636D-03  0.196005D-03  0.613837D-04  0.198344D-03 -0.443625D-04
               26            27            28            29            30 
     26  0.123223D+00
     27 -0.745979D-01  0.181893D+00
     28 -0.121064D-01 -0.233324D-01  0.334732D-01
     29  0.982137D-02  0.126786D-01 -0.426582D-03  0.152568D+00
     30 -0.131973D-01 -0.212879D-01  0.774215D-02  0.125359D+00  0.285814D+00
     31  0.626643D-03  0.000000D+00 -0.375602D-03  0.173985D-03 -0.115141D-03
     32  0.948886D-03 -0.460175D-03 -0.897956D-03 -0.114285D-02 -0.238756D-04
     33 -0.444509D-04 -0.316288D-03  0.517664D-04 -0.118489D-03 -0.443526D-03
     34  0.247695D-03 -0.188964D-04  0.171256D-03  0.349791D-03 -0.614174D-03
     35 -0.107349D-02  0.746037D-03  0.656012D-03  0.923972D-03 -0.252733D-03
     36  0.308809D-04 -0.528257D-03  0.199698D-03 -0.598060D-03 -0.501970D-03
               31            32            33            34            35 
     31  0.801734D-01
     32 -0.181870D-01  0.462071D-01
     33 -0.556972D-01 -0.110142D-01  0.351025D+00
     34  0.565111D-02 -0.441291D-02  0.701271D-02  0.276541D+00
     35 -0.749893D-03 -0.319667D-02  0.723869D-02  0.243146D-01  0.550522D-01
     36 -0.341212D-01 -0.851125D-02 -0.206269D-01  0.129801D+00  0.405258D-01
               36 
     36  0.145874D+00
 FormGI is forming the generalized inverse of G from B-inverse, IUseBI=4.
 Leave Link  716 at Fri Sep 10 15:27:32 2021, MaxMem= 24159191040 cpu:         0.9
 (Enter /public/home/users/caep010/software/Gaussian09/g09/l103.exe)

 GradGradGradGradGradGradGradGradGradGradGradGradGradGradGradGradGradGrad
 Berny optimization.
 Red2BG is reusing G-inverse.
 Internal  Forces:  Max     0.040745272 RMS     0.009664131
 Search for a local minimum.
 Step number   1 out of a maximum of   52
 All quantities printed in internal units (Hartrees-Bohrs-Radians)
 RMS Force = .96641D-02 SwitMx=.10000D-02 MixMth= 1
 Mixed Optimization -- RFO/linear search
 Second derivative matrix not updated -- analytic derivatives used.
 ITU=  0
     Eigenvalues ---   -0.00822   0.00477   0.00909   0.01544   0.02333
     Eigenvalues ---    0.02951   0.03823   0.04254   0.04849   0.10048
     Eigenvalues ---    0.10665   0.12583   0.14554   0.15837   0.20073
     Eigenvalues ---    0.20847   0.22193   0.22491   0.23714   0.33517
     Eigenvalues ---    0.35483   0.36058   0.36071   0.36262   0.36966
     Eigenvalues ---    0.37030   0.37775   0.40510   0.44278   0.64847
 Eigenvalue     1 is  -8.22D-03 should be greater than     0.000000 Eigenvector:
                          D13       D14       D8        D6        D9
   1                    0.35940   0.35939  -0.33976  -0.31160  -0.30031
                          D10       D12       D11       D5        D7
   1                   -0.30031   0.27390   0.27390   0.25898   0.23082
 RFO step:  Lambda=-1.36411291D-02 EMin=-8.21901380D-03
 Linear search not attempted -- first point.
 Iteration  1 RMS(Cart)=  0.10072085 RMS(Int)=  0.02057414
 Iteration  2 RMS(Cart)=  0.03107086 RMS(Int)=  0.00708115
 Iteration  3 RMS(Cart)=  0.00050661 RMS(Int)=  0.00707172
 Iteration  4 RMS(Cart)=  0.00000118 RMS(Int)=  0.00707172
 Iteration  5 RMS(Cart)=  0.00000001 RMS(Int)=  0.00707172
 ITry= 1 IFail=0 DXMaxC= 3.32D-01 DCOld= 1.00D+10 DXMaxT= 3.00D-01 DXLimC= 3.00D+00 Rises=F
 Variable       Old X    -DE/DX   Delta X   Delta X   Delta X     New X
                                 (Linear)    (Quad)   (Total)
    R1        2.51911   0.01353   0.00000   0.02185   0.02185   2.54096
    R2        2.04520   0.00018   0.00000  -0.00071  -0.00071   2.04450
    R3        2.04268   0.00224   0.00000   0.00596   0.00596   2.04864
    R4        2.71905  -0.04075   0.00000  -0.13776  -0.13776   2.58130
    R5        2.04725  -0.00010   0.00000   0.00159   0.00159   2.04884
    R6        2.65952  -0.00799   0.00000  -0.01334  -0.01334   2.64618
    R7        2.65046  -0.00219   0.00000  -0.00866  -0.00866   2.64180
    R8        1.97564  -0.01774   0.00000  -0.05286  -0.05286   1.92278
    R9        1.97547  -0.01768   0.00000  -0.03835  -0.03835   1.93712
   R10        1.97532  -0.01841   0.00000  -0.05573  -0.05573   1.91959
   R11        1.97526  -0.01839   0.00000  -0.04454  -0.04454   1.93072
    A1        2.08893  -0.00014   0.00000  -0.00238  -0.00245   2.08648
    A2        2.13216   0.00229   0.00000   0.01296   0.01289   2.14505
    A3        2.06209  -0.00215   0.00000  -0.01059  -0.01066   2.05143
    A4        2.14525   0.01068   0.00000   0.06387   0.06381   2.20907
    A5        2.06477   0.00843   0.00000   0.05379   0.05372   2.11849
    A6        2.07316  -0.01911   0.00000  -0.11766  -0.11771   1.95545
    A7        2.13709  -0.00131   0.00000  -0.00019  -0.02619   2.11089
    A8        2.06728   0.00226   0.00000   0.01480  -0.01210   2.05518
    A9        2.07882  -0.00095   0.00000  -0.01466  -0.04004   2.03878
   A10        1.88624   0.00400   0.00000   0.00446   0.00448   1.89071
   A11        1.88633   0.00398   0.00000   0.02642   0.02643   1.91276
   A12        1.90036  -0.00539   0.00000  -0.03520  -0.03517   1.86520
   A13        1.87373   0.00491   0.00000   0.00606   0.00592   1.87965
   A14        1.87381   0.00489   0.00000   0.04152   0.04140   1.91520
   A15        1.87322  -0.00445   0.00000  -0.01205  -0.01234   1.86088
    D1        3.14158   0.00000   0.00000   0.03551   0.03595  -3.10566
    D2        0.00000   0.00000   0.00000   0.01447   0.01403   0.01403
    D3       -0.00008   0.00000   0.00000   0.01261   0.01304   0.01296
    D4        3.14152   0.00000   0.00000  -0.00843  -0.00887   3.13265
    D5       -0.00002  -0.00000   0.00000  -0.19426  -0.19374  -0.19376
    D6       -3.14147  -0.00000   0.00000   0.23367   0.23410  -2.90737
    D7        3.14156  -0.00000   0.00000  -0.17313  -0.17356   2.96800
    D8        0.00011   0.00000   0.00000   0.25481   0.25428   0.25439
    D9        1.02711  -0.00103   0.00000   0.21275   0.20941   1.23652
   D10       -1.02692   0.00103   0.00000   0.23769   0.23438  -0.79254
   D11       -2.11463  -0.00103   0.00000  -0.21790  -0.21459  -2.32921
   D12        2.11453   0.00103   0.00000  -0.19296  -0.18962   1.92492
   D13       -2.13692  -0.00017   0.00000  -0.26484  -0.26311  -2.40003
   D14        2.13689   0.00017   0.00000  -0.27430  -0.27282   1.86407
   D15        1.00481  -0.00017   0.00000   0.14849   0.14700   1.15181
   D16       -1.00456   0.00017   0.00000   0.13903   0.13730  -0.86727
         Item               Value     Threshold  Converged?
 Maximum Force            0.040745     0.000450     NO 
 RMS     Force            0.009664     0.000300     NO 
 Maximum Displacement     0.331670     0.001800     NO 
 RMS     Displacement     0.118768     0.001200     NO 
 Predicted change in Energy=-9.467435D-03
 Lowest energy point so far.  Saving SCF results.
 GradGradGradGradGradGradGradGradGradGradGradGradGradGradGradGradGradGrad

 Leave Link  103 at Fri Sep 10 15:27:32 2021, MaxMem= 24159191040 cpu:         2.3
 (Enter /public/home/users/caep010/software/Gaussian09/g09/l202.exe)
                          Input orientation:                          
 ---------------------------------------------------------------------
 Center     Atomic      Atomic             Coordinates (Angstroms)
 Number     Number       Type             X           Y           Z
 ---------------------------------------------------------------------
      1          6           0        1.658756   -0.439087   -0.727357
      2          6           0        0.782656    0.493559   -0.314294
      3          7           0       -0.382331    0.272269    0.363712
      4          7           0       -0.899461   -1.021503    0.503575
      5          7           0       -1.293304    1.328766    0.454784
      6          1           0        2.567165   -0.132828   -1.228860
      7          1           0        1.510097   -1.500355   -0.563432
      8          1           0        0.960152    1.549533   -0.484292
      9          1           0       -0.302025   -1.537216    1.145758
     10          1           0       -0.857090   -1.507927   -0.397751
     11          1           0       -1.652704    1.345559    1.404736
     12          1           0       -2.091911    1.149329   -0.156680
 ---------------------------------------------------------------------
                    Distance matrix (angstroms):
                    1          2          3          4          5
     1  C    0.000000
     2  C    1.344618   0.000000
     3  N    2.421258   1.365963   0.000000
     4  N    2.898081   2.407039   1.400296   0.000000
     5  N    3.638326   2.366149   1.397981   2.383538   0.000000
     6  H    1.081900   2.100777   3.376376   3.975999   4.458042
     7  H    1.084094   2.137038   2.753738   2.678390   4.110929
     8  H    2.121729   1.084199   2.037836   3.323292   2.451259
     9  H    2.925595   2.726230   1.972886   1.017492   3.110295
    10  H    2.753278   2.588760   1.993570   1.025082   2.993982
    11  H    4.323950   3.100315   1.962022   2.642432   1.015805
    12  H    4.112935   2.952628   1.990655   2.563276   1.021694
                    6          7          8          9         10
     6  H    0.000000
     7  H    1.852112   0.000000
     8  H    2.442787   3.100083   0.000000
     9  H    3.980373   2.491280   3.711897   0.000000
    10  H    3.782481   2.372989   3.557797   1.640542   0.000000
    11  H    5.189292   4.687880   3.230643   3.194025   3.467614
    12  H    4.949797   4.490070   3.095575   3.481029   2.940053
                   11         12
    11  H    0.000000
    12  H    1.633839   0.000000
 Stoichiometry    C2H7N3
 Framework group  C1[X(C2H7N3)]
 Deg. of freedom    30
 Full point group                 C1      NOp   1
 RotChk:  IX=2 Diff= 4.54D-02
 Largest Abelian subgroup         C1      NOp   1
 Largest concise Abelian subgroup C1      NOp   1
                         Standard orientation:                         
 ---------------------------------------------------------------------
 Center     Atomic      Atomic             Coordinates (Angstroms)
 Number     Number       Type             X           Y           Z
 ---------------------------------------------------------------------
      1          6           0       -1.981691   -0.121866   -0.042030
      2          6           0       -0.763102   -0.684243    0.040264
      3          7           0        0.429574   -0.028688    0.156996
      4          7           0        0.510552    1.357111   -0.026943
      5          7           0        1.599700   -0.762805   -0.058015
      6          1           0       -2.858150   -0.753651   -0.098376
      7          1           0       -2.136866    0.951037   -0.034304
      8          1           0       -0.636991   -1.761081    0.038557
      9          1           0        0.060400    1.811766    0.764222
     10          1           0       -0.017915    1.624273   -0.863688
     11          1           0        2.269308   -0.492779    0.656528
     12          1           0        2.010189   -0.502244   -0.956606
 ---------------------------------------------------------------------
 Rotational constants (GHZ):      9.3673479      4.1483225      2.9819330
 Leave Link  202 at Fri Sep 10 15:27:32 2021, MaxMem= 24159191040 cpu:         0.2
 (Enter /public/home/users/caep010/software/Gaussian09/g09/l301.exe)
 Standard basis: 6-31G(d,p) (6D, 7F)
 Ernie: Thresh=  0.10000D-02 Tol=  0.10000D-05 Strict=F.
 There are   110 symmetry adapted cartesian basis functions of A   symmetry.
 There are   110 symmetry adapted basis functions of A   symmetry.
   110 basis functions,   189 primitive gaussians,   110 cartesian basis functions
    20 alpha electrons       20 beta electrons
       nuclear repulsion energy       183.4491741792 Hartrees.
 IExCor=  402 DFT=T Ex+Corr=B3LYP ExCW=0 ScaHFX=  0.200000
 ScaDFX=  0.800000  0.720000  1.000000  0.810000 ScalE2=  1.000000  1.000000
 IRadAn=      0 IRanWt=     -1 IRanGd=            0 ICorTp=0 IEmpDi=  4
 NAtoms=   12 NActive=   12 NUniq=   12 SFac= 1.00D+00 NAtFMM=   60 NAOKFM=F Big=F
 Integral buffers will be    131072 words long.
 Raffenetti 2 integral format.
 Two-electron integral symmetry is turned on.
 Leave Link  301 at Fri Sep 10 15:27:32 2021, MaxMem= 24159191040 cpu:         1.6
 (Enter /public/home/users/caep010/software/Gaussian09/g09/l302.exe)
 NPDir=0 NMtPBC=     1 NCelOv=     1 NCel=       1 NClECP=     1 NCelD=      1
         NCelK=      1 NCelE2=     1 NClLst=     1 CellRange=     0.0.
 One-electron integrals computed using PRISM.
 NBasis=   110 RedAO= T EigKep=  3.25D-03  NBF=   110
 NBsUse=   110 1.00D-06 EigRej= -1.00D+00 NBFU=   110
 Precomputing XC quadrature grid using
 IXCGrd= 4 IRadAn=           0 IRanWt=          -1 IRanGd=           0 AccXCQ= 0.00D+00.
 Generated NRdTot=       0 NPtTot=           0 NUsed=           0 NTot=          32
 NSgBfM=   110   110   110   110   110 MxSgAt=    12 MxSgA2=    12.
 Leave Link  302 at Fri Sep 10 15:27:32 2021, MaxMem= 24159191040 cpu:        11.0
 (Enter /public/home/users/caep010/software/Gaussian09/g09/l303.exe)
 DipDrv:  MaxL=1.
 Leave Link  303 at Fri Sep 10 15:27:32 2021, MaxMem= 24159191040 cpu:         0.6
 (Enter /public/home/users/caep010/software/Gaussian09/g09/l401.exe)
 Initial guess from the checkpoint file:  "/public/home/users/caep010/.cache/gau_scr/Gau-180426.chk"
 B after Tr=     0.000000    0.000000   -0.000000
         Rot=    0.999950    0.005111   -0.003936   -0.007679 Ang=   1.15 deg.
 Guess basis will be translated and rotated to current coordinates.
 JPrj=2 DoOrth=T DoCkMO=T.
 Generating alternative initial guess.
 ExpMin= 1.61D-01 ExpMax= 4.17D+03 ExpMxC= 6.27D+02 IAcc=1 IRadAn=         1 AccDes= 0.00D+00
 Harris functional with IExCor=  402 and IRadAn=       1 diagonalized for initial guess.
 HarFok:  IExCor=  402 AccDes= 0.00D+00 IRadAn=         1 IDoV= 1 UseB2=F ITyADJ=14
 ICtDFT=  3500011 ScaDFX=  1.000000  1.000000  1.000000  1.000000
 FoFCou: FMM=F IPFlag=           0 FMFlag=      100000 FMFlg1=           0
         NFxFlg=           0 DoJE=T BraDBF=F KetDBF=T FulRan=T
         wScrn=  0.000000 ICntrl=     500 IOpCl=  0 I1Cent=   200000004 NGrid=           0
         NMat0=    1 NMatS0=      1 NMatT0=    0 NMatD0=    1 NMtDS0=    0 NMtDT0=    0
 Petite list used in FoFCou.
 Harris En= -244.609912105978    
 Leave Link  401 at Fri Sep 10 15:27:33 2021, MaxMem= 24159191040 cpu:        21.5
 (Enter /public/home/users/caep010/software/Gaussian09/g09/l502.exe)
 Closed shell SCF:
 Using DIIS extrapolation, IDIIS=  1040.
 Integral symmetry usage will be decided dynamically.
 Keep R1 ints in memory in canonical form, NReq=19629370.
 IVT=       59205 IEndB=       59205 NGot= 24159191040 MDV= 24140493271
 LenX= 24140493271 LenY= 24140480730
 Requested convergence on RMS density matrix=1.00D-08 within 128 cycles.
 Requested convergence on MAX density matrix=1.00D-06.
 Requested convergence on             energy=1.00D-06.
 No special actions if energy rises.
 FoFCou: FMM=F IPFlag=           0 FMFlag=           0 FMFlg1=           0
         NFxFlg=           0 DoJE=F BraDBF=F KetDBF=F FulRan=T
         wScrn=  0.000000 ICntrl=     600 IOpCl=  0 I1Cent=           0 NGrid=           0
         NMat0=    1 NMatS0=   6105 NMatT0=    0 NMatD0=    1 NMtDS0=    0 NMtDT0=    0
 Symmetry not used in FoFCou.
 Integral accuracy reduced to 1.0D-05 until final iterations.

 Cycle   1  Pass 0  IDiag  1:
 E= -244.564484421889    
 DIIS: error= 9.53D-03 at cycle   1 NSaved=   1.
 NSaved= 1 IEnMin= 1 EnMin= -244.564484421889     IErMin= 1 ErrMin= 9.53D-03
 ErrMax= 9.53D-03  0.00D+00 EMaxC= 1.00D-01 BMatC= 1.77D-02 BMatP= 1.77D-02
 IDIUse=3 WtCom= 9.05D-01 WtEn= 9.53D-02
 Coeff-Com:  0.100D+01
 Coeff-En:   0.100D+01
 Coeff:      0.100D+01
 Gap=     1.913 Goal=   None    Shift=    0.000
 GapD=    1.913 DampG=2.000 DampE=1.000 DampFc=2.0000 IDamp=-1.
 RMSDP=2.29D-03 MaxDP=4.68D-02              OVMax= 7.59D-02

 Cycle   2  Pass 0  IDiag  1:
 E= -244.596331402916     Delta-E=       -0.031846981027 Rises=F Damp=F
 DIIS: error= 1.29D-03 at cycle   2 NSaved=   2.
 NSaved= 2 IEnMin= 2 EnMin= -244.596331402916     IErMin= 2 ErrMin= 1.29D-03
 ErrMax= 1.29D-03  0.00D+00 EMaxC= 1.00D-01 BMatC= 5.33D-04 BMatP= 1.77D-02
 IDIUse=3 WtCom= 9.87D-01 WtEn= 1.29D-02
 Coeff-Com: -0.437D-01 0.104D+01
 Coeff-En:   0.000D+00 0.100D+01
 Coeff:     -0.432D-01 0.104D+01
 Gap=     0.242 Goal=   None    Shift=    0.000
 RMSDP=4.38D-04 MaxDP=9.18D-03 DE=-3.18D-02 OVMax= 2.34D-02

 Cycle   3  Pass 0  IDiag  1:
 E= -244.596075389214     Delta-E=        0.000256013702 Rises=F Damp=F
 DIIS: error= 2.31D-03 at cycle   3 NSaved=   3.
 NSaved= 3 IEnMin= 2 EnMin= -244.596331402916     IErMin= 2 ErrMin= 1.29D-03
 ErrMax= 2.31D-03  0.00D+00 EMaxC= 1.00D-01 BMatC= 8.53D-04 BMatP= 5.33D-04
 IDIUse=3 WtCom= 1.72D-01 WtEn= 8.28D-01
 Coeff-Com: -0.473D-01 0.613D+00 0.434D+00
 Coeff-En:   0.000D+00 0.603D+00 0.397D+00
 Coeff:     -0.814D-02 0.605D+00 0.404D+00
 Gap=     0.243 Goal=   None    Shift=    0.000
 RMSDP=3.12D-04 MaxDP=7.80D-03 DE= 2.56D-04 OVMax= 1.84D-02

 Cycle   4  Pass 0  IDiag  1:
 E= -244.596880291591     Delta-E=       -0.000804902377 Rises=F Damp=F
 DIIS: error= 5.51D-04 at cycle   4 NSaved=   4.
 NSaved= 4 IEnMin= 4 EnMin= -244.596880291591     IErMin= 4 ErrMin= 5.51D-04
 ErrMax= 5.51D-04  0.00D+00 EMaxC= 1.00D-01 BMatC= 4.81D-05 BMatP= 5.33D-04
 IDIUse=3 WtCom= 9.94D-01 WtEn= 5.51D-03
 Coeff-Com: -0.162D-01 0.178D+00 0.226D+00 0.613D+00
 Coeff-En:   0.000D+00 0.000D+00 0.338D-02 0.997D+00
 Coeff:     -0.161D-01 0.177D+00 0.225D+00 0.615D+00
 Gap=     0.242 Goal=   None    Shift=    0.000
 RMSDP=7.21D-05 MaxDP=1.89D-03 DE=-8.05D-04 OVMax= 4.13D-03

 Cycle   5  Pass 0  IDiag  1:
 E= -244.596926052704     Delta-E=       -0.000045761114 Rises=F Damp=F
 DIIS: error= 1.76D-04 at cycle   5 NSaved=   5.
 NSaved= 5 IEnMin= 5 EnMin= -244.596926052704     IErMin= 5 ErrMin= 1.76D-04
 ErrMax= 1.76D-04  0.00D+00 EMaxC= 1.00D-01 BMatC= 4.14D-06 BMatP= 4.81D-05
 IDIUse=3 WtCom= 9.98D-01 WtEn= 1.76D-03
 Coeff-Com: -0.562D-02 0.556D-01 0.949D-01 0.331D+00 0.524D+00
 Coeff-En:   0.000D+00 0.000D+00 0.000D+00 0.000D+00 0.100D+01
 Coeff:     -0.561D-02 0.555D-01 0.947D-01 0.331D+00 0.525D+00
 Gap=     0.242 Goal=   None    Shift=    0.000
 RMSDP=1.51D-05 MaxDP=4.49D-04 DE=-4.58D-05 OVMax= 3.95D-04

 Cycle   6  Pass 0  IDiag  1:
 E= -244.596929295737     Delta-E=       -0.000003243032 Rises=F Damp=F
 DIIS: error= 2.43D-05 at cycle   6 NSaved=   6.
 NSaved= 6 IEnMin= 6 EnMin= -244.596929295737     IErMin= 6 ErrMin= 2.43D-05
 ErrMax= 2.43D-05  0.00D+00 EMaxC= 1.00D-01 BMatC= 1.24D-07 BMatP= 4.14D-06
 IDIUse=1 WtCom= 1.00D+00 WtEn= 0.00D+00
 Coeff-Com: -0.354D-03-0.342D-03 0.993D-02 0.572D-01 0.181D+00 0.753D+00
 Coeff:     -0.354D-03-0.342D-03 0.993D-02 0.572D-01 0.181D+00 0.753D+00
 Gap=     0.242 Goal=   None    Shift=    0.000
 RMSDP=4.37D-06 MaxDP=7.28D-05 DE=-3.24D-06 OVMax= 1.11D-04

 Initial convergence to 1.0D-05 achieved.  Increase integral accuracy.
 Cycle   7  Pass 1  IDiag  1:
 E= -244.596907380282     Delta-E=        0.000021915455 Rises=F Damp=F
 DIIS: error= 9.40D-06 at cycle   1 NSaved=   1.
 NSaved= 1 IEnMin= 1 EnMin= -244.596907380282     IErMin= 1 ErrMin= 9.40D-06
 ErrMax= 9.40D-06  0.00D+00 EMaxC= 1.00D-01 BMatC= 3.17D-08 BMatP= 3.17D-08
 IDIUse=1 WtCom= 1.00D+00 WtEn= 0.00D+00
 Coeff-Com:  0.100D+01
 Coeff:      0.100D+01
 Gap=     0.242 Goal=   None    Shift=    0.000
 RMSDP=4.37D-06 MaxDP=7.28D-05 DE= 2.19D-05 OVMax= 5.84D-05

 Cycle   8  Pass 1  IDiag  1:
 E= -244.596907397099     Delta-E=       -0.000000016817 Rises=F Damp=F
 DIIS: error= 7.70D-06 at cycle   2 NSaved=   2.
 NSaved= 2 IEnMin= 2 EnMin= -244.596907397099     IErMin= 2 ErrMin= 7.70D-06
 ErrMax= 7.70D-06  0.00D+00 EMaxC= 1.00D-01 BMatC= 2.01D-08 BMatP= 3.17D-08
 IDIUse=1 WtCom= 1.00D+00 WtEn= 0.00D+00
 Coeff-Com:  0.431D+00 0.569D+00
 Coeff:      0.431D+00 0.569D+00
 Gap=     0.242 Goal=   None    Shift=    0.000
 RMSDP=1.59D-06 MaxDP=3.25D-05 DE=-1.68D-08 OVMax= 3.88D-05

 Cycle   9  Pass 1  IDiag  1:
 E= -244.596907412679     Delta-E=       -0.000000015580 Rises=F Damp=F
 DIIS: error= 3.12D-06 at cycle   3 NSaved=   3.
 NSaved= 3 IEnMin= 3 EnMin= -244.596907412679     IErMin= 3 ErrMin= 3.12D-06
 ErrMax= 3.12D-06  0.00D+00 EMaxC= 1.00D-01 BMatC= 3.03D-09 BMatP= 2.01D-08
 IDIUse=1 WtCom= 1.00D+00 WtEn= 0.00D+00
 Coeff-Com:  0.260D-01 0.277D+00 0.697D+00
 Coeff:      0.260D-01 0.277D+00 0.697D+00
 Gap=     0.242 Goal=   None    Shift=    0.000
 RMSDP=5.11D-07 MaxDP=1.44D-05 DE=-1.56D-08 OVMax= 2.23D-05

 Cycle  10  Pass 1  IDiag  1:
 E= -244.596907414696     Delta-E=       -0.000000002017 Rises=F Damp=F
 DIIS: error= 1.64D-06 at cycle   4 NSaved=   4.
 NSaved= 4 IEnMin= 4 EnMin= -244.596907414696     IErMin= 4 ErrMin= 1.64D-06
 ErrMax= 1.64D-06  0.00D+00 EMaxC= 1.00D-01 BMatC= 5.10D-10 BMatP= 3.03D-09
 IDIUse=1 WtCom= 1.00D+00 WtEn= 0.00D+00
 Coeff-Com: -0.120D-01 0.130D+00 0.419D+00 0.464D+00
 Coeff:     -0.120D-01 0.130D+00 0.419D+00 0.464D+00
 Gap=     0.242 Goal=   None    Shift=    0.000
 RMSDP=2.16D-07 MaxDP=6.83D-06 DE=-2.02D-09 OVMax= 1.30D-05

 Cycle  11  Pass 1  IDiag  1:
 E= -244.596907415167     Delta-E=       -0.000000000471 Rises=F Damp=F
 DIIS: error= 4.15D-07 at cycle   5 NSaved=   5.
 NSaved= 5 IEnMin= 5 EnMin= -244.596907415167     IErMin= 5 ErrMin= 4.15D-07
 ErrMax= 4.15D-07  0.00D+00 EMaxC= 1.00D-01 BMatC= 2.80D-11 BMatP= 5.10D-10
 IDIUse=1 WtCom= 1.00D+00 WtEn= 0.00D+00
 Coeff-Com: -0.862D-02 0.601D-01 0.205D+00 0.270D+00 0.473D+00
 Coeff:     -0.862D-02 0.601D-01 0.205D+00 0.270D+00 0.473D+00
 Gap=     0.242 Goal=   None    Shift=    0.000
 RMSDP=5.40D-08 MaxDP=1.32D-06 DE=-4.71D-10 OVMax= 2.95D-06

 Cycle  12  Pass 1  IDiag  1:
 E= -244.596907415196     Delta-E=       -0.000000000028 Rises=F Damp=F
 DIIS: error= 9.26D-08 at cycle   6 NSaved=   6.
 NSaved= 6 IEnMin= 6 EnMin= -244.596907415196     IErMin= 6 ErrMin= 9.26D-08
 ErrMax= 9.26D-08  0.00D+00 EMaxC= 1.00D-01 BMatC= 1.17D-12 BMatP= 2.80D-11
 IDIUse=1 WtCom= 1.00D+00 WtEn= 0.00D+00
 Coeff-Com: -0.283D-02 0.157D-01 0.564D-01 0.807D-01 0.225D+00 0.625D+00
 Coeff:     -0.283D-02 0.157D-01 0.564D-01 0.807D-01 0.225D+00 0.625D+00
 Gap=     0.242 Goal=   None    Shift=    0.000
 RMSDP=1.18D-08 MaxDP=2.68D-07 DE=-2.84D-11 OVMax= 3.89D-07

 Cycle  13  Pass 1  IDiag  1:
 E= -244.596907415192     Delta-E=        0.000000000003 Rises=F Damp=F
 DIIS: error= 1.43D-08 at cycle   7 NSaved=   7.
 NSaved= 7 IEnMin= 6 EnMin= -244.596907415196     IErMin= 7 ErrMin= 1.43D-08
 ErrMax= 1.43D-08  0.00D+00 EMaxC= 1.00D-01 BMatC= 6.16D-14 BMatP= 1.17D-12
 IDIUse=1 WtCom= 1.00D+00 WtEn= 0.00D+00
 Coeff-Com: -0.167D-03-0.380D-03-0.106D-03 0.209D-02 0.396D-01 0.237D+00
 Coeff-Com:  0.722D+00
 Coeff:     -0.167D-03-0.380D-03-0.106D-03 0.209D-02 0.396D-01 0.237D+00
 Coeff:      0.722D+00
 Gap=     0.242 Goal=   None    Shift=    0.000
 RMSDP=2.82D-09 MaxDP=5.72D-08 DE= 3.18D-12 OVMax= 8.73D-08

 SCF Done:  E(RB3LYP) =  -244.596907415     A.U. after   13 cycles
            NFock= 13  Conv=0.28D-08     -V/T= 2.0093
 KE= 2.423482183882D+02 PE=-9.360525526427D+02 EE= 2.656582526600D+02
 Leave Link  502 at Fri Sep 10 15:27:35 2021, MaxMem= 24159191040 cpu:        32.9
 (Enter /public/home/users/caep010/software/Gaussian09/g09/l701.exe)
 Compute integral first derivatives.
 ... and contract with generalized density number  0.
 Leave Link  701 at Fri Sep 10 15:27:35 2021, MaxMem= 24159191040 cpu:        11.5
 (Enter /public/home/users/caep010/software/Gaussian09/g09/l702.exe)
 L702 exits ... SP integral derivatives will be done elsewhere.
 Leave Link  702 at Fri Sep 10 15:27:35 2021, MaxMem= 24159191040 cpu:         0.5
 (Enter /public/home/users/caep010/software/Gaussian09/g09/l703.exe)
 Compute integral first derivatives, UseDBF=F ICtDFT=           0.
 Integral derivatives from FoFJK, PRISM(SPDF).
 Calling FoFJK, ICntrl=      2127 FMM=F ISym2X=0 I1Cent= 0 IOpClX= 0 NMat=1 NMatS=1 NMatT=0.
 FoFJK:  IHMeth= 1 ICntrl=    2127 DoSepK=F KAlg= 0 I1Cent=   0 FoldK=F
 IRaf=         0 NMat=   1 IRICut=       1 DoRegI=T DoRafI=F ISym2E= 0.
 FoFCou: FMM=F IPFlag=           0 FMFlag=      100000 FMFlg1=         800
         NFxFlg=           0 DoJE=F BraDBF=F KetDBF=F FulRan=T
         wScrn=  0.000000 ICntrl=    2127 IOpCl=  0 I1Cent=           0 NGrid=           0
         NMat0=    1 NMatS0=      1 NMatT0=    0 NMatD0=    1 NMtDS0=    0 NMtDT0=    0
 Symmetry not used in FoFCou.
 Leave Link  703 at Fri Sep 10 15:27:36 2021, MaxMem= 24159191040 cpu:         9.9
 (Enter /public/home/users/caep010/software/Gaussian09/g09/l716.exe)
 Dipole        = 2.94934902D-01 4.37833479D-01-1.08576744D-01
 ***** Axes restored to original set *****
 -------------------------------------------------------------------
 Center     Atomic                   Forces (Hartrees/Bohr)
 Number     Number              X              Y              Z
 -------------------------------------------------------------------
      1        6          -0.000546274    0.000021914   -0.000464650
      2        6           0.011009979    0.001997781   -0.008907936
      3        7          -0.007270745   -0.001549801    0.009631027
      4        7          -0.002664697   -0.002611130   -0.000439343
      5        7          -0.001544557    0.003274697   -0.001452760
      6        1           0.000183364   -0.000086033   -0.000003354
      7        1           0.000233172   -0.000048571    0.000014055
      8        1           0.000647903    0.000641486    0.000112937
      9        1           0.000507373   -0.001542183    0.001047654
     10        1           0.000674557    0.000150086   -0.000266339
     11        1          -0.001348551    0.000020318    0.001452771
     12        1           0.000118476   -0.000268564   -0.000724062
 -------------------------------------------------------------------
 Cartesian Forces:  Max     0.011009979 RMS     0.003300650
 Leave Link  716 at Fri Sep 10 15:27:36 2021, MaxMem= 24159191040 cpu:         0.7
 (Enter /public/home/users/caep010/software/Gaussian09/g09/l103.exe)

 GradGradGradGradGradGradGradGradGradGradGradGradGradGradGradGradGradGrad
 Berny optimization.
 Using GEDIIS/GDIIS optimizer.
 FormGI is forming the generalized inverse of G from B-inverse, IUseBI=4.
 Internal  Forces:  Max     0.014833481 RMS     0.002557266
 Search for a local minimum.
 Step number   2 out of a maximum of   52
 All quantities printed in internal units (Hartrees-Bohrs-Radians)
 RMS Force = .25573D-02 SwitMx=.10000D-02 MixMth= 1
 Mixed Optimization -- RFO/linear search
 Update second derivatives using D2CorX and points    1    2
 DE= -7.62D-03 DEPred=-9.47D-03 R= 8.04D-01
 TightC=F SS=  1.41D+00  RLast= 7.81D-01 DXNew= 5.0454D-01 2.3436D+00
 Trust test= 8.04D-01 RLast= 7.81D-01 DXMaxT set to 5.05D-01
 ITU=  1  0
 Use linear search instead of GDIIS.
     Eigenvalues ---   -0.01641   0.00476   0.00909   0.01542   0.02330
     Eigenvalues ---    0.02951   0.03819   0.04253   0.04847   0.09724
     Eigenvalues ---    0.10460   0.12083   0.14509   0.15778   0.18983
     Eigenvalues ---    0.20699   0.21405   0.22482   0.23093   0.31533
     Eigenvalues ---    0.35170   0.35854   0.36238   0.36287   0.36979
     Eigenvalues ---    0.37034   0.38026   0.40321   0.45182   0.64422
 Eigenvalue     1 is  -1.64D-02 should be greater than     0.000000 Eigenvector:
                          D13       D14       D8        D6        D9
[...]

 GradGradGradGradGradGradGradGradGradGradGradGradGradGradGradGradGradGrad
 Berny optimization.
 Red2BG is reusing G-inverse.
 Internal  Forces:  Max     0.000015336 RMS     0.000004435
 Search for a local minimum.
 Step number   1 out of a maximum of    2
 All quantities printed in internal units (Hartrees-Bohrs-Radians)
 Second derivative matrix not updated -- analytic derivatives used.
 ITU=  0
     Eigenvalues ---    0.00433   0.00781   0.01445   0.01705   0.02306
     Eigenvalues ---    0.02934   0.03677   0.04672   0.05067   0.10326
     Eigenvalues ---    0.10710   0.12988   0.14792   0.16119   0.19702
     Eigenvalues ---    0.20773   0.22255   0.24172   0.26631   0.36241
     Eigenvalues ---    0.36650   0.36974   0.37835   0.39786   0.41691
     Eigenvalues ---    0.42100   0.43535   0.44403   0.44963   0.62230
 Angle between quadratic step and forces=  70.32 degrees.
 Linear search not attempted -- first point.
 Iteration  1 RMS(Cart)=  0.00009116 RMS(Int)=  0.00000000
 Iteration  2 RMS(Cart)=  0.00000001 RMS(Int)=  0.00000000
 ITry= 1 IFail=0 DXMaxC= 3.52D-04 DCOld= 1.00D+10 DXMaxT= 3.00D-01 DXLimC= 3.00D+00 Rises=F
 Variable       Old X    -DE/DX   Delta X   Delta X   Delta X     New X
                                 (Linear)    (Quad)   (Total)
    R1        2.53407  -0.00000   0.00000  -0.00000  -0.00000   2.53407
    R2        2.04600  -0.00000   0.00000  -0.00000  -0.00000   2.04600
    R3        2.04879   0.00000   0.00000   0.00000   0.00000   2.04880
    R4        2.63972  -0.00001   0.00000  -0.00002  -0.00002   2.63970
    R5        2.05018   0.00000   0.00000   0.00000   0.00000   2.05018
    R6        2.67960   0.00001   0.00000   0.00001   0.00001   2.67961
    R7        2.67645  -0.00000   0.00000   0.00002   0.00002   2.67647
    R8        1.92407   0.00001   0.00000   0.00001   0.00001   1.92408
    R9        1.93942   0.00001   0.00000   0.00001   0.00001   1.93943
   R10        1.92213   0.00001   0.00000   0.00002   0.00002   1.92215
   R11        1.93579   0.00000   0.00000   0.00001   0.00001   1.93580
    A1        2.08826  -0.00000   0.00000   0.00000   0.00000   2.08826
    A2        2.14816   0.00000   0.00000   0.00000   0.00000   2.14816
    A3        2.04591  -0.00000   0.00000  -0.00001  -0.00001   2.04590
    A4        2.20623   0.00000   0.00000   0.00001   0.00001   2.20624
    A5        2.12361  -0.00000   0.00000   0.00000   0.00000   2.12361
    A6        1.95270  -0.00000   0.00000  -0.00001  -0.00001   1.95269
    A7        2.05759   0.00002   0.00000   0.00004   0.00004   2.05764
    A8        1.97426  -0.00001   0.00000  -0.00007  -0.00007   1.97419
    A9        1.98972  -0.00000   0.00000  -0.00003  -0.00003   1.98969
   A10        1.88294   0.00000   0.00000   0.00002   0.00002   1.88296
   A11        1.90734  -0.00000   0.00000  -0.00000  -0.00000   1.90733
   A12        1.86673   0.00000   0.00000   0.00003   0.00003   1.86675
   A13        1.85822   0.00000   0.00000  -0.00001  -0.00001   1.85821
   A14        1.90549  -0.00000   0.00000  -0.00004  -0.00004   1.90545
   A15        1.85383   0.00000   0.00000  -0.00002  -0.00002   1.85381
    D1       -3.08408  -0.00000   0.00000  -0.00002  -0.00002  -3.08410
    D2        0.01567  -0.00000   0.00000  -0.00001  -0.00001   0.01567
    D3        0.01170  -0.00000   0.00000  -0.00005  -0.00005   0.01165
    D4        3.11146  -0.00000   0.00000  -0.00003  -0.00003   3.11142
    D5       -0.29143  -0.00000   0.00000  -0.00015  -0.00015  -0.29158
    D6       -2.67525   0.00000   0.00000  -0.00007  -0.00007  -2.67531
    D7        2.88853  -0.00000   0.00000  -0.00016  -0.00016   2.88836
    D8        0.50471  -0.00000   0.00000  -0.00008  -0.00008   0.50463
    D9        1.42423   0.00000   0.00000   0.00021   0.00021   1.42445
   D10       -0.59942   0.00000   0.00000   0.00018   0.00018  -0.59925
   D11       -2.48156  -0.00000   0.00000   0.00012   0.00012  -2.48144
   D12        1.77797  -0.00000   0.00000   0.00008   0.00008   1.77805
   D13       -2.72911   0.00000   0.00000  -0.00006  -0.00006  -2.72917
   D14        1.55959   0.00000   0.00000  -0.00002  -0.00002   1.55957
   D15        1.13994  -0.00000   0.00000  -0.00002  -0.00002   1.13993
   D16       -0.85454  -0.00000   0.00000   0.00002   0.00002  -0.85452
         Item               Value     Threshold  Converged?
 Maximum Force            0.000015     0.000450     YES
 RMS     Force            0.000004     0.000300     YES
 Maximum Displacement     0.000352     0.001800     YES
 RMS     Displacement     0.000091     0.001200     YES
 Predicted change in Energy=-2.040848D-09
 Optimization completed.
    -- Stationary point found.
                           ----------------------------
                           !   Optimized Parameters   !
                           ! (Angstroms and Degrees)  !
 --------------------------                            --------------------------
 ! Name  Definition              Value          Derivative Info.                !
 --------------------------------------------------------------------------------
 ! R1    R(1,2)                  1.341          -DE/DX =    0.0                 !
 ! R2    R(1,6)                  1.0827         -DE/DX =    0.0                 !
 ! R3    R(1,7)                  1.0842         -DE/DX =    0.0                 !
 ! R4    R(2,3)                  1.3969         -DE/DX =    0.0                 !
 ! R5    R(2,8)                  1.0849         -DE/DX =    0.0                 !
 ! R6    R(3,4)                  1.418          -DE/DX =    0.0                 !
 ! R7    R(3,5)                  1.4163         -DE/DX =    0.0                 !
 ! R8    R(4,9)                  1.0182         -DE/DX =    0.0                 !
 ! R9    R(4,10)                 1.0263         -DE/DX =    0.0                 !
 ! R10   R(5,11)                 1.0171         -DE/DX =    0.0                 !
 ! R11   R(5,12)                 1.0244         -DE/DX =    0.0                 !
 ! A1    A(2,1,6)              119.6485         -DE/DX =    0.0                 !
 ! A2    A(2,1,7)              123.0804         -DE/DX =    0.0                 !
 ! A3    A(6,1,7)              117.2219         -DE/DX =    0.0                 !
 ! A4    A(1,2,3)              126.4074         -DE/DX =    0.0                 !
 ! A5    A(1,2,8)              121.674          -DE/DX =    0.0                 !
 ! A6    A(3,2,8)              111.8816         -DE/DX =    0.0                 !
 ! A7    A(2,3,4)              117.8914         -DE/DX =    0.0                 !
 ! A8    A(2,3,5)              113.1168         -DE/DX =    0.0                 !
 ! A9    A(4,3,5)              114.0026         -DE/DX =    0.0                 !
 ! A10   A(3,4,9)              107.8845         -DE/DX =    0.0                 !
 ! A11   A(3,4,10)             109.2823         -DE/DX =    0.0                 !
 ! A12   A(9,4,10)             106.9555         -DE/DX =    0.0                 !
 ! A13   A(3,5,11)             106.4682         -DE/DX =    0.0                 !
 ! A14   A(3,5,12)             109.1763         -DE/DX =    0.0                 !
 ! A15   A(11,5,12)            106.2166         -DE/DX =    0.0                 !
 ! D1    D(6,1,2,3)           -176.7049         -DE/DX =    0.0                 !
 ! D2    D(6,1,2,8)              0.898          -DE/DX =    0.0                 !
 ! D3    D(7,1,2,3)              0.6705         -DE/DX =    0.0                 !
 ! D4    D(7,1,2,8)            178.2734         -DE/DX =    0.0                 !
 ! D5    D(1,2,3,4)            -16.698          -DE/DX =    0.0                 !
 ! D6    D(1,2,3,5)           -153.2803         -DE/DX =    0.0                 !
 ! D7    D(8,2,3,4)            165.5004         -DE/DX =    0.0                 !
 ! D8    D(8,2,3,5)             28.918          -DE/DX =    0.0                 !
 ! D9    D(2,3,4,9)             81.6026         -DE/DX =    0.0                 !
 ! D10   D(2,3,4,10)           -34.3445         -DE/DX =    0.0                 !
 ! D11   D(5,3,4,9)           -142.1829         -DE/DX =    0.0                 !
 ! D12   D(5,3,4,10)           101.87           -DE/DX =    0.0                 !
 ! D13   D(2,3,5,11)          -156.3662         -DE/DX =    0.0                 !
 ! D14   D(2,3,5,12)            89.358          -DE/DX =    0.0                 !
 ! D15   D(4,3,5,11)            65.314          -DE/DX =    0.0                 !
 ! D16   D(4,3,5,12)           -48.9618         -DE/DX =    0.0                 !
 --------------------------------------------------------------------------------
 GradGradGradGradGradGradGradGradGradGradGradGradGradGradGradGradGradGrad

 Leave Link  103 at Fri Sep 10 15:28:05 2021, MaxMem= 24159191040 cpu:         1.0
 (Enter /public/home/users/caep010/software/Gaussian09/g09/l9999.exe)
 1\1\GINC-B1178\Freq\RB3LYP\6-31G(d,p)\C2H7N3\ROOT\10-Sep-2021\0\\#P Ge
 om=AllCheck Guess=TCheck SCRF=Check GenChk RB3LYP/6-31G(d,p) Freq\\Fra
 g_361\\0,1\C,1.6025759586,-0.4347218436,-0.7834098286\C,0.8031300481,0
 .5068150713,-0.2612934158\N,-0.3164429914,0.2896925024,0.5453585052\N,
 -0.8768909502,-1.0126735143,0.5656326891\N,-1.2753704607,1.3282414933,
 0.4569003569\H,2.4756812529,-0.140771992,-1.3521916246\H,1.4439691228,
 -1.4964236173,-0.631528136\H,0.998968698,1.5641700288,-0.405065072\H,-
 0.3289278962,-1.5788776186,1.2104789644\H,-0.7794428252,-1.4380603802,
 -0.3632570459\H,-1.8151519199,1.2964509723,1.3184210644\H,-1.932098036
 8,1.1162588979,-0.3001464571\\Version=ES64L-G09RevE.01\State=1-A\HF=-2
 44.5986792\RMSD=5.754e-09\RMSF=5.391e-06\ZeroPoint=0.1035859\Thermal=0
 .1094137\Dipole=-0.2776856,-0.4117421,-0.1010189\DipoleDeriv=-0.400694
 3,0.1148823,-0.0598493,0.2502739,-0.1086585,-0.2041194,-0.0110509,-0.0
 95269,-0.4053579,0.6972944,-0.1707972,-0.4888438,-0.0115834,0.1074618,
 0.057079,-0.6127194,0.2154661,0.4234219,-0.3123139,-0.0747801,0.100909
 4,-0.0795631,0.2733232,-0.0115163,0.6339132,-0.2481923,-0.6867203,-0.4
 802255,-0.135937,0.2060723,0.1647932,-0.2409984,0.0585631,0.0698996,0.
 094105,0.0080525,-0.0648461,-0.0724944,0.1199228,-0.1628627,-0.4647719
 ,0.0362223,-0.0306784,0.1146219,0.0371691,-0.0199943,-0.0261437,0.1009
 348,-0.037988,0.0336542,0.0308906,0.0751748,0.0028213,0.0893998,0.0894
 348,-0.0555243,0.052776,-0.0210786,-0.0862965,0.0271667,0.0553884,0.05
 79342,0.1172819,0.0799991,-0.0207232,0.0239941,-0.0397774,-0.050769,0.
 0212903,0.0547922,0.0140835,0.0895999,0.1506568,0.1449493,-0.1431469,0
 .0439839,0.0452894,0.0179419,-0.0810083,-0.0369606,0.1753645,0.2513428
 ,0.1053627,0.0767886,-0.0245355,0.0297845,0.0089773,-0.0596288,-0.1088
 084,-0.0027891,0.0666099,0.0817454,0.0731963,-0.0469439,0.2687119,0.10
 18828,0.0381907,0.0349396,0.0792429,-0.0572636,0.1094602,-0.0627544,-0
 .0347185,0.1932693,-0.1443783,-0.1322732,-0.0447412,0.0753349\Polar=50
 .7899533,-7.7154801,47.1375069,-12.0830992,2.7274352,34.4078409\PG=C01
  [X(C2H7N3)]\NImag=0\\0.55004049,-0.08686755,0.73805174,-0.30876235,0.
 03756731,0.28522951,-0.23620119,0.16993347,0.11781396,0.55238602,0.176
 56107,-0.33598074,-0.11065241,-0.11263172,0.82011747,0.12121206,-0.104
 77112,-0.12349007,-0.25909818,0.05853267,0.30330943,-0.02739795,0.0042
 8631,0.02781237,-0.21026105,-0.02436800,0.13711387,0.57303408,0.017737
 56,0.01374380,-0.01508964,-0.01877204,-0.11564867,0.02438887,-0.025506
 13,0.50079556,0.03240775,-0.01513157,-0.01567786,0.07811226,0.02289381
 ,-0.10675812,-0.15216669,-0.02681023,0.22782632,-0.00032235,0.00044669
 ,0.00105211,-0.01255393,-0.03435270,-0.00293369,-0.10160372,-0.0092010
 8,0.01185180,0.26239186,0.00768480,0.00160807,-0.00382073,-0.01656123,
 -0.02545435,-0.00287758,-0.06977240,-0.18302233,0.03561269,-0.07795314
 ,0.51179318,0.00009753,0.00495915,0.00061872,0.01732544,0.02053213,-0.
 01105497,-0.01337483,-0.02433340,-0.07013448,0.10504426,-0.03265262,0.
 61713167,-0.00034705,-0.00249792,0.00098224,-0.03607024,0.02818498,-0.
 00170770,-0.16706280,0.10458764,0.01041438,0.01498361,-0.00191794,-0.0
 0445704,0.51903548,-0.00141351,0.00218208,0.00205162,0.01282421,-0.000
 03932,-0.00423184,0.02824789,-0.12199846,-0.00288831,0.02258263,-0.056
 47331,0.01409191,-0.04798760,0.25601116,0.00080055,0.00472159,0.002474
 06,0.02885763,-0.02198175,-0.01521444,-0.00419829,0.01594879,-0.067606
 64,-0.00226633,-0.00109974,-0.00171814,-0.02128995,0.05398516,0.654560
 65,-0.23613977,-0.06508105,0.13972500,-0.01371685,-0.00828262,0.007600
 21,0.00195391,0.00163883,0.00366404,0.00038099,0.00160284,0.00100814,0
 .00082044,-0.00012652,0.00130140,0.24811766,-0.06954692,-0.07812665,0.
 04587695,0.02045144,0.00888057,-0.01343392,0.00197630,-0.00423120,-0.0
 0094652,-0.00164313,0.00022895,0.00073148,0.00069628,0.00035356,-0.000
 83846,0.06919893,0.07596344,0.13872091,0.04307348,-0.11374409,0.006439
 02,0.00517872,-0.00698850,0.00218991,-0.00289678,0.00846957,0.00071286
 ,0.00152587,0.00130280,0.00197089,-0.00028215,0.00023163,-0.14920081,-
 0.04566327,0.11719138,-0.05387949,-0.04125523,0.02057250,0.01004162,0.
 01784092,-0.00526702,-0.00159863,-0.00034465,-0.00149642,-0.00103438,0
 .00005585,-0.00077389,-0.00041596,-0.00048228,-0.00049802,-0.00062964,
 -0.02228206,0.00132799,0.04952280,-0.03975234,-0.32932961,0.04002259,-
 0.00602214,-0.01890879,0.00446352,-0.00171499,-0.00128108,0.00122437,-
 0.00250035,0.00157886,0.00080266,0.00058198,0.00047779,-0.00059106,0.0
 0082140,-0.00395192,-0.00045619,0.04510760,0.35161019,0.01951585,0.043
 98802,-0.04136211,-0.00047958,-0.01285820,0.00502804,-0.00258144,0.000
 98486,-0.00316378,-0.00070067,-0.00157914,-0.00216109,-0.00050238,0.00
 014760,-0.00028967,0.00018296,0.01428811,-0.00080154,-0.02146171,-0.04
 431944,0.03539192,0.00726931,0.01850001,-0.00176376,-0.05749173,-0.045
 64836,0.01413763,-0.00534161,-0.02699689,0.00430168,-0.00394544,-0.002
 24474,0.00495938,0.00004016,-0.00113418,-0.00070405,-0.00136286,-0.000
 14481,-0.00326240,0.00113849,0.00275113,0.00589701,0.06007900,-0.00448
 191,-0.01505025,0.00328933,-0.05344554,-0.32884666,0.03881845,-0.00042
 540,-0.00741043,0.00033227,-0.00075392,0.00134103,0.00114383,0.0025600
 3,0.00063293,-0.00169369,0.00009530,0.00091530,-0.00025300,0.00192043,
 -0.00068928,-0.00112785,0.05436483,0.34866463,-0.00116982,-0.01219298,
 0.00662363,0.01252460,0.03308338,-0.05094062,0.00638267,0.02205748,-0.
 00236964,0.00415265,0.00002111,0.00014244,-0.00057880,-0.00015188,-0.0
 0020260,-0.00334578,-0.00010514,-0.00440998,0.00615402,-0.00158192,0.0
 0649595,-0.02375616,-0.04056043,0.04429638,-0.00022420,0.00069355,-0.0
 0043858,0.00107394,-0.00336856,0.00070681,0.00233256,-0.02037561,0.018
 57976,-0.14038528,0.12947468,-0.17732844,0.00072791,0.00248966,-0.0001
 3773,-0.00017097,0.00020135,-0.00038070,-0.00011389,0.00013104,0.00119
 509,-0.00074318,-0.00015456,-0.00037465,0.14036139,-0.00039232,0.00031
 085,0.00013789,0.00132892,-0.00045137,0.00127026,0.01999864,-0.0298647
 0,0.01670805,0.09558404,-0.15327658,0.12280606,-0.00117891,-0.00885920
 ,0.00258746,0.00002455,0.00015708,-0.00003212,-0.00035303,0.00029564,0
 .00032793,-0.00017501,-0.00009999,-0.00041652,-0.10733275,0.18093643,-
 0.00072445,0.00065547,0.00039437,-0.00060481,0.00067871,-0.00011767,0.
 00345888,0.00208590,0.00358465,-0.12979871,0.11241497,-0.19535719,0.00
 108364,-0.00411535,0.00103798,-0.00017722,-0.00053767,0.00000968,0.000
 42790,-0.00057676,-0.00041262,0.00007442,-0.00010054,0.00025830,0.1483
 7702,-0.13143178,0.21547907,-0.00044126,0.00163649,0.00035062,0.003679
 84,-0.00206008,-0.00721054,-0.00792172,-0.01932326,-0.01183094,-0.0213
 6290,0.03244230,0.06525579,0.00028534,0.00181035,0.00041242,0.00082434
 ,0.00067247,0.00084468,-0.00296547,0.00059619,-0.00083369,0.00077451,0
 .00032647,0.00027683,-0.00304584,-0.00702613,-0.02259025,0.03031138,-0
 .00079260,0.00211405,0.00178113,0.00546918,0.00022188,-0.00439865,-0.0
 0238581,-0.03136236,-0.03133884,0.00839076,-0.10566773,-0.10860338,-0.
 00240939,-0.00232360,-0.00221840,0.00009725,0.00018086,0.00000934,-0.0
 0041523,0.00031468,-0.00007870,0.00061185,0.00007709,0.00008622,-0.000
 82292,0.01050108,0.02087922,-0.00930312,0.12614696,-0.00102718,-0.0029
 0460,-0.00101673,-0.00041688,0.00383533,0.00420159,0.00164167,-0.00540
 502,0.00846126,0.01300871,-0.10738405,-0.33995236,0.00086415,0.0001420
 8,-0.00002705,-0.00051846,0.00058998,-0.00099153,0.00090674,0.00098298
 ,0.00110446,0.00017546,0.00015101,-0.00005514,0.00995650,-0.01224379,-
 0.02488782,-0.02457280,0.12345359,0.35432548,-0.00118896,-0.00088014,0
 .00046123,-0.00296499,0.00711867,0.00213419,-0.02541065,-0.00304585,0.
 02260542,0.00124947,-0.00054385,-0.00058180,-0.14878380,0.01343904,0.1
 6729525,-0.00025209,0.00033624,0.00025478,0.00001807,0.00008405,-0.000
 04791,0.00024243,0.00019757,-0.00002536,0.00017229,-0.00005671,0.00013
 187,-0.00020515,0.00020728,-0.00004279,0.16483573,0.00069006,0.0009356
 9,-0.00040715,0.00050700,-0.00351596,-0.00041133,0.03324814,-0.0117353
 6,-0.02406633,-0.00095251,0.00183843,-0.00187400,-0.02037364,-0.020110
 97,0.05330291,0.00021141,-0.00028535,0.00001461,-0.00007595,-0.0000705
 9,0.00000884,0.00021300,0.00047875,0.00014882,0.00019820,0.00079964,-0
 .00000167,-0.00082432,-0.00078956,-0.00052133,-0.01348851,0.03568672,-
 0.00063822,0.00010846,0.00054553,-0.00061393,0.00053217,0.00080723,-0.
 00188360,0.00328819,0.00957189,-0.00127070,0.00095404,-0.00040817,0.15
 328731,0.00343954,-0.32990120,-0.00018351,0.00002221,-0.00004284,0.000
 08981,-0.00003787,-0.00002175,-0.00017810,-0.00011871,0.00000865,-0.00
 061211,0.00052276,0.00022662,0.00006959,0.00013935,-0.00030478,-0.1668
 5863,-0.01385743,0.34671698,-0.00116756,0.00108537,0.00219464,0.002078
 56,0.00100641,-0.00668765,-0.03072242,-0.00039852,-0.01644306,0.002202
 10,-0.00226717,0.00282545,-0.18321308,-0.03024971,-0.16957288,0.000174
 84,0.00008392,0.00038288,-0.00008350,-0.00008357,-0.00018352,-0.000659
 07,-0.00020330,-0.00024021,0.00001527,-0.00042128,0.00034171,0.0000669
 3,0.00135275,0.00002488,0.01228766,0.00064712,0.01879210,0.19902027,0.
 00057365,-0.00045905,-0.00075690,-0.00308155,-0.00037406,0.00265066,0.
 03641546,-0.00798477,0.02441061,0.00035269,0.00550578,0.00239618,-0.06
 024553,-0.04985266,-0.10212281,-0.00020030,-0.00008465,-0.00021852,0.0
 0028364,-0.00004589,0.00021798,-0.00009683,-0.00001312,-0.00038814,-0.
 00113410,-0.00044889,0.00004949,0.00105264,0.00058665,-0.00069619,-0.0
 0336777,-0.00323145,0.00500729,0.02944800,0.05640210,-0.00043262,-0.00
 007322,-0.00059496,0.00014048,0.00022545,0.00121809,-0.00439452,0.0057
 8098,0.00779683,0.00114770,-0.00111483,0.00159078,-0.14006675,-0.06218
 838,-0.24334459,-0.00005599,0.00001625,-0.00022656,0.00001809,0.000067
 12,0.00019220,0.00011889,0.00011933,0.00015263,0.00045704,-0.00023620,
 -0.00021535,-0.00017172,0.00028911,-0.00085736,-0.02532626,-0.01233595
 ,-0.02719815,0.16856565,0.06945034,0.26148644\\-0.00000052,-0.00000115
 ,-0.00000182,0.00000939,-0.00000456,-0.00000755,-0.00001388,0.00000596
 ,0.00000591,0.00001160,-0.00000168,0.00000120,-0.00001169,-0.00000447,
 0.00000320,-0.00000221,0.00000104,-0.00000413,-0.00000034,0.00000102,0
 .00000032,-0.00000258,-0.00000046,-0.00000549,0.00000412,0.00000560,-0
 .00000079,0.00000240,-0.00000098,0.00001009,0.00000446,0.00000073,-0.0
 0000618,-0.00000077,-0.00000105,0.00000523\\\@


 LET US LEARN TO DREAM, GENTLEMEN, THEN PERHAPS WE SHALL
 DISCOVER THE TRUTH;  BUT LET US BEWARE OF PUBLISHING
 OUR DREAMS ABROAD BEFORE THEY HAVE BEEN SCRUTINIZED
 BY OUR VIGILANT INTELLECT ... LET US ALWAYS ALLOW
 THE FRUIT TO HANG UNTIL IT IS RIPE.  UNRIPE FRUIT
 BRINGS EVEN THE GROWER BUT LITTLE PROFIT; IT DAMAGES
 THE HEALTH OF THOSE WHO CONSUME IT; IT ENDANGERS
 PARTICULARLY THE YOUTH WHO CANNOT YET DISTINGUISH
 BETWEEN RIPE AND UNRIPE FRUIT.

                                  -- KEKULE, 1890
 Job cpu time:       0 days  0 hours  3 minutes 58.0 seconds.
 File lengths (MBytes):  RWF=     20 Int=      0 D2E=      0 Chk=      2 Scr=      1
 Normal termination of Gaussian 09 at Fri Sep 10 15:28:06 2021.
