 Entering Gaussian System, Link 0=g09
 Input=B3LYP6-31Gdp.Frag_626.gjf
 Output=B3LYP6-31Gdp.Frag_626.log
 Initial command:
 /public/home/users/caep010/software/Gaussian09/g09/l1.exe "/public/home/users/caep010/.cache/gau_scr/Gau-197095.inp" -scrdir="/public/home/users/caep010/.cache/gau_scr/"
 Entering Link 1 = /public/home/users/caep010/software/Gaussian09/g09/l1.exe PID=    197096.
  
 Copyright (c) 1988,1990,1992,1993,1995,1998,2003,2009,2015,
            Gaussian, Inc.  All Rights Reserved.
  
 This is part of the Gaussian(R) 09 program.  It is based on
 the Gaussian(R) 03 system (copyright 2003, Gaussian, Inc.),
 the Gaussian(R) 98 system (copyright 1998, Gaussian, Inc.),
 the Gaussian(R) 94 system (copyright 1995, Gaussian, Inc.),
 the Gaussian 92(TM) system (copyright 1992, Gaussian, Inc.),
 the Gaussian 90(TM) system (copyright 1990, Gaussian, Inc.),
 the Gaussian 88(TM) system (copyright 1988, Gaussian, Inc.),
 the Gaussian 86(TM) system (copyright 1986, Carnegie Mellon
 University), and the Gaussian 82(TM) system (copyright 1983,
 Carnegie Mellon University). Gaussian is a federally registered
 trademark of Gaussian, Inc.
  
 This software contains proprietary and confidential information,
 including trade secrets, belonging to Gaussian, Inc.
  
 This software is provided under written license and may be
 used, copied, transmitted, or stored only in accord with that
 written license.
  
 The following legend is applicable only to US Government
 contracts under FAR:
  
                    RESTRICTED RIGHTS LEGEND
  
 Use, reproduction and disclosure by the US Government is
 subject to restrictions as set forth in subparagraphs (a)
 and (c) of the Commercial Computer Software - Restricted
 Rights clause in FAR 52.227-19.
  
 Gaussian, Inc.
 340 Quinnipiac St., Bldg. 40, Wallingford CT 06492
  
  
 ---------------------------------------------------------------
 Warning -- This program may not be used in any manner that
 competes with the business of Gaussian, Inc. or will provide
 assistance to any competitor of Gaussian, Inc.  The licensee
 of this program is prohibited from giving any competitor of
 Gaussian, Inc. access to this program.  By using this program,
 the user acknowledges that Gaussian, Inc. is engaged in the
 business of creating and licensing software in the field of
 computational chemistry and represents and warrants to the
 licensee that it is not a competitor of Gaussian, Inc. and that
 it will not use this program in any manner prohibited above.
 ---------------------------------------------------------------
  

 Cite this work as:
 Gaussian 09, Revision E.01,
 M. J. Frisch, G. W. Trucks, H. B. Schlegel, G. E. Scuseria, 
 M. A. Robb, J. R. Cheeseman, G. Scalmani, V. Barone, B. Mennucci, 
 G. A. Petersson, H. Nakatsuji, M. Caricato, X. Li, H. P. Hratchian, 
 A. F. Izmaylov, J. Bloino, G. Zheng, J. L. Sonnenberg, M. Hada, 
 M. Ehara, K. Toyota, R. Fukuda, J. Hasegawa, M. Ishida, T. Nakajima, 
 Y. Honda, O. Kitao, H. Nakai, T. Vreven, J. A. Montgomery, Jr., 
 J. E. Peralta, F. Ogliaro, M. Bearpark, J. J. Heyd, E. Brothers, 
 K. N. Kudin, V. N. Staroverov, T. Keith, R. Kobayashi, J. Normand, 
 K. Raghavachari, A. Rendell, J. C. Burant, S. S. Iyengar, J. Tomasi, 
 M. Cossi, N. Rega, J. M. Millam, M. Klene, J. E. Knox, J. B. Cross, 
 V. Bakken, C. Adamo, J. Jaramillo, R. Gomperts, R. E. Stratmann, 
 O. Yazyev, A. J. Austin, R. Cammi, C. Pomelli, J. W. Ochterski, 
 R. L. Martin, K. Morokuma, V. G. Zakrzewski, G. A. Voth, 
 P. Salvador, J. J. Dannenberg, S. Dapprich, A. D. Daniels, 
 O. Farkas, J. B. Foresman, J. V. Ortiz, J. Cioslowski, 
 and D. J. Fox, Gaussian, Inc., Wallingford CT, 2013.
 
 ******************************************
 Gaussian 09:  ES64L-G09RevE.01 30-Nov-2015
                 8-Sep-2022 
 ******************************************
 %nproc=32
 Will use up to   32 processors via shared memory.
 %mem=180GB
 %chk=B3LYP6-31Gdp.Frag_626.chk
 ----------------------------
 #P OPT Freq B3LYP/6-31G(d,p)
 ----------------------------
 1/14=-1,18=20,19=15,26=3,38=1/1,3;
 2/9=110,12=2,17=6,18=5,40=1/2;
 3/5=1,6=6,7=101,11=2,16=1,25=1,30=1,71=1,74=-5/1,2,3;
 4//1;
 5/5=2,38=5/2;
 6/7=2,8=2,9=2,10=2,28=1/1;
 7//1,2,3,16;
 1/14=-1,18=20,19=15,26=3/3(2);
 2/9=110/2;
 99//99;
 2/9=110/2;
 3/5=1,6=6,7=101,11=2,16=1,25=1,30=1,71=1,74=-5/1,2,3;
 4/5=5,16=3,69=1/1;
 5/5=2,38=5/2;
 7//1,2,3,16;
 1/14=-1,18=20,19=15,26=3/3(-5);
 2/9=110/2;
 6/7=2,8=2,9=2,10=2,19=2,28=1/1;
 99/9=1/99;
 Leave Link    1 at Thu Sep  8 15:01:42 2022, MaxMem= 24159191040 cpu:         2.5
 (Enter /public/home/users/caep010/software/Gaussian09/g09/l101.exe)
 --------
 Frag_626
 --------
 Symbolic Z-matrix:
 Charge =  0 Multiplicity = 1
 C                    -1.52808  -0.07755  -0.02352 
 N                    -0.1838   -0.63948  -0.05981 
 C                     0.88811   0.2322    0.03368 
 N                     0.75239   1.49244   0.06674 
 O                     2.10072  -0.40085   0.06206 
 H                    -2.24899  -0.88266  -0.18566 
 H                    -1.62579   0.65717  -0.82416 
 H                    -1.75196   0.43032   0.92286 
 H                    -0.07158  -1.47378   0.50006 
 H                     1.66478   1.94058   0.01294 
 H                     2.00431  -1.27849  -0.32719 
 
 NAtoms=     11 NQM=       11 NQMF=       0 NMMI=      0 NMMIF=      0
                NMic=       0 NMicF=      0.
                    Isotopes and Nuclear Properties:
 (Nuclear quadrupole moments (NQMom) in fm**2, nuclear magnetic moments (NMagM)
  in nuclear magnetons)

  Atom         1           2           3           4           5           6           7           8           9          10
 IAtWgt=          12          14          12          14          16           1           1           1           1           1
 AtmWgt=  12.0000000  14.0030740  12.0000000  14.0030740  15.9949146   1.0078250   1.0078250   1.0078250   1.0078250   1.0078250
 NucSpn=           0           2           0           2           0           1           1           1           1           1
 AtZEff=   0.0000000   0.0000000   0.0000000   0.0000000   0.0000000   0.0000000   0.0000000   0.0000000   0.0000000   0.0000000
 NQMom=    0.0000000   2.0440000   0.0000000   2.0440000   0.0000000   0.0000000   0.0000000   0.0000000   0.0000000   0.0000000
 NMagM=    0.0000000   0.4037610   0.0000000   0.4037610   0.0000000   2.7928460   2.7928460   2.7928460   2.7928460   2.7928460
 AtZNuc=   6.0000000   7.0000000   6.0000000   7.0000000   8.0000000   1.0000000   1.0000000   1.0000000   1.0000000   1.0000000

  Atom        11
 IAtWgt=           1
 AtmWgt=   1.0078250
 NucSpn=           1
 AtZEff=   0.0000000
 NQMom=    0.0000000
 NMagM=    2.7928460
 AtZNuc=   1.0000000
 Leave Link  101 at Thu Sep  8 15:01:42 2022, MaxMem= 24159191040 cpu:        10.2
 (Enter /public/home/users/caep010/software/Gaussian09/g09/l103.exe)

 GradGradGradGradGradGradGradGradGradGradGradGradGradGradGradGradGradGrad
 Berny optimization.
 Initialization pass.
                           ----------------------------
                           !    Initial Parameters    !
                           ! (Angstroms and Degrees)  !
 --------------------------                            --------------------------
 ! Name  Definition              Value          Derivative Info.                !
 --------------------------------------------------------------------------------
 ! R1    R(1,2)                  1.4575         estimate D2E/DX2                !
 ! R2    R(1,6)                  1.0928         estimate D2E/DX2                !
 ! R3    R(1,7)                  1.091          estimate D2E/DX2                !
 ! R4    R(1,8)                  1.0971         estimate D2E/DX2                !
 ! R5    R(2,3)                  1.3848         estimate D2E/DX2                !
 ! R6    R(2,9)                  1.011          estimate D2E/DX2                !
 ! R7    R(3,4)                  1.268          estimate D2E/DX2                !
 ! R8    R(3,5)                  1.3682         estimate D2E/DX2                !
 ! R9    R(4,10)                 1.0179         estimate D2E/DX2                !
 ! R10   R(5,11)                 0.9649         estimate D2E/DX2                !
 ! A1    A(2,1,6)              108.7066         estimate D2E/DX2                !
 ! A2    A(2,1,7)              108.9027         estimate D2E/DX2                !
 ! A3    A(2,1,8)              112.841          estimate D2E/DX2                !
 ! A4    A(6,1,7)              109.1576         estimate D2E/DX2                !
 ! A5    A(6,1,8)              109.5371         estimate D2E/DX2                !
 ! A6    A(7,1,8)              107.6372         estimate D2E/DX2                !
 ! A7    A(1,2,3)              118.0073         estimate D2E/DX2                !
 ! A8    A(1,2,9)              114.0018         estimate D2E/DX2                !
 ! A9    A(3,2,9)              113.3383         estimate D2E/DX2                !
 ! A10   A(2,3,4)              122.9944         estimate D2E/DX2                !
 ! A11   A(2,3,5)              113.3402         estimate D2E/DX2                !
 ! A12   A(4,3,5)              123.6554         estimate D2E/DX2                !
 ! A13   A(3,4,10)             109.8922         estimate D2E/DX2                !
 ! A14   A(3,5,11)             108.9002         estimate D2E/DX2                !
 ! D1    D(6,1,2,3)            175.6437         estimate D2E/DX2                !
 ! D2    D(6,1,2,9)            -47.6369         estimate D2E/DX2                !
 ! D3    D(7,1,2,3)             56.8165         estimate D2E/DX2                !
 ! D4    D(7,1,2,9)           -166.4641         estimate D2E/DX2                !
 ! D5    D(8,1,2,3)            -62.6387         estimate D2E/DX2                !
 ! D6    D(8,1,2,9)             74.0807         estimate D2E/DX2                !
 ! D7    D(1,2,3,4)             -4.4164         estimate D2E/DX2                !
 ! D8    D(1,2,3,5)            176.6914         estimate D2E/DX2                !
 ! D9    D(9,2,3,4)           -141.4084         estimate D2E/DX2                !
 ! D10   D(9,2,3,5)             39.6995         estimate D2E/DX2                !
 ! D11   D(2,3,4,10)          -172.5892         estimate D2E/DX2                !
 ! D12   D(5,3,4,10)             6.1887         estimate D2E/DX2                !
 ! D13   D(2,3,5,11)            21.9915         estimate D2E/DX2                !
 ! D14   D(4,3,5,11)          -156.8923         estimate D2E/DX2                !
 --------------------------------------------------------------------------------
 Trust Radius=3.00D-01 FncErr=1.00D-07 GrdErr=1.00D-06
 Number of steps in this run=     48 maximum allowed number of steps=    100.
 GradGradGradGradGradGradGradGradGradGradGradGradGradGradGradGradGradGrad

 Leave Link  103 at Thu Sep  8 15:01:42 2022, MaxMem= 24159191040 cpu:         0.6
 (Enter /public/home/users/caep010/software/Gaussian09/g09/l202.exe)
                          Input orientation:                          
 ---------------------------------------------------------------------
 Center     Atomic      Atomic             Coordinates (Angstroms)
 Number     Number       Type             X           Y           Z
 ---------------------------------------------------------------------
      1          6           0       -1.528079   -0.077554   -0.023516
      2          7           0       -0.183800   -0.639483   -0.059809
      3          6           0        0.888108    0.232201    0.033679
      4          7           0        0.752389    1.492439    0.066738
      5          8           0        2.100715   -0.400851    0.062055
      6          1           0       -2.248991   -0.882656   -0.185658
      7          1           0       -1.625785    0.657166   -0.824156
      8          1           0       -1.751959    0.430324    0.922860
      9          1           0       -0.071579   -1.473782    0.500055
     10          1           0        1.664775    1.940581    0.012936
     11          1           0        2.004306   -1.278486   -0.327186
 ---------------------------------------------------------------------
                    Distance matrix (angstroms):
                    1          2          3          4          5
     1  C    0.000000
     2  N    1.457452   0.000000
     3  C    2.436633   1.384760   0.000000
     4  N    2.770119   2.331857   1.267956   0.000000
     5  O    3.644172   2.300175   1.368202   2.324339   0.000000
     6  H    1.092792   2.083263   3.336526   3.835761   4.383314
     7  H    1.091047   2.084429   2.690006   2.673403   3.973861
     8  H    1.097128   2.137580   2.792821   2.851805   4.034220
     9  H    2.084460   1.010988   2.012184   3.108883   2.462090
    10  H    3.777369   3.174784   1.876754   1.017926   2.382176
    11  H    3.743287   2.295130   1.912667   3.066023   0.964907
                    6          7          8          9         10
     6  H    0.000000
     7  H    1.779640   0.000000
     8  H    1.788790   1.766194   0.000000
     9  H    2.358125   2.951276   2.574502   0.000000
    10  H    4.829873   3.629829   3.844855   3.861358   0.000000
    11  H    4.274020   4.143825   4.311864   2.243160   3.254744
                   11
    11  H    0.000000
 Stoichiometry    C2H6N2O
 Framework group  C1[X(C2H6N2O)]
 Deg. of freedom    27
 Full point group                 C1      NOp   1
 Largest Abelian subgroup         C1      NOp   1
 Largest concise Abelian subgroup C1      NOp   1
                         Standard orientation:                         
 ---------------------------------------------------------------------
 Center     Atomic      Atomic             Coordinates (Angstroms)
 Number     Number       Type             X           Y           Z
 ---------------------------------------------------------------------
      1          6           0       -1.907652    0.013041   -0.010364
      2          7           0       -0.618791   -0.665778   -0.057385
      3          6           0        0.527027    0.109245    0.005862
      4          7           0        0.503265    1.376896    0.020249
      5          8           0        1.679536   -0.627823    0.026616
      6          1           0       -2.699138   -0.727665   -0.148552
      7          1           0       -1.953323    0.741394   -0.821413
      8          1           0       -2.070586    0.552863    0.930771
      9          1           0       -0.571333   -1.498211    0.514365
     10          1           0        1.450547    1.741936   -0.054439
     11          1           0        1.499980   -1.499283   -0.346698
 ---------------------------------------------------------------------
 Rotational constants (GHZ):     10.0671163      4.1074879      2.9869884
 Leave Link  202 at Thu Sep  8 15:01:42 2022, MaxMem= 24159191040 cpu:         0.6
 (Enter /public/home/users/caep010/software/Gaussian09/g09/l301.exe)
 Standard basis: 6-31G(d,p) (6D, 7F)
 Ernie: Thresh=  0.10000D-02 Tol=  0.10000D-05 Strict=F.
 There are   105 symmetry adapted cartesian basis functions of A   symmetry.
 There are   105 symmetry adapted basis functions of A   symmetry.
   105 basis functions,   182 primitive gaussians,   105 cartesian basis functions
    20 alpha electrons       20 beta electrons
       nuclear repulsion energy       182.2682261073 Hartrees.
 IExCor=  402 DFT=T Ex+Corr=B3LYP ExCW=0 ScaHFX=  0.200000
 ScaDFX=  0.800000  0.720000  1.000000  0.810000 ScalE2=  1.000000  1.000000
 IRadAn=      0 IRanWt=     -1 IRanGd=            0 ICorTp=0 IEmpDi=  4
 NAtoms=   11 NActive=   11 NUniq=   11 SFac= 1.00D+00 NAtFMM=   60 NAOKFM=F Big=F
 Integral buffers will be    131072 words long.
 Raffenetti 2 integral format.
 Two-electron integral symmetry is turned on.
 Leave Link  301 at Thu Sep  8 15:01:42 2022, MaxMem= 24159191040 cpu:         2.1
 (Enter /public/home/users/caep010/software/Gaussian09/g09/l302.exe)
 NPDir=0 NMtPBC=     1 NCelOv=     1 NCel=       1 NClECP=     1 NCelD=      1
         NCelK=      1 NCelE2=     1 NClLst=     1 CellRange=     0.0.
 One-electron integrals computed using PRISM.
 NBasis=   105 RedAO= T EigKep=  2.87D-03  NBF=   105
 NBsUse=   105 1.00D-06 EigRej= -1.00D+00 NBFU=   105
 Precomputing XC quadrature grid using
 IXCGrd= 4 IRadAn=           0 IRanWt=          -1 IRanGd=           0 AccXCQ= 0.00D+00.
 Generated NRdTot=       0 NPtTot=           0 NUsed=           0 NTot=          32
 NSgBfM=   105   105   105   105   105 MxSgAt=    11 MxSgA2=    11.
 Leave Link  302 at Thu Sep  8 15:01:43 2022, MaxMem= 24159191040 cpu:        11.0
 (Enter /public/home/users/caep010/software/Gaussian09/g09/l303.exe)
 DipDrv:  MaxL=1.
 Leave Link  303 at Thu Sep  8 15:01:43 2022, MaxMem= 24159191040 cpu:         0.8
 (Enter /public/home/users/caep010/software/Gaussian09/g09/l401.exe)
 ExpMin= 1.61D-01 ExpMax= 5.48D+03 ExpMxC= 8.25D+02 IAcc=1 IRadAn=         1 AccDes= 0.00D+00
 Harris functional with IExCor=  402 and IRadAn=       1 diagonalized for initial guess.
 HarFok:  IExCor=  402 AccDes= 0.00D+00 IRadAn=         1 IDoV= 1 UseB2=F ITyADJ=14
 ICtDFT=  3500011 ScaDFX=  1.000000  1.000000  1.000000  1.000000
 FoFCou: FMM=F IPFlag=           0 FMFlag=      100000 FMFlg1=           0
         NFxFlg=           0 DoJE=T BraDBF=F KetDBF=T FulRan=T
         wScrn=  0.000000 ICntrl=     500 IOpCl=  0 I1Cent=   200000004 NGrid=           0
         NMat0=    1 NMatS0=      1 NMatT0=    0 NMatD0=    1 NMtDS0=    0 NMtDT0=    0
 Petite list used in FoFCou.
 Harris En= -264.574012466496    
 JPrj=0 DoOrth=F DoCkMO=F.
 Leave Link  401 at Thu Sep  8 15:01:43 2022, MaxMem= 24159191040 cpu:         9.6
 (Enter /public/home/users/caep010/software/Gaussian09/g09/l502.exe)
 Closed shell SCF:
 Using DIIS extrapolation, IDIIS=  1040.
 Integral symmetry usage will be decided dynamically.
 Keep R1 ints in memory in canonical form, NReq=16470489.
 IVT=       55780 IEndB=       55780 NGot= 24159191040 MDV= 24143647866
 LenX= 24143647866 LenY= 24143636400
 Requested convergence on RMS density matrix=1.00D-08 within 128 cycles.
 Requested convergence on MAX density matrix=1.00D-06.
 Requested convergence on             energy=1.00D-06.
 No special actions if energy rises.
 FoFCou: FMM=F IPFlag=           0 FMFlag=           0 FMFlg1=           0
         NFxFlg=           0 DoJE=F BraDBF=F KetDBF=F FulRan=T
         wScrn=  0.000000 ICntrl=     600 IOpCl=  0 I1Cent=           0 NGrid=           0
         NMat0=    1 NMatS0=   5565 NMatT0=    0 NMatD0=    1 NMtDS0=    0 NMtDT0=    0
 Symmetry not used in FoFCou.
 Integral accuracy reduced to 1.0D-05 until final iterations.

 Cycle   1  Pass 0  IDiag  1:
 E= -264.372682334005    
 DIIS: error= 2.50D-02 at cycle   1 NSaved=   1.
 NSaved= 1 IEnMin= 1 EnMin= -264.372682334005     IErMin= 1 ErrMin= 2.50D-02
 ErrMax= 2.50D-02  0.00D+00 EMaxC= 1.00D-01 BMatC= 2.08D-01 BMatP= 2.08D-01
 IDIUse=3 WtCom= 7.50D-01 WtEn= 2.50D-01
 Coeff-Com:  0.100D+01
 Coeff-En:   0.100D+01
 Coeff:      0.100D+01
 Gap=     0.253 Goal=   None    Shift=    0.000
 GapD=    0.253 DampG=1.000 DampE=0.500 DampFc=0.5000 IDamp=-1.
 Damping current iteration by 5.00D-01
 RMSDP=9.66D-03 MaxDP=2.22D-01              OVMax= 3.17D-01

 Cycle   2  Pass 0  IDiag  1:
 E= -264.428681051845     Delta-E=       -0.055998717841 Rises=F Damp=T
 DIIS: error= 9.20D-03 at cycle   2 NSaved=   2.
 NSaved= 2 IEnMin= 2 EnMin= -264.428681051845     IErMin= 2 ErrMin= 9.20D-03
 ErrMax= 9.20D-03  0.00D+00 EMaxC= 1.00D-01 BMatC= 2.12D-02 BMatP= 2.08D-01
 IDIUse=3 WtCom= 9.08D-01 WtEn= 9.20D-02
 Coeff-Com:  0.183D+00 0.817D+00
 Coeff-En:   0.316D+00 0.684D+00
 Coeff:      0.196D+00 0.804D+00
 Gap=     0.334 Goal=   None    Shift=    0.000
 RMSDP=2.55D-03 MaxDP=5.57D-02 DE=-5.60D-02 OVMax= 1.90D-01

 Cycle   3  Pass 0  IDiag  1:
 E= -264.537471195602     Delta-E=       -0.108790143756 Rises=F Damp=F
 DIIS: error= 7.22D-03 at cycle   3 NSaved=   3.
 NSaved= 3 IEnMin= 3 EnMin= -264.537471195602     IErMin= 3 ErrMin= 7.22D-03
 ErrMax= 7.22D-03  0.00D+00 EMaxC= 1.00D-01 BMatC= 1.59D-02 BMatP= 2.12D-02
 IDIUse=3 WtCom= 9.28D-01 WtEn= 7.22D-02
 Coeff-Com:  0.723D-01 0.469D+00 0.459D+00
 Coeff-En:   0.000D+00 0.000D+00 0.100D+01
 Coeff:      0.671D-01 0.435D+00 0.498D+00
 Gap=     0.295 Goal=   None    Shift=    0.000
 RMSDP=1.40D-03 MaxDP=3.49D-02 DE=-1.09D-01 OVMax= 6.65D-02

 Cycle   4  Pass 0  IDiag  1:
 E= -264.550314825654     Delta-E=       -0.012843630052 Rises=F Damp=F
 DIIS: error= 2.45D-03 at cycle   4 NSaved=   4.
 NSaved= 4 IEnMin= 4 EnMin= -264.550314825654     IErMin= 4 ErrMin= 2.45D-03
 ErrMax= 2.45D-03  0.00D+00 EMaxC= 1.00D-01 BMatC= 2.09D-03 BMatP= 1.59D-02
 IDIUse=3 WtCom= 9.76D-01 WtEn= 2.45D-02
 Coeff-Com:  0.434D-02 0.697D-01 0.274D+00 0.651D+00
 Coeff-En:   0.000D+00 0.000D+00 0.111D+00 0.889D+00
 Coeff:      0.423D-02 0.680D-01 0.270D+00 0.657D+00
 Gap=     0.293 Goal=   None    Shift=    0.000
 RMSDP=3.86D-04 MaxDP=8.89D-03 DE=-1.28D-02 OVMax= 1.59D-02

 Cycle   5  Pass 0  IDiag  1:
 E= -264.551959575051     Delta-E=       -0.001644749397 Rises=F Damp=F
 DIIS: error= 5.38D-04 at cycle   5 NSaved=   5.
 NSaved= 5 IEnMin= 5 EnMin= -264.551959575051     IErMin= 5 ErrMin= 5.38D-04
 ErrMax= 5.38D-04  0.00D+00 EMaxC= 1.00D-01 BMatC= 1.02D-04 BMatP= 2.09D-03
 IDIUse=3 WtCom= 9.95D-01 WtEn= 5.38D-03
 Coeff-Com: -0.788D-03 0.961D-02 0.107D+00 0.321D+00 0.564D+00
 Coeff-En:   0.000D+00 0.000D+00 0.000D+00 0.000D+00 0.100D+01
 Coeff:     -0.784D-03 0.956D-02 0.106D+00 0.319D+00 0.566D+00
 Gap=     0.292 Goal=   None    Shift=    0.000
 RMSDP=9.32D-05 MaxDP=1.77D-03 DE=-1.64D-03 OVMax= 2.17D-03

 Cycle   6  Pass 0  IDiag  1:
 E= -264.552040473508     Delta-E=       -0.000080898458 Rises=F Damp=F
 DIIS: error= 1.52D-04 at cycle   6 NSaved=   6.
 NSaved= 6 IEnMin= 6 EnMin= -264.552040473508     IErMin= 6 ErrMin= 1.52D-04
 ErrMax= 1.52D-04  0.00D+00 EMaxC= 1.00D-01 BMatC= 6.15D-06 BMatP= 1.02D-04
 IDIUse=3 WtCom= 9.98D-01 WtEn= 1.52D-03
 Coeff-Com: -0.563D-03-0.893D-03 0.276D-01 0.893D-01 0.262D+00 0.622D+00
 Coeff-En:   0.000D+00 0.000D+00 0.000D+00 0.000D+00 0.000D+00 0.100D+01
 Coeff:     -0.562D-03-0.892D-03 0.276D-01 0.892D-01 0.262D+00 0.623D+00
 Gap=     0.292 Goal=   None    Shift=    0.000
 RMSDP=2.23D-05 MaxDP=3.51D-04 DE=-8.09D-05 OVMax= 4.47D-04

 Cycle   7  Pass 0  IDiag  1:
 E= -264.552045501282     Delta-E=       -0.000005027773 Rises=F Damp=F
 DIIS: error= 2.43D-05 at cycle   7 NSaved=   7.
 NSaved= 7 IEnMin= 7 EnMin= -264.552045501282     IErMin= 7 ErrMin= 2.43D-05
 ErrMax= 2.43D-05  0.00D+00 EMaxC= 1.00D-01 BMatC= 2.43D-07 BMatP= 6.15D-06
 IDIUse=1 WtCom= 1.00D+00 WtEn= 0.00D+00
 Coeff-Com: -0.182D-03-0.892D-03 0.101D-01 0.320D-01 0.109D+00 0.282D+00
 Coeff-Com:  0.568D+00
 Coeff:     -0.182D-03-0.892D-03 0.101D-01 0.320D-01 0.109D+00 0.282D+00
 Coeff:      0.568D+00
 Gap=     0.292 Goal=   None    Shift=    0.000
 RMSDP=4.88D-06 MaxDP=1.22D-04 DE=-5.03D-06 OVMax= 1.48D-04

 Initial convergence to 1.0D-05 achieved.  Increase integral accuracy.
 Cycle   8  Pass 1  IDiag  1:
 E= -264.552029194375     Delta-E=        0.000016306907 Rises=F Damp=F
 DIIS: error= 1.26D-05 at cycle   1 NSaved=   1.
 NSaved= 1 IEnMin= 1 EnMin= -264.552029194375     IErMin= 1 ErrMin= 1.26D-05
 ErrMax= 1.26D-05  0.00D+00 EMaxC= 1.00D-01 BMatC= 5.32D-08 BMatP= 5.32D-08
 IDIUse=1 WtCom= 1.00D+00 WtEn= 0.00D+00
 Coeff-Com:  0.100D+01
 Coeff:      0.100D+01
 Gap=     0.292 Goal=   None    Shift=    0.000
 RMSDP=4.88D-06 MaxDP=1.22D-04 DE= 1.63D-05 OVMax= 1.62D-04

 Cycle   9  Pass 1  IDiag  1:
 E= -264.552029142040     Delta-E=        0.000000052335 Rises=F Damp=F
 DIIS: error= 2.26D-05 at cycle   2 NSaved=   2.
 NSaved= 2 IEnMin= 1 EnMin= -264.552029194375     IErMin= 1 ErrMin= 1.26D-05
 ErrMax= 2.26D-05  0.00D+00 EMaxC= 1.00D-01 BMatC= 1.25D-07 BMatP= 5.32D-08
 IDIUse=1 WtCom= 1.00D+00 WtEn= 0.00D+00
 Coeff-Com:  0.611D+00 0.389D+00
 Coeff:      0.611D+00 0.389D+00
 Gap=     0.292 Goal=   None    Shift=    0.000
 RMSDP=2.75D-06 MaxDP=6.25D-05 DE= 5.23D-08 OVMax= 1.08D-04

 Cycle  10  Pass 1  IDiag  1:
 E= -264.552029238517     Delta-E=       -0.000000096477 Rises=F Damp=F
 DIIS: error= 2.08D-06 at cycle   3 NSaved=   3.
 NSaved= 3 IEnMin= 3 EnMin= -264.552029238517     IErMin= 3 ErrMin= 2.08D-06
 ErrMax= 2.08D-06  0.00D+00 EMaxC= 1.00D-01 BMatC= 1.11D-09 BMatP= 5.32D-08
 IDIUse=1 WtCom= 1.00D+00 WtEn= 0.00D+00
 Coeff-Com:  0.863D-01 0.105D+00 0.809D+00
 Coeff:      0.863D-01 0.105D+00 0.809D+00
 Gap=     0.292 Goal=   None    Shift=    0.000
 RMSDP=5.45D-07 MaxDP=1.26D-05 DE=-9.65D-08 OVMax= 2.15D-05

 Cycle  11  Pass 1  IDiag  1:
 E= -264.552029238572     Delta-E=       -0.000000000055 Rises=F Damp=F
 DIIS: error= 2.16D-06 at cycle   4 NSaved=   4.
 NSaved= 4 IEnMin= 4 EnMin= -264.552029238572     IErMin= 3 ErrMin= 2.08D-06
 ErrMax= 2.16D-06  0.00D+00 EMaxC= 1.00D-01 BMatC= 9.71D-10 BMatP= 1.11D-09
 IDIUse=1 WtCom= 1.00D+00 WtEn= 0.00D+00
 Coeff-Com: -0.574D-02 0.298D-01 0.544D+00 0.432D+00
 Coeff:     -0.574D-02 0.298D-01 0.544D+00 0.432D+00
 Gap=     0.292 Goal=   None    Shift=    0.000
 RMSDP=2.88D-07 MaxDP=8.00D-06 DE=-5.50D-11 OVMax= 1.50D-05

 Cycle  12  Pass 1  IDiag  1:
 E= -264.552029239432     Delta-E=       -0.000000000860 Rises=F Damp=F
 DIIS: error= 2.17D-07 at cycle   5 NSaved=   5.
 NSaved= 5 IEnMin= 5 EnMin= -264.552029239432     IErMin= 5 ErrMin= 2.17D-07
 ErrMax= 2.17D-07  0.00D+00 EMaxC= 1.00D-01 BMatC= 1.93D-11 BMatP= 9.71D-10
 IDIUse=1 WtCom= 1.00D+00 WtEn= 0.00D+00
 Coeff-Com: -0.845D-02 0.724D-02 0.201D+00 0.208D+00 0.593D+00
 Coeff:     -0.845D-02 0.724D-02 0.201D+00 0.208D+00 0.593D+00
 Gap=     0.292 Goal=   None    Shift=    0.000
 RMSDP=3.76D-08 MaxDP=9.20D-07 DE=-8.60D-10 OVMax= 9.42D-07

 Cycle  13  Pass 1  IDiag  1:
 E= -264.552029239443     Delta-E=       -0.000000000011 Rises=F Damp=F
 DIIS: error= 7.94D-08 at cycle   6 NSaved=   6.
 NSaved= 6 IEnMin= 6 EnMin= -264.552029239443     IErMin= 6 ErrMin= 7.94D-08
 ErrMax= 7.94D-08  0.00D+00 EMaxC= 1.00D-01 BMatC= 1.70D-12 BMatP= 1.93D-11
 IDIUse=1 WtCom= 1.00D+00 WtEn= 0.00D+00
 Coeff-Com: -0.397D-02 0.207D-02 0.706D-01 0.876D-01 0.312D+00 0.532D+00
 Coeff:     -0.397D-02 0.207D-02 0.706D-01 0.876D-01 0.312D+00 0.532D+00
 Gap=     0.292 Goal=   None    Shift=    0.000
 RMSDP=9.55D-09 MaxDP=2.83D-07 DE=-1.13D-11 OVMax= 2.16D-07

 SCF Done:  E(RB3LYP) =  -264.552029239     A.U. after   13 cycles
            NFock= 13  Conv=0.95D-08     -V/T= 2.0090
 KE= 2.621993158696D+02 PE=-9.823898551661D+02 EE= 2.733702839498D+02
 Leave Link  502 at Thu Sep  8 15:01:44 2022, MaxMem= 24159191040 cpu:        30.6
 (Enter /public/home/users/caep010/software/Gaussian09/g09/l601.exe)
 Copying SCF densities to generalized density rwf, IOpCl= 0 IROHF=0.

 **********************************************************************

            Population analysis using the SCF density.

 **********************************************************************

 Orbital symmetries:
       Occupied  (A) (A) (A) (A) (A) (A) (A) (A) (A) (A) (A) (A)
                 (A) (A) (A) (A) (A) (A) (A) (A)
       Virtual   (A) (A) (A) (A) (A) (A) (A) (A) (A) (A) (A) (A)
                 (A) (A) (A) (A) (A) (A) (A) (A) (A) (A) (A) (A)
                 (A) (A) (A) (A) (A) (A) (A) (A) (A) (A) (A) (A)
                 (A) (A) (A) (A) (A) (A) (A) (A) (A) (A) (A) (A)
                 (A) (A) (A) (A) (A) (A) (A) (A) (A) (A) (A) (A)
                 (A) (A) (A) (A) (A) (A) (A) (A) (A) (A) (A) (A)
                 (A) (A) (A) (A) (A) (A) (A) (A) (A) (A) (A) (A)
                 (A)
 The electronic state is 1-A.
 Alpha  occ. eigenvalues --  -19.18241 -14.35400 -14.28441 -10.29635 -10.21107
 Alpha  occ. eigenvalues --   -1.07709  -0.93243  -0.85815  -0.69547  -0.59521
 Alpha  occ. eigenvalues --   -0.57061  -0.48287  -0.46665  -0.43945  -0.40235
 Alpha  occ. eigenvalues --   -0.38973  -0.36995  -0.28763  -0.26597  -0.23500
 Alpha virt. eigenvalues --    0.05678   0.05804   0.10403   0.14229   0.15011
 Alpha virt. eigenvalues --    0.16097   0.18306   0.19930   0.26259   0.35358
 Alpha virt. eigenvalues --    0.41747   0.54017   0.55050   0.57228   0.58601
 Alpha virt. eigenvalues --    0.60003   0.61140   0.69267   0.73650   0.74479
 Alpha virt. eigenvalues --    0.77734   0.79159   0.81572   0.84493   0.86065
 Alpha virt. eigenvalues --    0.87460   0.90856   0.91676   0.92996   0.98746
 Alpha virt. eigenvalues --    1.00660   1.05732   1.13088   1.26151   1.30597
 Alpha virt. eigenvalues --    1.35990   1.37865   1.40019   1.48511   1.57679
 Alpha virt. eigenvalues --    1.61116   1.67182   1.69891   1.75295   1.79871
 Alpha virt. eigenvalues --    1.82103   1.90106   1.96402   1.97923   2.03664
 Alpha virt. eigenvalues --    2.07490   2.09256   2.13179   2.22452   2.24559
 Alpha virt. eigenvalues --    2.28943   2.35089   2.37219   2.40728   2.44640
 Alpha virt. eigenvalues --    2.50510   2.57761   2.59036   2.63719   2.64374
 Alpha virt. eigenvalues --    2.67622   2.69940   2.71913   2.76063   2.78480
 Alpha virt. eigenvalues --    2.86980   2.95793   3.13935   3.17801   3.22452
 Alpha virt. eigenvalues --    3.36596   3.39365   3.44947   3.47614   3.51746
 Alpha virt. eigenvalues --    4.01428   4.01821   4.08499   4.36843   4.50668
          Condensed to atoms (all electrons):
               1          2          3          4          5          6
     1  C    4.773059   0.285334  -0.030816  -0.000535   0.003861   0.376327
     2  N    0.285334   6.910043   0.297619  -0.096914  -0.092767  -0.033577
     3  C   -0.030816   0.297619   4.311232   0.601274   0.291769   0.005308
     4  N   -0.000535  -0.096914   0.601274   6.814596  -0.081896   0.000608
     5  O    0.003861  -0.092767   0.291769  -0.081896   8.129633  -0.000060
     6  H    0.376327  -0.033577   0.005308   0.000608  -0.000060   0.619549
     7  H    0.395093  -0.035923  -0.005419   0.008010   0.000081  -0.025748
     8  H    0.392193  -0.046552  -0.002838   0.004941  -0.000031  -0.038405
     9  H   -0.034421   0.337078  -0.032966   0.003543   0.003004  -0.004790
    10  H   -0.000410   0.009382  -0.047853   0.321549  -0.006739  -0.000006
    11  H    0.000119   0.009099  -0.027121   0.006158   0.275892  -0.000090
               7          8          9         10         11
     1  C    0.395093   0.392193  -0.034421  -0.000410   0.000119
     2  N   -0.035923  -0.046552   0.337078   0.009382   0.009099
     3  C   -0.005419  -0.002838  -0.032966  -0.047853  -0.027121
     4  N    0.008010   0.004941   0.003543   0.321549   0.006158
     5  O    0.000081  -0.000031   0.003004  -0.006739   0.275892
     6  H   -0.025748  -0.038405  -0.004790  -0.000006  -0.000090
     7  H    0.548613  -0.037268   0.005153  -0.000024  -0.000082
     8  H   -0.037268   0.608328  -0.001582  -0.000138   0.000085
     9  H    0.005153  -0.001582   0.473619  -0.000283  -0.001306
    10  H   -0.000024  -0.000138  -0.000283   0.492785   0.000094
    11  H   -0.000082   0.000085  -0.001306   0.000094   0.424514
 Mulliken charges:
               1
     1  C   -0.159804
     2  N   -0.542822
     3  C    0.639811
     4  N   -0.581335
     5  O   -0.522748
     6  H    0.100886
     7  H    0.147515
     8  H    0.121267
     9  H    0.252951
    10  H    0.231643
    11  H    0.312637
 Sum of Mulliken charges =  -0.00000
 Mulliken charges with hydrogens summed into heavy atoms:
               1
     1  C    0.209864
     2  N   -0.289871
     3  C    0.639811
     4  N   -0.349692
     5  O   -0.210112
 Electronic spatial extent (au):  <R**2>=            425.7488
 Charge=              0.0000 electrons
 Dipole moment (field-independent basis, Debye):
    X=             -0.6425    Y=             -3.0387    Z=              0.0608  Tot=              3.1065
 Quadrupole moment (field-independent basis, Debye-Ang):
   XX=            -28.4189   YY=            -28.0780   ZZ=            -30.6203
   XY=              0.5218   XZ=             -1.5386   YZ=             -0.8110
 Traceless Quadrupole moment (field-independent basis, Debye-Ang):
   XX=              0.6202   YY=              0.9611   ZZ=             -1.5812
   XY=              0.5218   XZ=             -1.5386   YZ=             -0.8110
 Octapole moment (field-independent basis, Debye-Ang**2):
  XXX=             -1.0704  YYY=            -16.6074  ZZZ=              0.3715  XYY=              9.5685
  XXY=              0.7030  XXZ=             -1.9973  XZZ=              1.9574  YZZ=             -1.7341
  YYZ=             -0.0942  XYZ=              2.5143
 Hexadecapole moment (field-independent basis, Debye-Ang**3):
 XXXX=           -341.2630 YYYY=           -141.4176 ZZZZ=            -35.5439 XXXY=              3.7053
 XXXZ=             -2.1461 YYYX=             -2.1807 YYYZ=             -2.3014 ZZZX=             -1.2196
 ZZZY=             -1.0617 XXYY=            -65.2942 XXZZ=            -62.7955 YYZZ=            -31.1622
 XXYZ=              1.8826 YYXZ=             -4.0230 ZZXY=             -2.7814
 N-N= 1.822682261073D+02 E-N=-9.823898555393D+02  KE= 2.621993158696D+02
 No NMR shielding tensors so no spin-rotation constants.
 Leave Link  601 at Thu Sep  8 15:01:45 2022, MaxMem= 24159191040 cpu:        11.1
 (Enter /public/home/users/caep010/software/Gaussian09/g09/l701.exe)
 Compute integral first derivatives.
 ... and contract with generalized density number  0.
 Leave Link  701 at Thu Sep  8 15:01:45 2022, MaxMem= 24159191040 cpu:        11.8
 (Enter /public/home/users/caep010/software/Gaussian09/g09/l702.exe)
 L702 exits ... SP integral derivatives will be done elsewhere.
 Leave Link  702 at Thu Sep  8 15:01:45 2022, MaxMem= 24159191040 cpu:         0.3
 (Enter /public/home/users/caep010/software/Gaussian09/g09/l703.exe)
 Compute integral first derivatives, UseDBF=F ICtDFT=           0.
 Integral derivatives from FoFJK, PRISM(SPDF).
 Calling FoFJK, ICntrl=      2127 FMM=F ISym2X=0 I1Cent= 0 IOpClX= 0 NMat=1 NMatS=1 NMatT=0.
 FoFJK:  IHMeth= 1 ICntrl=    2127 DoSepK=F KAlg= 0 I1Cent=   0 FoldK=F
 IRaf=         0 NMat=   1 IRICut=       1 DoRegI=T DoRafI=F ISym2E= 0.
 FoFCou: FMM=F IPFlag=           0 FMFlag=      100000 FMFlg1=         800
         NFxFlg=           0 DoJE=F BraDBF=F KetDBF=F FulRan=T
         wScrn=  0.000000 ICntrl=    2127 IOpCl=  0 I1Cent=           0 NGrid=           0
         NMat0=    1 NMatS0=      1 NMatT0=    0 NMatD0=    1 NMtDS0=    0 NMtDT0=    0
 Symmetry not used in FoFCou.
 Leave Link  703 at Thu Sep  8 15:01:46 2022, MaxMem= 24159191040 cpu:        10.3
 (Enter /public/home/users/caep010/software/Gaussian09/g09/l716.exe)
 Dipole        =-2.52798282D-01-1.19552776D+00 2.39117441D-02
 ***** Axes restored to original set *****
 -------------------------------------------------------------------
 Center     Atomic                   Forces (Hartrees/Bohr)
 Number     Number              X              Y              Z
 -------------------------------------------------------------------
      1        6          -0.000863668    0.000417399   -0.000132588
      2        7          -0.001555280   -0.000669321   -0.001462525
      3        6          -0.000582500   -0.001085376   -0.000001313
      4        7          -0.002144195    0.004285135    0.000323774
      5        8           0.003844985    0.000807098    0.001862744
      6        1           0.000003030    0.000006674   -0.000085319
      7        1           0.000013442   -0.000086516    0.000111596
      8        1          -0.000069043    0.000092951    0.000076872
      9        1           0.000185097   -0.001227570    0.001432820
     10        1           0.001217489    0.000361193   -0.000195491
     11        1          -0.000049357   -0.002901667   -0.001930569
 -------------------------------------------------------------------
 Cartesian Forces:  Max     0.004285135 RMS     0.001423525
 Leave Link  716 at Thu Sep  8 15:01:46 2022, MaxMem= 24159191040 cpu:         0.7
 (Enter /public/home/users/caep010/software/Gaussian09/g09/l103.exe)

 GradGradGradGradGradGradGradGradGradGradGradGradGradGradGradGradGradGrad
 Berny optimization.
 FormGI is forming the generalized inverse of G from B-inverse, IUseBI=4.
 Internal  Forces:  Max     0.004723413 RMS     0.001333997
 Search for a local minimum.
 Step number   1 out of a maximum of   48
 All quantities printed in internal units (Hartrees-Bohrs-Radians)
 RMS Force = .13340D-02 SwitMx=.10000D-02 MixMth= 1
 Mixed Optimization -- RFO/linear search
 Second derivative matrix not updated -- first step.
 ITU=  0
     Eigenvalues ---    0.00932   0.01893   0.02112   0.02376   0.02391
     Eigenvalues ---    0.03438   0.07260   0.07715   0.13567   0.16000
     Eigenvalues ---    0.16000   0.16000   0.16000   0.16000   0.22732
     Eigenvalues ---    0.24997   0.24999   0.34002   0.34492   0.34692
     Eigenvalues ---    0.37285   0.44671   0.45808   0.48242   0.51324
     Eigenvalues ---    0.54431   0.76940
 RFO step:  Lambda=-1.64950316D-04 EMin= 9.31795582D-03
 Linear search not attempted -- first point.
 Iteration  1 RMS(Cart)=  0.01204858 RMS(Int)=  0.00010698
 Iteration  2 RMS(Cart)=  0.00009688 RMS(Int)=  0.00000134
 Iteration  3 RMS(Cart)=  0.00000001 RMS(Int)=  0.00000134
 ITry= 1 IFail=0 DXMaxC= 4.63D-02 DCOld= 1.00D+10 DXMaxT= 3.00D-01 DXLimC= 3.00D+00 Rises=F
 Variable       Old X    -DE/DX   Delta X   Delta X   Delta X     New X
                                 (Linear)    (Quad)   (Total)
    R1        2.75419   0.00101   0.00000   0.00270   0.00270   2.75689
    R2        2.06508   0.00001   0.00000   0.00002   0.00002   2.06510
    R3        2.06178  -0.00014   0.00000  -0.00041  -0.00041   2.06137
    R4        2.07327   0.00012   0.00000   0.00036   0.00036   2.07363
    R5        2.61682   0.00270   0.00000   0.00560   0.00560   2.62241
    R6        1.91049   0.00183   0.00000   0.00399   0.00399   1.91448
    R7        2.39609   0.00472   0.00000   0.00614   0.00614   2.40223
    R8        2.58553   0.00433   0.00000   0.00844   0.00844   2.59396
    R9        1.92360   0.00126   0.00000   0.00282   0.00282   1.92642
   R10        1.82341   0.00342   0.00000   0.00628   0.00628   1.82969
    A1        1.89729  -0.00002   0.00000  -0.00010  -0.00010   1.89718
    A2        1.90071  -0.00003   0.00000  -0.00038  -0.00038   1.90033
    A3        1.96945   0.00011   0.00000   0.00083   0.00083   1.97028
    A4        1.90516  -0.00003   0.00000  -0.00048  -0.00048   1.90468
    A5        1.91178   0.00001   0.00000   0.00039   0.00039   1.91217
    A6        1.87862  -0.00004   0.00000  -0.00031  -0.00031   1.87832
    A7        2.05962   0.00007   0.00000  -0.00036  -0.00036   2.05926
    A8        1.98971   0.00003   0.00000  -0.00080  -0.00081   1.98890
    A9        1.97813  -0.00017   0.00000  -0.00245  -0.00245   1.97567
   A10        2.14666  -0.00045   0.00000  -0.00181  -0.00181   2.14485
   A11        1.97816   0.00030   0.00000   0.00119   0.00119   1.97935
   A12        2.15819   0.00015   0.00000   0.00061   0.00061   2.15881
   A13        1.91798  -0.00042   0.00000  -0.00259  -0.00259   1.91539
   A14        1.90067   0.00029   0.00000   0.00183   0.00183   1.90250
    D1        3.06556   0.00001   0.00000  -0.00021  -0.00021   3.06535
    D2       -0.83142  -0.00014   0.00000  -0.00571  -0.00571  -0.83713
    D3        0.99163   0.00007   0.00000   0.00064   0.00064   0.99228
    D4       -2.90535  -0.00008   0.00000  -0.00486  -0.00486  -2.91020
    D5       -1.09325   0.00008   0.00000   0.00076   0.00076  -1.09249
    D6        1.29295  -0.00007   0.00000  -0.00474  -0.00474   1.28821
    D7       -0.07708   0.00022   0.00000   0.01123   0.01123  -0.06585
    D8        3.08385   0.00024   0.00000   0.01185   0.01185   3.09570
    D9       -2.46804   0.00030   0.00000   0.01602   0.01602  -2.45202
   D10        0.69289   0.00031   0.00000   0.01665   0.01664   0.70953
   D11       -3.01225   0.00012   0.00000   0.00347   0.00347  -3.00878
   D12        0.10801   0.00010   0.00000   0.00278   0.00278   0.11080
   D13        0.38382   0.00054   0.00000   0.02542   0.02542   0.40925
   D14       -2.73829   0.00056   0.00000   0.02608   0.02608  -2.71221
         Item               Value     Threshold  Converged?
 Maximum Force            0.004723     0.000450     NO 
 RMS     Force            0.001334     0.000300     NO 
 Maximum Displacement     0.046278     0.001800     NO 
 RMS     Displacement     0.012052     0.001200     NO 
 Predicted change in Energy=-8.267640D-05
 Lowest energy point so far.  Saving SCF results.
 GradGradGradGradGradGradGradGradGradGradGradGradGradGradGradGradGradGrad

 Leave Link  103 at Thu Sep  8 15:01:46 2022, MaxMem= 24159191040 cpu:         1.8
 (Enter /public/home/users/caep010/software/Gaussian09/g09/l202.exe)
                          Input orientation:                          
 ---------------------------------------------------------------------
 Center     Atomic      Atomic             Coordinates (Angstroms)
 Number     Number       Type             X           Y           Z
 ---------------------------------------------------------------------
      1          6           0       -1.530733   -0.077495   -0.025488
      2          7           0       -0.185993   -0.642515   -0.053079
      3          6           0        0.889057    0.230169    0.038897
      4          7           0        0.751606    1.493404    0.075009
      5          8           0        2.106098   -0.404276    0.061337
      6          1           0       -2.252350   -0.882456   -0.185246
      7          1           0       -1.623973    0.651402   -0.831672
      8          1           0       -1.757855    0.437942    0.916235
      9          1           0       -0.076575   -1.472087    0.518065
     10          1           0        1.665534    1.941089    0.015616
     11          1           0        2.015283   -1.275279   -0.351675
 ---------------------------------------------------------------------
                    Distance matrix (angstroms):
                    1          2          3          4          5
     1  C    0.000000
     2  N    1.458881   0.000000
     3  C    2.440120   1.387721   0.000000
     4  N    2.772525   2.336161   1.271204   0.000000
     5  O    3.652515   2.307278   1.372667   2.331529   0.000000
     6  H    1.092802   2.084436   3.340152   3.838776   4.391530
     7  H    1.090832   2.085237   2.692703   2.678510   3.978109
     8  H    1.097316   2.139558   2.796254   2.849396   4.046025
     9  H    2.086843   1.013098   2.014876   3.110679   2.472424
    10  H    3.780541   3.179289   1.879017   1.019418   2.386824
    11  H    3.757035   2.309797   1.920235   3.073197   0.968231
                    6          7          8          9         10
     6  H    0.000000
     7  H    1.779169   0.000000
     8  H    1.789200   1.765975   0.000000
     9  H    2.361421   2.953884   2.575549   0.000000
    10  H    4.833484   3.633462   3.845798   3.864864   0.000000
    11  H    4.288904   4.145682   4.333508   2.273994   3.256109
                   11
    11  H    0.000000
 Stoichiometry    C2H6N2O
 Framework group  C1[X(C2H6N2O)]
 Deg. of freedom    27
 Full point group                 C1      NOp   1
 RotChk:  IX=0 Diff= 4.68D-03
 Largest Abelian subgroup         C1      NOp   1
 Largest concise Abelian subgroup C1      NOp   1
                         Standard orientation:                         
 ---------------------------------------------------------------------
 Center     Atomic      Atomic             Coordinates (Angstroms)
 Number     Number       Type             X           Y           Z
 ---------------------------------------------------------------------
      1          6           0       -1.910566    0.010913   -0.014818
      2          7           0       -0.620135   -0.668642   -0.051259
      3          6           0        0.527459    0.109341    0.008238
      4          7           0        0.499965    1.380171    0.022151
      5          8           0        1.685513   -0.627438    0.025012
      6          1           0       -2.701354   -0.731373   -0.148547
      7          1           0       -1.953734    0.730657   -0.833366
      8          1           0       -2.077114    0.560755    0.920082
      9          1           0       -0.573342   -1.494257    0.534009
     10          1           0        1.447981    1.746044   -0.059177
     11          1           0        1.513296   -1.494550   -0.369865
 ---------------------------------------------------------------------
 Rotational constants (GHZ):     10.0294171      4.0894013      2.9751597
 Leave Link  202 at Thu Sep  8 15:01:46 2022, MaxMem= 24159191040 cpu:         0.3
 (Enter /public/home/users/caep010/software/Gaussian09/g09/l301.exe)
 Standard basis: 6-31G(d,p) (6D, 7F)
 Ernie: Thresh=  0.10000D-02 Tol=  0.10000D-05 Strict=F.
 There are   105 symmetry adapted cartesian basis functions of A   symmetry.
 There are   105 symmetry adapted basis functions of A   symmetry.
   105 basis functions,   182 primitive gaussians,   105 cartesian basis functions
    20 alpha electrons       20 beta electrons
       nuclear repulsion energy       181.8896071146 Hartrees.
 IExCor=  402 DFT=T Ex+Corr=B3LYP ExCW=0 ScaHFX=  0.200000
 ScaDFX=  0.800000  0.720000  1.000000  0.810000 ScalE2=  1.000000  1.000000
 IRadAn=      0 IRanWt=     -1 IRanGd=            0 ICorTp=0 IEmpDi=  4
 NAtoms=   11 NActive=   11 NUniq=   11 SFac= 1.00D+00 NAtFMM=   60 NAOKFM=F Big=F
 Integral buffers will be    131072 words long.
 Raffenetti 2 integral format.
 Two-electron integral symmetry is turned on.
 Leave Link  301 at Thu Sep  8 15:01:46 2022, MaxMem= 24159191040 cpu:         1.8
 (Enter /public/home/users/caep010/software/Gaussian09/g09/l302.exe)
 NPDir=0 NMtPBC=     1 NCelOv=     1 NCel=       1 NClECP=     1 NCelD=      1
         NCelK=      1 NCelE2=     1 NClLst=     1 CellRange=     0.0.
 One-electron integrals computed using PRISM.
 NBasis=   105 RedAO= T EigKep=  2.92D-03  NBF=   105
 NBsUse=   105 1.00D-06 EigRej= -1.00D+00 NBFU=   105
 Precomputing XC quadrature grid using
 IXCGrd= 4 IRadAn=           0 IRanWt=          -1 IRanGd=           0 AccXCQ= 0.00D+00.
 Generated NRdTot=       0 NPtTot=           0 NUsed=           0 NTot=          32
 NSgBfM=   105   105   105   105   105 MxSgAt=    11 MxSgA2=    11.
 Leave Link  302 at Thu Sep  8 15:01:47 2022, MaxMem= 24159191040 cpu:        10.9
 (Enter /public/home/users/caep010/software/Gaussian09/g09/l303.exe)
 DipDrv:  MaxL=1.
 Leave Link  303 at Thu Sep  8 15:01:47 2022, MaxMem= 24159191040 cpu:         0.7
 (Enter /public/home/users/caep010/software/Gaussian09/g09/l401.exe)
 Initial guess from the checkpoint file:  "B3LYP6-31Gdp.Frag_626.chk"
 B after Tr=    -0.000000    0.000000   -0.000000
         Rot=    0.999999    0.000612    0.000131   -0.000798 Ang=   0.12 deg.
 Guess basis will be translated and rotated to current coordinates.
 JPrj=2 DoOrth=T DoCkMO=T.
 Generating alternative initial guess.
 ExpMin= 1.61D-01 ExpMax= 5.48D+03 ExpMxC= 8.25D+02 IAcc=1 IRadAn=         1 AccDes= 0.00D+00
 Harris functional with IExCor=  402 and IRadAn=       1 diagonalized for initial guess.
 HarFok:  IExCor=  402 AccDes= 0.00D+00 IRadAn=         1 IDoV= 1 UseB2=F ITyADJ=14
 ICtDFT=  3500011 ScaDFX=  1.000000  1.000000  1.000000  1.000000
 FoFCou: FMM=F IPFlag=           0 FMFlag=      100000 FMFlg1=           0
         NFxFlg=           0 DoJE=T BraDBF=F KetDBF=T FulRan=T
         wScrn=  0.000000 ICntrl=     500 IOpCl=  0 I1Cent=   200000004 NGrid=           0
         NMat0=    1 NMatS0=      1 NMatT0=    0 NMatD0=    1 NMtDS0=    0 NMtDT0=    0
 Petite list used in FoFCou.
 Harris En= -264.573479223657    
 Leave Link  401 at Thu Sep  8 15:01:47 2022, MaxMem= 24159191040 cpu:        11.9
 (Enter /public/home/users/caep010/software/Gaussian09/g09/l502.exe)
 Closed shell SCF:
 Using DIIS extrapolation, IDIIS=  1040.
 Integral symmetry usage will be decided dynamically.
 Keep R1 ints in memory in canonical form, NReq=16470489.
 IVT=       55780 IEndB=       55780 NGot= 24159191040 MDV= 24143647866
 LenX= 24143647866 LenY= 24143636400
 Requested convergence on RMS density matrix=1.00D-08 within 128 cycles.
 Requested convergence on MAX density matrix=1.00D-06.
 Requested convergence on             energy=1.00D-06.
 No special actions if energy rises.
 FoFCou: FMM=F IPFlag=           0 FMFlag=           0 FMFlg1=           0
         NFxFlg=           0 DoJE=F BraDBF=F KetDBF=F FulRan=T
         wScrn=  0.000000 ICntrl=     600 IOpCl=  0 I1Cent=           0 NGrid=           0
         NMat0=    1 NMatS0=   5565 NMatT0=    0 NMatD0=    1 NMtDS0=    0 NMtDT0=    0
 Symmetry not used in FoFCou.
 Integral accuracy reduced to 1.0D-05 until final iterations.

 Cycle   1  Pass 0  IDiag  1:
 E= -264.551981268371    
 DIIS: error= 6.98D-04 at cycle   1 NSaved=   1.
 NSaved= 1 IEnMin= 1 EnMin= -264.551981268371     IErMin= 1 ErrMin= 6.98D-04
 ErrMax= 6.98D-04  0.00D+00 EMaxC= 1.00D-01 BMatC= 1.04D-04 BMatP= 1.04D-04
 IDIUse=3 WtCom= 9.93D-01 WtEn= 6.98D-03
 Coeff-Com:  0.100D+01
 Coeff-En:   0.100D+01
 Coeff:      0.100D+01
 Gap=     1.575 Goal=   None    Shift=    0.000
 RMSDP=1.66D-04 MaxDP=3.98D-03              OVMax= 4.15D-03

 Cycle   2  Pass 0  IDiag  1:
 E= -264.552135483668     Delta-E=       -0.000154215298 Rises=F Damp=F
 DIIS: error= 1.03D-04 at cycle   2 NSaved=   2.
 NSaved= 2 IEnMin= 2 EnMin= -264.552135483668     IErMin= 2 ErrMin= 1.03D-04
 ErrMax= 1.03D-04  0.00D+00 EMaxC= 1.00D-01 BMatC= 3.47D-06 BMatP= 1.04D-04
 IDIUse=3 WtCom= 9.99D-01 WtEn= 1.03D-03
 Coeff-Com:  0.528D-02 0.995D+00
 Coeff-En:   0.000D+00 0.100D+01
 Coeff:      0.527D-02 0.995D+00
 Gap=     0.290 Goal=   None    Shift=    0.000
 RMSDP=3.81D-05 MaxDP=5.38D-04 DE=-1.54D-04 OVMax= 8.43D-04

 Cycle   3  Pass 0  IDiag  1:
 E= -264.552136648895     Delta-E=       -0.000001165227 Rises=F Damp=F
 DIIS: error= 9.78D-05 at cycle   3 NSaved=   3.
 NSaved= 3 IEnMin= 3 EnMin= -264.552136648895     IErMin= 3 ErrMin= 9.78D-05
 ErrMax= 9.78D-05  0.00D+00 EMaxC= 1.00D-01 BMatC= 3.25D-06 BMatP= 3.47D-06
 IDIUse=1 WtCom= 1.00D+00 WtEn= 0.00D+00
 Coeff-Com: -0.308D-01 0.505D+00 0.526D+00
 Coeff:     -0.308D-01 0.505D+00 0.526D+00
 Gap=     0.290 Goal=   None    Shift=    0.000
 RMSDP=1.76D-05 MaxDP=3.25D-04 DE=-1.17D-06 OVMax= 3.62D-04

 Cycle   4  Pass 0  IDiag  1:
 E= -264.552139441343     Delta-E=       -0.000002792448 Rises=F Damp=F
 DIIS: error= 1.30D-05 at cycle   4 NSaved=   4.
 NSaved= 4 IEnMin= 4 EnMin= -264.552139441343     IErMin= 4 ErrMin= 1.30D-05
 ErrMax= 1.30D-05  0.00D+00 EMaxC= 1.00D-01 BMatC= 5.26D-08 BMatP= 3.25D-06
 IDIUse=1 WtCom= 1.00D+00 WtEn= 0.00D+00
 Coeff-Com: -0.961D-02 0.121D+00 0.176D+00 0.713D+00
 Coeff:     -0.961D-02 0.121D+00 0.176D+00 0.713D+00
 Gap=     0.290 Goal=   None    Shift=    0.000
 RMSDP=2.73D-06 MaxDP=6.46D-05 DE=-2.79D-06 OVMax= 8.17D-05

 Initial convergence to 1.0D-05 achieved.  Increase integral accuracy.
 Cycle   5  Pass 1  IDiag  1:
 E= -264.552121267268     Delta-E=        0.000018174075 Rises=F Damp=F
 DIIS: error= 1.02D-05 at cycle   1 NSaved=   1.
 NSaved= 1 IEnMin= 1 EnMin= -264.552121267268     IErMin= 1 ErrMin= 1.02D-05
 ErrMax= 1.02D-05  0.00D+00 EMaxC= 1.00D-01 BMatC= 2.85D-08 BMatP= 2.85D-08
 IDIUse=1 WtCom= 1.00D+00 WtEn= 0.00D+00
 Coeff-Com:  0.100D+01
 Coeff:      0.100D+01
 Gap=     0.290 Goal=   None    Shift=    0.000
 RMSDP=2.73D-06 MaxDP=6.46D-05 DE= 1.82D-05 OVMax= 8.54D-05

 Cycle   6  Pass 1  IDiag  1:
 E= -264.552121251059     Delta-E=        0.000000016210 Rises=F Damp=F
 DIIS: error= 1.84D-05 at cycle   2 NSaved=   2.
 NSaved= 2 IEnMin= 1 EnMin= -264.552121267268     IErMin= 1 ErrMin= 1.02D-05
 ErrMax= 1.84D-05  0.00D+00 EMaxC= 1.00D-01 BMatC= 5.41D-08 BMatP= 2.85D-08
 IDIUse=1 WtCom= 1.00D+00 WtEn= 0.00D+00
 Coeff-Com:  0.587D+00 0.413D+00
 Coeff:      0.587D+00 0.413D+00
 Gap=     0.290 Goal=   None    Shift=    0.000
 RMSDP=1.96D-06 MaxDP=4.57D-05 DE= 1.62D-08 OVMax= 6.02D-05

 Cycle   7  Pass 1  IDiag  1:
 E= -264.552121292198     Delta-E=       -0.000000041139 Rises=F Damp=F
 DIIS: error= 2.30D-06 at cycle   3 NSaved=   3.
 NSaved= 3 IEnMin= 3 EnMin= -264.552121292198     IErMin= 3 ErrMin= 2.30D-06
 ErrMax= 2.30D-06  0.00D+00 EMaxC= 1.00D-01 BMatC= 1.17D-09 BMatP= 2.85D-08
 IDIUse=1 WtCom= 1.00D+00 WtEn= 0.00D+00
 Coeff-Com:  0.579D-01 0.135D+00 0.807D+00
 Coeff:      0.579D-01 0.135D+00 0.807D+00
 Gap=     0.290 Goal=   None    Shift=    0.000
 RMSDP=4.37D-07 MaxDP=9.96D-06 DE=-4.11D-08 OVMax= 1.46D-05

 Cycle   8  Pass 1  IDiag  1:
 E= -264.552121292617     Delta-E=       -0.000000000420 Rises=F Damp=F
 DIIS: error= 1.55D-06 at cycle   4 NSaved=   4.
 NSaved= 4 IEnMin= 4 EnMin= -264.552121292617     IErMin= 4 ErrMin= 1.55D-06
 ErrMax= 1.55D-06  0.00D+00 EMaxC= 1.00D-01 BMatC= 5.75D-10 BMatP= 1.17D-09
 IDIUse=1 WtCom= 1.00D+00 WtEn= 0.00D+00
 Coeff-Com: -0.107D-01 0.528D-01 0.516D+00 0.442D+00
 Coeff:     -0.107D-01 0.528D-01 0.516D+00 0.442D+00
 Gap=     0.290 Goal=   None    Shift=    0.000
 RMSDP=2.15D-07 MaxDP=5.59D-06 DE=-4.20D-10 OVMax= 9.79D-06

 Cycle   9  Pass 1  IDiag  1:
 E= -264.552121293123     Delta-E=       -0.000000000505 Rises=F Damp=F
 DIIS: error= 4.24D-07 at cycle   5 NSaved=   5.
 NSaved= 5 IEnMin= 5 EnMin= -264.552121293123     IErMin= 5 ErrMin= 4.24D-07
 ErrMax= 4.24D-07  0.00D+00 EMaxC= 1.00D-01 BMatC= 2.64D-11 BMatP= 5.75D-10
 IDIUse=1 WtCom= 1.00D+00 WtEn= 0.00D+00
 Coeff-Com: -0.108D-01 0.237D-01 0.264D+00 0.263D+00 0.460D+00
 Coeff:     -0.108D-01 0.237D-01 0.264D+00 0.263D+00 0.460D+00
 Gap=     0.290 Goal=   None    Shift=    0.000
 RMSDP=4.67D-08 MaxDP=1.28D-06 DE=-5.05D-10 OVMax= 1.92D-06

 Cycle  10  Pass 1  IDiag  1:
 E= -264.552121293148     Delta-E=       -0.000000000025 Rises=F Damp=F
 DIIS: error= 3.67D-08 at cycle   6 NSaved=   6.
 NSaved= 6 IEnMin= 6 EnMin= -264.552121293148     IErMin= 6 ErrMin= 3.67D-08
 ErrMax= 3.67D-08  0.00D+00 EMaxC= 1.00D-01 BMatC= 3.10D-13 BMatP= 2.64D-11
 IDIUse=1 WtCom= 1.00D+00 WtEn= 0.00D+00
 Coeff-Com: -0.217D-02 0.295D-02 0.384D-01 0.433D-01 0.131D+00 0.786D+00
 Coeff:     -0.217D-02 0.295D-02 0.384D-01 0.433D-01 0.131D+00 0.786D+00
 Gap=     0.290 Goal=   None    Shift=    0.000
 RMSDP=8.49D-09 MaxDP=1.20D-07 DE=-2.50D-11 OVMax= 2.86D-07

 SCF Done:  E(RB3LYP) =  -264.552121293     A.U. after   10 cycles
            NFock= 10  Conv=0.85D-08     -V/T= 2.0091
 KE= 2.621575321245D+02 PE=-9.816122609035D+02 EE= 2.730130003713D+02
 Leave Link  502 at Thu Sep  8 15:01:48 2022, MaxMem= 24159191040 cpu:        24.6
 (Enter /public/home/users/caep010/software/Gaussian09/g09/l701.exe)
 Compute integral first derivatives.
 ... and contract with generalized density number  0.
 Leave Link  701 at Thu Sep  8 15:01:49 2022, MaxMem= 24159191040 cpu:        10.4
 (Enter /public/home/users/caep010/software/Gaussian09/g09/l702.exe)
 L702 exits ... SP integral derivatives will be done elsewhere.
 Leave Link  702 at Thu Sep  8 15:01:49 2022, MaxMem= 24159191040 cpu:         0.5
 (Enter /public/home/users/caep010/software/Gaussian09/g09/l703.exe)
 Compute integral first derivatives, UseDBF=F ICtDFT=           0.
 Integral derivatives from FoFJK, PRISM(SPDF).
 Calling FoFJK, ICntrl=      2127 FMM=F ISym2X=0 I1Cent= 0 IOpClX= 0 NMat=1 NMatS=1 NMatT=0.
 FoFJK:  IHMeth= 1 ICntrl=    2127 DoSepK=F KAlg= 0 I1Cent=   0 FoldK=F
 IRaf=         0 NMat=   1 IRICut=       1 DoRegI=T DoRafI=F ISym2E= 0.
 FoFCou: FMM=F IPFlag=           0 FMFlag=      100000 FMFlg1=         800
         NFxFlg=           0 DoJE=F BraDBF=F KetDBF=F FulRan=T
         wScrn=  0.000000 ICntrl=    2127 IOpCl=  0 I1Cent=           0 NGrid=           0
         NMat0=    1 NMatS0=      1 NMatT0=    0 NMatD0=    1 NMtDS0=    0 NMtDT0=    0
 Symmetry not used in FoFCou.
 Leave Link  703 at Thu Sep  8 15:01:49 2022, MaxMem= 24159191040 cpu:        11.8
 (Enter /public/home/users/caep010/software/Gaussian09/g09/l716.exe)
 Dipole        =-2.51326527D-01-1.18341341D+00 1.02468628D-02
 ***** Axes restored to original set *****
 -------------------------------------------------------------------
 Center     Atomic                   Forces (Hartrees/Bohr)
 Number     Number              X              Y              Z
 -------------------------------------------------------------------
      1        6          -0.000138101    0.000308755    0.000140641
      2        7           0.000283848   -0.000560978   -0.000383508
      3        6          -0.000655866    0.000391520   -0.000266446
      4        7          -0.000302359   -0.000043063    0.000151613
      5        8           0.000697992   -0.000075618    0.000685923
      6        1           0.000082902   -0.000045767   -0.000035441
      7        1           0.000045197    0.000018031   -0.000008859
      8        1           0.000032646   -0.000039747   -0.000022129
      9        1           0.000164638    0.000110432    0.000305984
     10        1           0.000286418   -0.000113181   -0.000117017
     11        1          -0.000497315    0.000049616   -0.000450760
 -------------------------------------------------------------------
 Cartesian Forces:  Max     0.000697992 RMS     0.000307525
 Leave Link  716 at Thu Sep  8 15:01:49 2022, MaxMem= 24159191040 cpu:         0.6
 (Enter /public/home/users/caep010/software/Gaussian09/g09/l103.exe)

 GradGradGradGradGradGradGradGradGradGradGradGradGradGradGradGradGradGrad
 Berny optimization.
 Using GEDIIS/GDIIS optimizer.
 FormGI is forming the generalized inverse of G from B-inverse, IUseBI=4.
 Internal  Forces:  Max     0.001030718 RMS     0.000250744
 Search for a local minimum.
 Step number   2 out of a maximum of   48
 All quantities printed in internal units (Hartrees-Bohrs-Radians)
 RMS Force = .25074D-03 SwitMx=.10000D-02 MixMth= 2
 Mixed Optimization -- En-DIIS/RFO-DIIS
 Update second derivatives using D2CorX and points    1    2
 DE= -9.21D-05 DEPred=-8.27D-05 R= 1.11D+00
 TightC=F SS=  1.41D+00  RLast= 4.96D-02 DXNew= 5.0454D-01 1.4882D-01
 Trust test= 1.11D+00 RLast= 4.96D-02 DXMaxT set to 3.00D-01
 ITU=  1  0
 Use linear search instead of GDIIS.
     Eigenvalues ---    0.00927   0.01608   0.01969   0.02379   0.02398
     Eigenvalues ---    0.03424   0.07255   0.07715   0.13503   0.15738
     Eigenvalues ---    0.16000   0.16000   0.16000   0.16428   0.22764
     Eigenvalues ---    0.24963   0.25396   0.34008   0.34492   0.34696
     Eigenvalues ---    0.37308   0.44488   0.45842   0.49056   0.52492
     Eigenvalues ---    0.55179   0.80602
 RFO step:  Lambda=-2.63056259D-05 EMin= 9.26604323D-03
 Quartic linear search produced a step of  0.14037.
 Iteration  1 RMS(Cart)=  0.00643569 RMS(Int)=  0.00006214
 Iteration  2 RMS(Cart)=  0.00005784 RMS(Int)=  0.00000441
 Iteration  3 RMS(Cart)=  0.00000001 RMS(Int)=  0.00000441
 ITry= 1 IFail=0 DXMaxC= 2.55D-02 DCOld= 1.00D+10 DXMaxT= 3.00D-01 DXLimC= 3.00D+00 Rises=F
 Variable       Old X    -DE/DX   Delta X   Delta X   Delta X     New X
                                 (Linear)    (Quad)   (Total)
    R1        2.75689   0.00007   0.00038   0.00027   0.00065   2.75753
    R2        2.06510  -0.00001   0.00000  -0.00005  -0.00005   2.06505
    R3        2.06137   0.00002  -0.00006   0.00004  -0.00001   2.06136
    R4        2.07363  -0.00005   0.00005  -0.00015  -0.00010   2.07353
    R5        2.62241  -0.00023   0.00079  -0.00045   0.00034   2.62275
    R6        1.91448   0.00010   0.00056   0.00032   0.00088   1.91536
    R7        2.40223  -0.00015   0.00086  -0.00012   0.00075   2.40297
    R8        2.59396   0.00019   0.00118   0.00058   0.00176   2.59573
    R9        1.92642   0.00021   0.00040   0.00059   0.00099   1.92741
   R10        1.82969   0.00019   0.00088   0.00051   0.00139   1.83108
    A1        1.89718  -0.00013  -0.00001  -0.00097  -0.00098   1.89620
    A2        1.90033  -0.00004  -0.00005  -0.00030  -0.00035   1.89998
    A3        1.97028  -0.00000   0.00012   0.00006   0.00018   1.97045
    A4        1.90468   0.00006  -0.00007   0.00032   0.00025   1.90493
    A5        1.91217   0.00007   0.00006   0.00055   0.00060   1.91278
    A6        1.87832   0.00004  -0.00004   0.00036   0.00032   1.87864
    A7        2.05926  -0.00025  -0.00005  -0.00221  -0.00227   2.05698
    A8        1.98890   0.00021  -0.00011  -0.00019  -0.00032   1.98858
    A9        1.97567  -0.00010  -0.00034  -0.00316  -0.00351   1.97216
   A10        2.14485   0.00045  -0.00025   0.00205   0.00180   2.14664
   A11        1.97935  -0.00055   0.00017  -0.00246  -0.00230   1.97705
   A12        2.15881   0.00010   0.00009   0.00046   0.00055   2.15935
   A13        1.91539  -0.00044  -0.00036  -0.00322  -0.00358   1.91181
   A14        1.90250  -0.00103   0.00026  -0.00731  -0.00705   1.89544
    D1        3.06535   0.00008  -0.00003   0.00123   0.00120   3.06655
    D2       -0.83713  -0.00014  -0.00080  -0.00687  -0.00767  -0.84481
    D3        0.99228   0.00010   0.00009   0.00158   0.00167   0.99394
    D4       -2.91020  -0.00011  -0.00068  -0.00653  -0.00721  -2.91741
    D5       -1.09249   0.00008   0.00011   0.00128   0.00139  -1.09111
    D6        1.28821  -0.00013  -0.00067  -0.00682  -0.00749   1.28072
    D7       -0.06585   0.00005   0.00158   0.00211   0.00369  -0.06216
    D8        3.09570  -0.00001   0.00166  -0.00057   0.00110   3.09680
    D9       -2.45202   0.00013   0.00225   0.00893   0.01117  -2.44085
   D10        0.70953   0.00008   0.00234   0.00625   0.00858   0.71811
   D11       -3.00878   0.00006   0.00049   0.00139   0.00187  -3.00691
   D12        0.11080   0.00011   0.00039   0.00431   0.00470   0.11550
   D13        0.40925   0.00030   0.00357   0.01624   0.01981   0.42905
   D14       -2.71221   0.00023   0.00366   0.01352   0.01718  -2.69502
         Item               Value     Threshold  Converged?
 Maximum Force            0.001031     0.000450     NO 
 RMS     Force            0.000251     0.000300     YES
 Maximum Displacement     0.025469     0.001800     NO 
 RMS     Displacement     0.006439     0.001200     NO 
 Predicted change in Energy=-1.434508D-05
 Lowest energy point so far.  Saving SCF results.
 GradGradGradGradGradGradGradGradGradGradGradGradGradGradGradGradGradGrad

 Leave Link  103 at Thu Sep  8 15:01:49 2022, MaxMem= 24159191040 cpu:         1.9
 (Enter /public/home/users/caep010/software/Gaussian09/g09/l202.exe)
                          Input orientation:                          
 ---------------------------------------------------------------------
 Center     Atomic      Atomic             Coordinates (Angstroms)
 Number     Number       Type             X           Y           Z
 ---------------------------------------------------------------------
      1          6           0       -1.530236   -0.078001   -0.026828
      2          7           0       -0.185686   -0.644489   -0.051477
      3          6           0        0.888210    0.229871    0.040780
      4          7           0        0.751052    1.493487    0.078537
      5          8           0        2.105477   -0.406103    0.064782
      6          1           0       -2.251626   -0.883423   -0.185118
      7          1           0       -1.621771    0.648290   -0.835545
      8          1           0       -1.757922    0.440473    0.913028
      9          1           0       -0.076057   -1.468822    0.527977
     10          1           0        1.666967    1.938005    0.017016
     11          1           0        2.011692   -1.269388   -0.365153
 ---------------------------------------------------------------------
                    Distance matrix (angstroms):
                    1          2          3          4          5
     1  C    0.000000
     2  N    1.459223   0.000000
     3  C    2.438901   1.387901   0.000000
     4  N    2.772174   2.337803   1.271599   0.000000
     5  O    3.651637   2.306463   1.373600   2.333045   0.000000
     6  H    1.092778   2.084000   3.339016   3.838658   4.390288
     7  H    1.090825   2.085277   2.691287   2.679588   3.976771
     8  H    1.097263   2.139939   2.794134   2.846079   4.045005
     9  H    2.087302   1.013564   2.013139   3.108276   2.470427
    10  H    3.779988   3.179039   1.877431   1.019941   2.385250
    11  H    3.752216   2.305941   1.916969   3.069128   0.968968
                    6          7          8          9         10
     6  H    0.000000
     7  H    1.779303   0.000000
     8  H    1.789517   1.766134   0.000000
     9  H    2.363112   2.954757   2.573392   0.000000
    10  H    4.832875   3.634009   3.843865   3.860787   0.000000
    11  H    4.284538   4.135313   4.332131   2.279507   3.248423
                   11
    11  H    0.000000
 Stoichiometry    C2H6N2O
 Framework group  C1[X(C2H6N2O)]
 Deg. of freedom    27
 Full point group                 C1      NOp   1
 RotChk:  IX=0 Diff= 1.65D-03
 Largest Abelian subgroup         C1      NOp   1
 Largest concise Abelian subgroup C1      NOp   1
                         Standard orientation:                         
 ---------------------------------------------------------------------
 Center     Atomic      Atomic             Coordinates (Angstroms)
 Number     Number       Type             X           Y           Z
 ---------------------------------------------------------------------
      1          6           0       -1.909925    0.011122   -0.015862
      2          7           0       -0.619841   -0.669940   -0.050035
      3          6           0        0.526862    0.109779    0.008120
      4          7           0        0.499821    1.381005    0.022790
      5          8           0        1.685000   -0.628582    0.025940
      6          1           0       -2.700676   -0.731655   -0.146864
      7          1           0       -1.952365    0.727499   -0.837387
      8          1           0       -2.075907    0.564679    0.916881
      9          1           0       -0.571762   -1.489788    0.543976
     10          1           0        1.449457    1.743389   -0.061765
     11          1           0        1.509777   -1.488331   -0.385189
 ---------------------------------------------------------------------
 Rotational constants (GHZ):     10.0170518      4.0917420      2.9761047
 Leave Link  202 at Thu Sep  8 15:01:49 2022, MaxMem= 24159191040 cpu:         0.2
 (Enter /public/home/users/caep010/software/Gaussian09/g09/l301.exe)
 Standard basis: 6-31G(d,p) (6D, 7F)
 Ernie: Thresh=  0.10000D-02 Tol=  0.10000D-05 Strict=F.
 There are   105 symmetry adapted cartesian basis functions of A   symmetry.
 There are   105 symmetry adapted basis functions of A   symmetry.
   105 basis functions,   182 primitive gaussians,   105 cartesian basis functions
    20 alpha electrons       20 beta electrons
       nuclear repulsion energy       181.8728069991 Hartrees.
 IExCor=  402 DFT=T Ex+Corr=B3LYP ExCW=0 ScaHFX=  0.200000
 ScaDFX=  0.800000  0.720000  1.000000  0.810000 ScalE2=  1.000000  1.000000
 IRadAn=      0 IRanWt=     -1 IRanGd=            0 ICorTp=0 IEmpDi=  4
 NAtoms=   11 NActive=   11 NUniq=   11 SFac= 1.00D+00 NAtFMM=   60 NAOKFM=F Big=F
 Integral buffers will be    131072 words long.
 Raffenetti 2 integral format.
 Two-electron integral symmetry is turned on.
 Leave Link  301 at Thu Sep  8 15:01:49 2022, MaxMem= 24159191040 cpu:         1.6
 (Enter /public/home/users/caep010/software/Gaussian09/g09/l302.exe)
 NPDir=0 NMtPBC=     1 NCelOv=     1 NCel=       1 NClECP=     1 NCelD=      1
         NCelK=      1 NCelE2=     1 NClLst=     1 CellRange=     0.0.
 One-electron integrals computed using PRISM.
 NBasis=   105 RedAO= T EigKep=  2.93D-03  NBF=   105
 NBsUse=   105 1.00D-06 EigRej= -1.00D+00 NBFU=   105
 Precomputing XC quadrature grid using
 IXCGrd= 4 IRadAn=           0 IRanWt=          -1 IRanGd=           0 AccXCQ= 0.00D+00.
 Generated NRdTot=       0 NPtTot=           0 NUsed=           0 NTot=          32
 NSgBfM=   105   105   105   105   105 MxSgAt=    11 MxSgA2=    11.
 Leave Link  302 at Thu Sep  8 15:01:50 2022, MaxMem= 24159191040 cpu:        10.8
 (Enter /public/home/users/caep010/software/Gaussian09/g09/l303.exe)
 DipDrv:  MaxL=1.
 Leave Link  303 at Thu Sep  8 15:01:50 2022, MaxMem= 24159191040 cpu:         0.6
 (Enter /public/home/users/caep010/software/Gaussian09/g09/l401.exe)
 Initial guess from the checkpoint file:  "B3LYP6-31Gdp.Frag_626.chk"
 B after Tr=     0.000000    0.000000    0.000000
         Rot=    1.000000    0.000224   -0.000022    0.000061 Ang=   0.03 deg.
 Guess basis will be translated and rotated to current coordinates.
 JPrj=2 DoOrth=T DoCkMO=T.
 Generating alternative initial guess.
 ExpMin= 1.61D-01 ExpMax= 5.48D+03 ExpMxC= 8.25D+02 IAcc=1 IRadAn=         1 AccDes= 0.00D+00
 Harris functional with IExCor=  402 and IRadAn=       1 diagonalized for initial guess.
 HarFok:  IExCor=  402 AccDes= 0.00D+00 IRadAn=         1 IDoV= 1 UseB2=F ITyADJ=14
 ICtDFT=  3500011 ScaDFX=  1.000000  1.000000  1.000000  1.000000
 FoFCou: FMM=F IPFlag=           0 FMFlag=      100000 FMFlg1=           0
         NFxFlg=           0 DoJE=T BraDBF=F KetDBF=T FulRan=T
         wScrn=  0.000000 ICntrl=     500 IOpCl=  0 I1Cent=   200000004 NGrid=           0
         NMat0=    1 NMatS0=      1 NMatT0=    0 NMatD0=    1 NMtDS0=    0 NMtDT0=    0
 Petite list used in FoFCou.
 Harris En= -264.573146226012    
 Leave Link  401 at Thu Sep  8 15:01:50 2022, MaxMem= 24159191040 cpu:        10.8
 (Enter /public/home/users/caep010/software/Gaussian09/g09/l502.exe)
 Closed shell SCF:
 Using DIIS extrapolation, IDIIS=  1040.
 Integral symmetry usage will be decided dynamically.
 Keep R1 ints in memory in canonical form, NReq=16470489.
 IVT=       55780 IEndB=       55780 NGot= 24159191040 MDV= 24143647866
 LenX= 24143647866 LenY= 24143636400
 Requested convergence on RMS density matrix=1.00D-08 within 128 cycles.
 Requested convergence on MAX density matrix=1.00D-06.
 Requested convergence on             energy=1.00D-06.
 No special actions if energy rises.
 FoFCou: FMM=F IPFlag=           0 FMFlag=           0 FMFlg1=           0
         NFxFlg=           0 DoJE=F BraDBF=F KetDBF=F FulRan=T
         wScrn=  0.000000 ICntrl=     600 IOpCl=  0 I1Cent=           0 NGrid=           0
         NMat0=    1 NMatS0=   5565 NMatT0=    0 NMatD0=    1 NMtDS0=    0 NMtDT0=    0
 Symmetry not used in FoFCou.
 Integral accuracy reduced to 1.0D-05 until final iterations.

 Cycle   1  Pass 0  IDiag  1:
 E= -264.552098220368    
 DIIS: error= 5.37D-04 at cycle   1 NSaved=   1.
 NSaved= 1 IEnMin= 1 EnMin= -264.552098220368     IErMin= 1 ErrMin= 5.37D-04
 ErrMax= 5.37D-04  0.00D+00 EMaxC= 1.00D-01 BMatC= 4.30D-05 BMatP= 4.30D-05
 IDIUse=3 WtCom= 9.95D-01 WtEn= 5.37D-03
 Coeff-Com:  0.100D+01
 Coeff-En:   0.100D+01
 Coeff:      0.100D+01
 Gap=     1.576 Goal=   None    Shift=    0.000
 RMSDP=1.10D-04 MaxDP=3.09D-03              OVMax= 2.60D-03

 Cycle   2  Pass 0  IDiag  1:
 E= -264.552157874622     Delta-E=       -0.000059654254 Rises=F Damp=F
 DIIS: error= 4.36D-05 at cycle   2 NSaved=   2.
 NSaved= 2 IEnMin= 2 EnMin= -264.552157874622     IErMin= 2 ErrMin= 4.36D-05
 ErrMax= 4.36D-05  0.00D+00 EMaxC= 1.00D-01 BMatC= 5.38D-07 BMatP= 4.30D-05
 IDIUse=1 WtCom= 1.00D+00 WtEn= 0.00D+00
 Coeff-Com: -0.481D-01 0.105D+01
 Coeff:     -0.481D-01 0.105D+01
 Gap=     0.290 Goal=   None    Shift=    0.000
 RMSDP=1.52D-05 MaxDP=2.58D-04 DE=-5.97D-05 OVMax= 4.06D-04

 Cycle   3  Pass 0  IDiag  1:
 E= -264.552158180538     Delta-E=       -0.000000305916 Rises=F Damp=F
 DIIS: error= 4.70D-05 at cycle   3 NSaved=   3.
 NSaved= 3 IEnMin= 3 EnMin= -264.552158180538     IErMin= 2 ErrMin= 4.36D-05
 ErrMax= 4.70D-05  0.00D+00 EMaxC= 1.00D-01 BMatC= 6.07D-07 BMatP= 5.38D-07
 IDIUse=1 WtCom= 1.00D+00 WtEn= 0.00D+00
 Coeff-Com: -0.338D-01 0.574D+00 0.460D+00
 Coeff:     -0.338D-01 0.574D+00 0.460D+00
 Gap=     0.290 Goal=   None    Shift=    0.000
 RMSDP=6.66D-06 MaxDP=1.77D-04 DE=-3.06D-07 OVMax= 1.80D-04

 Initial convergence to 1.0D-05 achieved.  Increase integral accuracy.
 Cycle   4  Pass 1  IDiag  1:
 E= -264.552139940362     Delta-E=        0.000018240175 Rises=F Damp=F
 DIIS: error= 1.00D-05 at cycle   1 NSaved=   1.
 NSaved= 1 IEnMin= 1 EnMin= -264.552139940362     IErMin= 1 ErrMin= 1.00D-05
 ErrMax= 1.00D-05  0.00D+00 EMaxC= 1.00D-01 BMatC= 3.98D-08 BMatP= 3.98D-08
 IDIUse=1 WtCom= 1.00D+00 WtEn= 0.00D+00
 Coeff-Com:  0.100D+01
 Coeff:      0.100D+01
 Gap=     0.290 Goal=   None    Shift=    0.000
 RMSDP=6.66D-06 MaxDP=1.77D-04 DE= 1.82D-05 OVMax= 9.34D-05

 Cycle   5  Pass 1  IDiag  1:
 E= -264.552139912268     Delta-E=        0.000000028095 Rises=F Damp=F
 DIIS: error= 1.62D-05 at cycle   2 NSaved=   2.
 NSaved= 2 IEnMin= 1 EnMin= -264.552139940362     IErMin= 1 ErrMin= 1.00D-05
 ErrMax= 1.62D-05  0.00D+00 EMaxC= 1.00D-01 BMatC= 8.33D-08 BMatP= 3.98D-08
 IDIUse=1 WtCom= 1.00D+00 WtEn= 0.00D+00
 Coeff-Com:  0.598D+00 0.402D+00
 Coeff:      0.598D+00 0.402D+00
 Gap=     0.290 Goal=   None    Shift=    0.000
 RMSDP=2.22D-06 MaxDP=5.20D-05 DE= 2.81D-08 OVMax= 5.70D-05

 Cycle   6  Pass 1  IDiag  1:
 E= -264.552139975217     Delta-E=       -0.000000062950 Rises=F Damp=F
 DIIS: error= 1.55D-06 at cycle   3 NSaved=   3.
 NSaved= 3 IEnMin= 3 EnMin= -264.552139975217     IErMin= 3 ErrMin= 1.55D-06
 ErrMax= 1.55D-06  0.00D+00 EMaxC= 1.00D-01 BMatC= 6.75D-10 BMatP= 3.98D-08
 IDIUse=1 WtCom= 1.00D+00 WtEn= 0.00D+00
 Coeff-Com:  0.187D-01 0.826D-01 0.899D+00
 Coeff:      0.187D-01 0.826D-01 0.899D+00
 Gap=     0.290 Goal=   None    Shift=    0.000
 RMSDP=2.92D-07 MaxDP=5.62D-06 DE=-6.29D-08 OVMax= 1.01D-05

 Cycle   7  Pass 1  IDiag  1:
 E= -264.552139975644     Delta-E=       -0.000000000427 Rises=F Damp=F
 DIIS: error= 7.79D-07 at cycle   4 NSaved=   4.
 NSaved= 4 IEnMin= 4 EnMin= -264.552139975644     IErMin= 4 ErrMin= 7.79D-07
 ErrMax= 7.79D-07  0.00D+00 EMaxC= 1.00D-01 BMatC= 1.46D-10 BMatP= 6.75D-10
 IDIUse=1 WtCom= 1.00D+00 WtEn= 0.00D+00
 Coeff-Com: -0.550D-02 0.327D-01 0.463D+00 0.510D+00
 Coeff:     -0.550D-02 0.327D-01 0.463D+00 0.510D+00
 Gap=     0.290 Goal=   None    Shift=    0.000
 RMSDP=1.47D-07 MaxDP=4.26D-06 DE=-4.27D-10 OVMax= 7.04D-06

 Cycle   8  Pass 1  IDiag  1:
 E= -264.552139975745     Delta-E=       -0.000000000101 Rises=F Damp=F
 DIIS: error= 3.93D-07 at cycle   5 NSaved=   5.
 NSaved= 5 IEnMin= 5 EnMin= -264.552139975745     IErMin= 5 ErrMin= 3.93D-07
 ErrMax= 3.93D-07  0.00D+00 EMaxC= 1.00D-01 BMatC= 3.74D-11 BMatP= 1.46D-10
 IDIUse=1 WtCom= 1.00D+00 WtEn= 0.00D+00
 Coeff-Com: -0.774D-02 0.725D-02 0.153D+00 0.346D+00 0.502D+00
 Coeff:     -0.774D-02 0.725D-02 0.153D+00 0.346D+00 0.502D+00
 Gap=     0.290 Goal=   None    Shift=    0.000
 RMSDP=5.29D-08 MaxDP=1.46D-06 DE=-1.01D-10 OVMax= 2.17D-06

 Cycle   9  Pass 1  IDiag  1:
 E= -264.552139975772     Delta-E=       -0.000000000027 Rises=F Damp=F
 DIIS: error= 3.38D-08 at cycle   6 NSaved=   6.
 NSaved= 6 IEnMin= 6 EnMin= -264.552139975772     IErMin= 6 ErrMin= 3.38D-08
 ErrMax= 3.38D-08  0.00D+00 EMaxC= 1.00D-01 BMatC= 2.42D-13 BMatP= 3.74D-11
 IDIUse=1 WtCom= 1.00D+00 WtEn= 0.00D+00
 Coeff-Com: -0.176D-02 0.874D-03 0.230D-01 0.825D-01 0.141D+00 0.754D+00
 Coeff:     -0.176D-02 0.874D-03 0.230D-01 0.825D-01 0.141D+00 0.754D+00
 Gap=     0.290 Goal=   None    Shift=    0.000
 RMSDP=6.76D-09 MaxDP=1.08D-07 DE=-2.69D-11 OVMax= 1.82D-07

 SCF Done:  E(RB3LYP) =  -264.552139976     A.U. after    9 cycles
            NFock=  9  Conv=0.68D-08     -V/T= 2.0091
 KE= 2.621544330880D+02 PE=-9.815749345082D+02 EE= 2.729955544454D+02
 Leave Link  502 at Thu Sep  8 15:01:51 2022, MaxMem= 24159191040 cpu:        26.8
 (Enter /public/home/users/caep010/software/Gaussian09/g09/l701.exe)
 Compute integral first derivatives.
 ... and contract with generalized density number  0.
 Leave Link  701 at Thu Sep  8 15:01:52 2022, MaxMem= 24159191040 cpu:        10.1
 (Enter /public/home/users/caep010/software/Gaussian09/g09/l702.exe)
 L702 exits ... SP integral derivatives will be done elsewhere.
 Leave Link  702 at Thu Sep  8 15:01:52 2022, MaxMem= 24159191040 cpu:         0.5
 (Enter /public/home/users/caep010/software/Gaussian09/g09/l703.exe)
 Compute integral first derivatives, UseDBF=F ICtDFT=           0.
 Integral derivatives from FoFJK, PRISM(SPDF).
 Calling FoFJK, ICntrl=      2127 FMM=F ISym2X=0 I1Cent= 0 IOpClX= 0 NMat=1 NMatS=1 NMatT=0.
 FoFJK:  IHMeth= 1 ICntrl=    2127 DoSepK=F KAlg= 0 I1Cent=   0 FoldK=F
 IRaf=         0 NMat=   1 IRICut=       1 DoRegI=T DoRafI=F ISym2E= 0.
 FoFCou: FMM=F IPFlag=           0 FMFlag=      100000 FMFlg1=         800
         NFxFlg=           0 DoJE=F BraDBF=F KetDBF=F FulRan=T
         wScrn=  0.000000 ICntrl=    2127 IOpCl=  0 I1Cent=           0 NGrid=           0
         NMat0=    1 NMatS0=      1 NMatT0=    0 NMatD0=    1 NMtDS0=    0 NMtDT0=    0
 Symmetry not used in FoFCou.
 Leave Link  703 at Thu Sep  8 15:01:52 2022, MaxMem= 24159191040 cpu:         9.0
 (Enter /public/home/users/caep010/software/Gaussian09/g09/l716.exe)
 Dipole        =-2.53645750D-01-1.17238820D+00 2.29868985D-03
 ***** Axes restored to original set *****
 -------------------------------------------------------------------
 Center     Atomic                   Forces (Hartrees/Bohr)
 Number     Number              X              Y              Z
 -------------------------------------------------------------------
      1        6          -0.000113272    0.000029961    0.000076063
      2        7           0.000251705   -0.000298649   -0.000082469
      3        6          -0.000227600    0.000728368    0.000138383
      4        7           0.000231030   -0.000631106   -0.000113418
      5        8          -0.000084288   -0.000448255   -0.000018659
      6        1          -0.000022869    0.000019716   -0.000019611
      7        1           0.000018070    0.000013747    0.000002482
      8        1           0.000032604   -0.000047167   -0.000023821
      9        1           0.000045743    0.000247724    0.000025174
     10        1          -0.000085231   -0.000023779    0.000009730
     11        1          -0.000045892    0.000409441    0.000006147
 -------------------------------------------------------------------
 Cartesian Forces:  Max     0.000728368 RMS     0.000227018
 Leave Link  716 at Thu Sep  8 15:01:52 2022, MaxMem= 24159191040 cpu:         0.6
 (Enter /public/home/users/caep010/software/Gaussian09/g09/l103.exe)

 GradGradGradGradGradGradGradGradGradGradGradGradGradGradGradGradGradGrad
 Berny optimization.
 Using GEDIIS/GDIIS optimizer.
 FormGI is forming the generalized inverse of G from B-inverse, IUseBI=4.
 Internal  Forces:  Max     0.000667561 RMS     0.000156423
 Search for a local minimum.
 Step number   3 out of a maximum of   48
 All quantities printed in internal units (Hartrees-Bohrs-Radians)
 RMS Force = .15642D-03 SwitMx=.10000D-02 MixMth= 2
 Mixed Optimization -- En-DIIS/RFO-DIIS
 Swapping is turned off.
 Update second derivatives using D2CorX and points    1    2    3
 DE= -1.87D-05 DEPred=-1.43D-05 R= 1.30D+00
 TightC=F SS=  1.41D+00  RLast= 3.46D-02 DXNew= 5.0454D-01 1.0383D-01
 Trust test= 1.30D+00 RLast= 3.46D-02 DXMaxT set to 3.00D-01
 ITU=  1  1  0
     Eigenvalues ---    0.00848   0.01174   0.01942   0.02378   0.02447
     Eigenvalues ---    0.03455   0.07257   0.07727   0.13380   0.15879
     Eigenvalues ---    0.16000   0.16000   0.16079   0.16662   0.23056
     Eigenvalues ---    0.24447   0.25085   0.34003   0.34493   0.34696
     Eigenvalues ---    0.37284   0.44768   0.46212   0.49032   0.52483
     Eigenvalues ---    0.57763   0.87074
 En-DIIS/RFO-DIIS IScMMF=        0 using points:     3    2
 RFO step:  Lambda=-1.71333911D-06.
 NNeg= 0 NP= 2 Switch=  2.50D-03 Rises=F DC=  1.87D-05 SmlDif=  1.00D-05
 RMS Error=  0.4395165335D-03 NUsed= 2 EDIIS=F
 DidBck=F Rises=F RFO-DIIS coefs:    1.39684   -0.39684
 Iteration  1 RMS(Cart)=  0.00408739 RMS(Int)=  0.00002510
 Iteration  2 RMS(Cart)=  0.00002274 RMS(Int)=  0.00000335
 Iteration  3 RMS(Cart)=  0.00000000 RMS(Int)=  0.00000335
[...]
     31  0.268654D-02  0.821375D-03 -0.862451D-03  0.160611D-02  0.692915D-03
     32  0.218582D-02 -0.175087D-02  0.000000D+00  0.396251D-02  0.914960D-03
     33  0.297917D-02  0.642432D-03 -0.156012D-03  0.285868D-02 -0.125256D-02
     34  0.247844D-02 -0.192981D-02  0.706583D-03  0.521509D-02 -0.103052D-02
     35 -0.203106D-02  0.688731D-03 -0.209821D-03  0.471070D-03  0.742589D-03
     36  0.136947D-02  0.410873D-03 -0.959371D-03 -0.258934D-02  0.499293D-03
     37  0.523090D-02 -0.363567D-02  0.116682D-02  0.269480D-02 -0.275452D-03
     38  0.479646D-02 -0.309179D-02  0.164559D-02  0.544762D-02 -0.318425D-04
               26            27            28            29            30 
     26  0.147367D-01
     27 -0.815938D-02  0.146244D-01
     28 -0.340610D-02  0.945458D-02  0.146642D-01
     29 -0.810345D-02 -0.338080D-02 -0.810113D-02  0.153896D-01
     30 -0.335016D-02 -0.855062D-02 -0.289155D-02  0.106693D-01  0.163283D-01
     31 -0.664727D-04  0.346841D-03 -0.412547D-03  0.166495D-03 -0.592893D-03
     32 -0.177670D-03  0.402294D-03 -0.690337D-03  0.452776D-03 -0.639855D-03
     33  0.100570D-02 -0.125199D-02  0.100628D-02 -0.951753D-03  0.130651D-02
     34  0.894504D-03 -0.119654D-02  0.728485D-03 -0.665472D-03  0.125955D-02
     35 -0.531936D-03  0.813234D-03 -0.461292D-03  0.941298D-03 -0.333227D-03
     36 -0.408708D-03  0.753928D-03 -0.154073D-03  0.628507D-03 -0.279494D-03
     37  0.776073D-04 -0.100528D-03  0.252531D-03 -0.203047D-03  0.150012D-03
     38 -0.102341D-03 -0.698014D-05 -0.774791D-04  0.110147D-03  0.396480D-04
               31            32            33            34            35 
     31  0.135822D-01
     32  0.283184D-02  0.149194D-01
     33  0.402007D-02 -0.783178D-02  0.130926D-01
     34 -0.673032D-02  0.425577D-02  0.124073D-02  0.122268D-01
     35 -0.761272D-02  0.678209D-02 -0.830245D-02  0.609236D-02  0.281533D-01
     36  0.429204D-02 -0.654907D-02  0.482563D-02 -0.601549D-02  0.122025D-01
     37  0.499465D-02 -0.558479D-02  0.692841D-02 -0.365104D-02 -0.746299D-02
     38 -0.579281D-02  0.658543D-02 -0.497030D-02  0.740795D-02  0.704175D-02
               36            37            38 
     36  0.242020D-01
     37  0.433223D-02  0.994352D-02
     38 -0.657166D-02 -0.746945D-03  0.117151D-01
 Leave Link  716 at Thu Sep  8 15:02:15 2022, MaxMem= 24159191040 cpu:         1.4
 (Enter /public/home/users/caep010/software/Gaussian09/g09/l103.exe)

 GradGradGradGradGradGradGradGradGradGradGradGradGradGradGradGradGradGrad
 Berny optimization.
 Red2BG is reusing G-inverse.
 Internal  Forces:  Max     0.000030912 RMS     0.000007608
 Search for a local minimum.
 Step number   1 out of a maximum of    2
 All quantities printed in internal units (Hartrees-Bohrs-Radians)
 Second derivative matrix not updated -- analytic derivatives used.
 ITU=  0
     Eigenvalues ---    0.00173   0.00723   0.01094   0.01404   0.03741
     Eigenvalues ---    0.04892   0.06100   0.06273   0.11354   0.13201
     Eigenvalues ---    0.15199   0.15998   0.17525   0.17990   0.21861
     Eigenvalues ---    0.23117   0.27652   0.32912   0.34295   0.34899
     Eigenvalues ---    0.37461   0.41062   0.44939   0.45718   0.46251
     Eigenvalues ---    0.51773   0.75752
 Angle between quadratic step and forces=  77.63 degrees.
 Linear search not attempted -- first point.
 Iteration  1 RMS(Cart)=  0.00032947 RMS(Int)=  0.00000007
 Iteration  2 RMS(Cart)=  0.00000008 RMS(Int)=  0.00000000
 ITry= 1 IFail=0 DXMaxC= 9.79D-04 DCOld= 1.00D+10 DXMaxT= 3.00D-01 DXLimC= 3.00D+00 Rises=F
 Variable       Old X    -DE/DX   Delta X   Delta X   Delta X     New X
                                 (Linear)    (Quad)   (Total)
    R1        2.75802   0.00000   0.00000   0.00002   0.00002   2.75804
    R2        2.06507   0.00000   0.00000   0.00000   0.00000   2.06508
    R3        2.06129  -0.00000   0.00000  -0.00001  -0.00001   2.06128
    R4        2.07342  -0.00000   0.00000   0.00000   0.00000   2.07342
    R5        2.62316  -0.00002   0.00000  -0.00005  -0.00005   2.62311
    R6        1.91516   0.00000   0.00000   0.00001   0.00001   1.91517
    R7        2.40169   0.00003   0.00000   0.00006   0.00006   2.40176
    R8        2.59629   0.00000   0.00000  -0.00000  -0.00000   2.59629
    R9        1.92714   0.00001   0.00000   0.00003   0.00003   1.92717
   R10        1.83044   0.00001   0.00000   0.00002   0.00002   1.83046
    A1        1.89673   0.00000   0.00000   0.00003   0.00003   1.89675
    A2        1.89932  -0.00001   0.00000  -0.00007  -0.00007   1.89926
    A3        1.97040  -0.00000   0.00000   0.00001   0.00001   1.97041
    A4        1.90503   0.00000   0.00000   0.00004   0.00004   1.90508
    A5        1.91274  -0.00000   0.00000  -0.00001  -0.00001   1.91273
    A6        1.87876   0.00000   0.00000  -0.00000  -0.00000   1.87876
    A7        2.05657   0.00000   0.00000   0.00001   0.00001   2.05659
    A8        1.98780  -0.00000   0.00000  -0.00002  -0.00002   1.98778
    A9        1.96891   0.00000   0.00000   0.00004   0.00004   1.96896
   A10        2.14822  -0.00000   0.00000   0.00002   0.00002   2.14824
   A11        1.97459   0.00001   0.00000   0.00004   0.00004   1.97463
   A12        2.16023  -0.00001   0.00000  -0.00006  -0.00006   2.16017
   A13        1.91237  -0.00002   0.00000  -0.00014  -0.00014   1.91223
   A14        1.89296  -0.00001   0.00000  -0.00005  -0.00005   1.89290
    D1        3.05880  -0.00000   0.00000  -0.00074  -0.00074   3.05806
    D2       -0.85929  -0.00000   0.00000  -0.00067  -0.00067  -0.85996
    D3        0.98615  -0.00000   0.00000  -0.00077  -0.00077   0.98537
    D4       -2.93194  -0.00000   0.00000  -0.00070  -0.00070  -2.93264
    D5       -1.09857  -0.00000   0.00000  -0.00073  -0.00073  -1.09930
    D6        1.26653   0.00000   0.00000  -0.00066  -0.00066   1.26587
    D7       -0.06341   0.00001   0.00000   0.00037   0.00037  -0.06304
    D8        3.09586   0.00000   0.00000   0.00031   0.00031   3.09617
    D9       -2.43646   0.00001   0.00000   0.00033   0.00033  -2.43613
   D10        0.72282   0.00000   0.00000   0.00027   0.00027   0.72308
   D11       -3.00638  -0.00000   0.00000   0.00005   0.00005  -3.00633
   D12        0.11566   0.00000   0.00000   0.00012   0.00012   0.11578
   D13        0.44408  -0.00000   0.00000  -0.00024  -0.00024   0.44385
   D14       -2.67969  -0.00000   0.00000  -0.00030  -0.00030  -2.67999
         Item               Value     Threshold  Converged?
 Maximum Force            0.000031     0.000450     YES
 RMS     Force            0.000008     0.000300     YES
 Maximum Displacement     0.000979     0.001800     YES
 RMS     Displacement     0.000329     0.001200     YES
 Predicted change in Energy=-9.637037D-09
 Optimization completed.
    -- Stationary point found.
                           ----------------------------
                           !   Optimized Parameters   !
                           ! (Angstroms and Degrees)  !
 --------------------------                            --------------------------
 ! Name  Definition              Value          Derivative Info.                !
 --------------------------------------------------------------------------------
 ! R1    R(1,2)                  1.4595         -DE/DX =    0.0                 !
 ! R2    R(1,6)                  1.0928         -DE/DX =    0.0                 !
 ! R3    R(1,7)                  1.0908         -DE/DX =    0.0                 !
 ! R4    R(1,8)                  1.0972         -DE/DX =    0.0                 !
 ! R5    R(2,3)                  1.3881         -DE/DX =    0.0                 !
 ! R6    R(2,9)                  1.0135         -DE/DX =    0.0                 !
 ! R7    R(3,4)                  1.2709         -DE/DX =    0.0                 !
 ! R8    R(3,5)                  1.3739         -DE/DX =    0.0                 !
 ! R9    R(4,10)                 1.0198         -DE/DX =    0.0                 !
 ! R10   R(5,11)                 0.9686         -DE/DX =    0.0                 !
 ! A1    A(2,1,6)              108.6744         -DE/DX =    0.0                 !
 ! A2    A(2,1,7)              108.8232         -DE/DX =    0.0                 !
 ! A3    A(2,1,8)              112.8956         -DE/DX =    0.0                 !
 ! A4    A(6,1,7)              109.1503         -DE/DX =    0.0                 !
 ! A5    A(6,1,8)              109.5918         -DE/DX =    0.0                 !
 ! A6    A(7,1,8)              107.6448         -DE/DX =    0.0                 !
 ! A7    A(1,2,3)              117.833          -DE/DX =    0.0                 !
 ! A8    A(1,2,9)              113.8926         -DE/DX =    0.0                 !
 ! A9    A(3,2,9)              112.8104         -DE/DX =    0.0                 !
 ! A10   A(2,3,4)              123.0842         -DE/DX =    0.0                 !
 ! A11   A(2,3,5)              113.1355         -DE/DX =    0.0                 !
 ! A12   A(4,3,5)              123.772          -DE/DX =    0.0                 !
 ! A13   A(3,4,10)             109.5708         -DE/DX =    0.0                 !
 ! A14   A(3,5,11)             108.4584         -DE/DX =    0.0                 !
 ! D1    D(6,1,2,3)            175.2563         -DE/DX =    0.0                 !
 ! D2    D(6,1,2,9)            -49.2335         -DE/DX =    0.0                 !
 ! D3    D(7,1,2,3)             56.502          -DE/DX =    0.0                 !
 ! D4    D(7,1,2,9)           -167.9879         -DE/DX =    0.0                 !
 ! D5    D(8,1,2,3)            -62.9434         -DE/DX =    0.0                 !
 ! D6    D(8,1,2,9)             72.5668         -DE/DX =    0.0                 !
 ! D7    D(1,2,3,4)             -3.6331         -DE/DX =    0.0                 !
 ! D8    D(1,2,3,5)            177.3799         -DE/DX =    0.0                 !
 ! D9    D(9,2,3,4)           -139.5987         -DE/DX =    0.0                 !
 ! D10   D(9,2,3,5)             41.4144         -DE/DX =    0.0                 !
 ! D11   D(2,3,4,10)          -172.2527         -DE/DX =    0.0                 !
 ! D12   D(5,3,4,10)             6.6266         -DE/DX =    0.0                 !
 ! D13   D(2,3,5,11)            25.4442         -DE/DX =    0.0                 !
 ! D14   D(4,3,5,11)          -153.5347         -DE/DX =    0.0                 !
 --------------------------------------------------------------------------------
 GradGradGradGradGradGradGradGradGradGradGradGradGradGradGradGradGradGrad

 Leave Link  103 at Thu Sep  8 15:02:15 2022, MaxMem= 24159191040 cpu:         1.0
 (Enter /public/home/users/caep010/software/Gaussian09/g09/l9999.exe)
 1\1\GINC-B1331\Freq\RB3LYP\6-31G(d,p)\C2H6N2O1\ROOT\08-Sep-2022\0\\#P 
 Geom=AllCheck Guess=TCheck SCRF=Check GenChk RB3LYP/6-31G(d,p) Freq\\F
 rag_626\\0,1\C,-1.5304415391,-0.0789239624,-0.0269532247\N,-0.18553246
 68,-0.6453009527,-0.0497498991\C,0.8879460815,0.2300015984,0.041647040
 2\N,0.7521515881,1.4931854046,0.0758020417\O,2.104222493,-0.4083882963
 ,0.0685732712\H,-2.2516332483,-0.8831577425,-0.192124371\H,-1.61839273
 47,0.6515507805,-0.8322403956\H,-1.7614067622,0.4347180321,0.914685553
 2\H,-0.0752711654,-1.4648021054,0.536219977\H,1.6682039593,1.937031810
 4,0.0138901829\H,2.0102537945,-1.2660155667,-0.3717521758\\Version=ES6
 4L-G09RevE.01\State=1-A\HF=-264.5521449\RMSD=1.850e-09\RMSF=1.397e-05\
 ZeroPoint=0.0917989\Thermal=0.097537\Dipole=-0.1518656,-1.1790481,-0.0
 264829\DipoleDeriv=0.5639912,-0.0173354,-0.0429684,-0.1275539,0.225823
 2,0.087154,0.057858,0.0927013,0.249951,-0.9338812,-0.2109733,0.0800401
 ,-0.3061218,-0.7279652,-0.1958315,-0.104061,-0.3348544,-0.3536604,1.54
 49074,-0.1067341,-0.0478658,0.2986175,1.6230793,0.0657126,-0.0337745,0
 .0739344,0.2376003,-0.419985,0.1394057,0.0064824,-0.1758353,-1.1328767
 ,-0.0255723,-0.0257153,-0.0296977,-0.5105525,-1.0736864,0.4616193,0.08
 4365,0.2883519,-0.6249592,0.0855733,-0.0025721,0.1192196,-0.3192339,-0
 .0790601,-0.0654608,-0.015444,-0.1247535,-0.0622633,-0.031453,-0.00743
 46,-0.0318565,0.0670981,0.0526392,-0.0025651,0.0140636,0.0638961,0.017
 598,0.0681601,-0.0097492,0.0688093,-0.0255259,-0.0626409,0.0059749,0.0
 134979,0.098478,0.0218833,-0.0748111,0.0756052,-0.0752394,-0.1053574,0
 .0674428,0.010672,-0.0395513,0.0395748,0.1964554,0.0652412,0.0156233,0
 .2067962,0.2037554,-0.0021636,-0.1270904,0.0155195,-0.0179329,0.272159
 9,0.0055429,0.0464411,0.0170809,0.2551556,0.3424366,-0.0875128,-0.0681
 39,-0.0367209,0.1910653,-0.0497162,-0.012221,-0.1068937,0.3007697\Pola
 r=43.9375126,2.2750854,46.3828994,-0.2081295,0.4374108,24.2828079\PG=C
 01 [X(C2H6N2O1)]\NImag=0\\0.50744554,0.04866660,0.59385076,0.00202083,
 -0.01393321,0.57608979,-0.20222179,0.05288358,0.02580353,0.61714138,0.
 04552376,-0.12364323,0.00838799,0.01244638,0.64525027,-0.00606518,0.01
 646657,-0.06476542,0.03075919,-0.22401256,0.23914441,-0.04270877,-0.01
 699854,-0.00878271,-0.22641449,-0.08183189,0.00822870,0.60862467,-0.00
 237888,0.01728498,-0.00630372,-0.08615119,-0.18544336,0.02401837,0.008
 38998,0.99563658,0.00367090,-0.00257149,-0.00444161,-0.02726014,-0.004
 16798,-0.06090686,0.00752445,0.01836421,0.19860419,0.00097022,-0.00428
 576,-0.00098127,0.00513390,-0.04016545,-0.00172692,-0.11748186,-0.0089
 5946,0.00148762,0.47787062,0.00855069,-0.00286031,0.00193496,-0.024480
 59,-0.06062716,-0.00734781,0.06047017,-0.59269044,-0.01297743,0.115773
 80,0.79422245,0.00021071,-0.00043143,-0.00184259,-0.00336153,-0.005316
 60,0.00598950,0.00275389,-0.00816907,-0.06940483,-0.02407350,0.0060348
 7,0.06273000,0.00132586,-0.00751550,0.00156629,-0.06670268,0.01672586,
 -0.00856807,-0.23398818,0.03333593,-0.02541770,-0.00810499,0.03049770,
 0.00580695,0.36058758,-0.00059392,-0.00190508,-0.00086835,-0.01558711,
 0.01720304,0.00307636,0.07914149,-0.14067651,-0.00696026,0.05672800,-0
 .04104459,-0.00223761,-0.05169929,0.54703751,0.00028433,0.00060218,0.0
 0614382,-0.00665326,-0.00098085,0.00729404,0.00350774,-0.01458567,-0.0
 6029790,0.00424117,-0.00417898,0.02511069,0.04381242,0.21531981,0.1392
 4024,-0.15724485,-0.12355717,-0.02590760,-0.02939641,-0.02436953,-0.00
 162667,-0.00200611,0.00555682,-0.00161269,0.00033604,-0.00039749,0.000
 04677,-0.00264695,-0.00065290,0.00028437,0.18154225,-0.13323203,-0.202
 82887,-0.03101221,0.01549157,0.01353585,0.00251963,0.00261116,-0.00305
 950,0.00037700,-0.00140841,0.00013232,0.00001922,0.00084606,0.00064679
 ,-0.00029090,0.13785010,0.21354876,-0.02627273,-0.03189742,-0.05783915
 ,-0.00034524,0.00167323,-0.00050045,0.00046291,0.00040973,-0.00000806,
 0.00042126,0.00007540,0.00048405,-0.00007170,0.00011053,0.00027884,0.0
 2797498,0.03435699,0.05371549,-0.04855776,0.00583603,-0.00653224,-0.00
 876002,0.02755760,-0.02485694,0.00160433,0.00506360,-0.00156284,-0.000
 17781,-0.00188567,0.00025451,-0.00021851,-0.00100349,0.00074652,0.0029
 3024,-0.01265883,0.01711102,0.05787418,0.01312320,-0.16843666,0.135242
 78,0.00522364,-0.01282777,0.00869373,-0.00112790,0.00017734,-0.0001292
 7,-0.00042210,-0.00015121,-0.00058838,0.00027301,0.00008239,-0.0002303
 4,0.00228464,-0.01353844,0.01664782,-0.01976763,0.18298340,-0.01349787
 ,0.13716827,-0.20414471,-0.00306476,-0.00200935,0.00439601,0.00072122,
 0.00256774,0.00052270,0.00074558,-0.00032769,0.00008644,0.00000156,-0.
 00052976,-0.00018484,0.00166468,-0.00577680,0.00593188,0.01283965,-0.1
 4861397,0.21394326,-0.05597075,0.01720416,0.03541221,-0.02299579,0.017
 68730,0.02733166,0.00485181,0.00850772,0.00273634,0.00073956,-0.002487
 11,-0.00035845,-0.00156505,-0.00059155,-0.00150543,0.00540936,-0.00829
 519,-0.01890802,0.00128449,-0.00176211,-0.00077384,0.06705191,0.018620
 81,-0.10391212,-0.10106166,0.01213901,-0.00628524,-0.00924020,-0.00241
 302,-0.00127221,0.00064766,0.00089242,0.00134828,0.00056636,0.00038163
 ,0.00008698,0.00026507,0.00395354,-0.00971620,-0.02108104,-0.00424119,
 0.01094986,0.01910048,-0.02928957,0.10908948,0.03795181,-0.10028087,-0
 .24603093,0.00525993,0.00021563,0.00778938,-0.00120368,-0.00248260,0.0
 0092347,-0.00025589,0.00092844,0.00046196,0.00009888,0.00048350,-0.000
 35248,-0.00019844,-0.00013625,-0.00247151,0.00299668,-0.01186779,-0.02
 105806,-0.04466246,0.11261793,0.26054351,-0.00161589,0.02734004,-0.021
 20993,-0.06910132,0.02873229,-0.02427305,0.00943614,-0.02434888,0.0196
 0247,-0.00411037,-0.00367427,0.00023991,-0.00033479,0.00260795,-0.0019
 6437,0.00072869,-0.00084542,-0.00036476,-0.00638078,0.00242853,0.00077
 784,0.00008942,0.00030579,0.00041024,0.07339380,0.00030045,-0.00710630
 ,0.00625201,0.03023289,-0.28399232,0.18539084,0.00112599,-0.02643962,0
 .01444369,-0.00392183,0.00111295,0.00197234,0.00310138,0.00121213,-0.0
 0264657,-0.00032138,0.00078262,-0.00022756,0.00119296,0.00075322,-0.00
 113688,-0.00035510,-0.00037184,0.00015891,-0.03107884,0.31392833,0.002
 93456,-0.00514453,-0.00212364,-0.02345992,0.22294044,-0.15033950,-0.00
 823288,-0.01067386,-0.00182999,-0.00080571,0.00014894,0.00032701,0.001
 66322,-0.00302720,-0.00072408,-0.00040813,0.00001170,0.00018845,-0.001
 17717,0.00040503,0.00047848,0.00098926,-0.00119893,0.00053905,0.026251
 63,-0.20310843,0.15268803,0.00001296,0.00019715,-0.00030340,0.00261065
 ,0.00077056,0.00207432,-0.00772529,0.01694744,0.00020935,-0.34841602,-
 0.18470532,0.02098535,0.00129209,0.00185005,-0.00057277,0.00008028,-0.
 00036305,0.00002118,0.00014202,-0.00009668,0.00048051,0.00030508,0.000
 03998,-0.00024890,-0.00003805,-0.00066388,-0.00086759,0.35181434,0.001
 11132,0.00009248,0.00027187,0.00354246,-0.00515654,0.00105713,-0.04866
 977,-0.03508966,0.00224335,-0.11908036,-0.10080594,0.00730045,-0.00100
 643,0.00482152,0.00061998,-0.00005916,0.00038349,-0.00003640,-0.000151
 44,0.00004642,-0.00030437,-0.00017442,-0.00000889,0.00023719,-0.000994
 08,-0.00091957,-0.00076271,0.16572648,0.13542620,-0.00131448,0.0001831
 3,-0.00059750,0.00370133,0.00219548,0.01257424,-0.00137021,-0.00371141
 ,-0.00070786,0.02240870,0.01355061,-0.02855076,-0.00047011,0.00094988,
 -0.00768400,0.00000727,-0.00016356,0.00021695,0.00053039,0.00026545,0.
 00008596,-0.00028305,-0.00058215,-0.00036351,-0.00190070,-0.00164468,0
 .00146978,-0.02201038,-0.01019043,0.02476695,-0.00143477,0.00022940,-0
 .00108573,0.00070657,-0.00307687,-0.00127705,0.00580775,0.04403692,0.0
 2062222,-0.00675930,0.00233809,-0.00250460,-0.04964439,-0.07019921,-0.
 04218073,0.00026746,0.00000405,-0.00002891,0.00025963,-0.00015659,0.00
 010543,0.00079998,-0.00038941,-0.00014816,-0.00206687,0.00038738,0.003
 11273,-0.00007808,-0.00024460,0.00070123,0.05214203,0.00030800,-0.0005
 3566,0.00108954,-0.00574063,0.00198646,-0.00062206,-0.00069767,-0.0284
 2759,-0.00926947,0.00484916,0.00136366,0.00084984,-0.02494035,-0.38746
 416,-0.19389374,-0.00028748,0.00011318,-0.00003128,0.00005807,-0.00003
 855,-0.00013767,-0.00044411,0.00009190,0.00012592,-0.00047310,0.001040
 40,0.00040954,0.00029726,0.00121049,-0.00085234,0.02707085,0.41065988,
 0.00007710,-0.00016119,-0.00044808,-0.00137914,0.00107457,-0.00067534,
 -0.00360942,0.00056626,-0.00245325,-0.00146103,0.00215868,0.00460853,-
 0.01842174,-0.20631690,-0.10882434,-0.00022455,0.00009519,0.00000351,-
 0.00034959,0.00017494,-0.00005712,0.00002177,-0.00003353,0.00001912,0.
 00243071,0.00054632,-0.00067358,0.00023232,-0.00043605,-0.00121026,0.0
 2268356,0.20233172,0.10971081\\0.00000788,-0.00000187,0.00000112,-0.00
 001962,-0.00001340,-0.00000465,0.00001026,0.00005158,0.00002078,0.0000
 1977,-0.00003335,-0.00001285,-0.00001340,-0.00001435,-0.00000118,0.000
 00274,-0.00000153,-0.00000277,-0.00000295,-0.00000212,-0.00000563,-0.0
 0000187,0.00000125,-0.00000341,0.00000376,-0.00000018,-0.00000235,-0.0
 0001430,0.00000513,0.00000304,0.00000772,0.00000883,0.00000790\\\@


 EVERY WORD THAT YOU WRITE IS A BLOW THAT SMITES THE DEVIL.
     -- ST. BERNARD OF CLAIRVAUX
 Job cpu time:       0 days  0 hours  3 minutes 47.7 seconds.
 File lengths (MBytes):  RWF=     18 Int=      0 D2E=      0 Chk=      2 Scr=      1
 Normal termination of Gaussian 09 at Thu Sep  8 15:02:15 2022.
