 Entering Gaussian System, Link 0=g09
 Input=B3LYP6-31Gdp.Frag_1069.gjf
 Output=B3LYP6-31Gdp.Frag_1069.log
 Initial command:
 /public/home/users/caep010/software/Gaussian09/g09/l1.exe "/public/home/users/caep010/.cache/gau_scr/Gau-143757.inp" -scrdir="/public/home/users/caep010/.cache/gau_scr/"
 Entering Link 1 = /public/home/users/caep010/software/Gaussian09/g09/l1.exe PID=    143758.
  
 Copyright (c) 1988,1990,1992,1993,1995,1998,2003,2009,2015,
            Gaussian, Inc.  All Rights Reserved.
  
 This is part of the Gaussian(R) 09 program.  It is based on
 the Gaussian(R) 03 system (copyright 2003, Gaussian, Inc.),
 the Gaussian(R) 98 system (copyright 1998, Gaussian, Inc.),
 the Gaussian(R) 94 system (copyright 1995, Gaussian, Inc.),
 the Gaussian 92(TM) system (copyright 1992, Gaussian, Inc.),
 the Gaussian 90(TM) system (copyright 1990, Gaussian, Inc.),
 the Gaussian 88(TM) system (copyright 1988, Gaussian, Inc.),
 the Gaussian 86(TM) system (copyright 1986, Carnegie Mellon
 University), and the Gaussian 82(TM) system (copyright 1983,
 Carnegie Mellon University). Gaussian is a federally registered
 trademark of Gaussian, Inc.
  
 This software contains proprietary and confidential information,
 including trade secrets, belonging to Gaussian, Inc.
  
 This software is provided under written license and may be
 used, copied, transmitted, or stored only in accord with that
 written license.
  
 The following legend is applicable only to US Government
 contracts under FAR:
  
                    RESTRICTED RIGHTS LEGEND
  
 Use, reproduction and disclosure by the US Government is
 subject to restrictions as set forth in subparagraphs (a)
 and (c) of the Commercial Computer Software - Restricted
 Rights clause in FAR 52.227-19.
  
 Gaussian, Inc.
 340 Quinnipiac St., Bldg. 40, Wallingford CT 06492
  
  
 ---------------------------------------------------------------
 Warning -- This program may not be used in any manner that
 competes with the business of Gaussian, Inc. or will provide
 assistance to any competitor of Gaussian, Inc.  The licensee
 of this program is prohibited from giving any competitor of
 Gaussian, Inc. access to this program.  By using this program,
 the user acknowledges that Gaussian, Inc. is engaged in the
 business of creating and licensing software in the field of
 computational chemistry and represents and warrants to the
 licensee that it is not a competitor of Gaussian, Inc. and that
 it will not use this program in any manner prohibited above.
 ---------------------------------------------------------------
  

 Cite this work as:
 Gaussian 09, Revision E.01,
 M. J. Frisch, G. W. Trucks, H. B. Schlegel, G. E. Scuseria, 
 M. A. Robb, J. R. Cheeseman, G. Scalmani, V. Barone, B. Mennucci, 
 G. A. Petersson, H. Nakatsuji, M. Caricato, X. Li, H. P. Hratchian, 
 A. F. Izmaylov, J. Bloino, G. Zheng, J. L. Sonnenberg, M. Hada, 
 M. Ehara, K. Toyota, R. Fukuda, J. Hasegawa, M. Ishida, T. Nakajima, 
 Y. Honda, O. Kitao, H. Nakai, T. Vreven, J. A. Montgomery, Jr., 
 J. E. Peralta, F. Ogliaro, M. Bearpark, J. J. Heyd, E. Brothers, 
 K. N. Kudin, V. N. Staroverov, T. Keith, R. Kobayashi, J. Normand, 
 K. Raghavachari, A. Rendell, J. C. Burant, S. S. Iyengar, J. Tomasi, 
 M. Cossi, N. Rega, J. M. Millam, M. Klene, J. E. Knox, J. B. Cross, 
 V. Bakken, C. Adamo, J. Jaramillo, R. Gomperts, R. E. Stratmann, 
 O. Yazyev, A. J. Austin, R. Cammi, C. Pomelli, J. W. Ochterski, 
 R. L. Martin, K. Morokuma, V. G. Zakrzewski, G. A. Voth, 
 P. Salvador, J. J. Dannenberg, S. Dapprich, A. D. Daniels, 
 O. Farkas, J. B. Foresman, J. V. Ortiz, J. Cioslowski, 
 and D. J. Fox, Gaussian, Inc., Wallingford CT, 2013.
 
 ******************************************
 Gaussian 09:  ES64L-G09RevE.01 30-Nov-2015
                 8-Sep-2022 
 ******************************************
 %nproc=32
 Will use up to   32 processors via shared memory.
 %mem=180GB
 %chk=B3LYP6-31Gdp.Frag_1069.chk
 ----------------------------
 #P OPT Freq B3LYP/6-31G(d,p)
 ----------------------------
 1/14=-1,18=20,19=15,26=3,38=1/1,3;
 2/9=110,12=2,17=6,18=5,40=1/2;
 3/5=1,6=6,7=101,11=2,16=1,25=1,30=1,71=1,74=-5/1,2,3;
 4//1;
 5/5=2,38=5/2;
 6/7=2,8=2,9=2,10=2,28=1/1;
 7//1,2,3,16;
 1/14=-1,18=20,19=15,26=3/3(2);
 2/9=110/2;
 99//99;
 2/9=110/2;
 3/5=1,6=6,7=101,11=2,16=1,25=1,30=1,71=1,74=-5/1,2,3;
 4/5=5,16=3,69=1/1;
 5/5=2,38=5/2;
 7//1,2,3,16;
 1/14=-1,18=20,19=15,26=3/3(-5);
 2/9=110/2;
 6/7=2,8=2,9=2,10=2,19=2,28=1/1;
 99/9=1/99;
 Leave Link    1 at Thu Sep  8 14:50:40 2022, MaxMem= 24159191040 cpu:         2.8
 (Enter /public/home/users/caep010/software/Gaussian09/g09/l101.exe)
 ---------
 Frag_1069
 ---------
 Symbolic Z-matrix:
 Charge =  0 Multiplicity = 1
 O                     1.40079   1.37333  -0.08943 
 C                     0.83095   0.1817   -0.54004 
 O                     1.77297  -0.81576  -0.28422 
 C                    -0.47753  -0.10753   0.21026 
 O                    -1.34357   0.96797  -0.07234 
 O                    -0.95086  -1.34211  -0.27797 
 H                     0.70056   2.03513  -0.13684 
 H                     0.58785   0.23644  -1.61973 
 H                     1.32744  -1.65205  -0.46495 
 H                    -0.26139  -0.16666   1.2873 
 H                    -2.02707   1.01812   0.60243 
 H                    -1.56012  -1.72869   0.35792 
 
 NAtoms=     12 NQM=       12 NQMF=       0 NMMI=      0 NMMIF=      0
                NMic=       0 NMicF=      0.
                    Isotopes and Nuclear Properties:
 (Nuclear quadrupole moments (NQMom) in fm**2, nuclear magnetic moments (NMagM)
  in nuclear magnetons)

  Atom         1           2           3           4           5           6           7           8           9          10
 IAtWgt=          16          12          16          12          16          16           1           1           1           1
 AtmWgt=  15.9949146  12.0000000  15.9949146  12.0000000  15.9949146  15.9949146   1.0078250   1.0078250   1.0078250   1.0078250
 NucSpn=           0           0           0           0           0           0           1           1           1           1
 AtZEff=   0.0000000   0.0000000   0.0000000   0.0000000   0.0000000   0.0000000   0.0000000   0.0000000   0.0000000   0.0000000
 NQMom=    0.0000000   0.0000000   0.0000000   0.0000000   0.0000000   0.0000000   0.0000000   0.0000000   0.0000000   0.0000000
 NMagM=    0.0000000   0.0000000   0.0000000   0.0000000   0.0000000   0.0000000   2.7928460   2.7928460   2.7928460   2.7928460
 AtZNuc=   8.0000000   6.0000000   8.0000000   6.0000000   8.0000000   8.0000000   1.0000000   1.0000000   1.0000000   1.0000000

  Atom        11          12
 IAtWgt=           1           1
 AtmWgt=   1.0078250   1.0078250
 NucSpn=           1           1
 AtZEff=   0.0000000   0.0000000
 NQMom=    0.0000000   0.0000000
 NMagM=    2.7928460   2.7928460
 AtZNuc=   1.0000000   1.0000000
 Leave Link  101 at Thu Sep  8 14:50:40 2022, MaxMem= 24159191040 cpu:        10.8
 (Enter /public/home/users/caep010/software/Gaussian09/g09/l103.exe)

 GradGradGradGradGradGradGradGradGradGradGradGradGradGradGradGradGradGrad
 Berny optimization.
 Initialization pass.
                           ----------------------------
                           !    Initial Parameters    !
                           ! (Angstroms and Degrees)  !
 --------------------------                            --------------------------
 ! Name  Definition              Value          Derivative Info.                !
 --------------------------------------------------------------------------------
 ! R1    R(1,2)                  1.3956         estimate D2E/DX2                !
 ! R2    R(1,7)                  0.9646         estimate D2E/DX2                !
 ! R3    R(2,3)                  1.3956         estimate D2E/DX2                !
 ! R4    R(2,4)                  1.5358         estimate D2E/DX2                !
 ! R5    R(2,8)                  1.1081         estimate D2E/DX2                !
 ! R6    R(3,9)                  0.9647         estimate D2E/DX2                !
 ! R7    R(4,5)                  1.4095         estimate D2E/DX2                !
 ! R8    R(4,6)                  1.4095         estimate D2E/DX2                !
 ! R9    R(4,10)                 1.1001         estimate D2E/DX2                !
 ! R10   R(5,11)                 0.9618         estimate D2E/DX2                !
 ! R11   R(6,12)                 0.9618         estimate D2E/DX2                !
 ! A1    A(2,1,7)              105.8739         estimate D2E/DX2                !
 ! A2    A(1,2,3)              105.9892         estimate D2E/DX2                !
 ! A3    A(1,2,4)              110.544          estimate D2E/DX2                !
 ! A4    A(1,2,8)              111.223          estimate D2E/DX2                !
 ! A5    A(3,2,4)              110.544          estimate D2E/DX2                !
 ! A6    A(3,2,8)              111.2232         estimate D2E/DX2                !
 ! A7    A(4,2,8)              107.3622         estimate D2E/DX2                !
 ! A8    A(2,3,9)              105.8738         estimate D2E/DX2                !
 ! A9    A(2,4,5)              106.37           estimate D2E/DX2                !
 ! A10   A(2,4,6)              106.3701         estimate D2E/DX2                !
 ! A11   A(2,4,10)             108.7246         estimate D2E/DX2                !
 ! A12   A(5,4,6)              113.1152         estimate D2E/DX2                !
 ! A13   A(5,4,10)             110.9796         estimate D2E/DX2                !
 ! A14   A(6,4,10)             110.9796         estimate D2E/DX2                !
 ! A15   A(4,5,11)             109.6201         estimate D2E/DX2                !
 ! A16   A(4,6,12)             109.6201         estimate D2E/DX2                !
 ! D1    D(7,1,2,3)           -171.2743         estimate D2E/DX2                !
 ! D2    D(7,1,2,4)            -51.4576         estimate D2E/DX2                !
 ! D3    D(7,1,2,8)             67.7121         estimate D2E/DX2                !
 ! D4    D(1,2,3,9)            171.2746         estimate D2E/DX2                !
 ! D5    D(4,2,3,9)             51.458          estimate D2E/DX2                !
 ! D6    D(8,2,3,9)            -67.7118         estimate D2E/DX2                !
 ! D7    D(1,2,4,5)             61.0553         estimate D2E/DX2                !
 ! D8    D(1,2,4,6)           -178.0979         estimate D2E/DX2                !
 ! D9    D(1,2,4,10)           -58.5213         estimate D2E/DX2                !
 ! D10   D(3,2,4,5)            178.0938         estimate D2E/DX2                !
 ! D11   D(3,2,4,6)            -61.0595         estimate D2E/DX2                !
 ! D12   D(3,2,4,10)            58.5171         estimate D2E/DX2                !
 ! D13   D(8,2,4,5)            -60.4253         estimate D2E/DX2                !
 ! D14   D(8,2,4,6)             60.4215         estimate D2E/DX2                !
 ! D15   D(8,2,4,10)           179.9981         estimate D2E/DX2                !
 ! D16   D(2,4,5,11)          -159.0076         estimate D2E/DX2                !
 ! D17   D(6,4,5,11)            84.5834         estimate D2E/DX2                !
 ! D18   D(10,4,5,11)          -40.9098         estimate D2E/DX2                !
 ! D19   D(2,4,6,12)           159.0076         estimate D2E/DX2                !
 ! D20   D(5,4,6,12)           -84.5834         estimate D2E/DX2                !
 ! D21   D(10,4,6,12)           40.9098         estimate D2E/DX2                !
 --------------------------------------------------------------------------------
 Trust Radius=3.00D-01 FncErr=1.00D-07 GrdErr=1.00D-06
 Number of steps in this run=     58 maximum allowed number of steps=    100.
 GradGradGradGradGradGradGradGradGradGradGradGradGradGradGradGradGradGrad

 Leave Link  103 at Thu Sep  8 14:50:40 2022, MaxMem= 24159191040 cpu:         0.3
 (Enter /public/home/users/caep010/software/Gaussian09/g09/l202.exe)
                          Input orientation:                          
 ---------------------------------------------------------------------
 Center     Atomic      Atomic             Coordinates (Angstroms)
 Number     Number       Type             X           Y           Z
 ---------------------------------------------------------------------
      1          8           0        1.400786    1.373330   -0.089425
      2          6           0        0.830946    0.181697   -0.540039
      3          8           0        1.772966   -0.815756   -0.284219
      4          6           0       -0.477534   -0.107530    0.210261
      5          8           0       -1.343568    0.967972   -0.072339
      6          8           0       -0.950862   -1.342107   -0.277972
      7          1           0        0.700556    2.035130   -0.136841
      8          1           0        0.587846    0.236444   -1.619732
      9          1           0        1.327437   -1.652052   -0.464948
     10          1           0       -0.261388   -0.166659    1.287300
     11          1           0       -2.027067    1.018121    0.602432
     12          1           0       -1.560118   -1.728691    0.357924
 ---------------------------------------------------------------------
                    Distance matrix (angstroms):
                    1          2          3          4          5
     1  O    0.000000
     2  C    1.395622   0.000000
     3  O    2.229027   1.395621   0.000000
     4  C    2.410569   1.535813   2.410569   0.000000
     5  O    2.774182   2.359128   3.597133   1.409462   0.000000
     6  O    3.597137   2.359131   2.774225   1.409465   2.352226
     7  H    0.964650   1.901259   3.049481   2.469690   2.306822
     8  H    2.072491   1.108076   2.072493   2.145280   2.580682
     9  H    3.049481   1.901257   0.964650   2.469691   3.762039
    10  H    2.651370   2.157247   2.651338   1.100104   2.075360
    11  H    3.514970   3.189527   4.311555   1.954978   0.961770
    12  H    4.311567   3.189531   3.515003   1.954982   2.739345
                    6          7          8          9         10
     6  O    0.000000
     7  H    3.762025   0.000000
     8  H    2.580652   2.333868   0.000000
     9  H    2.306875   3.754457   2.333868   0.000000
    10  H    2.075362   2.793097   3.055246   2.793050   0.000000
    11  H    2.739344   3.003458   3.519489   4.418350   2.233914
    12  H    0.961771   4.418347   3.519464   3.003492   2.233917
                   11         12
    11  H    0.000000
    12  H    2.796927   0.000000
 Stoichiometry    C2H6O4
 Framework group  C1[X(C2H6O4)]
 Deg. of freedom    30
 Full point group                 C1      NOp   1
 Largest Abelian subgroup         C1      NOp   1
 Largest concise Abelian subgroup C1      NOp   1
                         Standard orientation:                         
 ---------------------------------------------------------------------
 Center     Atomic      Atomic             Coordinates (Angstroms)
 Number     Number       Type             X           Y           Z
 ---------------------------------------------------------------------
      1          8           0       -1.444797    1.114515   -0.119737
      2          6           0       -0.724569   -0.000009    0.312543
      3          8           0       -1.444808   -1.114512   -0.119774
      4          6           0        0.685333   -0.000005   -0.296473
      5          8           0        1.314684    1.176120    0.158750
      6          8           0        1.314709   -1.176106    0.158789
      7          1           0       -0.880554    1.877225    0.054772
      8          1           0       -0.608743   -0.000025    1.414549
      9          1           0       -0.880573   -1.877232    0.054717
     10          1           0        0.596386   -0.000024   -1.392975
     11          1           0        2.045284    1.398468   -0.425875
     12          1           0        2.045314   -1.398459   -0.425830
 ---------------------------------------------------------------------
 Rotational constants (GHZ):      4.9175347      3.3138163      2.1075272
 Leave Link  202 at Thu Sep  8 14:50:40 2022, MaxMem= 24159191040 cpu:         0.5
 (Enter /public/home/users/caep010/software/Gaussian09/g09/l301.exe)
 Standard basis: 6-31G(d,p) (6D, 7F)
 Ernie: Thresh=  0.10000D-02 Tol=  0.10000D-05 Strict=F.
 There are   120 symmetry adapted cartesian basis functions of A   symmetry.
 There are   120 symmetry adapted basis functions of A   symmetry.
   120 basis functions,   210 primitive gaussians,   120 cartesian basis functions
    25 alpha electrons       25 beta electrons
       nuclear repulsion energy       271.2294634753 Hartrees.
 IExCor=  402 DFT=T Ex+Corr=B3LYP ExCW=0 ScaHFX=  0.200000
 ScaDFX=  0.800000  0.720000  1.000000  0.810000 ScalE2=  1.000000  1.000000
 IRadAn=      0 IRanWt=     -1 IRanGd=            0 ICorTp=0 IEmpDi=  4
 NAtoms=   12 NActive=   12 NUniq=   12 SFac= 1.00D+00 NAtFMM=   60 NAOKFM=F Big=F
 Integral buffers will be    131072 words long.
 Raffenetti 2 integral format.
 Two-electron integral symmetry is turned on.
 Leave Link  301 at Thu Sep  8 14:50:40 2022, MaxMem= 24159191040 cpu:         1.8
 (Enter /public/home/users/caep010/software/Gaussian09/g09/l302.exe)
 NPDir=0 NMtPBC=     1 NCelOv=     1 NCel=       1 NClECP=     1 NCelD=      1
         NCelK=      1 NCelE2=     1 NClLst=     1 CellRange=     0.0.
 One-electron integrals computed using PRISM.
 NBasis=   120 RedAO= T EigKep=  2.45D-03  NBF=   120
 NBsUse=   120 1.00D-06 EigRej= -1.00D+00 NBFU=   120
 Precomputing XC quadrature grid using
 IXCGrd= 4 IRadAn=           0 IRanWt=          -1 IRanGd=           0 AccXCQ= 0.00D+00.
 Generated NRdTot=       0 NPtTot=           0 NUsed=           0 NTot=          32
 NSgBfM=   120   120   120   120   120 MxSgAt=    12 MxSgA2=    12.
 Leave Link  302 at Thu Sep  8 14:50:41 2022, MaxMem= 24159191040 cpu:        11.2
 (Enter /public/home/users/caep010/software/Gaussian09/g09/l303.exe)
 DipDrv:  MaxL=1.
 Leave Link  303 at Thu Sep  8 14:50:41 2022, MaxMem= 24159191040 cpu:         0.7
 (Enter /public/home/users/caep010/software/Gaussian09/g09/l401.exe)
 ExpMin= 1.61D-01 ExpMax= 5.48D+03 ExpMxC= 8.25D+02 IAcc=1 IRadAn=         1 AccDes= 0.00D+00
 Harris functional with IExCor=  402 and IRadAn=       1 diagonalized for initial guess.
 HarFok:  IExCor=  402 AccDes= 0.00D+00 IRadAn=         1 IDoV= 1 UseB2=F ITyADJ=14
 ICtDFT=  3500011 ScaDFX=  1.000000  1.000000  1.000000  1.000000
 FoFCou: FMM=F IPFlag=           0 FMFlag=      100000 FMFlg1=           0
         NFxFlg=           0 DoJE=T BraDBF=F KetDBF=T FulRan=T
         wScrn=  0.000000 ICntrl=     500 IOpCl=  0 I1Cent=   200000004 NGrid=           0
         NMat0=    1 NMatS0=      1 NMatT0=    0 NMatD0=    1 NMtDS0=    0 NMtDT0=    0
 Petite list used in FoFCou.
 Harris En= -380.734002100492    
 JPrj=0 DoOrth=F DoCkMO=F.
 Leave Link  401 at Thu Sep  8 14:50:41 2022, MaxMem= 24159191040 cpu:        10.2
 (Enter /public/home/users/caep010/software/Gaussian09/g09/l502.exe)
 Closed shell SCF:
 Using DIIS extrapolation, IDIIS=  1040.
 Integral symmetry usage will be decided dynamically.
 Keep R1 ints in memory in canonical form, NReq=27367820.
 IVT=       66496 IEndB=       66496 NGot= 24159191040 MDV= 24132767115
 LenX= 24132767115 LenY= 24132752274
 Requested convergence on RMS density matrix=1.00D-08 within 128 cycles.
 Requested convergence on MAX density matrix=1.00D-06.
 Requested convergence on             energy=1.00D-06.
 No special actions if energy rises.
 FoFCou: FMM=F IPFlag=           0 FMFlag=           0 FMFlg1=           0
         NFxFlg=           0 DoJE=F BraDBF=F KetDBF=F FulRan=T
         wScrn=  0.000000 ICntrl=     600 IOpCl=  0 I1Cent=           0 NGrid=           0
         NMat0=    1 NMatS0=   7260 NMatT0=    0 NMatD0=    1 NMtDS0=    0 NMtDT0=    0
 Symmetry not used in FoFCou.
 Integral accuracy reduced to 1.0D-05 until final iterations.

 Cycle   1  Pass 0  IDiag  1:
 E= -380.523092237338    
 DIIS: error= 3.36D-02 at cycle   1 NSaved=   1.
 NSaved= 1 IEnMin= 1 EnMin= -380.523092237338     IErMin= 1 ErrMin= 3.36D-02
 ErrMax= 3.36D-02  0.00D+00 EMaxC= 1.00D-01 BMatC= 2.43D-01 BMatP= 2.43D-01
 IDIUse=3 WtCom= 6.64D-01 WtEn= 3.36D-01
 Coeff-Com:  0.100D+01
 Coeff-En:   0.100D+01
 Coeff:      0.100D+01
 Gap=     0.214 Goal=   None    Shift=    0.000
 GapD=    0.214 DampG=1.000 DampE=0.500 DampFc=0.5000 IDamp=-1.
 Damping current iteration by 5.00D-01
 RMSDP=7.87D-03 MaxDP=1.31D-01              OVMax= 1.57D-01

 Cycle   2  Pass 0  IDiag  1:
 E= -380.586980177256     Delta-E=       -0.063887939918 Rises=F Damp=T
 DIIS: error= 7.69D-03 at cycle   2 NSaved=   2.
 NSaved= 2 IEnMin= 2 EnMin= -380.586980177256     IErMin= 2 ErrMin= 7.69D-03
 ErrMax= 7.69D-03  0.00D+00 EMaxC= 1.00D-01 BMatC= 1.69D-02 BMatP= 2.43D-01
 IDIUse=3 WtCom= 9.23D-01 WtEn= 7.69D-02
 Coeff-Com:  0.162D+00 0.838D+00
 Coeff-En:   0.269D+00 0.731D+00
 Coeff:      0.170D+00 0.830D+00
 Gap=     0.289 Goal=   None    Shift=    0.000
 RMSDP=1.34D-03 MaxDP=1.98D-02 DE=-6.39D-02 OVMax= 9.49D-02

 Cycle   3  Pass 0  IDiag  1:
 E= -380.698568393745     Delta-E=       -0.111588216489 Rises=F Damp=F
 DIIS: error= 3.53D-03 at cycle   3 NSaved=   3.
 NSaved= 3 IEnMin= 3 EnMin= -380.698568393745     IErMin= 3 ErrMin= 3.53D-03
 ErrMax= 3.53D-03  0.00D+00 EMaxC= 1.00D-01 BMatC= 2.22D-03 BMatP= 1.69D-02
 IDIUse=3 WtCom= 9.65D-01 WtEn= 3.53D-02
 Coeff-Com:  0.296D-01 0.255D+00 0.716D+00
 Coeff-En:   0.000D+00 0.000D+00 0.100D+01
 Coeff:      0.286D-01 0.246D+00 0.726D+00
 Gap=     0.294 Goal=   None    Shift=    0.000
 RMSDP=5.46D-04 MaxDP=1.21D-02 DE=-1.12D-01 OVMax= 1.19D-02

 Cycle   4  Pass 0  IDiag  1:
 E= -380.699894975763     Delta-E=       -0.001326582018 Rises=F Damp=F
 DIIS: error= 1.99D-03 at cycle   4 NSaved=   4.
 NSaved= 4 IEnMin= 4 EnMin= -380.699894975763     IErMin= 4 ErrMin= 1.99D-03
 ErrMax= 1.99D-03  0.00D+00 EMaxC= 1.00D-01 BMatC= 7.60D-04 BMatP= 2.22D-03
 IDIUse=3 WtCom= 9.80D-01 WtEn= 1.99D-02
 Coeff-Com:  0.267D-02 0.452D-01 0.378D+00 0.574D+00
 Coeff-En:   0.000D+00 0.000D+00 0.248D+00 0.752D+00
 Coeff:      0.262D-02 0.443D-01 0.376D+00 0.577D+00
 Gap=     0.292 Goal=   None    Shift=    0.000
 RMSDP=2.22D-04 MaxDP=4.81D-03 DE=-1.33D-03 OVMax= 4.84D-03

 Cycle   5  Pass 0  IDiag  1:
 E= -380.700553425592     Delta-E=       -0.000658449829 Rises=F Damp=F
 DIIS: error= 2.42D-04 at cycle   5 NSaved=   5.
 NSaved= 5 IEnMin= 5 EnMin= -380.700553425592     IErMin= 5 ErrMin= 2.42D-04
 ErrMax= 2.42D-04  0.00D+00 EMaxC= 1.00D-01 BMatC= 1.34D-05 BMatP= 7.60D-04
 IDIUse=3 WtCom= 9.98D-01 WtEn= 2.42D-03
 Coeff-Com:  0.227D-03 0.384D-02 0.980D-01 0.200D+00 0.698D+00
 Coeff-En:   0.000D+00 0.000D+00 0.000D+00 0.000D+00 0.100D+01
 Coeff:      0.226D-03 0.383D-02 0.978D-01 0.199D+00 0.699D+00
 Gap=     0.291 Goal=   None    Shift=    0.000
 RMSDP=3.44D-05 MaxDP=5.86D-04 DE=-6.58D-04 OVMax= 6.69D-04

 Cycle   6  Pass 0  IDiag  1:
 E= -380.700560120013     Delta-E=       -0.000006694422 Rises=F Damp=F
 DIIS: error= 1.30D-04 at cycle   6 NSaved=   6.
 NSaved= 6 IEnMin= 6 EnMin= -380.700560120013     IErMin= 6 ErrMin= 1.30D-04
 ErrMax= 1.30D-04  0.00D+00 EMaxC= 1.00D-01 BMatC= 4.17D-06 BMatP= 1.34D-05
 IDIUse=3 WtCom= 9.99D-01 WtEn= 1.30D-03
 Coeff-Com: -0.447D-04-0.126D-02 0.309D-01 0.778D-01 0.417D+00 0.476D+00
 Coeff-En:   0.000D+00 0.000D+00 0.000D+00 0.000D+00 0.210D+00 0.790D+00
 Coeff:     -0.447D-04-0.125D-02 0.309D-01 0.777D-01 0.416D+00 0.476D+00
 Gap=     0.292 Goal=   None    Shift=    0.000
 RMSDP=1.33D-05 MaxDP=2.16D-04 DE=-6.69D-06 OVMax= 2.50D-04

 Cycle   7  Pass 0  IDiag  1:
 E= -380.700563113219     Delta-E=       -0.000002993206 Rises=F Damp=F
 DIIS: error= 7.02D-06 at cycle   7 NSaved=   7.
 NSaved= 7 IEnMin= 7 EnMin= -380.700563113219     IErMin= 7 ErrMin= 7.02D-06
 ErrMax= 7.02D-06  0.00D+00 EMaxC= 1.00D-01 BMatC= 1.04D-08 BMatP= 4.17D-06
 IDIUse=1 WtCom= 1.00D+00 WtEn= 0.00D+00
 Coeff-Com:  0.221D-04-0.380D-03 0.349D-02 0.106D-01 0.637D-01 0.948D-01
 Coeff-Com:  0.828D+00
 Coeff:      0.221D-04-0.380D-03 0.349D-02 0.106D-01 0.637D-01 0.948D-01
 Coeff:      0.828D+00
 Gap=     0.292 Goal=   None    Shift=    0.000
 RMSDP=1.11D-06 MaxDP=1.71D-05 DE=-2.99D-06 OVMax= 1.98D-05

 Initial convergence to 1.0D-05 achieved.  Increase integral accuracy.
 Cycle   8  Pass 1  IDiag  1:
 E= -380.700600701009     Delta-E=       -0.000037587790 Rises=F Damp=F
 DIIS: error= 2.47D-05 at cycle   1 NSaved=   1.
 NSaved= 1 IEnMin= 1 EnMin= -380.700600701009     IErMin= 1 ErrMin= 2.47D-05
 ErrMax= 2.47D-05  0.00D+00 EMaxC= 1.00D-01 BMatC= 4.65D-08 BMatP= 4.65D-08
 IDIUse=1 WtCom= 1.00D+00 WtEn= 0.00D+00
 Coeff-Com:  0.100D+01
 Coeff:      0.100D+01
 Gap=     0.292 Goal=   None    Shift=    0.000
 RMSDP=1.11D-06 MaxDP=1.71D-05 DE=-3.76D-05 OVMax= 5.44D-05

 Cycle   9  Pass 1  IDiag  1:
 E= -380.700600749794     Delta-E=       -0.000000048784 Rises=F Damp=F
 DIIS: error= 3.08D-06 at cycle   2 NSaved=   2.
 NSaved= 2 IEnMin= 2 EnMin= -380.700600749794     IErMin= 2 ErrMin= 3.08D-06
 ErrMax= 3.08D-06  0.00D+00 EMaxC= 1.00D-01 BMatC= 1.65D-09 BMatP= 4.65D-08
 IDIUse=1 WtCom= 1.00D+00 WtEn= 0.00D+00
 Coeff-Com:  0.499D-02 0.995D+00
 Coeff:      0.499D-02 0.995D+00
 Gap=     0.292 Goal=   None    Shift=    0.000
 RMSDP=6.96D-07 MaxDP=1.24D-05 DE=-4.88D-08 OVMax= 1.72D-05

 Cycle  10  Pass 1  IDiag  1:
 E= -380.700600748897     Delta-E=        0.000000000897 Rises=F Damp=F
 DIIS: error= 4.49D-06 at cycle   3 NSaved=   3.
 NSaved= 3 IEnMin= 2 EnMin= -380.700600749794     IErMin= 2 ErrMin= 3.08D-06
 ErrMax= 4.49D-06  0.00D+00 EMaxC= 1.00D-01 BMatC= 3.10D-09 BMatP= 1.65D-09
 IDIUse=1 WtCom= 1.00D+00 WtEn= 0.00D+00
 Coeff-Com: -0.301D-01 0.599D+00 0.432D+00
 Coeff:     -0.301D-01 0.599D+00 0.432D+00
 Gap=     0.292 Goal=   None    Shift=    0.000
 RMSDP=4.01D-07 MaxDP=7.97D-06 DE= 8.97D-10 OVMax= 9.47D-06

 Cycle  11  Pass 1  IDiag  1:
 E= -380.700600751150     Delta-E=       -0.000000002254 Rises=F Damp=F
 DIIS: error= 2.91D-07 at cycle   4 NSaved=   4.
 NSaved= 4 IEnMin= 4 EnMin= -380.700600751150     IErMin= 4 ErrMin= 2.91D-07
 ErrMax= 2.91D-07  0.00D+00 EMaxC= 1.00D-01 BMatC= 1.79D-11 BMatP= 1.65D-09
 IDIUse=1 WtCom= 1.00D+00 WtEn= 0.00D+00
 Coeff-Com: -0.104D-01 0.181D+00 0.150D+00 0.680D+00
 Coeff:     -0.104D-01 0.181D+00 0.150D+00 0.680D+00
 Gap=     0.292 Goal=   None    Shift=    0.000
 RMSDP=4.15D-08 MaxDP=9.85D-07 DE=-2.25D-09 OVMax= 1.03D-06

 Cycle  12  Pass 1  IDiag  1:
 E= -380.700600751167     Delta-E=       -0.000000000017 Rises=F Damp=F
 DIIS: error= 1.35D-07 at cycle   5 NSaved=   5.
 NSaved= 5 IEnMin= 5 EnMin= -380.700600751167     IErMin= 5 ErrMin= 1.35D-07
 ErrMax= 1.35D-07  0.00D+00 EMaxC= 1.00D-01 BMatC= 3.59D-12 BMatP= 1.79D-11
 IDIUse=1 WtCom= 1.00D+00 WtEn= 0.00D+00
 Coeff-Com: -0.110D-02 0.863D-02 0.154D-01 0.326D+00 0.652D+00
 Coeff:     -0.110D-02 0.863D-02 0.154D-01 0.326D+00 0.652D+00
 Gap=     0.292 Goal=   None    Shift=    0.000
 RMSDP=1.45D-08 MaxDP=4.63D-07 DE=-1.71D-11 OVMax= 4.02D-07

 Cycle  13  Pass 1  IDiag  1:
 E= -380.700600751169     Delta-E=       -0.000000000001 Rises=F Damp=F
 DIIS: error= 1.33D-08 at cycle   6 NSaved=   6.
 NSaved= 6 IEnMin= 6 EnMin= -380.700600751169     IErMin= 6 ErrMin= 1.33D-08
 ErrMax= 1.33D-08  0.00D+00 EMaxC= 1.00D-01 BMatC= 6.50D-14 BMatP= 3.59D-12
 IDIUse=1 WtCom= 1.00D+00 WtEn= 0.00D+00
 Coeff-Com:  0.165D-03-0.609D-02-0.220D-02 0.690D-01 0.202D+00 0.738D+00
 Coeff:      0.165D-03-0.609D-02-0.220D-02 0.690D-01 0.202D+00 0.738D+00
 Gap=     0.292 Goal=   None    Shift=    0.000
 RMSDP=2.56D-09 MaxDP=7.16D-08 DE=-1.14D-12 OVMax= 7.02D-08

 SCF Done:  E(RB3LYP) =  -380.700600751     A.U. after   13 cycles
            NFock= 13  Conv=0.26D-08     -V/T= 2.0082
 KE= 3.776133112358D+02 PE=-1.438042473350D+03 EE= 4.084990978879D+02
 Leave Link  502 at Thu Sep  8 14:50:43 2022, MaxMem= 24159191040 cpu:        38.3
 (Enter /public/home/users/caep010/software/Gaussian09/g09/l601.exe)
 Copying SCF densities to generalized density rwf, IOpCl= 0 IROHF=0.

 **********************************************************************

            Population analysis using the SCF density.

 **********************************************************************

 Orbital symmetries:
       Occupied  (A) (A) (A) (A) (A) (A) (A) (A) (A) (A) (A) (A)
                 (A) (A) (A) (A) (A) (A) (A) (A) (A) (A) (A) (A)
                 (A)
       Virtual   (A) (A) (A) (A) (A) (A) (A) (A) (A) (A) (A) (A)
                 (A) (A) (A) (A) (A) (A) (A) (A) (A) (A) (A) (A)
                 (A) (A) (A) (A) (A) (A) (A) (A) (A) (A) (A) (A)
                 (A) (A) (A) (A) (A) (A) (A) (A) (A) (A) (A) (A)
                 (A) (A) (A) (A) (A) (A) (A) (A) (A) (A) (A) (A)
                 (A) (A) (A) (A) (A) (A) (A) (A) (A) (A) (A) (A)
                 (A) (A) (A) (A) (A) (A) (A) (A) (A) (A) (A) (A)
                 (A) (A) (A) (A) (A) (A) (A) (A) (A) (A) (A)
 The electronic state is 1-A.
 Alpha  occ. eigenvalues --  -19.17276 -19.17276 -19.14181 -19.14181 -10.29175
 Alpha  occ. eigenvalues --  -10.27831  -1.08503  -1.04928  -1.02029  -0.98987
 Alpha  occ. eigenvalues --   -0.72241  -0.62112  -0.56374  -0.55023  -0.51623
 Alpha  occ. eigenvalues --   -0.46996  -0.46485  -0.39452  -0.38294  -0.38291
 Alpha  occ. eigenvalues --   -0.33544  -0.31450  -0.30890  -0.29119  -0.25192
 Alpha virt. eigenvalues --    0.03961   0.07513   0.10138   0.14145   0.14686
 Alpha virt. eigenvalues --    0.16343   0.19678   0.21005   0.25176   0.28468
 Alpha virt. eigenvalues --    0.31452   0.53653   0.54210   0.58461   0.60322
 Alpha virt. eigenvalues --    0.66503   0.67795   0.72659   0.76130   0.76317
 Alpha virt. eigenvalues --    0.80549   0.80758   0.84011   0.86583   0.88854
 Alpha virt. eigenvalues --    0.90603   0.92337   0.95466   0.99178   1.02354
 Alpha virt. eigenvalues --    1.04225   1.05182   1.09349   1.14286   1.18115
 Alpha virt. eigenvalues --    1.24924   1.29564   1.31773   1.36761   1.46882
 Alpha virt. eigenvalues --    1.47933   1.52748   1.54573   1.57476   1.59307
 Alpha virt. eigenvalues --    1.60304   1.65675   1.70783   1.77412   1.84521
 Alpha virt. eigenvalues --    1.87138   1.90590   1.93153   1.95989   2.00229
 Alpha virt. eigenvalues --    2.02614   2.03229   2.09089   2.15936   2.21959
 Alpha virt. eigenvalues --    2.26448   2.29412   2.34338   2.38514   2.40765
 Alpha virt. eigenvalues --    2.44217   2.53809   2.58654   2.59550   2.61720
 Alpha virt. eigenvalues --    2.64371   2.64944   2.70218   2.71166   2.71549
 Alpha virt. eigenvalues --    2.73520   2.83960   2.87509   2.87723   2.95909
 Alpha virt. eigenvalues --    2.97295   3.07270   3.07961   3.25150   3.40805
 Alpha virt. eigenvalues --    3.42915   3.44044   3.47915   3.48315   3.81734
 Alpha virt. eigenvalues --    3.90293   4.13500   4.15493   4.41994   4.60239
          Condensed to atoms (all electrons):
               1          2          3          4          5          6
     1  O    8.120192   0.255808  -0.049978  -0.036615  -0.004249   0.001619
     2  C    0.255808   4.605626   0.255808   0.294140  -0.046274  -0.046274
     3  O   -0.049978   0.255808   8.120189  -0.036615   0.001619  -0.004248
     4  C   -0.036615   0.294140  -0.036615   4.862889   0.194108   0.194109
     5  O   -0.004249  -0.046274   0.001619   0.194108   8.187377  -0.058954
     6  O    0.001619  -0.046274  -0.004248   0.194109  -0.058954   8.187377
     7  H    0.288471  -0.033395   0.005047  -0.008953   0.020162   0.000387
     8  H   -0.050718   0.362899  -0.050717  -0.077267   0.002271   0.002272
     9  H    0.005048  -0.033396   0.288470  -0.008952   0.000387   0.020160
    10  H    0.002738  -0.044299   0.002739   0.358532  -0.046456  -0.046456
    11  H   -0.000115   0.006138  -0.000108  -0.015508   0.278226   0.002306
    12  H   -0.000108   0.006138  -0.000115  -0.015508   0.002306   0.278225
               7          8          9         10         11         12
     1  O    0.288471  -0.050718   0.005048   0.002738  -0.000115  -0.000108
     2  C   -0.033395   0.362899  -0.033396  -0.044299   0.006138   0.006138
     3  O    0.005047  -0.050717   0.288470   0.002739  -0.000108  -0.000115
     4  C   -0.008953  -0.077267  -0.008952   0.358532  -0.015508  -0.015508
     5  O    0.020162   0.002271   0.000387  -0.046456   0.278226   0.002306
     6  O    0.000387   0.002272   0.020160  -0.046456   0.002306   0.278225
     7  H    0.414463   0.001237  -0.000388   0.001017  -0.000792  -0.000038
     8  H    0.001237   0.724302   0.001237   0.009160  -0.000467  -0.000467
     9  H   -0.000388   0.001237   0.414466   0.001017  -0.000038  -0.000792
    10  H    0.001017   0.009160   0.001017   0.690821  -0.009068  -0.009068
    11  H   -0.000792  -0.000467  -0.000038  -0.009068   0.427518   0.001227
    12  H   -0.000038  -0.000467  -0.000792  -0.009068   0.001227   0.427519
 Mulliken charges:
               1
     1  O   -0.532092
     2  C    0.417082
     3  O   -0.532090
     4  C    0.295640
     5  O   -0.530523
     6  O   -0.530523
     7  H    0.312784
     8  H    0.076257
     9  H    0.312783
    10  H    0.089324
    11  H    0.310680
    12  H    0.310679
 Sum of Mulliken charges =  -0.00000
 Mulliken charges with hydrogens summed into heavy atoms:
               1
     1  O   -0.219308
     2  C    0.493338
     3  O   -0.219308
     4  C    0.384965
     5  O   -0.219843
     6  O   -0.219844
 Electronic spatial extent (au):  <R**2>=            562.7856
 Charge=             -0.0000 electrons
 Dipole moment (field-independent basis, Debye):
    X=              4.4155    Y=             -0.0001    Z=             -1.4760  Tot=              4.6557
 Quadrupole moment (field-independent basis, Debye-Ang):
   XX=            -35.5499   YY=            -30.2377   ZZ=            -34.6404
   XY=              0.0001   XZ=             -6.4779   YZ=              0.0001
 Traceless Quadrupole moment (field-independent basis, Debye-Ang):
   XX=             -2.0739   YY=              3.2383   ZZ=             -1.1644
   XY=              0.0001   XZ=             -6.4779   YZ=              0.0001
 Octapole moment (field-independent basis, Debye-Ang**2):
  XXX=             34.6404  YYY=             -0.0001  ZZZ=             -0.9927  XYY=              3.8449
  XXY=             -0.0001  XXZ=             -7.8520  XZZ=              1.9956  YZZ=              0.0002
  YYZ=             -3.1103  XYZ=             -0.0001
 Hexadecapole moment (field-independent basis, Debye-Ang**3):
 XXXX=           -313.5675 YYYY=           -190.2927 ZZZZ=            -54.9933 XXXY=             -0.0005
 XXXZ=            -19.3626 YYYX=              0.0004 YYYZ=              0.0005 ZZZX=             -2.0071
 ZZZY=             -0.0000 XXYY=            -82.2071 XXZZ=            -65.0316 YYZZ=            -48.2930
 XXYZ=             -0.0003 YYXZ=             -9.5599 ZZXY=              0.0002
 N-N= 2.712294634753D+02 E-N=-1.438042473261D+03  KE= 3.776133112358D+02
 No NMR shielding tensors so no spin-rotation constants.
 Leave Link  601 at Thu Sep  8 14:50:43 2022, MaxMem= 24159191040 cpu:        12.3
 (Enter /public/home/users/caep010/software/Gaussian09/g09/l701.exe)
 Compute integral first derivatives.
 ... and contract with generalized density number  0.
 Leave Link  701 at Thu Sep  8 14:50:44 2022, MaxMem= 24159191040 cpu:        11.5
 (Enter /public/home/users/caep010/software/Gaussian09/g09/l702.exe)
 L702 exits ... SP integral derivatives will be done elsewhere.
 Leave Link  702 at Thu Sep  8 14:50:44 2022, MaxMem= 24159191040 cpu:         0.5
 (Enter /public/home/users/caep010/software/Gaussian09/g09/l703.exe)
 Compute integral first derivatives, UseDBF=F ICtDFT=           0.
 Integral derivatives from FoFJK, PRISM(SPDF).
 Calling FoFJK, ICntrl=      2127 FMM=F ISym2X=0 I1Cent= 0 IOpClX= 0 NMat=1 NMatS=1 NMatT=0.
 FoFJK:  IHMeth= 1 ICntrl=    2127 DoSepK=F KAlg= 0 I1Cent=   0 FoldK=F
 IRaf=         0 NMat=   1 IRICut=       1 DoRegI=T DoRafI=F ISym2E= 0.
 FoFCou: FMM=F IPFlag=           0 FMFlag=      100000 FMFlg1=         800
         NFxFlg=           0 DoJE=F BraDBF=F KetDBF=F FulRan=T
         wScrn=  0.000000 ICntrl=    2127 IOpCl=  0 I1Cent=           0 NGrid=           0
         NMat0=    1 NMatS0=      1 NMatT0=    0 NMatD0=    1 NMtDS0=    0 NMtDT0=    0
 Symmetry not used in FoFCou.
 Leave Link  703 at Thu Sep  8 14:50:44 2022, MaxMem= 24159191040 cpu:        10.5
 (Enter /public/home/users/caep010/software/Gaussian09/g09/l716.exe)
 Dipole        = 1.73719909D+00-2.01059803D-05-5.80692469D-01
 ***** Axes restored to original set *****
 -------------------------------------------------------------------
 Center     Atomic                   Forces (Hartrees/Bohr)
 Number     Number              X              Y              Z
 -------------------------------------------------------------------
      1        8           0.002763121   -0.000107327    0.001343544
      2        6          -0.001245978   -0.000116464   -0.001057024
      3        8           0.002612559    0.000773970    0.001421789
      4        6           0.002209819    0.000379819   -0.000057003
      5        8           0.001194065    0.001568322   -0.002308584
      6        8           0.001575368   -0.000668115   -0.002506436
      7        1          -0.002425238    0.002343128   -0.000560308
      8        1          -0.000357005   -0.000073136    0.000136326
      9        1          -0.001537411   -0.002875925   -0.001025005
     10        1           0.000149874    0.000026405   -0.000009979
     11        1          -0.002613828    0.000220846    0.002386940
     12        1          -0.002325346   -0.001471523    0.002235740
 -------------------------------------------------------------------
 Cartesian Forces:  Max     0.002875925 RMS     0.001613591
 Leave Link  716 at Thu Sep  8 14:50:44 2022, MaxMem= 24159191040 cpu:         0.7
 (Enter /public/home/users/caep010/software/Gaussian09/g09/l103.exe)

 GradGradGradGradGradGradGradGradGradGradGradGradGradGradGradGradGradGrad
 Berny optimization.
 FormGI is forming the generalized inverse of G from B-inverse, IUseBI=4.
 Internal  Forces:  Max     0.003543934 RMS     0.001224844
 Search for a local minimum.
 Step number   1 out of a maximum of   58
 All quantities printed in internal units (Hartrees-Bohrs-Radians)
 RMS Force = .12248D-02 SwitMx=.10000D-02 MixMth= 1
 Mixed Optimization -- RFO/linear search
 Second derivative matrix not updated -- first step.
 ITU=  0
     Eigenvalues ---    0.00292   0.01567   0.01567   0.01750   0.01750
     Eigenvalues ---    0.05661   0.06025   0.06286   0.06821   0.08731
     Eigenvalues ---    0.09581   0.16000   0.16000   0.16000   0.16000
     Eigenvalues ---    0.17553   0.18951   0.20167   0.20691   0.28893
     Eigenvalues ---    0.32805   0.33671   0.44087   0.44088   0.46354
     Eigenvalues ---    0.46354   0.54485   0.54485   0.55094   0.55094
 RFO step:  Lambda=-1.75428950D-04 EMin= 2.92207146D-03
 Linear search not attempted -- first point.
 Iteration  1 RMS(Cart)=  0.00577093 RMS(Int)=  0.00004697
 Iteration  2 RMS(Cart)=  0.00004154 RMS(Int)=  0.00000387
 Iteration  3 RMS(Cart)=  0.00000000 RMS(Int)=  0.00000387
 ITry= 1 IFail=0 DXMaxC= 1.78D-02 DCOld= 1.00D+10 DXMaxT= 3.00D-01 DXLimC= 3.00D+00 Rises=F
 Variable       Old X    -DE/DX   Delta X   Delta X   Delta X     New X
                                 (Linear)    (Quad)   (Total)
    R1        2.63734   0.00230   0.00000   0.00496   0.00496   2.64230
    R2        1.82292   0.00340   0.00000   0.00623   0.00623   1.82915
    R3        2.63734   0.00230   0.00000   0.00496   0.00496   2.64230
    R4        2.90227  -0.00030   0.00000  -0.00103  -0.00103   2.90123
    R5        2.09396  -0.00006   0.00000  -0.00018  -0.00018   2.09378
    R6        1.82292   0.00340   0.00000   0.00623   0.00623   1.82915
    R7        2.66350   0.00222   0.00000   0.00504   0.00504   2.66853
    R8        2.66350   0.00222   0.00000   0.00503   0.00503   2.66854
    R9        2.07889   0.00002   0.00000   0.00005   0.00005   2.07895
   R10        1.81748   0.00354   0.00000   0.00643   0.00643   1.82391
   R11        1.81748   0.00354   0.00000   0.00643   0.00643   1.82391
    A1        1.84785  -0.00019   0.00000  -0.00118  -0.00118   1.84667
    A2        1.84986   0.00091   0.00000   0.00601   0.00601   1.85587
    A3        1.92936  -0.00055   0.00000  -0.00268  -0.00268   1.92668
    A4        1.94121   0.00003   0.00000   0.00041   0.00040   1.94161
    A5        1.92936  -0.00055   0.00000  -0.00268  -0.00268   1.92668
    A6        1.94121   0.00003   0.00000   0.00040   0.00039   1.94160
    A7        1.87382   0.00012   0.00000  -0.00152  -0.00152   1.87230
    A8        1.84785  -0.00019   0.00000  -0.00117  -0.00117   1.84667
    A9        1.85651   0.00024   0.00000   0.00261   0.00260   1.85911
   A10        1.85651   0.00024   0.00000   0.00260   0.00259   1.85910
   A11        1.89760  -0.00030   0.00000  -0.00335  -0.00335   1.89426
   A12        1.97423   0.00011   0.00000   0.00285   0.00284   1.97707
   A13        1.93696  -0.00014   0.00000  -0.00227  -0.00227   1.93469
   A14        1.93696  -0.00014   0.00000  -0.00227  -0.00227   1.93469
   A15        1.91323   0.00020   0.00000   0.00127   0.00127   1.91451
   A16        1.91323   0.00020   0.00000   0.00127   0.00127   1.91450
    D1       -2.98930   0.00012   0.00000  -0.01078  -0.01078  -3.00008
    D2       -0.89810  -0.00030   0.00000  -0.01187  -0.01187  -0.90998
    D3        1.18180  -0.00049   0.00000  -0.01526  -0.01526   1.16653
    D4        2.98931  -0.00012   0.00000   0.01079   0.01079   3.00010
    D5        0.89811   0.00030   0.00000   0.01188   0.01188   0.91000
    D6       -1.18179   0.00049   0.00000   0.01528   0.01528  -1.16651
    D7        1.06562  -0.00041   0.00000  -0.00499  -0.00499   1.06062
    D8       -3.10839  -0.00003   0.00000   0.00103   0.00103  -3.10736
    D9       -1.02139  -0.00022   0.00000  -0.00199  -0.00199  -1.02338
   D10        3.10832   0.00003   0.00000  -0.00087  -0.00087   3.10745
   D11       -1.06569   0.00041   0.00000   0.00515   0.00515  -1.06054
   D12        1.02132   0.00022   0.00000   0.00213   0.00213   1.02345
   D13       -1.05462  -0.00019   0.00000  -0.00294  -0.00294  -1.05756
   D14        1.05455   0.00019   0.00000   0.00308   0.00308   1.05764
   D15        3.14156  -0.00000   0.00000   0.00007   0.00007  -3.14156
   D16       -2.77521   0.00021   0.00000   0.00021   0.00021  -2.77499
   D17        1.47626  -0.00029   0.00000  -0.00611  -0.00612   1.47014
   D18       -0.71401  -0.00007   0.00000  -0.00348  -0.00348  -0.71749
   D19        2.77521  -0.00021   0.00000  -0.00021  -0.00022   2.77499
   D20       -1.47626   0.00029   0.00000   0.00612   0.00612  -1.47014
   D21        0.71401   0.00007   0.00000   0.00348   0.00348   0.71749
         Item               Value     Threshold  Converged?
 Maximum Force            0.003544     0.000450     NO 
 RMS     Force            0.001225     0.000300     NO 
 Maximum Displacement     0.017757     0.001800     NO 
 RMS     Displacement     0.005767     0.001200     NO 
 Predicted change in Energy=-8.787813D-05
 Lowest energy point so far.  Saving SCF results.
 GradGradGradGradGradGradGradGradGradGradGradGradGradGradGradGradGradGrad

 Leave Link  103 at Thu Sep  8 14:50:44 2022, MaxMem= 24159191040 cpu:         2.3
 (Enter /public/home/users/caep010/software/Gaussian09/g09/l202.exe)
                          Input orientation:                          
 ---------------------------------------------------------------------
 Center     Atomic      Atomic             Coordinates (Angstroms)
 Number     Number       Type             X           Y           Z
 ---------------------------------------------------------------------
      1          8           0        1.399708    1.377329   -0.083768
      2          6           0        0.833923    0.182016   -0.537869
      3          8           0        1.773388   -0.820833   -0.279430
      4          6           0       -0.476189   -0.107133    0.208485
      5          8           0       -1.344034    0.971161   -0.071211
      6          8           0       -0.950160   -1.345452   -0.277337
      7          1           0        0.697987    2.041213   -0.145134
      8          1           0        0.592156    0.237036   -1.617752
      9          1           0        1.326700   -1.657134   -0.474344
     10          1           0       -0.259419   -0.166105    1.285436
     11          1           0       -2.030941    1.019676    0.605075
     12          1           0       -1.563119   -1.731875    0.360251
 ---------------------------------------------------------------------
                    Distance matrix (angstroms):
                    1          2          3          4          5
     1  O    0.000000
     2  C    1.398246   0.000000
     3  O    2.238266   1.398246   0.000000
     4  C    2.409985   1.535266   2.409984   0.000000
     5  O    2.773671   2.363052   3.601793   1.412127   0.000000
     6  O    3.601789   2.363047   2.773615   1.412128   2.358881
     7  H    0.967947   1.905081   3.060365   2.473687   2.306583
     8  H    2.074973   1.107982   2.074970   2.143584   2.584484
     9  H    3.060367   1.905083   0.967947   2.473695   3.768723
    10  H    2.647567   2.154304   2.647599   1.100133   2.076115
    11  H    3.517353   3.196160   4.317724   1.960673   0.965173
    12  H    4.317712   3.196155   3.517309   1.960672   2.746008
                    6          7          8          9         10
     6  O    0.000000
     7  H    3.768736   0.000000
     8  H    2.584515   2.331279   0.000000
     9  H    2.306524   3.765825   2.331269   0.000000
    10  H    2.076113   2.799180   3.052245   2.799245   0.000000
    11  H    2.746010   3.008887   3.526205   4.427665   2.237691
    12  H    0.965173   4.427664   3.526232   3.008852   2.237685
                   11         12
    11  H    0.000000
    12  H    2.801755   0.000000
 Stoichiometry    C2H6O4
 Framework group  C1[X(C2H6O4)]
 Deg. of freedom    30
 Full point group                 C1      NOp   1
 RotChk:  IX=3 Diff= 1.70D-03
 Largest Abelian subgroup         C1      NOp   1
 Largest concise Abelian subgroup C1      NOp   1
                         Standard orientation:                         
 ---------------------------------------------------------------------
 Center     Atomic      Atomic             Coordinates (Angstroms)
 Number     Number       Type             X           Y           Z
 ---------------------------------------------------------------------
      1          8           0       -1.443832    1.119131   -0.121428
      2          6           0       -0.726772    0.000011    0.312722
      3          8           0       -1.443816   -1.119135   -0.121390
      4          6           0        0.683573    0.000009   -0.293884
      5          8           0        1.315059    1.179432    0.158102
      6          8           0        1.315027   -1.179449    0.158056
      7          1           0       -0.879720    1.882916    0.066537
      8          1           0       -0.610993    0.000027    1.414639
      9          1           0       -0.879702   -1.882909    0.066617
     10          1           0        0.592661    0.000028   -1.390253
     11          1           0        2.048736    1.400871   -0.428618
     12          1           0        2.048699   -1.400883   -0.428674
 ---------------------------------------------------------------------
 Rotational constants (GHZ):      4.8877940      3.3146656      2.1021738
 Leave Link  202 at Thu Sep  8 14:50:44 2022, MaxMem= 24159191040 cpu:         0.2
 (Enter /public/home/users/caep010/software/Gaussian09/g09/l301.exe)
 Standard basis: 6-31G(d,p) (6D, 7F)
 Ernie: Thresh=  0.10000D-02 Tol=  0.10000D-05 Strict=F.
 There are   120 symmetry adapted cartesian basis functions of A   symmetry.
 There are   120 symmetry adapted basis functions of A   symmetry.
   120 basis functions,   210 primitive gaussians,   120 cartesian basis functions
    25 alpha electrons       25 beta electrons
       nuclear repulsion energy       270.8267874294 Hartrees.
 IExCor=  402 DFT=T Ex+Corr=B3LYP ExCW=0 ScaHFX=  0.200000
 ScaDFX=  0.800000  0.720000  1.000000  0.810000 ScalE2=  1.000000  1.000000
 IRadAn=      0 IRanWt=     -1 IRanGd=            0 ICorTp=0 IEmpDi=  4
 NAtoms=   12 NActive=   12 NUniq=   12 SFac= 1.00D+00 NAtFMM=   60 NAOKFM=F Big=F
 Integral buffers will be    131072 words long.
 Raffenetti 2 integral format.
 Two-electron integral symmetry is turned on.
 Leave Link  301 at Thu Sep  8 14:50:45 2022, MaxMem= 24159191040 cpu:         1.8
 (Enter /public/home/users/caep010/software/Gaussian09/g09/l302.exe)
 NPDir=0 NMtPBC=     1 NCelOv=     1 NCel=       1 NClECP=     1 NCelD=      1
         NCelK=      1 NCelE2=     1 NClLst=     1 CellRange=     0.0.
 One-electron integrals computed using PRISM.
 NBasis=   120 RedAO= T EigKep=  2.47D-03  NBF=   120
 NBsUse=   120 1.00D-06 EigRej= -1.00D+00 NBFU=   120
 Precomputing XC quadrature grid using
 IXCGrd= 4 IRadAn=           0 IRanWt=          -1 IRanGd=           0 AccXCQ= 0.00D+00.
 Generated NRdTot=       0 NPtTot=           0 NUsed=           0 NTot=          32
 NSgBfM=   120   120   120   120   120 MxSgAt=    12 MxSgA2=    12.
 Leave Link  302 at Thu Sep  8 14:50:45 2022, MaxMem= 24159191040 cpu:        10.6
 (Enter /public/home/users/caep010/software/Gaussian09/g09/l303.exe)
 DipDrv:  MaxL=1.
 Leave Link  303 at Thu Sep  8 14:50:45 2022, MaxMem= 24159191040 cpu:         3.2
 (Enter /public/home/users/caep010/software/Gaussian09/g09/l401.exe)
 Initial guess from the checkpoint file:  "B3LYP6-31Gdp.Frag_1069.chk"
 B after Tr=    -0.000000    0.000000    0.000000
         Rot=    1.000000   -0.000000    0.000034    0.000002 Ang=  -0.00 deg.
 Guess basis will be translated and rotated to current coordinates.
 JPrj=2 DoOrth=T DoCkMO=T.
 Leave Link  401 at Thu Sep  8 14:50:45 2022, MaxMem= 24159191040 cpu:         2.9
 (Enter /public/home/users/caep010/software/Gaussian09/g09/l502.exe)
 Closed shell SCF:
 Using DIIS extrapolation, IDIIS=  1040.
 Integral symmetry usage will be decided dynamically.
 Keep R1 ints in memory in canonical form, NReq=27367820.
 IVT=       66496 IEndB=       66496 NGot= 24159191040 MDV= 24132767115
 LenX= 24132767115 LenY= 24132752274
 Requested convergence on RMS density matrix=1.00D-08 within 128 cycles.
 Requested convergence on MAX density matrix=1.00D-06.
 Requested convergence on             energy=1.00D-06.
 No special actions if energy rises.
 FoFCou: FMM=F IPFlag=           0 FMFlag=           0 FMFlg1=           0
         NFxFlg=           0 DoJE=F BraDBF=F KetDBF=F FulRan=T
         wScrn=  0.000000 ICntrl=     600 IOpCl=  0 I1Cent=           0 NGrid=           0
         NMat0=    1 NMatS0=   7260 NMatT0=    0 NMatD0=    1 NMtDS0=    0 NMtDT0=    0
 Symmetry not used in FoFCou.

 Cycle   1  Pass 1  IDiag  1:
 E= -380.700609283912    
 DIIS: error= 6.82D-04 at cycle   1 NSaved=   1.
 NSaved= 1 IEnMin= 1 EnMin= -380.700609283912     IErMin= 1 ErrMin= 6.82D-04
 ErrMax= 6.82D-04  0.00D+00 EMaxC= 1.00D-01 BMatC= 6.02D-05 BMatP= 6.02D-05
 IDIUse=3 WtCom= 9.93D-01 WtEn= 6.82D-03
 Coeff-Com:  0.100D+01
 Coeff-En:   0.100D+01
 Coeff:      0.100D+01
 Gap=     1.534 Goal=   None    Shift=    0.000
 RMSDP=1.06D-04 MaxDP=2.41D-03              OVMax= 2.57D-03

 Cycle   2  Pass 1  IDiag  1:
 E= -380.700685092915     Delta-E=       -0.000075809003 Rises=F Damp=F
 DIIS: error= 1.11D-04 at cycle   2 NSaved=   2.
 NSaved= 2 IEnMin= 2 EnMin= -380.700685092915     IErMin= 2 ErrMin= 1.11D-04
 ErrMax= 1.11D-04  0.00D+00 EMaxC= 1.00D-01 BMatC= 3.01D-06 BMatP= 6.02D-05
 IDIUse=3 WtCom= 9.99D-01 WtEn= 1.11D-03
 Coeff-Com:  0.405D-01 0.959D+00
 Coeff-En:   0.000D+00 0.100D+01
 Coeff:      0.405D-01 0.960D+00
 Gap=     0.291 Goal=   None    Shift=    0.000
 RMSDP=2.39D-05 MaxDP=4.00D-04 DE=-7.58D-05 OVMax= 5.99D-04

 Cycle   3  Pass 1  IDiag  1:
 E= -380.700685356403     Delta-E=       -0.000000263489 Rises=F Damp=F
 DIIS: error= 1.23D-04 at cycle   3 NSaved=   3.
 NSaved= 3 IEnMin= 3 EnMin= -380.700685356403     IErMin= 2 ErrMin= 1.11D-04
 ErrMax= 1.23D-04  0.00D+00 EMaxC= 1.00D-01 BMatC= 3.19D-06 BMatP= 3.01D-06
 IDIUse=3 WtCom= 9.99D-01 WtEn= 1.23D-03
 Coeff-Com: -0.226D-01 0.516D+00 0.507D+00
 Coeff-En:   0.000D+00 0.470D+00 0.530D+00
 Coeff:     -0.226D-01 0.516D+00 0.507D+00
 Gap=     0.291 Goal=   None    Shift=    0.000
 RMSDP=1.24D-05 MaxDP=2.34D-04 DE=-2.63D-07 OVMax= 2.58D-04

 Cycle   4  Pass 1  IDiag  1:
 E= -380.700687621001     Delta-E=       -0.000002264598 Rises=F Damp=F
 DIIS: error= 2.16D-05 at cycle   4 NSaved=   4.
 NSaved= 4 IEnMin= 4 EnMin= -380.700687621001     IErMin= 4 ErrMin= 2.16D-05
 ErrMax= 2.16D-05  0.00D+00 EMaxC= 1.00D-01 BMatC= 7.24D-08 BMatP= 3.01D-06
 IDIUse=1 WtCom= 1.00D+00 WtEn= 0.00D+00
 Coeff-Com: -0.106D-01 0.158D+00 0.207D+00 0.645D+00
 Coeff:     -0.106D-01 0.158D+00 0.207D+00 0.645D+00
 Gap=     0.291 Goal=   None    Shift=    0.000
 RMSDP=2.38D-06 MaxDP=4.14D-05 DE=-2.26D-06 OVMax= 5.21D-05

 Cycle   5  Pass 1  IDiag  1:
 E= -380.700687666744     Delta-E=       -0.000000045743 Rises=F Damp=F
 DIIS: error= 7.33D-06 at cycle   5 NSaved=   5.
 NSaved= 5 IEnMin= 5 EnMin= -380.700687666744     IErMin= 5 ErrMin= 7.33D-06
 ErrMax= 7.33D-06  0.00D+00 EMaxC= 1.00D-01 BMatC= 1.12D-08 BMatP= 7.24D-08
 IDIUse=1 WtCom= 1.00D+00 WtEn= 0.00D+00
 Coeff-Com: -0.272D-02 0.234D-01 0.491D-01 0.327D+00 0.603D+00
 Coeff:     -0.272D-02 0.234D-01 0.491D-01 0.327D+00 0.603D+00
 Gap=     0.291 Goal=   None    Shift=    0.000
 RMSDP=9.15D-07 MaxDP=2.12D-05 DE=-4.57D-08 OVMax= 2.03D-05

 Cycle   6  Pass 1  IDiag  1:
 E= -380.700687676496     Delta-E=       -0.000000009752 Rises=F Damp=F
 DIIS: error= 1.26D-06 at cycle   6 NSaved=   6.
 NSaved= 6 IEnMin= 6 EnMin= -380.700687676496     IErMin= 6 ErrMin= 1.26D-06
 ErrMax= 1.26D-06  0.00D+00 EMaxC= 1.00D-01 BMatC= 3.18D-10 BMatP= 1.12D-08
 IDIUse=1 WtCom= 1.00D+00 WtEn= 0.00D+00
 Coeff-Com: -0.471D-04-0.494D-02 0.251D-05 0.577D-01 0.202D+00 0.746D+00
 Coeff:     -0.471D-04-0.494D-02 0.251D-05 0.577D-01 0.202D+00 0.746D+00
 Gap=     0.291 Goal=   None    Shift=    0.000
 RMSDP=1.83D-07 MaxDP=2.37D-06 DE=-9.75D-09 OVMax= 4.41D-06

 Cycle   7  Pass 1  IDiag  1:
 E= -380.700687676762     Delta-E=       -0.000000000266 Rises=F Damp=F
 DIIS: error= 3.99D-07 at cycle   7 NSaved=   7.
 NSaved= 7 IEnMin= 7 EnMin= -380.700687676762     IErMin= 7 ErrMin= 3.99D-07
 ErrMax= 3.99D-07  0.00D+00 EMaxC= 1.00D-01 BMatC= 2.84D-11 BMatP= 3.18D-10
 IDIUse=1 WtCom= 1.00D+00 WtEn= 0.00D+00
 Coeff-Com:  0.704D-04-0.337D-02-0.175D-02 0.171D-01 0.790D-01 0.351D+00
 Coeff-Com:  0.558D+00
 Coeff:      0.704D-04-0.337D-02-0.175D-02 0.171D-01 0.790D-01 0.351D+00
 Coeff:      0.558D+00
 Gap=     0.291 Goal=   None    Shift=    0.000
 RMSDP=4.94D-08 MaxDP=7.64D-07 DE=-2.66D-10 OVMax= 9.34D-07

 Cycle   8  Pass 1  IDiag  1:
 E= -380.700687676779     Delta-E=       -0.000000000017 Rises=F Damp=F
 DIIS: error= 1.22D-07 at cycle   8 NSaved=   8.
 NSaved= 8 IEnMin= 8 EnMin= -380.700687676779     IErMin= 8 ErrMin= 1.22D-07
 ErrMax= 1.22D-07  0.00D+00 EMaxC= 1.00D-01 BMatC= 3.71D-12 BMatP= 2.84D-11
 IDIUse=1 WtCom= 1.00D+00 WtEn= 0.00D+00
 Coeff-Com:  0.404D-04-0.816D-03-0.900D-03-0.204D-02 0.338D-02 0.397D-01
 Coeff-Com:  0.280D+00 0.681D+00
 Coeff:      0.404D-04-0.816D-03-0.900D-03-0.204D-02 0.338D-02 0.397D-01
 Coeff:      0.280D+00 0.681D+00
 Gap=     0.291 Goal=   None    Shift=    0.000
 RMSDP=1.48D-08 MaxDP=2.28D-07 DE=-1.68D-11 OVMax= 3.62D-07

 Cycle   9  Pass 1  IDiag  1:
 E= -380.700687676785     Delta-E=       -0.000000000006 Rises=F Damp=F
 DIIS: error= 1.27D-08 at cycle   9 NSaved=   9.
 NSaved= 9 IEnMin= 9 EnMin= -380.700687676785     IErMin= 9 ErrMin= 1.27D-08
 ErrMax= 1.27D-08  0.00D+00 EMaxC= 1.00D-01 BMatC= 4.56D-14 BMatP= 3.71D-12
 IDIUse=1 WtCom= 1.00D+00 WtEn= 0.00D+00
 Coeff-Com:  0.967D-05-0.103D-03-0.182D-03-0.116D-02-0.189D-02-0.197D-02
 Coeff-Com:  0.579D-01 0.190D+00 0.758D+00
 Coeff:      0.967D-05-0.103D-03-0.182D-03-0.116D-02-0.189D-02-0.197D-02
 Coeff:      0.579D-01 0.190D+00 0.758D+00
 Gap=     0.291 Goal=   None    Shift=    0.000
 RMSDP=2.19D-09 MaxDP=4.16D-08 DE=-6.03D-12 OVMax= 6.34D-08

 SCF Done:  E(RB3LYP) =  -380.700687677     A.U. after    9 cycles
            NFock=  9  Conv=0.22D-08     -V/T= 2.0083
 KE= 3.775662702342D+02 PE=-1.437216100527D+03 EE= 4.081223551866D+02
 Leave Link  502 at Thu Sep  8 14:50:47 2022, MaxMem= 24159191040 cpu:        28.2
 (Enter /public/home/users/caep010/software/Gaussian09/g09/l701.exe)
 Compute integral first derivatives.
 ... and contract with generalized density number  0.
 Leave Link  701 at Thu Sep  8 14:50:47 2022, MaxMem= 24159191040 cpu:        10.6
 (Enter /public/home/users/caep010/software/Gaussian09/g09/l702.exe)
 L702 exits ... SP integral derivatives will be done elsewhere.
 Leave Link  702 at Thu Sep  8 14:50:47 2022, MaxMem= 24159191040 cpu:         0.5
 (Enter /public/home/users/caep010/software/Gaussian09/g09/l703.exe)
 Compute integral first derivatives, UseDBF=F ICtDFT=           0.
 Integral derivatives from FoFJK, PRISM(SPDF).
 Calling FoFJK, ICntrl=      2127 FMM=F ISym2X=0 I1Cent= 0 IOpClX= 0 NMat=1 NMatS=1 NMatT=0.
 FoFJK:  IHMeth= 1 ICntrl=    2127 DoSepK=F KAlg= 0 I1Cent=   0 FoldK=F
 IRaf=         0 NMat=   1 IRICut=       1 DoRegI=T DoRafI=F ISym2E= 0.
 FoFCou: FMM=F IPFlag=           0 FMFlag=      100000 FMFlg1=         800
         NFxFlg=           0 DoJE=F BraDBF=F KetDBF=F FulRan=T
         wScrn=  0.000000 ICntrl=    2127 IOpCl=  0 I1Cent=           0 NGrid=           0
         NMat0=    1 NMatS0=      1 NMatT0=    0 NMatD0=    1 NMtDS0=    0 NMtDT0=    0
 Symmetry not used in FoFCou.
 Leave Link  703 at Thu Sep  8 14:50:47 2022, MaxMem= 24159191040 cpu:        10.4
 (Enter /public/home/users/caep010/software/Gaussian09/g09/l716.exe)
 Dipole        = 1.73127059D+00 2.82573692D-05-5.62809185D-01
 ***** Axes restored to original set *****
 -------------------------------------------------------------------
 Center     Atomic                   Forces (Hartrees/Bohr)
 Number     Number              X              Y              Z
 -------------------------------------------------------------------
      1        8           0.000718560   -0.000239887    0.000528533
      2        6          -0.001514330   -0.000170715   -0.000987816
      3        8           0.000615968    0.000368751    0.000582858
      4        6           0.000553953   -0.000017120    0.001238406
      5        8          -0.000042451    0.000220413   -0.000537744
      6        8           0.000014670   -0.000126217   -0.000568638
      7        1          -0.000222137   -0.000157949   -0.000297196
      8        1           0.000169932    0.000022151    0.000080146
      9        1          -0.000270679    0.000125376   -0.000271464
     10        1           0.000012897    0.000008038   -0.000063409
     11        1           0.000016653   -0.000221556    0.000130085
     12        1          -0.000053036    0.000188715    0.000166240
 -------------------------------------------------------------------
 Cartesian Forces:  Max     0.001514330 RMS     0.000472111
 Leave Link  716 at Thu Sep  8 14:50:47 2022, MaxMem= 24159191040 cpu:         0.6
 (Enter /public/home/users/caep010/software/Gaussian09/g09/l103.exe)

 GradGradGradGradGradGradGradGradGradGradGradGradGradGradGradGradGradGrad
 Berny optimization.
 Using GEDIIS/GDIIS optimizer.
 FormGI is forming the generalized inverse of G from B-inverse, IUseBI=4.
 Internal  Forces:  Max     0.000649164 RMS     0.000216039
 Search for a local minimum.
 Step number   2 out of a maximum of   58
 All quantities printed in internal units (Hartrees-Bohrs-Radians)
 RMS Force = .21604D-03 SwitMx=.10000D-02 MixMth= 2
 Mixed Optimization -- En-DIIS/RFO-DIIS
 Update second derivatives using D2CorX and points    1    2
 DE= -8.69D-05 DEPred=-8.79D-05 R= 9.89D-01
 TightC=F SS=  1.41D+00  RLast= 3.90D-02 DXNew= 5.0454D-01 1.1711D-01
 Trust test= 9.89D-01 RLast= 3.90D-02 DXMaxT set to 3.00D-01
 ITU=  1  0
 Use linear search instead of GDIIS.
     Eigenvalues ---    0.00292   0.01528   0.01567   0.01615   0.01750
     Eigenvalues ---    0.05690   0.06039   0.06359   0.07268   0.08742
     Eigenvalues ---    0.09749   0.15559   0.16000   0.16000   0.16121
     Eigenvalues ---    0.17601   0.19587   0.20204   0.20731   0.28780
     Eigenvalues ---    0.32789   0.33669   0.43792   0.44088   0.46354
     Eigenvalues ---    0.46891   0.54236   0.54485   0.54972   0.55094
 RFO step:  Lambda=-2.29829873D-05 EMin= 2.92207824D-03
 Quartic linear search produced a step of -0.00507.
 Iteration  1 RMS(Cart)=  0.00284464 RMS(Int)=  0.00001467
 Iteration  2 RMS(Cart)=  0.00001421 RMS(Int)=  0.00000141
 Iteration  3 RMS(Cart)=  0.00000000 RMS(Int)=  0.00000141
 ITry= 1 IFail=0 DXMaxC= 9.69D-03 DCOld= 1.00D+10 DXMaxT= 3.00D-01 DXLimC= 3.00D+00 Rises=F
 Variable       Old X    -DE/DX   Delta X   Delta X   Delta X     New X
                                 (Linear)    (Quad)   (Total)
    R1        2.64230  -0.00006  -0.00003   0.00054   0.00051   2.64281
    R2        1.82915   0.00007  -0.00003   0.00098   0.00095   1.83010
    R3        2.64230  -0.00007  -0.00003   0.00053   0.00051   2.64281
    R4        2.90123  -0.00026   0.00001  -0.00104  -0.00103   2.90020
    R5        2.09378  -0.00011   0.00000  -0.00037  -0.00037   2.09341
    R6        1.82915   0.00007  -0.00003   0.00098   0.00095   1.83010
    R7        2.66853   0.00010  -0.00003   0.00090   0.00087   2.66941
    R8        2.66854   0.00010  -0.00003   0.00090   0.00088   2.66941
    R9        2.07895  -0.00006  -0.00000  -0.00017  -0.00017   2.07878
   R10        1.82391   0.00007  -0.00003   0.00100   0.00096   1.82488
   R11        1.82391   0.00007  -0.00003   0.00100   0.00096   1.82488
    A1        1.84667  -0.00065   0.00001  -0.00419  -0.00418   1.84249
    A2        1.85587  -0.00039  -0.00003  -0.00344  -0.00347   1.85240
    A3        1.92668   0.00006   0.00001  -0.00094  -0.00093   1.92575
    A4        1.94161   0.00003  -0.00000   0.00089   0.00089   1.94250
    A5        1.92668   0.00006   0.00001  -0.00093  -0.00093   1.92575
    A6        1.94160   0.00003  -0.00000   0.00090   0.00090   1.94250
    A7        1.87230   0.00022   0.00001   0.00342   0.00343   1.87573
    A8        1.84667  -0.00065   0.00001  -0.00419  -0.00419   1.84249
    A9        1.85911  -0.00006  -0.00001  -0.00078  -0.00079   1.85832
   A10        1.85910  -0.00006  -0.00001  -0.00077  -0.00078   1.85832
   A11        1.89426   0.00008   0.00002   0.00094   0.00096   1.89522
   A12        1.97707  -0.00018  -0.00001  -0.00194  -0.00196   1.97512
   A13        1.93469   0.00011   0.00001   0.00124   0.00125   1.93594
   A14        1.93469   0.00011   0.00001   0.00125   0.00126   1.93595
   A15        1.91451  -0.00044  -0.00001  -0.00258  -0.00258   1.91192
   A16        1.91450  -0.00044  -0.00001  -0.00257  -0.00258   1.91192
    D1       -3.00008  -0.00012   0.00005  -0.00663  -0.00658  -3.00666
    D2       -0.90998  -0.00026   0.00006  -0.01031  -0.01025  -0.92023
    D3        1.16653   0.00007   0.00008  -0.00607  -0.00600   1.16054
    D4        3.00010   0.00012  -0.00005   0.00661   0.00656   3.00666
    D5        0.91000   0.00026  -0.00006   0.01030   0.01024   0.92023
    D6       -1.16651  -0.00007  -0.00008   0.00605   0.00597  -1.16054
    D7        1.06062   0.00034   0.00003   0.00412   0.00415   1.06477
    D8       -3.10736   0.00007  -0.00001   0.00104   0.00104  -3.10633
    D9       -1.02338   0.00021   0.00001   0.00259   0.00260  -1.02077
   D10        3.10745  -0.00007   0.00000  -0.00124  -0.00124   3.10621
   D11       -1.06054  -0.00034  -0.00003  -0.00432  -0.00435  -1.06489
   D12        1.02345  -0.00021  -0.00001  -0.00277  -0.00279   1.02066
   D13       -1.05756   0.00014   0.00001   0.00145   0.00146  -1.05610
   D14        1.05764  -0.00014  -0.00002  -0.00163  -0.00165   1.05599
   D15       -3.14156   0.00000  -0.00000  -0.00009  -0.00009   3.14154
   D16       -2.77499  -0.00014  -0.00000  -0.00365  -0.00365  -2.77864
   D17        1.47014   0.00007   0.00003  -0.00116  -0.00113   1.46901
   D18       -0.71749  -0.00002   0.00002  -0.00231  -0.00229  -0.71978
   D19        2.77499   0.00014   0.00000   0.00366   0.00366   2.77864
   D20       -1.47014  -0.00007  -0.00003   0.00116   0.00113  -1.46901
   D21        0.71749   0.00002  -0.00002   0.00231   0.00229   0.71978
         Item               Value     Threshold  Converged?
 Maximum Force            0.000649     0.000450     NO 
 RMS     Force            0.000216     0.000300     YES
 Maximum Displacement     0.009687     0.001800     NO 
 RMS     Displacement     0.002849     0.001200     NO 
 Predicted change in Energy=-1.149753D-05
 Lowest energy point so far.  Saving SCF results.
 GradGradGradGradGradGradGradGradGradGradGradGradGradGradGradGradGradGrad

 Leave Link  103 at Thu Sep  8 14:50:48 2022, MaxMem= 24159191040 cpu:         1.7
 (Enter /public/home/users/caep010/software/Gaussian09/g09/l202.exe)
                          Input orientation:                          
 ---------------------------------------------------------------------
 Center     Atomic      Atomic             Coordinates (Angstroms)
 Number     Number       Type             X           Y           Z
 ---------------------------------------------------------------------
      1          8           0        1.400189    1.375928   -0.081043
      2          6           0        0.833104    0.181843   -0.537575
      3          8           0        1.773510   -0.819794   -0.276412
      4          6           0       -0.475628   -0.107197    0.210115
      5          8           0       -1.344119    0.970784   -0.071116
      6          8           0       -0.950442   -1.345098   -0.277291
      7          1           0        0.698642    2.039954   -0.150260
      8          1           0        0.593761    0.237266   -1.617777
      9          1           0        1.326839   -1.654855   -0.479014
     10          1           0       -0.258612   -0.166168    1.286926
     11          1           0       -2.031978    1.016375    0.605136
     12          1           0       -1.565267   -1.729138    0.360712
 ---------------------------------------------------------------------
                    Distance matrix (angstroms):
                    1          2          3          4          5
     1  O    0.000000
     2  C    1.398516   0.000000
     3  O    2.235785   1.398516   0.000000
     4  C    2.408967   1.534719   2.408967   0.000000
     5  O    2.774071   2.362268   3.601101   1.412590   0.000000
     6  O    3.601106   2.362273   2.774142   1.412591   2.358135
     7  H    0.968447   1.902806   3.057681   2.473669   2.307003
     8  H    2.075676   1.107787   2.075679   2.145562   2.585651
     9  H    3.057680   1.902804   0.968447   2.473668   3.767542
    10  H    2.645944   2.154474   2.645897   1.100043   2.077321
    11  H    3.518506   3.195453   4.316292   1.959765   0.965683
    12  H    4.316308   3.195458   3.518560   1.959767   2.743165
                    6          7          8          9         10
     6  O    0.000000
     7  H    3.767519   0.000000
     8  H    2.585603   2.326863   0.000000
     9  H    2.307087   3.762223   2.326866   0.000000
    10  H    2.077325   2.801574   3.053948   2.801497   0.000000
    11  H    2.743164   3.012411   3.527443   4.426341   2.237872
    12  H    0.965683   4.426334   3.527402   3.012464   2.237877
                   11         12
    11  H    0.000000
    12  H    2.795603   0.000000
 Stoichiometry    C2H6O4
 Framework group  C1[X(C2H6O4)]
 Deg. of freedom    30
 Full point group                 C1      NOp   1
 RotChk:  IX=0 Diff= 9.83D-04
 Largest Abelian subgroup         C1      NOp   1
 Largest concise Abelian subgroup C1      NOp   1
                         Standard orientation:                         
 ---------------------------------------------------------------------
 Center     Atomic      Atomic             Coordinates (Angstroms)
 Number     Number       Type             X           Y           Z
 ---------------------------------------------------------------------
      1          8           0       -1.443977    1.117897   -0.122256
      2          6           0       -0.725802   -0.000014    0.314032
      3          8           0       -1.443999   -1.117888   -0.122313
      4          6           0        0.682887   -0.000011   -0.295031
      5          8           0        1.315212    1.179077    0.158097
      6          8           0        1.315250   -1.179057    0.158159
      7          1           0       -0.880737    1.881106    0.073091
      8          1           0       -0.611735   -0.000040    1.415931
      9          1           0       -0.880771   -1.881117    0.072997
     10          1           0        0.590957   -0.000039   -1.391226
     11          1           0        2.049922    1.397808   -0.429187
     12          1           0        2.049966   -1.397796   -0.429114
 ---------------------------------------------------------------------
 Rotational constants (GHZ):      4.8931959      3.3135729      2.1033244
 Leave Link  202 at Thu Sep  8 14:50:48 2022, MaxMem= 24159191040 cpu:         0.2
 (Enter /public/home/users/caep010/software/Gaussian09/g09/l301.exe)
 Standard basis: 6-31G(d,p) (6D, 7F)
 Ernie: Thresh=  0.10000D-02 Tol=  0.10000D-05 Strict=F.
 There are   120 symmetry adapted cartesian basis functions of A   symmetry.
 There are   120 symmetry adapted basis functions of A   symmetry.
   120 basis functions,   210 primitive gaussians,   120 cartesian basis functions
    25 alpha electrons       25 beta electrons
       nuclear repulsion energy       270.8480112164 Hartrees.
 IExCor=  402 DFT=T Ex+Corr=B3LYP ExCW=0 ScaHFX=  0.200000
 ScaDFX=  0.800000  0.720000  1.000000  0.810000 ScalE2=  1.000000  1.000000
 IRadAn=      0 IRanWt=     -1 IRanGd=            0 ICorTp=0 IEmpDi=  4
 NAtoms=   12 NActive=   12 NUniq=   12 SFac= 1.00D+00 NAtFMM=   60 NAOKFM=F Big=F
 Integral buffers will be    131072 words long.
 Raffenetti 2 integral format.
 Two-electron integral symmetry is turned on.
 Leave Link  301 at Thu Sep  8 14:50:48 2022, MaxMem= 24159191040 cpu:         1.6
 (Enter /public/home/users/caep010/software/Gaussian09/g09/l302.exe)
 NPDir=0 NMtPBC=     1 NCelOv=     1 NCel=       1 NClECP=     1 NCelD=      1
         NCelK=      1 NCelE2=     1 NClLst=     1 CellRange=     0.0.
 One-electron integrals computed using PRISM.
 NBasis=   120 RedAO= T EigKep=  2.46D-03  NBF=   120
 NBsUse=   120 1.00D-06 EigRej= -1.00D+00 NBFU=   120
 Precomputing XC quadrature grid using
 IXCGrd= 4 IRadAn=           0 IRanWt=          -1 IRanGd=           0 AccXCQ= 0.00D+00.
 Generated NRdTot=       0 NPtTot=           0 NUsed=           0 NTot=          32
 NSgBfM=   120   120   120   120   120 MxSgAt=    12 MxSgA2=    12.
 Leave Link  302 at Thu Sep  8 14:50:48 2022, MaxMem= 24159191040 cpu:        14.6
 (Enter /public/home/users/caep010/software/Gaussian09/g09/l303.exe)
 DipDrv:  MaxL=1.
 Leave Link  303 at Thu Sep  8 14:50:48 2022, MaxMem= 24159191040 cpu:         0.7
 (Enter /public/home/users/caep010/software/Gaussian09/g09/l401.exe)
 Initial guess from the checkpoint file:  "B3LYP6-31Gdp.Frag_1069.chk"
 B after Tr=    -0.000000   -0.000000   -0.000000
         Rot=    1.000000    0.000000   -0.000047   -0.000003 Ang=   0.01 deg.
 Guess basis will be translated and rotated to current coordinates.
 JPrj=2 DoOrth=T DoCkMO=T.
 Leave Link  401 at Thu Sep  8 14:50:48 2022, MaxMem= 24159191040 cpu:         3.0
 (Enter /public/home/users/caep010/software/Gaussian09/g09/l502.exe)
 Closed shell SCF:
 Using DIIS extrapolation, IDIIS=  1040.
 Integral symmetry usage will be decided dynamically.
 Keep R1 ints in memory in canonical form, NReq=27367820.
 IVT=       66496 IEndB=       66496 NGot= 24159191040 MDV= 24132767115
 LenX= 24132767115 LenY= 24132752274
 Requested convergence on RMS density matrix=1.00D-08 within 128 cycles.
 Requested convergence on MAX density matrix=1.00D-06.
 Requested convergence on             energy=1.00D-06.
 No special actions if energy rises.
 FoFCou: FMM=F IPFlag=           0 FMFlag=           0 FMFlg1=           0
         NFxFlg=           0 DoJE=F BraDBF=F KetDBF=F FulRan=T
         wScrn=  0.000000 ICntrl=     600 IOpCl=  0 I1Cent=           0 NGrid=           0
         NMat0=    1 NMatS0=   7260 NMatT0=    0 NMatD0=    1 NMtDS0=    0 NMtDT0=    0
 Symmetry not used in FoFCou.

 Cycle   1  Pass 1  IDiag  1:
 E= -380.700678419260    
 DIIS: error= 3.27D-04 at cycle   1 NSaved=   1.
 NSaved= 1 IEnMin= 1 EnMin= -380.700678419260     IErMin= 1 ErrMin= 3.27D-04
 ErrMax= 3.27D-04  0.00D+00 EMaxC= 1.00D-01 BMatC= 1.46D-05 BMatP= 1.46D-05
 IDIUse=3 WtCom= 9.97D-01 WtEn= 3.27D-03
 Coeff-Com:  0.100D+01
 Coeff-En:   0.100D+01
 Coeff:      0.100D+01
 Gap=     1.534 Goal=   None    Shift=    0.000
 RMSDP=6.02D-05 MaxDP=1.35D-03              OVMax= 1.59D-03

 Cycle   2  Pass 1  IDiag  1:
 E= -380.700697951996     Delta-E=       -0.000019532736 Rises=F Damp=F
 DIIS: error= 6.18D-05 at cycle   2 NSaved=   2.
 NSaved= 2 IEnMin= 2 EnMin= -380.700697951996     IErMin= 2 ErrMin= 6.18D-05
 ErrMax= 6.18D-05  0.00D+00 EMaxC= 1.00D-01 BMatC= 6.47D-07 BMatP= 1.46D-05
 IDIUse=1 WtCom= 1.00D+00 WtEn= 0.00D+00
 Coeff-Com:  0.113D-01 0.989D+00
 Coeff:      0.113D-01 0.989D+00
 Gap=     0.291 Goal=   None    Shift=    0.000
 RMSDP=1.13D-05 MaxDP=2.50D-04 DE=-1.95D-05 OVMax= 3.12D-04

 Cycle   3  Pass 1  IDiag  1:
 E= -380.700697662600     Delta-E=        0.000000289396 Rises=F Damp=F
 DIIS: error= 8.98D-05 at cycle   3 NSaved=   3.
 NSaved= 3 IEnMin= 2 EnMin= -380.700697951996     IErMin= 2 ErrMin= 6.18D-05
 ErrMax= 8.98D-05  0.00D+00 EMaxC= 1.00D-01 BMatC= 1.17D-06 BMatP= 6.47D-07
 IDIUse=1 WtCom= 1.00D+00 WtEn= 0.00D+00
 Coeff-Com: -0.320D-01 0.596D+00 0.436D+00
 Coeff:     -0.320D-01 0.596D+00 0.436D+00
 Gap=     0.291 Goal=   None    Shift=    0.000
 RMSDP=6.88D-06 MaxDP=1.40D-04 DE= 2.89D-07 OVMax= 1.86D-04

 Cycle   4  Pass 1  IDiag  1:
 E= -380.700698508419     Delta-E=       -0.000000845819 Rises=F Damp=F
 DIIS: error= 6.14D-06 at cycle   4 NSaved=   4.
 NSaved= 4 IEnMin= 4 EnMin= -380.700698508419     IErMin= 4 ErrMin= 6.14D-06
 ErrMax= 6.14D-06  0.00D+00 EMaxC= 1.00D-01 BMatC= 5.14D-09 BMatP= 6.47D-07
 IDIUse=1 WtCom= 1.00D+00 WtEn= 0.00D+00
 Coeff-Com: -0.613D-02 0.834D-01 0.983D-01 0.824D+00
 Coeff:     -0.613D-02 0.834D-01 0.983D-01 0.824D+00
 Gap=     0.291 Goal=   None    Shift=    0.000
 RMSDP=7.78D-07 MaxDP=1.33D-05 DE=-8.46D-07 OVMax= 2.38D-05

 Cycle   5  Pass 1  IDiag  1:
 E= -380.700698511898     Delta-E=       -0.000000003479 Rises=F Damp=F
 DIIS: error= 2.56D-06 at cycle   5 NSaved=   5.
 NSaved= 5 IEnMin= 5 EnMin= -380.700698511898     IErMin= 5 ErrMin= 2.56D-06
 ErrMax= 2.56D-06  0.00D+00 EMaxC= 1.00D-01 BMatC= 1.13D-09 BMatP= 5.14D-09
 IDIUse=1 WtCom= 1.00D+00 WtEn= 0.00D+00
 Coeff-Com: -0.891D-03 0.329D-02 0.207D-01 0.388D+00 0.588D+00
 Coeff:     -0.891D-03 0.329D-02 0.207D-01 0.388D+00 0.588D+00
 Gap=     0.291 Goal=   None    Shift=    0.000
 RMSDP=3.14D-07 MaxDP=5.65D-06 DE=-3.48D-09 OVMax= 7.23D-06

 Cycle   6  Pass 1  IDiag  1:
 E= -380.700698512791     Delta-E=       -0.000000000893 Rises=F Damp=F
 DIIS: error= 6.92D-07 at cycle   6 NSaved=   6.
 NSaved= 6 IEnMin= 6 EnMin= -380.700698512791     IErMin= 6 ErrMin= 6.92D-07
 ErrMax= 6.92D-07  0.00D+00 EMaxC= 1.00D-01 BMatC= 8.60D-11 BMatP= 1.13D-09
 IDIUse=1 WtCom= 1.00D+00 WtEn= 0.00D+00
 Coeff-Com:  0.180D-03-0.745D-02-0.859D-03 0.910D-01 0.269D+00 0.648D+00
 Coeff:      0.180D-03-0.745D-02-0.859D-03 0.910D-01 0.269D+00 0.648D+00
 Gap=     0.291 Goal=   None    Shift=    0.000
 RMSDP=9.28D-08 MaxDP=1.32D-06 DE=-8.93D-10 OVMax= 1.99D-06

 Cycle   7  Pass 1  IDiag  1:
 E= -380.700698512854     Delta-E=       -0.000000000063 Rises=F Damp=F
 DIIS: error= 1.70D-07 at cycle   7 NSaved=   7.
 NSaved= 7 IEnMin= 7 EnMin= -380.700698512854     IErMin= 7 ErrMin= 1.70D-07
 ErrMax= 1.70D-07  0.00D+00 EMaxC= 1.00D-01 BMatC= 6.61D-12 BMatP= 8.60D-11
 IDIUse=1 WtCom= 1.00D+00 WtEn= 0.00D+00
 Coeff-Com:  0.147D-03-0.439D-02-0.174D-02 0.269D-01 0.108D+00 0.323D+00
 Coeff-Com:  0.549D+00
 Coeff:      0.147D-03-0.439D-02-0.174D-02 0.269D-01 0.108D+00 0.323D+00
 Coeff:      0.549D+00
 Gap=     0.291 Goal=   None    Shift=    0.000
 RMSDP=1.95D-08 MaxDP=4.24D-07 DE=-6.30D-11 OVMax= 4.24D-07

 Cycle   8  Pass 1  IDiag  1:
 E= -380.700698512862     Delta-E=       -0.000000000007 Rises=F Damp=F
 DIIS: error= 3.53D-08 at cycle   8 NSaved=   8.
 NSaved= 8 IEnMin= 8 EnMin= -380.700698512862     IErMin= 8 ErrMin= 3.53D-08
 ErrMax= 3.53D-08  0.00D+00 EMaxC= 1.00D-01 BMatC= 3.66D-13 BMatP= 6.61D-12
 IDIUse=1 WtCom= 1.00D+00 WtEn= 0.00D+00
 Coeff-Com:  0.423D-04-0.952D-03-0.692D-03-0.123D-02 0.975D-02 0.500D-01
 Coeff-Com:  0.217D+00 0.727D+00
 Coeff:      0.423D-04-0.952D-03-0.692D-03-0.123D-02 0.975D-02 0.500D-01
 Coeff:      0.217D+00 0.727D+00
 Gap=     0.291 Goal=   None    Shift=    0.000
 RMSDP=5.10D-09 MaxDP=9.81D-08 DE=-7.39D-12 OVMax= 1.50D-07

 SCF Done:  E(RB3LYP) =  -380.700698513     A.U. after    8 cycles
            NFock=  8  Conv=0.51D-08     -V/T= 2.0083
 KE= 3.775657133773D+02 PE=-1.437260284272D+03 EE= 4.081458611653D+02
 Leave Link  502 at Thu Sep  8 14:50:50 2022, MaxMem= 24159191040 cpu:        26.6
 (Enter /public/home/users/caep010/software/Gaussian09/g09/l701.exe)
 Compute integral first derivatives.
 ... and contract with generalized density number  0.
 Leave Link  701 at Thu Sep  8 14:50:50 2022, MaxMem= 24159191040 cpu:        10.2
 (Enter /public/home/users/caep010/software/Gaussian09/g09/l702.exe)
 L702 exits ... SP integral derivatives will be done elsewhere.
 Leave Link  702 at Thu Sep  8 14:50:50 2022, MaxMem= 24159191040 cpu:         0.5
 (Enter /public/home/users/caep010/software/Gaussian09/g09/l703.exe)
 Compute integral first derivatives, UseDBF=F ICtDFT=           0.
 Integral derivatives from FoFJK, PRISM(SPDF).
 Calling FoFJK, ICntrl=      2127 FMM=F ISym2X=0 I1Cent= 0 IOpClX= 0 NMat=1 NMatS=1 NMatT=0.
 FoFJK:  IHMeth= 1 ICntrl=    2127 DoSepK=F KAlg= 0 I1Cent=   0 FoldK=F
 IRaf=         0 NMat=   1 IRICut=       1 DoRegI=T DoRafI=F ISym2E= 0.
 FoFCou: FMM=F IPFlag=           0 FMFlag=      100000 FMFlg1=         800
         NFxFlg=           0 DoJE=F BraDBF=F KetDBF=F FulRan=T
         wScrn=  0.000000 ICntrl=    2127 IOpCl=  0 I1Cent=           0 NGrid=           0
         NMat0=    1 NMatS0=      1 NMatT0=    0 NMatD0=    1 NMtDS0=    0 NMtDT0=    0
 Symmetry not used in FoFCou.
 Leave Link  703 at Thu Sep  8 14:50:51 2022, MaxMem= 24159191040 cpu:        16.9
 (Enter /public/home/users/caep010/software/Gaussian09/g09/l716.exe)
 Dipole        = 1.72847637D+00-3.91550092D-05-5.53433062D-01
 ***** Axes restored to original set *****
 -------------------------------------------------------------------
 Center     Atomic                   Forces (Hartrees/Bohr)
 Number     Number              X              Y              Z
 -------------------------------------------------------------------
      1        8          -0.000329232    0.000380527    0.000010751
      2        6          -0.000090733   -0.000021189    0.000083802
      3        8          -0.000186484   -0.000464701   -0.000064643
      4        6           0.000110812    0.000017076    0.000023492
      5        8          -0.000305549    0.000030804    0.000287008
      6        8          -0.000267624   -0.000177429    0.000268884
      7        1           0.000321059   -0.000068707   -0.000036642
      8        1          -0.000028850   -0.000015209    0.000110844
[...]
     Eigenvalues ---    0.19091   0.19356   0.21658   0.22379   0.29661
     Eigenvalues ---    0.30158   0.32401   0.33367   0.38174   0.40824
     Eigenvalues ---    0.44702   0.52391   0.52533   0.52704   0.52720
 Angle between quadratic step and forces=  66.31 degrees.
 Linear search not attempted -- first point.
 Iteration  1 RMS(Cart)=  0.00019636 RMS(Int)=  0.00000002
 Iteration  2 RMS(Cart)=  0.00000002 RMS(Int)=  0.00000000
 ITry= 1 IFail=0 DXMaxC= 5.96D-04 DCOld= 1.00D+10 DXMaxT= 3.00D-01 DXLimC= 3.00D+00 Rises=F
 Variable       Old X    -DE/DX   Delta X   Delta X   Delta X     New X
                                 (Linear)    (Quad)   (Total)
    R1        2.64331  -0.00004   0.00000  -0.00014  -0.00014   2.64317
    R2        1.82938   0.00001   0.00000   0.00002   0.00002   1.82940
    R3        2.64331  -0.00005   0.00000  -0.00014  -0.00014   2.64317
    R4        2.89952   0.00004   0.00000   0.00019   0.00019   2.89971
    R5        2.09301   0.00002   0.00000   0.00009   0.00009   2.09310
    R6        1.82939   0.00001   0.00000   0.00002   0.00002   1.82940
    R7        2.66957  -0.00001   0.00000  -0.00005  -0.00005   2.66952
    R8        2.66956  -0.00001   0.00000  -0.00004  -0.00004   2.66952
    R9        2.07838   0.00001   0.00000   0.00003   0.00003   2.07840
   R10        1.82408   0.00002   0.00000   0.00004   0.00004   1.82412
   R11        1.82408   0.00002   0.00000   0.00004   0.00004   1.82412
    A1        1.84391  -0.00001   0.00000  -0.00002  -0.00002   1.84390
    A2        1.85213  -0.00001   0.00000   0.00000   0.00000   1.85214
    A3        1.92625   0.00001   0.00000   0.00005   0.00005   1.92630
    A4        1.94244   0.00000   0.00000   0.00007   0.00007   1.94250
    A5        1.92625   0.00001   0.00000   0.00005   0.00005   1.92630
    A6        1.94241   0.00001   0.00000   0.00009   0.00009   1.94250
    A7        1.87519  -0.00002   0.00000  -0.00025  -0.00025   1.87494
    A8        1.84392  -0.00001   0.00000  -0.00003  -0.00003   1.84390
    A9        1.85830  -0.00000   0.00000  -0.00003  -0.00003   1.85827
   A10        1.85828   0.00001   0.00000  -0.00001  -0.00001   1.85827
   A11        1.89535   0.00000   0.00000   0.00004   0.00004   1.89539
   A12        1.97469   0.00000   0.00000   0.00004   0.00004   1.97473
   A13        1.93613  -0.00000   0.00000  -0.00003  -0.00003   1.93610
   A14        1.93611  -0.00000   0.00000  -0.00001  -0.00001   1.93610
   A15        1.91185   0.00001   0.00000   0.00008   0.00008   1.91193
   A16        1.91184   0.00001   0.00000   0.00009   0.00009   1.91193
    D1       -3.01792  -0.00000   0.00000  -0.00022  -0.00022  -3.01814
    D2       -0.93079   0.00001   0.00000  -0.00013  -0.00013  -0.93092
    D3        1.14958  -0.00001   0.00000  -0.00037  -0.00037   1.14921
    D4        3.01797   0.00000   0.00000   0.00017   0.00017   3.01814
    D5        0.93083  -0.00001   0.00000   0.00008   0.00008   0.93092
    D6       -1.14952   0.00000   0.00000   0.00030   0.00030  -1.14922
    D7        1.06520  -0.00000   0.00000  -0.00030  -0.00030   1.06491
    D8       -3.10642   0.00000   0.00000  -0.00027  -0.00027  -3.10669
    D9       -1.02063   0.00000   0.00000  -0.00027  -0.00027  -1.02089
   D10        3.10692  -0.00001   0.00000  -0.00023  -0.00023   3.10669
   D11       -1.06470  -0.00000   0.00000  -0.00020  -0.00020  -1.06491
   D12        1.02109  -0.00000   0.00000  -0.00020  -0.00020   1.02089
   D13       -1.05555  -0.00000   0.00000  -0.00025  -0.00025  -1.05579
   D14        1.05601   0.00000   0.00000  -0.00022  -0.00022   1.05580
   D15       -3.14138   0.00000   0.00000  -0.00022  -0.00022  -3.14159
   D16       -2.78049   0.00000   0.00000   0.00021   0.00021  -2.78028
   D17        1.46745  -0.00000   0.00000   0.00022   0.00022   1.46767
   D18       -0.72138   0.00000   0.00000   0.00022   0.00022  -0.72116
   D19        2.78048  -0.00000   0.00000  -0.00020  -0.00020   2.78028
   D20       -1.46745   0.00000   0.00000  -0.00022  -0.00022  -1.46767
   D21        0.72139  -0.00000   0.00000  -0.00023  -0.00023   0.72116
         Item               Value     Threshold  Converged?
 Maximum Force            0.000047     0.000450     YES
 RMS     Force            0.000014     0.000300     YES
 Maximum Displacement     0.000596     0.001800     YES
 RMS     Displacement     0.000196     0.001200     YES
 Predicted change in Energy=-2.205078D-08
 Optimization completed.
    -- Stationary point found.
                           ----------------------------
                           !   Optimized Parameters   !
                           ! (Angstroms and Degrees)  !
 --------------------------                            --------------------------
 ! Name  Definition              Value          Derivative Info.                !
 --------------------------------------------------------------------------------
 ! R1    R(1,2)                  1.3988         -DE/DX =    0.0                 !
 ! R2    R(1,7)                  0.9681         -DE/DX =    0.0                 !
 ! R3    R(2,3)                  1.3988         -DE/DX =    0.0                 !
 ! R4    R(2,4)                  1.5344         -DE/DX =    0.0                 !
 ! R5    R(2,8)                  1.1076         -DE/DX =    0.0                 !
 ! R6    R(3,9)                  0.9681         -DE/DX =    0.0                 !
 ! R7    R(4,5)                  1.4127         -DE/DX =    0.0                 !
 ! R8    R(4,6)                  1.4127         -DE/DX =    0.0                 !
 ! R9    R(4,10)                 1.0998         -DE/DX =    0.0                 !
 ! R10   R(5,11)                 0.9653         -DE/DX =    0.0                 !
 ! R11   R(6,12)                 0.9653         -DE/DX =    0.0                 !
 ! A1    A(2,1,7)              105.6485         -DE/DX =    0.0                 !
 ! A2    A(1,2,3)              106.1195         -DE/DX =    0.0                 !
 ! A3    A(1,2,4)              110.3662         -DE/DX =    0.0                 !
 ! A4    A(1,2,8)              111.2935         -DE/DX =    0.0                 !
 ! A5    A(3,2,4)              110.3658         -DE/DX =    0.0                 !
 ! A6    A(3,2,8)              111.2921         -DE/DX =    0.0                 !
 ! A7    A(4,2,8)              107.4404         -DE/DX =    0.0                 !
 ! A8    A(2,3,9)              105.6491         -DE/DX =    0.0                 !
 ! A9    A(2,4,5)              106.4728         -DE/DX =    0.0                 !
 ! A10   A(2,4,6)              106.4715         -DE/DX =    0.0                 !
 ! A11   A(2,4,10)             108.5956         -DE/DX =    0.0                 !
 ! A12   A(5,4,6)              113.1414         -DE/DX =    0.0                 !
 ! A13   A(5,4,10)             110.9322         -DE/DX =    0.0                 !
 ! A14   A(6,4,10)             110.9312         -DE/DX =    0.0                 !
 ! A15   A(4,5,11)             109.5409         -DE/DX =    0.0                 !
 ! A16   A(4,6,12)             109.5405         -DE/DX =    0.0                 !
 ! D1    D(7,1,2,3)           -172.9141         -DE/DX =    0.0                 !
 ! D2    D(7,1,2,4)            -53.3303         -DE/DX =    0.0                 !
 ! D3    D(7,1,2,8)             65.8663         -DE/DX =    0.0                 !
 ! D4    D(1,2,3,9)            172.917          -DE/DX =    0.0                 !
 ! D5    D(4,2,3,9)             53.3329         -DE/DX =    0.0                 !
 ! D6    D(8,2,3,9)            -65.8627         -DE/DX =    0.0                 !
 ! D7    D(1,2,4,5)             61.0317         -DE/DX =    0.0                 !
 ! D8    D(1,2,4,6)           -177.9848         -DE/DX =    0.0                 !
 ! D9    D(1,2,4,10)           -58.4775         -DE/DX =    0.0                 !
 ! D10   D(3,2,4,5)            178.0135         -DE/DX =    0.0                 !
 ! D11   D(3,2,4,6)            -61.003          -DE/DX =    0.0                 !
 ! D12   D(3,2,4,10)            58.5043         -DE/DX =    0.0                 !
 ! D13   D(8,2,4,5)            -60.4784         -DE/DX =    0.0                 !
 ! D14   D(8,2,4,6)             60.5051         -DE/DX =    0.0                 !
 ! D15   D(8,2,4,10)          -179.9876         -DE/DX =    0.0                 !
 ! D16   D(2,4,5,11)          -159.3105         -DE/DX =    0.0                 !
 ! D17   D(6,4,5,11)            84.0789         -DE/DX =    0.0                 !
 ! D18   D(10,4,5,11)          -41.3321         -DE/DX =    0.0                 !
 ! D19   D(2,4,6,12)           159.3098         -DE/DX =    0.0                 !
 ! D20   D(5,4,6,12)           -84.0788         -DE/DX =    0.0                 !
 ! D21   D(10,4,6,12)           41.3327         -DE/DX =    0.0                 !
 --------------------------------------------------------------------------------
 GradGradGradGradGradGradGradGradGradGradGradGradGradGradGradGradGradGrad

 Leave Link  103 at Thu Sep  8 14:51:10 2022, MaxMem= 24159191040 cpu:         1.3
 (Enter /public/home/users/caep010/software/Gaussian09/g09/l9999.exe)
 1\1\GINC-B0854\Freq\RB3LYP\6-31G(d,p)\C2H6O4\ROOT\08-Sep-2022\0\\#P Ge
 om=AllCheck Guess=TCheck SCRF=Check GenChk RB3LYP/6-31G(d,p) Freq\\Fra
 g_1069\\0,1\O,1.4000484319,1.3757190714,-0.0786438726\C,0.8324831966,0
 .1815470494,-0.5351570482\O,1.7732331017,-0.8202076254,-0.2742651043\C
 ,-0.4763056922,-0.1074152251,0.2117284028\O,-1.3448589111,0.9704105319
 ,-0.0703360478\O,-0.9509960552,-1.3452756163,-0.2761391155\H,0.7028701
 434,2.0427992328,-0.1567655424\H,0.5930911218,0.2370561995,-1.61512566
 77\H,1.331317567,-1.6550381653,-0.4862231387\H,-0.2600051006,-0.166330
 9242,1.2884671988\H,-2.0337423317,1.0150061118,0.6043361687\H,-1.56713
 54715,-1.7283716407,0.3605257669\\Version=ES64L-G09RevE.01\State=1-A\H
 F=-380.7007019\RMSD=3.236e-09\RMSF=2.381e-05\ZeroPoint=0.0942521\Therm
 al=0.1015114\Dipole=-1.6224684,-0.3390136,0.7121515\DipoleDeriv=-0.476
 4205,-0.3033071,0.0245687,-0.2546845,-0.8600345,-0.1130912,0.0297933,-
 0.1402706,-0.5368201,0.8259472,-0.0594123,0.0702957,-0.0571071,1.12452
 95,0.0503166,0.0445172,0.0459384,0.7079795,-0.6914014,0.3622638,0.0537
 153,0.3142966,-0.6828845,0.0800803,0.0413165,0.1060256,-0.4990741,0.71
 58486,-0.1088679,0.1477314,-0.1158874,1.250332,0.0973318,0.2266826,0.1
 107493,0.4662769,-0.7290963,0.317308,-0.1073314,0.2077232,-0.8673601,-
 0.0528324,-0.1439932,0.0305912,-0.3600308,-0.5881676,-0.197524,-0.1481
 409,-0.0857676,-0.986982,-0.0925371,-0.1360154,-0.1801367,-0.381357,0.
 2512855,0.1201809,-0.0567921,0.093895,0.3201878,-0.0109605,-0.0633975,
 -0.002453,0.3092495,-0.0539027,0.0080971,-0.0567139,0.0084574,-0.07091
 78,0.0056218,-0.0607236,0.0049426,-0.2431817,0.3216182,-0.107272,-0.07
 72275,-0.0805249,0.2519238,-0.0161898,-0.0760651,-0.0256188,0.3072684,
 -0.0306745,0.0069901,-0.0211124,0.0105224,-0.0595899,0.0074736,-0.0608
 974,0.0007109,-0.1852522,0.2255092,0.0103367,0.0805542,-0.0380425,0.28
 80925,0.0667453,0.0971822,0.0283573,0.2117458,0.2294542,-0.0487933,0.0
 904529,-0.0028807,0.2927033,-0.0219584,0.1016004,0.0211639,0.2031959\P
 olar=37.3299671,-0.3027478,40.3022535,-2.4540626,0.4383985,30.7820054\
 PG=C01 [X(C2H6O4)]\NImag=0\\0.42819943,-0.14624605,0.53769802,0.086182
 96,0.05758019,0.09600807,-0.13489738,-0.08225386,-0.04297370,0.5293332
 6,-0.03946477,-0.19007999,-0.04398488,-0.00927513,0.56158695,-0.030826
 78,-0.05652628,-0.09998133,0.03894049,0.00425362,0.59011536,0.01963801
 ,-0.00604027,0.00552076,-0.18146839,0.05137270,-0.03700122,0.35498854,
 0.03045314,-0.05388985,0.00035806,0.09522729,-0.15630539,0.03041112,0.
 06292813,0.61063177,0.01046306,-0.00959556,0.01071284,-0.03681642,0.01
 583360,-0.08717855,0.10512776,0.06233006,0.09628257,-0.01355315,-0.012
 96020,0.00300390,-0.13247965,-0.01924847,0.05809226,-0.02914407,0.0116
 2690,0.00812119,0.51963252,-0.03110112,-0.02823968,0.00641147,-0.01827
 489,-0.05431974,0.01725965,0.03323928,-0.01181276,-0.00935901,0.012923
 90,0.45047256,-0.01628895,-0.00868574,0.00725228,0.04714823,0.01539916
 ,-0.13265873,-0.01162992,-0.00089992,0.00641327,-0.00563532,-0.0187350
 8,0.64663683,-0.00258964,0.00025914,0.00127759,-0.02821498,0.02973537,
 -0.01154928,-0.01070245,0.00225911,0.00552506,-0.14645213,0.06955661,-
 0.02907459,0.43499354,-0.00178993,0.00471339,0.00213692,0.00584566,-0.
 01165353,-0.00198250,0.00214359,0.00250500,-0.00126182,0.06060532,-0.1
 3122861,0.05695009,-0.13776750,0.23209163,0.00044783,0.00045822,0.0027
 0873,0.01152929,-0.01478422,0.00726424,0.00635558,-0.00127217,0.000050
 11,0.00482611,0.02061358,-0.10847624,-0.23717773,-0.04409177,0.3597403
 6,-0.00760739,-0.00655767,0.00396052,-0.01554674,-0.02818167,-0.015962
 59,-0.00220585,-0.00301217,0.00155996,-0.10438544,-0.05832362,-0.01917
 936,0.01985432,0.01853491,0.00810736,0.31384681,-0.00658590,-0.0014022
 9,0.00297254,-0.00824669,-0.02639335,-0.00759365,-0.00079533,0.0046532
 2,-0.00122977,-0.05426353,-0.15815432,-0.07045296,0.00819874,-0.059870
 74,-0.00661863,0.20802310,0.35429687,0.00475030,0.00325775,0.00086186,
 0.00537050,0.01276013,0.00933139,0.00058932,0.00014574,0.00238285,0.00
 192892,-0.02475787,-0.12361915,0.00686552,-0.00472387,0.01548929,-0.20
 452637,-0.04452867,0.35869698,-0.28457851,0.25775202,-0.03571848,0.009
 60142,-0.01472989,-0.00107119,-0.00103596,-0.00394465,0.00005876,0.001
 96749,-0.00724373,0.00025983,-0.00154587,0.00209376,-0.00027160,-0.000
 51807,0.00197327,0.00038028,0.27573603,0.20385482,-0.25373643,0.010608
 94,0.03191887,-0.03137087,0.00481292,-0.00509416,-0.00683824,-0.002977
 99,-0.00108604,-0.00341385,0.00159047,0.00217423,0.00042358,-0.0004376
 5,0.00115368,0.00183682,-0.00014646,-0.23496754,0.29191554,-0.04588841
 ,0.02842800,-0.01267141,0.00995116,-0.01456861,-0.00005703,-0.00124377
 ,-0.00092102,-0.00125927,-0.00002205,0.00163638,0.00209313,-0.00039832
 ,-0.00170849,-0.00210612,-0.00048107,-0.00090140,-0.00052974,0.0377018
 5,-0.01318654,0.01434881,-0.00078389,-0.00947501,-0.01880424,-0.061910
 82,0.00064068,-0.02887027,-0.01046889,0.01576416,-0.02789946,0.0037517
 5,-0.00282325,0.03150670,0.00193871,-0.00024102,-0.00192254,0.00147827
 ,0.00071659,-0.00179232,-0.00034185,0.00002758,-0.00053289,0.07077017,
 -0.01403652,-0.01198942,-0.03815940,0.00071335,-0.05172643,0.01449336,
 0.01743576,-0.01036639,0.02873126,0.00036169,0.00323473,0.00772553,-0.
 00079995,0.00111073,-0.00025210,0.00087503,0.00152604,-0.00048156,-0.0
 0128585,0.00125716,0.00040125,-0.00321472,0.06569071,-0.00652608,-0.01
 383065,-0.00754556,-0.02968566,0.01435382,-0.26835126,-0.00773425,0.00
 991655,0.00051512,-0.00426096,0.00164559,-0.02274889,0.00038352,-0.000
 36588,0.00182616,0.00040982,0.00040015,0.00186953,-0.00110298,-0.00030
 296,-0.00058157,0.04686421,-0.01254531,0.29537347,-0.00452859,0.004852
 71,0.00000898,0.01066454,0.02926818,0.00536696,-0.14000456,-0.21095647
 ,-0.06377110,-0.00115193,0.00770130,0.00221698,0.00069042,-0.00235821,
 -0.00013100,-0.00005614,-0.00208796,-0.00083200,0.00103566,0.00181376,
 0.00009341,-0.00060409,0.00082540,-0.00101408,0.13359796,0.00614739,-0
 .00385239,0.00219418,-0.01798883,-0.03333539,-0.01017264,-0.15665862,-
 0.37967811,-0.08131872,0.00168398,0.00036563,-0.00176508,-0.00138078,0
 .00039935,0.00046772,-0.00211119,-0.00146921,0.00049728,-0.00099304,-0
 .00126773,-0.00027304,-0.00058667,0.00152242,0.00030302,0.17258605,0.4
 1663533,-0.00032941,-0.00014159,-0.00075285,0.00123459,0.01038243,0.00
 084598,-0.05811278,-0.09990646,-0.03130061,0.00091278,-0.00208331,0.00
 143213,-0.00103838,0.00092290,-0.00030123,-0.00138108,0.00165453,-0.00
 170843,-0.00016459,-0.00022670,0.00137789,-0.00047924,-0.00021334,-0.0
 0058431,0.05835819,0.09009522,0.03176828,0.00164433,0.00149184,-0.0023
 7753,0.00543178,-0.00193015,0.02951133,0.00222087,-0.00061084,-0.00248
 929,-0.06464721,-0.00010086,-0.03339101,-0.00823991,0.01560831,-0.0246
 5662,0.00110384,-0.00893778,-0.01568171,-0.00024362,-0.00017111,0.0001
 1991,-0.00465869,-0.00098299,0.00254124,-0.00013803,0.00006886,0.00024
 453,0.06521581,0.00086997,0.00094429,-0.00040027,0.00112747,0.00092923
 ,0.00685438,-0.00035062,0.00049459,-0.00088854,0.00027272,-0.04796864,
 0.01596045,0.01690593,-0.01082469,0.02883986,-0.01309831,-0.01308683,-
 0.03695900,0.00040799,0.00003172,0.00038295,-0.00099506,-0.00042139,0.
 00049539,-0.00044480,-0.00002479,-0.00022929,-0.00482972,0.06816449,-0
 .00043509,0.00019248,0.00328121,-0.00487602,0.00100718,-0.01930602,-0.
 00038099,-0.00079402,0.00315200,-0.03759559,0.01524484,-0.29005278,-0.
 00391107,0.00572431,-0.00202456,-0.00421659,-0.00836476,-0.00910762,-0
 .00014251,-0.00001223,-0.00047649,0.00268084,0.00051914,-0.00092008,-0
 .00022868,0.00004111,-0.00052499,0.04941444,-0.01341321,0.31325866,0.0
 0051626,0.00005227,-0.00053973,-0.00121056,0.00569893,-0.00357649,-0.0
 0202905,0.00024777,0.00079396,-0.02211662,-0.00055134,0.02184936,-0.25
 899590,0.03522150,0.23423313,0.00064870,-0.00159086,-0.00191747,-0.000
 12582,0.00014820,0.00070268,0.00054549,-0.00029333,0.00005535,0.000065
 25,-0.00020346,-0.00004541,0.00172567,-0.00204834,-0.00047339,0.280129
 58,-0.00088935,0.00037553,-0.00042990,0.00136057,-0.00329247,0.0031708
 5,0.00091885,0.00002554,-0.00061784,0.02807879,-0.00254577,-0.02507902
 ,0.00858758,-0.02781315,0.01802603,-0.00190659,-0.00143481,0.00037656,
 0.00110128,0.00116686,0.00072090,-0.00030867,-0.00003040,-0.00018523,0
 .00017110,0.00000182,0.00001617,-0.00092389,0.00019985,0.00063672,-0.0
 3679895,0.03498583,-0.00031421,-0.00015664,-0.00031100,-0.00026375,0.0
 0217676,0.00056906,-0.00127789,0.00043427,0.00044105,-0.01369494,0.005
 49979,0.00528974,0.26962991,-0.01107839,-0.27347417,-0.00105569,0.0002
 3310,-0.00049920,0.00003839,0.00011789,-0.00006911,-0.00039936,-0.0001
 8806,0.00055437,0.00011012,-0.00012206,-0.00009207,-0.00180892,0.00015
 738,0.00147125,-0.25181796,0.00319730,0.26571902,-0.00145946,-0.000874
 93,0.00045896,0.00069751,-0.00388578,-0.00305324,0.00021179,0.00001763
 ,-0.00067348,-0.01142157,-0.00500229,0.01221806,-0.00073612,0.00210363
 ,-0.00133982,-0.20661231,-0.13640364,0.20486502,0.00004909,0.00022771,
 -0.00000251,0.00028384,0.00040212,0.00006986,0.00042950,-0.00056369,0.
 00080080,0.00058516,0.00218276,0.00016464,0.00084698,0.00060928,0.0008
 5430,0.21712557,-0.00121168,-0.00054117,0.00071213,-0.00015381,-0.0040
 3902,-0.00498085,0.00090069,0.00058062,0.00035432,-0.02799508,-0.01638
 955,0.02799211,0.00227153,0.00014705,-0.00094888,-0.11539551,-0.100501
 40,0.09455998,-0.00016361,-0.00000456,-0.00001038,0.00049539,0.0001922
 2,0.00011551,-0.00137107,0.00070306,-0.00027054,0.00131835,0.00156216,
 -0.00078156,0.00011760,-0.00163884,-0.00027135,0.14118721,0.11992942,-
 0.00123523,-0.00098018,0.00043716,0.00044128,-0.00282899,-0.00059311,-
 0.00021261,0.00019779,-0.00021139,-0.01567630,-0.01337605,0.00843842,-
 0.00053224,-0.00052149,-0.00069656,0.23276508,0.13442952,-0.25316776,0
 .00003223,0.00016031,-0.00006909,-0.00035144,-0.00003076,0.00059302,-0
 .00017779,0.00005300,-0.00015979,-0.00142637,-0.00080010,0.00124941,0.
 00073597,0.00016745,0.00040107,-0.21436259,-0.11647050,0.24377863\\0.0
 0000092,0.00004473,0.00000738,-0.00009435,-0.00000643,-0.00002485,0.00
 001227,-0.00004870,-0.00000162,0.00004349,0.00000793,0.00002513,-0.000
 02764,0.00001305,0.00000302,-0.00001156,-0.00002021,0.00000185,0.00000
 955,-0.00000509,0.00000520,0.00002118,0.00000030,0.00001420,0.00000986
 ,0.00000476,0.00000326,0.00000336,0.00000066,-0.00000829,0.00001864,-0
 .00000710,-0.00001445,0.00001429,0.00001611,-0.00001084\\\@


 NEVER LISTEN TO CRITICISM
 OR YOU'LL BE DOIN' EVERYBODY ELSE'S THING BUT BUT YOUR OWN.

                                               -- ANDY CAPP
 Job cpu time:       0 days  0 hours  4 minutes 24.5 seconds.
 File lengths (MBytes):  RWF=     24 Int=      0 D2E=      0 Chk=      2 Scr=      1
 Normal termination of Gaussian 09 at Thu Sep  8 14:51:10 2022.
