 Entering Gaussian System, Link 0=g09
 Input=B3LYP6-31Gdp.Frag_1007.gjf
 Output=B3LYP6-31Gdp.Frag_1007.log
 Initial command:
 /public/home/users/caep010/software/Gaussian09/g09/l1.exe "/public/home/users/caep010/.cache/gau_scr/Gau-162055.inp" -scrdir="/public/home/users/caep010/.cache/gau_scr/"
 Entering Link 1 = /public/home/users/caep010/software/Gaussian09/g09/l1.exe PID=    162056.
  
 Copyright (c) 1988,1990,1992,1993,1995,1998,2003,2009,2015,
            Gaussian, Inc.  All Rights Reserved.
  
 This is part of the Gaussian(R) 09 program.  It is based on
 the Gaussian(R) 03 system (copyright 2003, Gaussian, Inc.),
 the Gaussian(R) 98 system (copyright 1998, Gaussian, Inc.),
 the Gaussian(R) 94 system (copyright 1995, Gaussian, Inc.),
 the Gaussian 92(TM) system (copyright 1992, Gaussian, Inc.),
 the Gaussian 90(TM) system (copyright 1990, Gaussian, Inc.),
 the Gaussian 88(TM) system (copyright 1988, Gaussian, Inc.),
 the Gaussian 86(TM) system (copyright 1986, Carnegie Mellon
 University), and the Gaussian 82(TM) system (copyright 1983,
 Carnegie Mellon University). Gaussian is a federally registered
 trademark of Gaussian, Inc.
  
 This software contains proprietary and confidential information,
 including trade secrets, belonging to Gaussian, Inc.
  
 This software is provided under written license and may be
 used, copied, transmitted, or stored only in accord with that
 written license.
  
 The following legend is applicable only to US Government
 contracts under FAR:
  
                    RESTRICTED RIGHTS LEGEND
  
 Use, reproduction and disclosure by the US Government is
 subject to restrictions as set forth in subparagraphs (a)
 and (c) of the Commercial Computer Software - Restricted
 Rights clause in FAR 52.227-19.
  
 Gaussian, Inc.
 340 Quinnipiac St., Bldg. 40, Wallingford CT 06492
  
  
 ---------------------------------------------------------------
 Warning -- This program may not be used in any manner that
 competes with the business of Gaussian, Inc. or will provide
 assistance to any competitor of Gaussian, Inc.  The licensee
 of this program is prohibited from giving any competitor of
 Gaussian, Inc. access to this program.  By using this program,
 the user acknowledges that Gaussian, Inc. is engaged in the
 business of creating and licensing software in the field of
 computational chemistry and represents and warrants to the
 licensee that it is not a competitor of Gaussian, Inc. and that
 it will not use this program in any manner prohibited above.
 ---------------------------------------------------------------
  

 Cite this work as:
 Gaussian 09, Revision E.01,
 M. J. Frisch, G. W. Trucks, H. B. Schlegel, G. E. Scuseria, 
 M. A. Robb, J. R. Cheeseman, G. Scalmani, V. Barone, B. Mennucci, 
 G. A. Petersson, H. Nakatsuji, M. Caricato, X. Li, H. P. Hratchian, 
 A. F. Izmaylov, J. Bloino, G. Zheng, J. L. Sonnenberg, M. Hada, 
 M. Ehara, K. Toyota, R. Fukuda, J. Hasegawa, M. Ishida, T. Nakajima, 
 Y. Honda, O. Kitao, H. Nakai, T. Vreven, J. A. Montgomery, Jr., 
 J. E. Peralta, F. Ogliaro, M. Bearpark, J. J. Heyd, E. Brothers, 
 K. N. Kudin, V. N. Staroverov, T. Keith, R. Kobayashi, J. Normand, 
 K. Raghavachari, A. Rendell, J. C. Burant, S. S. Iyengar, J. Tomasi, 
 M. Cossi, N. Rega, J. M. Millam, M. Klene, J. E. Knox, J. B. Cross, 
 V. Bakken, C. Adamo, J. Jaramillo, R. Gomperts, R. E. Stratmann, 
 O. Yazyev, A. J. Austin, R. Cammi, C. Pomelli, J. W. Ochterski, 
 R. L. Martin, K. Morokuma, V. G. Zakrzewski, G. A. Voth, 
 P. Salvador, J. J. Dannenberg, S. Dapprich, A. D. Daniels, 
 O. Farkas, J. B. Foresman, J. V. Ortiz, J. Cioslowski, 
 and D. J. Fox, Gaussian, Inc., Wallingford CT, 2013.
 
 ******************************************
 Gaussian 09:  ES64L-G09RevE.01 30-Nov-2015
                 8-Sep-2022 
 ******************************************
 %nproc=32
 Will use up to   32 processors via shared memory.
 %mem=180GB
 %chk=B3LYP6-31Gdp.Frag_1007.chk
 ----------------------------
 #P OPT Freq B3LYP/6-31G(d,p)
 ----------------------------
 1/14=-1,18=20,19=15,26=3,38=1/1,3;
 2/9=110,12=2,17=6,18=5,40=1/2;
 3/5=1,6=6,7=101,11=2,16=1,25=1,30=1,71=1,74=-5/1,2,3;
 4//1;
 5/5=2,38=5/2;
 6/7=2,8=2,9=2,10=2,28=1/1;
 7//1,2,3,16;
 1/14=-1,18=20,19=15,26=3/3(2);
 2/9=110/2;
 99//99;
 2/9=110/2;
 3/5=1,6=6,7=101,11=2,16=1,25=1,30=1,71=1,74=-5/1,2,3;
 4/5=5,16=3,69=1/1;
 5/5=2,38=5/2;
 7//1,2,3,16;
 1/14=-1,18=20,19=15,26=3/3(-5);
 2/9=110/2;
 6/7=2,8=2,9=2,10=2,19=2,28=1/1;
 99/9=1/99;
 Leave Link    1 at Thu Sep  8 14:53:25 2022, MaxMem= 24159191040 cpu:         2.6
 (Enter /public/home/users/caep010/software/Gaussian09/g09/l101.exe)
 ---------
 Frag_1007
 ---------
 Symbolic Z-matrix:
 Charge =  0 Multiplicity = 1
 C                    -1.0206   -0.99824  -0.81415 
 C                    -0.36719   0.04505   0.1073 
 C                    -0.85028   1.45379  -0.25802 
 N                    -0.64595  -0.18596   1.53935 
 C                     1.18921  -0.02757   0.02177 
 O                     1.59346   0.32394  -1.26266 
 O                     1.76738   0.82713   0.9422 
 O                     1.64162  -1.34021   0.33675 
 H                    -0.72027  -0.85035  -1.85591 
 H                    -0.74891  -2.01525  -0.51452 
 H                    -2.11127  -0.91664  -0.76204 
 H                    -0.61294   1.68062  -1.29868 
 H                    -0.37208   2.20285   0.37608 
 H                    -1.93615   1.52682  -0.12815 
 H                    -0.45095  -1.15646   1.76874 
 H                    -1.6246   -0.01116   1.74275 
 H                     2.53269   0.53769  -1.20138 
 H                     1.19386   0.76847   1.72593 
 H                     1.54287  -1.86465  -0.46525 
 
 NAtoms=     19 NQM=       19 NQMF=       0 NMMI=      0 NMMIF=      0
                NMic=       0 NMicF=      0.
                    Isotopes and Nuclear Properties:
 (Nuclear quadrupole moments (NQMom) in fm**2, nuclear magnetic moments (NMagM)
  in nuclear magnetons)

  Atom         1           2           3           4           5           6           7           8           9          10
 IAtWgt=          12          12          12          14          12          16          16          16           1           1
 AtmWgt=  12.0000000  12.0000000  12.0000000  14.0030740  12.0000000  15.9949146  15.9949146  15.9949146   1.0078250   1.0078250
 NucSpn=           0           0           0           2           0           0           0           0           1           1
 AtZEff=   0.0000000   0.0000000   0.0000000   0.0000000   0.0000000   0.0000000   0.0000000   0.0000000   0.0000000   0.0000000
 NQMom=    0.0000000   0.0000000   0.0000000   2.0440000   0.0000000   0.0000000   0.0000000   0.0000000   0.0000000   0.0000000
 NMagM=    0.0000000   0.0000000   0.0000000   0.4037610   0.0000000   0.0000000   0.0000000   0.0000000   2.7928460   2.7928460
 AtZNuc=   6.0000000   6.0000000   6.0000000   7.0000000   6.0000000   8.0000000   8.0000000   8.0000000   1.0000000   1.0000000

  Atom        11          12          13          14          15          16          17          18          19
 IAtWgt=           1           1           1           1           1           1           1           1           1
 AtmWgt=   1.0078250   1.0078250   1.0078250   1.0078250   1.0078250   1.0078250   1.0078250   1.0078250   1.0078250
 NucSpn=           1           1           1           1           1           1           1           1           1
 AtZEff=   0.0000000   0.0000000   0.0000000   0.0000000   0.0000000   0.0000000   0.0000000   0.0000000   0.0000000
 NQMom=    0.0000000   0.0000000   0.0000000   0.0000000   0.0000000   0.0000000   0.0000000   0.0000000   0.0000000
 NMagM=    2.7928460   2.7928460   2.7928460   2.7928460   2.7928460   2.7928460   2.7928460   2.7928460   2.7928460
 AtZNuc=   1.0000000   1.0000000   1.0000000   1.0000000   1.0000000   1.0000000   1.0000000   1.0000000   1.0000000
 Leave Link  101 at Thu Sep  8 14:53:26 2022, MaxMem= 24159191040 cpu:        10.8
 (Enter /public/home/users/caep010/software/Gaussian09/g09/l103.exe)

 GradGradGradGradGradGradGradGradGradGradGradGradGradGradGradGradGradGrad
 Berny optimization.
 Initialization pass.
                           ----------------------------
                           !    Initial Parameters    !
                           ! (Angstroms and Degrees)  !
 --------------------------                            --------------------------
 ! Name  Definition              Value          Derivative Info.                !
 --------------------------------------------------------------------------------
 ! R1    R(1,2)                  1.5377         estimate D2E/DX2                !
 ! R2    R(1,9)                  1.0942         estimate D2E/DX2                !
 ! R3    R(1,10)                 1.0945         estimate D2E/DX2                !
 ! R4    R(1,11)                 1.095          estimate D2E/DX2                !
 ! R5    R(2,3)                  1.5334         estimate D2E/DX2                !
 ! R6    R(2,4)                  1.4771         estimate D2E/DX2                !
 ! R7    R(2,5)                  1.5604         estimate D2E/DX2                !
 ! R8    R(3,12)                 1.0912         estimate D2E/DX2                !
 ! R9    R(3,13)                 1.0917         estimate D2E/DX2                !
 ! R10   R(3,14)                 1.096          estimate D2E/DX2                !
 ! R11   R(4,15)                 1.0161         estimate D2E/DX2                !
 ! R12   R(4,16)                 1.0147         estimate D2E/DX2                !
 ! R13   R(5,6)                  1.3917         estimate D2E/DX2                !
 ! R14   R(5,7)                  1.3827         estimate D2E/DX2                !
 ! R15   R(5,8)                  1.4237         estimate D2E/DX2                !
 ! R16   R(6,17)                 0.9652         estimate D2E/DX2                !
 ! R17   R(7,18)                 0.9729         estimate D2E/DX2                !
 ! R18   R(8,19)                 0.9633         estimate D2E/DX2                !
 ! A1    A(2,1,9)              111.2339         estimate D2E/DX2                !
 ! A2    A(2,1,10)             111.1562         estimate D2E/DX2                !
 ! A3    A(2,1,11)             110.1319         estimate D2E/DX2                !
 ! A4    A(9,1,10)             108.5475         estimate D2E/DX2                !
 ! A5    A(9,1,11)             107.9773         estimate D2E/DX2                !
 ! A6    A(10,1,11)            107.6673         estimate D2E/DX2                !
 ! A7    A(1,2,3)              110.2845         estimate D2E/DX2                !
 ! A8    A(1,2,4)              113.2448         estimate D2E/DX2                !
 ! A9    A(1,2,5)              111.0642         estimate D2E/DX2                !
 ! A10   A(3,2,4)              108.3724         estimate D2E/DX2                !
 ! A11   A(3,2,5)              110.1162         estimate D2E/DX2                !
 ! A12   A(4,2,5)              103.5379         estimate D2E/DX2                !
 ! A13   A(2,3,12)             110.4659         estimate D2E/DX2                !
 ! A14   A(2,3,13)             110.731          estimate D2E/DX2                !
 ! A15   A(2,3,14)             110.1883         estimate D2E/DX2                !
 ! A16   A(12,3,13)            108.4217         estimate D2E/DX2                !
 ! A17   A(12,3,14)            108.3379         estimate D2E/DX2                !
 ! A18   A(13,3,14)            108.6279         estimate D2E/DX2                !
 ! A19   A(2,4,15)             109.3912         estimate D2E/DX2                !
 ! A20   A(2,4,16)             110.4511         estimate D2E/DX2                !
 ! A21   A(15,4,16)            107.7196         estimate D2E/DX2                !
 ! A22   A(2,5,6)              109.1807         estimate D2E/DX2                !
 ! A23   A(2,5,7)              110.5972         estimate D2E/DX2                !
 ! A24   A(2,5,8)              110.3488         estimate D2E/DX2                !
 ! A25   A(6,5,7)              109.6808         estimate D2E/DX2                !
 ! A26   A(6,5,8)              110.1677         estimate D2E/DX2                !
 ! A27   A(7,5,8)              106.8438         estimate D2E/DX2                !
 ! A28   A(5,6,17)             106.2603         estimate D2E/DX2                !
 ! A29   A(5,7,18)             104.6234         estimate D2E/DX2                !
 ! A30   A(5,8,19)             106.569          estimate D2E/DX2                !
 ! D1    D(9,1,2,3)             63.503          estimate D2E/DX2                !
 ! D2    D(9,1,2,4)           -174.8641         estimate D2E/DX2                !
 ! D3    D(9,1,2,5)            -58.8595         estimate D2E/DX2                !
 ! D4    D(10,1,2,3)          -175.4131         estimate D2E/DX2                !
 ! D5    D(10,1,2,4)           -53.7803         estimate D2E/DX2                !
 ! D6    D(10,1,2,5)            62.2244         estimate D2E/DX2                !
 ! D7    D(11,1,2,3)           -56.1735         estimate D2E/DX2                !
 ! D8    D(11,1,2,4)            65.4593         estimate D2E/DX2                !
 ! D9    D(11,1,2,5)          -178.536          estimate D2E/DX2                !
 ! D10   D(1,2,3,12)           -58.4941         estimate D2E/DX2                !
 ! D11   D(1,2,3,13)          -178.6201         estimate D2E/DX2                !
 ! D12   D(1,2,3,14)            61.1773         estimate D2E/DX2                !
 ! D13   D(4,2,3,12)           177.0266         estimate D2E/DX2                !
 ! D14   D(4,2,3,13)            56.9006         estimate D2E/DX2                !
 ! D15   D(4,2,3,14)           -63.302          estimate D2E/DX2                !
 ! D16   D(5,2,3,12)            64.4243         estimate D2E/DX2                !
 ! D17   D(5,2,3,13)           -55.7017         estimate D2E/DX2                !
 ! D18   D(5,2,3,14)          -175.9043         estimate D2E/DX2                !
 ! D19   D(1,2,4,15)            49.557          estimate D2E/DX2                !
 ! D20   D(1,2,4,16)           -68.8431         estimate D2E/DX2                !
 ! D21   D(3,2,4,15)           172.2564         estimate D2E/DX2                !
 ! D22   D(3,2,4,16)            53.8563         estimate D2E/DX2                !
 ! D23   D(5,2,4,15)           -70.8251         estimate D2E/DX2                !
 ! D24   D(5,2,4,16)           170.7747         estimate D2E/DX2                !
 ! D25   D(1,2,5,6)             64.7224         estimate D2E/DX2                !
 ! D26   D(1,2,5,7)           -174.5033         estimate D2E/DX2                !
 ! D27   D(1,2,5,8)            -56.4989         estimate D2E/DX2                !
 ! D28   D(3,2,5,6)            -57.7377         estimate D2E/DX2                !
 ! D29   D(3,2,5,7)             63.0366         estimate D2E/DX2                !
 ! D30   D(3,2,5,8)           -178.959          estimate D2E/DX2                !
 ! D31   D(4,2,5,6)           -173.4245         estimate D2E/DX2                !
 ! D32   D(4,2,5,7)            -52.6502         estimate D2E/DX2                !
 ! D33   D(4,2,5,8)             65.3542         estimate D2E/DX2                !
 ! D34   D(2,5,6,17)           162.5123         estimate D2E/DX2                !
 ! D35   D(7,5,6,17)            41.1798         estimate D2E/DX2                !
 ! D36   D(8,5,6,17)           -76.1564         estimate D2E/DX2                !
 ! D37   D(2,5,7,18)            37.5492         estimate D2E/DX2                !
 ! D38   D(6,5,7,18)           158.0255         estimate D2E/DX2                !
 ! D39   D(8,5,7,18)           -82.5774         estimate D2E/DX2                !
 ! D40   D(2,5,8,19)            81.6538         estimate D2E/DX2                !
 ! D41   D(6,5,8,19)           -38.9785         estimate D2E/DX2                !
 ! D42   D(7,5,8,19)          -158.0603         estimate D2E/DX2                !
 --------------------------------------------------------------------------------
 Trust Radius=3.00D-01 FncErr=1.00D-07 GrdErr=1.00D-06
 Number of steps in this run=    100 maximum allowed number of steps=    114.
 GradGradGradGradGradGradGradGradGradGradGradGradGradGradGradGradGradGrad

 Leave Link  103 at Thu Sep  8 14:53:26 2022, MaxMem= 24159191040 cpu:         0.6
 (Enter /public/home/users/caep010/software/Gaussian09/g09/l202.exe)
                          Input orientation:                          
 ---------------------------------------------------------------------
 Center     Atomic      Atomic             Coordinates (Angstroms)
 Number     Number       Type             X           Y           Z
 ---------------------------------------------------------------------
      1          6           0       -1.020605   -0.998238   -0.814154
      2          6           0       -0.367190    0.045054    0.107297
      3          6           0       -0.850276    1.453785   -0.258015
      4          7           0       -0.645951   -0.185959    1.539349
      5          6           0        1.189214   -0.027572    0.021774
      6          8           0        1.593456    0.323938   -1.262660
      7          8           0        1.767378    0.827127    0.942198
      8          8           0        1.641622   -1.340205    0.336754
      9          1           0       -0.720271   -0.850345   -1.855913
     10          1           0       -0.748905   -2.015245   -0.514522
     11          1           0       -2.111272   -0.916638   -0.762036
     12          1           0       -0.612937    1.680623   -1.298681
     13          1           0       -0.372076    2.202854    0.376076
     14          1           0       -1.936152    1.526820   -0.128152
     15          1           0       -0.450948   -1.156457    1.768735
     16          1           0       -1.624597   -0.011160    1.742754
     17          1           0        2.532688    0.537693   -1.201383
     18          1           0        1.193856    0.768472    1.725932
     19          1           0        1.542868   -1.864645   -0.465252
 ---------------------------------------------------------------------
                    Distance matrix (angstroms):
                    1          2          3          4          5
     1  C    0.000000
     2  C    1.537687   0.000000
     3  C    2.520063   1.533411   0.000000
     4  N    2.517765   1.477108   2.441521   0.000000
     5  C    2.554265   1.560443   2.536182   2.386619   0.000000
     6  O    2.963549   2.408047   2.873620   3.623009   1.391669
     7  O    3.766906   2.421792   2.947087   2.684602   1.382738
     8  O    2.920442   2.450902   3.790737   2.830461   1.423689
     9  H    1.094228   2.186458   2.806990   3.460453   2.801570
    10  H    1.094488   2.185680   3.479977   2.752321   2.827501
    11  H    1.094956   2.173111   2.731859   2.824435   3.506851
    12  H    2.752682   2.170772   1.091225   3.397003   2.812344
    13  H    3.476238   2.174481   1.091719   2.671075   2.745534
    14  H    2.772137   2.170877   1.096050   2.716393   3.493784
    15  H    2.649690   2.052077   3.328745   1.016125   2.648846
    16  H    2.806583   2.063723   2.597829   1.014730   3.298420
    17  H    3.890363   3.219414   3.629547   4.258994   1.902777
    18  H    3.804884   2.362240   2.929876   2.081019   1.880921
    19  H    2.728331   2.760993   4.096592   3.409889   1.933159
                    6          7          8          9         10
     6  O    0.000000
     7  O    2.268225   0.000000
     8  O    2.308640   2.253820   0.000000
     9  H    2.661620   4.102650   3.259799   0.000000
    10  H    3.393839   4.066054   2.625827   1.776835   0.000000
    11  H    3.938866   4.581381   3.933314   1.770832   1.767553
    12  H    2.590379   3.378741   4.108903   2.593806   3.780586
    13  H    3.174759   2.605836   4.075511   3.798031   4.327531
    14  H    3.897713   3.918080   4.608301   3.180320   3.755671
    15  H    3.944682   3.088485   2.542279   3.647508   2.457551
    16  H    4.415956   3.584565   3.796233   3.804266   3.143006
    17  H    0.965196   2.294430   2.585801   3.596777   4.214039
    18  H    3.047782   0.972937   2.564533   4.371963   4.067313
    19  H    2.329874   3.045810   0.963329   2.843333   2.297244
                   11         12         13         14         15
    11  H    0.000000
    12  H    3.046106   0.000000
    13  H    3.748511   1.770748   0.000000
    14  H    2.530408   1.773328   1.776964   0.000000
    15  H    3.036279   4.181424   3.637402   3.606104   0.000000
    16  H    2.707529   3.624350   2.887642   2.441872   1.640071
    17  H    4.886151   3.348240   3.701188   4.701141   4.538042
    18  H    4.466929   3.639341   2.516288   3.716136   2.532304
    19  H    3.786758   4.232142   4.573772   4.870241   3.076935
                   16         17         18         19
    16  H    0.000000
    17  H    5.123690   0.000000
    18  H    2.924344   3.227213   0.000000
    19  H    4.282935   2.700530   3.443313   0.000000
 Stoichiometry    C4H11NO3
 Framework group  C1[X(C4H11NO3)]
 Deg. of freedom    51
 Full point group                 C1      NOp   1
 Largest Abelian subgroup         C1      NOp   1
 Largest concise Abelian subgroup C1      NOp   1
                         Standard orientation:                         
 ---------------------------------------------------------------------
 Center     Atomic      Atomic             Coordinates (Angstroms)
 Number     Number       Type             X           Y           Z
 ---------------------------------------------------------------------
      1          6           0        1.284916    1.376247   -0.477292
      2          6           0        0.761726    0.013630    0.006474
      3          6           0        1.338607   -1.114428   -0.857263
      4          7           0        1.088424   -0.268116    1.419179
      5          6           0       -0.797779   -0.031218   -0.023758
      6          8           0       -1.232752    0.073544   -1.341546
      7          8           0       -1.261245   -1.211749    0.527159
      8          8           0       -1.338775    1.028933    0.757456
      9          1           0        0.948516    1.590907   -1.496159
     10          1           0        0.946865    2.184647    0.178539
     11          1           0        2.379854    1.382061   -0.474641
     12          1           0        1.071320   -0.967529   -1.904999
     13          1           0        0.952646   -2.083587   -0.535371
     14          1           0        2.431762   -1.129428   -0.779087
     15          1           0        0.827151    0.529825    1.991489
     16          1           0        2.086469   -0.414083    1.529981
     17          1           0       -2.147825   -0.233349   -1.349306
     18          1           0       -0.657876   -1.389995    1.269305
     19          1           0       -1.320501    1.816126    0.202481
 ---------------------------------------------------------------------
 Rotational constants (GHZ):      2.5281400      1.8252698      1.8120738
 Leave Link  202 at Thu Sep  8 14:53:26 2022, MaxMem= 24159191040 cpu:         0.9
 (Enter /public/home/users/caep010/software/Gaussian09/g09/l301.exe)
 Standard basis: 6-31G(d,p) (6D, 7F)
 Ernie: Thresh=  0.10000D-02 Tol=  0.10000D-05 Strict=F.
 There are   175 symmetry adapted cartesian basis functions of A   symmetry.
 There are   175 symmetry adapted basis functions of A   symmetry.
   175 basis functions,   301 primitive gaussians,   175 cartesian basis functions
    33 alpha electrons       33 beta electrons
       nuclear repulsion energy       453.1720681530 Hartrees.
 IExCor=  402 DFT=T Ex+Corr=B3LYP ExCW=0 ScaHFX=  0.200000
 ScaDFX=  0.800000  0.720000  1.000000  0.810000 ScalE2=  1.000000  1.000000
 IRadAn=      0 IRanWt=     -1 IRanGd=            0 ICorTp=0 IEmpDi=  4
 NAtoms=   19 NActive=   19 NUniq=   19 SFac= 1.00D+00 NAtFMM=   60 NAOKFM=F Big=F
 Integral buffers will be    131072 words long.
 Raffenetti 2 integral format.
 Two-electron integral symmetry is turned on.
 Leave Link  301 at Thu Sep  8 14:53:26 2022, MaxMem= 24159191040 cpu:         1.9
 (Enter /public/home/users/caep010/software/Gaussian09/g09/l302.exe)
 NPDir=0 NMtPBC=     1 NCelOv=     1 NCel=       1 NClECP=     1 NCelD=      1
         NCelK=      1 NCelE2=     1 NClLst=     1 CellRange=     0.0.
 One-electron integrals computed using PRISM.
 NBasis=   175 RedAO= T EigKep=  1.92D-03  NBF=   175
 NBsUse=   175 1.00D-06 EigRej= -1.00D+00 NBFU=   175
 Precomputing XC quadrature grid using
 IXCGrd= 4 IRadAn=           0 IRanWt=          -1 IRanGd=           0 AccXCQ= 0.00D+00.
 Generated NRdTot=       0 NPtTot=           0 NUsed=           0 NTot=          32
 NSgBfM=   175   175   175   175   175 MxSgAt=    19 MxSgA2=    19.
 Leave Link  302 at Thu Sep  8 14:53:26 2022, MaxMem= 24159191040 cpu:        14.6
 (Enter /public/home/users/caep010/software/Gaussian09/g09/l303.exe)
 DipDrv:  MaxL=1.
 Leave Link  303 at Thu Sep  8 14:53:27 2022, MaxMem= 24159191040 cpu:         0.8
 (Enter /public/home/users/caep010/software/Gaussian09/g09/l401.exe)
 ExpMin= 1.61D-01 ExpMax= 5.48D+03 ExpMxC= 8.25D+02 IAcc=1 IRadAn=         1 AccDes= 0.00D+00
 Harris functional with IExCor=  402 and IRadAn=       1 diagonalized for initial guess.
 HarFok:  IExCor=  402 AccDes= 0.00D+00 IRadAn=         1 IDoV= 1 UseB2=F ITyADJ=14
 ICtDFT=  3500011 ScaDFX=  1.000000  1.000000  1.000000  1.000000
 FoFCou: FMM=F IPFlag=           0 FMFlag=      100000 FMFlg1=           0
         NFxFlg=           0 DoJE=T BraDBF=F KetDBF=T FulRan=T
         wScrn=  0.000000 ICntrl=     500 IOpCl=  0 I1Cent=   200000004 NGrid=           0
         NMat0=    1 NMatS0=      1 NMatT0=    0 NMatD0=    1 NMtDS0=    0 NMtDT0=    0
 Petite list used in FoFCou.
 Harris En= -439.551450287532    
 JPrj=0 DoOrth=F DoCkMO=F.
 Leave Link  401 at Thu Sep  8 14:53:27 2022, MaxMem= 24159191040 cpu:        11.4
 (Enter /public/home/users/caep010/software/Gaussian09/g09/l502.exe)
 Closed shell SCF:
 Using DIIS extrapolation, IDIIS=  1040.
 Integral symmetry usage will be decided dynamically.
 Keep R1 ints in memory in canonical form, NReq=121430853.
 IVT=      117353 IEndB=      117353 NGot= 24159191040 MDV= 24040485988
 LenX= 24040485988 LenY= 24040454922
 Requested convergence on RMS density matrix=1.00D-08 within 128 cycles.
 Requested convergence on MAX density matrix=1.00D-06.
 Requested convergence on             energy=1.00D-06.
 No special actions if energy rises.
 FoFCou: FMM=F IPFlag=           0 FMFlag=           0 FMFlg1=           0
         NFxFlg=           0 DoJE=F BraDBF=F KetDBF=F FulRan=T
         wScrn=  0.000000 ICntrl=     600 IOpCl=  0 I1Cent=           0 NGrid=           0
         NMat0=    1 NMatS0=  15400 NMatT0=    0 NMatD0=    1 NMtDS0=    0 NMtDT0=    0
 Symmetry not used in FoFCou.
 Integral accuracy reduced to 1.0D-05 until final iterations.

 Cycle   1  Pass 0  IDiag  1:
 E= -439.191528177858    
 DIIS: error= 3.06D-02 at cycle   1 NSaved=   1.
 NSaved= 1 IEnMin= 1 EnMin= -439.191528177858     IErMin= 1 ErrMin= 3.06D-02
 ErrMax= 3.06D-02  0.00D+00 EMaxC= 1.00D-01 BMatC= 3.62D-01 BMatP= 3.62D-01
 IDIUse=3 WtCom= 6.94D-01 WtEn= 3.06D-01
 Coeff-Com:  0.100D+01
 Coeff-En:   0.100D+01
 Coeff:      0.100D+01
 Gap=     0.241 Goal=   None    Shift=    0.000
 GapD=    0.241 DampG=1.000 DampE=0.500 DampFc=0.5000 IDamp=-1.
 Damping current iteration by 5.00D-01
 RMSDP=6.28D-03 MaxDP=1.33D-01              OVMax= 1.62D-01

 Cycle   2  Pass 0  IDiag  1:
 E= -439.318242465650     Delta-E=       -0.126714287792 Rises=F Damp=T
 DIIS: error= 1.04D-02 at cycle   2 NSaved=   2.
 NSaved= 2 IEnMin= 2 EnMin= -439.318242465650     IErMin= 2 ErrMin= 1.04D-02
 ErrMax= 1.04D-02  0.00D+00 EMaxC= 1.00D-01 BMatC= 1.64D-02 BMatP= 3.62D-01
 IDIUse=3 WtCom= 8.96D-01 WtEn= 1.04D-01
 Coeff-Com:  0.119D+00 0.881D+00
 Coeff-En:   0.193D+00 0.807D+00
 Coeff:      0.127D+00 0.873D+00
 Gap=     0.313 Goal=   None    Shift=    0.000
 RMSDP=9.17D-04 MaxDP=2.35D-02 DE=-1.27D-01 OVMax= 8.63D-02

 Cycle   3  Pass 0  IDiag  1:
 E= -439.493354754728     Delta-E=       -0.175112289079 Rises=F Damp=F
 DIIS: error= 2.07D-03 at cycle   3 NSaved=   3.
 NSaved= 3 IEnMin= 3 EnMin= -439.493354754728     IErMin= 3 ErrMin= 2.07D-03
 ErrMax= 2.07D-03  0.00D+00 EMaxC= 1.00D-01 BMatC= 2.57D-03 BMatP= 1.64D-02
 IDIUse=3 WtCom= 9.79D-01 WtEn= 2.07D-02
 Coeff-Com:  0.249D-01 0.253D+00 0.722D+00
 Coeff-En:   0.000D+00 0.000D+00 0.100D+01
 Coeff:      0.244D-01 0.248D+00 0.728D+00
 Gap=     0.317 Goal=   None    Shift=    0.000
 RMSDP=4.12D-04 MaxDP=1.13D-02 DE=-1.75D-01 OVMax= 1.14D-02

 Cycle   4  Pass 0  IDiag  1:
 E= -439.494636323517     Delta-E=       -0.001281568788 Rises=F Damp=F
 DIIS: error= 1.60D-03 at cycle   4 NSaved=   4.
 NSaved= 4 IEnMin= 4 EnMin= -439.494636323517     IErMin= 4 ErrMin= 1.60D-03
 ErrMax= 1.60D-03  0.00D+00 EMaxC= 1.00D-01 BMatC= 1.12D-03 BMatP= 2.57D-03
 IDIUse=3 WtCom= 9.84D-01 WtEn= 1.60D-02
 Coeff-Com:  0.175D-02 0.281D-01 0.397D+00 0.573D+00
 Coeff-En:   0.000D+00 0.000D+00 0.311D+00 0.689D+00
 Coeff:      0.172D-02 0.277D-01 0.396D+00 0.575D+00
 Gap=     0.316 Goal=   None    Shift=    0.000
 RMSDP=1.89D-04 MaxDP=4.48D-03 DE=-1.28D-03 OVMax= 5.01D-03

 Cycle   5  Pass 0  IDiag  1:
 E= -439.495607367505     Delta-E=       -0.000971043988 Rises=F Damp=F
 DIIS: error= 2.97D-04 at cycle   5 NSaved=   5.
 NSaved= 5 IEnMin= 5 EnMin= -439.495607367505     IErMin= 5 ErrMin= 2.97D-04
 ErrMax= 2.97D-04  0.00D+00 EMaxC= 1.00D-01 BMatC= 2.02D-05 BMatP= 1.12D-03
 IDIUse=3 WtCom= 9.97D-01 WtEn= 2.97D-03
 Coeff-Com:  0.286D-04 0.174D-02 0.129D+00 0.225D+00 0.644D+00
 Coeff-En:   0.000D+00 0.000D+00 0.000D+00 0.000D+00 0.100D+01
 Coeff:      0.285D-04 0.173D-02 0.128D+00 0.225D+00 0.645D+00
 Gap=     0.316 Goal=   None    Shift=    0.000
 RMSDP=3.48D-05 MaxDP=1.00D-03 DE=-9.71D-04 OVMax= 8.80D-04

 Cycle   6  Pass 0  IDiag  1:
 E= -439.495621804568     Delta-E=       -0.000014437063 Rises=F Damp=F
 DIIS: error= 6.96D-05 at cycle   6 NSaved=   6.
 NSaved= 6 IEnMin= 6 EnMin= -439.495621804568     IErMin= 6 ErrMin= 6.96D-05
 ErrMax= 6.96D-05  0.00D+00 EMaxC= 1.00D-01 BMatC= 3.90D-06 BMatP= 2.02D-05
 IDIUse=1 WtCom= 1.00D+00 WtEn= 0.00D+00
 Coeff-Com: -0.377D-04-0.107D-02 0.480D-01 0.926D-01 0.368D+00 0.492D+00
 Coeff:     -0.377D-04-0.107D-02 0.480D-01 0.926D-01 0.368D+00 0.492D+00
 Gap=     0.316 Goal=   None    Shift=    0.000
 RMSDP=1.02D-05 MaxDP=3.06D-04 DE=-1.44D-05 OVMax= 3.43D-04

 Cycle   7  Pass 0  IDiag  1:
 E= -439.495624833609     Delta-E=       -0.000003029041 Rises=F Damp=F
 DIIS: error= 1.26D-05 at cycle   7 NSaved=   7.
 NSaved= 7 IEnMin= 7 EnMin= -439.495624833609     IErMin= 7 ErrMin= 1.26D-05
 ErrMax= 1.26D-05  0.00D+00 EMaxC= 1.00D-01 BMatC= 6.98D-08 BMatP= 3.90D-06
 IDIUse=1 WtCom= 1.00D+00 WtEn= 0.00D+00
 Coeff-Com:  0.849D-05-0.517D-03 0.142D-01 0.285D-01 0.120D+00 0.201D+00
 Coeff-Com:  0.636D+00
 Coeff:      0.849D-05-0.517D-03 0.142D-01 0.285D-01 0.120D+00 0.201D+00
 Coeff:      0.636D+00
 Gap=     0.316 Goal=   None    Shift=    0.000
 RMSDP=1.88D-06 MaxDP=5.53D-05 DE=-3.03D-06 OVMax= 6.28D-05

 Initial convergence to 1.0D-05 achieved.  Increase integral accuracy.
 Cycle   8  Pass 1  IDiag  1:
 E= -439.495638723253     Delta-E=       -0.000013889644 Rises=F Damp=F
 DIIS: error= 1.63D-05 at cycle   1 NSaved=   1.
 NSaved= 1 IEnMin= 1 EnMin= -439.495638723253     IErMin= 1 ErrMin= 1.63D-05
 ErrMax= 1.63D-05  0.00D+00 EMaxC= 1.00D-01 BMatC= 7.03D-08 BMatP= 7.03D-08
 IDIUse=1 WtCom= 1.00D+00 WtEn= 0.00D+00
 Coeff-Com:  0.100D+01
 Coeff:      0.100D+01
 Gap=     0.316 Goal=   None    Shift=    0.000
 RMSDP=1.88D-06 MaxDP=5.53D-05 DE=-1.39D-05 OVMax= 6.32D-05

 Cycle   9  Pass 1  IDiag  1:
 E= -439.495638774690     Delta-E=       -0.000000051437 Rises=F Damp=F
 DIIS: error= 9.66D-06 at cycle   2 NSaved=   2.
 NSaved= 2 IEnMin= 2 EnMin= -439.495638774690     IErMin= 2 ErrMin= 9.66D-06
 ErrMax= 9.66D-06  0.00D+00 EMaxC= 1.00D-01 BMatC= 3.12D-08 BMatP= 7.03D-08
 IDIUse=1 WtCom= 1.00D+00 WtEn= 0.00D+00
 Coeff-Com:  0.358D+00 0.642D+00
 Coeff:      0.358D+00 0.642D+00
 Gap=     0.316 Goal=   None    Shift=    0.000
 RMSDP=1.35D-06 MaxDP=4.67D-05 DE=-5.14D-08 OVMax= 5.07D-05

 Cycle  10  Pass 1  IDiag  1:
 E= -439.495638789821     Delta-E=       -0.000000015131 Rises=F Damp=F
 DIIS: error= 6.47D-06 at cycle   3 NSaved=   3.
 NSaved= 3 IEnMin= 3 EnMin= -439.495638789821     IErMin= 3 ErrMin= 6.47D-06
 ErrMax= 6.47D-06  0.00D+00 EMaxC= 1.00D-01 BMatC= 1.18D-08 BMatP= 3.12D-08
 IDIUse=1 WtCom= 1.00D+00 WtEn= 0.00D+00
 Coeff-Com: -0.163D-01 0.380D+00 0.637D+00
 Coeff:     -0.163D-01 0.380D+00 0.637D+00
 Gap=     0.316 Goal=   None    Shift=    0.000
 RMSDP=5.57D-07 MaxDP=1.98D-05 DE=-1.51D-08 OVMax= 2.13D-05

 Cycle  11  Pass 1  IDiag  1:
 E= -439.495638798463     Delta-E=       -0.000000008642 Rises=F Damp=F
 DIIS: error= 6.68D-07 at cycle   4 NSaved=   4.
 NSaved= 4 IEnMin= 4 EnMin= -439.495638798463     IErMin= 4 ErrMin= 6.68D-07
 ErrMax= 6.68D-07  0.00D+00 EMaxC= 1.00D-01 BMatC= 2.67D-10 BMatP= 1.18D-08
 IDIUse=1 WtCom= 1.00D+00 WtEn= 0.00D+00
 Coeff-Com: -0.141D-01 0.194D+00 0.345D+00 0.475D+00
 Coeff:     -0.141D-01 0.194D+00 0.345D+00 0.475D+00
 Gap=     0.316 Goal=   None    Shift=    0.000
 RMSDP=9.94D-08 MaxDP=2.85D-06 DE=-8.64D-09 OVMax= 3.03D-06

 Cycle  12  Pass 1  IDiag  1:
 E= -439.495638798682     Delta-E=       -0.000000000220 Rises=F Damp=F
 DIIS: error= 1.57D-07 at cycle   5 NSaved=   5.
 NSaved= 5 IEnMin= 5 EnMin= -439.495638798682     IErMin= 5 ErrMin= 1.57D-07
 ErrMax= 1.57D-07  0.00D+00 EMaxC= 1.00D-01 BMatC= 7.19D-12 BMatP= 2.67D-10
 IDIUse=1 WtCom= 1.00D+00 WtEn= 0.00D+00
 Coeff-Com: -0.355D-02 0.375D-01 0.720D-01 0.173D+00 0.721D+00
 Coeff:     -0.355D-02 0.375D-01 0.720D-01 0.173D+00 0.721D+00
 Gap=     0.316 Goal=   None    Shift=    0.000
 RMSDP=1.94D-08 MaxDP=5.44D-07 DE=-2.20D-10 OVMax= 5.31D-07

 Cycle  13  Pass 1  IDiag  1:
 E= -439.495638798693     Delta-E=       -0.000000000010 Rises=F Damp=F
 DIIS: error= 3.83D-08 at cycle   6 NSaved=   6.
 NSaved= 6 IEnMin= 6 EnMin= -439.495638798693     IErMin= 6 ErrMin= 3.83D-08
 ErrMax= 3.83D-08  0.00D+00 EMaxC= 1.00D-01 BMatC= 8.53D-13 BMatP= 7.19D-12
 IDIUse=1 WtCom= 1.00D+00 WtEn= 0.00D+00
 Coeff-Com: -0.580D-03 0.309D-02 0.782D-02 0.418D-01 0.316D+00 0.632D+00
 Coeff:     -0.580D-03 0.309D-02 0.782D-02 0.418D-01 0.316D+00 0.632D+00
 Gap=     0.316 Goal=   None    Shift=    0.000
 RMSDP=5.37D-09 MaxDP=1.62D-07 DE=-1.05D-11 OVMax= 1.49D-07

 SCF Done:  E(RB3LYP) =  -439.495638799     A.U. after   13 cycles
            NFock= 13  Conv=0.54D-08     -V/T= 2.0087
 KE= 4.356966263405D+02 PE=-1.935120365716D+03 EE= 6.067560324235D+02
 Leave Link  502 at Thu Sep  8 14:53:32 2022, MaxMem= 24159191040 cpu:        70.1
 (Enter /public/home/users/caep010/software/Gaussian09/g09/l601.exe)
 Copying SCF densities to generalized density rwf, IOpCl= 0 IROHF=0.

 **********************************************************************

            Population analysis using the SCF density.

 **********************************************************************

 Orbital symmetries:
       Occupied  (A) (A) (A) (A) (A) (A) (A) (A) (A) (A) (A) (A)
                 (A) (A) (A) (A) (A) (A) (A) (A) (A) (A) (A) (A)
                 (A) (A) (A) (A) (A) (A) (A) (A) (A)
       Virtual   (A) (A) (A) (A) (A) (A) (A) (A) (A) (A) (A) (A)
                 (A) (A) (A) (A) (A) (A) (A) (A) (A) (A) (A) (A)
                 (A) (A) (A) (A) (A) (A) (A) (A) (A) (A) (A) (A)
                 (A) (A) (A) (A) (A) (A) (A) (A) (A) (A) (A) (A)
                 (A) (A) (A) (A) (A) (A) (A) (A) (A) (A) (A) (A)
                 (A) (A) (A) (A) (A) (A) (A) (A) (A) (A) (A) (A)
                 (A) (A) (A) (A) (A) (A) (A) (A) (A) (A) (A) (A)
                 (A) (A) (A) (A) (A) (A) (A) (A) (A) (A) (A) (A)
                 (A) (A) (A) (A) (A) (A) (A) (A) (A) (A) (A) (A)
                 (A) (A) (A) (A) (A) (A) (A) (A) (A) (A) (A) (A)
                 (A) (A) (A) (A) (A) (A) (A) (A) (A) (A) (A) (A)
                 (A) (A) (A) (A) (A) (A) (A) (A) (A) (A)
 The electronic state is 1-A.
 Alpha  occ. eigenvalues --  -19.15564 -19.14357 -19.13863 -14.32381 -10.32467
 Alpha  occ. eigenvalues --  -10.22433 -10.17845 -10.17094  -1.09476  -1.00000
 Alpha  occ. eigenvalues --   -0.99177  -0.89501  -0.75918  -0.68860  -0.65630
 Alpha  occ. eigenvalues --   -0.57726  -0.55307  -0.52105  -0.49462  -0.45682
 Alpha  occ. eigenvalues --   -0.44790  -0.42155  -0.40386  -0.39150  -0.38773
 Alpha  occ. eigenvalues --   -0.36996  -0.36292  -0.35052  -0.33806  -0.29262
 Alpha  occ. eigenvalues --   -0.28516  -0.27924  -0.25185
 Alpha virt. eigenvalues --    0.06427   0.09586   0.10773   0.12743   0.14298
 Alpha virt. eigenvalues --    0.14872   0.15825   0.16844   0.17418   0.18484
 Alpha virt. eigenvalues --    0.21378   0.22245   0.23518   0.24326   0.27238
 Alpha virt. eigenvalues --    0.29292   0.30557   0.32282   0.50946   0.53853
 Alpha virt. eigenvalues --    0.55022   0.56095   0.57132   0.62114   0.63114
 Alpha virt. eigenvalues --    0.65505   0.67671   0.70101   0.73568   0.74188
 Alpha virt. eigenvalues --    0.76044   0.76703   0.79670   0.80043   0.83295
 Alpha virt. eigenvalues --    0.86840   0.87350   0.87438   0.88796   0.90089
 Alpha virt. eigenvalues --    0.91838   0.92255   0.94400   0.94846   0.96506
 Alpha virt. eigenvalues --    0.97388   0.99388   1.01781   1.07604   1.10180
 Alpha virt. eigenvalues --    1.10942   1.13197   1.16447   1.18066   1.28775
 Alpha virt. eigenvalues --    1.30596   1.35408   1.37194   1.40326   1.47325
 Alpha virt. eigenvalues --    1.48214   1.51897   1.52418   1.57587   1.59545
 Alpha virt. eigenvalues --    1.67042   1.72536   1.75863   1.77028   1.78494
 Alpha virt. eigenvalues --    1.80991   1.82817   1.86004   1.87229   1.89497
 Alpha virt. eigenvalues --    1.90706   1.94066   1.98108   2.02517   2.04035
 Alpha virt. eigenvalues --    2.04888   2.07482   2.08051   2.08848   2.11242
 Alpha virt. eigenvalues --    2.12612   2.14798   2.16111   2.18355   2.20805
 Alpha virt. eigenvalues --    2.22947   2.25287   2.32345   2.34849   2.36523
 Alpha virt. eigenvalues --    2.38460   2.40973   2.46248   2.47544   2.49137
 Alpha virt. eigenvalues --    2.53192   2.53879   2.61463   2.63189   2.66253
 Alpha virt. eigenvalues --    2.66901   2.67846   2.70908   2.71960   2.73330
 Alpha virt. eigenvalues --    2.75689   2.79542   2.81116   2.84346   2.88423
 Alpha virt. eigenvalues --    2.89797   2.93628   2.99278   3.00056   3.03359
 Alpha virt. eigenvalues --    3.06337   3.10205   3.15465   3.19714   3.24504
 Alpha virt. eigenvalues --    3.30300   3.42712   3.43104   3.43689   3.45368
 Alpha virt. eigenvalues --    3.47134   3.48646   3.52214   3.53915   3.97636
 Alpha virt. eigenvalues --    4.08287   4.15496   4.21785   4.51018   4.57772
 Alpha virt. eigenvalues --    4.66503   4.74442
          Condensed to atoms (all electrons):
               1          2          3          4          5          6
     1  C    5.058998   0.343323  -0.056874  -0.063925  -0.043575  -0.002745
     2  C    0.343323   5.014708   0.347604   0.289698   0.335155  -0.067858
     3  C   -0.056874   0.347604   4.990331  -0.058707  -0.034170  -0.000728
     4  N   -0.063925   0.289698  -0.058707   6.827499  -0.056425   0.001857
     5  C   -0.043575   0.335155  -0.034170  -0.056425   4.419334   0.253465
     6  O   -0.002745  -0.067858  -0.000728   0.001857   0.253465   8.188314
     7  O    0.003403  -0.054155  -0.007881  -0.021606   0.270733  -0.056075
     8  O   -0.003750  -0.072453   0.003584  -0.007280   0.220037  -0.071752
     9  H    0.364917  -0.027292  -0.002639   0.005084  -0.002219   0.005551
    10  H    0.365075  -0.029738   0.005876  -0.003847  -0.005937   0.000159
    11  H    0.369772  -0.026358  -0.005886  -0.001463   0.004193   0.000023
    12  H   -0.001708  -0.028190   0.381228   0.004312  -0.006025   0.007773
    13  H    0.006200  -0.027106   0.371700  -0.000278  -0.008467  -0.000602
    14  H   -0.006855  -0.027593   0.365133  -0.004784   0.004381   0.000176
    15  H   -0.005124  -0.034898   0.007244   0.327863  -0.005568   0.000161
    16  H   -0.001501  -0.032128  -0.008236   0.336754   0.006426  -0.000075
    17  H   -0.000249   0.009889  -0.000340  -0.000227  -0.016839   0.280527
    18  H    0.001312  -0.012037  -0.000485   0.046842  -0.034929   0.005265
    19  H    0.002536  -0.003095  -0.000206   0.000650  -0.014433   0.006539
               7          8          9         10         11         12
     1  C    0.003403  -0.003750   0.364917   0.365075   0.369772  -0.001708
     2  C   -0.054155  -0.072453  -0.027292  -0.029738  -0.026358  -0.028190
     3  C   -0.007881   0.003584  -0.002639   0.005876  -0.005886   0.381228
     4  N   -0.021606  -0.007280   0.005084  -0.003847  -0.001463   0.004312
     5  C    0.270733   0.220037  -0.002219  -0.005937   0.004193  -0.006025
     6  O   -0.056075  -0.071752   0.005551   0.000159   0.000023   0.007773
     7  O    8.186705  -0.069489   0.000095   0.000040  -0.000059   0.000101
     8  O   -0.069489   8.252400  -0.000256   0.008297   0.000167   0.000091
     9  H    0.000095  -0.000256   0.588058  -0.029455  -0.026975   0.001777
    10  H    0.000040   0.008297  -0.029455   0.621120  -0.030330   0.000018
    11  H   -0.000059   0.000167  -0.026975  -0.030330   0.613137  -0.000189
    12  H    0.000101   0.000091   0.001777   0.000018  -0.000189   0.570639
    13  H    0.011680   0.000171  -0.000072  -0.000216  -0.000084  -0.024957
    14  H    0.000104  -0.000056   0.000019  -0.000116   0.003469  -0.029547
    15  H    0.000620   0.012525   0.000040   0.005500  -0.000098  -0.000253
    16  H    0.000352  -0.000070  -0.000074  -0.000234   0.002829  -0.000158
    17  H    0.000672   0.002458  -0.000207  -0.000055   0.000009  -0.000280
    18  H    0.283088   0.002213  -0.000097  -0.000005  -0.000036   0.000044
    19  H    0.006073   0.272764   0.000591   0.001867  -0.000009  -0.000008
              13         14         15         16         17         18
     1  C    0.006200  -0.006855  -0.005124  -0.001501  -0.000249   0.001312
     2  C   -0.027106  -0.027593  -0.034898  -0.032128   0.009889  -0.012037
     3  C    0.371700   0.365133   0.007244  -0.008236  -0.000340  -0.000485
     4  N   -0.000278  -0.004784   0.327863   0.336754  -0.000227   0.046842
     5  C   -0.008467   0.004381  -0.005568   0.006426  -0.016839  -0.034929
     6  O   -0.000602   0.000176   0.000161  -0.000075   0.280527   0.005265
     7  O    0.011680   0.000104   0.000620   0.000352   0.000672   0.283088
     8  O    0.000171  -0.000056   0.012525  -0.000070   0.002458   0.002213
     9  H   -0.000072   0.000019   0.000040  -0.000074  -0.000207  -0.000097
    10  H   -0.000216  -0.000116   0.005500  -0.000234  -0.000055  -0.000005
    11  H   -0.000084   0.003469  -0.000098   0.002829   0.000009  -0.000036
    12  H   -0.024957  -0.029547  -0.000253  -0.000158  -0.000280   0.000044
    13  H    0.585531  -0.030739  -0.000094  -0.000501  -0.000095   0.001832
    14  H   -0.030739   0.636852  -0.000149   0.004646   0.000015  -0.000153
    15  H   -0.000094  -0.000149   0.467952  -0.029244  -0.000017  -0.001526
    16  H   -0.000501   0.004646  -0.029244   0.480777   0.000008  -0.001076
    17  H   -0.000095   0.000015  -0.000017   0.000008   0.408242  -0.000368
    18  H    0.001832  -0.000153  -0.001526  -0.001076  -0.000368   0.383303
    19  H   -0.000020  -0.000004  -0.000400  -0.000009  -0.000065  -0.000370
              19
     1  C    0.002536
     2  C   -0.003095
     3  C   -0.000206
     4  N    0.000650
     5  C   -0.014433
     6  O    0.006539
     7  O    0.006073
     8  O    0.272764
     9  H    0.000591
    10  H    0.001867
    11  H   -0.000009
    12  H   -0.000008
    13  H   -0.000020
    14  H   -0.000004
    15  H   -0.000400
    16  H   -0.000009
    17  H   -0.000065
    18  H   -0.000370
    19  H    0.423976
 Mulliken charges:
               1
     1  C   -0.329232
     2  C    0.102523
     3  C   -0.296548
     4  N   -0.622017
     5  C    0.714862
     6  O   -0.549976
     7  O   -0.554401
     8  O   -0.549600
     9  H    0.123155
    10  H    0.091983
    11  H    0.097889
    12  H    0.125333
    13  H    0.116117
    14  H    0.085199
    15  H    0.255467
    16  H    0.241515
    17  H    0.316923
    18  H    0.327184
    19  H    0.303623
 Sum of Mulliken charges =  -0.00000
 Mulliken charges with hydrogens summed into heavy atoms:
               1
     1  C   -0.016205
     2  C    0.102523
     3  C    0.030101
     4  N   -0.125035
     5  C    0.714862
     6  O   -0.233053
     7  O   -0.227217
     8  O   -0.245977
 Electronic spatial extent (au):  <R**2>=            897.5445
 Charge=             -0.0000 electrons
 Dipole moment (field-independent basis, Debye):
    X=              1.7234    Y=              1.3819    Z=             -0.1519  Tot=              2.2142
 Quadrupole moment (field-independent basis, Debye-Ang):
   XX=            -45.4008   YY=            -47.5497   ZZ=            -49.3846
   XY=             -1.1810   XZ=              4.9792   YZ=              0.1612
 Traceless Quadrupole moment (field-independent basis, Debye-Ang):
   XX=              2.0442   YY=             -0.1047   ZZ=             -1.9396
   XY=             -1.1810   XZ=              4.9792   YZ=              0.1612
 Octapole moment (field-independent basis, Debye-Ang**2):
  XXX=            -12.5193  YYY=              7.5782  ZZZ=              7.6614  XYY=             -6.8536
  XXY=              0.7071  XXZ=             -5.8077  XZZ=             -1.9957  YZZ=             -1.4152
  YYZ=              1.9683  XYZ=              1.3501
 Hexadecapole moment (field-independent basis, Debye-Ang**3):
 XXXX=           -448.2864 YYYY=           -300.2747 ZZZZ=           -282.8922 XXXY=             -5.3128
 XXXZ=             47.1077 YYYX=            -15.6296 YYYZ=             -2.6904 ZZZX=             13.7238
 ZZZY=              3.4875 XXYY=           -138.0495 XXZZ=           -119.5415 YYZZ=           -100.2631
 XXYZ=              0.5902 YYXZ=              2.9082 ZZXY=              8.9274
 N-N= 4.531720681530D+02 E-N=-1.935120365079D+03  KE= 4.356966263405D+02
 No NMR shielding tensors so no spin-rotation constants.
 Leave Link  601 at Thu Sep  8 14:53:32 2022, MaxMem= 24159191040 cpu:        10.8
 (Enter /public/home/users/caep010/software/Gaussian09/g09/l701.exe)
 Compute integral first derivatives.
 ... and contract with generalized density number  0.
 Leave Link  701 at Thu Sep  8 14:53:32 2022, MaxMem= 24159191040 cpu:        11.0
 (Enter /public/home/users/caep010/software/Gaussian09/g09/l702.exe)
 L702 exits ... SP integral derivatives will be done elsewhere.
 Leave Link  702 at Thu Sep  8 14:53:33 2022, MaxMem= 24159191040 cpu:         0.5
 (Enter /public/home/users/caep010/software/Gaussian09/g09/l703.exe)
 Compute integral first derivatives, UseDBF=F ICtDFT=           0.
 Integral derivatives from FoFJK, PRISM(SPDF).
 Calling FoFJK, ICntrl=      2127 FMM=F ISym2X=0 I1Cent= 0 IOpClX= 0 NMat=1 NMatS=1 NMatT=0.
 FoFJK:  IHMeth= 1 ICntrl=    2127 DoSepK=F KAlg= 0 I1Cent=   0 FoldK=F
 IRaf=         0 NMat=   1 IRICut=       1 DoRegI=T DoRafI=F ISym2E= 0.
 FoFCou: FMM=F IPFlag=           0 FMFlag=      100000 FMFlg1=         800
         NFxFlg=           0 DoJE=F BraDBF=F KetDBF=F FulRan=T
         wScrn=  0.000000 ICntrl=    2127 IOpCl=  0 I1Cent=           0 NGrid=           0
         NMat0=    1 NMatS0=      1 NMatT0=    0 NMatD0=    1 NMtDS0=    0 NMtDT0=    0
 Symmetry not used in FoFCou.
 Leave Link  703 at Thu Sep  8 14:53:33 2022, MaxMem= 24159191040 cpu:        18.3
 (Enter /public/home/users/caep010/software/Gaussian09/g09/l716.exe)
 Dipole        = 6.78045950D-01 5.43669033D-01-5.97744916D-02
 ***** Axes restored to original set *****
 -------------------------------------------------------------------
 Center     Atomic                   Forces (Hartrees/Bohr)
 Number     Number              X              Y              Z
 -------------------------------------------------------------------
      1        6          -0.000438487    0.000064223   -0.000173047
      2        6           0.000074914    0.000009076   -0.000516929
      3        6          -0.000336758    0.000144338   -0.000015228
      4        7           0.000790807    0.001238133    0.000067801
      5        6          -0.001041669   -0.000052527    0.000669482
      6        8          -0.002533963   -0.000387728   -0.002652395
      7        8           0.002812238    0.001887753   -0.001502429
      8        8           0.001226207   -0.000267443    0.003227938
      9        1          -0.000064399   -0.000000969   -0.000107623
     10        1           0.000087352   -0.000237037    0.000056746
     11        1          -0.000160669   -0.000086764   -0.000034399
     12        1           0.000045569    0.000049012   -0.000145208
     13        1           0.000079788    0.000020967    0.000106324
     14        1          -0.000197854    0.000089388    0.000046726
     15        1           0.000518118   -0.001352564    0.000297337
     16        1          -0.001324117    0.000384497    0.000367595
     17        1           0.003266631    0.000825841    0.000510142
     18        1          -0.002306424   -0.000559582    0.002715567
     19        1          -0.000497286   -0.001768614   -0.002918399
 -------------------------------------------------------------------
 Cartesian Forces:  Max     0.003266631 RMS     0.001218345
 Leave Link  716 at Thu Sep  8 14:53:33 2022, MaxMem= 24159191040 cpu:         0.7
 (Enter /public/home/users/caep010/software/Gaussian09/g09/l103.exe)

 GradGradGradGradGradGradGradGradGradGradGradGradGradGradGradGradGradGrad
 Berny optimization.
 FormGI is forming the generalized inverse of G from B-inverse, IUseBI=4.
 Internal  Forces:  Max     0.003585696 RMS     0.000809352
 Search for a local minimum.
 Step number   1 out of a maximum of  100
 All quantities printed in internal units (Hartrees-Bohrs-Radians)
 RMS Force = .80935D-03 SwitMx=.10000D-02 MixMth= 2
 Mixed Optimization -- En-DIIS/RFO-DIIS
 Second derivative matrix not updated -- first step.
 ITU=  0
     Eigenvalues ---    0.00230   0.00267   0.00324   0.00672   0.01378
     Eigenvalues ---    0.01802   0.01920   0.04187   0.04345   0.04979
     Eigenvalues ---    0.05405   0.05565   0.05566   0.05623   0.06220
     Eigenvalues ---    0.07091   0.07183   0.11338   0.14614   0.15586
     Eigenvalues ---    0.16000   0.16000   0.16000   0.16000   0.16000
     Eigenvalues ---    0.16000   0.16000   0.16000   0.16000   0.16000
     Eigenvalues ---    0.16000   0.19240   0.19619   0.26782   0.28725
     Eigenvalues ---    0.29111   0.34123   0.34246   0.34299   0.34329
     Eigenvalues ---    0.34615   0.34672   0.34903   0.41910   0.44962
     Eigenvalues ---    0.45190   0.47030   0.48605   0.52781   0.54371
     Eigenvalues ---    0.54763
 RFO step:  Lambda=-1.58615489D-04 EMin= 2.30000000D-03
 Linear search not attempted -- first point.
 Iteration  1 RMS(Cart)=  0.01935775 RMS(Int)=  0.00012294
 Iteration  2 RMS(Cart)=  0.00019089 RMS(Int)=  0.00000164
 Iteration  3 RMS(Cart)=  0.00000002 RMS(Int)=  0.00000164
 ITry= 1 IFail=0 DXMaxC= 7.22D-02 DCOld= 1.00D+10 DXMaxT= 3.00D-01 DXLimC= 3.00D+00 Rises=F
 Variable       Old X    -DE/DX   Delta X   Delta X   Delta X     New X
                                 (Linear)    (Quad)   (Total)
    R1        2.90581   0.00058   0.00000   0.00201   0.00201   2.90782
    R2        2.06779   0.00009   0.00000   0.00026   0.00026   2.06805
    R3        2.06828   0.00025   0.00000   0.00074   0.00074   2.06902
    R4        2.06917   0.00015   0.00000   0.00044   0.00044   2.06961
    R5        2.89773   0.00041   0.00000   0.00141   0.00141   2.89914
    R6        2.79133   0.00067   0.00000   0.00191   0.00191   2.79324
    R7        2.94881   0.00093   0.00000   0.00348   0.00348   2.95229
    R8        2.06212   0.00016   0.00000   0.00046   0.00046   2.06257
    R9        2.06305   0.00011   0.00000   0.00033   0.00033   2.06338
   R10        2.07123   0.00021   0.00000   0.00060   0.00060   2.07184
   R11        1.92020   0.00146   0.00000   0.00324   0.00324   1.92344
   R12        1.91756   0.00142   0.00000   0.00314   0.00314   1.92070
   R13        2.62987   0.00229   0.00000   0.00487   0.00487   2.63475
   R14        2.61300   0.00184   0.00000   0.00378   0.00378   2.61678
   R15        2.69038   0.00218   0.00000   0.00520   0.00520   2.69558
   R16        1.82396   0.00340   0.00000   0.00625   0.00625   1.83020
   R17        1.83858   0.00359   0.00000   0.00679   0.00679   1.84538
   R18        1.82043   0.00344   0.00000   0.00629   0.00629   1.82671
    A1        1.94140   0.00007   0.00000   0.00043   0.00043   1.94183
    A2        1.94004  -0.00004   0.00000  -0.00027  -0.00027   1.93977
    A3        1.92217   0.00013   0.00000   0.00087   0.00087   1.92303
    A4        1.89451  -0.00002   0.00000  -0.00018  -0.00018   1.89433
    A5        1.88456  -0.00010   0.00000  -0.00055  -0.00055   1.88401
    A6        1.87915  -0.00005   0.00000  -0.00034  -0.00034   1.87881
    A7        1.92483  -0.00021   0.00000  -0.00031  -0.00031   1.92452
    A8        1.97650   0.00018   0.00000   0.00080   0.00081   1.97730
    A9        1.93844   0.00026   0.00000   0.00354   0.00354   1.94198
   A10        1.89146  -0.00007   0.00000  -0.00261  -0.00261   1.88885
   A11        1.92189   0.00016   0.00000   0.00158   0.00157   1.92346
   A12        1.80708  -0.00032   0.00000  -0.00320  -0.00320   1.80388
   A13        1.92799   0.00003   0.00000   0.00027   0.00027   1.92826
   A14        1.93262  -0.00015   0.00000  -0.00115  -0.00115   1.93147
   A15        1.92315   0.00012   0.00000   0.00090   0.00090   1.92405
   A16        1.89232   0.00003   0.00000  -0.00005  -0.00005   1.89226
   A17        1.89085  -0.00003   0.00000   0.00030   0.00030   1.89115
   A18        1.89592  -0.00001   0.00000  -0.00025  -0.00025   1.89566
   A19        1.90924  -0.00011   0.00000   0.00010   0.00009   1.90933
   A20        1.92773   0.00015   0.00000   0.00174   0.00174   1.92947
   A21        1.88006   0.00012   0.00000   0.00231   0.00231   1.88237
   A22        1.90556   0.00042   0.00000   0.00222   0.00222   1.90778
   A23        1.93029  -0.00072   0.00000  -0.00425  -0.00425   1.92603
   A24        1.92595   0.00016   0.00000   0.00083   0.00083   1.92678
   A25        1.91429   0.00015   0.00000   0.00075   0.00075   1.91504
   A26        1.92279  -0.00034   0.00000  -0.00102  -0.00102   1.92177
   A27        1.86478   0.00031   0.00000   0.00141   0.00141   1.86618
   A28        1.85459  -0.00051   0.00000  -0.00320  -0.00320   1.85139
   A29        1.82602  -0.00078   0.00000  -0.00485  -0.00485   1.82117
   A30        1.85998  -0.00029   0.00000  -0.00183  -0.00183   1.85815
    D1        1.10834   0.00010   0.00000  -0.00660  -0.00660   1.10174
    D2       -3.05195  -0.00002   0.00000  -0.00964  -0.00964  -3.06159
    D3       -1.02729  -0.00014   0.00000  -0.01080  -0.01080  -1.03809
    D4       -3.06154   0.00009   0.00000  -0.00672  -0.00672  -3.06826
    D5       -0.93864  -0.00002   0.00000  -0.00976  -0.00976  -0.94840
    D6        1.08602  -0.00015   0.00000  -0.01092  -0.01092   1.07510
    D7       -0.98041   0.00009   0.00000  -0.00676  -0.00676  -0.98717
    D8        1.14248  -0.00003   0.00000  -0.00980  -0.00980   1.13268
    D9       -3.11604  -0.00015   0.00000  -0.01096  -0.01096  -3.12700
   D10       -1.02092  -0.00012   0.00000  -0.00199  -0.00199  -1.02290
   D11       -3.11751  -0.00008   0.00000  -0.00135  -0.00135  -3.11886
   D12        1.06774  -0.00005   0.00000  -0.00087  -0.00087   1.06687
   D13        3.08970  -0.00015   0.00000  -0.00103  -0.00103   3.08866
   D14        0.99310  -0.00012   0.00000  -0.00039  -0.00039   0.99271
   D15       -1.10483  -0.00009   0.00000   0.00008   0.00008  -1.10474
   D16        1.12442   0.00018   0.00000   0.00334   0.00334   1.12776
   D17       -0.97218   0.00022   0.00000   0.00398   0.00398  -0.96819
   D18       -3.07011   0.00024   0.00000   0.00446   0.00446  -3.06565
   D19        0.86493   0.00023   0.00000   0.00632   0.00632   0.87125
   D20       -1.20154   0.00007   0.00000   0.00238   0.00238  -1.19916
   D21        3.00644   0.00004   0.00000   0.00458   0.00457   3.01102
   D22        0.93997  -0.00013   0.00000   0.00064   0.00064   0.94061
   D23       -1.23613   0.00004   0.00000   0.00365   0.00365  -1.23248
   D24        2.98058  -0.00013   0.00000  -0.00029  -0.00029   2.98030
   D25        1.12962   0.00001   0.00000   0.02934   0.02934   1.15896
   D26       -3.04566   0.00002   0.00000   0.02902   0.02902  -3.01663
   D27       -0.98609   0.00006   0.00000   0.02864   0.02865  -0.95745
   D28       -1.00771  -0.00002   0.00000   0.02623   0.02623  -0.98148
   D29        1.10020  -0.00001   0.00000   0.02592   0.02591   1.12611
   D30       -3.12342   0.00003   0.00000   0.02554   0.02554  -3.09789
   D31       -3.02683   0.00016   0.00000   0.03022   0.03022  -2.99661
   D32       -0.91892   0.00017   0.00000   0.02990   0.02990  -0.88902
   D33        1.14065   0.00021   0.00000   0.02952   0.02952   1.17017
   D34        2.83637  -0.00034   0.00000  -0.00605  -0.00605   2.83033
   D35        0.71872   0.00019   0.00000  -0.00267  -0.00267   0.71605
   D36       -1.32918  -0.00009   0.00000  -0.00423  -0.00423  -1.33341
   D37        0.65536  -0.00001   0.00000   0.00250   0.00250   0.65785
   D38        2.75807   0.00016   0.00000   0.00304   0.00304   2.76110
   D39       -1.44125   0.00002   0.00000   0.00305   0.00305  -1.43820
   D40        1.42513   0.00028   0.00000  -0.00176  -0.00176   1.42337
   D41       -0.68030  -0.00013   0.00000  -0.00441  -0.00441  -0.68471
   D42       -2.75867  -0.00031   0.00000  -0.00557  -0.00557  -2.76424
         Item               Value     Threshold  Converged?
 Maximum Force            0.003586     0.000450     NO 
 RMS     Force            0.000809     0.000300     NO 
 Maximum Displacement     0.072186     0.001800     NO 
 RMS     Displacement     0.019388     0.001200     NO 
 Predicted change in Energy=-7.999511D-05
 Lowest energy point so far.  Saving SCF results.
 GradGradGradGradGradGradGradGradGradGradGradGradGradGradGradGradGradGrad

 Leave Link  103 at Thu Sep  8 14:53:33 2022, MaxMem= 24159191040 cpu:         3.0
 (Enter /public/home/users/caep010/software/Gaussian09/g09/l202.exe)
                          Input orientation:                          
 ---------------------------------------------------------------------
 Center     Atomic      Atomic             Coordinates (Angstroms)
 Number     Number       Type             X           Y           Z
 ---------------------------------------------------------------------
      1          6           0       -1.025148   -1.004656   -0.806806
      2          6           0       -0.366839    0.045949    0.104574
      3          6           0       -0.850700    1.452702   -0.270346
      4          7           0       -0.643117   -0.170499    1.540419
      5          6           0        1.191464   -0.028633    0.021698
      6          8           0        1.603693    0.347453   -1.256016
      7          8           0        1.764520    0.809571    0.963253
      8          8           0        1.642122   -1.350239    0.313244
      9          1           0       -0.734241   -0.861388   -1.852025
     10          1           0       -0.747415   -2.019564   -0.504168
     11          1           0       -2.115908   -0.926959   -0.746423
     12          1           0       -0.615518    1.672110   -1.313346
     13          1           0       -0.369901    2.205628    0.357479
     14          1           0       -1.936430    1.528179   -0.137993
     15          1           0       -0.444166   -1.139375    1.780628
     16          1           0       -1.622621    0.006651    1.745948
     17          1           0        2.545067    0.562581   -1.181648
     18          1           0        1.182907    0.730273    1.743671
     19          1           0        1.542132   -1.859882   -0.502041
 ---------------------------------------------------------------------
                    Distance matrix (angstroms):
                    1          2          3          4          5
     1  C    0.000000
     2  C    1.538751   0.000000
     3  C    2.521276   1.534158   0.000000
     4  N    2.520166   1.478118   2.440644   0.000000
     5  C    2.559767   1.562287   2.539701   2.385860   0.000000
     6  O    2.990116   2.413526   2.866560   3.624429   1.394248
     7  O    3.769188   2.421392   2.962222   2.662776   1.384740
     8  O    2.913463   2.455363   3.796211   2.849572   1.426440
     9  H    1.094364   2.187812   2.805403   3.463280   2.812945
    10  H    1.094880   2.186720   3.481662   2.758669   2.828355
    11  H    1.095190   2.174853   2.736821   2.823295   3.512223
    12  H    2.754897   2.171805   1.091467   3.397050   2.817810
    13  H    3.477188   2.174439   1.091892   2.668328   2.746368
    14  H    2.773626   2.172432   1.096369   2.715738   3.497555
    15  H    2.655278   2.054295   3.330259   1.017842   2.646293
    16  H    2.810030   2.067037   2.598532   1.016392   3.300509
    17  H    3.917036   3.224976   3.626847   4.255769   1.905207
    18  H    3.793470   2.357255   2.951902   2.046232   1.881808
    19  H    2.723090   2.764841   4.092987   3.435255   1.936684
                    6          7          8          9         10
     6  O    0.000000
     7  O    2.272571   0.000000
     8  O    2.312187   2.258821   0.000000
     9  H    2.698604   4.118459   3.251840   0.000000
    10  H    3.419905   4.057973   2.612670   1.777150   0.000000
    11  H    3.964750   4.582166   3.927448   1.770778   1.767837
    12  H    2.585131   3.404623   4.108202   2.592852   3.781616
    13  H    3.154561   2.621391   4.085876   3.797531   4.328648
    14  H    3.895711   3.927616   4.614643   3.176978   3.759563
    15  H    3.952922   3.056924   2.559351   3.654803   2.467181
    16  H    4.420072   3.567915   3.814752   3.806326   3.151912
    17  H    0.968501   2.295835   2.590152   3.637438   4.238736
    18  H    3.053152   0.976531   2.566228   4.374685   4.042341
    19  H    2.333366   3.053281   0.966656   2.828661   2.295110
                   11         12         13         14         15
    11  H    0.000000
    12  H    3.054133   0.000000
    13  H    3.752364   1.771052   0.000000
    14  H    2.535764   1.773973   1.777201   0.000000
    15  H    3.037404   4.184075   3.635919   3.608850   0.000000
    16  H    2.706819   3.625919   2.886633   2.441875   1.644181
    17  H    4.912518   3.352267   3.683145   4.701639   4.539520
    18  H    4.452995   3.669706   2.551355   3.729286   2.478773
    19  H    3.783032   4.217658   4.574169   4.869485   3.110480
                   16         17         18         19
    16  H    0.000000
    17  H    5.123426   0.000000
    18  H    2.897347   3.231268   0.000000
    19  H    4.307326   2.708518   3.446907   0.000000
 Stoichiometry    C4H11NO3
 Framework group  C1[X(C4H11NO3)]
 Deg. of freedom    51
 Full point group                 C1      NOp   1
 RotChk:  IX=0 Diff= 1.60D-02
 Largest Abelian subgroup         C1      NOp   1
 Largest concise Abelian subgroup C1      NOp   1
                         Standard orientation:                         
 ---------------------------------------------------------------------
 Center     Atomic      Atomic             Coordinates (Angstroms)
 Number     Number       Type             X           Y           Z
 ---------------------------------------------------------------------
      1          6           0        1.289367    1.386745   -0.450996
      2          6           0        0.762182    0.014874    0.004858
      3          6           0        1.341333   -1.097409   -0.878912
      4          7           0        1.086381   -0.297428    1.412762
      5          6           0       -0.799170   -0.030484   -0.024515
      6          8           0       -1.238323    0.062659   -1.344514
      7          8           0       -1.257421   -1.209765    0.538343
      8          8           0       -1.342192    1.037565    0.749520
      9          1           0        0.962807    1.618904   -1.469374
     10          1           0        0.944066    2.183813    0.215497
     11          1           0        2.384453    1.394087   -0.437853
     12          1           0        1.076572   -0.931129   -1.924643
     13          1           0        0.953367   -2.071929   -0.575560
     14          1           0        2.434580   -1.115439   -0.798222
     15          1           0        0.820368    0.487896    2.003106
     16          1           0        2.085580   -0.446557    1.524180
     17          1           0       -2.154500   -0.251370   -1.345162
     18          1           0       -0.648540   -1.374683    1.283782
     19          1           0       -1.322205    1.822370    0.185512
 ---------------------------------------------------------------------
 Rotational constants (GHZ):      2.5232283      1.8212618      1.8072148
 Leave Link  202 at Thu Sep  8 14:53:33 2022, MaxMem= 24159191040 cpu:         0.2
 (Enter /public/home/users/caep010/software/Gaussian09/g09/l301.exe)
 Standard basis: 6-31G(d,p) (6D, 7F)
 Ernie: Thresh=  0.10000D-02 Tol=  0.10000D-05 Strict=F.
 There are   175 symmetry adapted cartesian basis functions of A   symmetry.
 There are   175 symmetry adapted basis functions of A   symmetry.
   175 basis functions,   301 primitive gaussians,   175 cartesian basis functions
    33 alpha electrons       33 beta electrons
       nuclear repulsion energy       452.6654088104 Hartrees.
 IExCor=  402 DFT=T Ex+Corr=B3LYP ExCW=0 ScaHFX=  0.200000
 ScaDFX=  0.800000  0.720000  1.000000  0.810000 ScalE2=  1.000000  1.000000
 IRadAn=      0 IRanWt=     -1 IRanGd=            0 ICorTp=0 IEmpDi=  4
 NAtoms=   19 NActive=   19 NUniq=   19 SFac= 1.00D+00 NAtFMM=   60 NAOKFM=F Big=F
 Integral buffers will be    131072 words long.
 Raffenetti 2 integral format.
 Two-electron integral symmetry is turned on.
 Leave Link  301 at Thu Sep  8 14:53:34 2022, MaxMem= 24159191040 cpu:         1.6
 (Enter /public/home/users/caep010/software/Gaussian09/g09/l302.exe)
 NPDir=0 NMtPBC=     1 NCelOv=     1 NCel=       1 NClECP=     1 NCelD=      1
         NCelK=      1 NCelE2=     1 NClLst=     1 CellRange=     0.0.
 One-electron integrals computed using PRISM.
 NBasis=   175 RedAO= T EigKep=  1.93D-03  NBF=   175
 NBsUse=   175 1.00D-06 EigRej= -1.00D+00 NBFU=   175
 Precomputing XC quadrature grid using
 IXCGrd= 4 IRadAn=           0 IRanWt=          -1 IRanGd=           0 AccXCQ= 0.00D+00.
 Generated NRdTot=       0 NPtTot=           0 NUsed=           0 NTot=          32
 NSgBfM=   175   175   175   175   175 MxSgAt=    19 MxSgA2=    19.
 Leave Link  302 at Thu Sep  8 14:53:34 2022, MaxMem= 24159191040 cpu:        11.9
 (Enter /public/home/users/caep010/software/Gaussian09/g09/l303.exe)
 DipDrv:  MaxL=1.
 Leave Link  303 at Thu Sep  8 14:53:34 2022, MaxMem= 24159191040 cpu:         0.7
 (Enter /public/home/users/caep010/software/Gaussian09/g09/l401.exe)
 Initial guess from the checkpoint file:  "B3LYP6-31Gdp.Frag_1007.chk"
 B after Tr=    -0.000000    0.000000   -0.000000
         Rot=    0.999993   -0.003810    0.000136   -0.000299 Ang=  -0.44 deg.
 Guess basis will be translated and rotated to current coordinates.
 JPrj=2 DoOrth=T DoCkMO=T.
 Generating alternative initial guess.
 ExpMin= 1.61D-01 ExpMax= 5.48D+03 ExpMxC= 8.25D+02 IAcc=1 IRadAn=         1 AccDes= 0.00D+00
 Harris functional with IExCor=  402 and IRadAn=       1 diagonalized for initial guess.
 HarFok:  IExCor=  402 AccDes= 0.00D+00 IRadAn=         1 IDoV= 1 UseB2=F ITyADJ=14
 ICtDFT=  3500011 ScaDFX=  1.000000  1.000000  1.000000  1.000000
 FoFCou: FMM=F IPFlag=           0 FMFlag=      100000 FMFlg1=           0
         NFxFlg=           0 DoJE=T BraDBF=F KetDBF=T FulRan=T
         wScrn=  0.000000 ICntrl=     500 IOpCl=  0 I1Cent=   200000004 NGrid=           0
         NMat0=    1 NMatS0=      1 NMatT0=    0 NMatD0=    1 NMtDS0=    0 NMtDT0=    0
 Petite list used in FoFCou.
 Harris En= -439.550830931284    
 Leave Link  401 at Thu Sep  8 14:53:35 2022, MaxMem= 24159191040 cpu:        13.6
 (Enter /public/home/users/caep010/software/Gaussian09/g09/l502.exe)
 Closed shell SCF:
 Using DIIS extrapolation, IDIIS=  1040.
 Integral symmetry usage will be decided dynamically.
 Keep R1 ints in memory in canonical form, NReq=121430853.
 IVT=      117353 IEndB=      117353 NGot= 24159191040 MDV= 24040485988
 LenX= 24040485988 LenY= 24040454922
 Requested convergence on RMS density matrix=1.00D-08 within 128 cycles.
 Requested convergence on MAX density matrix=1.00D-06.
 Requested convergence on             energy=1.00D-06.
 No special actions if energy rises.
 FoFCou: FMM=F IPFlag=           0 FMFlag=           0 FMFlg1=           0
         NFxFlg=           0 DoJE=F BraDBF=F KetDBF=F FulRan=T
         wScrn=  0.000000 ICntrl=     600 IOpCl=  0 I1Cent=           0 NGrid=           0
         NMat0=    1 NMatS0=  15400 NMatT0=    0 NMatD0=    1 NMtDS0=    0 NMtDT0=    0
 Symmetry not used in FoFCou.
 Integral accuracy reduced to 1.0D-05 until final iterations.

 Cycle   1  Pass 0  IDiag  1:
 E= -439.495094490459    
 DIIS: error= 7.72D-04 at cycle   1 NSaved=   1.
 NSaved= 1 IEnMin= 1 EnMin= -439.495094490459     IErMin= 1 ErrMin= 7.72D-04
 ErrMax= 7.72D-04  0.00D+00 EMaxC= 1.00D-01 BMatC= 3.27D-04 BMatP= 3.27D-04
 IDIUse=3 WtCom= 9.92D-01 WtEn= 7.72D-03
 Coeff-Com:  0.100D+01
 Coeff-En:   0.100D+01
 Coeff:      0.100D+01
 Gap=     1.550 Goal=   None    Shift=    0.000
 RMSDP=1.67D-04 MaxDP=3.26D-03              OVMax= 4.59D-03

 Cycle   2  Pass 0  IDiag  1:
 E= -439.495628689154     Delta-E=       -0.000534198694 Rises=F Damp=F
 DIIS: error= 1.17D-04 at cycle   2 NSaved=   2.
 NSaved= 2 IEnMin= 2 EnMin= -439.495628689154     IErMin= 2 ErrMin= 1.17D-04
 ErrMax= 1.17D-04  0.00D+00 EMaxC= 1.00D-01 BMatC= 6.72D-06 BMatP= 3.27D-04
 IDIUse=3 WtCom= 9.99D-01 WtEn= 1.17D-03
 Coeff-Com: -0.418D-01 0.104D+01
 Coeff-En:   0.000D+00 0.100D+01
 Coeff:     -0.417D-01 0.104D+01
 Gap=     0.317 Goal=   None    Shift=    0.000
 RMSDP=2.68D-05 MaxDP=8.92D-04 DE=-5.34D-04 OVMax= 8.98D-04

 Cycle   3  Pass 0  IDiag  1:
 E= -439.495630512640     Delta-E=       -0.000001823486 Rises=F Damp=F
 DIIS: error= 1.60D-04 at cycle   3 NSaved=   3.
 NSaved= 3 IEnMin= 3 EnMin= -439.495630512640     IErMin= 2 ErrMin= 1.17D-04
 ErrMax= 1.60D-04  0.00D+00 EMaxC= 1.00D-01 BMatC= 7.93D-06 BMatP= 6.72D-06
 IDIUse=3 WtCom= 4.41D-01 WtEn= 5.59D-01
 Coeff-Com: -0.384D-01 0.565D+00 0.473D+00
 Coeff-En:   0.000D+00 0.397D+00 0.603D+00
 Coeff:     -0.169D-01 0.471D+00 0.546D+00
 Gap=     0.317 Goal=   None    Shift=    0.000
 RMSDP=1.70D-05 MaxDP=6.77D-04 DE=-1.82D-06 OVMax= 6.21D-04

 Cycle   4  Pass 0  IDiag  1:
 E= -439.495635484673     Delta-E=       -0.000004972034 Rises=F Damp=F
 DIIS: error= 5.97D-05 at cycle   4 NSaved=   4.
 NSaved= 4 IEnMin= 4 EnMin= -439.495635484673     IErMin= 4 ErrMin= 5.97D-05
 ErrMax= 5.97D-05  0.00D+00 EMaxC= 1.00D-01 BMatC= 9.70D-07 BMatP= 6.72D-06
 IDIUse=1 WtCom= 1.00D+00 WtEn= 0.00D+00
 Coeff-Com: -0.120D-01 0.145D+00 0.297D+00 0.570D+00
 Coeff:     -0.120D-01 0.145D+00 0.297D+00 0.570D+00
 Gap=     0.317 Goal=   None    Shift=    0.000
 RMSDP=4.79D-06 MaxDP=1.90D-04 DE=-4.97D-06 OVMax= 1.87D-04

 Initial convergence to 1.0D-05 achieved.  Increase integral accuracy.
 Cycle   5  Pass 1  IDiag  1:
 E= -439.495676112198     Delta-E=       -0.000040627525 Rises=F Damp=F
 DIIS: error= 1.57D-05 at cycle   1 NSaved=   1.
 NSaved= 1 IEnMin= 1 EnMin= -439.495676112198     IErMin= 1 ErrMin= 1.57D-05
 ErrMax= 1.57D-05  0.00D+00 EMaxC= 1.00D-01 BMatC= 7.73D-08 BMatP= 7.73D-08
 IDIUse=1 WtCom= 1.00D+00 WtEn= 0.00D+00
 Coeff-Com:  0.100D+01
 Coeff:      0.100D+01
 Gap=     0.317 Goal=   None    Shift=    0.000
 RMSDP=4.79D-06 MaxDP=1.90D-04 DE=-4.06D-05 OVMax= 7.31D-05

 Cycle   6  Pass 1  IDiag  1:
 E= -439.495676153875     Delta-E=       -0.000000041678 Rises=F Damp=F
 DIIS: error= 9.60D-06 at cycle   2 NSaved=   2.
 NSaved= 2 IEnMin= 2 EnMin= -439.495676153875     IErMin= 2 ErrMin= 9.60D-06
 ErrMax= 9.60D-06  0.00D+00 EMaxC= 1.00D-01 BMatC= 5.02D-08 BMatP= 7.73D-08
 IDIUse=1 WtCom= 1.00D+00 WtEn= 0.00D+00
 Coeff-Com:  0.429D+00 0.571D+00
 Coeff:      0.429D+00 0.571D+00
 Gap=     0.317 Goal=   None    Shift=    0.000
 RMSDP=1.62D-06 MaxDP=4.91D-05 DE=-4.17D-08 OVMax= 4.46D-05

 Cycle   7  Pass 1  IDiag  1:
 E= -439.495676186169     Delta-E=       -0.000000032294 Rises=F Damp=F
 DIIS: error= 4.85D-06 at cycle   3 NSaved=   3.
 NSaved= 3 IEnMin= 3 EnMin= -439.495676186169     IErMin= 3 ErrMin= 4.85D-06
 ErrMax= 4.85D-06  0.00D+00 EMaxC= 1.00D-01 BMatC= 9.32D-09 BMatP= 5.02D-08
 IDIUse=1 WtCom= 1.00D+00 WtEn= 0.00D+00
 Coeff-Com:  0.223D-02 0.296D+00 0.701D+00
 Coeff:      0.223D-02 0.296D+00 0.701D+00
 Gap=     0.317 Goal=   None    Shift=    0.000
 RMSDP=5.31D-07 MaxDP=1.57D-05 DE=-3.23D-08 OVMax= 1.76D-05

 Cycle   8  Pass 1  IDiag  1:
 E= -439.495676192562     Delta-E=       -0.000000006393 Rises=F Damp=F
 DIIS: error= 1.20D-06 at cycle   4 NSaved=   4.
 NSaved= 4 IEnMin= 4 EnMin= -439.495676192562     IErMin= 4 ErrMin= 1.20D-06
 ErrMax= 1.20D-06  0.00D+00 EMaxC= 1.00D-01 BMatC= 7.20D-10 BMatP= 9.32D-09
 IDIUse=1 WtCom= 1.00D+00 WtEn= 0.00D+00
 Coeff-Com: -0.136D-01 0.144D+00 0.392D+00 0.477D+00
 Coeff:     -0.136D-01 0.144D+00 0.392D+00 0.477D+00
 Gap=     0.317 Goal=   None    Shift=    0.000
 RMSDP=1.53D-07 MaxDP=3.61D-06 DE=-6.39D-09 OVMax= 3.82D-06

 Cycle   9  Pass 1  IDiag  1:
 E= -439.495676193130     Delta-E=       -0.000000000568 Rises=F Damp=F
 DIIS: error= 9.16D-08 at cycle   5 NSaved=   5.
 NSaved= 5 IEnMin= 5 EnMin= -439.495676193130     IErMin= 5 ErrMin= 9.16D-08
 ErrMax= 9.16D-08  0.00D+00 EMaxC= 1.00D-01 BMatC= 5.52D-12 BMatP= 7.20D-10
 IDIUse=1 WtCom= 1.00D+00 WtEn= 0.00D+00
 Coeff-Com: -0.420D-02 0.344D-01 0.980D-01 0.143D+00 0.729D+00
 Coeff:     -0.420D-02 0.344D-01 0.980D-01 0.143D+00 0.729D+00
 Gap=     0.317 Goal=   None    Shift=    0.000
 RMSDP=1.83D-08 MaxDP=4.29D-07 DE=-5.68D-10 OVMax= 5.04D-07

 Cycle  10  Pass 1  IDiag  1:
 E= -439.495676193135     Delta-E=       -0.000000000006 Rises=F Damp=F
 DIIS: error= 5.71D-08 at cycle   6 NSaved=   6.
 NSaved= 6 IEnMin= 6 EnMin= -439.495676193135     IErMin= 6 ErrMin= 5.71D-08
 ErrMax= 5.71D-08  0.00D+00 EMaxC= 1.00D-01 BMatC= 1.25D-12 BMatP= 5.52D-12
 IDIUse=1 WtCom= 1.00D+00 WtEn= 0.00D+00
 Coeff-Com: -0.106D-02 0.625D-02 0.194D-01 0.337D-01 0.353D+00 0.589D+00
 Coeff:     -0.106D-02 0.625D-02 0.194D-01 0.337D-01 0.353D+00 0.589D+00
 Gap=     0.317 Goal=   None    Shift=    0.000
 RMSDP=6.73D-09 MaxDP=1.78D-07 DE=-5.68D-12 OVMax= 1.97D-07

 SCF Done:  E(RB3LYP) =  -439.495676193     A.U. after   10 cycles
            NFock= 10  Conv=0.67D-08     -V/T= 2.0088
 KE= 4.356513816364D+02 PE=-1.934084640017D+03 EE= 6.062721733771D+02
 Leave Link  502 at Thu Sep  8 14:53:38 2022, MaxMem= 24159191040 cpu:        61.1
 (Enter /public/home/users/caep010/software/Gaussian09/g09/l701.exe)
 Compute integral first derivatives.
 ... and contract with generalized density number  0.
 Leave Link  701 at Thu Sep  8 14:53:39 2022, MaxMem= 24159191040 cpu:        11.0
 (Enter /public/home/users/caep010/software/Gaussian09/g09/l702.exe)
 L702 exits ... SP integral derivatives will be done elsewhere.
 Leave Link  702 at Thu Sep  8 14:53:39 2022, MaxMem= 24159191040 cpu:         0.7
 (Enter /public/home/users/caep010/software/Gaussian09/g09/l703.exe)
 Compute integral first derivatives, UseDBF=F ICtDFT=           0.
 Integral derivatives from FoFJK, PRISM(SPDF).
 Calling FoFJK, ICntrl=      2127 FMM=F ISym2X=0 I1Cent= 0 IOpClX= 0 NMat=1 NMatS=1 NMatT=0.
 FoFJK:  IHMeth= 1 ICntrl=    2127 DoSepK=F KAlg= 0 I1Cent=   0 FoldK=F
 IRaf=         0 NMat=   1 IRICut=       1 DoRegI=T DoRafI=F ISym2E= 0.
 FoFCou: FMM=F IPFlag=           0 FMFlag=      100000 FMFlg1=         800
         NFxFlg=           0 DoJE=F BraDBF=F KetDBF=F FulRan=T
         wScrn=  0.000000 ICntrl=    2127 IOpCl=  0 I1Cent=           0 NGrid=           0
         NMat0=    1 NMatS0=      1 NMatT0=    0 NMatD0=    1 NMtDS0=    0 NMtDT0=    0
 Symmetry not used in FoFCou.
 Leave Link  703 at Thu Sep  8 14:53:39 2022, MaxMem= 24159191040 cpu:        19.0
 (Enter /public/home/users/caep010/software/Gaussian09/g09/l716.exe)
 Dipole        = 6.93532429D-01 5.46250849D-01-4.57138997D-02
 ***** Axes restored to original set *****
 -------------------------------------------------------------------
 Center     Atomic                   Forces (Hartrees/Bohr)
 Number     Number              X              Y              Z
 -------------------------------------------------------------------
      1        6          -0.000035520   -0.000063224    0.000431849
      2        6          -0.000055162    0.000295731   -0.000482484
      3        6           0.000063095    0.000097323   -0.000033321
      4        7          -0.000165566   -0.000539213    0.000361882
      5        6          -0.000076812    0.000442041    0.000442239
      6        8          -0.000184232   -0.000220881   -0.000515693
      7        8           0.001302668    0.000027397   -0.001058758
      8        8           0.000323749   -0.000134956    0.000555698
      9        1           0.000017272    0.000065082   -0.000091215
     10        1          -0.000000229    0.000086397    0.000011768
     11        1           0.000019459    0.000085415   -0.000071434
     12        1          -0.000024394   -0.000010249    0.000022551
     13        1           0.000115672   -0.000058917    0.000065967
     14        1           0.000007834   -0.000061504    0.000029796
     15        1          -0.000356485   -0.000338360   -0.000128668
     16        1           0.000127812   -0.000079919    0.000077837
     17        1           0.000126636    0.000055760    0.000248760
     18        1          -0.001049901    0.000288763    0.000321731
     19        1          -0.000155895    0.000063314   -0.000188505
 -------------------------------------------------------------------
 Cartesian Forces:  Max     0.001302668 RMS     0.000344279
 Leave Link  716 at Thu Sep  8 14:53:40 2022, MaxMem= 24159191040 cpu:         0.7
 (Enter /public/home/users/caep010/software/Gaussian09/g09/l103.exe)

 GradGradGradGradGradGradGradGradGradGradGradGradGradGradGradGradGradGrad
 Berny optimization.
 Using GEDIIS/GDIIS optimizer.
 FormGI is forming the generalized inverse of G from B-inverse, IUseBI=4.
 Internal  Forces:  Max     0.000860271 RMS     0.000245314
 Search for a local minimum.
 Step number   2 out of a maximum of  100
 All quantities printed in internal units (Hartrees-Bohrs-Radians)
 RMS Force = .24531D-03 SwitMx=.10000D-02 MixMth= 2
 Mixed Optimization -- En-DIIS/RFO-DIIS
 Swapping is turned off.
 Update second derivatives using D2CorX and points    1    2
 DE= -3.74D-05 DEPred=-8.00D-05 R= 4.67D-01
 Trust test= 4.67D-01 RLast= 9.28D-02 DXMaxT set to 3.00D-01
 ITU=  0  0
     Eigenvalues ---    0.00261   0.00324   0.00505   0.00726   0.01365
     Eigenvalues ---    0.01774   0.02055   0.04195   0.04295   0.04979
     Eigenvalues ---    0.05404   0.05561   0.05571   0.05608   0.06425
     Eigenvalues ---    0.07059   0.07238   0.11356   0.13667   0.15164
     Eigenvalues ---    0.15763   0.16000   0.16000   0.16000   0.16000
     Eigenvalues ---    0.16000   0.16000   0.16000   0.16000   0.16000
[...]
 .00579362,0.00528965,-0.02200320,0.01514002,-0.08647754,0.03268982,-0.
 00704995,-0.01120330,0.03970073,-0.15687829,0.53563484,0.00806211,0.00
 334121,-0.04212716,0.00403061,-0.00137424,-0.17258358,0.00386567,0.009
 57975,-0.01967847,-0.12596030,-0.11855953,0.36093242,-0.01561316,-0.00
 720771,-0.00862940,-0.14477199,0.00124534,0.00622575,-0.01172061,0.013
 62435,-0.00348948,-0.01832516,-0.00437760,0.01310900,0.54880897,-0.023
 46169,0.00239264,0.00007366,0.00324614,-0.06719937,-0.00517350,0.03153
 479,-0.00353123,-0.00215980,-0.00985471,-0.00208791,0.00299142,0.02978
 538,0.47178621,-0.02088381,-0.00058171,0.00276736,-0.00374201,-0.00250
 264,-0.06528518,-0.00795512,0.00124489,0.00271073,0.03327609,-0.005250
 90,-0.01950614,-0.02784265,0.03456759,0.57189692,-0.00045192,0.0003062
 9,-0.00024887,-0.00945337,-0.00870156,0.03550122,-0.00118520,-0.000217
 33,0.00029864,-0.00779099,0.00236229,0.00243397,-0.12695115,-0.0222869
 8,0.05918594,0.59095518,-0.00020887,0.00000523,-0.00022883,-0.00182935
 ,0.00076243,0.00491380,0.00102581,-0.00060714,0.00091515,-0.00096567,0
 .00170617,0.00065583,-0.01725561,-0.08825157,0.04336473,0.14117241,0.1
 3302965,0.00070639,0.00009548,-0.00081582,0.00779718,0.00376339,-0.010
 39933,-0.00053101,0.00076747,-0.00109389,0.00336409,0.00012865,0.00121
 156,0.01192836,0.02101251,-0.18846035,-0.00642876,-0.05861243,0.343783
 55,-0.00763880,0.00275133,0.00274350,-0.02106274,-0.02758570,-0.027188
 68,-0.00026151,-0.00052877,-0.00008520,-0.00910778,-0.00396850,0.00143
 116,-0.13995483,-0.04744432,-0.02028597,0.01372690,0.00808410,0.014392
 29,0.34050815,-0.00189991,0.00130361,0.00076085,-0.00802912,-0.0057442
 8,-0.00805959,0.00035126,-0.00239789,-0.00077527,-0.00333658,0.0036874
 1,-0.00044897,-0.06239653,-0.13120826,-0.04051532,0.00277318,0.0112883
 1,-0.00691720,0.11082858,0.21134233,-0.00321714,0.00063864,0.00215537,
 -0.00911237,-0.01061271,-0.01172772,-0.00015670,-0.00145245,0.00033652
 ,0.01173662,0.00350842,0.00152131,-0.04971479,-0.06213083,-0.15285384,
 -0.01404306,-0.02854538,-0.06566566,-0.15375696,0.09396558,0.50805190,
 -0.00032759,-0.00074599,0.00092703,-0.01157693,0.03633893,-0.00873116,
 -0.00712029,-0.00223822,0.00218493,0.00015560,0.00068881,0.00107821,-0
 .09889632,0.03611656,-0.02009160,0.01710367,-0.00975109,0.00214016,0.0
 1494661,-0.01191106,-0.00058795,0.10222836,-0.00105869,-0.00305261,-0.
 00035259,0.00872422,-0.02354144,0.00709855,0.00459241,0.00219576,-0.00
 085794,0.00128380,0.00153004,0.00062953,0.05135692,-0.14063625,0.03584
 200,0.00217189,-0.03117035,0.03903412,0.00217607,-0.05507537,-0.023865
 79,-0.05117694,0.41217747,0.00052155,0.00052246,0.00046705,-0.00149142
 ,0.00495173,0.00246055,-0.00036223,-0.00026581,0.00053338,0.00174444,-
 0.00007734,0.00089288,-0.00692439,-0.00779128,-0.09681100,-0.00781162,
 0.05253930,-0.02940971,0.00349600,-0.04232058,0.00291521,0.07274219,0.
 17606961,0.49342186,-0.06828138,-0.00999466,0.07024801,0.00435945,0.00
 428957,-0.01289025,0.00000071,0.00034208,0.00031730,-0.00015225,-0.002
 30461,-0.00387177,0.00076544,0.00068651,-0.00140534,-0.00106792,-0.000
 35743,0.00030729,0.00012319,0.00021608,0.00063880,-0.00040444,-0.00020
 328,0.00042291,0.06948266,-0.01024552,-0.05594766,0.03735458,0.0092074
 7,0.00511150,-0.01851843,0.00048467,0.00083414,-0.00023416,-0.00259215
 ,-0.00248794,-0.00575488,0.00009628,0.00096887,-0.00031144,-0.00047547
 ,-0.00032807,0.00013834,0.00015746,-0.00010910,0.00048675,0.00025799,0
 .00010329,0.00010911,0.01194015,0.05582467,0.06820516,0.03580103,-0.28
 846294,0.00632801,0.00547072,-0.01645029,0.00022832,0.00097461,0.00025
 966,-0.00285693,-0.00420259,-0.00431322,0.00120350,0.00005578,-0.00232
 702,0.00062517,0.00037029,0.00108147,-0.00048170,0.00014402,0.00103560
 ,-0.00064340,-0.00015115,0.00049377,-0.07535394,-0.03901637,0.31372559
 ,-0.06514784,0.06376572,-0.01883900,0.00329291,-0.01327029,0.00534584,
 -0.00135465,-0.00135619,-0.00153158,-0.00026952,0.00036340,0.00108342,
 0.00098314,-0.00196621,0.00065398,-0.00015116,0.00037595,-0.00033380,0
 .00000448,0.00061455,0.00023667,-0.00104748,0.00098632,-0.00035088,0.0
 0212513,-0.00966705,0.00206320,0.06943431,0.06305863,-0.27167611,0.067
 77600,0.00583895,-0.02116306,0.00821824,-0.00352098,-0.00212256,-0.004
 17109,0.00012955,0.00225624,0.00114497,0.00276184,-0.00374560,0.000717
 04,-0.00042034,0.00078296,-0.00040001,-0.00054384,0.00084122,0.0000199
 7,0.00201904,0.00318996,0.00003525,0.00071877,-0.00267737,0.00056019,-
 0.06949778,0.29672855,-0.01843108,0.06979296,-0.07012838,0.00638317,-0
 .01840721,0.00430296,-0.00208039,-0.00242618,-0.00237956,0.00064082,-0
 .00014570,0.00257228,0.00029052,0.00052150,0.00030542,0.00017866,0.000
 00609,-0.00002817,0.00022714,0.00009637,-0.00005299,-0.00034707,0.0000
 0954,-0.00027363,-0.00985941,0.02852607,-0.00658456,0.02226365,-0.0737
 8040,0.07214606,-0.30886281,0.02192519,0.01683174,-0.01599723,0.001273
 71,0.00192674,0.00032206,0.00123380,0.00040800,0.00213120,0.00055943,0
 .00034777,0.00212508,-0.00130760,-0.00139131,-0.00019424,-0.00017226,0
 .00010830,-0.00119892,-0.00070187,-0.00094053,-0.00020365,-0.00016640,
 0.00013315,-0.00736742,0.00083173,0.00003394,-0.00716813,0.00038661,0.
 00074390,0.33519498,0.02262064,-0.04831908,-0.00123499,-0.02540097,0.0
 0052791,0.00170668,-0.00116727,0.00120321,0.00031969,0.00097468,0.0003
 9142,0.00179214,0.00175862,-0.00491618,-0.00270784,-0.00023964,0.00035
 035,0.00001444,-0.00227131,-0.00024059,-0.00082675,0.00093851,0.001608
 98,0.00021137,-0.00513100,-0.00056736,0.00011871,0.03052969,-0.0015031
 2,-0.00297873,-0.02284057,0.05161907,0.01757509,-0.00083125,-0.0481130
 1,-0.02152551,0.00137329,-0.00033912,0.00007951,0.00108507,0.00032510,
 0.00060437,0.00110253,0.00238581,0.00081619,-0.00238078,-0.00335115,0.
 00023069,0.00020628,0.00072752,-0.00171948,-0.00049888,-0.00064693,-0.
 00042446,-0.00035361,0.00025138,0.03143966,-0.00348819,-0.00012018,-0.
 00993726,0.00036174,-0.00025811,-0.01723300,0.00353344,0.04931527,0.00
 003040,-0.00027270,0.00011996,0.00150078,0.00053304,-0.01049840,-0.060
 24903,-0.01304257,0.05893967,-0.00104749,0.00262819,-0.00090981,0.0009
 8061,0.00026297,-0.00215925,-0.00132964,0.00018961,0.00076937,-0.00053
 754,0.00014702,0.00053548,-0.00003807,-0.00055560,0.00055600,0.0003676
 0,-0.00013716,0.00003591,-0.00012047,0.00001361,-0.00011779,-0.0000665
 2,-0.00003857,0.00020432,0.06135809,-0.00033134,0.00099526,0.00057910,
 -0.00841829,-0.00318327,0.02848917,-0.01187152,-0.05936817,0.04936011,
 0.00290190,-0.00638210,0.00181700,-0.00099224,0.00037295,0.00137197,0.
 00017487,-0.00010204,-0.00050602,0.00025565,0.00015047,-0.00041658,-0.
 00001465,0.00027286,-0.00039676,-0.00008974,-0.00082798,-0.00065420,0.
 00018130,0.00040502,-0.00019146,-0.00002308,-0.00008638,-0.00006866,0.
 01220172,0.06338876,0.00004234,-0.00073243,0.00012059,0.00075406,-0.00
 020955,-0.00735604,0.05641493,0.05271532,-0.29860443,-0.00104121,0.002
 44896,0.00057537,0.00131993,0.00076058,-0.00205693,0.00119306,-0.00149
 875,0.00097545,-0.00061867,0.00021198,0.00055624,-0.00041990,-0.000195
 03,0.00037290,0.00002808,-0.00003663,0.00062705,-0.00012791,0.00001108
 ,0.00024473,-0.00004256,0.00007926,-0.00000709,-0.06317936,-0.05720613
 ,0.32185546,-0.00075053,0.00181084,-0.00061533,0.00479634,0.00745865,0
 .00749979,-0.10278463,-0.08417594,-0.07124525,-0.00012294,-0.00035458,
 0.00026985,0.00075927,0.00142264,0.00152454,-0.00012103,-0.00041084,-0
 .00037026,-0.00152440,-0.00014273,-0.00060236,0.00007040,-0.00063744,-
 0.00022576,-0.00009574,-0.00009816,-0.00018861,0.00073623,0.00063140,0
 .00020575,0.00038132,0.00022791,-0.00000646,0.00357358,0.00647515,0.00
 476213,0.10805031,0.00313233,-0.00523547,0.00304036,-0.01391023,-0.021
 19358,-0.01939518,-0.08138051,-0.17253308,-0.10606945,-0.00029798,0.00
 278713,-0.00062603,-0.00234400,-0.00201572,-0.00215443,0.00032223,0.00
 057693,0.00041116,-0.00041997,0.00261271,0.00084131,0.00031180,0.00074
 790,0.00031761,0.00011499,0.00020222,-0.00001010,-0.00081192,-0.001559
 57,-0.00125712,0.00005360,0.00027942,0.00025251,0.00408275,0.00558348,
 0.00424586,0.08922503,0.18861806,-0.00026587,0.00119157,0.00008257,0.0
 0508160,0.00551266,0.00364926,-0.07019415,-0.10869989,-0.14175711,0.00
 030602,0.00009991,0.00107810,-0.00083816,-0.00124351,0.00004911,0.0002
 2492,0.00053311,-0.00001240,-0.00073604,0.00114071,-0.00035521,0.00030
 685,0.00011273,-0.00008438,-0.00006136,0.00027495,0.00028210,-0.000079
 31,0.00028228,0.00061920,-0.00013314,0.00005868,-0.00014601,-0.0148231
 7,-0.02124918,-0.01585928,0.07887128,0.11711834,0.14944091,0.00025191,
 -0.00095840,-0.00028380,-0.01181534,-0.00039339,0.00172961,-0.30259786
 ,0.01443494,0.03208443,0.00113769,-0.00078006,0.00029142,0.00206118,0.
 00049524,-0.00016976,-0.00033308,0.00041617,-0.00010552,-0.00032324,0.
 00054631,-0.00023856,-0.00071928,0.00124628,-0.00024130,0.00001837,-0.
 00005040,-0.00010083,0.00034605,0.00005068,-0.00010236,0.00084129,0.00
 051740,0.00034262,-0.00578053,0.00007866,0.00011679,-0.01271699,0.0013
 4524,0.00262623,0.32915866,0.00113054,0.00156850,0.00029881,0.03308071
 ,-0.00316094,-0.00395228,0.01330717,-0.04870296,-0.00192097,-0.0002018
 5,0.00155900,-0.00195674,-0.00277902,-0.00584785,0.00117283,0.00007248
 ,0.00072108,-0.00015119,-0.00015865,0.00140174,0.00033219,0.00263158,-
 0.00148340,0.00020312,-0.00002632,-0.00009248,-0.00003232,-0.00027113,
 0.00036186,0.00019232,-0.00064730,-0.00046350,-0.00015499,-0.00673583,
 -0.00062239,-0.00025709,-0.02163261,0.00208356,0.00491280,-0.01750575,
 0.05266039,0.00055514,-0.00046271,-0.00023471,-0.00863329,0.00101105,-
 0.00086109,0.03175058,-0.00242330,-0.05236388,-0.00088243,-0.00026306,
 0.00097617,0.00032690,0.00133499,-0.00200036,0.00068968,-0.00081853,0.
 00068117,-0.00049649,0.00077479,0.00028689,-0.00070179,0.00024986,0.00
 028918,0.00014151,-0.00003055,0.00001267,-0.00016438,-0.00000520,-0.00
 013255,-0.00001051,-0.00026917,0.00024956,0.03130306,-0.00245215,-0.00
 146601,-0.01914334,0.00263012,0.00287230,-0.03498607,0.00078760,0.0514
 1465,-0.00052473,0.00052367,0.00103025,0.00125221,-0.00690964,-0.00369
 840,-0.00064963,-0.00018936,0.00137345,-0.05562422,0.05549756,0.006792
 19,0.00188704,-0.00575276,0.00268026,-0.00041908,0.00117555,-0.0009681
 8,-0.00203797,0.00138896,0.00008563,-0.00057740,0.00196454,-0.00152500
 ,0.00009320,-0.00000271,0.00050352,0.00054309,-0.00009325,-0.00027213,
 -0.00028819,0.00020083,-0.00033117,0.00084940,-0.00034026,0.00046051,-
 0.00001259,0.00033885,-0.00001226,0.00032555,-0.00011784,0.00008258,0.
 06085350,-0.00007147,0.00227301,-0.00156698,-0.00144849,-0.00738069,-0
 .00327498,-0.00113503,0.00107483,0.00218676,0.09156104,-0.39112244,0.0
 9710736,0.00029825,-0.00097615,0.00177489,-0.00012271,0.00004543,-0.00
 023564,-0.00085562,0.00044547,-0.00044430,0.00048777,-0.00058378,-0.00
 129884,-0.00017387,-0.00019519,-0.00033833,0.00031826,0.00018145,0.000
 18318,0.00002277,-0.00005794,0.00009970,0.00045335,-0.00023528,0.00018
 698,0.00006280,0.00038287,-0.00016366,0.00006652,0.00012114,-0.0002239
 0,-0.08429118,0.40446043,-0.00109637,0.00150021,0.00203560,-0.00844392
 ,0.03860306,-0.01059479,0.00255911,0.00001138,-0.00738395,0.00472879,0
 .06391926,-0.05754981,0.00006654,0.00349062,-0.00001253,-0.00006506,-0
 .00076741,0.00026221,-0.00079749,-0.00022373,-0.00043620,-0.00132034,-
 0.00187085,0.00062009,0.00046136,-0.00007082,0.00075758,-0.00014719,-0
 .00154057,-0.00073726,-0.00006102,-0.00020959,-0.00013980,-0.00063711,
 0.00219039,-0.00026112,0.00022743,-0.00002070,0.00014861,-0.00010856,-
 0.00034568,0.00008526,0.00346798,-0.09383442,0.07210839,0.00143181,0.0
 0035612,-0.00100759,-0.00805982,-0.00158380,-0.00466569,0.00140866,0.0
 0000761,-0.00099215,-0.40056842,0.09127832,0.08975999,0.00079677,-0.00
 097588,0.00081966,-0.00070685,-0.00023711,0.00053659,-0.00054222,-0.00
 019902,0.00118612,0.00014641,0.00016901,-0.00002775,-0.00016185,-0.000
 21208,-0.00028952,-0.00004165,0.00001612,0.00004783,0.00009237,0.00038
 913,0.00024630,0.00009684,0.00020268,-0.00016750,-0.00027094,-0.000207
 80,0.00017434,0.00025243,-0.00055232,0.00023403,-0.00775872,-0.0057055
 6,-0.00025251,0.41292191,0.00092550,-0.00039696,0.00017916,-0.00702495
 ,-0.00016517,-0.00269086,-0.00186625,0.00067526,0.00041381,0.05369426,
 -0.05021837,0.00967620,-0.00028339,-0.00265478,0.00130557,-0.00137697,
 -0.00012308,0.00071512,-0.00201591,-0.00044786,0.00228844,0.00061325,0
 .00083235,-0.00095913,-0.00033673,0.00004162,0.00016545,0.00019296,-0.
 00013430,-0.00012968,-0.00019169,0.00030905,-0.00033367,0.00027910,-0.
 00022361,-0.00038031,-0.00046077,-0.00037338,0.00005786,0.00091727,0.0
 0013908,0.00048689,0.03868753,-0.00679090,-0.00967714,-0.08420577,0.05
 750952,0.00094608,0.00001352,0.00102296,0.03935113,-0.00733493,-0.0105
 6040,0.00110001,-0.00084610,0.00173059,0.05851449,0.00762902,-0.052258
 57,-0.00296461,0.00068192,-0.00793174,0.00234941,0.00042548,-0.0000018
 5,-0.00176545,-0.00059447,0.00229839,-0.00020348,-0.00016171,0.0008130
 9,-0.00046368,0.00027382,0.00023538,-0.00009700,-0.00002966,-0.0000785
 6,-0.00086170,-0.00031862,-0.00041537,-0.00038864,-0.00049585,0.000120
 97,-0.00028874,-0.00000876,0.00000897,-0.00115742,0.00082128,-0.000079
 76,-0.01012124,-0.00057410,0.00095320,-0.08631110,-0.00157989,0.065019
 75,0.00041524,0.00015784,0.00003969,0.00150264,-0.00114448,0.00268549,
 0.00030111,-0.00030657,0.00004146,-0.00032884,0.00032249,-0.00004864,-
 0.02165570,-0.00460800,0.00353448,-0.46826669,-0.11961848,-0.02366890,
 0.00290584,0.00064288,-0.00426611,0.00080786,0.00196794,-0.00307940,-0
 .00003575,0.00000900,-0.00005590,-0.00008907,-0.00008277,0.00004006,0.
 00007708,0.00001216,-0.00007089,-0.00010911,-0.00006330,-0.00008635,-0
 .00012218,0.00017265,0.00016008,0.00014492,0.00007603,-0.00006745,-0.0
 0013661,-0.00001728,0.00005909,0.00018865,-0.00007694,0.00035410,0.485
 41114,0.00006147,0.00010882,-0.00007893,0.00079732,0.00065340,0.000080
 83,0.00017827,0.00018650,0.00007762,0.00012678,0.00001448,-0.00044286,
 -0.01516806,0.00030591,0.00107832,-0.11245688,-0.03574610,0.00276785,0
 .00115013,-0.00103496,0.00040613,0.00353048,-0.00006035,-0.00120235,-0
 .00002656,-0.00005211,0.00013654,-0.00005129,-0.00016675,-0.00001569,0
 .00006428,-0.00005040,0.00009682,-0.00007177,0.00033109,-0.00013141,0.
 00010192,-0.00014010,-0.00023214,-0.00006151,-0.00013284,-0.00013657,-
 0.00019150,-0.00001749,0.00011123,0.00011007,0.00005886,-0.00006293,0.
 12355824,0.03721334,-0.00049691,-0.00012433,-0.00035377,-0.00084091,0.
 00124263,-0.00564324,-0.00029646,0.00036962,-0.00003981,0.00129967,-0.
 00066544,-0.00072328,0.05279336,0.01471218,-0.00403159,-0.07419556,-0.
 01175252,-0.04622686,-0.00231410,-0.00017510,0.00438444,-0.00198093,-0
 .00103615,-0.00006245,0.00027540,0.00020212,0.00043101,0.00004125,0.00
 000979,0.00009017,-0.00005800,-0.00005114,0.00018143,0.00014809,-0.000
 29738,0.00010215,0.00014081,-0.00020767,0.00003858,-0.00005435,-0.0000
 6385,0.00003385,0.00009024,0.00003958,-0.00001634,0.00017151,0.0002261
 6,-0.00060451,0.02502435,-0.00255641,0.05293623,-0.00079114,-0.0003115
 5,0.00160351,-0.00150230,-0.00134840,-0.00919444,-0.00121895,-0.000118
 90,0.00058371,0.00253031,0.00146368,-0.00110169,0.01788542,0.00635297,
 -0.00625478,-0.00167357,-0.00342718,-0.00999275,-0.18884943,-0.0280172
 8,0.22255299,-0.00184251,-0.00293409,-0.00109771,0.00030335,0.00041211
 ,0.00089008,0.00015318,0.00006146,-0.00011756,-0.00018208,-0.00012993,
 -0.00033376,0.00043834,-0.00032922,0.00052662,0.00007696,0.00052624,-0
 .00058738,-0.00019621,0.00022827,-0.00005063,0.00176474,0.00013798,0.0
 0090290,0.00083565,0.00235723,0.00194766,-0.00114389,0.00018741,0.0006
 4112,0.17304762,-0.00031883,-0.00033657,0.00067677,-0.00071803,0.00090
 330,-0.00385259,0.00041882,0.00103646,0.00101711,0.00439224,-0.0050737
 8,-0.00011521,0.01605346,0.00205093,-0.02877218,-0.00210623,-0.0001482
 2,-0.00127704,-0.04103849,-0.02598763,0.02611292,-0.00095214,-0.003460
 12,0.00059373,0.00006194,0.00020809,0.00032094,-0.00006093,-0.00018425
 ,-0.00011098,-0.00008248,-0.00005190,-0.00013107,-0.00011855,-0.000380
 31,-0.00011093,0.00060579,-0.00091882,0.00029651,-0.00024487,-0.000269
 04,-0.00025453,-0.00233240,-0.00187912,-0.00110813,0.00148877,0.001900
 59,0.00204710,-0.00022355,-0.00043358,0.00009551,0.02550911,0.03353161
 ,0.00150876,0.00013360,-0.00157818,-0.00219623,-0.00124613,0.00063380,
 -0.00001381,0.00011892,-0.00083509,-0.00064058,-0.00006037,-0.00338611
 ,0.01587690,-0.00573277,-0.03842117,-0.00080543,-0.00341330,-0.0044110
 5,0.18670387,0.00105658,-0.29484051,0.00012900,0.00261217,0.00126241,-
 0.00010583,-0.00022656,-0.00031636,-0.00003932,0.00017058,0.00010888,0
 .00031902,0.00043630,0.00048126,0.00012942,0.00008379,0.00010558,-0.00
 080831,0.00082900,-0.00006844,0.00041943,-0.00005475,0.00029368,0.0005
 1046,0.00069064,0.00048521,0.00047443,0.00023902,-0.00034884,-0.000853
 83,-0.00027632,-0.00064548,-0.20053412,0.00410560,0.34148985,-0.000700
 09,0.00181249,-0.00093021,-0.00018222,0.00203168,0.00050247,-0.0004786
 9,-0.00029982,-0.00049922,-0.00078370,-0.00038422,-0.00066315,0.000836
 01,0.00775495,0.01050667,-0.00168987,0.00179427,0.00034915,0.00082421,
 -0.00087472,-0.00033575,-0.01270495,-0.01990696,-0.05647878,-0.0000723
 8,0.00008383,-0.00014598,-0.00222856,-0.00152770,0.00030630,0.00036381
 ,-0.00095031,0.00004326,0.00008276,0.00000170,0.00006501,0.00007757,-0
 .00025328,-0.00002047,-0.00005551,0.00010183,0.00005289,0.00046041,0.0
 0041248,0.00045638,-0.00006101,0.00017228,0.00006019,0.00013335,-0.001
 83878,-0.00038858,0.00036450,-0.00033363,-0.00007385,0.01581438,-0.000
 12723,0.00080149,-0.00022063,0.00120600,-0.00019493,0.00025687,-0.0003
 0084,-0.00016839,-0.00007416,-0.00067724,0.00019700,0.00054307,-0.0041
 7629,-0.02480664,-0.03964337,-0.00095152,0.00720803,-0.00074898,0.0014
 2776,-0.01082735,-0.00030557,-0.00714463,-0.16359496,-0.18124120,0.000
 27414,-0.00000915,0.00028679,-0.00037535,0.00018543,0.00011512,-0.0002
 1785,-0.00003297,0.00012972,0.00018137,-0.00008837,0.00009822,-0.00010
 905,0.00009545,-0.00000371,-0.00012032,0.00015907,0.00006437,0.0004434
 0,0.00025434,-0.00015711,-0.00013852,0.00006209,0.00011488,-0.00077785
 ,-0.00103774,0.00003239,-0.00061989,-0.00050767,0.00053399,0.01220391,
 0.19230525,-0.00073806,-0.00083915,0.00062042,0.00000216,0.00091346,-0
 .00042579,-0.00042288,-0.00004913,0.00014479,0.00037311,0.00000081,-0.
 00001955,-0.00355347,0.00640973,0.00531947,0.00068699,0.00170710,-0.00
 219785,0.00125229,0.00237822,0.00303719,-0.04405628,-0.23281328,-0.378
 15257,-0.00026873,0.00032229,-0.00036731,-0.00004037,0.00061981,0.0002
 6408,-0.00012079,0.00032611,-0.00038054,-0.00002774,0.00004283,-0.0000
 4557,-0.00000715,0.00006317,0.00001313,-0.00006199,0.00016892,-0.00005
 702,-0.00014869,-0.00031395,-0.00032434,0.00006302,-0.00000298,0.00007
 630,0.00025867,0.00038027,0.00014946,-0.00038376,0.00046646,-0.0000094
 3,0.04719369,0.22021932,0.37235514\\0.00000607,0.00000779,0.00000618,-
 0.00000311,-0.00000464,-0.00001540,0.00000029,0.00000390,-0.00000345,-
 0.00000952,-0.00000392,0.00000695,0.00002370,0.00001293,0.00004895,-0.
 00000027,0.00000119,-0.00002056,-0.00000907,-0.00003873,-0.00000952,0.
 00000364,0.00001045,-0.00000886,0.00000067,0.00000383,-0.00000381,0.00
 000046,-0.00000129,-0.00000437,-0.00000007,0.00000246,-0.00000562,0.00
 000304,0.00000495,0.00000166,0.00000207,0.00000156,0.00000214,0.000001
 81,0.00000173,0.00000107,-0.00000122,-0.00000339,0.00000352,-0.0000046
 5,-0.00000021,-0.00000130,0.00000551,0.00000416,0.00000258,-0.00001034
 ,0.00000663,0.00000295,-0.00000902,-0.00000938,-0.00000311\\\@


 IT IS UNWORTHY OF EXCELLENT MEN TO LOSE HOURS LIKE SLAVES IN THE LABOR
 OF CALCULATION WHICH COULD BE SAFELY RELEGATED TO ANYONE ELSE
 IF A MACHINE WERE USED.
    -- G.W. VON LEIBNIZ
 Job cpu time:       0 days  0 hours 10 minutes 43.0 seconds.
 File lengths (MBytes):  RWF=     68 Int=      0 D2E=      0 Chk=      4 Scr=      1
 Normal termination of Gaussian 09 at Thu Sep  8 14:54:46 2022.
