 Entering Gaussian System, Link 0=g09
 Input=B3LYP6-31Gdp.Frag_980.gjf
 Output=B3LYP6-31Gdp.Frag_980.log
 Initial command:
 /public/home/users/caep010/software/Gaussian09/g09/l1.exe "/public/home/users/caep010/.cache/gau_scr/Gau-153800.inp" -scrdir="/public/home/users/caep010/.cache/gau_scr/"
 Entering Link 1 = /public/home/users/caep010/software/Gaussian09/g09/l1.exe PID=    153801.
  
 Copyright (c) 1988,1990,1992,1993,1995,1998,2003,2009,2015,
            Gaussian, Inc.  All Rights Reserved.
  
 This is part of the Gaussian(R) 09 program.  It is based on
 the Gaussian(R) 03 system (copyright 2003, Gaussian, Inc.),
 the Gaussian(R) 98 system (copyright 1998, Gaussian, Inc.),
 the Gaussian(R) 94 system (copyright 1995, Gaussian, Inc.),
 the Gaussian 92(TM) system (copyright 1992, Gaussian, Inc.),
 the Gaussian 90(TM) system (copyright 1990, Gaussian, Inc.),
 the Gaussian 88(TM) system (copyright 1988, Gaussian, Inc.),
 the Gaussian 86(TM) system (copyright 1986, Carnegie Mellon
 University), and the Gaussian 82(TM) system (copyright 1983,
 Carnegie Mellon University). Gaussian is a federally registered
 trademark of Gaussian, Inc.
  
 This software contains proprietary and confidential information,
 including trade secrets, belonging to Gaussian, Inc.
  
 This software is provided under written license and may be
 used, copied, transmitted, or stored only in accord with that
 written license.
  
 The following legend is applicable only to US Government
 contracts under FAR:
  
                    RESTRICTED RIGHTS LEGEND
  
 Use, reproduction and disclosure by the US Government is
 subject to restrictions as set forth in subparagraphs (a)
 and (c) of the Commercial Computer Software - Restricted
 Rights clause in FAR 52.227-19.
  
 Gaussian, Inc.
 340 Quinnipiac St., Bldg. 40, Wallingford CT 06492
  
  
 ---------------------------------------------------------------
 Warning -- This program may not be used in any manner that
 competes with the business of Gaussian, Inc. or will provide
 assistance to any competitor of Gaussian, Inc.  The licensee
 of this program is prohibited from giving any competitor of
 Gaussian, Inc. access to this program.  By using this program,
 the user acknowledges that Gaussian, Inc. is engaged in the
 business of creating and licensing software in the field of
 computational chemistry and represents and warrants to the
 licensee that it is not a competitor of Gaussian, Inc. and that
 it will not use this program in any manner prohibited above.
 ---------------------------------------------------------------
  

 Cite this work as:
 Gaussian 09, Revision E.01,
 M. J. Frisch, G. W. Trucks, H. B. Schlegel, G. E. Scuseria, 
 M. A. Robb, J. R. Cheeseman, G. Scalmani, V. Barone, B. Mennucci, 
 G. A. Petersson, H. Nakatsuji, M. Caricato, X. Li, H. P. Hratchian, 
 A. F. Izmaylov, J. Bloino, G. Zheng, J. L. Sonnenberg, M. Hada, 
 M. Ehara, K. Toyota, R. Fukuda, J. Hasegawa, M. Ishida, T. Nakajima, 
 Y. Honda, O. Kitao, H. Nakai, T. Vreven, J. A. Montgomery, Jr., 
 J. E. Peralta, F. Ogliaro, M. Bearpark, J. J. Heyd, E. Brothers, 
 K. N. Kudin, V. N. Staroverov, T. Keith, R. Kobayashi, J. Normand, 
 K. Raghavachari, A. Rendell, J. C. Burant, S. S. Iyengar, J. Tomasi, 
 M. Cossi, N. Rega, J. M. Millam, M. Klene, J. E. Knox, J. B. Cross, 
 V. Bakken, C. Adamo, J. Jaramillo, R. Gomperts, R. E. Stratmann, 
 O. Yazyev, A. J. Austin, R. Cammi, C. Pomelli, J. W. Ochterski, 
 R. L. Martin, K. Morokuma, V. G. Zakrzewski, G. A. Voth, 
 P. Salvador, J. J. Dannenberg, S. Dapprich, A. D. Daniels, 
 O. Farkas, J. B. Foresman, J. V. Ortiz, J. Cioslowski, 
 and D. J. Fox, Gaussian, Inc., Wallingford CT, 2013.
 
 ******************************************
 Gaussian 09:  ES64L-G09RevE.01 30-Nov-2015
                 8-Sep-2022 
 ******************************************
 %nproc=32
 Will use up to   32 processors via shared memory.
 %mem=180GB
 %chk=B3LYP6-31Gdp.Frag_980.chk
 ----------------------------
 #P OPT Freq B3LYP/6-31G(d,p)
 ----------------------------
 1/14=-1,18=20,19=15,26=3,38=1/1,3;
 2/9=110,12=2,17=6,18=5,40=1/2;
 3/5=1,6=6,7=101,11=2,16=1,25=1,30=1,71=1,74=-5/1,2,3;
 4//1;
 5/5=2,38=5/2;
 6/7=2,8=2,9=2,10=2,28=1/1;
 7//1,2,3,16;
 1/14=-1,18=20,19=15,26=3/3(2);
 2/9=110/2;
 99//99;
 2/9=110/2;
 3/5=1,6=6,7=101,11=2,16=1,25=1,30=1,71=1,74=-5/1,2,3;
 4/5=5,16=3,69=1/1;
 5/5=2,38=5/2;
 7//1,2,3,16;
 1/14=-1,18=20,19=15,26=3/3(-5);
 2/9=110/2;
 6/7=2,8=2,9=2,10=2,19=2,28=1/1;
 99/9=1/99;
 Leave Link    1 at Thu Sep  8 15:15:00 2022, MaxMem= 24159191040 cpu:         3.2
 (Enter /public/home/users/caep010/software/Gaussian09/g09/l101.exe)
 --------
 Frag_980
 --------
 Symbolic Z-matrix:
 Charge =  0 Multiplicity = 1
 N                     1.90826  -0.19015   0.18525 
 C                     0.57823   0.08634  -0.04824 
 O                     0.23838   0.85536  -0.98896 
 N                    -0.29679  -0.54769   0.76223 
 N                    -1.58355  -0.12756   0.22791 
 H                     2.1166   -0.56359   1.09881 
 H                     2.53922   0.52325  -0.14326 
 H                    -2.13253   0.36159   0.93428 
 H                    -1.24477   0.52762  -0.57921 
 H                    -2.12295  -0.92518  -0.10922 
 
 NAtoms=     10 NQM=       10 NQMF=       0 NMMI=      0 NMMIF=      0
                NMic=       0 NMicF=      0.
                    Isotopes and Nuclear Properties:
 (Nuclear quadrupole moments (NQMom) in fm**2, nuclear magnetic moments (NMagM)
  in nuclear magnetons)

  Atom         1           2           3           4           5           6           7           8           9          10
 IAtWgt=          14          12          16          14          14           1           1           1           1           1
 AtmWgt=  14.0030740  12.0000000  15.9949146  14.0030740  14.0030740   1.0078250   1.0078250   1.0078250   1.0078250   1.0078250
 NucSpn=           2           0           0           2           2           1           1           1           1           1
 AtZEff=   0.0000000   0.0000000   0.0000000   0.0000000   0.0000000   0.0000000   0.0000000   0.0000000   0.0000000   0.0000000
 NQMom=    2.0440000   0.0000000   0.0000000   2.0440000   2.0440000   0.0000000   0.0000000   0.0000000   0.0000000   0.0000000
 NMagM=    0.4037610   0.0000000   0.0000000   0.4037610   0.4037610   2.7928460   2.7928460   2.7928460   2.7928460   2.7928460
 AtZNuc=   7.0000000   6.0000000   8.0000000   7.0000000   7.0000000   1.0000000   1.0000000   1.0000000   1.0000000   1.0000000
 Leave Link  101 at Thu Sep  8 15:15:01 2022, MaxMem= 24159191040 cpu:        11.0
 (Enter /public/home/users/caep010/software/Gaussian09/g09/l103.exe)

 GradGradGradGradGradGradGradGradGradGradGradGradGradGradGradGradGradGrad
 Berny optimization.
 Initialization pass.
                           ----------------------------
                           !    Initial Parameters    !
                           ! (Angstroms and Degrees)  !
 --------------------------                            --------------------------
 ! Name  Definition              Value          Derivative Info.                !
 --------------------------------------------------------------------------------
 ! R1    R(1,2)                  1.3784         estimate D2E/DX2                !
 ! R2    R(1,6)                  1.0087         estimate D2E/DX2                !
 ! R3    R(1,7)                  1.0074         estimate D2E/DX2                !
 ! R4    R(2,3)                  1.2617         estimate D2E/DX2                !
 ! R5    R(2,4)                  1.3507         estimate D2E/DX2                !
 ! R6    R(4,5)                  1.4553         estimate D2E/DX2                !
 ! R7    R(5,8)                  1.0196         estimate D2E/DX2                !
 ! R8    R(5,9)                  1.0934         estimate D2E/DX2                !
 ! R9    R(5,10)                 1.0202         estimate D2E/DX2                !
 ! A1    A(2,1,6)              115.2759         estimate D2E/DX2                !
 ! A2    A(2,1,7)              114.0195         estimate D2E/DX2                !
 ! A3    A(6,1,7)              115.3489         estimate D2E/DX2                !
 ! A4    A(1,2,3)              120.5622         estimate D2E/DX2                !
 ! A5    A(1,2,4)              115.4227         estimate D2E/DX2                !
 ! A6    A(3,2,4)              123.9855         estimate D2E/DX2                !
 ! A7    A(2,4,5)              102.532          estimate D2E/DX2                !
 ! A8    A(4,5,8)              111.1135         estimate D2E/DX2                !
 ! A9    A(4,5,9)               99.7915         estimate D2E/DX2                !
 ! A10   A(4,5,10)             111.2922         estimate D2E/DX2                !
 ! A11   A(8,5,9)              113.0023         estimate D2E/DX2                !
 ! A12   A(8,5,10)             108.6221         estimate D2E/DX2                !
 ! A13   A(9,5,10)             112.8535         estimate D2E/DX2                !
 ! D1    D(6,1,2,3)            161.7503         estimate D2E/DX2                !
 ! D2    D(6,1,2,4)            -20.1517         estimate D2E/DX2                !
 ! D3    D(7,1,2,3)             24.9674         estimate D2E/DX2                !
 ! D4    D(7,1,2,4)           -156.9346         estimate D2E/DX2                !
 ! D5    D(1,2,4,5)           -176.6645         estimate D2E/DX2                !
 ! D6    D(3,2,4,5)              1.3603         estimate D2E/DX2                !
 ! D7    D(2,4,5,8)           -120.4232         estimate D2E/DX2                !
 ! D8    D(2,4,5,9)             -0.9696         estimate D2E/DX2                !
 ! D9    D(2,4,5,10)           118.3873         estimate D2E/DX2                !
 --------------------------------------------------------------------------------
 Trust Radius=3.00D-01 FncErr=1.00D-07 GrdErr=1.00D-06
 Number of steps in this run=     41 maximum allowed number of steps=    100.
 GradGradGradGradGradGradGradGradGradGradGradGradGradGradGradGradGradGrad

 Leave Link  103 at Thu Sep  8 15:15:01 2022, MaxMem= 24159191040 cpu:         0.3
 (Enter /public/home/users/caep010/software/Gaussian09/g09/l202.exe)
                          Input orientation:                          
 ---------------------------------------------------------------------
 Center     Atomic      Atomic             Coordinates (Angstroms)
 Number     Number       Type             X           Y           Z
 ---------------------------------------------------------------------
      1          7           0        1.908260   -0.190148    0.185247
      2          6           0        0.578233    0.086336   -0.048237
      3          8           0        0.238381    0.855363   -0.988959
      4          7           0       -0.296787   -0.547688    0.762230
      5          7           0       -1.583550   -0.127555    0.227910
      6          1           0        2.116603   -0.563592    1.098814
      7          1           0        2.539216    0.523246   -0.143260
      8          1           0       -2.132533    0.361588    0.934283
      9          1           0       -1.244772    0.527624   -0.579210
     10          1           0       -2.122954   -0.925175   -0.109218
 ---------------------------------------------------------------------
                    Distance matrix (angstroms):
                    1          2          3          4          5
     1  N    0.000000
     2  C    1.378379   0.000000
     3  O    2.293545   1.261689   0.000000
     4  N    2.307158   1.350742   2.306864   0.000000
     5  N    3.492632   2.189820   2.401318   1.455256   0.000000
     6  H    1.008698   2.026010   3.146418   2.436800   3.826191
     7  H    1.007449   2.011312   2.473732   3.163815   4.190287
     8  H    4.146502   2.896439   3.092557   2.055808   1.019611
     9  H    3.322830   1.949363   1.573229   1.963271   1.093377
    10  H    4.108243   2.885010   3.085476   2.058350   1.020201
                    6          7          8          9         10
     6  H    0.000000
     7  H    1.703692   0.000000
     8  H    4.351803   4.797132   0.000000
     9  H    3.912206   3.809020   1.762484   0.000000
    10  H    4.423113   4.882101   1.656727   1.761454   0.000000
 Stoichiometry    CH5N3O
 Framework group  C1[X(CH5N3O)]
 Deg. of freedom    24
 Full point group                 C1      NOp   1
 Largest Abelian subgroup         C1      NOp   1
 Largest concise Abelian subgroup C1      NOp   1
                         Standard orientation:                         
 ---------------------------------------------------------------------
 Center     Atomic      Atomic             Coordinates (Angstroms)
 Number     Number       Type             X           Y           Z
 ---------------------------------------------------------------------
      1          7           0        1.760779   -0.412994   -0.078114
      2          6           0        0.466662    0.056154   -0.006761
      3          8           0        0.233443    1.296054    0.004048
      4          7           0       -0.494245   -0.893027    0.007969
      5          7           0       -1.717247   -0.104352    0.002811
      6          1           0        1.886750   -1.373606    0.202648
      7          1           0        2.450840    0.232526    0.271277
      8          1           0       -2.284070   -0.300230    0.827401
      9          1           0       -1.289611    0.901918    0.007499
     10          1           0       -2.276432   -0.293357   -0.829294
 ---------------------------------------------------------------------
 Rotational constants (GHZ):     11.2092944      4.3942214      3.2199804
 Leave Link  202 at Thu Sep  8 15:15:01 2022, MaxMem= 24159191040 cpu:         0.4
 (Enter /public/home/users/caep010/software/Gaussian09/g09/l301.exe)
 Standard basis: 6-31G(d,p) (6D, 7F)
 Ernie: Thresh=  0.10000D-02 Tol=  0.10000D-05 Strict=F.
 There are   100 symmetry adapted cartesian basis functions of A   symmetry.
 There are   100 symmetry adapted basis functions of A   symmetry.
   100 basis functions,   175 primitive gaussians,   100 cartesian basis functions
    20 alpha electrons       20 beta electrons
       nuclear repulsion energy       185.8150427321 Hartrees.
 IExCor=  402 DFT=T Ex+Corr=B3LYP ExCW=0 ScaHFX=  0.200000
 ScaDFX=  0.800000  0.720000  1.000000  0.810000 ScalE2=  1.000000  1.000000
 IRadAn=      0 IRanWt=     -1 IRanGd=            0 ICorTp=0 IEmpDi=  4
 NAtoms=   10 NActive=   10 NUniq=   10 SFac= 1.00D+00 NAtFMM=   60 NAOKFM=F Big=F
 Integral buffers will be    131072 words long.
 Raffenetti 2 integral format.
 Two-electron integral symmetry is turned on.
 Leave Link  301 at Thu Sep  8 15:15:01 2022, MaxMem= 24159191040 cpu:         2.0
 (Enter /public/home/users/caep010/software/Gaussian09/g09/l302.exe)
 NPDir=0 NMtPBC=     1 NCelOv=     1 NCel=       1 NClECP=     1 NCelD=      1
         NCelK=      1 NCelE2=     1 NClLst=     1 CellRange=     0.0.
 One-electron integrals computed using PRISM.
 NBasis=   100 RedAO= T EigKep=  3.34D-03  NBF=   100
 NBsUse=   100 1.00D-06 EigRej= -1.00D+00 NBFU=   100
 Precomputing XC quadrature grid using
 IXCGrd= 4 IRadAn=           0 IRanWt=          -1 IRanGd=           0 AccXCQ= 0.00D+00.
 Generated NRdTot=       0 NPtTot=           0 NUsed=           0 NTot=          32
 NSgBfM=   100   100   100   100   100 MxSgAt=    10 MxSgA2=    10.
 Leave Link  302 at Thu Sep  8 15:15:02 2022, MaxMem= 24159191040 cpu:        13.9
 (Enter /public/home/users/caep010/software/Gaussian09/g09/l303.exe)
 DipDrv:  MaxL=1.
 Leave Link  303 at Thu Sep  8 15:15:02 2022, MaxMem= 24159191040 cpu:         0.8
 (Enter /public/home/users/caep010/software/Gaussian09/g09/l401.exe)
 ExpMin= 1.61D-01 ExpMax= 5.48D+03 ExpMxC= 8.25D+02 IAcc=1 IRadAn=         1 AccDes= 0.00D+00
 Harris functional with IExCor=  402 and IRadAn=       1 diagonalized for initial guess.
 HarFok:  IExCor=  402 AccDes= 0.00D+00 IRadAn=         1 IDoV= 1 UseB2=F ITyADJ=14
 ICtDFT=  3500011 ScaDFX=  1.000000  1.000000  1.000000  1.000000
 FoFCou: FMM=F IPFlag=           0 FMFlag=      100000 FMFlg1=           0
         NFxFlg=           0 DoJE=T BraDBF=F KetDBF=T FulRan=T
         wScrn=  0.000000 ICntrl=     500 IOpCl=  0 I1Cent=   200000004 NGrid=           0
         NMat0=    1 NMatS0=      1 NMatT0=    0 NMatD0=    1 NMtDS0=    0 NMtDT0=    0
 Petite list used in FoFCou.
 Harris En= -280.573474965017    
 JPrj=0 DoOrth=F DoCkMO=F.
 Leave Link  401 at Thu Sep  8 15:15:02 2022, MaxMem= 24159191040 cpu:         9.9
 (Enter /public/home/users/caep010/software/Gaussian09/g09/l502.exe)
 Closed shell SCF:
 Using DIIS extrapolation, IDIIS=  1040.
 Integral symmetry usage will be decided dynamically.
 Keep R1 ints in memory in canonical form, NReq=13729312.
 IVT=       52505 IEndB=       52505 NGot= 24159191040 MDV= 24146384761
 LenX= 24146384761 LenY= 24146374320
 Requested convergence on RMS density matrix=1.00D-08 within 128 cycles.
 Requested convergence on MAX density matrix=1.00D-06.
 Requested convergence on             energy=1.00D-06.
 No special actions if energy rises.
 FoFCou: FMM=F IPFlag=           0 FMFlag=           0 FMFlg1=           0
         NFxFlg=           0 DoJE=F BraDBF=F KetDBF=F FulRan=T
         wScrn=  0.000000 ICntrl=     600 IOpCl=  0 I1Cent=           0 NGrid=           0
         NMat0=    1 NMatS0=   5050 NMatT0=    0 NMatD0=    1 NMtDS0=    0 NMtDT0=    0
 Symmetry not used in FoFCou.
 Integral accuracy reduced to 1.0D-05 until final iterations.

 Cycle   1  Pass 0  IDiag  1:
 E= -280.408739763284    
 DIIS: error= 3.55D-02 at cycle   1 NSaved=   1.
 NSaved= 1 IEnMin= 1 EnMin= -280.408739763284     IErMin= 1 ErrMin= 3.55D-02
 ErrMax= 3.55D-02  0.00D+00 EMaxC= 1.00D-01 BMatC= 1.90D-01 BMatP= 1.90D-01
 IDIUse=3 WtCom= 6.45D-01 WtEn= 3.55D-01
 Coeff-Com:  0.100D+01
 Coeff-En:   0.100D+01
 Coeff:      0.100D+01
 Gap=     0.287 Goal=   None    Shift=    0.000
 GapD=    0.287 DampG=1.000 DampE=0.500 DampFc=0.5000 IDamp=-1.
 Damping current iteration by 5.00D-01
 RMSDP=1.12D-02 MaxDP=1.92D-01              OVMax= 2.56D-01

 Cycle   2  Pass 0  IDiag  1:
 E= -280.453194292105     Delta-E=       -0.044454528821 Rises=F Damp=T
 DIIS: error= 1.49D-02 at cycle   2 NSaved=   2.
 NSaved= 2 IEnMin= 2 EnMin= -280.453194292105     IErMin= 2 ErrMin= 1.49D-02
 ErrMax= 1.49D-02  0.00D+00 EMaxC= 1.00D-01 BMatC= 2.25D-02 BMatP= 1.90D-01
 IDIUse=3 WtCom= 8.51D-01 WtEn= 1.49D-01
 Coeff-Com:  0.199D+00 0.801D+00
 Coeff-En:   0.332D+00 0.668D+00
 Coeff:      0.219D+00 0.781D+00
 Gap=     0.270 Goal=   None    Shift=    0.000
 RMSDP=3.17D-03 MaxDP=5.26D-02 DE=-4.45D-02 OVMax= 1.80D-01

 Cycle   3  Pass 0  IDiag  1:
 E= -280.546686185811     Delta-E=       -0.093491893706 Rises=F Damp=F
 DIIS: error= 1.40D-02 at cycle   3 NSaved=   3.
 NSaved= 3 IEnMin= 3 EnMin= -280.546686185811     IErMin= 3 ErrMin= 1.40D-02
 ErrMax= 1.40D-02  0.00D+00 EMaxC= 1.00D-01 BMatC= 1.89D-02 BMatP= 2.25D-02
 IDIUse=3 WtCom= 8.60D-01 WtEn= 1.40D-01
 Coeff-Com:  0.825D-01 0.480D+00 0.438D+00
 Coeff-En:   0.000D+00 0.000D+00 0.100D+01
 Coeff:      0.710D-01 0.413D+00 0.516D+00
 Gap=     0.258 Goal=   None    Shift=    0.000
 RMSDP=1.80D-03 MaxDP=3.50D-02 DE=-9.35D-02 OVMax= 6.30D-02

 Cycle   4  Pass 0  IDiag  1:
 E= -280.559137978282     Delta-E=       -0.012451792471 Rises=F Damp=F
 DIIS: error= 6.25D-03 at cycle   4 NSaved=   4.
 NSaved= 4 IEnMin= 4 EnMin= -280.559137978282     IErMin= 4 ErrMin= 6.25D-03
 ErrMax= 6.25D-03  0.00D+00 EMaxC= 1.00D-01 BMatC= 4.03D-03 BMatP= 1.89D-02
 IDIUse=3 WtCom= 9.38D-01 WtEn= 6.25D-02
 Coeff-Com:  0.868D-02 0.737D-01 0.319D+00 0.599D+00
 Coeff-En:   0.000D+00 0.000D+00 0.210D+00 0.790D+00
 Coeff:      0.813D-02 0.691D-01 0.312D+00 0.611D+00
 Gap=     0.249 Goal=   None    Shift=    0.000
 RMSDP=6.37D-04 MaxDP=1.44D-02 DE=-1.25D-02 OVMax= 2.27D-02

 Cycle   5  Pass 0  IDiag  1:
 E= -280.562249417271     Delta-E=       -0.003111438989 Rises=F Damp=F
 DIIS: error= 1.34D-03 at cycle   5 NSaved=   5.
 NSaved= 5 IEnMin= 5 EnMin= -280.562249417271     IErMin= 5 ErrMin= 1.34D-03
 ErrMax= 1.34D-03  0.00D+00 EMaxC= 1.00D-01 BMatC= 2.15D-04 BMatP= 4.03D-03
 IDIUse=3 WtCom= 9.87D-01 WtEn= 1.34D-02
 Coeff-Com: -0.114D-02 0.835D-02 0.140D+00 0.340D+00 0.513D+00
 Coeff-En:   0.000D+00 0.000D+00 0.000D+00 0.000D+00 0.100D+01
 Coeff:     -0.113D-02 0.824D-02 0.138D+00 0.335D+00 0.520D+00
 Gap=     0.249 Goal=   None    Shift=    0.000
 RMSDP=1.32D-04 MaxDP=3.24D-03 DE=-3.11D-03 OVMax= 5.22D-03

 Cycle   6  Pass 0  IDiag  1:
 E= -280.562419129252     Delta-E=       -0.000169711981 Rises=F Damp=F
 DIIS: error= 3.21D-04 at cycle   6 NSaved=   6.
 NSaved= 6 IEnMin= 6 EnMin= -280.562419129252     IErMin= 6 ErrMin= 3.21D-04
 ErrMax= 3.21D-04  0.00D+00 EMaxC= 1.00D-01 BMatC= 1.13D-05 BMatP= 2.15D-04
 IDIUse=3 WtCom= 9.97D-01 WtEn= 3.21D-03
 Coeff-Com: -0.116D-02-0.114D-02 0.390D-01 0.104D+00 0.256D+00 0.604D+00
 Coeff-En:   0.000D+00 0.000D+00 0.000D+00 0.000D+00 0.000D+00 0.100D+01
 Coeff:     -0.115D-02-0.114D-02 0.388D-01 0.103D+00 0.255D+00 0.605D+00
 Gap=     0.249 Goal=   None    Shift=    0.000
 RMSDP=3.39D-05 MaxDP=6.95D-04 DE=-1.70D-04 OVMax= 9.66D-04

 Cycle   7  Pass 0  IDiag  1:
 E= -280.562427623483     Delta-E=       -0.000008494231 Rises=F Damp=F
 DIIS: error= 6.26D-05 at cycle   7 NSaved=   7.
 NSaved= 7 IEnMin= 7 EnMin= -280.562427623483     IErMin= 7 ErrMin= 6.26D-05
 ErrMax= 6.26D-05  0.00D+00 EMaxC= 1.00D-01 BMatC= 8.88D-07 BMatP= 1.13D-05
 IDIUse=1 WtCom= 1.00D+00 WtEn= 0.00D+00
 Coeff-Com: -0.580D-03-0.958D-03 0.113D-01 0.307D-01 0.101D+00 0.315D+00
 Coeff-Com:  0.543D+00
 Coeff:     -0.580D-03-0.958D-03 0.113D-01 0.307D-01 0.101D+00 0.315D+00
 Coeff:      0.543D+00
 Gap=     0.249 Goal=   None    Shift=    0.000
 RMSDP=1.01D-05 MaxDP=1.90D-04 DE=-8.49D-06 OVMax= 2.31D-04

 Cycle   8  Pass 0  IDiag  1:
 E= -280.562428363652     Delta-E=       -0.000000740169 Rises=F Damp=F
 DIIS: error= 1.50D-05 at cycle   8 NSaved=   8.
 NSaved= 8 IEnMin= 8 EnMin= -280.562428363652     IErMin= 8 ErrMin= 1.50D-05
 ErrMax= 1.50D-05  0.00D+00 EMaxC= 1.00D-01 BMatC= 3.34D-08 BMatP= 8.88D-07
 IDIUse=1 WtCom= 1.00D+00 WtEn= 0.00D+00
 Coeff-Com: -0.820D-04-0.129D-03-0.199D-03-0.792D-03 0.987D-02 0.466D-01
 Coeff-Com:  0.189D+00 0.756D+00
 Coeff:     -0.820D-04-0.129D-03-0.199D-03-0.792D-03 0.987D-02 0.466D-01
 Coeff:      0.189D+00 0.756D+00
 Gap=     0.249 Goal=   None    Shift=    0.000
 RMSDP=2.06D-06 MaxDP=3.18D-05 DE=-7.40D-07 OVMax= 5.18D-05

 Initial convergence to 1.0D-05 achieved.  Increase integral accuracy.
 Cycle   9  Pass 1  IDiag  1:
 E= -280.562420271496     Delta-E=        0.000008092156 Rises=F Damp=F
 DIIS: error= 8.06D-06 at cycle   1 NSaved=   1.
 NSaved= 1 IEnMin= 1 EnMin= -280.562420271496     IErMin= 1 ErrMin= 8.06D-06
 ErrMax= 8.06D-06  0.00D+00 EMaxC= 1.00D-01 BMatC= 9.82D-09 BMatP= 9.82D-09
 IDIUse=1 WtCom= 1.00D+00 WtEn= 0.00D+00
 Coeff-Com:  0.100D+01
 Coeff:      0.100D+01
 Gap=     0.249 Goal=   None    Shift=    0.000
 RMSDP=2.06D-06 MaxDP=3.18D-05 DE= 8.09D-06 OVMax= 5.62D-05

 Cycle  10  Pass 1  IDiag  1:
 E= -280.562420275387     Delta-E=       -0.000000003891 Rises=F Damp=F
 DIIS: error= 8.29D-06 at cycle   2 NSaved=   2.
 NSaved= 2 IEnMin= 2 EnMin= -280.562420275387     IErMin= 1 ErrMin= 8.06D-06
 ErrMax= 8.29D-06  0.00D+00 EMaxC= 1.00D-01 BMatC= 9.45D-09 BMatP= 9.82D-09
 IDIUse=1 WtCom= 1.00D+00 WtEn= 0.00D+00
 Coeff-Com:  0.494D+00 0.506D+00
 Coeff:      0.494D+00 0.506D+00
 Gap=     0.249 Goal=   None    Shift=    0.000
 RMSDP=1.11D-06 MaxDP=2.01D-05 DE=-3.89D-09 OVMax= 3.42D-05

 Cycle  11  Pass 1  IDiag  1:
 E= -280.562420282770     Delta-E=       -0.000000007383 Rises=F Damp=F
 DIIS: error= 2.77D-06 at cycle   3 NSaved=   3.
 NSaved= 3 IEnMin= 3 EnMin= -280.562420282770     IErMin= 3 ErrMin= 2.77D-06
 ErrMax= 2.77D-06  0.00D+00 EMaxC= 1.00D-01 BMatC= 1.09D-09 BMatP= 9.45D-09
 IDIUse=1 WtCom= 1.00D+00 WtEn= 0.00D+00
 Coeff-Com: -0.169D-03 0.249D+00 0.751D+00
 Coeff:     -0.169D-03 0.249D+00 0.751D+00
 Gap=     0.249 Goal=   None    Shift=    0.000
 RMSDP=3.30D-07 MaxDP=8.49D-06 DE=-7.38D-09 OVMax= 1.51D-05

 Cycle  12  Pass 1  IDiag  1:
 E= -280.562420283620     Delta-E=       -0.000000000850 Rises=F Damp=F
 DIIS: error= 1.27D-06 at cycle   4 NSaved=   4.
 NSaved= 4 IEnMin= 4 EnMin= -280.562420283620     IErMin= 4 ErrMin= 1.27D-06
 ErrMax= 1.27D-06  0.00D+00 EMaxC= 1.00D-01 BMatC= 1.45D-10 BMatP= 1.09D-09
 IDIUse=1 WtCom= 1.00D+00 WtEn= 0.00D+00
 Coeff-Com: -0.130D-01 0.145D+00 0.473D+00 0.395D+00
 Coeff:     -0.130D-01 0.145D+00 0.473D+00 0.395D+00
 Gap=     0.249 Goal=   None    Shift=    0.000
 RMSDP=1.35D-07 MaxDP=2.45D-06 DE=-8.50D-10 OVMax= 4.30D-06

 Cycle  13  Pass 1  IDiag  1:
 E= -280.562420283730     Delta-E=       -0.000000000110 Rises=F Damp=F
 DIIS: error= 2.44D-07 at cycle   5 NSaved=   5.
 NSaved= 5 IEnMin= 5 EnMin= -280.562420283730     IErMin= 5 ErrMin= 2.44D-07
 ErrMax= 2.44D-07  0.00D+00 EMaxC= 1.00D-01 BMatC= 6.65D-12 BMatP= 1.45D-10
 IDIUse=1 WtCom= 1.00D+00 WtEn= 0.00D+00
 Coeff-Com: -0.658D-02 0.418D-01 0.143D+00 0.204D+00 0.618D+00
 Coeff:     -0.658D-02 0.418D-01 0.143D+00 0.204D+00 0.618D+00
 Gap=     0.249 Goal=   None    Shift=    0.000
 RMSDP=2.65D-08 MaxDP=7.02D-07 DE=-1.10D-10 OVMax= 7.89D-07

 Cycle  14  Pass 1  IDiag  1:
 E= -280.562420283733     Delta-E=       -0.000000000003 Rises=F Damp=F
 DIIS: error= 7.12D-08 at cycle   6 NSaved=   6.
 NSaved= 6 IEnMin= 6 EnMin= -280.562420283733     IErMin= 6 ErrMin= 7.12D-08
 ErrMax= 7.12D-08  0.00D+00 EMaxC= 1.00D-01 BMatC= 3.94D-13 BMatP= 6.65D-12
 IDIUse=1 WtCom= 1.00D+00 WtEn= 0.00D+00
 Coeff-Com: -0.212D-02 0.106D-01 0.373D-01 0.650D-01 0.280D+00 0.609D+00
 Coeff:     -0.212D-02 0.106D-01 0.373D-01 0.650D-01 0.280D+00 0.609D+00
 Gap=     0.249 Goal=   None    Shift=    0.000
 RMSDP=8.61D-09 MaxDP=1.73D-07 DE=-3.30D-12 OVMax= 2.02D-07

 SCF Done:  E(RB3LYP) =  -280.562420284     A.U. after   14 cycles
            NFock= 14  Conv=0.86D-08     -V/T= 2.0087
 KE= 2.781408539952D+02 PE=-1.028578975620D+03 EE= 2.840606586088D+02
 Leave Link  502 at Thu Sep  8 15:15:03 2022, MaxMem= 24159191040 cpu:        25.8
 (Enter /public/home/users/caep010/software/Gaussian09/g09/l601.exe)
 Copying SCF densities to generalized density rwf, IOpCl= 0 IROHF=0.

 **********************************************************************

            Population analysis using the SCF density.

 **********************************************************************

 Orbital symmetries:
       Occupied  (A) (A) (A) (A) (A) (A) (A) (A) (A) (A) (A) (A)
                 (A) (A) (A) (A) (A) (A) (A) (A)
       Virtual   (A) (A) (A) (A) (A) (A) (A) (A) (A) (A) (A) (A)
                 (A) (A) (A) (A) (A) (A) (A) (A) (A) (A) (A) (A)
                 (A) (A) (A) (A) (A) (A) (A) (A) (A) (A) (A) (A)
                 (A) (A) (A) (A) (A) (A) (A) (A) (A) (A) (A) (A)
                 (A) (A) (A) (A) (A) (A) (A) (A) (A) (A) (A) (A)
                 (A) (A) (A) (A) (A) (A) (A) (A) (A) (A) (A) (A)
                 (A) (A) (A) (A) (A) (A) (A) (A)
 The electronic state is 1-A.
 Alpha  occ. eigenvalues --  -19.08987 -14.43973 -14.32344 -14.30098 -10.26993
 Alpha  occ. eigenvalues --   -1.04039  -0.96757  -0.88051  -0.78213  -0.57211
 Alpha  occ. eigenvalues --   -0.56516  -0.55115  -0.50555  -0.44142  -0.41044
 Alpha  occ. eigenvalues --   -0.38499  -0.28114  -0.25175  -0.24677  -0.20574
 Alpha virt. eigenvalues --    0.04313   0.08414   0.10284   0.11506   0.15600
 Alpha virt. eigenvalues --    0.16542   0.17726   0.30181   0.38229   0.41333
 Alpha virt. eigenvalues --    0.55795   0.58787   0.63282   0.66295   0.67707
 Alpha virt. eigenvalues --    0.69153   0.70455   0.73414   0.73560   0.74626
 Alpha virt. eigenvalues --    0.77256   0.81435   0.82656   0.84013   0.85983
 Alpha virt. eigenvalues --    0.88182   0.92010   1.00724   1.04430   1.07193
 Alpha virt. eigenvalues --    1.14717   1.26912   1.29685   1.35611   1.37177
 Alpha virt. eigenvalues --    1.43703   1.47721   1.53920   1.65323   1.71655
 Alpha virt. eigenvalues --    1.78707   1.83643   1.87435   1.90031   1.92978
 Alpha virt. eigenvalues --    2.00441   2.01944   2.05482   2.06579   2.14222
 Alpha virt. eigenvalues --    2.15424   2.18253   2.25445   2.28204   2.38028
 Alpha virt. eigenvalues --    2.44799   2.47554   2.51536   2.55786   2.59281
 Alpha virt. eigenvalues --    2.66701   2.68693   2.70475   2.76599   2.86459
 Alpha virt. eigenvalues --    2.90282   2.96154   3.02924   3.09279   3.15294
 Alpha virt. eigenvalues --    3.19398   3.34505   3.34716   3.38842   3.53554
 Alpha virt. eigenvalues --    3.89285   4.02399   4.15874   4.17390   4.47145
          Condensed to atoms (all electrons):
               1          2          3          4          5          6
     1  N    6.820360   0.331184  -0.080712  -0.113226   0.003848   0.326030
     2  C    0.331184   4.249463   0.487617   0.396649  -0.079177  -0.017620
     3  O   -0.080712   0.487617   8.243142  -0.099559  -0.090636   0.004033
     4  N   -0.113226   0.396649  -0.099559   7.275148   0.147447   0.006359
     5  N    0.003848  -0.079177  -0.090636   0.147447   6.586470  -0.000236
     6  H    0.326030  -0.017620   0.004033   0.006359  -0.000236   0.446553
     7  H    0.334942  -0.020398   0.004296   0.005751  -0.000227  -0.026686
     8  H    0.000069   0.003020   0.002996  -0.036450   0.327803  -0.000014
     9  H    0.004227  -0.042076   0.142376  -0.048663   0.198109  -0.000190
    10  H   -0.000029   0.003262   0.003104  -0.037292   0.325895  -0.000016
               7          8          9         10
     1  N    0.334942   0.000069   0.004227  -0.000029
     2  C   -0.020398   0.003020  -0.042076   0.003262
     3  O    0.004296   0.002996   0.142376   0.003104
     4  N    0.005751  -0.036450  -0.048663  -0.037292
     5  N   -0.000227   0.327803   0.198109   0.325895
     6  H   -0.026686  -0.000014  -0.000190  -0.000016
     7  H    0.437908   0.000019  -0.000207  -0.000008
     8  H    0.000019   0.438225  -0.007702  -0.035599
     9  H   -0.000207  -0.007702   0.433673  -0.007760
    10  H   -0.000008  -0.035599  -0.007760   0.439953
 Mulliken charges:
               1
     1  N   -0.626694
     2  C    0.688076
     3  O   -0.616656
     4  N   -0.496165
     5  N   -0.419296
     6  H    0.261787
     7  H    0.264611
     8  H    0.307633
     9  H    0.328213
    10  H    0.308489
 Sum of Mulliken charges =  -0.00000
 Mulliken charges with hydrogens summed into heavy atoms:
               1
     1  N   -0.100295
     2  C    0.688076
     3  O   -0.616656
     4  N   -0.496165
     5  N    0.525039
 Electronic spatial extent (au):  <R**2>=            387.5264
 Charge=             -0.0000 electrons
 Dipole moment (field-independent basis, Debye):
    X=             -2.9420    Y=             -0.7922    Z=              0.9623  Tot=              3.1952
 Quadrupole moment (field-independent basis, Debye-Ang):
   XX=            -14.3902   YY=            -35.0453   ZZ=            -28.9600
   XY=             -2.0649   XZ=              2.4307   YZ=             -0.5057
 Traceless Quadrupole moment (field-independent basis, Debye-Ang):
   XX=             11.7416   YY=             -8.9135   ZZ=             -2.8282
   XY=             -2.0649   XZ=              2.4307   YZ=             -0.5057
 Octapole moment (field-independent basis, Debye-Ang**2):
  XXX=            -15.4532  YYY=             -1.3095  ZZZ=              0.7920  XYY=              2.6588
  XXY=             -2.0591  XXZ=              5.6904  XZZ=             -6.5336  YZZ=              1.2629
  YYZ=              0.8154  XYZ=             -0.9811
 Hexadecapole moment (field-independent basis, Debye-Ang**3):
 XXXX=           -215.1975 YYYY=           -137.0080 ZZZZ=            -29.2738 XXXY=              8.2622
 XXXZ=             13.5072 YYYX=            -12.6138 YYYZ=             -1.1861 ZZZX=              1.9975
 ZZZY=             -0.3850 XXYY=            -63.2239 XXZZ=            -48.2862 YYZZ=            -27.5054
 XXYZ=             -1.8801 YYXZ=              1.8677 ZZXY=              1.9356
 N-N= 1.858150427321D+02 E-N=-1.028578979425D+03  KE= 2.781408539952D+02
 No NMR shielding tensors so no spin-rotation constants.
 Leave Link  601 at Thu Sep  8 15:15:04 2022, MaxMem= 24159191040 cpu:        12.6
 (Enter /public/home/users/caep010/software/Gaussian09/g09/l701.exe)
 Compute integral first derivatives.
 ... and contract with generalized density number  0.
 Leave Link  701 at Thu Sep  8 15:15:04 2022, MaxMem= 24159191040 cpu:        11.4
 (Enter /public/home/users/caep010/software/Gaussian09/g09/l702.exe)
 L702 exits ... SP integral derivatives will be done elsewhere.
 Leave Link  702 at Thu Sep  8 15:15:04 2022, MaxMem= 24159191040 cpu:         0.6
 (Enter /public/home/users/caep010/software/Gaussian09/g09/l703.exe)
 Compute integral first derivatives, UseDBF=F ICtDFT=           0.
 Integral derivatives from FoFJK, PRISM(SPDF).
 Calling FoFJK, ICntrl=      2127 FMM=F ISym2X=0 I1Cent= 0 IOpClX= 0 NMat=1 NMatS=1 NMatT=0.
 FoFJK:  IHMeth= 1 ICntrl=    2127 DoSepK=F KAlg= 0 I1Cent=   0 FoldK=F
 IRaf=         0 NMat=   1 IRICut=       1 DoRegI=T DoRafI=F ISym2E= 0.
 FoFCou: FMM=F IPFlag=           0 FMFlag=      100000 FMFlg1=         800
         NFxFlg=           0 DoJE=F BraDBF=F KetDBF=F FulRan=T
         wScrn=  0.000000 ICntrl=    2127 IOpCl=  0 I1Cent=           0 NGrid=           0
         NMat0=    1 NMatS0=      1 NMatT0=    0 NMatD0=    1 NMtDS0=    0 NMtDT0=    0
 Symmetry not used in FoFCou.
 Leave Link  703 at Thu Sep  8 15:15:04 2022, MaxMem= 24159191040 cpu:         8.5
 (Enter /public/home/users/caep010/software/Gaussian09/g09/l716.exe)
 Dipole        =-1.15746930D+00-3.11684100D-01 3.78614286D-01
 ***** Axes restored to original set *****
 -------------------------------------------------------------------
 Center     Atomic                   Forces (Hartrees/Bohr)
 Number     Number              X              Y              Z
 -------------------------------------------------------------------
      1        7           0.000503866   -0.000442332   -0.000211772
      2        6           0.003511309   -0.003876959    0.004488863
      3        8          -0.002403070    0.005285364   -0.006350261
      4        7          -0.000134575   -0.001933791    0.002578071
      5        7          -0.000102245    0.000318134   -0.000422279
      6        1           0.000154253   -0.000751354    0.001219519
      7        1           0.000743123    0.000952619   -0.000743056
      8        1          -0.000934885    0.000705804    0.000823992
      9        1          -0.000468256    0.000727280   -0.000872054
     10        1          -0.000869520   -0.000984766   -0.000511022
 -------------------------------------------------------------------
 Cartesian Forces:  Max     0.006350261 RMS     0.002178442
 Leave Link  716 at Thu Sep  8 15:15:04 2022, MaxMem= 24159191040 cpu:         0.7
 (Enter /public/home/users/caep010/software/Gaussian09/g09/l103.exe)

 GradGradGradGradGradGradGradGradGradGradGradGradGradGradGradGradGradGrad
 Berny optimization.
 FormGI is forming the generalized inverse of G from B-inverse, IUseBI=4.
 Internal  Forces:  Max     0.008602987 RMS     0.001846587
 Search for a local minimum.
 Step number   1 out of a maximum of   41
 All quantities printed in internal units (Hartrees-Bohrs-Radians)
 RMS Force = .18466D-02 SwitMx=.10000D-02 MixMth= 1
 Mixed Optimization -- RFO/linear search
 Second derivative matrix not updated -- first step.
 ITU=  0
     Eigenvalues ---    0.00564   0.01978   0.02111   0.02343   0.04226
     Eigenvalues ---    0.09868   0.10860   0.16000   0.16000   0.16000
     Eigenvalues ---    0.16000   0.16000   0.24993   0.25000   0.25000
     Eigenvalues ---    0.34425   0.37565   0.44306   0.44400   0.46191
     Eigenvalues ---    0.46402   0.49400   0.54864   0.79063
 RFO step:  Lambda=-1.77695305D-04 EMin= 5.63880326D-03
 Linear search not attempted -- first point.
 Iteration  1 RMS(Cart)=  0.00863913 RMS(Int)=  0.00002278
 Iteration  2 RMS(Cart)=  0.00002789 RMS(Int)=  0.00000321
 Iteration  3 RMS(Cart)=  0.00000000 RMS(Int)=  0.00000321
 ITry= 1 IFail=0 DXMaxC= 2.85D-02 DCOld= 1.00D+10 DXMaxT= 3.00D-01 DXLimC= 3.00D+00 Rises=F
 Variable       Old X    -DE/DX   Delta X   Delta X   Delta X     New X
                                 (Linear)    (Quad)   (Total)
    R1        2.60476   0.00145   0.00000   0.00292   0.00292   2.60768
    R2        1.90616   0.00142   0.00000   0.00307   0.00307   1.90923
    R3        1.90380   0.00138   0.00000   0.00298   0.00298   1.90678
    R4        2.38425   0.00860   0.00000   0.01088   0.01088   2.39513
    R5        2.55253   0.00313   0.00000   0.00570   0.00570   2.55823
    R6        2.75003   0.00268   0.00000   0.00714   0.00714   2.75718
    R7        1.92679   0.00141   0.00000   0.00318   0.00318   1.92996
    R8        2.06618   0.00094   0.00000   0.00272   0.00272   2.06890
    R9        1.92790   0.00140   0.00000   0.00316   0.00316   1.93106
    A1        2.01194  -0.00001   0.00000   0.00095   0.00095   2.01289
    A2        1.99002  -0.00014   0.00000   0.00018   0.00018   1.99019
    A3        2.01322   0.00028   0.00000   0.00314   0.00313   2.01635
    A4        2.10421   0.00002   0.00000   0.00010   0.00010   2.10431
    A5        2.01451   0.00017   0.00000   0.00071   0.00071   2.01521
    A6        2.16396  -0.00019   0.00000  -0.00076  -0.00076   2.16320
    A7        1.78952   0.00126   0.00000   0.00503   0.00503   1.79455
    A8        1.93930   0.00012   0.00000   0.00052   0.00052   1.93981
    A9        1.74169   0.00121   0.00000   0.00795   0.00794   1.74964
   A10        1.94241   0.00001   0.00000  -0.00017  -0.00017   1.94224
   A11        1.97226  -0.00048   0.00000  -0.00254  -0.00255   1.96971
   A12        1.89581  -0.00031   0.00000  -0.00263  -0.00263   1.89318
   A13        1.96966  -0.00045   0.00000  -0.00238  -0.00239   1.96727
    D1        2.82308   0.00011   0.00000   0.00199   0.00199   2.82506
    D2       -0.35171   0.00014   0.00000   0.00362   0.00362  -0.34809
    D3        0.43576  -0.00016   0.00000  -0.00433  -0.00433   0.43143
    D4       -2.73903  -0.00012   0.00000  -0.00269  -0.00270  -2.74172
    D5       -3.08338   0.00005   0.00000   0.00209   0.00209  -3.08129
    D6        0.02374   0.00009   0.00000   0.00381   0.00381   0.02755
    D7       -2.10178  -0.00017   0.00000  -0.00400  -0.00400  -2.10578
    D8       -0.01692  -0.00001   0.00000  -0.00240  -0.00240  -0.01932
    D9        2.06625   0.00014   0.00000  -0.00089  -0.00088   2.06536
         Item               Value     Threshold  Converged?
 Maximum Force            0.008603     0.000450     NO 
 RMS     Force            0.001847     0.000300     NO 
 Maximum Displacement     0.028486     0.001800     NO 
 RMS     Displacement     0.008653     0.001200     NO 
 Predicted change in Energy=-8.889363D-05
 Lowest energy point so far.  Saving SCF results.
 GradGradGradGradGradGradGradGradGradGradGradGradGradGradGradGradGradGrad

 Leave Link  103 at Thu Sep  8 15:15:05 2022, MaxMem= 24159191040 cpu:         1.7
 (Enter /public/home/users/caep010/software/Gaussian09/g09/l202.exe)
                          Input orientation:                          
 ---------------------------------------------------------------------
 Center     Atomic      Atomic             Coordinates (Angstroms)
 Number     Number       Type             X           Y           Z
 ---------------------------------------------------------------------
      1          7           0        1.914108   -0.190694    0.187105
      2          6           0        0.583265    0.087834   -0.048437
      3          8           0        0.244036    0.861006   -0.993713
      4          7           0       -0.296279   -0.544738    0.763298
      5          7           0       -1.588106   -0.128015    0.228220
      6          1           0        2.121722   -0.566946    1.101478
      7          1           0        2.547786    0.521155   -0.144335
      8          1           0       -2.140094    0.359320    0.935929
      9          1           0       -1.259846    0.530227   -0.582694
     10          1           0       -2.126495   -0.929150   -0.107251
 ---------------------------------------------------------------------
                    Distance matrix (angstroms):
                    1          2          3          4          5
     1  N    0.000000
     2  C    1.379927   0.000000
     3  O    2.299900   1.267446   0.000000
     4  N    2.311527   1.353757   2.314119   0.000000
     5  N    3.503016   2.199541   2.414131   1.459035   0.000000
     6  H    1.010321   2.029258   3.155088   2.441636   3.836413
     7  H    1.009024   2.014027   2.478750   3.169958   4.203073
     8  H    4.159303   2.908499   3.107939   2.060771   1.021292
     9  H    3.344593   1.969315   1.593742   1.973754   1.094814
    10  H    4.118062   2.894912   3.099983   2.062843   1.021872
                    6          7          8          9         10
     6  H    0.000000
     7  H    1.708083   0.000000
     8  H    4.364453   4.813458   0.000000
     9  H    3.933857   3.832793   1.763593   0.000000
    10  H    4.431655   4.894248   1.657879   1.762642   0.000000
 Stoichiometry    CH5N3O
 Framework group  C1[X(CH5N3O)]
 Deg. of freedom    24
 Full point group                 C1      NOp   1
 RotChk:  IX=0 Diff= 4.81D-04
 Largest Abelian subgroup         C1      NOp   1
 Largest concise Abelian subgroup C1      NOp   1
                         Standard orientation:                         
 ---------------------------------------------------------------------
 Center     Atomic      Atomic             Coordinates (Angstroms)
 Number     Number       Type             X           Y           Z
 ---------------------------------------------------------------------
      1          7           0        1.764327   -0.416882   -0.078380
      2          6           0        0.469802    0.055617   -0.006639
      3          8           0        0.238138    1.301660    0.004690
      4          7           0       -0.495921   -0.892941    0.009943
      5          7           0       -1.723854   -0.104971    0.001775
      6          1           0        1.889060   -1.379880    0.200590
      7          1           0        2.457425    0.229455    0.268020
      8          1           0       -2.293903   -0.302663    0.825789
      9          1           0       -1.305948    0.906934    0.006593
     10          1           0       -2.282415   -0.297273   -0.832041
 ---------------------------------------------------------------------
 Rotational constants (GHZ):     11.1338462      4.3659457      3.1985998
 Leave Link  202 at Thu Sep  8 15:15:05 2022, MaxMem= 24159191040 cpu:         0.2
 (Enter /public/home/users/caep010/software/Gaussian09/g09/l301.exe)
 Standard basis: 6-31G(d,p) (6D, 7F)
 Ernie: Thresh=  0.10000D-02 Tol=  0.10000D-05 Strict=F.
 There are   100 symmetry adapted cartesian basis functions of A   symmetry.
 There are   100 symmetry adapted basis functions of A   symmetry.
   100 basis functions,   175 primitive gaussians,   100 cartesian basis functions
    20 alpha electrons       20 beta electrons
       nuclear repulsion energy       185.2354576505 Hartrees.
 IExCor=  402 DFT=T Ex+Corr=B3LYP ExCW=0 ScaHFX=  0.200000
 ScaDFX=  0.800000  0.720000  1.000000  0.810000 ScalE2=  1.000000  1.000000
 IRadAn=      0 IRanWt=     -1 IRanGd=            0 ICorTp=0 IEmpDi=  4
 NAtoms=   10 NActive=   10 NUniq=   10 SFac= 1.00D+00 NAtFMM=   60 NAOKFM=F Big=F
 Integral buffers will be    131072 words long.
 Raffenetti 2 integral format.
 Two-electron integral symmetry is turned on.
 Leave Link  301 at Thu Sep  8 15:15:05 2022, MaxMem= 24159191040 cpu:         1.7
 (Enter /public/home/users/caep010/software/Gaussian09/g09/l302.exe)
 NPDir=0 NMtPBC=     1 NCelOv=     1 NCel=       1 NClECP=     1 NCelD=      1
         NCelK=      1 NCelE2=     1 NClLst=     1 CellRange=     0.0.
 One-electron integrals computed using PRISM.
 NBasis=   100 RedAO= T EigKep=  3.39D-03  NBF=   100
 NBsUse=   100 1.00D-06 EigRej= -1.00D+00 NBFU=   100
 Precomputing XC quadrature grid using
 IXCGrd= 4 IRadAn=           0 IRanWt=          -1 IRanGd=           0 AccXCQ= 0.00D+00.
 Generated NRdTot=       0 NPtTot=           0 NUsed=           0 NTot=          32
 NSgBfM=   100   100   100   100   100 MxSgAt=    10 MxSgA2=    10.
 Leave Link  302 at Thu Sep  8 15:15:05 2022, MaxMem= 24159191040 cpu:        10.6
 (Enter /public/home/users/caep010/software/Gaussian09/g09/l303.exe)
 DipDrv:  MaxL=1.
 Leave Link  303 at Thu Sep  8 15:15:05 2022, MaxMem= 24159191040 cpu:         0.6
 (Enter /public/home/users/caep010/software/Gaussian09/g09/l401.exe)
 Initial guess from the checkpoint file:  "B3LYP6-31Gdp.Frag_980.chk"
 B after Tr=     0.000000    0.000000    0.000000
         Rot=    1.000000    0.000061    0.000046    0.000474 Ang=   0.06 deg.
 Guess basis will be translated and rotated to current coordinates.
 JPrj=2 DoOrth=T DoCkMO=T.
 Generating alternative initial guess.
 ExpMin= 1.61D-01 ExpMax= 5.48D+03 ExpMxC= 8.25D+02 IAcc=1 IRadAn=         1 AccDes= 0.00D+00
 Harris functional with IExCor=  402 and IRadAn=       1 diagonalized for initial guess.
 HarFok:  IExCor=  402 AccDes= 0.00D+00 IRadAn=         1 IDoV= 1 UseB2=F ITyADJ=14
 ICtDFT=  3500011 ScaDFX=  1.000000  1.000000  1.000000  1.000000
 FoFCou: FMM=F IPFlag=           0 FMFlag=      100000 FMFlg1=           0
         NFxFlg=           0 DoJE=T BraDBF=F KetDBF=T FulRan=T
         wScrn=  0.000000 ICntrl=     500 IOpCl=  0 I1Cent=   200000004 NGrid=           0
         NMat0=    1 NMatS0=      1 NMatT0=    0 NMatD0=    1 NMtDS0=    0 NMtDT0=    0
 Petite list used in FoFCou.
 Harris En= -280.573928805617    
 Leave Link  401 at Thu Sep  8 15:15:06 2022, MaxMem= 24159191040 cpu:        10.6
 (Enter /public/home/users/caep010/software/Gaussian09/g09/l502.exe)
 Closed shell SCF:
 Using DIIS extrapolation, IDIIS=  1040.
 Integral symmetry usage will be decided dynamically.
 Keep R1 ints in memory in canonical form, NReq=13729312.
 IVT=       52505 IEndB=       52505 NGot= 24159191040 MDV= 24146384761
 LenX= 24146384761 LenY= 24146374320
 Requested convergence on RMS density matrix=1.00D-08 within 128 cycles.
 Requested convergence on MAX density matrix=1.00D-06.
 Requested convergence on             energy=1.00D-06.
 No special actions if energy rises.
 FoFCou: FMM=F IPFlag=           0 FMFlag=           0 FMFlg1=           0
         NFxFlg=           0 DoJE=F BraDBF=F KetDBF=F FulRan=T
         wScrn=  0.000000 ICntrl=     600 IOpCl=  0 I1Cent=           0 NGrid=           0
         NMat0=    1 NMatS0=   5050 NMatT0=    0 NMatD0=    1 NMtDS0=    0 NMtDT0=    0
 Symmetry not used in FoFCou.
 Integral accuracy reduced to 1.0D-05 until final iterations.

 Cycle   1  Pass 0  IDiag  1:
 E= -280.562415737331    
 DIIS: error= 4.71D-04 at cycle   1 NSaved=   1.
 NSaved= 1 IEnMin= 1 EnMin= -280.562415737331     IErMin= 1 ErrMin= 4.71D-04
 ErrMax= 4.71D-04  0.00D+00 EMaxC= 1.00D-01 BMatC= 5.38D-05 BMatP= 5.38D-05
 IDIUse=3 WtCom= 9.95D-01 WtEn= 4.71D-03
 Coeff-Com:  0.100D+01
 Coeff-En:   0.100D+01
 Coeff:      0.100D+01
 Gap=     1.538 Goal=   None    Shift=    0.000
 RMSDP=1.34D-04 MaxDP=1.86D-03              OVMax= 2.38D-03

 Cycle   2  Pass 0  IDiag  1:
 E= -280.562475009899     Delta-E=       -0.000059272568 Rises=F Damp=F
 DIIS: error= 3.33D-04 at cycle   2 NSaved=   2.
 NSaved= 2 IEnMin= 2 EnMin= -280.562475009899     IErMin= 2 ErrMin= 3.33D-04
 ErrMax= 3.33D-04  0.00D+00 EMaxC= 1.00D-01 BMatC= 1.45D-05 BMatP= 5.38D-05
 IDIUse=3 WtCom= 9.97D-01 WtEn= 3.33D-03
 Coeff-Com:  0.273D+00 0.727D+00
 Coeff-En:   0.000D+00 0.100D+01
 Coeff:      0.272D+00 0.728D+00
 Gap=     0.248 Goal=   None    Shift=    0.000
 RMSDP=7.14D-05 MaxDP=1.67D-03 DE=-5.93D-05 OVMax= 1.74D-03

 Cycle   3  Pass 0  IDiag  1:
 E= -280.562474677143     Delta-E=        0.000000332757 Rises=F Damp=F
 DIIS: error= 4.15D-04 at cycle   3 NSaved=   3.
 NSaved= 3 IEnMin= 2 EnMin= -280.562475009899     IErMin= 2 ErrMin= 3.33D-04
 ErrMax= 4.15D-04  0.00D+00 EMaxC= 1.00D-01 BMatC= 1.49D-05 BMatP= 1.45D-05
 IDIUse=3 WtCom= 9.96D-01 WtEn= 4.15D-03
 Coeff-Com:  0.165D-01 0.501D+00 0.482D+00
 Coeff-En:   0.000D+00 0.506D+00 0.494D+00
 Coeff:      0.164D-01 0.501D+00 0.482D+00
 Gap=     0.248 Goal=   None    Shift=    0.000
 RMSDP=4.30D-05 MaxDP=9.86D-04 DE= 3.33D-07 OVMax= 1.32D-03

 Cycle   4  Pass 0  IDiag  1:
 E= -280.562485650914     Delta-E=       -0.000010973771 Rises=F Damp=F
 DIIS: error= 9.46D-05 at cycle   4 NSaved=   4.
 NSaved= 4 IEnMin= 4 EnMin= -280.562485650914     IErMin= 4 ErrMin= 9.46D-05
 ErrMax= 9.46D-05  0.00D+00 EMaxC= 1.00D-01 BMatC= 9.93D-07 BMatP= 1.45D-05
 IDIUse=1 WtCom= 1.00D+00 WtEn= 0.00D+00
 Coeff-Com: -0.156D-01 0.221D+00 0.290D+00 0.505D+00
 Coeff:     -0.156D-01 0.221D+00 0.290D+00 0.505D+00
 Gap=     0.247 Goal=   None    Shift=    0.000
 RMSDP=9.82D-06 MaxDP=2.07D-04 DE=-1.10D-05 OVMax= 3.00D-04

 Initial convergence to 1.0D-05 achieved.  Increase integral accuracy.
 Cycle   5  Pass 1  IDiag  1:
 E= -280.562480046979     Delta-E=        0.000005603934 Rises=F Damp=F
 DIIS: error= 1.06D-05 at cycle   1 NSaved=   1.
 NSaved= 1 IEnMin= 1 EnMin= -280.562480046979     IErMin= 1 ErrMin= 1.06D-05
 ErrMax= 1.06D-05  0.00D+00 EMaxC= 1.00D-01 BMatC= 2.41D-08 BMatP= 2.41D-08
 IDIUse=1 WtCom= 1.00D+00 WtEn= 0.00D+00
 Coeff-Com:  0.100D+01
 Coeff:      0.100D+01
 Gap=     0.247 Goal=   None    Shift=    0.000
 RMSDP=9.82D-06 MaxDP=2.07D-04 DE= 5.60D-06 OVMax= 8.36D-05

 Cycle   6  Pass 1  IDiag  1:
 E= -280.562480043305     Delta-E=        0.000000003674 Rises=F Damp=F
 DIIS: error= 1.31D-05 at cycle   2 NSaved=   2.
 NSaved= 2 IEnMin= 1 EnMin= -280.562480046979     IErMin= 1 ErrMin= 1.06D-05
 ErrMax= 1.31D-05  0.00D+00 EMaxC= 1.00D-01 BMatC= 3.35D-08 BMatP= 2.41D-08
 IDIUse=1 WtCom= 1.00D+00 WtEn= 0.00D+00
 Coeff-Com:  0.546D+00 0.454D+00
 Coeff:      0.546D+00 0.454D+00
 Gap=     0.247 Goal=   None    Shift=    0.000
 RMSDP=2.01D-06 MaxDP=4.27D-05 DE= 3.67D-09 OVMax= 5.10D-05

 Cycle   7  Pass 1  IDiag  1:
 E= -280.562480071487     Delta-E=       -0.000000028182 Rises=F Damp=F
 DIIS: error= 2.99D-06 at cycle   3 NSaved=   3.
 NSaved= 3 IEnMin= 3 EnMin= -280.562480071487     IErMin= 3 ErrMin= 2.99D-06
 ErrMax= 2.99D-06  0.00D+00 EMaxC= 1.00D-01 BMatC= 1.36D-09 BMatP= 2.41D-08
 IDIUse=1 WtCom= 1.00D+00 WtEn= 0.00D+00
 Coeff-Com:  0.121D+00 0.190D+00 0.689D+00
 Coeff:      0.121D+00 0.190D+00 0.689D+00
 Gap=     0.247 Goal=   None    Shift=    0.000
 RMSDP=4.09D-07 MaxDP=1.06D-05 DE=-2.82D-08 OVMax= 1.74D-05

 Cycle   8  Pass 1  IDiag  1:
 E= -280.562480072313     Delta-E=       -0.000000000826 Rises=F Damp=F
 DIIS: error= 1.68D-06 at cycle   4 NSaved=   4.
 NSaved= 4 IEnMin= 4 EnMin= -280.562480072313     IErMin= 4 ErrMin= 1.68D-06
 ErrMax= 1.68D-06  0.00D+00 EMaxC= 1.00D-01 BMatC= 3.51D-10 BMatP= 1.36D-09
 IDIUse=1 WtCom= 1.00D+00 WtEn= 0.00D+00
 Coeff-Com:  0.525D-02 0.555D-01 0.394D+00 0.545D+00
 Coeff:      0.525D-02 0.555D-01 0.394D+00 0.545D+00
 Gap=     0.247 Goal=   None    Shift=    0.000
 RMSDP=2.25D-07 MaxDP=3.76D-06 DE=-8.26D-10 OVMax= 7.23D-06

 Cycle   9  Pass 1  IDiag  1:
 E= -280.562480072586     Delta-E=       -0.000000000273 Rises=F Damp=F
 DIIS: error= 6.58D-07 at cycle   5 NSaved=   5.
 NSaved= 5 IEnMin= 5 EnMin= -280.562480072586     IErMin= 5 ErrMin= 6.58D-07
 ErrMax= 6.58D-07  0.00D+00 EMaxC= 1.00D-01 BMatC= 4.15D-11 BMatP= 3.51D-10
 IDIUse=1 WtCom= 1.00D+00 WtEn= 0.00D+00
 Coeff-Com: -0.703D-02 0.191D-01 0.191D+00 0.330D+00 0.467D+00
 Coeff:     -0.703D-02 0.191D-01 0.191D+00 0.330D+00 0.467D+00
 Gap=     0.247 Goal=   None    Shift=    0.000
 RMSDP=6.84D-08 MaxDP=1.55D-06 DE=-2.73D-10 OVMax= 2.43D-06

 Cycle  10  Pass 1  IDiag  1:
 E= -280.562480072611     Delta-E=       -0.000000000026 Rises=F Damp=F
 DIIS: error= 2.55D-07 at cycle   6 NSaved=   6.
 NSaved= 6 IEnMin= 6 EnMin= -280.562480072611     IErMin= 6 ErrMin= 2.55D-07
 ErrMax= 2.55D-07  0.00D+00 EMaxC= 1.00D-01 BMatC= 3.68D-12 BMatP= 4.15D-11
 IDIUse=1 WtCom= 1.00D+00 WtEn= 0.00D+00
 Coeff-Com: -0.395D-02 0.426D-02 0.586D-01 0.113D+00 0.277D+00 0.551D+00
 Coeff:     -0.395D-02 0.426D-02 0.586D-01 0.113D+00 0.277D+00 0.551D+00
 Gap=     0.247 Goal=   None    Shift=    0.000
 RMSDP=1.88D-08 MaxDP=3.19D-07 DE=-2.57D-11 OVMax= 3.98D-07

 Cycle  11  Pass 1  IDiag  1:
 E= -280.562480072612     Delta-E=       -0.000000000001 Rises=F Damp=F
 DIIS: error= 2.58D-08 at cycle   7 NSaved=   7.
 NSaved= 7 IEnMin= 7 EnMin= -280.562480072612     IErMin= 7 ErrMin= 2.58D-08
 ErrMax= 2.58D-08  0.00D+00 EMaxC= 1.00D-01 BMatC= 1.55D-13 BMatP= 3.68D-12
 IDIUse=1 WtCom= 1.00D+00 WtEn= 0.00D+00
 Coeff-Com: -0.156D-02 0.715D-03 0.165D-01 0.331D-01 0.109D+00 0.253D+00
 Coeff-Com:  0.590D+00
 Coeff:     -0.156D-02 0.715D-03 0.165D-01 0.331D-01 0.109D+00 0.253D+00
 Coeff:      0.590D+00
 Gap=     0.247 Goal=   None    Shift=    0.000
 RMSDP=3.97D-09 MaxDP=7.31D-08 DE=-1.14D-12 OVMax= 1.20D-07

 SCF Done:  E(RB3LYP) =  -280.562480073     A.U. after   11 cycles
            NFock= 11  Conv=0.40D-08     -V/T= 2.0089
 KE= 2.780799059857D+02 PE=-1.027391146574D+03 EE= 2.835133028650D+02
 Leave Link  502 at Thu Sep  8 15:15:07 2022, MaxMem= 24159191040 cpu:        29.3
 (Enter /public/home/users/caep010/software/Gaussian09/g09/l701.exe)
 Compute integral first derivatives.
 ... and contract with generalized density number  0.
 Leave Link  701 at Thu Sep  8 15:15:07 2022, MaxMem= 24159191040 cpu:        10.2
 (Enter /public/home/users/caep010/software/Gaussian09/g09/l702.exe)
 L702 exits ... SP integral derivatives will be done elsewhere.
 Leave Link  702 at Thu Sep  8 15:15:07 2022, MaxMem= 24159191040 cpu:         0.5
 (Enter /public/home/users/caep010/software/Gaussian09/g09/l703.exe)
 Compute integral first derivatives, UseDBF=F ICtDFT=           0.
 Integral derivatives from FoFJK, PRISM(SPDF).
 Calling FoFJK, ICntrl=      2127 FMM=F ISym2X=0 I1Cent= 0 IOpClX= 0 NMat=1 NMatS=1 NMatT=0.
 FoFJK:  IHMeth= 1 ICntrl=    2127 DoSepK=F KAlg= 0 I1Cent=   0 FoldK=F
 IRaf=         0 NMat=   1 IRICut=       1 DoRegI=T DoRafI=F ISym2E= 0.
 FoFCou: FMM=F IPFlag=           0 FMFlag=      100000 FMFlg1=         800
         NFxFlg=           0 DoJE=F BraDBF=F KetDBF=F FulRan=T
         wScrn=  0.000000 ICntrl=    2127 IOpCl=  0 I1Cent=           0 NGrid=           0
         NMat0=    1 NMatS0=      1 NMatT0=    0 NMatD0=    1 NMtDS0=    0 NMtDT0=    0
 Symmetry not used in FoFCou.
 Leave Link  703 at Thu Sep  8 15:15:07 2022, MaxMem= 24159191040 cpu:         9.2
 (Enter /public/home/users/caep010/software/Gaussian09/g09/l716.exe)
 Dipole        =-1.17231641D+00-3.28178591D-01 3.71447022D-01
 ***** Axes restored to original set *****
 -------------------------------------------------------------------
 Center     Atomic                   Forces (Hartrees/Bohr)
 Number     Number              X              Y              Z
 -------------------------------------------------------------------
      1        7          -0.000481568    0.000083323    0.000130533
      2        6          -0.000629101   -0.000042369    0.000340409
      3        8          -0.000798633    0.000176389   -0.000370657
      4        7           0.000402983   -0.000754897    0.000765189
      5        7           0.001340509    0.001397407   -0.001691933
      6        1          -0.000081172   -0.000035656   -0.000086271
      7        1          -0.000221732   -0.000029813   -0.000094895
      8        1           0.000135113    0.000171305    0.000026078
      9        1           0.000211620   -0.000911453    0.001149127
     10        1           0.000121981   -0.000054236   -0.000167580
 -------------------------------------------------------------------
 Cartesian Forces:  Max     0.001691933 RMS     0.000629029
 Leave Link  716 at Thu Sep  8 15:15:08 2022, MaxMem= 24159191040 cpu:         0.7
 (Enter /public/home/users/caep010/software/Gaussian09/g09/l103.exe)

 GradGradGradGradGradGradGradGradGradGradGradGradGradGradGradGradGradGrad
 Berny optimization.
 Using GEDIIS/GDIIS optimizer.
 FormGI is forming the generalized inverse of G from B-inverse, IUseBI=4.
 Internal  Forces:  Max     0.005954551 RMS     0.001199236
 Search for a local minimum.
 Step number   2 out of a maximum of   41
 All quantities printed in internal units (Hartrees-Bohrs-Radians)
 RMS Force = .11992D-02 SwitMx=.10000D-02 MixMth= 1
 Mixed Optimization -- RFO/linear search
 Update second derivatives using D2CorX and points    1    2
 DE= -5.98D-05 DEPred=-8.89D-05 R= 6.73D-01
 TightC=F SS=  1.41D+00  RLast= 2.15D-02 DXNew= 5.0454D-01 6.4362D-02
 Trust test= 6.73D-01 RLast= 2.15D-02 DXMaxT set to 3.00D-01
 ITU=  1  0
 Use linear search instead of GDIIS.
     Eigenvalues ---    0.00563   0.01978   0.02114   0.02350   0.04149
     Eigenvalues ---    0.09973   0.10819   0.15466   0.16000   0.16000
     Eigenvalues ---    0.16000   0.16168   0.23828   0.24998   0.25935
     Eigenvalues ---    0.34559   0.40502   0.44350   0.45027   0.46290
     Eigenvalues ---    0.47367   0.50642   0.61487   0.83261
 RFO step:  Lambda=-9.01921038D-05 EMin= 5.63474418D-03
 Quartic linear search produced a step of -0.24500.
 Iteration  1 RMS(Cart)=  0.01211748 RMS(Int)=  0.00005380
 Iteration  2 RMS(Cart)=  0.00008719 RMS(Int)=  0.00000147
 Iteration  3 RMS(Cart)=  0.00000000 RMS(Int)=  0.00000147
 ITry= 1 IFail=0 DXMaxC= 3.52D-02 DCOld= 1.00D+10 DXMaxT= 3.00D-01 DXLimC= 3.00D+00 Rises=F
 Variable       Old X    -DE/DX   Delta X   Delta X   Delta X     New X
                                 (Linear)    (Quad)   (Total)
    R1        2.60768  -0.00077  -0.00072   0.00102   0.00030   2.60799
    R2        1.90923  -0.00008  -0.00075   0.00217   0.00142   1.91065
    R3        1.90678  -0.00013  -0.00073   0.00202   0.00129   1.90807
    R4        2.39513   0.00060  -0.00267   0.00875   0.00608   2.40121
    R5        2.55823  -0.00132  -0.00140   0.00246   0.00106   2.55929
    R6        2.75718  -0.00118  -0.00175   0.00298   0.00123   2.75841
    R7        1.92996   0.00003  -0.00078   0.00243   0.00165   1.93161
    R8        2.06890  -0.00133  -0.00067  -0.00089  -0.00156   2.06734
    R9        1.93106   0.00003  -0.00077   0.00242   0.00165   1.93271
    A1        2.01289   0.00001  -0.00023   0.00079   0.00056   2.01345
    A2        1.99019  -0.00023  -0.00004  -0.00093  -0.00097   1.98922
    A3        2.01635   0.00017  -0.00077   0.00317   0.00240   2.01875
    A4        2.10431   0.00059  -0.00002   0.00181   0.00178   2.10609
    A5        2.01521   0.00040  -0.00017   0.00170   0.00153   2.01674
    A6        2.16320  -0.00099   0.00019  -0.00359  -0.00341   2.15979
    A7        1.79455  -0.00595  -0.00123  -0.01422  -0.01546   1.77909
    A8        1.93981   0.00009  -0.00013   0.00112   0.00100   1.94081
    A9        1.74964  -0.00110  -0.00195   0.00011  -0.00183   1.74780
   A10        1.94224   0.00012   0.00004   0.00075   0.00079   1.94303
   A11        1.96971   0.00023   0.00062  -0.00141  -0.00078   1.96893
   A12        1.89318   0.00034   0.00065   0.00066   0.00131   1.89449
   A13        1.96727   0.00024   0.00059  -0.00123  -0.00065   1.96663
    D1        2.82506   0.00007  -0.00049   0.00347   0.00299   2.82805
    D2       -0.34809  -0.00005  -0.00089   0.00057  -0.00032  -0.34841
    D3        0.43143   0.00004   0.00106  -0.00145  -0.00039   0.43104
    D4       -2.74172  -0.00008   0.00066  -0.00435  -0.00370  -2.74542
    D5       -3.08129  -0.00005  -0.00051   0.00047  -0.00005  -3.08134
    D6        0.02755  -0.00014  -0.00093  -0.00243  -0.00336   0.02419
    D7       -2.10578   0.00029   0.00098  -0.00055   0.00043  -2.10535
    D8       -0.01932  -0.00001   0.00059  -0.00163  -0.00105  -0.02037
    D9        2.06536  -0.00029   0.00022  -0.00268  -0.00246   2.06290
         Item               Value     Threshold  Converged?
 Maximum Force            0.005955     0.000450     NO 
 RMS     Force            0.001199     0.000300     NO 
 Maximum Displacement     0.035156     0.001800     NO 
 RMS     Displacement     0.012165     0.001200     NO 
 Predicted change in Energy=-5.218822D-05
 Lowest energy point so far.  Saving SCF results.
 GradGradGradGradGradGradGradGradGradGradGradGradGradGradGradGradGradGrad

 Leave Link  103 at Thu Sep  8 15:15:08 2022, MaxMem= 24159191040 cpu:         1.6
 (Enter /public/home/users/caep010/software/Gaussian09/g09/l202.exe)
                          Input orientation:                          
 ---------------------------------------------------------------------
 Center     Atomic      Atomic             Coordinates (Angstroms)
 Number     Number       Type             X           Y           Z
 ---------------------------------------------------------------------
      1          7           0        1.911042   -0.189593    0.186745
      2          6           0        0.577803    0.083815   -0.042084
      3          8           0        0.227617    0.855318   -0.989047
      4          7           0       -0.297163   -0.552390    0.772692
      5          7           0       -1.582258   -0.126633    0.226844
      6          1           0        2.125367   -0.565879    1.100386
      7          1           0        2.540080    0.524531   -0.150667
      8          1           0       -2.138097    0.364568    0.930110
      9          1           0       -1.241243    0.530167   -0.578844
     10          1           0       -2.123052   -0.923904   -0.116534
 ---------------------------------------------------------------------
                    Distance matrix (angstroms):
                    1          2          3          4          5
     1  N    0.000000
     2  C    1.380087   0.000000
     3  O    2.303964   1.270664   0.000000
     4  N    2.313249   1.354319   2.315331   0.000000
     5  N    3.494098   2.186887   2.391290   1.459688   0.000000
     6  H    1.011071   2.030342   3.160219   2.444629   3.834383
     7  H    1.009708   2.014088   2.481892   3.172112   4.190490
     8  H    4.153940   2.898292   3.085547   2.062676   1.022164
     9  H    3.322812   1.948402   1.559339   1.972274   1.093989
    10  H    4.111582   2.883689   3.074501   2.064611   1.022745
                    6          7          8          9         10
     6  H    0.000000
     7  H    1.710589   0.000000
     8  H    4.367133   4.804062   0.000000
     9  H    3.918570   3.805492   1.763155   0.000000
    10  H    4.433750   4.883025   1.660076   1.762283   0.000000
 Stoichiometry    CH5N3O
 Framework group  C1[X(CH5N3O)]
 Deg. of freedom    24
 Full point group                 C1      NOp   1
 RotChk:  IX=0 Diff= 5.19D-03
 Largest Abelian subgroup         C1      NOp   1
 Largest concise Abelian subgroup C1      NOp   1
                         Standard orientation:                         
 ---------------------------------------------------------------------
 Center     Atomic      Atomic             Coordinates (Angstroms)
 Number     Number       Type             X           Y           Z
 ---------------------------------------------------------------------
      1          7           0        1.766400   -0.405962   -0.078032
      2          6           0        0.467092    0.053613   -0.005715
      3          8           0        0.220045    1.299991    0.004192
      4          7           0       -0.491037   -0.903437    0.009247
      5          7           0       -1.713917   -0.106442    0.001972
      6          1           0        1.901333   -1.368720    0.199735
      7          1           0        2.453054    0.249060    0.266876
      8          1           0       -2.286583   -0.300601    0.826093
      9          1           0       -1.287356    0.900931    0.009649
     10          1           0       -2.273481   -0.291385   -0.833906
 ---------------------------------------------------------------------
 Rotational constants (GHZ):     11.1245919      4.3926364      3.2122008
 Leave Link  202 at Thu Sep  8 15:15:08 2022, MaxMem= 24159191040 cpu:         0.2
 (Enter /public/home/users/caep010/software/Gaussian09/g09/l301.exe)
 Standard basis: 6-31G(d,p) (6D, 7F)
 Ernie: Thresh=  0.10000D-02 Tol=  0.10000D-05 Strict=F.
 There are   100 symmetry adapted cartesian basis functions of A   symmetry.
 There are   100 symmetry adapted basis functions of A   symmetry.
   100 basis functions,   175 primitive gaussians,   100 cartesian basis functions
    20 alpha electrons       20 beta electrons
       nuclear repulsion energy       185.4257152658 Hartrees.
 IExCor=  402 DFT=T Ex+Corr=B3LYP ExCW=0 ScaHFX=  0.200000
 ScaDFX=  0.800000  0.720000  1.000000  0.810000 ScalE2=  1.000000  1.000000
 IRadAn=      0 IRanWt=     -1 IRanGd=            0 ICorTp=0 IEmpDi=  4
 NAtoms=   10 NActive=   10 NUniq=   10 SFac= 1.00D+00 NAtFMM=   60 NAOKFM=F Big=F
 Integral buffers will be    131072 words long.
 Raffenetti 2 integral format.
 Two-electron integral symmetry is turned on.
 Leave Link  301 at Thu Sep  8 15:15:08 2022, MaxMem= 24159191040 cpu:         1.7
 (Enter /public/home/users/caep010/software/Gaussian09/g09/l302.exe)
 NPDir=0 NMtPBC=     1 NCelOv=     1 NCel=       1 NClECP=     1 NCelD=      1
         NCelK=      1 NCelE2=     1 NClLst=     1 CellRange=     0.0.
 One-electron integrals computed using PRISM.
 NBasis=   100 RedAO= T EigKep=  3.39D-03  NBF=   100
 NBsUse=   100 1.00D-06 EigRej= -1.00D+00 NBFU=   100
 Precomputing XC quadrature grid using
 IXCGrd= 4 IRadAn=           0 IRanWt=          -1 IRanGd=           0 AccXCQ= 0.00D+00.
 Generated NRdTot=       0 NPtTot=           0 NUsed=           0 NTot=          32
 NSgBfM=   100   100   100   100   100 MxSgAt=    10 MxSgA2=    10.
 Leave Link  302 at Thu Sep  8 15:15:08 2022, MaxMem= 24159191040 cpu:        11.2
 (Enter /public/home/users/caep010/software/Gaussian09/g09/l303.exe)
 DipDrv:  MaxL=1.
 Leave Link  303 at Thu Sep  8 15:15:08 2022, MaxMem= 24159191040 cpu:         0.6
 (Enter /public/home/users/caep010/software/Gaussian09/g09/l401.exe)
 Initial guess from the checkpoint file:  "B3LYP6-31Gdp.Frag_980.chk"
 B after Tr=     0.000000   -0.000000   -0.000000
         Rot=    0.999997   -0.000099    0.000017   -0.002626 Ang=  -0.30 deg.
 Guess basis will be translated and rotated to current coordinates.
 JPrj=2 DoOrth=T DoCkMO=T.
 Generating alternative initial guess.
 ExpMin= 1.61D-01 ExpMax= 5.48D+03 ExpMxC= 8.25D+02 IAcc=1 IRadAn=         1 AccDes= 0.00D+00
 Harris functional with IExCor=  402 and IRadAn=       1 diagonalized for initial guess.
 HarFok:  IExCor=  402 AccDes= 0.00D+00 IRadAn=         1 IDoV= 1 UseB2=F ITyADJ=14
 ICtDFT=  3500011 ScaDFX=  1.000000  1.000000  1.000000  1.000000
 FoFCou: FMM=F IPFlag=           0 FMFlag=      100000 FMFlg1=           0
         NFxFlg=           0 DoJE=T BraDBF=F KetDBF=T FulRan=T
         wScrn=  0.000000 ICntrl=     500 IOpCl=  0 I1Cent=   200000004 NGrid=           0
         NMat0=    1 NMatS0=      1 NMatT0=    0 NMatD0=    1 NMtDS0=    0 NMtDT0=    0
 Petite list used in FoFCou.
 Harris En= -280.572351561586    
 Leave Link  401 at Thu Sep  8 15:15:09 2022, MaxMem= 24159191040 cpu:        15.0
 (Enter /public/home/users/caep010/software/Gaussian09/g09/l502.exe)
 Closed shell SCF:
 Using DIIS extrapolation, IDIIS=  1040.
 Integral symmetry usage will be decided dynamically.
 Keep R1 ints in memory in canonical form, NReq=13729312.
 IVT=       52505 IEndB=       52505 NGot= 24159191040 MDV= 24146384761
 LenX= 24146384761 LenY= 24146374320
 Requested convergence on RMS density matrix=1.00D-08 within 128 cycles.
 Requested convergence on MAX density matrix=1.00D-06.
 Requested convergence on             energy=1.00D-06.
 No special actions if energy rises.
 FoFCou: FMM=F IPFlag=           0 FMFlag=           0 FMFlg1=           0
         NFxFlg=           0 DoJE=F BraDBF=F KetDBF=F FulRan=T
         wScrn=  0.000000 ICntrl=     600 IOpCl=  0 I1Cent=           0 NGrid=           0
         NMat0=    1 NMatS0=   5050 NMatT0=    0 NMatD0=    1 NMtDS0=    0 NMtDT0=    0
 Symmetry not used in FoFCou.
 Integral accuracy reduced to 1.0D-05 until final iterations.

 Cycle   1  Pass 0  IDiag  1:
 E= -280.562269555709    
 DIIS: error= 7.33D-04 at cycle   1 NSaved=   1.
 NSaved= 1 IEnMin= 1 EnMin= -280.562269555709     IErMin= 1 ErrMin= 7.33D-04
 ErrMax= 7.33D-04  0.00D+00 EMaxC= 1.00D-01 BMatC= 1.25D-04 BMatP= 1.25D-04
 IDIUse=3 WtCom= 9.93D-01 WtEn= 7.33D-03
 Coeff-Com:  0.100D+01
 Coeff-En:   0.100D+01
 Coeff:      0.100D+01
 Gap=     1.534 Goal=   None    Shift=    0.000
 RMSDP=2.10D-04 MaxDP=3.35D-03              OVMax= 4.18D-03

 Cycle   2  Pass 0  IDiag  1:
 E= -280.562459187609     Delta-E=       -0.000189631900 Rises=F Damp=F
 DIIS: error= 4.79D-04 at cycle   2 NSaved=   2.
 NSaved= 2 IEnMin= 2 EnMin= -280.562459187609     IErMin= 2 ErrMin= 4.79D-04
 ErrMax= 4.79D-04  0.00D+00 EMaxC= 1.00D-01 BMatC= 1.65D-05 BMatP= 1.25D-04
 IDIUse=3 WtCom= 9.95D-01 WtEn= 4.79D-03
 Coeff-Com:  0.123D+00 0.877D+00
 Coeff-En:   0.000D+00 0.100D+01
 Coeff:      0.123D+00 0.877D+00
 Gap=     0.249 Goal=   None    Shift=    0.000
 RMSDP=9.33D-05 MaxDP=1.94D-03 DE=-1.90D-04 OVMax= 2.25D-03

 Cycle   3  Pass 0  IDiag  1:
 E= -280.562441282166     Delta-E=        0.000017905443 Rises=F Damp=F
 DIIS: error= 7.29D-04 at cycle   3 NSaved=   3.
 NSaved= 3 IEnMin= 2 EnMin= -280.562459187609     IErMin= 2 ErrMin= 4.79D-04
 ErrMax= 7.29D-04  0.00D+00 EMaxC= 1.00D-01 BMatC= 3.99D-05 BMatP= 1.65D-05
 IDIUse=3 WtCom= 2.70D-01 WtEn= 7.30D-01
 Coeff-Com: -0.269D-01 0.626D+00 0.401D+00
 Coeff-En:   0.000D+00 0.666D+00 0.334D+00
 Coeff:     -0.728D-02 0.655D+00 0.352D+00
 Gap=     0.249 Goal=   None    Shift=    0.000
 RMSDP=5.38D-05 MaxDP=1.26D-03 DE= 1.79D-05 OVMax= 1.65D-03

 Cycle   4  Pass 0  IDiag  1:
 E= -280.562472512013     Delta-E=       -0.000031229847 Rises=F Damp=F
 DIIS: error= 4.79D-05 at cycle   4 NSaved=   4.
 NSaved= 4 IEnMin= 4 EnMin= -280.562472512013     IErMin= 4 ErrMin= 4.79D-05
 ErrMax= 4.79D-05  0.00D+00 EMaxC= 1.00D-01 BMatC= 5.01D-07 BMatP= 1.65D-05
 IDIUse=1 WtCom= 1.00D+00 WtEn= 0.00D+00
 Coeff-Com: -0.187D-01 0.247D+00 0.112D+00 0.659D+00
 Coeff:     -0.187D-01 0.247D+00 0.112D+00 0.659D+00
 Gap=     0.249 Goal=   None    Shift=    0.000
 RMSDP=7.11D-06 MaxDP=1.90D-04 DE=-3.12D-05 OVMax= 1.81D-04

 Initial convergence to 1.0D-05 achieved.  Increase integral accuracy.
 Cycle   5  Pass 1  IDiag  1:
 E= -280.562462065469     Delta-E=        0.000010446544 Rises=F Damp=F
 DIIS: error= 2.60D-05 at cycle   1 NSaved=   1.
 NSaved= 1 IEnMin= 1 EnMin= -280.562462065469     IErMin= 1 ErrMin= 2.60D-05
 ErrMax= 2.60D-05  0.00D+00 EMaxC= 1.00D-01 BMatC= 1.03D-07 BMatP= 1.03D-07
 IDIUse=1 WtCom= 1.00D+00 WtEn= 0.00D+00
 Coeff-Com:  0.100D+01
 Coeff:      0.100D+01
 Gap=     0.249 Goal=   None    Shift=    0.000
 RMSDP=7.11D-06 MaxDP=1.90D-04 DE= 1.04D-05 OVMax= 1.87D-04

 Cycle   6  Pass 1  IDiag  1:
 E= -280.562461931586     Delta-E=        0.000000133883 Rises=F Damp=F
 DIIS: error= 4.64D-05 at cycle   2 NSaved=   2.
 NSaved= 2 IEnMin= 1 EnMin= -280.562462065469     IErMin= 1 ErrMin= 2.60D-05
 ErrMax= 4.64D-05  0.00D+00 EMaxC= 1.00D-01 BMatC= 2.73D-07 BMatP= 1.03D-07
 IDIUse=1 WtCom= 1.00D+00 WtEn= 0.00D+00
 Coeff-Com:  0.622D+00 0.378D+00
 Coeff:      0.622D+00 0.378D+00
 Gap=     0.249 Goal=   None    Shift=    0.000
 RMSDP=4.37D-06 MaxDP=9.79D-05 DE= 1.34D-07 OVMax= 1.38D-04

 Cycle   7  Pass 1  IDiag  1:
 E= -280.562462151810     Delta-E=       -0.000000220224 Rises=F Damp=F
 DIIS: error= 5.27D-06 at cycle   3 NSaved=   3.
 NSaved= 3 IEnMin= 3 EnMin= -280.562462151810     IErMin= 3 ErrMin= 5.27D-06
 ErrMax= 5.27D-06  0.00D+00 EMaxC= 1.00D-01 BMatC= 2.44D-09 BMatP= 1.03D-07
 IDIUse=1 WtCom= 1.00D+00 WtEn= 0.00D+00
 Coeff-Com:  0.256D+00 0.169D+00 0.575D+00
 Coeff:      0.256D+00 0.169D+00 0.575D+00
 Gap=     0.249 Goal=   None    Shift=    0.000
 RMSDP=7.83D-07 MaxDP=1.53D-05 DE=-2.20D-07 OVMax= 2.92D-05

 Cycle   8  Pass 1  IDiag  1:
 E= -280.562462152851     Delta-E=       -0.000000001041 Rises=F Damp=F
 DIIS: error= 4.11D-06 at cycle   4 NSaved=   4.
 NSaved= 4 IEnMin= 4 EnMin= -280.562462152851     IErMin= 4 ErrMin= 4.11D-06
 ErrMax= 4.11D-06  0.00D+00 EMaxC= 1.00D-01 BMatC= 1.26D-09 BMatP= 2.44D-09
 IDIUse=1 WtCom= 1.00D+00 WtEn= 0.00D+00
 Coeff-Com:  0.748D-02 0.131D-01 0.422D+00 0.558D+00
 Coeff:      0.748D-02 0.131D-01 0.422D+00 0.558D+00
 Gap=     0.249 Goal=   None    Shift=    0.000
 RMSDP=3.33D-07 MaxDP=7.18D-06 DE=-1.04D-09 OVMax= 9.62D-06

 Cycle   9  Pass 1  IDiag  1:
 E= -280.562462153858     Delta-E=       -0.000000001007 Rises=F Damp=F
 DIIS: error= 3.87D-07 at cycle   5 NSaved=   5.
 NSaved= 5 IEnMin= 5 EnMin= -280.562462153858     IErMin= 5 ErrMin= 3.87D-07
 ErrMax= 3.87D-07  0.00D+00 EMaxC= 1.00D-01 BMatC= 2.56D-11 BMatP= 1.26D-09
 IDIUse=1 WtCom= 1.00D+00 WtEn= 0.00D+00
 Coeff-Com: -0.462D-02 0.704D-03 0.187D+00 0.268D+00 0.549D+00
 Coeff:     -0.462D-02 0.704D-03 0.187D+00 0.268D+00 0.549D+00
 Gap=     0.249 Goal=   None    Shift=    0.000
 RMSDP=5.15D-08 MaxDP=1.15D-06 DE=-1.01D-09 OVMax= 1.85D-06

 Cycle  10  Pass 1  IDiag  1:
 E= -280.562462153881     Delta-E=       -0.000000000023 Rises=F Damp=F
 DIIS: error= 1.37D-07 at cycle   6 NSaved=   6.
 NSaved= 6 IEnMin= 6 EnMin= -280.562462153881     IErMin= 6 ErrMin= 1.37D-07
 ErrMax= 1.37D-07  0.00D+00 EMaxC= 1.00D-01 BMatC= 3.59D-12 BMatP= 2.56D-11
 IDIUse=1 WtCom= 1.00D+00 WtEn= 0.00D+00
 Coeff-Com: -0.373D-02-0.134D-02 0.567D-01 0.864D-01 0.304D+00 0.558D+00
 Coeff:     -0.373D-02-0.134D-02 0.567D-01 0.864D-01 0.304D+00 0.558D+00
 Gap=     0.249 Goal=   None    Shift=    0.000
 RMSDP=1.51D-08 MaxDP=3.35D-07 DE=-2.29D-11 OVMax= 4.99D-07

 Cycle  11  Pass 1  IDiag  1:
 E= -280.562462153887     Delta-E=       -0.000000000006 Rises=F Damp=F
 DIIS: error= 2.25D-08 at cycle   7 NSaved=   7.
 NSaved= 7 IEnMin= 7 EnMin= -280.562462153887     IErMin= 7 ErrMin= 2.25D-08
 ErrMax= 2.25D-08  0.00D+00 EMaxC= 1.00D-01 BMatC= 8.27D-14 BMatP= 3.59D-12
 IDIUse=1 WtCom= 1.00D+00 WtEn= 0.00D+00
 Coeff-Com: -0.126D-02-0.603D-03 0.149D-01 0.228D-01 0.965D-01 0.224D+00
 Coeff-Com:  0.644D+00
 Coeff:     -0.126D-02-0.603D-03 0.149D-01 0.228D-01 0.965D-01 0.224D+00
 Coeff:      0.644D+00
 Gap=     0.249 Goal=   None    Shift=    0.000
 RMSDP=3.36D-09 MaxDP=7.95D-08 DE=-5.80D-12 OVMax= 7.98D-08

 SCF Done:  E(RB3LYP) =  -280.562462154     A.U. after   11 cycles
            NFock= 11  Conv=0.34D-08     -V/T= 2.0089
 KE= 2.780841953775D+02 PE=-1.027766099526D+03 EE= 2.836937267293D+02
 Leave Link  502 at Thu Sep  8 15:15:10 2022, MaxMem= 24159191040 cpu:        22.3
 (Enter /public/home/users/caep010/software/Gaussian09/g09/l701.exe)
 Compute integral first derivatives.
 ... and contract with generalized density number  0.
 Leave Link  701 at Thu Sep  8 15:15:10 2022, MaxMem= 24159191040 cpu:        10.8
 (Enter /public/home/users/caep010/software/Gaussian09/g09/l702.exe)
 L702 exits ... SP integral derivatives will be done elsewhere.
 Leave Link  702 at Thu Sep  8 15:15:10 2022, MaxMem= 24159191040 cpu:         0.5
 (Enter /public/home/users/caep010/software/Gaussian09/g09/l703.exe)
 Compute integral first derivatives, UseDBF=F ICtDFT=           0.
 Integral derivatives from FoFJK, PRISM(SPDF).
 Calling FoFJK, ICntrl=      2127 FMM=F ISym2X=0 I1Cent= 0 IOpClX= 0 NMat=1 NMatS=1 NMatT=0.
 FoFJK:  IHMeth= 1 ICntrl=    2127 DoSepK=F KAlg= 0 I1Cent=   0 FoldK=F
 IRaf=         0 NMat=   1 IRICut=       1 DoRegI=T DoRafI=F ISym2E= 0.
 FoFCou: FMM=F IPFlag=           0 FMFlag=      100000 FMFlg1=         800
         NFxFlg=           0 DoJE=F BraDBF=F KetDBF=F FulRan=T
         wScrn=  0.000000 ICntrl=    2127 IOpCl=  0 I1Cent=           0 NGrid=           0
         NMat0=    1 NMatS0=      1 NMatT0=    0 NMatD0=    1 NMtDS0=    0 NMtDT0=    0
 Symmetry not used in FoFCou.
 Leave Link  703 at Thu Sep  8 15:15:11 2022, MaxMem= 24159191040 cpu:         8.8
 (Enter /public/home/users/caep010/software/Gaussian09/g09/l716.exe)
 Dipole        =-1.12623007D+00-3.14221848D-01 3.71880236D-01
 ***** Axes restored to original set *****
 -------------------------------------------------------------------
 Center     Atomic                   Forces (Hartrees/Bohr)
 Number     Number              X              Y              Z
 -------------------------------------------------------------------
      1        7          -0.000779866    0.001064725   -0.000360708
      2        6           0.000936296   -0.000649848    0.000246518
      3        8           0.002207466   -0.000688340    0.001098455
      4        7           0.000287007    0.001873285   -0.002252122
      5        7          -0.003761969   -0.001701148    0.002359759
      6        1          -0.000246455    0.000353377   -0.000713349
      7        1          -0.000343739   -0.000578505    0.000295326
      8        1           0.000382617   -0.000662825   -0.000270899
      9        1           0.000963865    0.000534267   -0.000913590
     10        1           0.000354777    0.000455014    0.000510610
 -------------------------------------------------------------------
 Cartesian Forces:  Max     0.003761969 RMS     0.001232880
 Leave Link  716 at Thu Sep  8 15:15:11 2022, MaxMem= 24159191040 cpu:         0.6
 (Enter /public/home/users/caep010/software/Gaussian09/g09/l103.exe)

 GradGradGradGradGradGradGradGradGradGradGradGradGradGradGradGradGradGrad
 Berny optimization.
 Using GEDIIS/GDIIS optimizer.
 FormGI is forming the generalized inverse of G from B-inverse, IUseBI=4.
 Internal  Forces:  Max     0.007402682 RMS     0.001567160
 Search for a local minimum.
 Step number   3 out of a maximum of   41
 All quantities printed in internal units (Hartrees-Bohrs-Radians)
 RMS Force = .15672D-02 SwitMx=.10000D-02 MixMth= 1
 Mixed Optimization -- RFO/linear search
 Update second derivatives using D2CorX and points    1    3    2
 DE=  1.79D-05 DEPred=-5.22D-05 R=-3.43D-01
 Trust test=-3.43D-01 RLast= 1.91D-02 DXMaxT set to 1.50D-01
 ITU= -1  1  0
 Use linear search instead of GDIIS.
 Energy rises -- skip Quadratic/GDIIS search.
 Quartic linear search produced a step of -0.56745.
 Iteration  1 RMS(Cart)=  0.00692102 RMS(Int)=  0.00001745
 Iteration  2 RMS(Cart)=  0.00002555 RMS(Int)=  0.00000033
 Iteration  3 RMS(Cart)=  0.00000000 RMS(Int)=  0.00000033
 ITry= 1 IFail=0 DXMaxC= 2.00D-02 DCOld= 1.00D+10 DXMaxT= 1.50D-01 DXLimC= 3.00D+00 Rises=T
 Variable       Old X    -DE/DX   Delta X   Delta X   Delta X     New X
                                 (Linear)    (Quad)   (Total)
    R1        2.60799  -0.00162  -0.00017   0.00000  -0.00017   2.60782
    R2        1.91065  -0.00083  -0.00080   0.00000  -0.00080   1.90984
    R3        1.90807  -0.00072  -0.00073   0.00000  -0.00073   1.90734
    R4        2.40121  -0.00185  -0.00345   0.00000  -0.00345   2.39776
    R5        2.55929   0.00057  -0.00060   0.00000  -0.00060   2.55869
    R6        2.75841   0.00079  -0.00070   0.00000  -0.00070   2.75771
    R7        1.93161  -0.00071  -0.00093   0.00000  -0.00093   1.93067
    R8        2.06734   0.00130   0.00088   0.00000   0.00088   2.06822
    R9        1.93271  -0.00071  -0.00094   0.00000  -0.00094   1.93177
    A1        2.01345  -0.00019  -0.00032   0.00000  -0.00032   2.01313
    A2        1.98922   0.00023   0.00055   0.00000   0.00055   1.98977
    A3        2.01875  -0.00005  -0.00136   0.00000  -0.00136   2.01739
    A4        2.10609  -0.00193  -0.00101   0.00000  -0.00101   2.10508
    A5        2.01674  -0.00037  -0.00087   0.00000  -0.00087   2.01587
    A6        2.15979   0.00230   0.00193   0.00000   0.00193   2.16172
    A7        1.77909   0.00740   0.00877   0.00000   0.00877   1.78786
    A8        1.94081  -0.00014  -0.00057   0.00000  -0.00056   1.94024
[...]
     24  0.483762D-04  0.357801D-03  0.337571D-03 -0.461393D-03  0.398005D-02
     25 -0.328229D-03  0.286189D-03 -0.904251D-03 -0.121126D-03  0.913565D-03
     26 -0.151452D-02  0.545171D-03  0.343151D-03 -0.419635D-03  0.903341D-03
     27 -0.550866D-03 -0.254397D-03  0.818599D-03  0.201190D-03 -0.111416D-02
     28 -0.874992D-03  0.588853D-04  0.858524D-03 -0.582647D-04 -0.418070D-03
     29 -0.792287D-02  0.114953D-02 -0.148317D-01  0.658863D-02  0.399971D-03
     30 -0.333515D-03  0.213123D-02 -0.599271D-03 -0.209944D-02  0.226187D-03
     31  0.759700D-02 -0.666519D-02  0.145019D-01 -0.103104D-02 -0.433159D-03
               11            12            13            14            15 
     11  0.102218D+00
     12 -0.434396D-01  0.661075D-01
     13 -0.230253D-01 -0.941562D-03  0.213942D+00
     14  0.200700D-01 -0.167608D-02 -0.474216D-01  0.195054D+00
     15  0.300272D-02  0.254244D-02 -0.166520D+00 -0.147580D+00  0.314099D+00
     16  0.146695D-01 -0.339234D-02 -0.110784D+00 -0.336416D-01  0.144447D+00
     17  0.689953D-04 -0.677307D-03 -0.783095D-03  0.373956D-02 -0.282587D-02
     18  0.289018D-02  0.284574D-03  0.204652D-01  0.303487D-01 -0.508248D-01
     19  0.453292D-03 -0.293921D-04 -0.673485D-03  0.330586D-02 -0.276777D-02
     20 -0.116390D-02  0.239459D-03 -0.863836D-02 -0.146910D-01  0.235335D-01
     21 -0.882506D-03  0.211527D-03  0.814750D-05 -0.502674D-02  0.502198D-02
     22 -0.107923D-02 -0.645386D-04 -0.923740D-02 -0.150516D-01  0.240959D-01
     23 -0.117126D-02  0.283234D-02  0.199898D-02  0.106690D-02 -0.391032D-02
     24  0.430073D-03  0.500402D-03 -0.161423D-02 -0.598658D-04  0.247165D-02
     25 -0.505722D-02 -0.307799D-03  0.118281D-02  0.192645D-03 -0.216168D-02
     26 -0.345588D-02 -0.263974D-02 -0.243040D-02 -0.934123D-03  0.422029D-02
     27 -0.962754D-04  0.226227D-02 -0.218314D-02 -0.323654D-03  0.184388D-02
     28  0.101923D-02 -0.235025D-03  0.238439D-02  0.989573D-03 -0.233408D-02
     29 -0.559678D-03  0.344120D-04 -0.388571D-03 -0.738631D-03  0.119194D-02
     30 -0.307988D-03  0.182085D-03  0.409464D-03  0.318069D-03 -0.379752D-03
     31  0.205736D-03  0.249922D-03  0.598993D-03  0.830510D-03 -0.136600D-02
               16            17            18            19            20 
     16  0.859708D+00
     17 -0.371303D-02  0.120982D+00
     18  0.125403D-01 -0.321122D-01  0.180828D+00
     19 -0.514073D-02 -0.250512D-01 -0.319444D-01  0.120707D+00
     20  0.838261D-02 -0.205107D-01 -0.477492D-01  0.116487D-02  0.693793D-01
     21 -0.187598D-01 -0.381541D-01 -0.121624D-01 -0.379313D-01  0.146883D-02
     22  0.904560D-02  0.104905D-02 -0.476813D-01 -0.205564D-01 -0.750460D-02
     23 -0.572103D-03 -0.131057D-02  0.145249D-02  0.978679D-03 -0.338103D-02
     24  0.310568D-02  0.277440D-02  0.815306D-04 -0.336436D-02  0.356344D-02
     25 -0.315348D-02 -0.921818D-03  0.923315D-03  0.116994D-02 -0.356521D-02
     26  0.524299D-03  0.316315D-02 -0.447645D-03 -0.317311D-02  0.337926D-02
     27  0.830972D-03 -0.560923D-02 -0.442765D-03  0.565316D-02  0.106422D-01
     28 -0.102525D-02 -0.132290D-02 -0.251135D-03  0.120029D-02  0.171140D-01
     29 -0.155007D-01  0.537438D-04 -0.297029D-01  0.170295D-01 -0.628408D-02
     30 -0.635943D-03  0.937132D-02 -0.265732D-03 -0.928357D-02  0.391545D-01
     31  0.144334D-01 -0.172361D-01  0.296551D-01 -0.118035D-03  0.511760D-02
               21            22            23            24            25 
     21  0.735743D-01
     22  0.137030D-02  0.694831D-01
     23 -0.104506D-03  0.244619D-02  0.201419D-01
     24  0.100311D-03 -0.318770D-02 -0.669728D-02  0.186273D-01
     25 -0.197884D-03  0.267640D-02  0.121857D-01 -0.127734D-01  0.176832D-01
     26  0.693334D-05 -0.295749D-02 -0.146535D-01  0.125512D-01 -0.727581D-02
     27 -0.623634D-04 -0.101819D-01  0.942611D-02 -0.115415D-01  0.718850D-02
     28  0.324842D-04 -0.167797D-01 -0.182740D-01  0.146296D-01 -0.186197D-01
     29  0.208244D-01 -0.514170D-02 -0.127501D-02  0.800491D-03 -0.113429D-02
     30  0.102904D-03 -0.390802D-01 -0.492072D-02  0.609205D-02 -0.511604D-02
     31 -0.206682D-01  0.646086D-02 -0.912814D-03  0.107202D-02 -0.105077D-02
               26            27            28            29            30 
     26  0.199289D-01
     27 -0.137791D-01  0.441069D-01
     28  0.142839D-01  0.222747D-01  0.565005D-01
     29  0.941216D-03  0.363675D-02  0.575315D-02  0.255933D-01
     30  0.589674D-02  0.133001D-01  0.247380D-01  0.235306D-02  0.511022D-01
     31  0.934062D-03  0.369516D-02  0.579787D-02 -0.125928D-01  0.214684D-02
               31 
     31  0.256079D-01
 Leave Link  716 at Thu Sep  8 15:15:35 2022, MaxMem= 24159191040 cpu:         1.2
 (Enter /public/home/users/caep010/software/Gaussian09/g09/l103.exe)

 GradGradGradGradGradGradGradGradGradGradGradGradGradGradGradGradGradGrad
 Berny optimization.
 Red2BG is reusing G-inverse.
 Internal  Forces:  Max     0.000132118 RMS     0.000057796
 Search for a local minimum.
 Step number   1 out of a maximum of    2
 All quantities printed in internal units (Hartrees-Bohrs-Radians)
 Second derivative matrix not updated -- analytic derivatives used.
 ITU=  0
     Eigenvalues ---    0.00882   0.01244   0.01307   0.05065   0.05420
     Eigenvalues ---    0.07297   0.08293   0.12014   0.12289   0.12798
     Eigenvalues ---    0.14186   0.15910   0.21154   0.25275   0.29210
     Eigenvalues ---    0.35368   0.42705   0.43472   0.46615   0.47286
     Eigenvalues ---    0.48311   0.51301   0.67228   1.08521
 Angle between quadratic step and forces=  54.20 degrees.
 Linear search not attempted -- first point.
 Iteration  1 RMS(Cart)=  0.00083140 RMS(Int)=  0.00000083
 Iteration  2 RMS(Cart)=  0.00000093 RMS(Int)=  0.00000032
 ITry= 1 IFail=0 DXMaxC= 1.68D-03 DCOld= 1.00D+10 DXMaxT= 3.00D-01 DXLimC= 3.00D+00 Rises=F
 Variable       Old X    -DE/DX   Delta X   Delta X   Delta X     New X
                                 (Linear)    (Quad)   (Total)
    R1        2.60410   0.00003   0.00000   0.00019   0.00019   2.60429
    R2        1.90877  -0.00001   0.00000   0.00003   0.00003   1.90880
    R3        1.90621   0.00002   0.00000   0.00007   0.00007   1.90628
    R4        2.39898  -0.00004   0.00000  -0.00015  -0.00015   2.39882
    R5        2.55616   0.00010   0.00000   0.00030   0.00030   2.55646
    R6        2.75898  -0.00012   0.00000  -0.00054  -0.00054   2.75844
    R7        1.92954   0.00007   0.00000   0.00019   0.00019   1.92972
    R8        2.07423  -0.00004   0.00000  -0.00014  -0.00014   2.07410
    R9        1.93062   0.00006   0.00000   0.00018   0.00018   1.93080
    A1        2.01580  -0.00007   0.00000  -0.00100  -0.00100   2.01479
    A2        1.99155   0.00002   0.00000  -0.00021  -0.00021   1.99134
    A3        2.02025   0.00001   0.00000  -0.00039  -0.00039   2.01986
    A4        2.10299   0.00001   0.00000   0.00016   0.00016   2.10315
    A5        2.01891   0.00001   0.00000  -0.00012  -0.00012   2.01880
    A6        2.16075  -0.00001   0.00000  -0.00000  -0.00000   2.16075
    A7        1.78692  -0.00013   0.00000  -0.00005  -0.00005   1.78687
    A8        1.93870   0.00009   0.00000   0.00062   0.00062   1.93933
    A9        1.74047  -0.00007   0.00000  -0.00001  -0.00001   1.74046
   A10        1.94121   0.00004   0.00000   0.00055   0.00055   1.94175
   A11        1.97415  -0.00005   0.00000  -0.00056  -0.00056   1.97358
   A12        1.89539  -0.00002   0.00000  -0.00019  -0.00019   1.89520
   A13        1.97112   0.00002   0.00000  -0.00034  -0.00034   1.97079
    D1        2.82956  -0.00006   0.00000  -0.00103  -0.00103   2.82853
    D2       -0.34579   0.00004   0.00000   0.00032   0.00032  -0.34546
    D3        0.42457  -0.00003   0.00000   0.00105   0.00105   0.42562
    D4       -2.75078   0.00007   0.00000   0.00241   0.00241  -2.74837
    D5       -3.08206  -0.00010   0.00000  -0.00113  -0.00113  -3.08318
    D6        0.02453   0.00000   0.00000   0.00028   0.00028   0.02482
    D7       -2.10345   0.00002   0.00000  -0.00031  -0.00031  -2.10375
    D8       -0.01733  -0.00004   0.00000  -0.00070  -0.00070  -0.01803
    D9        2.06636  -0.00004   0.00000  -0.00086  -0.00087   2.06549
         Item               Value     Threshold  Converged?
 Maximum Force            0.000132     0.000450     YES
 RMS     Force            0.000058     0.000300     YES
 Maximum Displacement     0.001675     0.001800     YES
 RMS     Displacement     0.000832     0.001200     YES
 Predicted change in Energy=-3.482399D-07
 Optimization completed.
    -- Stationary point found.
                           ----------------------------
                           !   Optimized Parameters   !
                           ! (Angstroms and Degrees)  !
 --------------------------                            --------------------------
 ! Name  Definition              Value          Derivative Info.                !
 --------------------------------------------------------------------------------
 ! R1    R(1,2)                  1.378          -DE/DX =    0.0                 !
 ! R2    R(1,6)                  1.0101         -DE/DX =    0.0                 !
 ! R3    R(1,7)                  1.0087         -DE/DX =    0.0                 !
 ! R4    R(2,3)                  1.2695         -DE/DX =    0.0                 !
 ! R5    R(2,4)                  1.3527         -DE/DX =    0.0001              !
 ! R6    R(4,5)                  1.46           -DE/DX =   -0.0001              !
 ! R7    R(5,8)                  1.0211         -DE/DX =    0.0001              !
 ! R8    R(5,9)                  1.0976         -DE/DX =    0.0                 !
 ! R9    R(5,10)                 1.0216         -DE/DX =    0.0001              !
 ! A1    A(2,1,6)              115.4968         -DE/DX =   -0.0001              !
 ! A2    A(2,1,7)              114.1077         -DE/DX =    0.0                 !
 ! A3    A(6,1,7)              115.7518         -DE/DX =    0.0                 !
 ! A4    A(1,2,3)              120.4922         -DE/DX =    0.0                 !
 ! A5    A(1,2,4)              115.6753         -DE/DX =    0.0                 !
 ! A6    A(3,2,4)              123.802          -DE/DX =    0.0                 !
 ! A7    A(2,4,5)              102.3829         -DE/DX =   -0.0001              !
 ! A8    A(4,5,8)              111.0795         -DE/DX =    0.0001              !
 ! A9    A(4,5,9)               99.7217         -DE/DX =   -0.0001              !
 ! A10   A(4,5,10)             111.2229         -DE/DX =    0.0                 !
 ! A11   A(8,5,9)              113.1103         -DE/DX =   -0.0001              !
 ! A12   A(8,5,10)             108.5979         -DE/DX =    0.0                 !
 ! A13   A(9,5,10)             112.9371         -DE/DX =    0.0                 !
 ! D1    D(6,1,2,3)            162.1217         -DE/DX =   -0.0001              !
 ! D2    D(6,1,2,4)            -19.812          -DE/DX =    0.0                 !
 ! D3    D(7,1,2,3)             24.3259         -DE/DX =    0.0                 !
 ! D4    D(7,1,2,4)           -157.6079         -DE/DX =    0.0001              !
 ! D5    D(1,2,4,5)           -176.589          -DE/DX =   -0.0001              !
 ! D6    D(3,2,4,5)              1.4057         -DE/DX =    0.0                 !
 ! D7    D(2,4,5,8)           -120.5186         -DE/DX =    0.0                 !
 ! D8    D(2,4,5,9)             -0.9927         -DE/DX =    0.0                 !
 ! D9    D(2,4,5,10)           118.3936         -DE/DX =    0.0                 !
 --------------------------------------------------------------------------------
 GradGradGradGradGradGradGradGradGradGradGradGradGradGradGradGradGradGrad

 Leave Link  103 at Thu Sep  8 15:15:35 2022, MaxMem= 24159191040 cpu:         1.1
 (Enter /public/home/users/caep010/software/Gaussian09/g09/l9999.exe)
 1\1\GINC-B1537\Freq\RB3LYP\6-31G(d,p)\C1H5N3O1\ROOT\08-Sep-2022\0\\#P 
 Geom=AllCheck Guess=TCheck SCRF=Check GenChk RB3LYP/6-31G(d,p) Freq\\F
 rag_980\\0,1\N,1.9101916258,-0.1877011919,0.1881626732\C,0.5792670467,
 0.0852221663,-0.0423104918\O,0.2346610405,0.8580628625,-0.9886462613\N
 ,-0.2980815506,-0.549610733,0.7682118842\N,-1.5865313553,-0.1272598607
 ,0.2268372447\H,2.1248697312,-0.5665218387,1.0995687716\H,2.5411527825
 ,0.5225039271,-0.1509744377\H,-2.1387405656,0.3622245744,0.9325633961\
 H,-1.2413881107,0.5295853492,-0.5820112358\H,-2.1253036445,-0.92650625
 51,-0.1118015431\\Version=ES64L-G09RevE.01\State=1-A\HF=-280.5625113\R
 MSD=3.147e-09\RMSF=7.010e-05\ZeroPoint=0.0801859\Thermal=0.0853582\Dip
 ole=-1.0995334,0.0244361,0.5521956\DipoleDeriv=-1.2428354,0.1729085,-0
 .0520482,0.3872323,-0.4562984,-0.139939,0.0630156,-0.1589657,-0.341717
 4,1.9006931,-0.0474669,-0.0256152,0.01835,0.7249826,-0.5101552,-0.0982
 705,-0.5240419,0.9492103,-0.9369737,0.0293885,-0.0480142,0.0039538,-0.
 7502421,0.4022166,-0.0040954,0.4060132,-0.9061937,-0.6046347,-0.204851
 3,0.2642948,-0.3110182,-0.5334095,0.0973245,0.3975718,0.0864783,-0.585
 0148,-0.2769858,-0.004982,0.0026691,-0.1638601,-0.0674754,0.1965461,0.
 1852884,0.204146,-0.1611023,0.1912767,-0.0383876,0.0236066,-0.1031084,
 0.2831826,0.0356645,-0.0667113,0.0859884,0.1328267,0.2172249,-0.006823
 2,-0.0398183,-0.1125404,0.1899302,0.084461,-0.116468,0.0696285,0.23458
 71,0.0664904,0.0265189,0.0292228,0.0185071,0.1921045,-0.0338644,0.0212
 898,-0.0398903,0.1913988,0.6302807,0.1091423,-0.131097,0.2897433,0.241
 5742,-0.0964834,-0.3606124,-0.0986398,0.2808886,0.0554638,-0.0354472,-
 0.0232003,-0.0272595,0.1756513,-0.0357707,-0.021008,-0.0307166,0.20511
 67\Polar=50.9637138,1.2412334,25.8004428,-0.6101711,-7.0095085,28.8299
 034\PG=C01 [X(C1H5N3O1)]\NImag=0\\0.68527649,0.13848629,0.38604824,0.0
 6036166,-0.34198196,0.55555823,-0.31376333,0.00273918,-0.04503906,0.79
 523561,0.04016660,-0.08916335,0.04898563,-0.02949052,0.45924747,-0.016
 17575,0.03832335,-0.10397540,0.04219541,-0.30475447,0.58944372,-0.0208
 9317,0.04398473,-0.05168896,-0.15177173,0.05082084,-0.06162702,0.16664
 034,0.02226080,-0.00689270,0.01973364,0.05881601,-0.23452179,0.1871920
 0,-0.06210311,0.27159581,-0.02637721,0.02207057,-0.00734610,-0.0747484
 2,0.18716085,-0.31412393,0.07212111,-0.27610427,0.38575420,-0.05720799
 ,-0.01082143,0.02450270,-0.20121441,-0.08960012,0.11249394,0.01462489,
 -0.01563762,0.01960715,0.42567614,-0.00305643,0.01455532,-0.00246335,-
 0.04560065,-0.13681760,0.08286882,-0.00634356,-0.01075153,0.05848912,0
 .05513239,0.21081319,0.00966808,-0.00650600,0.01091285,0.05578893,0.08
 374547,-0.17505053,0.00793589,0.05854005,-0.03695401,-0.07479513,-0.17
 355578,0.29482469,-0.00026179,-0.00745659,0.00451561,-0.07962547,-0.00
 120653,0.00163049,-0.03900980,0.00052811,-0.00063293,-0.11121224,-0.00
 231909,0.00460602,0.54199449,-0.00503736,0.00867380,0.00068995,-0.0164
 9993,-0.00852604,0.00522948,-0.03392631,-0.00055532,0.00630762,0.03765
 792,-0.07835852,0.00999778,0.09665006,0.61717486,0.00478080,0.00064708
 ,0.00496073,0.02039740,0.00534359,-0.01022562,0.04223096,0.00693264,-0
 .00307550,-0.04634564,0.00984140,-0.08421793,-0.12660082,0.13726284,0.
 55833220,-0.08307557,0.01508290,-0.07204125,0.00202038,0.01572731,-0.0
 3783253,-0.00901937,0.00119620,-0.00077773,-0.00082846,0.00040390,0.00
 031766,0.00132488,-0.00162747,0.00314330,0.07925565,0.00676695,-0.0727
 4989,0.13591871,0.01135371,-0.00819363,0.00585919,0.00135386,0.0044857
 8,0.00140183,-0.00283921,-0.00002125,0.00125502,0.00034264,-0.00247341
 ,-0.00088532,-0.02660544,0.08641333,-0.08554673,0.16976249,-0.37283793
 ,0.00300510,-0.00261209,-0.00594620,-0.00076145,0.00129199,0.00306078,
 0.00135967,-0.00066125,-0.00007773,-0.00046728,-0.00036273,-0.00005752
 ,0.08549570,-0.16218042,0.38179803,-0.20915016,-0.17490656,0.07066791,
 -0.02424517,-0.03292873,0.01742787,0.00623931,0.00206783,0.00087051,-0
 .00225252,0.00296735,-0.00421851,-0.00185454,0.00098057,0.00004726,0.0
 0815582,0.01000380,-0.00405485,0.22527419,-0.20196254,-0.23687312,0.13
 461019,0.01354818,0.00494758,-0.00660601,-0.00056917,-0.00116699,-0.00
 195075,-0.00032365,-0.00175488,0.00055146,0.00184052,0.00194681,0.0018
 7482,-0.00553728,-0.00800401,-0.00553109,0.19256876,0.24064239,0.05633
 173,0.11272859,-0.08259702,0.00520949,-0.01013618,0.00393046,-0.000100
 24,0.00032556,-0.00378846,-0.00257251,-0.00036629,0.00046023,0.0008616
 2,0.00180109,0.00187826,0.02316382,0.01851591,-0.00627414,-0.08182874,
 -0.12270841,0.08618189,-0.00171873,-0.00191932,0.00063232,-0.00281317,
 0.00884851,-0.00296820,0.00130270,-0.00056338,0.00103294,-0.02679933,0
 .00840627,0.01394007,-0.14015763,0.08239950,0.13609793,-0.00005900,0.0
 0033116,0.00023997,-0.00035728,-0.00038457,-0.00089180,0.16107857,0.00
 023400,0.00054903,-0.00003337,-0.00096529,-0.00371764,0.00399111,-0.00
 555346,-0.00267727,-0.00170288,0.01051416,0.00035807,-0.00109300,0.074
 28963,-0.13629178,-0.11982293,0.00007099,0.00005054,-0.00003549,0.0000
 8294,0.00026038,0.00023694,-0.09043426,0.13729934,-0.00105687,-0.00149
 415,-0.00011516,-0.00100734,0.00496907,-0.00358925,0.00360848,0.001315
 26,0.00181679,-0.00947546,0.00849720,0.01805161,0.13149833,-0.12798503
 ,-0.23646342,-0.00001957,-0.00003639,-0.00002870,-0.00044665,-0.000260
 27,-0.00012636,-0.13645468,0.13403607,0.23884595,0.00296336,-0.0061176
 7,0.00627350,-0.02109192,0.03690582,-0.04556111,0.03049932,-0.00567110
 ,0.00792633,-0.01409032,0.00584767,-0.00727576,-0.03681189,-0.01372697
 ,0.01715038,0.00197528,0.00012396,0.00074689,-0.00170232,0.00019862,-0
 .00046494,-0.00353924,-0.00509478,0.00659894,0.04531793,0.00091592,-0.
 00350141,0.00602626,0.00492934,0.01823254,-0.01653572,0.01461324,-0.02
 092478,0.00385239,0.00984342,-0.01696072,0.02260977,-0.02292524,-0.116
 42584,0.05714365,0.00147661,0.00033684,0.00043001,-0.00094563,0.000159
 83,-0.00040748,0.00301243,0.01841110,-0.01652724,-0.00717628,0.1310783
 6,-0.00123771,0.00599195,-0.00554676,-0.00640002,-0.01615487,0.0251243
 2,-0.01788843,0.00332614,-0.02285420,-0.01220930,0.02243917,-0.0273281
 5,0.02859750,0.05752885,-0.13999633,-0.00156788,0.00044028,0.00011806,
 0.00156137,-0.00025666,0.00028196,0.00286546,0.00919815,-0.00987098,0.
 00869255,-0.07202556,0.16129878,-0.00216911,0.00092848,0.00181558,-0.0
 0273080,0.00075682,-0.00958310,0.00138751,-0.00089374,0.00097824,-0.02
 669576,-0.01543784,-0.00596724,-0.13438599,-0.14687001,-0.05090155,0.0
 0025039,-0.00083143,-0.00001702,-0.00010734,0.00062114,0.00029156,0.01
 306310,0.01685606,0.00675482,-0.00352019,-0.00374380,-0.00241353,0.154
 90820,0.00122577,-0.00064592,-0.00148570,0.00116998,-0.00148753,0.0044
 3225,-0.00227706,0.00140879,0.00047552,0.00607414,0.01893791,0.0044552
 3,-0.13974351,-0.28516456,-0.09833776,-0.00018771,0.00015570,-0.000101
 42,0.00010967,-0.00015800,0.00001027,-0.00969634,-0.01424178,-0.002514
 52,-0.00528926,-0.01040590,-0.01048745,0.14861432,0.29160128,-0.000748
 00,0.00045809,0.00098655,0.00059851,0.00345299,-0.00558758,0.00616966,
 -0.00255301,-0.00248957,-0.01256543,-0.00508904,-0.00062103,-0.0440085
 4,-0.09046986,-0.09113487,0.00011849,-0.00028881,0.00024536,-0.0000261
 7,0.00027672,0.00005317,-0.01449401,-0.02477460,-0.00852048,0.00591323
 ,0.01543393,0.01877328,0.05904226,0.10355359,0.08829517\\-0.00006261,-
 0.00003257,-0.00000295,0.00001114,0.00007292,0.00021353,-0.00000278,-0
 .00001160,-0.00005559,0.00013071,-0.00000133,-0.00005565,-0.00020759,0
 .00004328,-0.00004964,0.00003918,-0.00001181,0.00000400,-0.00001424,-0
 .00001861,-0.00001426,0.00007131,-0.00006167,0.00000129,-0.00001371,-0
 .00000967,-0.00006928,0.00004860,0.00003106,0.00002856\\\@


 THERE IS NO SUBJECT, HOWEVER COMPLEX,
 WHICH, IF STUDIED WITH PATIENCE AND INTELLIGIENCE
 WILL NOT BECOME
 MORE COMPLEX
                        QUOTED BY D. GORDON ROHMAN
 Job cpu time:       0 days  0 hours  3 minutes 30.4 seconds.
 File lengths (MBytes):  RWF=     15 Int=      0 D2E=      0 Chk=      2 Scr=      1
 Normal termination of Gaussian 09 at Thu Sep  8 15:15:35 2022.
