 Entering Gaussian System, Link 0=g09
 Input=B3LYP6-31Gdp.Frag_437.gjf
 Output=B3LYP6-31Gdp.Frag_437.log
 Initial command:
 /public/home/users/caep010/software/Gaussian09/g09/l1.exe "/public/home/users/caep010/.cache/gau_scr/Gau-200194.inp" -scrdir="/public/home/users/caep010/.cache/gau_scr/"
 Entering Link 1 = /public/home/users/caep010/software/Gaussian09/g09/l1.exe PID=    200196.
  
 Copyright (c) 1988,1990,1992,1993,1995,1998,2003,2009,2015,
            Gaussian, Inc.  All Rights Reserved.
  
 This is part of the Gaussian(R) 09 program.  It is based on
 the Gaussian(R) 03 system (copyright 2003, Gaussian, Inc.),
 the Gaussian(R) 98 system (copyright 1998, Gaussian, Inc.),
 the Gaussian(R) 94 system (copyright 1995, Gaussian, Inc.),
 the Gaussian 92(TM) system (copyright 1992, Gaussian, Inc.),
 the Gaussian 90(TM) system (copyright 1990, Gaussian, Inc.),
 the Gaussian 88(TM) system (copyright 1988, Gaussian, Inc.),
 the Gaussian 86(TM) system (copyright 1986, Carnegie Mellon
 University), and the Gaussian 82(TM) system (copyright 1983,
 Carnegie Mellon University). Gaussian is a federally registered
 trademark of Gaussian, Inc.
  
 This software contains proprietary and confidential information,
 including trade secrets, belonging to Gaussian, Inc.
  
 This software is provided under written license and may be
 used, copied, transmitted, or stored only in accord with that
 written license.
  
 The following legend is applicable only to US Government
 contracts under FAR:
  
                    RESTRICTED RIGHTS LEGEND
  
 Use, reproduction and disclosure by the US Government is
 subject to restrictions as set forth in subparagraphs (a)
 and (c) of the Commercial Computer Software - Restricted
 Rights clause in FAR 52.227-19.
  
 Gaussian, Inc.
 340 Quinnipiac St., Bldg. 40, Wallingford CT 06492
  
  
 ---------------------------------------------------------------
 Warning -- This program may not be used in any manner that
 competes with the business of Gaussian, Inc. or will provide
 assistance to any competitor of Gaussian, Inc.  The licensee
 of this program is prohibited from giving any competitor of
 Gaussian, Inc. access to this program.  By using this program,
 the user acknowledges that Gaussian, Inc. is engaged in the
 business of creating and licensing software in the field of
 computational chemistry and represents and warrants to the
 licensee that it is not a competitor of Gaussian, Inc. and that
 it will not use this program in any manner prohibited above.
 ---------------------------------------------------------------
  

 Cite this work as:
 Gaussian 09, Revision E.01,
 M. J. Frisch, G. W. Trucks, H. B. Schlegel, G. E. Scuseria, 
 M. A. Robb, J. R. Cheeseman, G. Scalmani, V. Barone, B. Mennucci, 
 G. A. Petersson, H. Nakatsuji, M. Caricato, X. Li, H. P. Hratchian, 
 A. F. Izmaylov, J. Bloino, G. Zheng, J. L. Sonnenberg, M. Hada, 
 M. Ehara, K. Toyota, R. Fukuda, J. Hasegawa, M. Ishida, T. Nakajima, 
 Y. Honda, O. Kitao, H. Nakai, T. Vreven, J. A. Montgomery, Jr., 
 J. E. Peralta, F. Ogliaro, M. Bearpark, J. J. Heyd, E. Brothers, 
 K. N. Kudin, V. N. Staroverov, T. Keith, R. Kobayashi, J. Normand, 
 K. Raghavachari, A. Rendell, J. C. Burant, S. S. Iyengar, J. Tomasi, 
 M. Cossi, N. Rega, J. M. Millam, M. Klene, J. E. Knox, J. B. Cross, 
 V. Bakken, C. Adamo, J. Jaramillo, R. Gomperts, R. E. Stratmann, 
 O. Yazyev, A. J. Austin, R. Cammi, C. Pomelli, J. W. Ochterski, 
 R. L. Martin, K. Morokuma, V. G. Zakrzewski, G. A. Voth, 
 P. Salvador, J. J. Dannenberg, S. Dapprich, A. D. Daniels, 
 O. Farkas, J. B. Foresman, J. V. Ortiz, J. Cioslowski, 
 and D. J. Fox, Gaussian, Inc., Wallingford CT, 2013.
 
 ******************************************
 Gaussian 09:  ES64L-G09RevE.01 30-Nov-2015
                 8-Sep-2022 
 ******************************************
 %nproc=32
 Will use up to   32 processors via shared memory.
 %mem=180GB
 %chk=B3LYP6-31Gdp.Frag_437.chk
 ----------------------------
 #P OPT Freq B3LYP/6-31G(d,p)
 ----------------------------
 1/14=-1,18=20,19=15,26=3,38=1/1,3;
 2/9=110,12=2,17=6,18=5,40=1/2;
 3/5=1,6=6,7=101,11=2,16=1,25=1,30=1,71=1,74=-5/1,2,3;
 4//1;
 5/5=2,38=5/2;
 6/7=2,8=2,9=2,10=2,28=1/1;
 7//1,2,3,16;
 1/14=-1,18=20,19=15,26=3/3(2);
 2/9=110/2;
 99//99;
 2/9=110/2;
 3/5=1,6=6,7=101,11=2,16=1,25=1,30=1,71=1,74=-5/1,2,3;
 4/5=5,16=3,69=1/1;
 5/5=2,38=5/2;
 7//1,2,3,16;
 1/14=-1,18=20,19=15,26=3/3(-5);
 2/9=110/2;
 6/7=2,8=2,9=2,10=2,19=2,28=1/1;
 99/9=1/99;
 Leave Link    1 at Thu Sep  8 15:00:44 2022, MaxMem= 24159191040 cpu:         2.4
 (Enter /public/home/users/caep010/software/Gaussian09/g09/l101.exe)
 --------
 Frag_437
 --------
 Symbolic Z-matrix:
 Charge =  0 Multiplicity = 1
 C                     1.44114  -1.0037    1.28883 
 C                     0.87685  -0.36771   0.2638 
 C                     1.67363  -0.01272  -0.9689 
 C                    -0.59717   0.03142   0.28593 
 C                    -0.75096   1.56196   0.18979 
 C                    -1.36953  -0.66465  -0.8518 
 O                    -1.1295   -0.40638   1.53794 
 H                     0.8806   -1.26293   2.17646 
 H                     2.49018  -1.28185   1.26027 
 H                     2.70785  -0.34892  -0.86396 
 H                     1.2629   -0.47659  -1.87324 
 H                     1.69181   1.06809  -1.15119 
 H                    -0.36704   1.95828  -0.75412 
 H                    -0.221     2.04346   1.01569 
 H                    -1.81106   1.83577   0.25202 
 H                    -1.27463  -1.74961  -0.75879 
 H                    -2.43326  -0.40394  -0.79553 
 H                    -1.01208  -0.36297  -1.84005 
 H                    -2.05874  -0.1571    1.55695 
 
 NAtoms=     19 NQM=       19 NQMF=       0 NMMI=      0 NMMIF=      0
                NMic=       0 NMicF=      0.
                    Isotopes and Nuclear Properties:
 (Nuclear quadrupole moments (NQMom) in fm**2, nuclear magnetic moments (NMagM)
  in nuclear magnetons)

  Atom         1           2           3           4           5           6           7           8           9          10
 IAtWgt=          12          12          12          12          12          12          16           1           1           1
 AtmWgt=  12.0000000  12.0000000  12.0000000  12.0000000  12.0000000  12.0000000  15.9949146   1.0078250   1.0078250   1.0078250
 NucSpn=           0           0           0           0           0           0           0           1           1           1
 AtZEff=   0.0000000   0.0000000   0.0000000   0.0000000   0.0000000   0.0000000   0.0000000   0.0000000   0.0000000   0.0000000
 NQMom=    0.0000000   0.0000000   0.0000000   0.0000000   0.0000000   0.0000000   0.0000000   0.0000000   0.0000000   0.0000000
 NMagM=    0.0000000   0.0000000   0.0000000   0.0000000   0.0000000   0.0000000   0.0000000   2.7928460   2.7928460   2.7928460
 AtZNuc=   6.0000000   6.0000000   6.0000000   6.0000000   6.0000000   6.0000000   8.0000000   1.0000000   1.0000000   1.0000000

  Atom        11          12          13          14          15          16          17          18          19
 IAtWgt=           1           1           1           1           1           1           1           1           1
 AtmWgt=   1.0078250   1.0078250   1.0078250   1.0078250   1.0078250   1.0078250   1.0078250   1.0078250   1.0078250
 NucSpn=           1           1           1           1           1           1           1           1           1
 AtZEff=   0.0000000   0.0000000   0.0000000   0.0000000   0.0000000   0.0000000   0.0000000   0.0000000   0.0000000
 NQMom=    0.0000000   0.0000000   0.0000000   0.0000000   0.0000000   0.0000000   0.0000000   0.0000000   0.0000000
 NMagM=    2.7928460   2.7928460   2.7928460   2.7928460   2.7928460   2.7928460   2.7928460   2.7928460   2.7928460
 AtZNuc=   1.0000000   1.0000000   1.0000000   1.0000000   1.0000000   1.0000000   1.0000000   1.0000000   1.0000000
 Leave Link  101 at Thu Sep  8 15:00:44 2022, MaxMem= 24159191040 cpu:        10.1
 (Enter /public/home/users/caep010/software/Gaussian09/g09/l103.exe)

 GradGradGradGradGradGradGradGradGradGradGradGradGradGradGradGradGradGrad
 Berny optimization.
 Initialization pass.
                           ----------------------------
                           !    Initial Parameters    !
                           ! (Angstroms and Degrees)  !
 --------------------------                            --------------------------
 ! Name  Definition              Value          Derivative Info.                !
 --------------------------------------------------------------------------------
 ! R1    R(1,2)                  1.3318         estimate D2E/DX2                !
 ! R2    R(1,8)                  1.0813         estimate D2E/DX2                !
 ! R3    R(1,9)                  1.0857         estimate D2E/DX2                !
 ! R4    R(2,3)                  1.5101         estimate D2E/DX2                !
 ! R5    R(2,4)                  1.5273         estimate D2E/DX2                !
 ! R6    R(3,10)                 1.0925         estimate D2E/DX2                !
 ! R7    R(3,11)                 1.0962         estimate D2E/DX2                !
 ! R8    R(3,12)                 1.0962         estimate D2E/DX2                !
 ! R9    R(4,5)                  1.5412         estimate D2E/DX2                !
 ! R10   R(4,6)                  1.5413         estimate D2E/DX2                !
 ! R11   R(4,7)                  1.4292         estimate D2E/DX2                !
 ! R12   R(5,13)                 1.0934         estimate D2E/DX2                !
 ! R13   R(5,14)                 1.0931         estimate D2E/DX2                !
 ! R14   R(5,15)                 1.0967         estimate D2E/DX2                !
 ! R15   R(6,16)                 1.0931         estimate D2E/DX2                !
 ! R16   R(6,17)                 1.0967         estimate D2E/DX2                !
 ! R17   R(6,18)                 1.0933         estimate D2E/DX2                !
 ! R18   R(7,19)                 0.9623         estimate D2E/DX2                !
 ! A1    A(2,1,8)              121.7783         estimate D2E/DX2                !
 ! A2    A(2,1,9)              120.7657         estimate D2E/DX2                !
 ! A3    A(8,1,9)              117.456          estimate D2E/DX2                !
 ! A4    A(1,2,3)              121.1302         estimate D2E/DX2                !
 ! A5    A(1,2,4)              121.507          estimate D2E/DX2                !
 ! A6    A(3,2,4)              117.3628         estimate D2E/DX2                !
 ! A7    A(2,3,10)             110.4089         estimate D2E/DX2                !
 ! A8    A(2,3,11)             112.1022         estimate D2E/DX2                !
 ! A9    A(2,3,12)             112.1027         estimate D2E/DX2                !
 ! A10   A(10,3,11)            107.6796         estimate D2E/DX2                !
 ! A11   A(10,3,12)            107.6776         estimate D2E/DX2                !
 ! A12   A(11,3,12)            106.6327         estimate D2E/DX2                !
 ! A13   A(2,4,5)              110.7887         estimate D2E/DX2                !
 ! A14   A(2,4,6)              110.789          estimate D2E/DX2                !
 ! A15   A(2,4,7)              106.9849         estimate D2E/DX2                !
 ! A16   A(5,4,6)              110.6367         estimate D2E/DX2                !
 ! A17   A(5,4,7)              108.7647         estimate D2E/DX2                !
 ! A18   A(6,4,7)              108.7638         estimate D2E/DX2                !
 ! A19   A(4,5,13)             112.2579         estimate D2E/DX2                !
 ! A20   A(4,5,14)             109.9948         estimate D2E/DX2                !
 ! A21   A(4,5,15)             109.9295         estimate D2E/DX2                !
 ! A22   A(13,5,14)            108.8071         estimate D2E/DX2                !
 ! A23   A(13,5,15)            107.3323         estimate D2E/DX2                !
 ! A24   A(14,5,15)            108.4097         estimate D2E/DX2                !
 ! A25   A(4,6,16)             109.996          estimate D2E/DX2                !
 ! A26   A(4,6,17)             109.9277         estimate D2E/DX2                !
 ! A27   A(4,6,18)             112.2578         estimate D2E/DX2                !
 ! A28   A(16,6,17)            108.4098         estimate D2E/DX2                !
 ! A29   A(16,6,18)            108.8084         estimate D2E/DX2                !
 ! A30   A(17,6,18)            107.3316         estimate D2E/DX2                !
 ! A31   A(4,7,19)             107.3155         estimate D2E/DX2                !
 ! D1    D(8,1,2,3)            179.9971         estimate D2E/DX2                !
 ! D2    D(8,1,2,4)             -0.0027         estimate D2E/DX2                !
 ! D3    D(9,1,2,3)             -0.0042         estimate D2E/DX2                !
 ! D4    D(9,1,2,4)            179.996          estimate D2E/DX2                !
 ! D5    D(1,2,3,10)            -0.0081         estimate D2E/DX2                !
 ! D6    D(1,2,3,11)           120.0471         estimate D2E/DX2                !
 ! D7    D(1,2,3,12)          -120.0611         estimate D2E/DX2                !
 ! D8    D(4,2,3,10)           179.9917         estimate D2E/DX2                !
 ! D9    D(4,2,3,11)           -59.9531         estimate D2E/DX2                !
 ! D10   D(4,2,3,12)            59.9387         estimate D2E/DX2                !
 ! D11   D(1,2,4,5)            118.3949         estimate D2E/DX2                !
 ! D12   D(1,2,4,6)           -118.4186         estimate D2E/DX2                !
 ! D13   D(1,2,4,7)             -0.0123         estimate D2E/DX2                !
 ! D14   D(3,2,4,5)            -61.6049         estimate D2E/DX2                !
 ! D15   D(3,2,4,6)             61.5816         estimate D2E/DX2                !
 ! D16   D(3,2,4,7)            179.9879         estimate D2E/DX2                !
 ! D17   D(2,4,5,13)            63.1263         estimate D2E/DX2                !
 ! D18   D(2,4,5,14)           -58.1793         estimate D2E/DX2                !
 ! D19   D(2,4,5,15)          -177.4807         estimate D2E/DX2                !
 ! D20   D(6,4,5,13)           -60.1481         estimate D2E/DX2                !
 ! D21   D(6,4,5,14)           178.5463         estimate D2E/DX2                !
 ! D22   D(6,4,5,15)            59.2449         estimate D2E/DX2                !
 ! D23   D(7,4,5,13)          -179.5522         estimate D2E/DX2                !
 ! D24   D(7,4,5,14)            59.1421         estimate D2E/DX2                !
 ! D25   D(7,4,5,15)           -60.1593         estimate D2E/DX2                !
 ! D26   D(2,4,6,16)            58.1704         estimate D2E/DX2                !
 ! D27   D(2,4,6,17)           177.4717         estimate D2E/DX2                !
 ! D28   D(2,4,6,18)           -63.1376         estimate D2E/DX2                !
 ! D29   D(5,4,6,16)          -178.5553         estimate D2E/DX2                !
 ! D30   D(5,4,6,17)           -59.2541         estimate D2E/DX2                !
 ! D31   D(5,4,6,18)            60.1367         estimate D2E/DX2                !
 ! D32   D(7,4,6,16)           -59.1506         estimate D2E/DX2                !
 ! D33   D(7,4,6,17)            60.1507         estimate D2E/DX2                !
 ! D34   D(7,4,6,18)           179.5414         estimate D2E/DX2                !
 ! D35   D(2,4,7,19)           179.9982         estimate D2E/DX2                !
 ! D36   D(5,4,7,19)            60.2814         estimate D2E/DX2                !
 ! D37   D(6,4,7,19)           -60.2851         estimate D2E/DX2                !
 --------------------------------------------------------------------------------
 Trust Radius=3.00D-01 FncErr=1.00D-07 GrdErr=1.00D-06
 Number of steps in this run=     96 maximum allowed number of steps=    114.
 GradGradGradGradGradGradGradGradGradGradGradGradGradGradGradGradGradGrad

 Leave Link  103 at Thu Sep  8 15:00:44 2022, MaxMem= 24159191040 cpu:         0.6
 (Enter /public/home/users/caep010/software/Gaussian09/g09/l202.exe)
                          Input orientation:                          
 ---------------------------------------------------------------------
 Center     Atomic      Atomic             Coordinates (Angstroms)
 Number     Number       Type             X           Y           Z
 ---------------------------------------------------------------------
      1          6           0        1.441143   -1.003704    1.288826
      2          6           0        0.876852   -0.367714    0.263804
      3          6           0        1.673626   -0.012723   -0.968901
      4          6           0       -0.597172    0.031424    0.285929
      5          6           0       -0.750957    1.561957    0.189792
      6          6           0       -1.369528   -0.664648   -0.851801
      7          8           0       -1.129504   -0.406384    1.537940
      8          1           0        0.880598   -1.262931    2.176456
      9          1           0        2.490175   -1.281847    1.260268
     10          1           0        2.707846   -0.348922   -0.863964
     11          1           0        1.262904   -0.476591   -1.873242
     12          1           0        1.691814    1.068094   -1.151194
     13          1           0       -0.367040    1.958277   -0.754116
     14          1           0       -0.220999    2.043459    1.015693
     15          1           0       -1.811055    1.835774    0.252021
     16          1           0       -1.274626   -1.749611   -0.758790
     17          1           0       -2.433260   -0.403944   -0.795530
     18          1           0       -1.012077   -0.362967   -1.840046
     19          1           0       -2.058741   -0.157102    1.556954
 ---------------------------------------------------------------------
                    Distance matrix (angstroms):
                    1          2          3          4          5
     1  C    0.000000
     2  C    1.331757   0.000000
     3  C    2.476575   1.510109   0.000000
     4  C    2.496401   1.527268   2.594816   0.000000
     5  C    3.549055   2.525643   3.114609   1.541241   0.000000
     6  C    3.549241   2.525662   3.114403   1.541259   2.534821
     7  O    2.650863   2.377053   3.781105   1.429190   2.415609
     8  H    1.081340   2.111792   3.476375   2.726399   3.819528
     9  H    1.085655   2.105087   2.691955   3.493670   4.442756
    10  H    2.582205   2.150524   1.092544   3.519952   4.089643
    11  H    3.210653   2.174363   1.096220   2.894820   3.530924
    12  H    3.210745   2.174380   1.096233   2.894730   2.830066
    13  H    4.026968   2.827307   2.845223   2.201685   1.093355
    14  H    3.481741   2.753973   3.428717   2.173096   1.093075
    15  H    4.440089   3.475679   4.129236   2.174935   1.096657
    16  H    3.482027   2.753942   3.428282   2.173124   3.484325
    17  H    4.440186   3.475679   4.129119   2.174929   2.768713
    18  H    4.027241   2.827412   2.845095   2.201695   2.809583
    19  H    3.610792   3.214701   4.509030   1.946081   2.556285
                    6          7          8          9         10
     6  C    0.000000
     7  O    2.415610   0.000000
     8  H    3.819863   2.276376   0.000000
     9  H    4.442868   3.734383   1.852160   0.000000
    10  H    4.089598   4.527439   3.663114   2.330256   0.000000
    11  H    2.829913   4.167098   4.143011   3.460277   1.767144
    12  H    3.530417   4.167177   4.143067   3.460455   1.767132
    13  H    2.809673   3.380310   4.530015   4.766532   3.845797
    14  H    3.484321   2.664555   3.673296   4.297434   4.223119
    15  H    2.768660   2.673083   4.533257   5.407097   5.141866
    16  H    1.093070   2.664637   3.673897   4.297572   4.222923
    17  H    1.096658   2.672989   4.533455   5.407146   5.141856
    18  H    1.093348   3.380305   4.530391   4.766766   3.845876
    19  H    2.556309   0.962281   3.200993   4.695286   5.349579
                   11         12         13         14         15
    11  H    0.000000
    12  H    1.758229   0.000000
    13  H    3.136518   2.277933   0.000000
    14  H    4.110786   3.050506   1.777866   0.000000
    15  H    4.394656   3.850771   1.764227   1.776121   0.000000
    16  H    3.049859   4.110135   3.817351   4.318136   3.763573
    17  H    3.850762   4.394272   3.138641   3.763563   2.549674
    18  H    2.278059   3.135838   2.642629   3.817320   3.138403
    19  H    4.785566   4.785586   3.560579   2.917658   2.394943
                   16         17         18         19
    16  H    0.000000
    17  H    1.776120   0.000000
    18  H    1.777872   1.764215   0.000000
    19  H    2.917806   2.394865   3.560547   0.000000
 Stoichiometry    C6H12O
 Framework group  C1[X(C6H12O)]
 Deg. of freedom    51
 Full point group                 C1      NOp   1
 Largest Abelian subgroup         C1      NOp   1
 Largest concise Abelian subgroup C1      NOp   1
                         Standard orientation:                         
 ---------------------------------------------------------------------
 Center     Atomic      Atomic             Coordinates (Angstroms)
 Number     Number       Type             X           Y           Z
 ---------------------------------------------------------------------
      1          6           0       -1.522256    1.354619   -0.000063
      2          6           0       -0.933433    0.160104   -0.000008
      3          6           0       -1.747685   -1.111675    0.000057
      4          6           0        0.587388    0.019920   -0.000004
      5          6           0        1.069209   -0.712553    1.267575
      6          6           0        1.069170   -0.713200   -1.267245
      7          8           0        1.128580    1.342680   -0.000360
      8          1           0       -0.949534    2.271835   -0.000063
      9          1           0       -2.604527    1.440274   -0.000131
     10          1           0       -2.815472   -0.880414    0.000195
     11          1           0       -1.541796   -1.733298   -0.879087
     12          1           0       -1.541611   -1.733343    0.879142
     13          1           0        0.692894   -1.737673    1.321795
     14          1           0        0.743938   -0.170150    2.159096
     15          1           0        2.164547   -0.765797    1.274970
     16          1           0        0.743742   -0.171350   -2.159040
     17          1           0        2.164516   -0.766289   -1.274704
     18          1           0        0.693016   -1.738406   -1.320834
     19          1           0        2.087292    1.259886   -0.000330
 ---------------------------------------------------------------------
 Rotational constants (GHZ):      3.2127616      2.3009470      1.9118393
 Leave Link  202 at Thu Sep  8 15:00:44 2022, MaxMem= 24159191040 cpu:         0.4
 (Enter /public/home/users/caep010/software/Gaussian09/g09/l301.exe)
 Standard basis: 6-31G(d,p) (6D, 7F)
 Ernie: Thresh=  0.10000D-02 Tol=  0.10000D-05 Strict=F.
 There are   165 symmetry adapted cartesian basis functions of A   symmetry.
 There are   165 symmetry adapted basis functions of A   symmetry.
   165 basis functions,   280 primitive gaussians,   165 cartesian basis functions
    28 alpha electrons       28 beta electrons
       nuclear repulsion energy       325.6077350174 Hartrees.
 IExCor=  402 DFT=T Ex+Corr=B3LYP ExCW=0 ScaHFX=  0.200000
 ScaDFX=  0.800000  0.720000  1.000000  0.810000 ScalE2=  1.000000  1.000000
 IRadAn=      0 IRanWt=     -1 IRanGd=            0 ICorTp=0 IEmpDi=  4
 NAtoms=   19 NActive=   19 NUniq=   19 SFac= 1.00D+00 NAtFMM=   60 NAOKFM=F Big=F
 Integral buffers will be    131072 words long.
 Raffenetti 2 integral format.
 Two-electron integral symmetry is turned on.
 Leave Link  301 at Thu Sep  8 15:00:44 2022, MaxMem= 24159191040 cpu:         2.1
 (Enter /public/home/users/caep010/software/Gaussian09/g09/l302.exe)
 NPDir=0 NMtPBC=     1 NCelOv=     1 NCel=       1 NClECP=     1 NCelD=      1
         NCelK=      1 NCelE2=     1 NClLst=     1 CellRange=     0.0.
 One-electron integrals computed using PRISM.
 NBasis=   165 RedAO= T EigKep=  1.99D-03  NBF=   165
 NBsUse=   165 1.00D-06 EigRej= -1.00D+00 NBFU=   165
 Precomputing XC quadrature grid using
 IXCGrd= 4 IRadAn=           0 IRanWt=          -1 IRanGd=           0 AccXCQ= 0.00D+00.
 Generated NRdTot=       0 NPtTot=           0 NUsed=           0 NTot=          32
 NSgBfM=   165   165   165   165   165 MxSgAt=    19 MxSgA2=    19.
 Leave Link  302 at Thu Sep  8 15:00:45 2022, MaxMem= 24159191040 cpu:        11.8
 (Enter /public/home/users/caep010/software/Gaussian09/g09/l303.exe)
 DipDrv:  MaxL=1.
 Leave Link  303 at Thu Sep  8 15:00:45 2022, MaxMem= 24159191040 cpu:         0.7
 (Enter /public/home/users/caep010/software/Gaussian09/g09/l401.exe)
 ExpMin= 1.61D-01 ExpMax= 5.48D+03 ExpMxC= 8.25D+02 IAcc=1 IRadAn=         1 AccDes= 0.00D+00
 Harris functional with IExCor=  402 and IRadAn=       1 diagonalized for initial guess.
 HarFok:  IExCor=  402 AccDes= 0.00D+00 IRadAn=         1 IDoV= 1 UseB2=F ITyADJ=14
 ICtDFT=  3500011 ScaDFX=  1.000000  1.000000  1.000000  1.000000
 FoFCou: FMM=F IPFlag=           0 FMFlag=      100000 FMFlg1=           0
         NFxFlg=           0 DoJE=T BraDBF=F KetDBF=T FulRan=T
         wScrn=  0.000000 ICntrl=     500 IOpCl=  0 I1Cent=   200000004 NGrid=           0
         NMat0=    1 NMatS0=      1 NMatT0=    0 NMatD0=    1 NMtDS0=    0 NMtDT0=    0
 Petite list used in FoFCou.
 Harris En= -311.168944645346    
 JPrj=0 DoOrth=F DoCkMO=F.
 Leave Link  401 at Thu Sep  8 15:00:45 2022, MaxMem= 24159191040 cpu:        13.6
 (Enter /public/home/users/caep010/software/Gaussian09/g09/l502.exe)
 Closed shell SCF:
 Using DIIS extrapolation, IDIIS=  1040.
 Integral symmetry usage will be decided dynamically.
 Keep R1 ints in memory in canonical form, NReq=96177187.
 IVT=      106762 IEndB=      106762 NGot= 24159191040 MDV= 24065300919
 LenX= 24065300919 LenY= 24065273253
 Requested convergence on RMS density matrix=1.00D-08 within 128 cycles.
 Requested convergence on MAX density matrix=1.00D-06.
 Requested convergence on             energy=1.00D-06.
 No special actions if energy rises.
 FoFCou: FMM=F IPFlag=           0 FMFlag=           0 FMFlg1=           0
         NFxFlg=           0 DoJE=F BraDBF=F KetDBF=F FulRan=T
         wScrn=  0.000000 ICntrl=     600 IOpCl=  0 I1Cent=           0 NGrid=           0
         NMat0=    1 NMatS0=  13695 NMatT0=    0 NMatD0=    1 NMtDS0=    0 NMtDT0=    0
 Symmetry not used in FoFCou.
 Integral accuracy reduced to 1.0D-05 until final iterations.

 Cycle   1  Pass 0  IDiag  1:
 E= -310.796270122086    
 DIIS: error= 3.29D-02 at cycle   1 NSaved=   1.
 NSaved= 1 IEnMin= 1 EnMin= -310.796270122086     IErMin= 1 ErrMin= 3.29D-02
 ErrMax= 3.29D-02  0.00D+00 EMaxC= 1.00D-01 BMatC= 2.81D-01 BMatP= 2.81D-01
 IDIUse=3 WtCom= 6.71D-01 WtEn= 3.29D-01
 Coeff-Com:  0.100D+01
 Coeff-En:   0.100D+01
 Coeff:      0.100D+01
 Gap=     0.262 Goal=   None    Shift=    0.000
 GapD=    0.262 DampG=1.000 DampE=0.500 DampFc=0.5000 IDamp=-1.
 Damping current iteration by 5.00D-01
 RMSDP=6.95D-03 MaxDP=1.35D-01              OVMax= 1.72D-01

 Cycle   2  Pass 0  IDiag  1:
 E= -310.927220719041     Delta-E=       -0.130950596955 Rises=F Damp=T
 DIIS: error= 8.37D-03 at cycle   2 NSaved=   2.
 NSaved= 2 IEnMin= 2 EnMin= -310.927220719041     IErMin= 2 ErrMin= 8.37D-03
 ErrMax= 8.37D-03  0.00D+00 EMaxC= 1.00D-01 BMatC= 1.08D-02 BMatP= 2.81D-01
 IDIUse=3 WtCom= 9.16D-01 WtEn= 8.37D-02
 Coeff-Com:  0.699D-01 0.930D+00
 Coeff-En:   0.102D+00 0.898D+00
 Coeff:      0.726D-01 0.927D+00
 Gap=     0.300 Goal=   None    Shift=    0.000
 RMSDP=1.25D-03 MaxDP=2.19D-02 DE=-1.31D-01 OVMax= 9.59D-02

 Cycle   3  Pass 0  IDiag  1:
 E= -311.080968510421     Delta-E=       -0.153747791381 Rises=F Damp=F
 DIIS: error= 5.17D-03 at cycle   3 NSaved=   3.
 NSaved= 3 IEnMin= 3 EnMin= -311.080968510421     IErMin= 3 ErrMin= 5.17D-03
 ErrMax= 5.17D-03  0.00D+00 EMaxC= 1.00D-01 BMatC= 3.15D-03 BMatP= 1.08D-02
 IDIUse=3 WtCom= 9.48D-01 WtEn= 5.17D-02
 Coeff-Com:  0.585D-02 0.307D+00 0.687D+00
 Coeff-En:   0.000D+00 0.000D+00 0.100D+01
 Coeff:      0.555D-02 0.291D+00 0.703D+00
 Gap=     0.271 Goal=   None    Shift=    0.000
 RMSDP=4.92D-04 MaxDP=1.87D-02 DE=-1.54D-01 OVMax= 1.71D-02

 Cycle   4  Pass 0  IDiag  1:
 E= -311.081990589098     Delta-E=       -0.001022078676 Rises=F Damp=F
 DIIS: error= 3.80D-03 at cycle   4 NSaved=   4.
 NSaved= 4 IEnMin= 4 EnMin= -311.081990589098     IErMin= 4 ErrMin= 3.80D-03
 ErrMax= 3.80D-03  0.00D+00 EMaxC= 1.00D-01 BMatC= 1.75D-03 BMatP= 3.15D-03
 IDIUse=3 WtCom= 9.62D-01 WtEn= 3.80D-02
 Coeff-Com: -0.352D-02 0.410D-01 0.430D+00 0.533D+00
 Coeff-En:   0.000D+00 0.000D+00 0.379D+00 0.621D+00
 Coeff:     -0.339D-02 0.394D-01 0.428D+00 0.536D+00
 Gap=     0.271 Goal=   None    Shift=    0.000
 RMSDP=2.38D-04 MaxDP=8.12D-03 DE=-1.02D-03 OVMax= 7.80D-03

 Cycle   5  Pass 0  IDiag  1:
 E= -311.083321790052     Delta-E=       -0.001331200954 Rises=F Damp=F
 DIIS: error= 4.06D-04 at cycle   5 NSaved=   5.
 NSaved= 5 IEnMin= 5 EnMin= -311.083321790052     IErMin= 5 ErrMin= 4.06D-04
 ErrMax= 4.06D-04  0.00D+00 EMaxC= 1.00D-01 BMatC= 1.94D-05 BMatP= 1.75D-03
 IDIUse=3 WtCom= 9.96D-01 WtEn= 4.06D-03
 Coeff-Com: -0.982D-03 0.545D-02 0.138D+00 0.203D+00 0.654D+00
 Coeff-En:   0.000D+00 0.000D+00 0.000D+00 0.000D+00 0.100D+01
 Coeff:     -0.978D-03 0.543D-02 0.138D+00 0.203D+00 0.655D+00
 Gap=     0.271 Goal=   None    Shift=    0.000
 RMSDP=4.28D-05 MaxDP=1.50D-03 DE=-1.33D-03 OVMax= 3.29D-03

 Cycle   6  Pass 0  IDiag  1:
 E= -311.083331622660     Delta-E=       -0.000009832609 Rises=F Damp=F
 DIIS: error= 2.71D-04 at cycle   6 NSaved=   6.
 NSaved= 6 IEnMin= 6 EnMin= -311.083331622660     IErMin= 6 ErrMin= 2.71D-04
 ErrMax= 2.71D-04  0.00D+00 EMaxC= 1.00D-01 BMatC= 9.12D-06 BMatP= 1.94D-05
 IDIUse=3 WtCom= 9.97D-01 WtEn= 2.71D-03
 Coeff-Com: -0.239D-03-0.539D-03 0.552D-01 0.895D-01 0.439D+00 0.417D+00
 Coeff-En:   0.000D+00 0.000D+00 0.000D+00 0.000D+00 0.339D+00 0.661D+00
 Coeff:     -0.239D-03-0.537D-03 0.550D-01 0.893D-01 0.439D+00 0.418D+00
 Gap=     0.271 Goal=   None    Shift=    0.000
 RMSDP=1.70D-05 MaxDP=7.86D-04 DE=-9.83D-06 OVMax= 1.68D-03

 Cycle   7  Pass 0  IDiag  1:
 E= -311.083340839614     Delta-E=       -0.000009216953 Rises=F Damp=F
 DIIS: error= 1.87D-05 at cycle   7 NSaved=   7.
 NSaved= 7 IEnMin= 7 EnMin= -311.083340839614     IErMin= 7 ErrMin= 1.87D-05
 ErrMax= 1.87D-05  0.00D+00 EMaxC= 1.00D-01 BMatC= 5.59D-08 BMatP= 9.12D-06
 IDIUse=1 WtCom= 1.00D+00 WtEn= 0.00D+00
 Coeff-Com:  0.177D-04-0.425D-03 0.113D-01 0.190D-01 0.107D+00 0.132D+00
 Coeff-Com:  0.732D+00
 Coeff:      0.177D-04-0.425D-03 0.113D-01 0.190D-01 0.107D+00 0.132D+00
 Coeff:      0.732D+00
 Gap=     0.271 Goal=   None    Shift=    0.000
 RMSDP=2.09D-06 MaxDP=7.10D-05 DE=-9.22D-06 OVMax= 1.21D-04

 Initial convergence to 1.0D-05 achieved.  Increase integral accuracy.
 Cycle   8  Pass 1  IDiag  1:
 E= -311.083390343540     Delta-E=       -0.000049503926 Rises=F Damp=F
 DIIS: error= 2.47D-05 at cycle   1 NSaved=   1.
 NSaved= 1 IEnMin= 1 EnMin= -311.083390343540     IErMin= 1 ErrMin= 2.47D-05
 ErrMax= 2.47D-05  0.00D+00 EMaxC= 1.00D-01 BMatC= 1.17D-07 BMatP= 1.17D-07
 IDIUse=1 WtCom= 1.00D+00 WtEn= 0.00D+00
 Coeff-Com:  0.100D+01
 Coeff:      0.100D+01
 Gap=     0.271 Goal=   None    Shift=    0.000
 RMSDP=2.09D-06 MaxDP=7.10D-05 DE=-4.95D-05 OVMax= 1.41D-04

 Cycle   9  Pass 1  IDiag  1:
 E= -311.083390473609     Delta-E=       -0.000000130069 Rises=F Damp=F
 DIIS: error= 1.05D-05 at cycle   2 NSaved=   2.
 NSaved= 2 IEnMin= 2 EnMin= -311.083390473609     IErMin= 2 ErrMin= 1.05D-05
 ErrMax= 1.05D-05  0.00D+00 EMaxC= 1.00D-01 BMatC= 2.86D-08 BMatP= 1.17D-07
 IDIUse=1 WtCom= 1.00D+00 WtEn= 0.00D+00
 Coeff-Com:  0.258D+00 0.742D+00
 Coeff:      0.258D+00 0.742D+00
 Gap=     0.271 Goal=   None    Shift=    0.000
 RMSDP=1.73D-06 MaxDP=5.65D-05 DE=-1.30D-07 OVMax= 6.18D-05

 Cycle  10  Pass 1  IDiag  1:
 E= -311.083390486621     Delta-E=       -0.000000013012 Rises=F Damp=F
 DIIS: error= 8.36D-06 at cycle   3 NSaved=   3.
 NSaved= 3 IEnMin= 3 EnMin= -311.083390486621     IErMin= 3 ErrMin= 8.36D-06
 ErrMax= 8.36D-06  0.00D+00 EMaxC= 1.00D-01 BMatC= 1.55D-08 BMatP= 2.86D-08
 IDIUse=1 WtCom= 1.00D+00 WtEn= 0.00D+00
 Coeff-Com: -0.233D-01 0.422D+00 0.601D+00
 Coeff:     -0.233D-01 0.422D+00 0.601D+00
 Gap=     0.271 Goal=   None    Shift=    0.000
 RMSDP=7.53D-07 MaxDP=3.07D-05 DE=-1.30D-08 OVMax= 4.55D-05

 Cycle  11  Pass 1  IDiag  1:
 E= -311.083390500961     Delta-E=       -0.000000014340 Rises=F Damp=F
 DIIS: error= 2.31D-06 at cycle   4 NSaved=   4.
 NSaved= 4 IEnMin= 4 EnMin= -311.083390500961     IErMin= 4 ErrMin= 2.31D-06
 ErrMax= 2.31D-06  0.00D+00 EMaxC= 1.00D-01 BMatC= 6.97D-10 BMatP= 1.55D-08
 IDIUse=1 WtCom= 1.00D+00 WtEn= 0.00D+00
 Coeff-Com: -0.180D-01 0.245D+00 0.369D+00 0.404D+00
 Coeff:     -0.180D-01 0.245D+00 0.369D+00 0.404D+00
 Gap=     0.271 Goal=   None    Shift=    0.000
 RMSDP=1.67D-07 MaxDP=7.79D-06 DE=-1.43D-08 OVMax= 1.57D-05

 Cycle  12  Pass 1  IDiag  1:
 E= -311.083390501659     Delta-E=       -0.000000000698 Rises=F Damp=F
 DIIS: error= 3.04D-07 at cycle   5 NSaved=   5.
 NSaved= 5 IEnMin= 5 EnMin= -311.083390501659     IErMin= 5 ErrMin= 3.04D-07
 ErrMax= 3.04D-07  0.00D+00 EMaxC= 1.00D-01 BMatC= 1.79D-11 BMatP= 6.97D-10
 IDIUse=1 WtCom= 1.00D+00 WtEn= 0.00D+00
 Coeff-Com: -0.472D-02 0.561D-01 0.901D-01 0.169D+00 0.689D+00
 Coeff:     -0.472D-02 0.561D-01 0.901D-01 0.169D+00 0.689D+00
 Gap=     0.271 Goal=   None    Shift=    0.000
 RMSDP=3.32D-08 MaxDP=1.13D-06 DE=-6.98D-10 OVMax= 2.15D-06

 Cycle  13  Pass 1  IDiag  1:
 E= -311.083390501664     Delta-E=       -0.000000000006 Rises=F Damp=F
 DIIS: error= 1.63D-07 at cycle   6 NSaved=   6.
 NSaved= 6 IEnMin= 6 EnMin= -311.083390501664     IErMin= 6 ErrMin= 1.63D-07
 ErrMax= 1.63D-07  0.00D+00 EMaxC= 1.00D-01 BMatC= 3.68D-12 BMatP= 1.79D-11
 IDIUse=1 WtCom= 1.00D+00 WtEn= 0.00D+00
 Coeff-Com: -0.955D-03 0.735D-02 0.145D-01 0.534D-01 0.377D+00 0.549D+00
 Coeff:     -0.955D-03 0.735D-02 0.145D-01 0.534D-01 0.377D+00 0.549D+00
 Gap=     0.271 Goal=   None    Shift=    0.000
 RMSDP=1.23D-08 MaxDP=4.44D-07 DE=-5.68D-12 OVMax= 3.66D-07

 Cycle  14  Pass 1  IDiag  1:
 E= -311.083390501672     Delta-E=       -0.000000000008 Rises=F Damp=F
 DIIS: error= 4.34D-08 at cycle   7 NSaved=   7.
 NSaved= 7 IEnMin= 7 EnMin= -311.083390501672     IErMin= 7 ErrMin= 4.34D-08
 ErrMax= 4.34D-08  0.00D+00 EMaxC= 1.00D-01 BMatC= 2.52D-13 BMatP= 3.68D-12
 IDIUse=1 WtCom= 1.00D+00 WtEn= 0.00D+00
 Coeff-Com: -0.339D-04-0.166D-02-0.142D-02 0.891D-02 0.115D+00 0.269D+00
 Coeff-Com:  0.610D+00
 Coeff:     -0.339D-04-0.166D-02-0.142D-02 0.891D-02 0.115D+00 0.269D+00
 Coeff:      0.610D+00
 Gap=     0.271 Goal=   None    Shift=    0.000
 RMSDP=3.52D-09 MaxDP=1.07D-07 DE=-7.96D-12 OVMax= 1.18D-07

 SCF Done:  E(RB3LYP) =  -311.083390502     A.U. after   14 cycles
            NFock= 14  Conv=0.35D-08     -V/T= 2.0095
 KE= 3.081596367754D+02 PE=-1.373856154727D+03 EE= 4.290053924325D+02
 Leave Link  502 at Thu Sep  8 15:00:50 2022, MaxMem= 24159191040 cpu:        79.9
 (Enter /public/home/users/caep010/software/Gaussian09/g09/l601.exe)
 Copying SCF densities to generalized density rwf, IOpCl= 0 IROHF=0.

 **********************************************************************

            Population analysis using the SCF density.

 **********************************************************************

 Orbital symmetries:
       Occupied  (A) (A) (A) (A) (A) (A) (A) (A) (A) (A) (A) (A)
                 (A) (A) (A) (A) (A) (A) (A) (A) (A) (A) (A) (A)
                 (A) (A) (A) (A)
       Virtual   (A) (A) (A) (A) (A) (A) (A) (A) (A) (A) (A) (A)
                 (A) (A) (A) (A) (A) (A) (A) (A) (A) (A) (A) (A)
                 (A) (A) (A) (A) (A) (A) (A) (A) (A) (A) (A) (A)
                 (A) (A) (A) (A) (A) (A) (A) (A) (A) (A) (A) (A)
                 (A) (A) (A) (A) (A) (A) (A) (A) (A) (A) (A) (A)
                 (A) (A) (A) (A) (A) (A) (A) (A) (A) (A) (A) (A)
                 (A) (A) (A) (A) (A) (A) (A) (A) (A) (A) (A) (A)
                 (A) (A) (A) (A) (A) (A) (A) (A) (A) (A) (A) (A)
                 (A) (A) (A) (A) (A) (A) (A) (A) (A) (A) (A) (A)
                 (A) (A) (A) (A) (A) (A) (A) (A) (A) (A) (A) (A)
                 (A) (A) (A) (A) (A) (A) (A) (A) (A) (A) (A) (A)
                 (A) (A) (A) (A) (A)
 The electronic state is 1-A.
 Alpha  occ. eigenvalues --  -19.13767 -10.24336 -10.18356 -10.17816 -10.17655
 Alpha  occ. eigenvalues --  -10.17654 -10.15905  -1.01705  -0.80502  -0.74423
 Alpha  occ. eigenvalues --   -0.69038  -0.67830  -0.60675  -0.51680  -0.48191
 Alpha  occ. eigenvalues --   -0.46638  -0.43465  -0.41598  -0.41469  -0.40683
 Alpha  occ. eigenvalues --   -0.38841  -0.37907  -0.36744  -0.35329  -0.32908
 Alpha  occ. eigenvalues --   -0.31218  -0.26630  -0.23736
 Alpha virt. eigenvalues --    0.03337   0.06692   0.11306   0.12837   0.13598
 Alpha virt. eigenvalues --    0.14090   0.14900   0.17597   0.18732   0.19106
 Alpha virt. eigenvalues --    0.19791   0.20052   0.22482   0.23189   0.24875
 Alpha virt. eigenvalues --    0.26178   0.26603   0.32512   0.37787   0.49452
 Alpha virt. eigenvalues --    0.52652   0.53502   0.55077   0.56326   0.58200
 Alpha virt. eigenvalues --    0.60744   0.62082   0.62779   0.63343   0.69137
 Alpha virt. eigenvalues --    0.71289   0.72305   0.74596   0.76382   0.78598
 Alpha virt. eigenvalues --    0.82267   0.83452   0.84463   0.86086   0.86113
 Alpha virt. eigenvalues --    0.87269   0.88566   0.88595   0.91615   0.93134
 Alpha virt. eigenvalues --    0.93571   0.94662   0.97355   0.98925   1.04976
 Alpha virt. eigenvalues --    1.05245   1.14372   1.18859   1.20981   1.26285
 Alpha virt. eigenvalues --    1.29014   1.31439   1.41067   1.42665   1.46932
 Alpha virt. eigenvalues --    1.50336   1.53556   1.54710   1.57083   1.68652
 Alpha virt. eigenvalues --    1.72120   1.76188   1.78300   1.81890   1.83513
 Alpha virt. eigenvalues --    1.83767   1.89284   1.92203   1.96656   1.97152
 Alpha virt. eigenvalues --    2.01255   2.03069   2.04231   2.04784   2.05028
 Alpha virt. eigenvalues --    2.08256   2.09921   2.10003   2.10952   2.13300
 Alpha virt. eigenvalues --    2.14447   2.16481   2.20367   2.21489   2.22362
 Alpha virt. eigenvalues --    2.25224   2.30006   2.34798   2.36095   2.36570
 Alpha virt. eigenvalues --    2.45066   2.47563   2.49705   2.54088   2.57137
 Alpha virt. eigenvalues --    2.61757   2.63030   2.65390   2.66104   2.68190
 Alpha virt. eigenvalues --    2.70636   2.71490   2.76520   2.78899   2.82982
 Alpha virt. eigenvalues --    2.85827   2.89145   2.89943   2.90086   2.91123
 Alpha virt. eigenvalues --    3.01777   3.04267   3.11690   3.18158   3.20785
 Alpha virt. eigenvalues --    3.23402   3.38719   3.42526   3.42593   3.43546
 Alpha virt. eigenvalues --    3.44464   3.47948   3.47982   3.53130   3.61922
 Alpha virt. eigenvalues --    4.08208   4.21592   4.37460   4.48925   4.52290
 Alpha virt. eigenvalues --    4.63854   4.71874
          Condensed to atoms (all electrons):
               1          2          3          4          5          6
     1  C    4.970984   0.679344  -0.055841  -0.032982  -0.000919  -0.000914
     2  C    0.679344   4.712479   0.380952   0.384804  -0.065365  -0.065368
     3  C   -0.055841   0.380952   5.010347  -0.069824  -0.003519  -0.003520
     4  C   -0.032982   0.384804  -0.069824   4.713955   0.364131   0.364133
     5  C   -0.000919  -0.065365  -0.003519   0.364131   5.062075  -0.074849
     6  C   -0.000914  -0.065368  -0.003520   0.364133  -0.074849   5.062078
     7  O   -0.009835  -0.047666   0.002579   0.222629  -0.050631  -0.050633
     8  H    0.370233  -0.017937   0.006808  -0.019109   0.000687   0.000686
     9  H    0.360181  -0.024524  -0.014806   0.006509  -0.000130  -0.000130
    10  H   -0.008820  -0.023399   0.373177   0.004579   0.000044   0.000044
    11  H    0.000387  -0.032652   0.371922  -0.002895  -0.000556   0.002323
    12  H    0.000388  -0.032655   0.371921  -0.002893   0.002320  -0.000558
    13  H   -0.000155  -0.004550   0.000892  -0.021414   0.352304   0.000190
    14  H    0.002064  -0.003150  -0.000112  -0.026810   0.372440   0.006265
    15  H   -0.000096   0.005273   0.000102  -0.025680   0.363454  -0.006964
    16  H    0.002063  -0.003149  -0.000113  -0.026809   0.006265   0.372443
    17  H   -0.000096   0.005273   0.000102  -0.025678  -0.006964   0.363455
    18  H   -0.000155  -0.004551   0.000894  -0.021410   0.000189   0.352302
    19  H    0.000202   0.008529  -0.000234  -0.025332  -0.006479  -0.006480
               7          8          9         10         11         12
     1  C   -0.009835   0.370233   0.360181  -0.008820   0.000387   0.000388
     2  C   -0.047666  -0.017937  -0.024524  -0.023399  -0.032652  -0.032655
     3  C    0.002579   0.006808  -0.014806   0.373177   0.371922   0.371921
     4  C    0.222629  -0.019109   0.006509   0.004579  -0.002895  -0.002893
     5  C   -0.050631   0.000687  -0.000130   0.000044  -0.000556   0.002320
     6  C   -0.050633   0.000686  -0.000130   0.000044   0.002323  -0.000558
     7  O    8.192546   0.013314   0.000312  -0.000051   0.000006   0.000006
     8  H    0.013314   0.572913  -0.045198  -0.000028  -0.000196  -0.000196
     9  H    0.000312  -0.045198   0.632271   0.006680   0.000236   0.000236
    10  H   -0.000051  -0.000028   0.006680   0.595187  -0.028581  -0.028584
    11  H    0.000006  -0.000196   0.000236  -0.028581   0.614917  -0.039607
    12  H    0.000006  -0.000196   0.000236  -0.028584  -0.039607   0.614932
    13  H    0.003967  -0.000023  -0.000005  -0.000011   0.000025   0.002586
    14  H    0.001416   0.000085  -0.000035  -0.000037   0.000083  -0.000000
    15  H   -0.002749  -0.000026   0.000005   0.000001  -0.000008  -0.000145
    16  H    0.001415   0.000084  -0.000035  -0.000037   0.000000   0.000083
    17  H   -0.002750  -0.000026   0.000005   0.000001  -0.000145  -0.000008
    18  H    0.003967  -0.000023  -0.000005  -0.000011   0.002582   0.000026
    19  H    0.279716  -0.000545  -0.000005   0.000004  -0.000001  -0.000001
              13         14         15         16         17         18
     1  C   -0.000155   0.002064  -0.000096   0.002063  -0.000096  -0.000155
     2  C   -0.004550  -0.003150   0.005273  -0.003149   0.005273  -0.004551
     3  C    0.000892  -0.000112   0.000102  -0.000113   0.000102   0.000894
     4  C   -0.021414  -0.026810  -0.025680  -0.026809  -0.025678  -0.021410
     5  C    0.352304   0.372440   0.363454   0.006265  -0.006964   0.000189
     6  C    0.000190   0.006265  -0.006964   0.372443   0.363455   0.352302
     7  O    0.003967   0.001416  -0.002749   0.001415  -0.002750   0.003967
     8  H   -0.000023   0.000085  -0.000026   0.000084  -0.000026  -0.000023
     9  H   -0.000005  -0.000035   0.000005  -0.000035   0.000005  -0.000005
    10  H   -0.000011  -0.000037   0.000001  -0.000037   0.000001  -0.000011
    11  H    0.000025   0.000083  -0.000008   0.000000  -0.000145   0.002582
    12  H    0.002586  -0.000000  -0.000145   0.000083  -0.000008   0.000026
    13  H    0.622312  -0.027694  -0.029492  -0.000124   0.000194  -0.000132
    14  H   -0.027694   0.586154  -0.030449  -0.000215  -0.000113  -0.000124
    15  H   -0.029492  -0.030449   0.630907  -0.000113   0.004208   0.000194
    16  H   -0.000124  -0.000215  -0.000113   0.586152  -0.030448  -0.027696
    17  H    0.000194  -0.000113   0.004208  -0.030448   0.630903  -0.029491
    18  H   -0.000132  -0.000124   0.000194  -0.027696  -0.029491   0.622312
    19  H   -0.000117  -0.000553   0.005206  -0.000553   0.005207  -0.000117
              19
     1  C    0.000202
     2  C    0.008529
     3  C   -0.000234
     4  C   -0.025332
     5  C   -0.006479
     6  C   -0.006480
     7  O    0.279716
     8  H   -0.000545
     9  H   -0.000005
    10  H    0.000004
    11  H   -0.000001
    12  H   -0.000001
    13  H   -0.000117
    14  H   -0.000553
    15  H    0.005206
    16  H   -0.000553
    17  H    0.005207
    18  H   -0.000117
    19  H    0.443530
 Mulliken charges:
               1
     1  C   -0.276032
     2  C    0.148311
     3  C   -0.371727
     4  C    0.240095
     5  C   -0.314498
     6  C   -0.314506
     7  O   -0.557560
     8  H    0.118496
     9  H    0.078437
    10  H    0.109845
    11  H    0.112161
    12  H    0.112149
    13  H    0.101245
    14  H    0.120785
    15  H    0.086372
    16  H    0.120785
    17  H    0.086371
    18  H    0.101248
    19  H    0.298023
 Sum of Mulliken charges =  -0.00000
 Mulliken charges with hydrogens summed into heavy atoms:
               1
     1  C   -0.079099
     2  C    0.148311
     3  C   -0.037572
     4  C    0.240095
     5  C   -0.006096
     6  C   -0.006102
     7  O   -0.259537
 Electronic spatial extent (au):  <R**2>=            806.6170
 Charge=             -0.0000 electrons
 Dipole moment (field-independent basis, Debye):
    X=              1.0473    Y=             -1.4725    Z=              0.0003  Tot=              1.8070
 Quadrupole moment (field-independent basis, Debye-Ang):
   XX=            -39.7647   YY=            -46.1156   ZZ=            -45.7820
   XY=              0.8685   XZ=             -0.0000   YZ=              0.0006
 Traceless Quadrupole moment (field-independent basis, Debye-Ang):
   XX=              4.1228   YY=             -2.2282   ZZ=             -1.8946
   XY=              0.8685   XZ=             -0.0000   YZ=              0.0006
 Octapole moment (field-independent basis, Debye-Ang**2):
  XXX=             15.3830  YYY=              3.4775  ZZZ=             -0.0020  XYY=              1.0504
  XXY=              7.3924  XXZ=             -0.0022  XZZ=              2.9976  YZZ=              0.4745
  YYZ=              0.0010  XYZ=              0.0002
 Hexadecapole moment (field-independent basis, Debye-Ang**3):
 XXXX=           -467.9681 YYYY=           -329.9729 ZZZZ=           -223.9371 XXXY=             20.4202
 XXXZ=             -0.0065 YYYX=              6.9794 YYYZ=             -0.0025 ZZZX=             -0.0018
 ZZZY=              0.0003 XXYY=           -138.2635 XXZZ=           -130.2587 YYZZ=            -95.3913
 XXYZ=             -0.0031 YYXZ=              0.0001 ZZXY=              5.8534
 N-N= 3.256077350174D+02 E-N=-1.373856157939D+03  KE= 3.081596367754D+02
 No NMR shielding tensors so no spin-rotation constants.
 Leave Link  601 at Thu Sep  8 15:00:51 2022, MaxMem= 24159191040 cpu:        12.4
 (Enter /public/home/users/caep010/software/Gaussian09/g09/l701.exe)
 Compute integral first derivatives.
 ... and contract with generalized density number  0.
 Leave Link  701 at Thu Sep  8 15:00:51 2022, MaxMem= 24159191040 cpu:        11.2
 (Enter /public/home/users/caep010/software/Gaussian09/g09/l702.exe)
 L702 exits ... SP integral derivatives will be done elsewhere.
 Leave Link  702 at Thu Sep  8 15:00:51 2022, MaxMem= 24159191040 cpu:         0.5
 (Enter /public/home/users/caep010/software/Gaussian09/g09/l703.exe)
 Compute integral first derivatives, UseDBF=F ICtDFT=           0.
 Integral derivatives from FoFJK, PRISM(SPDF).
 Calling FoFJK, ICntrl=      2127 FMM=F ISym2X=0 I1Cent= 0 IOpClX= 0 NMat=1 NMatS=1 NMatT=0.
 FoFJK:  IHMeth= 1 ICntrl=    2127 DoSepK=F KAlg= 0 I1Cent=   0 FoldK=F
 IRaf=         0 NMat=   1 IRICut=       1 DoRegI=T DoRafI=F ISym2E= 0.
 FoFCou: FMM=F IPFlag=           0 FMFlag=      100000 FMFlg1=         800
         NFxFlg=           0 DoJE=F BraDBF=F KetDBF=F FulRan=T
         wScrn=  0.000000 ICntrl=    2127 IOpCl=  0 I1Cent=           0 NGrid=           0
         NMat0=    1 NMatS0=      1 NMatT0=    0 NMatD0=    1 NMtDS0=    0 NMtDT0=    0
 Symmetry not used in FoFCou.
 Leave Link  703 at Thu Sep  8 15:00:52 2022, MaxMem= 24159191040 cpu:        16.0
 (Enter /public/home/users/caep010/software/Gaussian09/g09/l716.exe)
 Dipole        = 4.12047286D-01-5.79341417D-01 1.31826314D-04
 ***** Axes restored to original set *****
 -------------------------------------------------------------------
 Center     Atomic                   Forces (Hartrees/Bohr)
 Number     Number              X              Y              Z
 -------------------------------------------------------------------
      1        6           0.001726458   -0.001977687    0.003202561
      2        6          -0.000578588    0.001582928   -0.003040233
      3        6           0.000345624    0.000173598   -0.000563277
      4        6          -0.000034379    0.000666268   -0.001420623
      5        6          -0.000182033    0.000057201    0.000017521
      6        6          -0.000187947    0.000043178    0.000014756
      7        8           0.002464482   -0.001603170    0.001965373
      8        1          -0.000580152   -0.000115642    0.000585230
      9        1           0.000699863   -0.000142857   -0.000102388
     10        1           0.000144439    0.000030300   -0.000154640
     11        1           0.000038873   -0.000120728   -0.000155842
     12        1           0.000114978    0.000154101   -0.000022135
     13        1          -0.000008049    0.000196039   -0.000061227
     14        1           0.000036298    0.000033883    0.000070775
     15        1          -0.000156768    0.000170335    0.000003106
     16        1           0.000003573   -0.000087689    0.000015592
     17        1          -0.000210902   -0.000028897   -0.000089126
     18        1          -0.000076129   -0.000059008   -0.000183947
     19        1          -0.003559639    0.001027846   -0.000081478
 -------------------------------------------------------------------
 Cartesian Forces:  Max     0.003559639 RMS     0.001026158
 Leave Link  716 at Thu Sep  8 15:00:52 2022, MaxMem= 24159191040 cpu:         0.8
 (Enter /public/home/users/caep010/software/Gaussian09/g09/l103.exe)

 GradGradGradGradGradGradGradGradGradGradGradGradGradGradGradGradGradGrad
 Berny optimization.
 FormGI is forming the generalized inverse of G from B-inverse, IUseBI=4.
 Internal  Forces:  Max     0.004684874 RMS     0.000751659
 Search for a local minimum.
 Step number   1 out of a maximum of   96
 All quantities printed in internal units (Hartrees-Bohrs-Radians)
 RMS Force = .75166D-03 SwitMx=.10000D-02 MixMth= 2
 Mixed Optimization -- En-DIIS/RFO-DIIS
 Second derivative matrix not updated -- first step.
 ITU=  0
     Eigenvalues ---    0.00230   0.00230   0.00405   0.00632   0.01173
     Eigenvalues ---    0.01306   0.02991   0.02991   0.04699   0.05351
     Eigenvalues ---    0.05351   0.05608   0.05608   0.06136   0.06976
     Eigenvalues ---    0.07128   0.07297   0.16000   0.16000   0.16000
     Eigenvalues ---    0.16000   0.16000   0.16000   0.16000   0.16000
     Eigenvalues ---    0.16000   0.16000   0.16000   0.16000   0.16455
     Eigenvalues ---    0.17329   0.25000   0.25000   0.28408   0.28409
     Eigenvalues ---    0.29677   0.31340   0.34054   0.34055   0.34102
     Eigenvalues ---    0.34104   0.34428   0.34429   0.34460   0.34460
     Eigenvalues ---    0.34520   0.35320   0.35833   0.41106   0.54986
     Eigenvalues ---    0.59093
 RFO step:  Lambda=-1.05584035D-04 EMin= 2.30000000D-03
 Linear search not attempted -- first point.
 Iteration  1 RMS(Cart)=  0.00426394 RMS(Int)=  0.00000344
 Iteration  2 RMS(Cart)=  0.00000533 RMS(Int)=  0.00000094
 Iteration  3 RMS(Cart)=  0.00000000 RMS(Int)=  0.00000094
 ITry= 1 IFail=0 DXMaxC= 1.18D-02 DCOld= 1.00D+10 DXMaxT= 3.00D-01 DXLimC= 3.00D+00 Rises=F
 Variable       Old X    -DE/DX   Delta X   Delta X   Delta X     New X
                                 (Linear)    (Quad)   (Total)
    R1        2.51666   0.00468   0.00000   0.00793   0.00793   2.52458
    R2        2.04344   0.00081   0.00000   0.00225   0.00225   2.04569
    R3        2.05159   0.00072   0.00000   0.00203   0.00203   2.05362
    R4        2.85369   0.00113   0.00000   0.00361   0.00361   2.85730
    R5        2.88612   0.00196   0.00000   0.00659   0.00659   2.89271
    R6        2.06461   0.00011   0.00000   0.00032   0.00032   2.06493
    R7        2.07156   0.00017   0.00000   0.00049   0.00049   2.07204
    R8        2.07158   0.00016   0.00000   0.00047   0.00047   2.07205
    R9        2.91252   0.00048   0.00000   0.00170   0.00170   2.91422
   R10        2.91256   0.00047   0.00000   0.00167   0.00167   2.91422
   R11        2.70078   0.00224   0.00000   0.00544   0.00544   2.70622
   R12        2.06614   0.00012   0.00000   0.00035   0.00035   2.06649
   R13        2.06561   0.00009   0.00000   0.00025   0.00025   2.06586
   R14        2.07238   0.00019   0.00000   0.00057   0.00057   2.07295
   R15        2.06560   0.00009   0.00000   0.00026   0.00026   2.06586
   R16        2.07238   0.00019   0.00000   0.00057   0.00057   2.07295
   R17        2.06613   0.00012   0.00000   0.00036   0.00036   2.06649
   R18        1.81845   0.00370   0.00000   0.00673   0.00673   1.82518
    A1        2.12543  -0.00020   0.00000  -0.00124  -0.00124   2.12419
    A2        2.10776   0.00000   0.00000   0.00001   0.00001   2.10777
    A3        2.04999   0.00020   0.00000   0.00123   0.00123   2.05123
    A4        2.11412   0.00019   0.00000   0.00074   0.00074   2.11487
    A5        2.12070  -0.00040   0.00000  -0.00159  -0.00159   2.11910
    A6        2.04837   0.00021   0.00000   0.00085   0.00085   2.04922
    A7        1.92700   0.00021   0.00000   0.00116   0.00116   1.92816
    A8        1.95655   0.00004   0.00000   0.00035   0.00035   1.95690
    A9        1.95656   0.00004   0.00000   0.00034   0.00034   1.95690
   A10        1.87936  -0.00016   0.00000  -0.00114  -0.00114   1.87822
   A11        1.87933  -0.00016   0.00000  -0.00112  -0.00112   1.87821
   A12        1.86109  -0.00000   0.00000   0.00026   0.00026   1.86135
   A13        1.93363   0.00004   0.00000   0.00140   0.00140   1.93503
   A14        1.93363   0.00004   0.00000   0.00140   0.00140   1.93503
   A15        1.86724   0.00017   0.00000   0.00191   0.00191   1.86915
   A16        1.93097   0.00005   0.00000  -0.00024  -0.00024   1.93073
   A17        1.89830  -0.00015   0.00000  -0.00229  -0.00229   1.89601
   A18        1.89829  -0.00015   0.00000  -0.00227  -0.00227   1.89602
   A19        1.95927   0.00022   0.00000   0.00153   0.00153   1.96080
   A20        1.91977  -0.00008   0.00000  -0.00068  -0.00068   1.91909
   A21        1.91863   0.00014   0.00000   0.00093   0.00093   1.91956
   A22        1.89904  -0.00008   0.00000  -0.00053  -0.00053   1.89851
   A23        1.87330  -0.00016   0.00000  -0.00066  -0.00066   1.87264
   A24        1.89211  -0.00006   0.00000  -0.00066  -0.00066   1.89145
   A25        1.91979  -0.00008   0.00000  -0.00069  -0.00069   1.91910
   A26        1.91860   0.00014   0.00000   0.00094   0.00094   1.91954
   A27        1.95927   0.00022   0.00000   0.00153   0.00153   1.96079
   A28        1.89211  -0.00006   0.00000  -0.00066  -0.00066   1.89144
   A29        1.89906  -0.00008   0.00000  -0.00054  -0.00054   1.89853
   A30        1.87329  -0.00016   0.00000  -0.00065  -0.00065   1.87264
   A31        1.87301  -0.00031   0.00000  -0.00191  -0.00191   1.87110
    D1        3.14154   0.00000   0.00000   0.00008   0.00008  -3.14156
    D2       -0.00005   0.00000   0.00000   0.00009   0.00009   0.00004
    D3       -0.00007   0.00000   0.00000   0.00009   0.00009   0.00002
    D4        3.14152   0.00000   0.00000   0.00010   0.00010  -3.14156
    D5       -0.00014   0.00000   0.00000   0.00002   0.00002  -0.00012
    D6        2.09522  -0.00003   0.00000  -0.00040  -0.00040   2.09482
    D7       -2.09546   0.00003   0.00000   0.00042   0.00042  -2.09504
    D8        3.14145   0.00000   0.00000   0.00002   0.00002   3.14147
    D9       -1.04638  -0.00003   0.00000  -0.00040  -0.00040  -1.04678
   D10        1.04613   0.00003   0.00000   0.00042   0.00042   1.04654
   D11        2.06638  -0.00006   0.00000  -0.00077  -0.00077   2.06561
   D12       -2.06679   0.00006   0.00000   0.00088   0.00088  -2.06591
   D13       -0.00021   0.00000   0.00000   0.00007   0.00007  -0.00015
   D14       -1.07521  -0.00006   0.00000  -0.00077  -0.00077  -1.07598
   D15        1.07480   0.00006   0.00000   0.00089   0.00089   1.07569
   D16        3.14138   0.00000   0.00000   0.00007   0.00007   3.14145
   D17        1.10176  -0.00003   0.00000   0.00064   0.00064   1.10240
   D18       -1.01542  -0.00002   0.00000   0.00075   0.00075  -1.01466
   D19       -3.09762   0.00002   0.00000   0.00141   0.00141  -3.09621
   D20       -1.04978  -0.00013   0.00000  -0.00196  -0.00197  -1.05175
   D21        3.11622  -0.00013   0.00000  -0.00185  -0.00185   3.11438
   D22        1.03402  -0.00009   0.00000  -0.00119  -0.00119   1.03283
   D23       -3.13378   0.00012   0.00000   0.00239   0.00239  -3.13139
   D24        1.03223   0.00012   0.00000   0.00251   0.00251   1.03473
   D25       -1.04998   0.00016   0.00000   0.00317   0.00317  -1.04681
   D26        1.01527   0.00002   0.00000  -0.00068  -0.00068   1.01458
   D27        3.09747  -0.00002   0.00000  -0.00135  -0.00135   3.09612
   D28       -1.10196   0.00003   0.00000  -0.00054  -0.00054  -1.10250
   D29       -3.11638   0.00013   0.00000   0.00192   0.00192  -3.11446
   D30       -1.03418   0.00009   0.00000   0.00125   0.00125  -1.03293
   D31        1.04958   0.00013   0.00000   0.00205   0.00205   1.05164
   D32       -1.03237  -0.00012   0.00000  -0.00245  -0.00245  -1.03482
   D33        1.04983  -0.00016   0.00000  -0.00311  -0.00311   1.04672
   D34        3.13359  -0.00012   0.00000  -0.00231  -0.00231   3.13128
   D35        3.14156  -0.00000   0.00000  -0.00003  -0.00003   3.14153
   D36        1.05211  -0.00006   0.00000  -0.00153  -0.00152   1.05059
   D37       -1.05217   0.00006   0.00000   0.00148   0.00147  -1.05070
         Item               Value     Threshold  Converged?
 Maximum Force            0.004685     0.000450     NO 
 RMS     Force            0.000752     0.000300     NO 
 Maximum Displacement     0.011792     0.001800     NO 
 RMS     Displacement     0.004264     0.001200     NO 
 Predicted change in Energy=-5.280454D-05
 Lowest energy point so far.  Saving SCF results.
 GradGradGradGradGradGradGradGradGradGradGradGradGradGradGradGradGradGrad

 Leave Link  103 at Thu Sep  8 15:00:52 2022, MaxMem= 24159191040 cpu:         3.7
 (Enter /public/home/users/caep010/software/Gaussian09/g09/l202.exe)
                          Input orientation:                          
 ---------------------------------------------------------------------
 Center     Atomic      Atomic             Coordinates (Angstroms)
 Number     Number       Type             X           Y           Z
 ---------------------------------------------------------------------
      1          6           0        1.444824   -1.006047    1.291521
      2          6           0        0.880247   -0.368039    0.262460
      3          6           0        1.678689   -0.012884   -0.971457
      4          6           0       -0.597190    0.031817    0.285088
      5          6           0       -0.753399    1.563093    0.190310
      6          6           0       -1.372284   -0.664630   -0.851746
      7          8           0       -1.132620   -0.406001    1.539063
      8          1           0        0.881408   -1.264534    2.179001
      9          1           0        2.494800   -1.284945    1.264237
     10          1           0        2.713209   -0.348906   -0.867140
     11          1           0        1.268709   -0.477017   -1.876311
     12          1           0        1.697761    1.068135   -1.153943
     13          1           0       -0.371177    1.962382   -0.753248
     14          1           0       -0.223117    2.044077    1.016479
     15          1           0       -1.813832    1.836407    0.254341
     16          1           0       -1.276986   -1.749647   -0.758159
     17          1           0       -2.436444   -0.404757   -0.793896
     18          1           0       -1.017618   -0.364193   -1.841582
     19          1           0       -2.064981   -0.154415    1.555081
 ---------------------------------------------------------------------
                    Distance matrix (angstroms):
                    1          2          3          4          5
     1  C    0.000000
     2  C    1.335952   0.000000
     3  C    2.482365   1.512017   0.000000
     4  C    2.501977   1.530757   2.600102   0.000000
     5  C    3.556027   2.530469   3.122252   1.542138   0.000000
     6  C    3.556157   2.530477   3.122105   1.542141   2.536069
     7  O    2.657921   2.383860   3.789553   1.432068   2.416665
     8  H    1.082531   2.115853   3.482481   2.730143   3.823998
     9  H    1.086729   2.109753   2.698612   3.500428   4.451454
    10  H    2.588523   2.153163   1.092715   3.525809   4.097721
    11  H    3.216528   2.176493   1.096478   2.900369   3.538628
    12  H    3.216598   2.176493   1.096479   2.900270   2.839046
    13  H    4.036150   2.833477   2.855038   2.203703   1.093539
    14  H    3.487252   2.757582   3.435090   2.173489   1.093207
    15  H    4.446811   3.481051   4.137652   2.176628   1.096959
    16  H    3.487460   2.757564   3.434801   2.173499   3.485395
    17  H    4.446881   3.481045   4.137561   2.176616   2.770150
    18  H    4.036326   2.833531   2.854927   2.203704   2.812975
    19  H    3.621253   3.223488   4.518683   1.949865   2.555910
                    6          7          8          9         10
     6  C    0.000000
     7  O    2.416670   0.000000
     8  H    3.824191   2.280988   0.000000
     9  H    4.451574   3.742492   1.854790   0.000000
    10  H    4.097703   4.536901   3.670538   2.338084   0.000000
    11  H    2.838974   4.175668   4.149186   3.466856   1.766754
    12  H    3.538216   4.175693   4.149252   3.466966   1.766748
    13  H    2.813025   3.382857   4.536523   4.777992   3.855965
    14  H    3.485390   2.665177   3.676729   4.304747   4.230414
    15  H    2.770123   2.672631   4.537012   5.415445   5.150478
    16  H    1.093207   2.665230   3.677078   4.304928   4.230321
    17  H    1.096959   2.672574   4.537121   5.415516   5.150477
    18  H    1.093539   3.382859   4.536739   4.778177   3.856014
    19  H    2.555967   0.965841   3.209805   4.706835   5.360605
                   11         12         13         14         15
    11  H    0.000000
    12  H    1.758806   0.000000
    13  H    3.146612   2.289266   0.000000
    14  H    4.117001   3.058262   1.777788   0.000000
    15  H    4.403824   3.860672   1.764188   1.776051   0.000000
    16  H    3.057845   4.116511   3.820952   4.318833   3.764724
    17  H    3.860700   4.403486   3.141708   3.764713   2.551325
    18  H    2.289372   3.146060   2.648643   3.820931   3.141575
    19  H    4.794999   4.794962   3.560644   2.918205   2.391312
                   16         17         18         19
    16  H    0.000000
    17  H    1.776049   0.000000
    18  H    1.777796   1.764189   0.000000
    19  H    2.918353   2.391307   3.560660   0.000000
 Stoichiometry    C6H12O
 Framework group  C1[X(C6H12O)]
 Deg. of freedom    51
 Full point group                 C1      NOp   1
 RotChk:  IX=0 Diff= 7.61D-04
 Largest Abelian subgroup         C1      NOp   1
 Largest concise Abelian subgroup C1      NOp   1
                         Standard orientation:                         
 ---------------------------------------------------------------------
 Center     Atomic      Atomic             Coordinates (Angstroms)
 Number     Number       Type             X           Y           Z
 ---------------------------------------------------------------------
      1          6           0       -1.525122    1.358812   -0.000047
      2          6           0       -0.936609    0.159470   -0.000010
      3          6           0       -1.753242   -1.113050    0.000043
      4          6           0        0.587657    0.018643   -0.000008
      5          6           0        1.071736   -0.713223    1.268152
      6          6           0        1.071705   -0.713685   -1.267917
      7          8           0        1.132752    1.342913   -0.000254
      8          1           0       -0.948974    2.275288   -0.000112
      9          1           0       -2.608306    1.446515   -0.000021
     10          1           0       -2.821218   -0.881855    0.000167
     11          1           0       -1.548515   -1.735093   -0.879395
     12          1           0       -1.548332   -1.735137    0.879410
     13          1           0        0.697214   -1.739073    1.324658
     14          1           0        0.746351   -0.170232    2.159435
     15          1           0        2.167436   -0.765207    1.275761
     16          1           0        0.746229   -0.171073   -2.159398
     17          1           0        2.167409   -0.765576   -1.275564
     18          1           0        0.697269   -1.739591   -1.323985
     19          1           0        2.094669    1.255933   -0.000197
 ---------------------------------------------------------------------
 Rotational constants (GHZ):      3.2064746      2.2912927      1.9038503
 Leave Link  202 at Thu Sep  8 15:00:52 2022, MaxMem= 24159191040 cpu:         0.2
 (Enter /public/home/users/caep010/software/Gaussian09/g09/l301.exe)
 Standard basis: 6-31G(d,p) (6D, 7F)
 Ernie: Thresh=  0.10000D-02 Tol=  0.10000D-05 Strict=F.
 There are   165 symmetry adapted cartesian basis functions of A   symmetry.
 There are   165 symmetry adapted basis functions of A   symmetry.
   165 basis functions,   280 primitive gaussians,   165 cartesian basis functions
    28 alpha electrons       28 beta electrons
       nuclear repulsion energy       325.0964321930 Hartrees.
 IExCor=  402 DFT=T Ex+Corr=B3LYP ExCW=0 ScaHFX=  0.200000
 ScaDFX=  0.800000  0.720000  1.000000  0.810000 ScalE2=  1.000000  1.000000
 IRadAn=      0 IRanWt=     -1 IRanGd=            0 ICorTp=0 IEmpDi=  4
 NAtoms=   19 NActive=   19 NUniq=   19 SFac= 1.00D+00 NAtFMM=   60 NAOKFM=F Big=F
 Integral buffers will be    131072 words long.
 Raffenetti 2 integral format.
 Two-electron integral symmetry is turned on.
 Leave Link  301 at Thu Sep  8 15:00:52 2022, MaxMem= 24159191040 cpu:         1.6
 (Enter /public/home/users/caep010/software/Gaussian09/g09/l302.exe)
 NPDir=0 NMtPBC=     1 NCelOv=     1 NCel=       1 NClECP=     1 NCelD=      1
         NCelK=      1 NCelE2=     1 NClLst=     1 CellRange=     0.0.
 One-electron integrals computed using PRISM.
 NBasis=   165 RedAO= T EigKep=  2.02D-03  NBF=   165
 NBsUse=   165 1.00D-06 EigRej= -1.00D+00 NBFU=   165
 Precomputing XC quadrature grid using
 IXCGrd= 4 IRadAn=           0 IRanWt=          -1 IRanGd=           0 AccXCQ= 0.00D+00.
 Generated NRdTot=       0 NPtTot=           0 NUsed=           0 NTot=          32
 NSgBfM=   165   165   165   165   165 MxSgAt=    19 MxSgA2=    19.
 Leave Link  302 at Thu Sep  8 15:00:52 2022, MaxMem= 24159191040 cpu:        11.4
 (Enter /public/home/users/caep010/software/Gaussian09/g09/l303.exe)
 DipDrv:  MaxL=1.
 Leave Link  303 at Thu Sep  8 15:00:52 2022, MaxMem= 24159191040 cpu:         0.7
 (Enter /public/home/users/caep010/software/Gaussian09/g09/l401.exe)
 Initial guess from the checkpoint file:  "B3LYP6-31Gdp.Frag_437.chk"
 B after Tr=    -0.000000   -0.000000    0.000000
         Rot=    1.000000   -0.000027    0.000001    0.000292 Ang=  -0.03 deg.
 Guess basis will be translated and rotated to current coordinates.
 JPrj=2 DoOrth=T DoCkMO=T.
 Leave Link  401 at Thu Sep  8 15:00:53 2022, MaxMem= 24159191040 cpu:         3.3
 (Enter /public/home/users/caep010/software/Gaussian09/g09/l502.exe)
 Closed shell SCF:
 Using DIIS extrapolation, IDIIS=  1040.
 Integral symmetry usage will be decided dynamically.
 Keep R1 ints in memory in canonical form, NReq=96177187.
 IVT=      106762 IEndB=      106762 NGot= 24159191040 MDV= 24065300919
 LenX= 24065300919 LenY= 24065273253
 Requested convergence on RMS density matrix=1.00D-08 within 128 cycles.
 Requested convergence on MAX density matrix=1.00D-06.
 Requested convergence on             energy=1.00D-06.
 No special actions if energy rises.
 FoFCou: FMM=F IPFlag=           0 FMFlag=           0 FMFlg1=           0
         NFxFlg=           0 DoJE=F BraDBF=F KetDBF=F FulRan=T
         wScrn=  0.000000 ICntrl=     600 IOpCl=  0 I1Cent=           0 NGrid=           0
         NMat0=    1 NMatS0=  13695 NMatT0=    0 NMatD0=    1 NMtDS0=    0 NMtDT0=    0
 Symmetry not used in FoFCou.

 Cycle   1  Pass 1  IDiag  1:
 E= -311.083419822012    
 DIIS: error= 2.18D-04 at cycle   1 NSaved=   1.
 NSaved= 1 IEnMin= 1 EnMin= -311.083419822012     IErMin= 1 ErrMin= 2.18D-04
 ErrMax= 2.18D-04  0.00D+00 EMaxC= 1.00D-01 BMatC= 1.43D-05 BMatP= 1.43D-05
 IDIUse=3 WtCom= 9.98D-01 WtEn= 2.18D-03
 Coeff-Com:  0.100D+01
 Coeff-En:   0.100D+01
 Coeff:      0.100D+01
 Gap=     1.803 Goal=   None    Shift=    0.000
 RMSDP=4.09D-05 MaxDP=8.32D-04              OVMax= 1.02D-03

 Cycle   2  Pass 1  IDiag  1:
 E= -311.083436721104     Delta-E=       -0.000016899092 Rises=F Damp=F
 DIIS: error= 1.29D-04 at cycle   2 NSaved=   2.
 NSaved= 2 IEnMin= 2 EnMin= -311.083436721104     IErMin= 2 ErrMin= 1.29D-04
 ErrMax= 1.29D-04  0.00D+00 EMaxC= 1.00D-01 BMatC= 2.85D-06 BMatP= 1.43D-05
 IDIUse=3 WtCom= 9.99D-01 WtEn= 1.29D-03
 Coeff-Com:  0.226D+00 0.774D+00
 Coeff-En:   0.000D+00 0.100D+01
 Coeff:      0.226D+00 0.774D+00
 Gap=     0.269 Goal=   None    Shift=    0.000
 RMSDP=1.87D-05 MaxDP=5.05D-04 DE=-1.69D-05 OVMax= 4.96D-04

 Cycle   3  Pass 1  IDiag  1:
 E= -311.083437754072     Delta-E=       -0.000001032969 Rises=F Damp=F
 DIIS: error= 1.12D-04 at cycle   3 NSaved=   3.
 NSaved= 3 IEnMin= 3 EnMin= -311.083437754072     IErMin= 3 ErrMin= 1.12D-04
 ErrMax= 1.12D-04  0.00D+00 EMaxC= 1.00D-01 BMatC= 1.77D-06 BMatP= 2.85D-06
 IDIUse=3 WtCom= 9.99D-01 WtEn= 1.12D-03
 Coeff-Com: -0.812D-02 0.439D+00 0.569D+00
 Coeff-En:   0.000D+00 0.381D+00 0.619D+00
 Coeff:     -0.811D-02 0.439D+00 0.569D+00
 Gap=     0.269 Goal=   None    Shift=    0.000
 RMSDP=9.11D-06 MaxDP=2.59D-04 DE=-1.03D-06 OVMax= 2.54D-04

 Cycle   4  Pass 1  IDiag  1:
 E= -311.083439244783     Delta-E=       -0.000001490710 Rises=F Damp=F
 DIIS: error= 1.84D-05 at cycle   4 NSaved=   4.
 NSaved= 4 IEnMin= 4 EnMin= -311.083439244783     IErMin= 4 ErrMin= 1.84D-05
 ErrMax= 1.84D-05  0.00D+00 EMaxC= 1.00D-01 BMatC= 5.13D-08 BMatP= 1.77D-06
 IDIUse=1 WtCom= 1.00D+00 WtEn= 0.00D+00
 Coeff-Com: -0.116D-01 0.185D+00 0.282D+00 0.544D+00
 Coeff:     -0.116D-01 0.185D+00 0.282D+00 0.544D+00
 Gap=     0.269 Goal=   None    Shift=    0.000
 RMSDP=1.54D-06 MaxDP=4.55D-05 DE=-1.49D-06 OVMax= 4.79D-05

 Cycle   5  Pass 1  IDiag  1:
 E= -311.083439283754     Delta-E=       -0.000000038971 Rises=F Damp=F
 DIIS: error= 3.19D-06 at cycle   5 NSaved=   5.
 NSaved= 5 IEnMin= 5 EnMin= -311.083439283754     IErMin= 5 ErrMin= 3.19D-06
 ErrMax= 3.19D-06  0.00D+00 EMaxC= 1.00D-01 BMatC= 3.31D-09 BMatP= 5.13D-08
 IDIUse=1 WtCom= 1.00D+00 WtEn= 0.00D+00
 Coeff-Com: -0.406D-02 0.349D-01 0.689D-01 0.245D+00 0.656D+00
 Coeff:     -0.406D-02 0.349D-01 0.689D-01 0.245D+00 0.656D+00
 Gap=     0.269 Goal=   None    Shift=    0.000
 RMSDP=4.68D-07 MaxDP=9.40D-06 DE=-3.90D-08 OVMax= 1.12D-05

 Cycle   6  Pass 1  IDiag  1:
 E= -311.083439286865     Delta-E=       -0.000000003111 Rises=F Damp=F
 DIIS: error= 6.65D-07 at cycle   6 NSaved=   6.
 NSaved= 6 IEnMin= 6 EnMin= -311.083439286865     IErMin= 6 ErrMin= 6.65D-07
 ErrMax= 6.65D-07  0.00D+00 EMaxC= 1.00D-01 BMatC= 1.25D-10 BMatP= 3.31D-09
 IDIUse=1 WtCom= 1.00D+00 WtEn= 0.00D+00
 Coeff-Com: -0.952D-03 0.367D-02 0.121D-01 0.639D-01 0.239D+00 0.682D+00
 Coeff:     -0.952D-03 0.367D-02 0.121D-01 0.639D-01 0.239D+00 0.682D+00
 Gap=     0.269 Goal=   None    Shift=    0.000
 RMSDP=8.63D-08 MaxDP=2.00D-06 DE=-3.11D-09 OVMax= 3.44D-06

 Cycle   7  Pass 1  IDiag  1:
 E= -311.083439286953     Delta-E=       -0.000000000088 Rises=F Damp=F
 DIIS: error= 3.80D-07 at cycle   7 NSaved=   7.
 NSaved= 7 IEnMin= 7 EnMin= -311.083439286953     IErMin= 7 ErrMin= 3.80D-07
 ErrMax= 3.80D-07  0.00D+00 EMaxC= 1.00D-01 BMatC= 2.78D-11 BMatP= 1.25D-10
 IDIUse=1 WtCom= 1.00D+00 WtEn= 0.00D+00
 Coeff-Com: -0.191D-03-0.753D-03 0.131D-02 0.161D-01 0.809D-01 0.373D+00
 Coeff-Com:  0.530D+00
 Coeff:     -0.191D-03-0.753D-03 0.131D-02 0.161D-01 0.809D-01 0.373D+00
 Coeff:      0.530D+00
 Gap=     0.269 Goal=   None    Shift=    0.000
 RMSDP=3.57D-08 MaxDP=1.46D-06 DE=-8.80D-11 OVMax= 3.09D-06

 Cycle   8  Pass 1  IDiag  1:
 E= -311.083439286974     Delta-E=       -0.000000000021 Rises=F Damp=F
 DIIS: error= 1.69D-07 at cycle   8 NSaved=   8.
 NSaved= 8 IEnMin= 8 EnMin= -311.083439286974     IErMin= 8 ErrMin= 1.69D-07
 ErrMax= 1.69D-07  0.00D+00 EMaxC= 1.00D-01 BMatC= 3.05D-12 BMatP= 2.78D-11
 IDIUse=1 WtCom= 1.00D+00 WtEn= 0.00D+00
 Coeff-Com: -0.349D-04-0.621D-03-0.165D-03 0.320D-02 0.230D-01 0.140D+00
 Coeff-Com:  0.305D+00 0.529D+00
 Coeff:     -0.349D-04-0.621D-03-0.165D-03 0.320D-02 0.230D-01 0.140D+00
 Coeff:      0.305D+00 0.529D+00
 Gap=     0.269 Goal=   None    Shift=    0.000
 RMSDP=1.29D-08 MaxDP=5.38D-07 DE=-2.06D-11 OVMax= 1.18D-06

 Cycle   9  Pass 1  IDiag  1:
 E= -311.083439286977     Delta-E=       -0.000000000004 Rises=F Damp=F
 DIIS: error= 3.46D-08 at cycle   9 NSaved=   9.
 NSaved= 9 IEnMin= 9 EnMin= -311.083439286977     IErMin= 9 ErrMin= 3.46D-08
 ErrMax= 3.46D-08  0.00D+00 EMaxC= 1.00D-01 BMatC= 3.05D-13 BMatP= 3.05D-12
 IDIUse=1 WtCom= 1.00D+00 WtEn= 0.00D+00
 Coeff-Com:  0.115D-04-0.287D-03-0.356D-03-0.752D-03 0.104D-02 0.252D-01
 Coeff-Com:  0.960D-01 0.291D+00 0.589D+00
 Coeff:      0.115D-04-0.287D-03-0.356D-03-0.752D-03 0.104D-02 0.252D-01
 Coeff:      0.960D-01 0.291D+00 0.589D+00
 Gap=     0.269 Goal=   None    Shift=    0.000
 RMSDP=3.18D-09 MaxDP=9.27D-08 DE=-3.75D-12 OVMax= 1.89D-07

 SCF Done:  E(RB3LYP) =  -311.083439287     A.U. after    9 cycles
            NFock=  9  Conv=0.32D-08     -V/T= 2.0096
 KE= 3.081159358938D+02 PE=-1.372802668109D+03 EE= 4.285068607349D+02
 Leave Link  502 at Thu Sep  8 15:00:56 2022, MaxMem= 24159191040 cpu:        62.5
 (Enter /public/home/users/caep010/software/Gaussian09/g09/l701.exe)
 Compute integral first derivatives.
 ... and contract with generalized density number  0.
 Leave Link  701 at Thu Sep  8 15:00:56 2022, MaxMem= 24159191040 cpu:        10.7
 (Enter /public/home/users/caep010/software/Gaussian09/g09/l702.exe)
 L702 exits ... SP integral derivatives will be done elsewhere.
 Leave Link  702 at Thu Sep  8 15:00:57 2022, MaxMem= 24159191040 cpu:         0.6
 (Enter /public/home/users/caep010/software/Gaussian09/g09/l703.exe)
 Compute integral first derivatives, UseDBF=F ICtDFT=           0.
 Integral derivatives from FoFJK, PRISM(SPDF).
 Calling FoFJK, ICntrl=      2127 FMM=F ISym2X=0 I1Cent= 0 IOpClX= 0 NMat=1 NMatS=1 NMatT=0.
 FoFJK:  IHMeth= 1 ICntrl=    2127 DoSepK=F KAlg= 0 I1Cent=   0 FoldK=F
 IRaf=         0 NMat=   1 IRICut=       1 DoRegI=T DoRafI=F ISym2E= 0.
 FoFCou: FMM=F IPFlag=           0 FMFlag=      100000 FMFlg1=         800
         NFxFlg=           0 DoJE=F BraDBF=F KetDBF=F FulRan=T
         wScrn=  0.000000 ICntrl=    2127 IOpCl=  0 I1Cent=           0 NGrid=           0
         NMat0=    1 NMatS0=      1 NMatT0=    0 NMatD0=    1 NMtDS0=    0 NMtDT0=    0
 Symmetry not used in FoFCou.
 Leave Link  703 at Thu Sep  8 15:00:57 2022, MaxMem= 24159191040 cpu:        16.7
 (Enter /public/home/users/caep010/software/Gaussian09/g09/l716.exe)
 Dipole        = 4.07814486D-01-5.84212984D-01 1.14022493D-04
 ***** Axes restored to original set *****
 -------------------------------------------------------------------
 Center     Atomic                   Forces (Hartrees/Bohr)
 Number     Number              X              Y              Z
 -------------------------------------------------------------------
      1        6          -0.000162093    0.000065072   -0.000043572
      2        6           0.000112855   -0.000089866    0.000126902
      3        6          -0.000190360    0.000013533    0.000090175
      4        6          -0.000142713    0.000431748   -0.000845004
      5        6           0.000136140   -0.000153029    0.000102252
      6        6           0.000164011   -0.000046202    0.000153345
      7        8           0.000336242   -0.000459922    0.000782764
      8        1          -0.000144152    0.000092654   -0.000110844
      9        1          -0.000056482    0.000075127   -0.000128617
     10        1           0.000002633   -0.000029468    0.000059603
     11        1          -0.000064694   -0.000039983    0.000035212
     12        1          -0.000047085    0.000023530    0.000064281
     13        1           0.000056614    0.000014176   -0.000043829
     14        1          -0.000000065    0.000006246    0.000010340
     15        1           0.000013567   -0.000044880   -0.000015268
     16        1          -0.000004693   -0.000011158    0.000002173
     17        1           0.000034013    0.000028937    0.000018759
     18        1           0.000052938   -0.000000984   -0.000050461
     19        1          -0.000096677    0.000124468   -0.000208210
 -------------------------------------------------------------------
 Cartesian Forces:  Max     0.000845004 RMS     0.000198515
 Leave Link  716 at Thu Sep  8 15:00:57 2022, MaxMem= 24159191040 cpu:         0.6
 (Enter /public/home/users/caep010/software/Gaussian09/g09/l103.exe)

 GradGradGradGradGradGradGradGradGradGradGradGradGradGradGradGradGradGrad
 Berny optimization.
 Using GEDIIS/GDIIS optimizer.
 FormGI is forming the generalized inverse of G from B-inverse, IUseBI=4.
 Internal  Forces:  Max     0.000560183 RMS     0.000140797
 Search for a local minimum.
 Step number   2 out of a maximum of   96
 All quantities printed in internal units (Hartrees-Bohrs-Radians)
 RMS Force = .14080D-03 SwitMx=.10000D-02 MixMth= 2
 Mixed Optimization -- En-DIIS/RFO-DIIS
 Swapping is turned off.
 Update second derivatives using D2CorX and points    1    2
 DE= -4.88D-05 DEPred=-5.28D-05 R= 9.24D-01
 TightC=F SS=  1.41D+00  RLast= 1.81D-02 DXNew= 5.0454D-01 5.4303D-02
 Trust test= 9.24D-01 RLast= 1.81D-02 DXMaxT set to 3.00D-01
 ITU=  1  0
     Eigenvalues ---    0.00230   0.00231   0.00405   0.00632   0.01173
     Eigenvalues ---    0.01306   0.02991   0.02991   0.04682   0.05341
     Eigenvalues ---    0.05342   0.05604   0.05605   0.06437   0.06972
     Eigenvalues ---    0.07120   0.07281   0.15411   0.16000   0.16000
     Eigenvalues ---    0.16000   0.16000   0.16000   0.16000   0.16000
     Eigenvalues ---    0.16000   0.16000   0.16000   0.16176   0.16465
     Eigenvalues ---    0.17330   0.24584   0.25033   0.28408   0.28510
     Eigenvalues ---    0.30637   0.32748   0.34054   0.34080   0.34101
     Eigenvalues ---    0.34103   0.34369   0.34428   0.34460   0.34460
     Eigenvalues ---    0.34518   0.35444   0.35949   0.38725   0.53942
     Eigenvalues ---    0.62873
 En-DIIS/RFO-DIIS IScMMF=        0 using points:     2    1
 RFO step:  Lambda=-3.30643107D-06.
 NNeg= 0 NP= 2 Switch=  2.50D-03 Rises=F DC=  4.88D-05 SmlDif=  1.00D-05
 RMS Error=  0.3058598765D-03 NUsed= 2 EDIIS=F
 DidBck=F Rises=F RFO-DIIS coefs:    0.93151    0.06849
 Iteration  1 RMS(Cart)=  0.00260431 RMS(Int)=  0.00000418
 Iteration  2 RMS(Cart)=  0.00000445 RMS(Int)=  0.00000030
 Iteration  3 RMS(Cart)=  0.00000000 RMS(Int)=  0.00000030
 ITry= 1 IFail=0 DXMaxC= 8.87D-03 DCOld= 1.00D+10 DXMaxT= 3.00D-01 DXLimC= 3.00D+00 Rises=F
 Variable       Old X    -DE/DX   Delta X   Delta X   Delta X     New X
                                 (Linear)    (Quad)   (Total)
    R1        2.52458  -0.00048  -0.00054   0.00034  -0.00020   2.52438
[...]
 50737358,-0.01613815,0.00986628,-0.00845016,-0.16420758,0.02771564,-0.
 00649491,-0.01248247,0.00110663,0.00599759,0.51314253,0.01797734,-0.00
 079931,0.00204954,0.02109824,-0.08401669,0.00594396,-0.00681047,0.0041
 6784,-0.00145021,-0.01188804,0.46496975,-0.02579655,0.00686863,0.00579
 079,0.00765134,0.00201350,-0.08423090,0.02292842,-0.00615362,0.0011360
 9,-0.00586422,-0.00255706,0.46942762,-0.00380372,0.00032578,0.00165651
 ,-0.00580413,0.03395574,-0.00399794,-0.00089021,-0.00039275,-0.0000074
 7,-0.07967041,0.02006422,-0.00253859,0.57540245,-0.00195821,0.00071612
 ,-0.00144617,0.01260079,-0.01273840,0.00008045,0.00076636,0.00058014,-
 0.00018038,0.00494683,-0.16568910,-0.00166836,0.01919574,0.45745413,0.
 00051124,-0.00004029,-0.00047103,-0.00300957,-0.00006863,0.00211954,-0
 .00081851,-0.00044958,0.00024089,0.00114125,-0.00929457,-0.07277951,0.
 00233785,0.00525203,0.59226487,-0.00273382,-0.00044145,0.00197281,-0.0
 2310301,-0.01210160,-0.02619333,-0.00062471,0.00066550,0.00056918,-0.1
 0534794,-0.02754512,-0.04217625,0.00247241,-0.00055765,0.00053634,0.53
 998370,0.00217935,-0.00102525,0.00016932,0.00130127,0.00495752,0.00600
 885,0.00042886,-0.00028318,-0.00028806,-0.02171868,-0.10037190,-0.0336
 3556,-0.01879279,-0.02288612,-0.02791771,-0.02977425,0.56389074,0.0023
 9644,-0.00103603,0.00020010,-0.01017647,0.00143368,0.00172301,-0.00059
 269,0.00052979,0.00083708,-0.02599878,-0.03152643,-0.11242105,-0.00174
 876,-0.00543928,0.00263979,-0.04857172,-0.04575876,0.52125205,-0.00391
 758,0.00139301,-0.00014292,-0.02449836,-0.01139623,0.04035824,-0.00586
 607,0.00287394,-0.00260430,-0.10236047,-0.01384713,0.05193415,-0.00119
 995,-0.00277596,0.00558630,0.00469664,0.00394802,-0.00899141,0.6069027
 1,0.00189760,0.00002071,0.00066275,0.00298956,0.00447117,-0.00613910,0
 .00137715,-0.00039999,0.00024471,0.00620978,-0.08294359,0.03517669,-0.
 01793119,-0.01776877,0.04411249,0.00343558,0.00694359,-0.00812209,-0.1
 2154145,0.13394094,-0.00122091,0.00096194,-0.00047533,0.00960363,0.002
 40548,-0.00841666,0.00059873,-0.00064472,0.00112088,0.00905896,0.04709
 214,-0.17081216,0.01188148,0.01416312,-0.02116464,0.01820765,0.0125221
 5,-0.05177331,-0.06512273,-0.08608413,0.28260826,-0.13711893,-0.033147
 75,0.13173684,0.01225535,0.00277041,-0.01069796,-0.00079884,0.00407875
 ,-0.00040957,0.00013106,-0.00130445,-0.00124482,0.00021079,-0.00007757
 ,0.00040982,-0.00047236,-0.00005519,0.00034575,-0.00498038,0.00183160,
 -0.00120672,0.13907546,-0.03035434,-0.05574192,0.06305658,-0.00871222,
 0.00084102,0.01240314,0.00453967,0.00920033,0.00584677,-0.00262514,-0.
 00519202,-0.00158278,0.00131171,-0.00008111,-0.00002886,-0.00099730,0.
 00054296,-0.00000576,0.00063631,-0.00051472,-0.00016825,0.03307747,0.0
 4900296,0.12576315,0.06471539,-0.24779307,0.01385807,0.00558223,-0.015
 94941,-0.00139613,0.00612122,0.00093497,0.00157900,-0.00236719,-0.0025
 3679,0.00042554,-0.00008230,0.00004957,-0.00062537,0.00031294,0.000108
 81,0.00134905,-0.00087805,0.00065948,-0.13890687,-0.07243422,0.2617400
 3,-0.31782948,0.07366023,0.01167705,-0.01185598,0.00279715,0.00280720,
 0.00012299,-0.00269450,0.00075281,0.00191937,0.00274052,0.00029076,-0.
 00109133,-0.00003103,0.00001668,0.00027045,0.00003471,0.00001751,-0.00
 013854,0.00027222,-0.00051938,-0.00957870,0.00426445,-0.00247809,0.336
 52765,0.07150105,-0.05587334,0.00643053,0.01587256,-0.00124311,-0.0004
 8678,-0.00102051,-0.00620132,-0.00390143,0.00207747,0.00855552,0.00672
 085,-0.00192065,0.00032078,0.00007753,0.00255411,-0.00098381,-0.000640
 42,-0.00059713,0.00020276,-0.00014965,-0.00660903,0.00348271,-0.000097
 92,-0.08158094,0.05020837,0.01629474,0.00514787,-0.05369333,-0.0251557
 1,0.00728100,0.00231206,-0.00282583,-0.00290741,-0.00041321,0.00170962
 ,0.00632645,-0.00226974,-0.00178533,-0.00008690,0.00024501,0.00047215,
 -0.00010158,0.00018780,0.00134002,-0.00066626,0.00059574,0.02077489,-0
 .00655741,0.00328253,-0.01160969,-0.00907579,0.04960813,0.00119903,0.0
 0059270,-0.00230643,-0.01781727,0.00551629,-0.00180253,-0.28805404,0.0
 7921897,-0.02670060,0.00128098,-0.00124948,0.00227978,0.00021209,-0.00
 024182,-0.00011225,0.00024920,0.00025151,-0.00009232,-0.00119125,0.000
 21691,0.00042320,0.00034379,-0.00007876,-0.00015701,0.00104651,-0.0004
 7149,0.00063063,0.31159284,-0.00109395,-0.00028475,0.00008072,-0.00825
 557,0.00175987,-0.00097632,0.08057845,-0.07410239,0.00856440,-0.000111
 58,-0.00005710,0.00151793,0.00018747,-0.00023682,0.00047857,-0.0000594
 8,0.00017093,-0.00008960,-0.00050521,0.00038224,0.00012809,-0.00006790
 ,-0.00009975,-0.00018436,0.00010931,0.00028982,0.00019637,-0.08692556,
 0.07581638,0.00130003,-0.00092137,0.00064685,0.02765466,-0.00915575,0.
 00216817,-0.02960841,0.00937175,-0.05018127,-0.00015311,0.00219421,-0.
 00397943,-0.00011827,0.00032549,-0.00005694,-0.00034021,0.00013404,-0.
 00050162,0.00196768,-0.00030107,-0.00022350,-0.00018049,-0.00017783,0.
 00028281,-0.00061074,0.00054110,-0.00038237,0.02814598,-0.01226885,0.0
 5546723,-0.00128126,-0.00052320,0.00121865,0.00906220,0.00955445,0.013
 76243,-0.08687607,-0.04238258,-0.07905541,0.00043979,0.00027548,-0.000
 06776,-0.00002560,-0.00009636,-0.00000701,-0.00148752,-0.00012465,0.00
 056097,0.00013320,-0.00017122,-0.00047400,0.00018808,-0.00112145,-0.00
 014661,0.00030624,0.00003542,0.00016436,-0.01054053,-0.01457680,-0.024
 39612,0.09234102,-0.00081310,-0.00018034,0.00117010,0.00479181,0.00439
 223,0.00911040,-0.04236958,-0.09355650,-0.09199689,-0.00015756,0.00010
 942,-0.00067124,0.00025180,0.00001348,-0.00011376,-0.00037266,0.000537
 74,-0.00058660,0.00022200,-0.00003517,0.00014879,-0.00028352,-0.001190
 94,-0.00013936,0.00011699,0.00066254,0.00033246,0.00371796,0.00460343,
 0.00992606,0.04873060,0.09946694,0.00377063,-0.00040177,-0.00153555,-0
 .01035500,-0.00830770,-0.02398603,-0.08137823,-0.09303054,-0.21903483,
 -0.00135094,0.00014023,-0.00075187,0.00021531,0.00009373,0.00005457,-0
 .00044093,0.00030823,-0.00056221,0.00039123,0.00014423,0.00058431,0.00
 010837,0.00226962,0.00022633,-0.00023931,-0.00106899,-0.00041425,-0.00
 096793,-0.00088935,-0.00217009,0.08820231,0.09955177,0.24129145,-0.001
 39988,0.00018828,0.00111015,0.00092774,-0.01728875,0.00110918,-0.04897
 830,-0.00347617,0.00204672,0.00049138,-0.00067515,-0.00001576,-0.00093
 537,0.00005443,0.00107203,-0.00011221,0.00011073,0.00013506,0.00014123
 ,0.00054533,-0.00026644,0.00065674,0.00047561,0.00054370,0.00023524,-0
 .00015537,0.00003076,0.00193255,0.03080320,-0.00406818,-0.00066047,-0.
 01369139,0.00187862,0.04878892,-0.00177660,0.00044483,-0.00012810,-0.0
 0021812,-0.00481816,0.00443346,-0.00201573,-0.29963277,0.03822243,0.00
 070024,-0.00089792,0.00064680,0.00112078,-0.00059556,0.00042069,-0.000
 23859,0.00012033,0.00009795,-0.00034042,0.00041954,-0.00009785,0.00021
 945,0.00029696,0.00035254,-0.00019896,-0.00024020,-0.00024985,-0.00039
 366,-0.00853710,0.00058473,0.00050459,-0.01455604,0.00156687,0.0019555
 0,0.32739796,0.00338002,0.00010457,-0.00204349,-0.00109814,0.02916199,
 -0.00663931,0.00121812,0.04013022,-0.05085887,-0.00074804,0.00039546,0
 .00020456,0.00032273,0.00001289,0.00001788,-0.00008425,-0.00011113,0.0
 0003458,-0.00007821,-0.00038594,0.00012172,-0.00095544,-0.00171041,-0.
 00173038,0.00035340,0.00117389,0.00055980,0.00010049,0.00373705,-0.001
 50224,0.00044016,-0.02751389,0.00460895,-0.00321766,-0.04435567,0.0569
 1342,-0.00004528,-0.00002675,0.00001900,0.00016307,-0.00041933,-0.0000
 8877,-0.00095168,0.00111940,-0.00001340,-0.00070769,0.00015812,-0.0032
 7656,-0.08067707,-0.03423619,0.08206483,-0.00010376,-0.00011383,0.0000
 7067,0.00150144,0.00071381,-0.00056754,0.00000609,-0.00003488,0.000009
 71,0.00004922,0.00008362,0.00002422,-0.00004402,-0.00001485,0.00001791
 ,0.00002603,-0.00017168,-0.00000434,-0.00143088,0.00070317,0.00032533,
 0.08586368,0.00013364,0.00002674,0.00005587,-0.00063425,0.00070105,0.0
 0013522,-0.00002163,-0.00069639,0.00010481,-0.01251261,-0.00298677,0.0
 2655098,-0.03353984,-0.08386685,0.08025150,-0.00001455,0.00121660,0.00
 008586,-0.00092460,-0.00955939,0.00482618,-0.00020173,0.00009131,-0.00
 012699,0.00006007,-0.00007525,-0.00007526,0.00002052,0.00033510,-0.000
 16375,0.00007568,-0.00006779,-0.00012050,0.00092002,0.00041000,-0.0002
 6311,0.03652787,0.08687703,-0.00018187,0.00002831,0.00022594,0.0005587
 6,0.00057977,-0.00055251,0.00124890,0.00022592,-0.00019197,-0.00041332
 ,-0.00131490,-0.00216621,0.08119244,0.08252096,-0.24754380,-0.00009474
 ,-0.00017375,-0.00022327,0.00022011,0.00188152,0.00160910,0.00008973,-
 0.00005483,0.00009306,-0.00009781,-0.00001712,-0.00002663,-0.00001678,
 -0.00049469,0.00004094,-0.00003953,-0.00009009,-0.00001442,0.00007202,
 -0.00098892,0.00051087,-0.09158509,-0.09019879,0.26725717,0.00019361,-
 0.00010178,-0.00013497,0.00061390,0.00034811,0.00093218,0.00000309,-0.
 00003028,-0.00001368,0.00120717,0.00229224,0.00378012,-0.11344855,-0.0
 5680286,-0.10033089,0.00034833,0.00053471,0.00005722,-0.00029036,0.000
 19544,0.00065726,0.00004937,0.00000323,0.00002695,-0.00000351,-0.00006
 114,0.00001366,-0.00002714,-0.00001972,-0.00001258,0.00004376,-0.00007
 690,-0.00006364,0.00003056,-0.00008871,0.00005029,0.00629549,0.0066985
 3,0.00979858,0.11821393,0.00043848,0.00027469,0.00068151,-0.00178774,0
 .00155576,-0.00067121,0.00020782,-0.00009439,-0.00006875,-0.01585929,-
 0.01534155,-0.02715980,-0.05618237,-0.09607917,-0.08633712,0.00160393,
 -0.00694834,0.00190274,0.00117653,0.00385116,0.00029158,-0.00001221,-0
 .00008311,0.00001314,-0.00000529,-0.00012801,0.00002299,0.00005694,0.0
 0001898,-0.00003848,-0.00009054,0.00002623,0.00015803,0.00001945,-0.00
 002234,-0.00003917,0.00728398,0.00549842,0.00912106,0.06083262,0.10527
 864,0.00028053,-0.00002727,0.00011558,-0.00028955,0.00005838,0.0003173
 8,0.00031039,-0.00009534,-0.00000400,0.00147099,0.00155692,-0.00017562
 ,-0.10015815,-0.08892822,-0.20492512,0.00052247,0.00004182,0.00065288,
 0.00007352,0.00003615,0.00168996,-0.00003324,0.00001973,-0.00001106,0.
 00003589,-0.00003907,0.00000380,0.00006014,-0.00003470,0.00002936,-0.0
 0005856,0.00019767,0.00008394,-0.00003688,-0.00003412,-0.00031828,-0.0
 1417754,-0.01216746,-0.01888513,0.10980120,0.09676642,0.21824296,-0.00
 005193,0.00016413,0.00053513,0.00108526,0.00124756,-0.00006188,0.00005
 297,-0.00016436,-0.00027322,-0.00549956,-0.00070622,0.00140395,-0.2914
 6087,0.05866683,0.01464955,0.00038336,-0.00057793,-0.00027276,0.002286
 39,-0.00069929,-0.00119587,-0.00001898,0.00003222,-0.00007543,-0.00001
 939,-0.00006783,-0.00015768,-0.00001663,0.00010744,-0.00000484,0.00000
 070,0.00006158,0.00006541,0.00024252,0.00012471,-0.00019758,-0.0105348
 8,0.00240769,-0.00008836,-0.01398791,0.00356698,0.00230402,0.31626440,
 0.00165306,-0.00022172,-0.00050994,-0.00174721,-0.00633991,0.00146538,
 -0.00031137,-0.00016260,0.00046354,0.03405666,-0.01061735,-0.00245788,
 0.05828582,-0.06129345,-0.00388343,0.00113184,0.00184441,0.00086445,-0
 .00017971,0.00311603,-0.00236454,-0.00001704,-0.00038804,-0.00014205,0
 .00039493,0.00050392,0.00061257,0.00006077,0.00016665,-0.00004152,0.00
 002422,0.00004177,-0.00007549,0.00014404,0.00029063,-0.00024166,-0.011
 98305,0.00253250,-0.00037024,-0.01386614,0.00316894,0.00233370,-0.0654
 6315,0.06802748,0.00005126,0.00012844,0.00029552,0.00002864,0.00076970
 ,0.00004980,0.00048051,0.00028149,-0.00002611,-0.00114568,0.00170035,-
 0.00155033,0.01374903,-0.00482273,-0.04864906,0.00072073,-0.00022211,-
 0.00018418,-0.00090577,-0.00034261,0.00022420,-0.00002683,0.00007795,0
 .00005865,-0.00006223,-0.00014464,-0.00002722,-0.00003160,-0.00026256,
 0.00000926,-0.00001541,-0.00002180,0.00000036,-0.00026183,-0.00043951,
 0.00008749,0.02776655,-0.00747771,-0.00081251,-0.02397489,0.00684673,0
 .00271954,-0.01637138,0.00358292,0.04768651,0.00010876,0.00045463,-0.0
 0012709,0.00115216,-0.00113757,0.00068721,-0.00014848,0.00003229,0.000
 01793,0.00010568,-0.01857975,0.00244302,-0.00172356,-0.00101438,-0.002
 98080,-0.05091751,0.02644772,-0.00210743,-0.00006859,0.00105653,0.0013
 0439,0.00002992,-0.00005714,-0.00002251,-0.00001115,-0.00000242,-0.000
 00385,-0.00004507,0.00003647,0.00002528,0.00002424,-0.00006763,0.00012
 233,0.00015754,0.00012784,-0.00002548,-0.00004710,0.00033752,-0.000041
 22,0.00065737,-0.00123251,-0.00018491,0.00034084,-0.00029776,-0.000176
 13,0.05175820,-0.00034524,0.00055669,-0.00009518,0.00130494,0.00036066
 ,0.00038902,-0.00036436,0.00003937,0.00000216,0.00086945,-0.01597104,0
 .00287669,-0.00243151,-0.00020616,-0.00327017,0.02539263,-0.31308019,0
 .02555492,0.00077666,0.00263765,0.00060336,-0.00000216,-0.00001237,-0.
 00003026,-0.00006791,-0.00004295,-0.00009912,-0.00006617,0.00001066,-0
 .00000073,-0.00007561,-0.00020741,0.00009764,0.00014114,0.00012228,-0.
 00000398,0.00008556,0.00028879,0.00013903,0.00008292,-0.00104423,-0.00
 000213,0.00002545,0.00034429,0.00010877,-0.02636284,0.33871096,0.00001
 258,0.00045951,-0.00008195,0.00125212,-0.00015790,0.00097356,0.0000335
 8,-0.00006513,0.00001428,0.00198178,-0.02506983,0.00155704,-0.00270179
 ,-0.00161590,-0.00401734,-0.00135055,0.02788754,-0.05045465,0.00038867
 ,0.00127577,0.00268111,-0.00004695,-0.00001341,-0.00006237,-0.00000551
 ,-0.00004284,-0.00007367,0.00000767,-0.00002003,0.00005565,-0.00000526
 ,0.00015206,-0.00012724,-0.00002980,-0.00004399,-0.00012581,-0.0001480
 6,-0.00008269,0.00018123,-0.00003721,-0.00168514,0.00027099,0.00000439
 ,0.00027286,-0.00008871,0.00426723,-0.02711212,0.05126583,-0.00089200,
 -0.00024347,0.00041680,0.00006582,-0.00221835,-0.00344335,0.00021727,0
 .00034897,-0.00020948,-0.01898677,0.00441044,0.00298667,0.00039583,0.0
 0122156,0.00058450,-0.28932906,0.06152619,0.01620057,0.00282665,0.0001
 0992,0.00084773,-0.00007685,-0.00008308,-0.00013992,0.00003200,0.00049
 450,-0.00004949,-0.00006512,-0.00003492,-0.00004017,0.00016616,-0.0000
 6416,-0.00015227,-0.00004129,-0.00008412,0.00003160,0.00001038,0.00002
 032,-0.00010838,0.00049017,-0.00004995,-0.00004995,0.00074487,-0.00093
 056,-0.00017915,-0.00165648,0.00010075,0.00033879,0.31568667,-0.000752
 63,0.00053397,0.00010407,-0.00043964,-0.00089571,-0.00232563,-0.000134
 25,0.00019371,-0.00000466,-0.01593948,0.00259779,0.00080319,-0.0008462
 6,0.00103833,0.00054386,0.06224069,-0.06439309,-0.00461607,-0.00003823
 ,-0.00046002,0.00195600,-0.00004138,-0.00014064,-0.00006439,-0.0000327
 7,0.00032254,-0.00002916,-0.00002897,-0.00004038,-0.00002572,-0.000070
 22,-0.00017080,0.00002364,0.00000983,0.00001000,0.00003307,-0.00011063
 ,-0.00009381,0.00001493,0.00026158,0.00015107,0.00011389,0.00010525,-0
 .00032722,-0.00041125,0.03152240,-0.00572323,-0.00306469,-0.06688926,0
 .06523429,-0.00119472,0.00004787,0.00037968,-0.00093421,-0.00235233,-0
 .00437477,0.00038457,-0.00019724,-0.00054660,-0.02527684,0.00520308,-0
 .00127716,0.00035595,0.00141788,0.00060913,0.01638961,-0.00347873,-0.0
 4768273,-0.00023668,0.00015502,0.00326037,-0.00017228,-0.00028900,-0.0
 0013072,-0.00000693,0.00068992,0.00010248,0.00007383,0.00017122,0.0002
 6486,-0.00011618,0.00022960,0.00062507,-0.00000863,0.00001274,0.000074
 12,0.00012077,-0.00009165,0.00002216,0.00015566,0.00027101,-0.00004487
 ,0.00033605,-0.00030042,0.00010562,-0.00328640,0.00073095,-0.00071997,
 -0.01587066,0.00653596,0.05105749,-0.00002544,0.00008605,0.00000683,0.
 00060970,0.00031538,0.00048957,-0.00147891,-0.00019687,-0.00068990,0.0
 0630231,0.00700497,-0.01134685,0.00017938,0.00029647,0.00048342,-0.077
 21748,-0.02605881,0.08036023,0.00019062,-0.00099359,-0.00539078,0.0000
 8141,-0.00003168,0.00005705,-0.00002591,-0.00011791,-0.00004731,-0.000
 02991,-0.00000601,0.00010190,-0.00180509,0.00015262,0.00006745,0.00003
 284,0.00002056,0.00010909,0.00022356,-0.00024240,-0.00009853,-0.000097
 68,0.00021256,0.00000380,0.00001698,-0.00007877,0.00013260,0.00036747,
 0.00100103,-0.00406127,-0.00968884,-0.00939224,0.02884644,0.08259501,0
 .00011934,0.00012477,-0.00013229,0.00007917,0.00012934,0.00071384,-0.0
 0032861,0.00028804,0.00034581,0.00774129,0.00373719,-0.01087879,0.0002
 9804,0.00015171,0.00038307,-0.02543553,-0.07000667,0.06686732,-0.00106
 757,0.00076701,-0.00483202,0.00003557,-0.00001906,-0.00001356,-0.00000
 257,-0.00005257,0.00001703,-0.00007075,-0.00014457,-0.00010083,0.00004
 638,0.00013373,-0.00039144,-0.00011154,-0.00014122,-0.00007017,-0.0002
 6809,-0.00059846,-0.00043217,0.00001306,0.00023312,0.00022406,0.000021
 36,-0.00006146,-0.00008765,-0.01164901,-0.00635573,0.02928606,0.002609
 89,0.00164594,-0.00836938,0.02835263,0.07027600,-0.00020627,0.00001036
 ,0.00010813,0.00080634,0.00000121,-0.00042710,0.00076730,-0.00053157,-
 0.00064836,0.01130312,0.00990020,-0.01589898,0.00043357,0.00070269,0.0
 0055902,0.07840888,0.06538197,-0.26486405,-0.00251835,-0.00290404,-0.0
 0740646,0.00019006,-0.00014488,0.00012814,-0.00012157,0.00001340,0.000
 02585,0.00019944,0.00021287,0.00050633,0.00008453,0.00040073,0.0011610
 0,-0.00010175,-0.00003266,0.00005183,-0.00023870,-0.00089284,0.0005357
 9,-0.00021509,0.00003356,0.00028759,-0.00013212,-0.00005712,-0.0000168
 0,0.00025971,0.00013621,-0.00110310,0.00027954,0.00019717,-0.00077180,
 -0.08842130,-0.07285443,0.28712510,0.00033140,-0.00018611,0.00008099,-
 0.00018909,-0.00154964,0.00320716,-0.00040259,0.00057737,-0.00050366,-
 0.01961925,0.00658426,-0.00337085,0.00185783,0.00004303,-0.00213477,0.
 00304531,0.00045307,-0.00159208,-0.47416732,0.12048532,0.02338134,0.00
 001699,-0.00024466,0.00033574,0.00004434,-0.00001431,0.00017983,-0.000
 02598,-0.00015080,0.00031969,-0.00005488,0.00002280,0.00013092,-0.0000
 7885,-0.00012193,0.00007359,0.00040340,0.00088976,-0.00041491,-0.00029
 161,-0.00017940,0.00012583,0.00017187,-0.00087656,0.00022157,-0.000084
 23,-0.00006473,0.00009958,0.00010061,0.00057622,0.00044064,-0.00023001
 ,-0.00038306,-0.00077732,0.48917206,0.00039856,-0.00037915,0.00014159,
 -0.00072491,-0.00107650,0.00194552,-0.00039065,0.00085709,0.00017104,-
 0.01447788,0.00074682,0.00358985,-0.00295972,0.00116680,-0.00011563,0.
 00051392,-0.00024627,0.00048435,0.14218717,-0.04507115,0.00924234,-0.0
 0019331,0.00000543,-0.00053681,0.00016338,0.00029159,-0.00008800,-0.00
 012589,-0.00005117,0.00011853,-0.00001419,-0.00002253,-0.00006821,0.00
 003082,-0.00007121,-0.00005400,0.00070374,-0.00003284,-0.00037599,-0.0
 0021493,-0.00031585,-0.00002044,0.00114758,-0.00062486,0.00073622,0.00
 038561,-0.00042803,-0.00036014,-0.00024467,0.00051726,-0.00038648,-0.0
 0032399,-0.00010712,0.00042715,-0.12586063,0.04484168,-0.00116971,0.00
 048899,-0.00055343,0.00144295,0.00243496,-0.00643133,0.00156604,-0.000
 40360,0.00076188,0.04165368,-0.00892234,-0.00726636,0.00048587,-0.0002
 9901,0.00080715,0.00207754,-0.00107946,0.00103097,-0.02300857,0.022133
 97,-0.03488306,0.00022569,-0.00050614,0.00064941,-0.00020004,0.0000174
 3,0.00037721,0.00026630,0.00013326,-0.00047399,-0.00005155,-0.00008599
 ,-0.00003951,0.00000868,0.00003246,0.00003316,-0.00031897,-0.00034967,
 -0.00005983,-0.00049016,-0.00010910,-0.00004987,-0.00046739,0.00084887
 ,0.00011794,-0.00017129,-0.00002505,-0.00014490,-0.00144339,0.00021578
 ,-0.00095238,-0.00060242,0.00032554,0.00064788,-0.01980326,-0.01485090
 ,0.04642905\\0.00000102,0.00000262,-0.00000625,0.00000159,0.00002897,-
 0.00006306,0.00000373,-0.00000574,0.00001099,-0.00005088,-0.00004752,0
 .00013117,0.00000115,0.00002210,-0.00003324,-0.00000218,0.00001174,-0.
 00003819,0.00015638,-0.00001979,-0.00005052,-0.00000783,-0.00000149,0.
 00000796,0.00001629,-0.00000492,0.00000075,0.00000329,-0.00000395,0.00
 000644,-0.00001036,-0.00000974,0.00000243,-0.00000549,0.00000805,0.000
 01051,0.00000241,-0.00000328,0.00000140,0.00000763,-0.00000320,0.00000
 642,-0.00001005,-0.00000782,0.00000808,0.00000683,-0.00000620,0.000005
 00,-0.00000718,0.00000261,0.00001292,0.00000331,-0.00000019,0.00000291
 ,-0.00010965,0.00003776,-0.00001572\\\@


 ALL SCIENCE IS EITHER PHYSICS, OR STAMP COLLECTING.
   --ERNEST RUTHERFORD, 1871-1937.
 Job cpu time:       0 days  0 hours  9 minutes 35.3 seconds.
 File lengths (MBytes):  RWF=     58 Int=      0 D2E=      0 Chk=      3 Scr=      1
 Normal termination of Gaussian 09 at Thu Sep  8 15:01:27 2022.
