 Entering Gaussian System, Link 0=g09
 Input=B3LYP6-31Gdp.Frag_686.gjf
 Output=B3LYP6-31Gdp.Frag_686.log
 Initial command:
 /public/home/users/caep010/software/Gaussian09/g09/l1.exe "/public/home/users/caep010/.cache/gau_scr/Gau-44456.inp" -scrdir="/public/home/users/caep010/.cache/gau_scr/"
 Entering Link 1 = /public/home/users/caep010/software/Gaussian09/g09/l1.exe PID=     44457.
  
 Copyright (c) 1988,1990,1992,1993,1995,1998,2003,2009,2015,
            Gaussian, Inc.  All Rights Reserved.
  
 This is part of the Gaussian(R) 09 program.  It is based on
 the Gaussian(R) 03 system (copyright 2003, Gaussian, Inc.),
 the Gaussian(R) 98 system (copyright 1998, Gaussian, Inc.),
 the Gaussian(R) 94 system (copyright 1995, Gaussian, Inc.),
 the Gaussian 92(TM) system (copyright 1992, Gaussian, Inc.),
 the Gaussian 90(TM) system (copyright 1990, Gaussian, Inc.),
 the Gaussian 88(TM) system (copyright 1988, Gaussian, Inc.),
 the Gaussian 86(TM) system (copyright 1986, Carnegie Mellon
 University), and the Gaussian 82(TM) system (copyright 1983,
 Carnegie Mellon University). Gaussian is a federally registered
 trademark of Gaussian, Inc.
  
 This software contains proprietary and confidential information,
 including trade secrets, belonging to Gaussian, Inc.
  
 This software is provided under written license and may be
 used, copied, transmitted, or stored only in accord with that
 written license.
  
 The following legend is applicable only to US Government
 contracts under FAR:
  
                    RESTRICTED RIGHTS LEGEND
  
 Use, reproduction and disclosure by the US Government is
 subject to restrictions as set forth in subparagraphs (a)
 and (c) of the Commercial Computer Software - Restricted
 Rights clause in FAR 52.227-19.
  
 Gaussian, Inc.
 340 Quinnipiac St., Bldg. 40, Wallingford CT 06492
  
  
 ---------------------------------------------------------------
 Warning -- This program may not be used in any manner that
 competes with the business of Gaussian, Inc. or will provide
 assistance to any competitor of Gaussian, Inc.  The licensee
 of this program is prohibited from giving any competitor of
 Gaussian, Inc. access to this program.  By using this program,
 the user acknowledges that Gaussian, Inc. is engaged in the
 business of creating and licensing software in the field of
 computational chemistry and represents and warrants to the
 licensee that it is not a competitor of Gaussian, Inc. and that
 it will not use this program in any manner prohibited above.
 ---------------------------------------------------------------
  

 Cite this work as:
 Gaussian 09, Revision E.01,
 M. J. Frisch, G. W. Trucks, H. B. Schlegel, G. E. Scuseria, 
 M. A. Robb, J. R. Cheeseman, G. Scalmani, V. Barone, B. Mennucci, 
 G. A. Petersson, H. Nakatsuji, M. Caricato, X. Li, H. P. Hratchian, 
 A. F. Izmaylov, J. Bloino, G. Zheng, J. L. Sonnenberg, M. Hada, 
 M. Ehara, K. Toyota, R. Fukuda, J. Hasegawa, M. Ishida, T. Nakajima, 
 Y. Honda, O. Kitao, H. Nakai, T. Vreven, J. A. Montgomery, Jr., 
 J. E. Peralta, F. Ogliaro, M. Bearpark, J. J. Heyd, E. Brothers, 
 K. N. Kudin, V. N. Staroverov, T. Keith, R. Kobayashi, J. Normand, 
 K. Raghavachari, A. Rendell, J. C. Burant, S. S. Iyengar, J. Tomasi, 
 M. Cossi, N. Rega, J. M. Millam, M. Klene, J. E. Knox, J. B. Cross, 
 V. Bakken, C. Adamo, J. Jaramillo, R. Gomperts, R. E. Stratmann, 
 O. Yazyev, A. J. Austin, R. Cammi, C. Pomelli, J. W. Ochterski, 
 R. L. Martin, K. Morokuma, V. G. Zakrzewski, G. A. Voth, 
 P. Salvador, J. J. Dannenberg, S. Dapprich, A. D. Daniels, 
 O. Farkas, J. B. Foresman, J. V. Ortiz, J. Cioslowski, 
 and D. J. Fox, Gaussian, Inc., Wallingford CT, 2013.
 
 ******************************************
 Gaussian 09:  ES64L-G09RevE.01 30-Nov-2015
                 8-Sep-2022 
 ******************************************
 %nproc=32
 Will use up to   32 processors via shared memory.
 %mem=180GB
 %chk=B3LYP6-31Gdp.Frag_686.chk
 ----------------------------
 #P OPT Freq B3LYP/6-31G(d,p)
 ----------------------------
 1/14=-1,18=20,19=15,26=3,38=1/1,3;
 2/9=110,12=2,17=6,18=5,40=1/2;
 3/5=1,6=6,7=101,11=2,16=1,25=1,30=1,71=1,74=-5/1,2,3;
 4//1;
 5/5=2,38=5/2;
 6/7=2,8=2,9=2,10=2,28=1/1;
 7//1,2,3,16;
 1/14=-1,18=20,19=15,26=3/3(2);
 2/9=110/2;
 99//99;
 2/9=110/2;
 3/5=1,6=6,7=101,11=2,16=1,25=1,30=1,71=1,74=-5/1,2,3;
 4/5=5,16=3,69=1/1;
 5/5=2,38=5/2;
 7//1,2,3,16;
 1/14=-1,18=20,19=15,26=3/3(-5);
 2/9=110/2;
 6/7=2,8=2,9=2,10=2,19=2,28=1/1;
 99/9=1/99;
 Leave Link    1 at Thu Sep  8 15:21:22 2022, MaxMem= 24159191040 cpu:         3.0
 (Enter /public/home/users/caep010/software/Gaussian09/g09/l101.exe)
 --------
 Frag_686
 --------
 Symbolic Z-matrix:
 Charge =  0 Multiplicity = 1
 C                    -1.32794  -0.39425   0.73191 
 C                    -0.72205   0.34918  -0.18588 
 C                     0.74368   0.30619  -0.49822 
 O                     1.39445  -0.64118   0.32447 
 H                    -2.39482  -0.31621   0.91033 
 H                    -0.77331  -1.10471   1.33335 
 H                    -1.28743   1.0605   -0.78513 
 H                     1.1668    1.31744  -0.36026 
 H                     0.87246   0.06546  -1.5689 
 H                     2.32826  -0.6425    0.09832 
 
 NAtoms=     10 NQM=       10 NQMF=       0 NMMI=      0 NMMIF=      0
                NMic=       0 NMicF=      0.
                    Isotopes and Nuclear Properties:
 (Nuclear quadrupole moments (NQMom) in fm**2, nuclear magnetic moments (NMagM)
  in nuclear magnetons)

  Atom         1           2           3           4           5           6           7           8           9          10
 IAtWgt=          12          12          12          16           1           1           1           1           1           1
 AtmWgt=  12.0000000  12.0000000  12.0000000  15.9949146   1.0078250   1.0078250   1.0078250   1.0078250   1.0078250   1.0078250
 NucSpn=           0           0           0           0           1           1           1           1           1           1
 AtZEff=   0.0000000   0.0000000   0.0000000   0.0000000   0.0000000   0.0000000   0.0000000   0.0000000   0.0000000   0.0000000
 NQMom=    0.0000000   0.0000000   0.0000000   0.0000000   0.0000000   0.0000000   0.0000000   0.0000000   0.0000000   0.0000000
 NMagM=    0.0000000   0.0000000   0.0000000   0.0000000   2.7928460   2.7928460   2.7928460   2.7928460   2.7928460   2.7928460
 AtZNuc=   6.0000000   6.0000000   6.0000000   8.0000000   1.0000000   1.0000000   1.0000000   1.0000000   1.0000000   1.0000000
 Leave Link  101 at Thu Sep  8 15:21:23 2022, MaxMem= 24159191040 cpu:        10.0
 (Enter /public/home/users/caep010/software/Gaussian09/g09/l103.exe)

 GradGradGradGradGradGradGradGradGradGradGradGradGradGradGradGradGradGrad
 Berny optimization.
 Initialization pass.
                           ----------------------------
                           !    Initial Parameters    !
                           ! (Angstroms and Degrees)  !
 --------------------------                            --------------------------
 ! Name  Definition              Value          Derivative Info.                !
 --------------------------------------------------------------------------------
 ! R1    R(1,2)                  1.3275         estimate D2E/DX2                !
 ! R2    R(1,5)                  1.0845         estimate D2E/DX2                !
 ! R3    R(1,6)                  1.0836         estimate D2E/DX2                !
 ! R4    R(2,3)                  1.4993         estimate D2E/DX2                !
 ! R5    R(2,7)                  1.0885         estimate D2E/DX2                !
 ! R6    R(3,4)                  1.4135         estimate D2E/DX2                !
 ! R7    R(3,8)                  1.1049         estimate D2E/DX2                !
 ! R8    R(3,9)                  1.1049         estimate D2E/DX2                !
 ! R9    R(4,10)                 0.9608         estimate D2E/DX2                !
 ! A1    A(2,1,5)              121.497          estimate D2E/DX2                !
 ! A2    A(2,1,6)              121.1541         estimate D2E/DX2                !
 ! A3    A(5,1,6)              117.3489         estimate D2E/DX2                !
 ! A4    A(1,2,3)              125.0437         estimate D2E/DX2                !
 ! A5    A(1,2,7)              120.6346         estimate D2E/DX2                !
 ! A6    A(3,2,7)              114.3217         estimate D2E/DX2                !
 ! A7    A(2,3,4)              110.37           estimate D2E/DX2                !
 ! A8    A(2,3,8)              108.7928         estimate D2E/DX2                !
 ! A9    A(2,3,9)              108.7878         estimate D2E/DX2                !
 ! A10   A(4,3,8)              111.3748         estimate D2E/DX2                !
 ! A11   A(4,3,9)              111.3649         estimate D2E/DX2                !
 ! A12   A(8,3,9)              106.0081         estimate D2E/DX2                !
 ! A13   A(3,4,10)             108.1437         estimate D2E/DX2                !
 ! D1    D(5,1,2,3)           -179.9793         estimate D2E/DX2                !
 ! D2    D(5,1,2,7)              0.0246         estimate D2E/DX2                !
 ! D3    D(6,1,2,3)              0.0153         estimate D2E/DX2                !
 ! D4    D(6,1,2,7)           -179.9807         estimate D2E/DX2                !
 ! D5    D(1,2,3,4)              0.0128         estimate D2E/DX2                !
 ! D6    D(1,2,3,8)           -122.4683         estimate D2E/DX2                !
 ! D7    D(1,2,3,9)            122.4784         estimate D2E/DX2                !
 ! D8    D(7,2,3,4)           -179.9909         estimate D2E/DX2                !
 ! D9    D(7,2,3,8)             57.5279         estimate D2E/DX2                !
 ! D10   D(7,2,3,9)            -57.5253         estimate D2E/DX2                !
 ! D11   D(2,3,4,10)           179.9928         estimate D2E/DX2                !
 ! D12   D(8,3,4,10)           -59.0537         estimate D2E/DX2                !
 ! D13   D(9,3,4,10)            59.0523         estimate D2E/DX2                !
 --------------------------------------------------------------------------------
 Trust Radius=3.00D-01 FncErr=1.00D-07 GrdErr=1.00D-06
 Number of steps in this run=     45 maximum allowed number of steps=    100.
 GradGradGradGradGradGradGradGradGradGradGradGradGradGradGradGradGradGrad

 Leave Link  103 at Thu Sep  8 15:21:23 2022, MaxMem= 24159191040 cpu:         0.6
 (Enter /public/home/users/caep010/software/Gaussian09/g09/l202.exe)
                          Input orientation:                          
 ---------------------------------------------------------------------
 Center     Atomic      Atomic             Coordinates (Angstroms)
 Number     Number       Type             X           Y           Z
 ---------------------------------------------------------------------
      1          6           0       -1.327937   -0.394251    0.731914
      2          6           0       -0.722052    0.349176   -0.185881
      3          6           0        0.743676    0.306188   -0.498221
      4          8           0        1.394453   -0.641182    0.324472
      5          1           0       -2.394818   -0.316209    0.910334
      6          1           0       -0.773306   -1.104714    1.333350
      7          1           0       -1.287431    1.060496   -0.785132
      8          1           0        1.166800    1.317443   -0.360260
      9          1           0        0.872459    0.065455   -1.568896
     10          1           0        2.328257   -0.642503    0.098320
 ---------------------------------------------------------------------
                    Distance matrix (angstroms):
                    1          2          3          4          5
     1  C    0.000000
     2  C    1.327452   0.000000
     3  C    2.509069   1.499254   0.000000
     4  O    2.763764   2.391832   1.413451   0.000000
     5  H    1.084509   2.107741   3.495933   3.848041   0.000000
     6  H    1.083558   2.103446   2.765236   2.435544   1.852022
     7  H    2.102227   1.088454   2.185565   3.364436   2.448720
     8  H    3.216590   2.129721   1.104855   2.087318   4.119266
     9  H    3.216644   2.129717   1.104935   2.087260   4.119144
    10  H    3.718982   3.220028   1.940818   0.960800   4.803465
                    6          7          8          9         10
     6  H    0.000000
     7  H    3.072527   0.000000
     8  H    3.535417   2.503954   0.000000
     9  H    3.535657   2.503900   1.764911   0.000000
    10  H    3.370257   4.093152   2.323933   2.323825   0.000000
 Stoichiometry    C3H6O
 Framework group  C1[X(C3H6O)]
 Deg. of freedom    24
 Full point group                 C1      NOp   1
 Largest Abelian subgroup         C1      NOp   1
 Largest concise Abelian subgroup C1      NOp   1
                         Standard orientation:                         
 ---------------------------------------------------------------------
 Center     Atomic      Atomic             Coordinates (Angstroms)
 Number     Number       Type             X           Y           Z
 ---------------------------------------------------------------------
      1          6           0       -1.509213   -0.527115    0.000035
      2          6           0       -0.780513    0.582446   -0.000022
      3          6           0        0.718043    0.628204    0.000076
      4          8           0        1.250251   -0.681223   -0.000059
      5          1           0       -2.593188   -0.493092   -0.000376
      6          1           0       -1.041856   -1.504702    0.000409
      7          1           0       -1.258866    1.560152   -0.000084
      8          1           0        1.056604    1.200394    0.882503
      9          1           0        1.056653    1.200435   -0.882408
     10          1           0        2.208740   -0.614614   -0.000106
 ---------------------------------------------------------------------
 Rotational constants (GHZ):     17.2528271      6.0087604      4.5835092
 Leave Link  202 at Thu Sep  8 15:21:23 2022, MaxMem= 24159191040 cpu:         1.3
 (Enter /public/home/users/caep010/software/Gaussian09/g09/l301.exe)
 Standard basis: 6-31G(d,p) (6D, 7F)
 Ernie: Thresh=  0.10000D-02 Tol=  0.10000D-05 Strict=F.
 There are    90 symmetry adapted cartesian basis functions of A   symmetry.
 There are    90 symmetry adapted basis functions of A   symmetry.
    90 basis functions,   154 primitive gaussians,    90 cartesian basis functions
    16 alpha electrons       16 beta electrons
       nuclear repulsion energy       118.7840084547 Hartrees.
 IExCor=  402 DFT=T Ex+Corr=B3LYP ExCW=0 ScaHFX=  0.200000
 ScaDFX=  0.800000  0.720000  1.000000  0.810000 ScalE2=  1.000000  1.000000
 IRadAn=      0 IRanWt=     -1 IRanGd=            0 ICorTp=0 IEmpDi=  4
 NAtoms=   10 NActive=   10 NUniq=   10 SFac= 1.00D+00 NAtFMM=   60 NAOKFM=F Big=F
 Integral buffers will be    131072 words long.
 Raffenetti 2 integral format.
 Two-electron integral symmetry is turned on.
 Leave Link  301 at Thu Sep  8 15:21:23 2022, MaxMem= 24159191040 cpu:         2.1
 (Enter /public/home/users/caep010/software/Gaussian09/g09/l302.exe)
 NPDir=0 NMtPBC=     1 NCelOv=     1 NCel=       1 NClECP=     1 NCelD=      1
         NCelK=      1 NCelE2=     1 NClLst=     1 CellRange=     0.0.
 One-electron integrals computed using PRISM.
 NBasis=    90 RedAO= T EigKep=  3.48D-03  NBF=    90
 NBsUse=    90 1.00D-06 EigRej= -1.00D+00 NBFU=    90
 Precomputing XC quadrature grid using
 IXCGrd= 4 IRadAn=           0 IRanWt=          -1 IRanGd=           0 AccXCQ= 0.00D+00.
 Generated NRdTot=       0 NPtTot=           0 NUsed=           0 NTot=          32
 NSgBfM=    90    90    90    90    90 MxSgAt=    10 MxSgA2=    10.
 Leave Link  302 at Thu Sep  8 15:21:23 2022, MaxMem= 24159191040 cpu:        10.4
 (Enter /public/home/users/caep010/software/Gaussian09/g09/l303.exe)
 DipDrv:  MaxL=1.
 Leave Link  303 at Thu Sep  8 15:21:23 2022, MaxMem= 24159191040 cpu:         0.7
 (Enter /public/home/users/caep010/software/Gaussian09/g09/l401.exe)
 ExpMin= 1.61D-01 ExpMax= 5.48D+03 ExpMxC= 8.25D+02 IAcc=1 IRadAn=         1 AccDes= 0.00D+00
 Harris functional with IExCor=  402 and IRadAn=       1 diagonalized for initial guess.
 HarFok:  IExCor=  402 AccDes= 0.00D+00 IRadAn=         1 IDoV= 1 UseB2=F ITyADJ=14
 ICtDFT=  3500011 ScaDFX=  1.000000  1.000000  1.000000  1.000000
 FoFCou: FMM=F IPFlag=           0 FMFlag=      100000 FMFlg1=           0
         NFxFlg=           0 DoJE=T BraDBF=F KetDBF=T FulRan=T
         wScrn=  0.000000 ICntrl=     500 IOpCl=  0 I1Cent=   200000004 NGrid=           0
         NMat0=    1 NMatS0=      1 NMatT0=    0 NMatD0=    1 NMtDS0=    0 NMtDT0=    0
 Petite list used in FoFCou.
 Harris En= -193.167287801963    
 JPrj=0 DoOrth=F DoCkMO=F.
 Leave Link  401 at Thu Sep  8 15:21:24 2022, MaxMem= 24159191040 cpu:        21.1
 (Enter /public/home/users/caep010/software/Gaussian09/g09/l502.exe)
 Closed shell SCF:
 Using DIIS extrapolation, IDIIS=  1040.
 Integral symmetry usage will be decided dynamically.
 Keep R1 ints in memory in canonical form, NReq=9343712.
 IVT=       46414 IEndB=       46414 NGot= 24159191040 MDV= 24150758067
 LenX= 24150758067 LenY= 24150749526
 Requested convergence on RMS density matrix=1.00D-08 within 128 cycles.
 Requested convergence on MAX density matrix=1.00D-06.
 Requested convergence on             energy=1.00D-06.
 No special actions if energy rises.
 FoFCou: FMM=F IPFlag=           0 FMFlag=           0 FMFlg1=           0
         NFxFlg=           0 DoJE=F BraDBF=F KetDBF=F FulRan=T
         wScrn=  0.000000 ICntrl=     600 IOpCl=  0 I1Cent=           0 NGrid=           0
         NMat0=    1 NMatS0=   4095 NMatT0=    0 NMatD0=    1 NMtDS0=    0 NMtDT0=    0
 Symmetry not used in FoFCou.
 Integral accuracy reduced to 1.0D-05 until final iterations.

 Cycle   1  Pass 0  IDiag  1:
 E= -192.978801308463    
 DIIS: error= 3.45D-02 at cycle   1 NSaved=   1.
 NSaved= 1 IEnMin= 1 EnMin= -192.978801308463     IErMin= 1 ErrMin= 3.45D-02
 ErrMax= 3.45D-02  0.00D+00 EMaxC= 1.00D-01 BMatC= 1.44D-01 BMatP= 1.44D-01
 IDIUse=3 WtCom= 6.55D-01 WtEn= 3.45D-01
 Coeff-Com:  0.100D+01
 Coeff-En:   0.100D+01
 Coeff:      0.100D+01
 Gap=     0.284 Goal=   None    Shift=    0.000
 GapD=    0.284 DampG=1.000 DampE=0.500 DampFc=0.5000 IDamp=-1.
 Damping current iteration by 5.00D-01
 RMSDP=9.29D-03 MaxDP=1.30D-01              OVMax= 1.74D-01

 Cycle   2  Pass 0  IDiag  1:
 E= -193.039586979801     Delta-E=       -0.060785671338 Rises=F Damp=T
 DIIS: error= 8.83D-03 at cycle   2 NSaved=   2.
 NSaved= 2 IEnMin= 2 EnMin= -193.039586979801     IErMin= 2 ErrMin= 8.83D-03
 ErrMax= 8.83D-03  0.00D+00 EMaxC= 1.00D-01 BMatC= 8.42D-03 BMatP= 1.44D-01
 IDIUse=3 WtCom= 9.12D-01 WtEn= 8.83D-02
 Coeff-Com:  0.106D+00 0.894D+00
 Coeff-En:   0.154D+00 0.846D+00
 Coeff:      0.111D+00 0.889D+00
 Gap=     0.308 Goal=   None    Shift=    0.000
 RMSDP=1.63D-03 MaxDP=2.31D-02 DE=-6.08D-02 OVMax= 1.00D-01

 Cycle   3  Pass 0  IDiag  1:
 E= -193.118533315732     Delta-E=       -0.078946335931 Rises=F Damp=F
 DIIS: error= 4.89D-03 at cycle   3 NSaved=   3.
 NSaved= 3 IEnMin= 3 EnMin= -193.118533315732     IErMin= 3 ErrMin= 4.89D-03
 ErrMax= 4.89D-03  0.00D+00 EMaxC= 1.00D-01 BMatC= 3.53D-03 BMatP= 8.42D-03
 IDIUse=3 WtCom= 9.51D-01 WtEn= 4.89D-02
 Coeff-Com:  0.130D-01 0.375D+00 0.612D+00
 Coeff-En:   0.000D+00 0.000D+00 0.100D+01
 Coeff:      0.123D-01 0.357D+00 0.631D+00
 Gap=     0.276 Goal=   None    Shift=    0.000
 RMSDP=8.16D-04 MaxDP=1.50D-02 DE=-7.89D-02 OVMax= 2.03D-02

 Cycle   4  Pass 0  IDiag  1:
 E= -193.120665023366     Delta-E=       -0.002131707634 Rises=F Damp=F
 DIIS: error= 2.55D-03 at cycle   4 NSaved=   4.
 NSaved= 4 IEnMin= 4 EnMin= -193.120665023366     IErMin= 4 ErrMin= 2.55D-03
 ErrMax= 2.55D-03  0.00D+00 EMaxC= 1.00D-01 BMatC= 9.65D-04 BMatP= 3.53D-03
 IDIUse=3 WtCom= 9.75D-01 WtEn= 2.55D-02
 Coeff-Com: -0.361D-02 0.709D-01 0.356D+00 0.577D+00
 Coeff-En:   0.000D+00 0.000D+00 0.235D+00 0.765D+00
 Coeff:     -0.352D-02 0.691D-01 0.353D+00 0.582D+00
 Gap=     0.277 Goal=   None    Shift=    0.000
 RMSDP=3.28D-04 MaxDP=7.74D-03 DE=-2.13D-03 OVMax= 1.17D-02

 Cycle   5  Pass 0  IDiag  1:
 E= -193.121482884892     Delta-E=       -0.000817861526 Rises=F Damp=F
 DIIS: error= 7.04D-04 at cycle   5 NSaved=   5.
 NSaved= 5 IEnMin= 5 EnMin= -193.121482884892     IErMin= 5 ErrMin= 7.04D-04
 ErrMax= 7.04D-04  0.00D+00 EMaxC= 1.00D-01 BMatC= 5.55D-05 BMatP= 9.65D-04
 IDIUse=3 WtCom= 9.93D-01 WtEn= 7.04D-03
 Coeff-Com: -0.213D-02 0.173D-01 0.153D+00 0.302D+00 0.530D+00
 Coeff-En:   0.000D+00 0.000D+00 0.000D+00 0.000D+00 0.100D+01
 Coeff:     -0.212D-02 0.172D-01 0.152D+00 0.300D+00 0.533D+00
 Gap=     0.276 Goal=   None    Shift=    0.000
 RMSDP=8.77D-05 MaxDP=2.60D-03 DE=-8.18D-04 OVMax= 4.94D-03

 Cycle   6  Pass 0  IDiag  1:
 E= -193.121529820966     Delta-E=       -0.000046936074 Rises=F Damp=F
 DIIS: error= 3.14D-04 at cycle   6 NSaved=   6.
 NSaved= 6 IEnMin= 6 EnMin= -193.121529820966     IErMin= 6 ErrMin= 3.14D-04
 ErrMax= 3.14D-04  0.00D+00 EMaxC= 1.00D-01 BMatC= 8.24D-06 BMatP= 5.55D-05
 IDIUse=3 WtCom= 9.97D-01 WtEn= 3.14D-03
 Coeff-Com: -0.681D-03 0.831D-03 0.470D-01 0.107D+00 0.320D+00 0.527D+00
 Coeff-En:   0.000D+00 0.000D+00 0.000D+00 0.000D+00 0.126D+00 0.874D+00
 Coeff:     -0.679D-03 0.829D-03 0.468D-01 0.106D+00 0.319D+00 0.528D+00
 Gap=     0.276 Goal=   None    Shift=    0.000
 RMSDP=2.86D-05 MaxDP=7.55D-04 DE=-4.69D-05 OVMax= 1.49D-03

 Cycle   7  Pass 0  IDiag  1:
 E= -193.121538072594     Delta-E=       -0.000008251628 Rises=F Damp=F
 DIIS: error= 1.67D-05 at cycle   7 NSaved=   7.
 NSaved= 7 IEnMin= 7 EnMin= -193.121538072594     IErMin= 7 ErrMin= 1.67D-05
 ErrMax= 1.67D-05  0.00D+00 EMaxC= 1.00D-01 BMatC= 2.94D-08 BMatP= 8.24D-06
 IDIUse=1 WtCom= 1.00D+00 WtEn= 0.00D+00
 Coeff-Com: -0.636D-04-0.384D-03 0.679D-02 0.172D-01 0.618D-01 0.128D+00
 Coeff-Com:  0.787D+00
 Coeff:     -0.636D-04-0.384D-03 0.679D-02 0.172D-01 0.618D-01 0.128D+00
 Coeff:      0.787D+00
 Gap=     0.276 Goal=   None    Shift=    0.000
 RMSDP=2.56D-06 MaxDP=4.10D-05 DE=-8.25D-06 OVMax= 7.80D-05

 Initial convergence to 1.0D-05 achieved.  Increase integral accuracy.
 Cycle   8  Pass 1  IDiag  1:
 E= -193.121571282144     Delta-E=       -0.000033209551 Rises=F Damp=F
 DIIS: error= 1.29D-05 at cycle   1 NSaved=   1.
 NSaved= 1 IEnMin= 1 EnMin= -193.121571282144     IErMin= 1 ErrMin= 1.29D-05
 ErrMax= 1.29D-05  0.00D+00 EMaxC= 1.00D-01 BMatC= 1.16D-08 BMatP= 1.16D-08
 IDIUse=1 WtCom= 1.00D+00 WtEn= 0.00D+00
 Coeff-Com:  0.100D+01
 Coeff:      0.100D+01
 Gap=     0.276 Goal=   None    Shift=    0.000
 RMSDP=2.56D-06 MaxDP=4.10D-05 DE=-3.32D-05 OVMax= 5.51D-05

 Cycle   9  Pass 1  IDiag  1:
 E= -193.121571288151     Delta-E=       -0.000000006007 Rises=F Damp=F
 DIIS: error= 7.05D-06 at cycle   2 NSaved=   2.
 NSaved= 2 IEnMin= 2 EnMin= -193.121571288151     IErMin= 2 ErrMin= 7.05D-06
 ErrMax= 7.05D-06  0.00D+00 EMaxC= 1.00D-01 BMatC= 8.25D-09 BMatP= 1.16D-08
 IDIUse=1 WtCom= 1.00D+00 WtEn= 0.00D+00
 Coeff-Com:  0.447D+00 0.553D+00
 Coeff:      0.447D+00 0.553D+00
 Gap=     0.276 Goal=   None    Shift=    0.000
 RMSDP=9.99D-07 MaxDP=2.32D-05 DE=-6.01D-09 OVMax= 3.45D-05

 Cycle  10  Pass 1  IDiag  1:
 E= -193.121571295130     Delta-E=       -0.000000006979 Rises=F Damp=F
 DIIS: error= 2.49D-06 at cycle   3 NSaved=   3.
 NSaved= 3 IEnMin= 3 EnMin= -193.121571295130     IErMin= 3 ErrMin= 2.49D-06
 ErrMax= 2.49D-06  0.00D+00 EMaxC= 1.00D-01 BMatC= 8.42D-10 BMatP= 8.25D-09
 IDIUse=1 WtCom= 1.00D+00 WtEn= 0.00D+00
 Coeff-Com:  0.237D-01 0.237D+00 0.739D+00
 Coeff:      0.237D-01 0.237D+00 0.739D+00
 Gap=     0.276 Goal=   None    Shift=    0.000
 RMSDP=3.62D-07 MaxDP=9.67D-06 DE=-6.98D-09 OVMax= 1.95D-05

 Cycle  11  Pass 1  IDiag  1:
 E= -193.121571295683     Delta-E=       -0.000000000553 Rises=F Damp=F
 DIIS: error= 1.82D-06 at cycle   4 NSaved=   4.
 NSaved= 4 IEnMin= 4 EnMin= -193.121571295683     IErMin= 4 ErrMin= 1.82D-06
 ErrMax= 1.82D-06  0.00D+00 EMaxC= 1.00D-01 BMatC= 2.49D-10 BMatP= 8.42D-10
 IDIUse=1 WtCom= 1.00D+00 WtEn= 0.00D+00
 Coeff-Com: -0.135D-01 0.118D+00 0.474D+00 0.421D+00
 Coeff:     -0.135D-01 0.118D+00 0.474D+00 0.421D+00
 Gap=     0.276 Goal=   None    Shift=    0.000
 RMSDP=1.54D-07 MaxDP=4.14D-06 DE=-5.53D-10 OVMax= 8.20D-06

 Cycle  12  Pass 1  IDiag  1:
 E= -193.121571295938     Delta-E=       -0.000000000255 Rises=F Damp=F
 DIIS: error= 1.36D-07 at cycle   5 NSaved=   5.
 NSaved= 5 IEnMin= 5 EnMin= -193.121571295938     IErMin= 5 ErrMin= 1.36D-07
 ErrMax= 1.36D-07  0.00D+00 EMaxC= 1.00D-01 BMatC= 2.42D-12 BMatP= 2.49D-10
 IDIUse=1 WtCom= 1.00D+00 WtEn= 0.00D+00
 Coeff-Com: -0.622D-02 0.430D-01 0.176D+00 0.183D+00 0.605D+00
 Coeff:     -0.622D-02 0.430D-01 0.176D+00 0.183D+00 0.605D+00
 Gap=     0.276 Goal=   None    Shift=    0.000
 RMSDP=2.16D-08 MaxDP=3.52D-07 DE=-2.55D-10 OVMax= 6.22D-07

 Cycle  13  Pass 1  IDiag  1:
 E= -193.121571295940     Delta-E=       -0.000000000002 Rises=F Damp=F
 DIIS: error= 7.23D-08 at cycle   6 NSaved=   6.
 NSaved= 6 IEnMin= 6 EnMin= -193.121571295940     IErMin= 6 ErrMin= 7.23D-08
 ErrMax= 7.23D-08  0.00D+00 EMaxC= 1.00D-01 BMatC= 4.82D-13 BMatP= 2.42D-12
 IDIUse=1 WtCom= 1.00D+00 WtEn= 0.00D+00
 Coeff-Com: -0.199D-02 0.112D-01 0.459D-01 0.571D-01 0.342D+00 0.546D+00
 Coeff:     -0.199D-02 0.112D-01 0.459D-01 0.571D-01 0.342D+00 0.546D+00
 Gap=     0.276 Goal=   None    Shift=    0.000
 RMSDP=6.57D-09 MaxDP=1.65D-07 DE=-2.05D-12 OVMax= 1.47D-07

 SCF Done:  E(RB3LYP) =  -193.121571296     A.U. after   13 cycles
            NFock= 13  Conv=0.66D-08     -V/T= 2.0092
 KE= 1.913661638296D+02 PE=-6.878766578393D+02 EE= 1.846049142591D+02
 Leave Link  502 at Thu Sep  8 15:21:25 2022, MaxMem= 24159191040 cpu:        22.6
 (Enter /public/home/users/caep010/software/Gaussian09/g09/l601.exe)
 Copying SCF densities to generalized density rwf, IOpCl= 0 IROHF=0.

 **********************************************************************

            Population analysis using the SCF density.

 **********************************************************************

 Orbital symmetries:
       Occupied  (A) (A) (A) (A) (A) (A) (A) (A) (A) (A) (A) (A)
                 (A) (A) (A) (A)
       Virtual   (A) (A) (A) (A) (A) (A) (A) (A) (A) (A) (A) (A)
                 (A) (A) (A) (A) (A) (A) (A) (A) (A) (A) (A) (A)
                 (A) (A) (A) (A) (A) (A) (A) (A) (A) (A) (A) (A)
                 (A) (A) (A) (A) (A) (A) (A) (A) (A) (A) (A) (A)
                 (A) (A) (A) (A) (A) (A) (A) (A) (A) (A) (A) (A)
                 (A) (A) (A) (A) (A) (A) (A) (A) (A) (A) (A) (A)
                 (A) (A)
 The electronic state is 1-A.
 Alpha  occ. eigenvalues --  -19.14481 -10.23631 -10.18271 -10.16829  -1.02060
 Alpha  occ. eigenvalues --   -0.77331  -0.67320  -0.54830  -0.51616  -0.44890
 Alpha  occ. eigenvalues --   -0.44120  -0.41287  -0.34870  -0.33277  -0.27687
 Alpha  occ. eigenvalues --   -0.24569
 Alpha virt. eigenvalues --    0.03054   0.07186   0.12807   0.14747   0.17225
 Alpha virt. eigenvalues --    0.17493   0.20067   0.21113   0.29709   0.36258
 Alpha virt. eigenvalues --    0.51917   0.54901   0.55277   0.58911   0.63287
 Alpha virt. eigenvalues --    0.65738   0.68526   0.68669   0.76241   0.79490
 Alpha virt. eigenvalues --    0.82323   0.84498   0.87697   0.89702   0.92084
 Alpha virt. eigenvalues --    0.99706   1.01564   1.12200   1.16626   1.22767
 Alpha virt. eigenvalues --    1.27697   1.30491   1.40609   1.48858   1.56076
 Alpha virt. eigenvalues --    1.58764   1.62346   1.80202   1.81951   1.87990
 Alpha virt. eigenvalues --    1.93353   1.94136   1.98790   2.02364   2.09243
 Alpha virt. eigenvalues --    2.09428   2.15881   2.22720   2.31970   2.36189
 Alpha virt. eigenvalues --    2.36619   2.44941   2.48344   2.55859   2.57881
 Alpha virt. eigenvalues --    2.61662   2.65527   2.67952   2.74796   2.77621
 Alpha virt. eigenvalues --    2.79796   2.84806   2.96325   3.05210   3.26039
 Alpha virt. eigenvalues --    3.29029   3.42350   3.42907   3.47153   3.68554
 Alpha virt. eigenvalues --    3.96977   4.19198   4.38618   4.60256
          Condensed to atoms (all electrons):
               1          2          3          4          5          6
     1  C    4.862247   0.687162  -0.043936  -0.002003   0.373097   0.384221
     2  C    0.687162   4.812474   0.380850  -0.050927  -0.027646  -0.029646
     3  C   -0.043936   0.380850   4.719957   0.256757   0.005984  -0.016838
     4  O   -0.002003  -0.050927   0.256757   8.109607   0.000143   0.011177
     5  H    0.373097  -0.027646   0.005984   0.000143   0.612620  -0.044515
     6  H    0.384221  -0.029646  -0.016838   0.011177  -0.044515   0.570435
     7  H   -0.038423   0.373783  -0.053539   0.002521  -0.009898   0.006099
     8  H    0.000177  -0.044324   0.366309  -0.038302  -0.000129   0.000478
     9  H    0.000178  -0.044322   0.366323  -0.038313  -0.000129   0.000478
    10  H    0.000064   0.007245  -0.024849   0.284440  -0.000005  -0.000477
               7          8          9         10
     1  C   -0.038423   0.000177   0.000178   0.000064
     2  C    0.373783  -0.044324  -0.044322   0.007245
     3  C   -0.053539   0.366309   0.366323  -0.024849
     4  O    0.002521  -0.038302  -0.038313   0.284440
     5  H   -0.009898  -0.000129  -0.000129  -0.000005
     6  H    0.006099   0.000478   0.000478  -0.000477
     7  H    0.635481   0.000939   0.000932  -0.000242
     8  H    0.000939   0.692887  -0.063129  -0.004675
     9  H    0.000932  -0.063129   0.692910  -0.004677
    10  H   -0.000242  -0.004675  -0.004677   0.434557
 Mulliken charges:
               1
     1  C   -0.222784
     2  C   -0.064649
     3  C    0.042983
     4  O   -0.535100
     5  H    0.090477
     6  H    0.118590
     7  H    0.082347
     8  H    0.089769
     9  H    0.089748
    10  H    0.308620
 Sum of Mulliken charges =   0.00000
 Mulliken charges with hydrogens summed into heavy atoms:
               1
     1  C   -0.013717
     2  C    0.017698
     3  C    0.222500
     4  O   -0.226481
 Electronic spatial extent (au):  <R**2>=            298.3449
 Charge=              0.0000 electrons
 Dipole moment (field-independent basis, Debye):
    X=              1.2556    Y=              1.2486    Z=              0.0001  Tot=              1.7707
 Quadrupole moment (field-independent basis, Debye-Ang):
   XX=            -19.2098   YY=            -24.2966   ZZ=            -26.5111
   XY=              0.3960   XZ=              0.0004   YZ=             -0.0002
 Traceless Quadrupole moment (field-independent basis, Debye-Ang):
   XX=              4.1293   YY=             -0.9574   ZZ=             -3.1719
   XY=              0.3960   XZ=              0.0004   YZ=             -0.0002
 Octapole moment (field-independent basis, Debye-Ang**2):
  XXX=             18.4864  YYY=             -2.0496  ZZZ=             -0.0000  XYY=              0.9119
  XXY=             -3.3280  XXZ=             -0.0030  XZZ=              4.2131  YZZ=             -0.2178
  YYZ=              0.0008  XYZ=              0.0005
 Hexadecapole moment (field-independent basis, Debye-Ang**3):
 XXXX=           -195.6618 YYYY=           -102.4800 ZZZZ=            -32.5633 XXXY=            -12.4534
 XXXZ=              0.0039 YYYX=             -5.1415 YYYZ=             -0.0005 ZZZX=              0.0001
 ZZZY=              0.0004 XXYY=            -56.1760 XXZZ=            -49.4090 YYZZ=            -23.4456
 XXYZ=              0.0011 YYXZ=             -0.0006 ZZXY=             -0.7637
 N-N= 1.187840084547D+02 E-N=-6.878766536176D+02  KE= 1.913661638296D+02
 No NMR shielding tensors so no spin-rotation constants.
 Leave Link  601 at Thu Sep  8 15:21:25 2022, MaxMem= 24159191040 cpu:        13.0
 (Enter /public/home/users/caep010/software/Gaussian09/g09/l701.exe)
 Compute integral first derivatives.
 ... and contract with generalized density number  0.
 Leave Link  701 at Thu Sep  8 15:21:26 2022, MaxMem= 24159191040 cpu:        10.1
 (Enter /public/home/users/caep010/software/Gaussian09/g09/l702.exe)
 L702 exits ... SP integral derivatives will be done elsewhere.
 Leave Link  702 at Thu Sep  8 15:21:26 2022, MaxMem= 24159191040 cpu:         0.5
 (Enter /public/home/users/caep010/software/Gaussian09/g09/l703.exe)
 Compute integral first derivatives, UseDBF=F ICtDFT=           0.
 Integral derivatives from FoFJK, PRISM(SPDF).
 Calling FoFJK, ICntrl=      2127 FMM=F ISym2X=0 I1Cent= 0 IOpClX= 0 NMat=1 NMatS=1 NMatT=0.
 FoFJK:  IHMeth= 1 ICntrl=    2127 DoSepK=F KAlg= 0 I1Cent=   0 FoldK=F
 IRaf=         0 NMat=   1 IRICut=       1 DoRegI=T DoRafI=F ISym2E= 0.
 FoFCou: FMM=F IPFlag=           0 FMFlag=      100000 FMFlg1=         800
         NFxFlg=           0 DoJE=F BraDBF=F KetDBF=F FulRan=T
         wScrn=  0.000000 ICntrl=    2127 IOpCl=  0 I1Cent=           0 NGrid=           0
         NMat0=    1 NMatS0=      1 NMatT0=    0 NMatD0=    1 NMtDS0=    0 NMtDT0=    0
 Symmetry not used in FoFCou.
 Leave Link  703 at Thu Sep  8 15:21:26 2022, MaxMem= 24159191040 cpu:         8.0
 (Enter /public/home/users/caep010/software/Gaussian09/g09/l716.exe)
 Dipole        = 4.93976431D-01 4.91227839D-01 3.35426814D-05
 ***** Axes restored to original set *****
 -------------------------------------------------------------------
 Center     Atomic                   Forces (Hartrees/Bohr)
 Number     Number              X              Y              Z
 -------------------------------------------------------------------
      1        6          -0.001702258   -0.002282858    0.002772671
      2        6           0.001458844    0.002117774   -0.002536774
      3        6           0.000296281    0.001025569   -0.001204611
      4        8          -0.002439287   -0.001837768    0.002515655
      5        1          -0.000764671    0.000352930   -0.000158193
      6        1           0.000643926   -0.000349615    0.000187464
      7        1          -0.000746834    0.000468825   -0.000322701
      8        1          -0.000130256    0.000351861   -0.000033720
      9        1          -0.000211180    0.000084188   -0.000273909
     10        1           0.003595435    0.000069094   -0.000945881
 -------------------------------------------------------------------
 Cartesian Forces:  Max     0.003595435 RMS     0.001453446
 Leave Link  716 at Thu Sep  8 15:21:26 2022, MaxMem= 24159191040 cpu:         0.7
 (Enter /public/home/users/caep010/software/Gaussian09/g09/l103.exe)

 GradGradGradGradGradGradGradGradGradGradGradGradGradGradGradGradGradGrad
 Berny optimization.
 FormGI is forming the generalized inverse of G from B-inverse, IUseBI=4.
 Internal  Forces:  Max     0.004035389 RMS     0.001084821
 Search for a local minimum.
 Step number   1 out of a maximum of   45
 All quantities printed in internal units (Hartrees-Bohrs-Radians)
 RMS Force = .10848D-02 SwitMx=.10000D-02 MixMth= 1
 Mixed Optimization -- RFO/linear search
 Second derivative matrix not updated -- first step.
 ITU=  0
     Eigenvalues ---    0.00776   0.01514   0.01748   0.03048   0.03048
     Eigenvalues ---    0.06274   0.07594   0.11463   0.14027   0.16000
     Eigenvalues ---    0.16000   0.16000   0.16000   0.21998   0.22000
     Eigenvalues ---    0.32456   0.33142   0.33151   0.34992   0.35455
     Eigenvalues ---    0.35568   0.43462   0.55302   0.60112
 RFO step:  Lambda=-8.44054279D-05 EMin= 7.75814454D-03
 Linear search not attempted -- first point.
 Iteration  1 RMS(Cart)=  0.00323429 RMS(Int)=  0.00000231
 Iteration  2 RMS(Cart)=  0.00000255 RMS(Int)=  0.00000117
 Iteration  3 RMS(Cart)=  0.00000000 RMS(Int)=  0.00000117
 ITry= 1 IFail=0 DXMaxC= 1.19D-02 DCOld= 1.00D+10 DXMaxT= 3.00D-01 DXLimC= 3.00D+00 Rises=F
 Variable       Old X    -DE/DX   Delta X   Delta X   Delta X     New X
                                 (Linear)    (Quad)   (Total)
    R1        2.50852   0.00404   0.00000   0.00671   0.00671   2.51523
    R2        2.04942   0.00075   0.00000   0.00213   0.00213   2.05155
    R3        2.04763   0.00066   0.00000   0.00184   0.00184   2.04947
    R4        2.83318   0.00109   0.00000   0.00335   0.00335   2.83653
    R5        2.05688   0.00087   0.00000   0.00250   0.00250   2.05938
    R6        2.67104   0.00264   0.00000   0.00608   0.00608   2.67712
    R7        2.08787   0.00027   0.00000   0.00080   0.00080   2.08868
    R8        2.08803   0.00022   0.00000   0.00067   0.00067   2.08869
    R9        1.81565   0.00371   0.00000   0.00671   0.00671   1.82236
    A1        2.12052  -0.00033   0.00000  -0.00207  -0.00207   2.11845
    A2        2.11454  -0.00020   0.00000  -0.00126  -0.00126   2.11327
    A3        2.04812   0.00053   0.00000   0.00333   0.00333   2.05146
    A4        2.18242  -0.00016   0.00000  -0.00071  -0.00071   2.18171
    A5        2.10547  -0.00027   0.00000  -0.00183  -0.00183   2.10364
    A6        1.99529   0.00043   0.00000   0.00254   0.00254   1.99783
    A7        1.92632   0.00019   0.00000   0.00099   0.00099   1.92731
    A8        1.89879  -0.00027   0.00000  -0.00215  -0.00215   1.89664
    A9        1.89870  -0.00028   0.00000  -0.00212  -0.00212   1.89658
   A10        1.94386   0.00013   0.00000   0.00156   0.00156   1.94542
   A11        1.94368   0.00016   0.00000   0.00179   0.00179   1.94548
   A12        1.85019   0.00004   0.00000  -0.00029  -0.00030   1.84989
   A13        1.88746  -0.00017   0.00000  -0.00107  -0.00107   1.88639
    D1       -3.14123  -0.00001   0.00000  -0.00040  -0.00040   3.14155
    D2        0.00043  -0.00001   0.00000  -0.00045  -0.00045  -0.00002
    D3        0.00027  -0.00001   0.00000  -0.00034  -0.00034  -0.00007
    D4       -3.14126  -0.00001   0.00000  -0.00038  -0.00038   3.14155
    D5        0.00022  -0.00001   0.00000  -0.00026  -0.00026  -0.00004
    D6       -2.13748  -0.00012   0.00000  -0.00142  -0.00142  -2.13890
    D7        2.13765   0.00013   0.00000   0.00121   0.00120   2.13885
    D8       -3.14143  -0.00001   0.00000  -0.00022  -0.00022   3.14153
    D9        1.00405  -0.00012   0.00000  -0.00138  -0.00138   1.00268
   D10       -1.00401   0.00013   0.00000   0.00125   0.00125  -1.00276
   D11        3.14147   0.00000   0.00000   0.00011   0.00011   3.14158
   D12       -1.03068  -0.00012   0.00000  -0.00090  -0.00090  -1.03158
   D13        1.03066   0.00012   0.00000   0.00092   0.00092   1.03158
         Item               Value     Threshold  Converged?
 Maximum Force            0.004035     0.000450     NO 
 RMS     Force            0.001085     0.000300     NO 
 Maximum Displacement     0.011932     0.001800     NO 
 RMS     Displacement     0.003234     0.001200     NO 
 Predicted change in Energy=-4.220993D-05
 Lowest energy point so far.  Saving SCF results.
 GradGradGradGradGradGradGradGradGradGradGradGradGradGradGradGradGradGrad

 Leave Link  103 at Thu Sep  8 15:21:26 2022, MaxMem= 24159191040 cpu:         3.3
 (Enter /public/home/users/caep010/software/Gaussian09/g09/l202.exe)
                          Input orientation:                          
 ---------------------------------------------------------------------
 Center     Atomic      Atomic             Coordinates (Angstroms)
 Number     Number       Type             X           Y           Z
 ---------------------------------------------------------------------
      1          6           0       -1.330264   -0.395185    0.733363
      2          6           0       -0.722561    0.350170   -0.186808
      3          6           0        0.745056    0.306162   -0.498641
      4          8           0        1.397496   -0.643162    0.326016
      5          1           0       -2.398344   -0.315065    0.910536
      6          1           0       -0.774194   -1.106262    1.334503
      7          1           0       -1.290142    1.061903   -0.785888
      8          1           0        1.166471    1.318674   -0.361259
      9          1           0        0.872012    0.066308   -1.570096
     10          1           0        2.334571   -0.643643    0.098274
 ---------------------------------------------------------------------
                    Distance matrix (angstroms):
                    1          2          3          4          5
     1  C    0.000000
     2  C    1.331004   0.000000
     3  C    2.513300   1.501025   0.000000
     4  O    2.769134   2.396735   1.416669   0.000000
     5  H    1.085635   2.110674   3.500380   3.854570   0.000000
     6  H    1.084534   2.106715   2.768299   2.438801   1.855695
     7  H    2.105431   1.089775   2.189905   3.371494   2.449899
     8  H    3.220124   2.129994   1.105280   2.091535   4.122435
     9  H    3.220080   2.129959   1.105289   2.091583   4.122402
    10  H    3.727745   3.227227   1.945506   0.964352   4.813337
                    6          7          8          9         10
     6  H    0.000000
     7  H    3.076232   0.000000
     8  H    3.538659   2.506229   0.000000
     9  H    3.538588   2.506212   1.765336   0.000000
    10  H    3.377381   4.102338   2.329446   2.329500   0.000000
 Stoichiometry    C3H6O
 Framework group  C1[X(C3H6O)]
 Deg. of freedom    24
 Full point group                 C1      NOp   1
 RotChk:  IX=2 Diff= 1.43D-03
 Largest Abelian subgroup         C1      NOp   1
 Largest concise Abelian subgroup C1      NOp   1
                         Standard orientation:                         
 ---------------------------------------------------------------------
 Center     Atomic      Atomic             Coordinates (Angstroms)
 Number     Number       Type             X           Y           Z
 ---------------------------------------------------------------------
      1          6           0       -1.511571   -0.529496   -0.000003
      2          6           0       -0.781864    0.583651    0.000004
      3          6           0        0.718456    0.629664   -0.000012
      4          8           0        1.253352   -0.682143    0.000016
      5          1           0       -2.596629   -0.494112    0.000047
      6          1           0       -1.041730   -1.506975   -0.000085
      7          1           0       -1.263416    1.561259    0.000044
      8          1           0        1.054839    1.203617    0.882638
      9          1           0        1.054764    1.203618   -0.882699
     10          1           0        2.215235   -0.613175   -0.000011
 ---------------------------------------------------------------------
 Rotational constants (GHZ):     17.1853043      5.9879026      4.5666710
 Leave Link  202 at Thu Sep  8 15:21:27 2022, MaxMem= 24159191040 cpu:         0.2
 (Enter /public/home/users/caep010/software/Gaussian09/g09/l301.exe)
 Standard basis: 6-31G(d,p) (6D, 7F)
 Ernie: Thresh=  0.10000D-02 Tol=  0.10000D-05 Strict=F.
 There are    90 symmetry adapted cartesian basis functions of A   symmetry.
 There are    90 symmetry adapted basis functions of A   symmetry.
    90 basis functions,   154 primitive gaussians,    90 cartesian basis functions
    16 alpha electrons       16 beta electrons
       nuclear repulsion energy       118.5685855629 Hartrees.
 IExCor=  402 DFT=T Ex+Corr=B3LYP ExCW=0 ScaHFX=  0.200000
 ScaDFX=  0.800000  0.720000  1.000000  0.810000 ScalE2=  1.000000  1.000000
 IRadAn=      0 IRanWt=     -1 IRanGd=            0 ICorTp=0 IEmpDi=  4
 NAtoms=   10 NActive=   10 NUniq=   10 SFac= 1.00D+00 NAtFMM=   60 NAOKFM=F Big=F
 Integral buffers will be    131072 words long.
 Raffenetti 2 integral format.
 Two-electron integral symmetry is turned on.
 Leave Link  301 at Thu Sep  8 15:21:27 2022, MaxMem= 24159191040 cpu:         1.8
 (Enter /public/home/users/caep010/software/Gaussian09/g09/l302.exe)
 NPDir=0 NMtPBC=     1 NCelOv=     1 NCel=       1 NClECP=     1 NCelD=      1
         NCelK=      1 NCelE2=     1 NClLst=     1 CellRange=     0.0.
 One-electron integrals computed using PRISM.
 NBasis=    90 RedAO= T EigKep=  3.52D-03  NBF=    90
 NBsUse=    90 1.00D-06 EigRej= -1.00D+00 NBFU=    90
 Precomputing XC quadrature grid using
 IXCGrd= 4 IRadAn=           0 IRanWt=          -1 IRanGd=           0 AccXCQ= 0.00D+00.
 Generated NRdTot=       0 NPtTot=           0 NUsed=           0 NTot=          32
 NSgBfM=    90    90    90    90    90 MxSgAt=    10 MxSgA2=    10.
 Leave Link  302 at Thu Sep  8 15:21:27 2022, MaxMem= 24159191040 cpu:        10.2
 (Enter /public/home/users/caep010/software/Gaussian09/g09/l303.exe)
 DipDrv:  MaxL=1.
 Leave Link  303 at Thu Sep  8 15:21:27 2022, MaxMem= 24159191040 cpu:         0.6
 (Enter /public/home/users/caep010/software/Gaussian09/g09/l401.exe)
 Initial guess from the checkpoint file:  "B3LYP6-31Gdp.Frag_686.chk"
 B after Tr=    -0.000000   -0.000000   -0.000000
         Rot=    1.000000    0.000002   -0.000002   -0.000393 Ang=   0.05 deg.
 Guess basis will be translated and rotated to current coordinates.
 JPrj=2 DoOrth=T DoCkMO=T.
 Leave Link  401 at Thu Sep  8 15:21:27 2022, MaxMem= 24159191040 cpu:         2.6
 (Enter /public/home/users/caep010/software/Gaussian09/g09/l502.exe)
 Closed shell SCF:
 Using DIIS extrapolation, IDIIS=  1040.
 Integral symmetry usage will be decided dynamically.
 Keep R1 ints in memory in canonical form, NReq=9343712.
 IVT=       46414 IEndB=       46414 NGot= 24159191040 MDV= 24150758067
 LenX= 24150758067 LenY= 24150749526
 Requested convergence on RMS density matrix=1.00D-08 within 128 cycles.
 Requested convergence on MAX density matrix=1.00D-06.
 Requested convergence on             energy=1.00D-06.
 No special actions if energy rises.
 FoFCou: FMM=F IPFlag=           0 FMFlag=           0 FMFlg1=           0
         NFxFlg=           0 DoJE=F BraDBF=F KetDBF=F FulRan=T
         wScrn=  0.000000 ICntrl=     600 IOpCl=  0 I1Cent=           0 NGrid=           0
         NMat0=    1 NMatS0=   4095 NMatT0=    0 NMatD0=    1 NMtDS0=    0 NMtDT0=    0
 Symmetry not used in FoFCou.

 Cycle   1  Pass 1  IDiag  1:
 E= -193.121601911014    
 DIIS: error= 2.37D-04 at cycle   1 NSaved=   1.
 NSaved= 1 IEnMin= 1 EnMin= -193.121601911014     IErMin= 1 ErrMin= 2.37D-04
 ErrMax= 2.37D-04  0.00D+00 EMaxC= 1.00D-01 BMatC= 9.35D-06 BMatP= 9.35D-06
 IDIUse=3 WtCom= 9.98D-01 WtEn= 2.37D-03
 Coeff-Com:  0.100D+01
 Coeff-En:   0.100D+01
 Coeff:      0.100D+01
 Gap=     1.948 Goal=   None    Shift=    0.000
 RMSDP=5.24D-05 MaxDP=9.95D-04              OVMax= 9.42D-04

 Cycle   2  Pass 1  IDiag  1:
 E= -193.121611894557     Delta-E=       -0.000009983543 Rises=F Damp=F
 DIIS: error= 1.21D-04 at cycle   2 NSaved=   2.
 NSaved= 2 IEnMin= 2 EnMin= -193.121611894557     IErMin= 2 ErrMin= 1.21D-04
 ErrMax= 1.21D-04  0.00D+00 EMaxC= 1.00D-01 BMatC= 2.14D-06 BMatP= 9.35D-06
 IDIUse=3 WtCom= 9.99D-01 WtEn= 1.21D-03
 Coeff-Com:  0.255D+00 0.745D+00
 Coeff-En:   0.000D+00 0.100D+01
 Coeff:      0.254D+00 0.746D+00
 Gap=     0.275 Goal=   None    Shift=    0.000
 RMSDP=2.40D-05 MaxDP=4.17D-04 DE=-9.98D-06 OVMax= 4.33D-04

 Cycle   3  Pass 1  IDiag  1:
 E= -193.121613019202     Delta-E=       -0.000001124645 Rises=F Damp=F
 DIIS: error= 9.84D-05 at cycle   3 NSaved=   3.
 NSaved= 3 IEnMin= 3 EnMin= -193.121613019202     IErMin= 3 ErrMin= 9.84D-05
 ErrMax= 9.84D-05  0.00D+00 EMaxC= 1.00D-01 BMatC= 9.60D-07 BMatP= 2.14D-06
 IDIUse=1 WtCom= 1.00D+00 WtEn= 0.00D+00
 Coeff-Com:  0.285D-02 0.398D+00 0.599D+00
 Coeff:      0.285D-02 0.398D+00 0.599D+00
 Gap=     0.275 Goal=   None    Shift=    0.000
 RMSDP=1.05D-05 MaxDP=2.07D-04 DE=-1.12D-06 OVMax= 1.95D-04

 Cycle   4  Pass 1  IDiag  1:
 E= -193.121613797661     Delta-E=       -0.000000778459 Rises=F Damp=F
 DIIS: error= 1.90D-05 at cycle   4 NSaved=   4.
 NSaved= 4 IEnMin= 4 EnMin= -193.121613797661     IErMin= 4 ErrMin= 1.90D-05
 ErrMax= 1.90D-05  0.00D+00 EMaxC= 1.00D-01 BMatC= 4.37D-08 BMatP= 9.60D-07
 IDIUse=1 WtCom= 1.00D+00 WtEn= 0.00D+00
 Coeff-Com: -0.890D-02 0.171D+00 0.308D+00 0.530D+00
 Coeff:     -0.890D-02 0.171D+00 0.308D+00 0.530D+00
 Gap=     0.275 Goal=   None    Shift=    0.000
 RMSDP=2.14D-06 MaxDP=4.27D-05 DE=-7.78D-07 OVMax= 4.27D-05

 Cycle   5  Pass 1  IDiag  1:
 E= -193.121613829697     Delta-E=       -0.000000032036 Rises=F Damp=F
 DIIS: error= 3.78D-06 at cycle   5 NSaved=   5.
 NSaved= 5 IEnMin= 5 EnMin= -193.121613829697     IErMin= 5 ErrMin= 3.78D-06
 ErrMax= 3.78D-06  0.00D+00 EMaxC= 1.00D-01 BMatC= 2.29D-09 BMatP= 4.37D-08
 IDIUse=1 WtCom= 1.00D+00 WtEn= 0.00D+00
 Coeff-Com: -0.391D-02 0.383D-01 0.839D-01 0.234D+00 0.647D+00
 Coeff:     -0.391D-02 0.383D-01 0.839D-01 0.234D+00 0.647D+00
 Gap=     0.275 Goal=   None    Shift=    0.000
 RMSDP=5.96D-07 MaxDP=1.13D-05 DE=-3.20D-08 OVMax= 1.66D-05

 Cycle   6  Pass 1  IDiag  1:
 E= -193.121613831645     Delta-E=       -0.000000001949 Rises=F Damp=F
 DIIS: error= 1.55D-06 at cycle   6 NSaved=   6.
 NSaved= 6 IEnMin= 6 EnMin= -193.121613831645     IErMin= 6 ErrMin= 1.55D-06
 ErrMax= 1.55D-06  0.00D+00 EMaxC= 1.00D-01 BMatC= 2.61D-10 BMatP= 2.29D-09
 IDIUse=1 WtCom= 1.00D+00 WtEn= 0.00D+00
 Coeff-Com: -0.143D-02 0.896D-02 0.246D-01 0.854D-01 0.326D+00 0.556D+00
 Coeff:     -0.143D-02 0.896D-02 0.246D-01 0.854D-01 0.326D+00 0.556D+00
 Gap=     0.275 Goal=   None    Shift=    0.000
 RMSDP=2.03D-07 MaxDP=6.14D-06 DE=-1.95D-09 OVMax= 1.19D-05

 Cycle   7  Pass 1  IDiag  1:
 E= -193.121613831851     Delta-E=       -0.000000000206 Rises=F Damp=F
 DIIS: error= 8.76D-07 at cycle   7 NSaved=   7.
 NSaved= 7 IEnMin= 7 EnMin= -193.121613831851     IErMin= 7 ErrMin= 8.76D-07
 ErrMax= 8.76D-07  0.00D+00 EMaxC= 1.00D-01 BMatC= 5.82D-11 BMatP= 2.61D-10
 IDIUse=1 WtCom= 1.00D+00 WtEn= 0.00D+00
 Coeff-Com: -0.177D-03-0.162D-02-0.654D-04 0.103D-01 0.869D-01 0.349D+00
 Coeff-Com:  0.556D+00
 Coeff:     -0.177D-03-0.162D-02-0.654D-04 0.103D-01 0.869D-01 0.349D+00
 Coeff:      0.556D+00
 Gap=     0.275 Goal=   None    Shift=    0.000
 RMSDP=7.72D-08 MaxDP=2.15D-06 DE=-2.06D-10 OVMax= 4.32D-06

 Cycle   8  Pass 1  IDiag  1:
 E= -193.121613831912     Delta-E=       -0.000000000061 Rises=F Damp=F
 DIIS: error= 4.83D-08 at cycle   8 NSaved=   8.
 NSaved= 8 IEnMin= 8 EnMin= -193.121613831912     IErMin= 8 ErrMin= 4.83D-08
 ErrMax= 4.83D-08  0.00D+00 EMaxC= 1.00D-01 BMatC= 2.08D-13 BMatP= 5.82D-11
 IDIUse=1 WtCom= 1.00D+00 WtEn= 0.00D+00
 Coeff-Com:  0.206D-04-0.507D-03-0.769D-03-0.168D-02 0.229D-02 0.269D-01
 Coeff-Com:  0.823D-01 0.891D+00
 Coeff:      0.206D-04-0.507D-03-0.769D-03-0.168D-02 0.229D-02 0.269D-01
 Coeff:      0.823D-01 0.891D+00
 Gap=     0.275 Goal=   None    Shift=    0.000
 RMSDP=8.46D-09 MaxDP=1.34D-07 DE=-6.07D-11 OVMax= 2.44D-07

 SCF Done:  E(RB3LYP) =  -193.121613832     A.U. after    8 cycles
            NFock=  8  Conv=0.85D-08     -V/T= 2.0093
 KE= 1.913339288799D+02 PE=-6.874245269319D+02 EE= 1.844003986572D+02
 Leave Link  502 at Thu Sep  8 15:21:28 2022, MaxMem= 24159191040 cpu:        19.3
 (Enter /public/home/users/caep010/software/Gaussian09/g09/l701.exe)
 Compute integral first derivatives.
 ... and contract with generalized density number  0.
 Leave Link  701 at Thu Sep  8 15:21:28 2022, MaxMem= 24159191040 cpu:        10.4
 (Enter /public/home/users/caep010/software/Gaussian09/g09/l702.exe)
 L702 exits ... SP integral derivatives will be done elsewhere.
 Leave Link  702 at Thu Sep  8 15:21:28 2022, MaxMem= 24159191040 cpu:         0.5
 (Enter /public/home/users/caep010/software/Gaussian09/g09/l703.exe)
 Compute integral first derivatives, UseDBF=F ICtDFT=           0.
 Integral derivatives from FoFJK, PRISM(SPDF).
 Calling FoFJK, ICntrl=      2127 FMM=F ISym2X=0 I1Cent= 0 IOpClX= 0 NMat=1 NMatS=1 NMatT=0.
 FoFJK:  IHMeth= 1 ICntrl=    2127 DoSepK=F KAlg= 0 I1Cent=   0 FoldK=F
 IRaf=         0 NMat=   1 IRICut=       1 DoRegI=T DoRafI=F ISym2E= 0.
 FoFCou: FMM=F IPFlag=           0 FMFlag=      100000 FMFlg1=         800
         NFxFlg=           0 DoJE=F BraDBF=F KetDBF=F FulRan=T
         wScrn=  0.000000 ICntrl=    2127 IOpCl=  0 I1Cent=           0 NGrid=           0
         NMat0=    1 NMatS0=      1 NMatT0=    0 NMatD0=    1 NMtDS0=    0 NMtDT0=    0
 Symmetry not used in FoFCou.
 Leave Link  703 at Thu Sep  8 15:21:29 2022, MaxMem= 24159191040 cpu:        11.8
 (Enter /public/home/users/caep010/software/Gaussian09/g09/l716.exe)
 Dipole        = 4.93043662D-01 4.95377889D-01-2.76499992D-05
 ***** Axes restored to original set *****
 -------------------------------------------------------------------
 Center     Atomic                   Forces (Hartrees/Bohr)
 Number     Number              X              Y              Z
 -------------------------------------------------------------------
      1        6          -0.000064026   -0.000160924    0.000179132
      2        6           0.000069156   -0.000103317    0.000097124
      3        6          -0.000091841    0.000525741   -0.000527039
      4        8          -0.000286239   -0.000343663    0.000420333
      5        1           0.000067246    0.000136519   -0.000159947
      6        1           0.000128512    0.000103329   -0.000134528
      7        1          -0.000029708   -0.000087047    0.000098630
      8        1           0.000034386   -0.000139445    0.000104752
      9        1           0.000048227   -0.000112047    0.000139482
     10        1           0.000124287    0.000180854   -0.000217940
 -------------------------------------------------------------------
 Cartesian Forces:  Max     0.000527039 RMS     0.000208175
 Leave Link  716 at Thu Sep  8 15:21:29 2022, MaxMem= 24159191040 cpu:         0.5
 (Enter /public/home/users/caep010/software/Gaussian09/g09/l103.exe)

 GradGradGradGradGradGradGradGradGradGradGradGradGradGradGradGradGradGrad
 Berny optimization.
 Using GEDIIS/GDIIS optimizer.
 FormGI is forming the generalized inverse of G from B-inverse, IUseBI=4.
 Internal  Forces:  Max     0.000451306 RMS     0.000140956
 Search for a local minimum.
 Step number   2 out of a maximum of   45
 All quantities printed in internal units (Hartrees-Bohrs-Radians)
 RMS Force = .14096D-03 SwitMx=.10000D-02 MixMth= 2
 Mixed Optimization -- En-DIIS/RFO-DIIS
 Update second derivatives using D2CorX and points    1    2
 DE= -4.25D-05 DEPred=-4.22D-05 R= 1.01D+00
 TightC=F SS=  1.41D+00  RLast= 1.44D-02 DXNew= 5.0454D-01 4.3181D-02
 Trust test= 1.01D+00 RLast= 1.44D-02 DXMaxT set to 3.00D-01
 ITU=  1  0
 Use linear search instead of GDIIS.
     Eigenvalues ---    0.00776   0.01514   0.01746   0.03048   0.03049
     Eigenvalues ---    0.06270   0.07687   0.11623   0.14030   0.14880
     Eigenvalues ---    0.16000   0.16000   0.16130   0.21933   0.22130
     Eigenvalues ---    0.32719   0.33146   0.33276   0.35127   0.35510
     Eigenvalues ---    0.35964   0.42682   0.54289   0.62557
 RFO step:  Lambda=-4.01019112D-06 EMin= 7.75817768D-03
 Quartic linear search produced a step of  0.00511.
 Iteration  1 RMS(Cart)=  0.00129593 RMS(Int)=  0.00000100
 Iteration  2 RMS(Cart)=  0.00000109 RMS(Int)=  0.00000041
 Iteration  3 RMS(Cart)=  0.00000000 RMS(Int)=  0.00000041
 ITry= 1 IFail=0 DXMaxC= 3.58D-03 DCOld= 1.00D+10 DXMaxT= 3.00D-01 DXLimC= 3.00D+00 Rises=F
 Variable       Old X    -DE/DX   Delta X   Delta X   Delta X     New X
                                 (Linear)    (Quad)   (Total)
    R1        2.51523  -0.00019   0.00003  -0.00004  -0.00001   2.51523
    R2        2.05155  -0.00008   0.00001  -0.00013  -0.00012   2.05143
    R3        2.04947  -0.00008   0.00001  -0.00016  -0.00015   2.04933
    R4        2.83653  -0.00015   0.00002  -0.00032  -0.00031   2.83622
    R5        2.05938  -0.00009   0.00001  -0.00016  -0.00015   2.05922
    R6        2.67712   0.00016   0.00003   0.00064   0.00067   2.67778
    R7        2.08868  -0.00010   0.00000  -0.00028  -0.00027   2.08840
    R8        2.08869  -0.00011   0.00000  -0.00029  -0.00029   2.08840
    R9        1.82236   0.00017   0.00003   0.00059   0.00062   1.82299
    A1        2.11845  -0.00016  -0.00001  -0.00110  -0.00111   2.11734
    A2        2.11327  -0.00012  -0.00001  -0.00080  -0.00080   2.11247
    A3        2.05146   0.00028   0.00002   0.00190   0.00192   2.05337
    A4        2.18171  -0.00009  -0.00000  -0.00043  -0.00043   2.18128
    A5        2.10364  -0.00005  -0.00001  -0.00044  -0.00045   2.10319
    A6        1.99783   0.00013   0.00001   0.00087   0.00089   1.99872
    A7        1.92731  -0.00030   0.00001  -0.00158  -0.00158   1.92573
    A8        1.89664   0.00015  -0.00001   0.00088   0.00087   1.89751
    A9        1.89658   0.00016  -0.00001   0.00093   0.00092   1.89750
   A10        1.94542  -0.00001   0.00001  -0.00061  -0.00060   1.94481
   A11        1.94548  -0.00002   0.00001  -0.00067  -0.00066   1.94481
   A12        1.84989   0.00005  -0.00000   0.00124   0.00124   1.85113
   A13        1.88639  -0.00045  -0.00001  -0.00288  -0.00289   1.88351
    D1        3.14155   0.00000  -0.00000   0.00004   0.00004  -3.14159
    D2       -0.00002   0.00000  -0.00000   0.00001   0.00000  -0.00002
    D3       -0.00007   0.00000  -0.00000   0.00008   0.00008   0.00001
    D4        3.14155   0.00000  -0.00000   0.00004   0.00004   3.14159
    D5       -0.00004   0.00000  -0.00000   0.00002   0.00002  -0.00002
    D6       -2.13890   0.00011  -0.00001   0.00121   0.00121  -2.13769
    D7        2.13885  -0.00011   0.00001  -0.00121  -0.00121   2.13765
    D8        3.14153   0.00000  -0.00000   0.00006   0.00005   3.14159
    D9        1.00268   0.00011  -0.00001   0.00125   0.00124   1.00392
   D10       -1.00276  -0.00011   0.00001  -0.00118  -0.00117  -1.00393
   D11        3.14158   0.00000   0.00000   0.00000   0.00000   3.14158
   D12       -1.03158  -0.00002  -0.00000  -0.00037  -0.00038  -1.03196
   D13        1.03158   0.00002   0.00000   0.00035   0.00035   1.03193
         Item               Value     Threshold  Converged?
 Maximum Force            0.000451     0.000450     NO 
 RMS     Force            0.000141     0.000300     YES
 Maximum Displacement     0.003583     0.001800     NO 
 RMS     Displacement     0.001296     0.001200     NO 
 Predicted change in Energy=-2.006782D-06
 Lowest energy point so far.  Saving SCF results.
 GradGradGradGradGradGradGradGradGradGradGradGradGradGradGradGradGradGrad

 Leave Link  103 at Thu Sep  8 15:21:29 2022, MaxMem= 24159191040 cpu:         1.7
 (Enter /public/home/users/caep010/software/Gaussian09/g09/l202.exe)
                          Input orientation:                          
 ---------------------------------------------------------------------
 Center     Atomic      Atomic             Coordinates (Angstroms)
 Number     Number       Type             X           Y           Z
 ---------------------------------------------------------------------
      1          6           0       -1.329605   -0.395329    0.733353
      2          6           0       -0.722583    0.350362   -0.186989
      3          6           0        0.744846    0.306516   -0.498950
      4          8           0        1.395680   -0.643512    0.326769
      5          1           0       -2.397663   -0.314836    0.910085
      6          1           0       -0.772298   -1.105922    1.333780
      7          1           0       -1.291073    1.061726   -0.785500
      8          1           0        1.167233    1.318339   -0.360641
      9          1           0        0.872723    0.065555   -1.569888
     10          1           0        2.332840   -0.643000    0.097980
 ---------------------------------------------------------------------
                    Distance matrix (angstroms):
                    1          2          3          4          5
     1  C    0.000000
     2  C    1.331000   0.000000
     3  C    2.512868   1.500863   0.000000
     4  O    2.766602   2.395573   1.417022   0.000000
     5  H    1.085569   2.109965   3.499546   3.851978   0.000000
     6  H    1.084457   2.106176   2.766878   2.434754   1.856649
     7  H    2.105091   1.089695   2.190301   3.370997   2.448361
     8  H    3.219888   2.130384   1.105136   2.091310   4.121952
     9  H    3.219873   2.130382   1.105135   2.091308   4.121940
    10  H    3.725392   3.225459   1.944127   0.964683   4.810911
                    6          7          8          9         10
     6  H    0.000000
     7  H    3.075577   0.000000
     8  H    3.536932   2.507913   0.000000
     9  H    3.536912   2.507915   1.765922   0.000000
    10  H    3.373927   4.101143   2.327192   2.327182   0.000000
 Stoichiometry    C3H6O
 Framework group  C1[X(C3H6O)]
 Deg. of freedom    24
 Full point group                 C1      NOp   1
 RotChk:  IX=2 Diff= 3.99D-05
 Largest Abelian subgroup         C1      NOp   1
 Largest concise Abelian subgroup C1      NOp   1
                         Standard orientation:                         
 ---------------------------------------------------------------------
 Center     Atomic      Atomic             Coordinates (Angstroms)
 Number     Number       Type             X           Y           Z
 ---------------------------------------------------------------------
      1          6           0       -1.510588   -0.529581   -0.000003
      2          6           0       -0.781508    0.583973    0.000005
      3          6           0        0.718644    0.630173   -0.000003
      4          8           0        1.251771   -0.682735    0.000005
      5          1           0       -2.595561   -0.493599    0.000003
      6          1           0       -1.039449   -1.506348   -0.000008
      7          1           0       -1.264017    1.561020    0.000003
      8          1           0        1.055849    1.202895    0.882950
      9          1           0        1.055838    1.202876   -0.882972
     10          1           0        2.213883   -0.612361   -0.000012
 ---------------------------------------------------------------------
 Rotational constants (GHZ):     17.1738892      5.9958454      4.5705674
 Leave Link  202 at Thu Sep  8 15:21:29 2022, MaxMem= 24159191040 cpu:         0.2
 (Enter /public/home/users/caep010/software/Gaussian09/g09/l301.exe)
 Standard basis: 6-31G(d,p) (6D, 7F)
 Ernie: Thresh=  0.10000D-02 Tol=  0.10000D-05 Strict=F.
 There are    90 symmetry adapted cartesian basis functions of A   symmetry.
 There are    90 symmetry adapted basis functions of A   symmetry.
    90 basis functions,   154 primitive gaussians,    90 cartesian basis functions
    16 alpha electrons       16 beta electrons
       nuclear repulsion energy       118.5885246112 Hartrees.
 IExCor=  402 DFT=T Ex+Corr=B3LYP ExCW=0 ScaHFX=  0.200000
 ScaDFX=  0.800000  0.720000  1.000000  0.810000 ScalE2=  1.000000  1.000000
 IRadAn=      0 IRanWt=     -1 IRanGd=            0 ICorTp=0 IEmpDi=  4
 NAtoms=   10 NActive=   10 NUniq=   10 SFac= 1.00D+00 NAtFMM=   60 NAOKFM=F Big=F
 Integral buffers will be    131072 words long.
 Raffenetti 2 integral format.
 Two-electron integral symmetry is turned on.
 Leave Link  301 at Thu Sep  8 15:21:29 2022, MaxMem= 24159191040 cpu:         1.7
 (Enter /public/home/users/caep010/software/Gaussian09/g09/l302.exe)
 NPDir=0 NMtPBC=     1 NCelOv=     1 NCel=       1 NClECP=     1 NCelD=      1
         NCelK=      1 NCelE2=     1 NClLst=     1 CellRange=     0.0.
 One-electron integrals computed using PRISM.
 NBasis=    90 RedAO= T EigKep=  3.52D-03  NBF=    90
 NBsUse=    90 1.00D-06 EigRej= -1.00D+00 NBFU=    90
 Precomputing XC quadrature grid using
 IXCGrd= 4 IRadAn=           0 IRanWt=          -1 IRanGd=           0 AccXCQ= 0.00D+00.
 Generated NRdTot=       0 NPtTot=           0 NUsed=           0 NTot=          32
 NSgBfM=    90    90    90    90    90 MxSgAt=    10 MxSgA2=    10.
 Leave Link  302 at Thu Sep  8 15:21:30 2022, MaxMem= 24159191040 cpu:        10.2
 (Enter /public/home/users/caep010/software/Gaussian09/g09/l303.exe)
 DipDrv:  MaxL=1.
 Leave Link  303 at Thu Sep  8 15:21:30 2022, MaxMem= 24159191040 cpu:         0.7
 (Enter /public/home/users/caep010/software/Gaussian09/g09/l401.exe)
 Initial guess from the checkpoint file:  "B3LYP6-31Gdp.Frag_686.chk"
 B after Tr=    -0.000000    0.000000    0.000000
         Rot=    1.000000    0.000001    0.000001    0.000087 Ang=   0.01 deg.
 Guess basis will be translated and rotated to current coordinates.
 JPrj=2 DoOrth=T DoCkMO=T.
 Leave Link  401 at Thu Sep  8 15:21:30 2022, MaxMem= 24159191040 cpu:         2.6
 (Enter /public/home/users/caep010/software/Gaussian09/g09/l502.exe)
 Closed shell SCF:
 Using DIIS extrapolation, IDIIS=  1040.
 Integral symmetry usage will be decided dynamically.
 Keep R1 ints in memory in canonical form, NReq=9343712.
 IVT=       46414 IEndB=       46414 NGot= 24159191040 MDV= 24150758067
 LenX= 24150758067 LenY= 24150749526
 Requested convergence on RMS density matrix=1.00D-08 within 128 cycles.
 Requested convergence on MAX density matrix=1.00D-06.
 Requested convergence on             energy=1.00D-06.
 No special actions if energy rises.
 FoFCou: FMM=F IPFlag=           0 FMFlag=           0 FMFlg1=           0
         NFxFlg=           0 DoJE=F BraDBF=F KetDBF=F FulRan=T
         wScrn=  0.000000 ICntrl=     600 IOpCl=  0 I1Cent=           0 NGrid=           0
         NMat0=    1 NMatS0=   4095 NMatT0=    0 NMatD0=    1 NMtDS0=    0 NMtDT0=    0
 Symmetry not used in FoFCou.

 Cycle   1  Pass 1  IDiag  1:
 E= -193.121614579096    
 DIIS: error= 9.86D-05 at cycle   1 NSaved=   1.
 NSaved= 1 IEnMin= 1 EnMin= -193.121614579096     IErMin= 1 ErrMin= 9.86D-05
 ErrMax= 9.86D-05  0.00D+00 EMaxC= 1.00D-01 BMatC= 8.74D-07 BMatP= 8.74D-07
 IDIUse=1 WtCom= 1.00D+00 WtEn= 0.00D+00
 Coeff-Com:  0.100D+01
 Coeff:      0.100D+01
 Gap=     1.950 Goal=   None    Shift=    0.000
 RMSDP=1.85D-05 MaxDP=3.48D-04              OVMax= 3.69D-04

 Cycle   2  Pass 1  IDiag  1:
 E= -193.121615936504     Delta-E=       -0.000001357408 Rises=F Damp=F
 DIIS: error= 2.33D-05 at cycle   2 NSaved=   2.
 NSaved= 2 IEnMin= 2 EnMin= -193.121615936504     IErMin= 2 ErrMin= 2.33D-05
 ErrMax= 2.33D-05  0.00D+00 EMaxC= 1.00D-01 BMatC= 7.58D-08 BMatP= 8.74D-07
 IDIUse=1 WtCom= 1.00D+00 WtEn= 0.00D+00
 Coeff-Com:  0.666D-01 0.933D+00
 Coeff:      0.666D-01 0.933D+00
 Gap=     0.275 Goal=   None    Shift=    0.000
 RMSDP=5.33D-06 MaxDP=1.16D-04 DE=-1.36D-06 OVMax= 1.42D-04

 Cycle   3  Pass 1  IDiag  1:
 E= -193.121615891478     Delta-E=        0.000000045026 Rises=F Damp=F
 DIIS: error= 3.22D-05 at cycle   3 NSaved=   3.
 NSaved= 3 IEnMin= 2 EnMin= -193.121615936504     IErMin= 2 ErrMin= 2.33D-05
 ErrMax= 3.22D-05  0.00D+00 EMaxC= 1.00D-01 BMatC= 1.38D-07 BMatP= 7.58D-08
 IDIUse=1 WtCom= 1.00D+00 WtEn= 0.00D+00
 Coeff-Com: -0.357D-01 0.594D+00 0.442D+00
 Coeff:     -0.357D-01 0.594D+00 0.442D+00
 Gap=     0.275 Goal=   None    Shift=    0.000
 RMSDP=3.24D-06 MaxDP=7.22D-05 DE= 4.50D-08 OVMax= 1.07D-04

 Cycle   4  Pass 1  IDiag  1:
 E= -193.121616000141     Delta-E=       -0.000000108663 Rises=F Damp=F
 DIIS: error= 3.98D-06 at cycle   4 NSaved=   4.
 NSaved= 4 IEnMin= 4 EnMin= -193.121616000141     IErMin= 4 ErrMin= 3.98D-06
 ErrMax= 3.98D-06  0.00D+00 EMaxC= 1.00D-01 BMatC= 1.81D-09 BMatP= 7.58D-08
 IDIUse=1 WtCom= 1.00D+00 WtEn= 0.00D+00
 Coeff-Com: -0.185D-01 0.255D+00 0.209D+00 0.554D+00
 Coeff:     -0.185D-01 0.255D+00 0.209D+00 0.554D+00
 Gap=     0.275 Goal=   None    Shift=    0.000
 RMSDP=5.16D-07 MaxDP=1.45D-05 DE=-1.09D-07 OVMax= 2.81D-05

 Cycle   5  Pass 1  IDiag  1:
 E= -193.121616001590     Delta-E=       -0.000000001449 Rises=F Damp=F
 DIIS: error= 1.81D-06 at cycle   5 NSaved=   5.
 NSaved= 5 IEnMin= 5 EnMin= -193.121616001590     IErMin= 5 ErrMin= 1.81D-06
 ErrMax= 1.81D-06  0.00D+00 EMaxC= 1.00D-01 BMatC= 3.45D-10 BMatP= 1.81D-09
 IDIUse=1 WtCom= 1.00D+00 WtEn= 0.00D+00
 Coeff-Com: -0.455D-02 0.487D-01 0.476D-01 0.324D+00 0.584D+00
 Coeff:     -0.455D-02 0.487D-01 0.476D-01 0.324D+00 0.584D+00
 Gap=     0.275 Goal=   None    Shift=    0.000
 RMSDP=1.94D-07 MaxDP=5.26D-06 DE=-1.45D-09 OVMax= 1.09D-05

 Cycle   6  Pass 1  IDiag  1:
 E= -193.121616001927     Delta-E=       -0.000000000337 Rises=F Damp=F
 DIIS: error= 3.37D-07 at cycle   6 NSaved=   6.
 NSaved= 6 IEnMin= 6 EnMin= -193.121616001927     IErMin= 6 ErrMin= 3.37D-07
 ErrMax= 3.37D-07  0.00D+00 EMaxC= 1.00D-01 BMatC= 1.60D-11 BMatP= 3.45D-10
 IDIUse=1 WtCom= 1.00D+00 WtEn= 0.00D+00
 Coeff-Com: -0.941D-03 0.653D-02 0.899D-02 0.113D+00 0.274D+00 0.599D+00
 Coeff:     -0.941D-03 0.653D-02 0.899D-02 0.113D+00 0.274D+00 0.599D+00
 Gap=     0.275 Goal=   None    Shift=    0.000
 RMSDP=4.86D-08 MaxDP=8.40D-07 DE=-3.37D-10 OVMax= 1.54D-06

 Cycle   7  Pass 1  IDiag  1:
 E= -193.121616001940     Delta-E=       -0.000000000013 Rises=F Damp=F
 DIIS: error= 1.22D-07 at cycle   7 NSaved=   7.
 NSaved= 7 IEnMin= 7 EnMin= -193.121616001940     IErMin= 7 ErrMin= 1.22D-07
 ErrMax= 1.22D-07  0.00D+00 EMaxC= 1.00D-01 BMatC= 1.27D-12 BMatP= 1.60D-11
 IDIUse=1 WtCom= 1.00D+00 WtEn= 0.00D+00
 Coeff-Com:  0.659D-04-0.250D-02-0.112D-02 0.181D-01 0.671D-01 0.269D+00
 Coeff-Com:  0.649D+00
 Coeff:      0.659D-04-0.250D-02-0.112D-02 0.181D-01 0.671D-01 0.269D+00
 Coeff:      0.649D+00
 Gap=     0.275 Goal=   None    Shift=    0.000
 RMSDP=1.24D-08 MaxDP=2.46D-07 DE=-1.28D-11 OVMax= 2.69D-07

 Cycle   8  Pass 1  IDiag  1:
 E= -193.121616001943     Delta-E=       -0.000000000003 Rises=F Damp=F
 DIIS: error= 9.82D-09 at cycle   8 NSaved=   8.
 NSaved= 8 IEnMin= 8 EnMin= -193.121616001943     IErMin= 8 ErrMin= 9.82D-09
 ErrMax= 9.82D-09  0.00D+00 EMaxC= 1.00D-01 BMatC= 1.28D-14 BMatP= 1.27D-12
 IDIUse=1 WtCom= 1.00D+00 WtEn= 0.00D+00
 Coeff-Com:  0.484D-04-0.890D-03-0.631D-03-0.307D-04 0.529D-02 0.370D-01
 Coeff-Com:  0.148D+00 0.811D+00
 Coeff:      0.484D-04-0.890D-03-0.631D-03-0.307D-04 0.529D-02 0.370D-01
 Coeff:      0.148D+00 0.811D+00
 Gap=     0.275 Goal=   None    Shift=    0.000
 RMSDP=1.76D-09 MaxDP=2.05D-08 DE=-2.96D-12 OVMax= 3.36D-08

 SCF Done:  E(RB3LYP) =  -193.121616002     A.U. after    8 cycles
            NFock=  8  Conv=0.18D-08     -V/T= 2.0093
 KE= 1.913348347254D+02 PE=-6.874658940841D+02 EE= 1.844209187456D+02
 Leave Link  502 at Thu Sep  8 15:21:31 2022, MaxMem= 24159191040 cpu:        21.8
 (Enter /public/home/users/caep010/software/Gaussian09/g09/l701.exe)
 Compute integral first derivatives.
 ... and contract with generalized density number  0.
 Leave Link  701 at Thu Sep  8 15:21:31 2022, MaxMem= 24159191040 cpu:        11.5
 (Enter /public/home/users/caep010/software/Gaussian09/g09/l702.exe)
 L702 exits ... SP integral derivatives will be done elsewhere.
 Leave Link  702 at Thu Sep  8 15:21:31 2022, MaxMem= 24159191040 cpu:         0.5
 (Enter /public/home/users/caep010/software/Gaussian09/g09/l703.exe)
 Compute integral first derivatives, UseDBF=F ICtDFT=           0.
 Integral derivatives from FoFJK, PRISM(SPDF).
 Calling FoFJK, ICntrl=      2127 FMM=F ISym2X=0 I1Cent= 0 IOpClX= 0 NMat=1 NMatS=1 NMatT=0.
 FoFJK:  IHMeth= 1 ICntrl=    2127 DoSepK=F KAlg= 0 I1Cent=   0 FoldK=F
 IRaf=         0 NMat=   1 IRICut=       1 DoRegI=T DoRafI=F ISym2E= 0.
 FoFCou: FMM=F IPFlag=           0 FMFlag=      100000 FMFlg1=         800
         NFxFlg=           0 DoJE=F BraDBF=F KetDBF=F FulRan=T
         wScrn=  0.000000 ICntrl=    2127 IOpCl=  0 I1Cent=           0 NGrid=           0
         NMat0=    1 NMatS0=      1 NMatT0=    0 NMatD0=    1 NMtDS0=    0 NMtDT0=    0
 Symmetry not used in FoFCou.
 Leave Link  703 at Thu Sep  8 15:21:32 2022, MaxMem= 24159191040 cpu:         8.3
 (Enter /public/home/users/caep010/software/Gaussian09/g09/l716.exe)
 Dipole        = 4.93122991D-01 4.96448896D-01-1.68593247D-05
 ***** Axes restored to original set *****
 -------------------------------------------------------------------
 Center     Atomic                   Forces (Hartrees/Bohr)
 Number     Number              X              Y              Z
 -------------------------------------------------------------------
      1        6           0.000002233   -0.000040205    0.000042081
      2        6          -0.000050362    0.000005746    0.000004846
      3        6          -0.000215478    0.000224558   -0.000179511
      4        8           0.000289273   -0.000131117    0.000065539
      5        1           0.000049203    0.000033967   -0.000047534
      6        1           0.000015097    0.000046939   -0.000052257
      7        1          -0.000020609   -0.000036938    0.000043939
      8        1           0.000008401   -0.000062949    0.000025626
      9        1           0.000017039   -0.000026397    0.000060069
     10        1          -0.000094798   -0.000013604    0.000037201
 -------------------------------------------------------------------
 Cartesian Forces:  Max     0.000289273 RMS     0.000095706
 Leave Link  716 at Thu Sep  8 15:21:32 2022, MaxMem= 24159191040 cpu:         0.6
 (Enter /public/home/users/caep010/software/Gaussian09/g09/l103.exe)

 GradGradGradGradGradGradGradGradGradGradGradGradGradGradGradGradGradGrad
 Berny optimization.
 Using GEDIIS/GDIIS optimizer.
 FormGI is forming the generalized inverse of G from B-inverse, IUseBI=4.
 Internal  Forces:  Max     0.000257651 RMS     0.000061973
 Search for a local minimum.
 Step number   3 out of a maximum of   45
 All quantities printed in internal units (Hartrees-Bohrs-Radians)
 RMS Force = .61973D-04 SwitMx=.10000D-02 MixMth= 2
 Mixed Optimization -- En-DIIS/RFO-DIIS
 Swapping is turned off.
 Update second derivatives using D2CorX and points    1    2    3
 DE= -2.17D-06 DEPred=-2.01D-06 R= 1.08D+00
 TightC=F SS=  1.41D+00  RLast= 5.36D-03 DXNew= 5.0454D-01 1.6085D-02
 Trust test= 1.08D+00 RLast= 5.36D-03 DXMaxT set to 3.00D-01
 ITU=  1  1  0
     Eigenvalues ---    0.00776   0.01514   0.01745   0.03048   0.03049
     Eigenvalues ---    0.06283   0.07086   0.10787   0.13337   0.14024
     Eigenvalues ---    0.16000   0.16002   0.17141   0.21904   0.24333
     Eigenvalues ---    0.32790   0.32982   0.33148   0.35073   0.35500
     Eigenvalues ---    0.35638   0.42465   0.56828   0.62763
 En-DIIS/RFO-DIIS IScMMF=        0 using points:     3    2
 RFO step:  Lambda=-2.47799691D-07.
 NNeg= 0 NP= 2 Switch=  2.50D-03 Rises=F DC=  2.17D-06 SmlDif=  1.00D-05
 RMS Error=  0.1225127709D-03 NUsed= 2 EDIIS=F
 DidBck=F Rises=F RFO-DIIS coefs:    1.09188   -0.09188
 Iteration  1 RMS(Cart)=  0.00036479 RMS(Int)=  0.00000011
 Iteration  2 RMS(Cart)=  0.00000009 RMS(Int)=  0.00000007
 ITry= 1 IFail=0 DXMaxC= 1.15D-03 DCOld= 1.00D+10 DXMaxT= 3.00D-01 DXLimC= 3.00D+00 Rises=F
 Variable       Old X    -DE/DX   Delta X   Delta X   Delta X     New X
                                 (Linear)    (Quad)   (Total)
    R1        2.51523  -0.00010  -0.00000  -0.00012  -0.00012   2.51510
    R2        2.05143  -0.00005  -0.00001  -0.00014  -0.00015   2.05128
    R3        2.04933  -0.00006  -0.00001  -0.00017  -0.00018   2.04915
    R4        2.83622   0.00001  -0.00003   0.00004   0.00001   2.83623
    R5        2.05922  -0.00004  -0.00001  -0.00009  -0.00011   2.05912
    R6        2.67778   0.00026   0.00006   0.00073   0.00079   2.67857
    R7        2.08840  -0.00005  -0.00003  -0.00017  -0.00020   2.08821
    R8        2.08840  -0.00005  -0.00003  -0.00017  -0.00020   2.08820
    R9        1.82299  -0.00010   0.00006  -0.00012  -0.00007   1.82292
    A1        2.11734  -0.00006  -0.00010  -0.00045  -0.00055   2.11679
    A2        2.11247  -0.00002  -0.00007  -0.00016  -0.00023   2.11224
    A3        2.05337   0.00008   0.00018   0.00060   0.00078   2.05415
    A4        2.18128  -0.00001  -0.00004  -0.00008  -0.00012   2.18116
    A5        2.10319  -0.00004  -0.00004  -0.00029  -0.00033   2.10286
    A6        1.99872   0.00005   0.00008   0.00037   0.00045   1.99917
    A7        1.92573   0.00009  -0.00014   0.00036   0.00021   1.92594
    A8        1.89751   0.00001   0.00008   0.00021   0.00029   1.89779
    A9        1.89750   0.00001   0.00008   0.00021   0.00030   1.89780
   A10        1.94481  -0.00006  -0.00006  -0.00050  -0.00056   1.94426
   A11        1.94481  -0.00006  -0.00006  -0.00050  -0.00056   1.94425
   A12        1.85113   0.00002   0.00011   0.00024   0.00036   1.85149
   A13        1.88351   0.00005  -0.00027   0.00025  -0.00001   1.88349
    D1       -3.14159   0.00000   0.00000  -0.00000   0.00000  -3.14159
    D2       -0.00002   0.00000   0.00000   0.00001   0.00001  -0.00000
    D3        0.00001  -0.00000   0.00001  -0.00001  -0.00000   0.00001
    D4        3.14159   0.00000   0.00000   0.00001   0.00001  -3.14159
    D5       -0.00002   0.00000   0.00000   0.00001   0.00001  -0.00001
    D6       -2.13769   0.00002   0.00011   0.00027   0.00038  -2.13731
    D7        2.13765  -0.00002  -0.00011  -0.00024  -0.00036   2.13729
    D8        3.14159  -0.00000   0.00001  -0.00001  -0.00000   3.14159
    D9        1.00392   0.00002   0.00011   0.00025   0.00037   1.00429
   D10       -1.00393  -0.00002  -0.00011  -0.00026  -0.00037  -1.00430
   D11        3.14158   0.00000   0.00000   0.00000   0.00000   3.14158
   D12       -1.03196   0.00003  -0.00003   0.00017   0.00014  -1.03182
   D13        1.03193  -0.00003   0.00003  -0.00017  -0.00014   1.03179
         Item               Value     Threshold  Converged?
 Maximum Force            0.000258     0.000450     YES
 RMS     Force            0.000062     0.000300     YES
 Maximum Displacement     0.001149     0.001800     YES
 RMS     Displacement     0.000365     0.001200     YES
 Predicted change in Energy=-2.626587D-07
 Optimization completed.
    -- Stationary point found.
                           ----------------------------
                           !   Optimized Parameters   !
                           ! (Angstroms and Degrees)  !
 --------------------------                            --------------------------
 ! Name  Definition              Value          Derivative Info.                !
 --------------------------------------------------------------------------------
 ! R1    R(1,2)                  1.331          -DE/DX =   -0.0001              !
 ! R2    R(1,5)                  1.0856         -DE/DX =   -0.0001              !
 ! R3    R(1,6)                  1.0845         -DE/DX =   -0.0001              !
 ! R4    R(2,3)                  1.5009         -DE/DX =    0.0                 !
 ! R5    R(2,7)                  1.0897         -DE/DX =    0.0                 !
 ! R6    R(3,4)                  1.417          -DE/DX =    0.0003              !
 ! R7    R(3,8)                  1.1051         -DE/DX =   -0.0001              !
 ! R8    R(3,9)                  1.1051         -DE/DX =   -0.0001              !
 ! R9    R(4,10)                 0.9647         -DE/DX =   -0.0001              !
 ! A1    A(2,1,5)              121.3147         -DE/DX =   -0.0001              !
 ! A2    A(2,1,6)              121.0358         -DE/DX =    0.0                 !
 ! A3    A(5,1,6)              117.6496         -DE/DX =    0.0001              !
 ! A4    A(1,2,3)              124.9781         -DE/DX =    0.0                 !
 ! A5    A(1,2,7)              120.5037         -DE/DX =    0.0                 !
 ! A6    A(3,2,7)              114.5182         -DE/DX =    0.0                 !
 ! A7    A(2,3,4)              110.3364         -DE/DX =    0.0001              !
 ! A8    A(2,3,8)              108.7191         -DE/DX =    0.0                 !
 ! A9    A(2,3,9)              108.719          -DE/DX =    0.0                 !
 ! A10   A(4,3,8)              111.4296         -DE/DX =   -0.0001              !
 ! A11   A(4,3,9)              111.4295         -DE/DX =   -0.0001              !
 ! A12   A(8,3,9)              106.0622         -DE/DX =    0.0                 !
 ! A13   A(3,4,10)             107.9169         -DE/DX =    0.0001              !
 ! D1    D(5,1,2,3)           -180.0            -DE/DX =    0.0                 !
 ! D2    D(5,1,2,7)             -0.0009         -DE/DX =    0.0                 !
 ! D3    D(6,1,2,3)              0.0005         -DE/DX =    0.0                 !
 ! D4    D(6,1,2,7)           -180.0004         -DE/DX =    0.0                 !
[...]
               16            17            18            19            20 
     16  0.191343D+00
     17 -0.486692D-01  0.753471D-01
     18 -0.486686D-01  0.632442D-04  0.753466D-01
     19 -0.632316D-01 -0.249031D-01  0.202120D-01  0.733689D-01
     20 -0.632312D-01  0.202120D-01 -0.249031D-01  0.554288D-02  0.733686D-01
     21  0.242768D-01 -0.183069D-01 -0.183069D-01 -0.100189D-01 -0.100189D-01
     22  0.201910D-01 -0.506834D-02 -0.506828D-02 -0.679096D-02 -0.679102D-02
     23  0.000000D+00 -0.445502D-02  0.445510D-02  0.177832D-02 -0.177825D-02
     24  0.000000D+00 -0.200856D-02  0.200856D-02  0.660081D-03 -0.660101D-03
     25  0.000000D+00 -0.259016D-02  0.259026D-02  0.134493D-02 -0.134488D-02
     26  0.000000D+00 -0.143707D-03  0.143711D-03  0.226695D-03 -0.226731D-03
     27  0.000000D+00 -0.100769D-02  0.100777D-02  0.181778D-01 -0.181779D-01
     28 -0.115542D-01  0.116110D-01  0.688391D-02 -0.163560D-01  0.201205D-02
     29  0.115541D-01 -0.688393D-02 -0.116109D-01 -0.201205D-02  0.163561D-01
     30  0.000000D+00 -0.332451D-02  0.332455D-02  0.192368D-01 -0.192368D-01
     31 -0.115541D-01  0.929421D-02  0.920070D-02 -0.152971D-01  0.953126D-03
     32  0.115541D-01 -0.920075D-02 -0.929414D-02 -0.953149D-03  0.152971D-01
     33  0.000000D+00 -0.216283D-01  0.216282D-01  0.349684D-02 -0.349688D-02
     34  0.262283D-01  0.239887D-01  0.213887D-02 -0.220137D-01 -0.171768D-01
     35 -0.262282D-01 -0.213878D-02 -0.239888D-01  0.171768D-01  0.220136D-01
               21            22            23            24            25 
     21  0.316409D-01
     22  0.267589D-02  0.178639D+00
     23  0.000000D+00  0.000000D+00  0.216784D-01
     24  0.000000D+00  0.000000D+00  0.159693D-01  0.184730D-01
     25  0.000000D+00  0.000000D+00  0.937592D-03 -0.198626D-02  0.197981D-01
     26  0.000000D+00  0.000000D+00 -0.477148D-02  0.517432D-03  0.168743D-01
     27  0.000000D+00  0.000000D+00 -0.300855D-02  0.906743D-03 -0.791295D-03
     28  0.896180D-02 -0.111592D-02 -0.229982D-02  0.140227D-02 -0.765654D-03
     29 -0.896182D-02  0.111586D-02 -0.229984D-02  0.140227D-02 -0.765682D-03
     30  0.000000D+00  0.000000D+00  0.239787D-02 -0.146422D-02  0.197755D-02
     31  0.896180D-02 -0.111591D-02  0.310661D-02 -0.968693D-03  0.200319D-02
     32 -0.896183D-02  0.111586D-02  0.310658D-02 -0.968689D-03  0.200317D-02
     33  0.000000D+00  0.000000D+00  0.272741D-02  0.134079D-02  0.135522D-02
     34 -0.133403D-01  0.277375D-02 -0.171957D-02 -0.758521D-03 -0.102301D-02
     35  0.133403D-01 -0.277369D-02 -0.171956D-02 -0.758540D-03 -0.102301D-02
               26            27            28            29            30 
     26  0.221632D-01
     27  0.312399D-02  0.174233D-01
     28  0.293643D-02 -0.450342D-02  0.155809D-01
     29  0.293643D-02 -0.450348D-02 -0.486109D-02  0.155809D-01
     30 -0.188454D-02  0.137155D-01 -0.800926D-02 -0.800931D-02  0.173729D-01
     31 -0.207210D-02 -0.821114D-02  0.120750D-01 -0.836692D-02 -0.435191D-02
     32 -0.207210D-02 -0.821121D-02 -0.836693D-02  0.120750D-01 -0.435196D-02
     33 -0.313991D-04 -0.774077D-02  0.208196D-02  0.208199D-02 -0.642766D-02
     34 -0.619648D-04  0.310047D-02 -0.198410D-02 -0.117953D-03  0.219039D-02
     35 -0.619926D-04  0.310046D-02 -0.117920D-03 -0.198407D-02  0.219036D-02
               31            32            33            34            35 
     31  0.159343D-01
     32 -0.450768D-02  0.159343D-01
     33  0.339507D-02  0.339511D-02  0.174233D-01
     34 -0.289417D-02 -0.102803D-02 -0.758895D-02  0.258722D-01
     35 -0.102801D-02 -0.289416D-02 -0.758900D-02 -0.166507D-01  0.258721D-01
 Leave Link  716 at Thu Sep  8 15:21:39 2022, MaxMem= 24159191040 cpu:         1.3
 (Enter /public/home/users/caep010/software/Gaussian09/g09/l103.exe)

 GradGradGradGradGradGradGradGradGradGradGradGradGradGradGradGradGradGrad
 Berny optimization.
 Red2BG is reusing G-inverse.
 Internal  Forces:  Max     0.000257654 RMS     0.000061975
 Search for a local minimum.
 Step number   1 out of a maximum of    2
 All quantities printed in internal units (Hartrees-Bohrs-Radians)
 Second derivative matrix not updated -- analytic derivatives used.
 ITU=  0
     Eigenvalues ---    0.00128   0.00378   0.01808   0.03324   0.04039
     Eigenvalues ---    0.06295   0.07415   0.10272   0.10448   0.11277
     Eigenvalues ---    0.13320   0.13687   0.16268   0.17117   0.24888
     Eigenvalues ---    0.30506   0.31261   0.33642   0.35312   0.36284
     Eigenvalues ---    0.37069   0.39950   0.53004   0.64667
 Angle between quadratic step and forces=  39.83 degrees.
 Linear search not attempted -- first point.
 Iteration  1 RMS(Cart)=  0.00032701 RMS(Int)=  0.00000010
 Iteration  2 RMS(Cart)=  0.00000010 RMS(Int)=  0.00000006
 ITry= 1 IFail=0 DXMaxC= 9.93D-04 DCOld= 1.00D+10 DXMaxT= 3.00D-01 DXLimC= 3.00D+00 Rises=F
 Variable       Old X    -DE/DX   Delta X   Delta X   Delta X     New X
                                 (Linear)    (Quad)   (Total)
    R1        2.51523  -0.00010   0.00000  -0.00010  -0.00010   2.51512
    R2        2.05143  -0.00005   0.00000  -0.00015  -0.00015   2.05128
    R3        2.04933  -0.00006   0.00000  -0.00018  -0.00018   2.04915
    R4        2.83622   0.00001   0.00000  -0.00011  -0.00011   2.83611
    R5        2.05922  -0.00004   0.00000  -0.00011  -0.00011   2.05912
    R6        2.67778   0.00026   0.00000   0.00092   0.00092   2.67871
    R7        2.08840  -0.00005   0.00000  -0.00023  -0.00023   2.08817
    R8        2.08840  -0.00005   0.00000  -0.00023  -0.00023   2.08817
    R9        1.82299  -0.00010   0.00000  -0.00020  -0.00020   1.82278
    A1        2.11734  -0.00006   0.00000  -0.00052  -0.00052   2.11682
    A2        2.11247  -0.00002   0.00000  -0.00018  -0.00018   2.11229
    A3        2.05337   0.00008   0.00000   0.00070   0.00070   2.05407
    A4        2.18128  -0.00001   0.00000  -0.00007  -0.00007   2.18120
    A5        2.10319  -0.00004   0.00000  -0.00027  -0.00027   2.10292
    A6        1.99872   0.00005   0.00000   0.00034   0.00034   1.99906
    A7        1.92573   0.00009   0.00000   0.00011   0.00011   1.92585
    A8        1.89751   0.00001   0.00000   0.00035   0.00035   1.89786
    A9        1.89750   0.00001   0.00000   0.00035   0.00035   1.89786
   A10        1.94481  -0.00006   0.00000  -0.00059  -0.00059   1.94422
   A11        1.94481  -0.00006   0.00000  -0.00059  -0.00059   1.94422
   A12        1.85113   0.00002   0.00000   0.00041   0.00041   1.85154
   A13        1.88351   0.00005   0.00000   0.00001   0.00001   1.88351
    D1       -3.14159   0.00000   0.00000  -0.00000  -0.00000  -3.14159
    D2       -0.00002   0.00000   0.00000   0.00002   0.00002   0.00000
    D3        0.00001  -0.00000   0.00000  -0.00001  -0.00001   0.00000
    D4        3.14159   0.00000   0.00000   0.00001   0.00001   3.14159
    D5       -0.00002   0.00000   0.00000   0.00002   0.00002  -0.00000
    D6       -2.13769   0.00002   0.00000   0.00045   0.00045  -2.13724
    D7        2.13765  -0.00002   0.00000  -0.00041  -0.00041   2.13724
    D8        3.14159  -0.00000   0.00000   0.00000   0.00000   3.14159
    D9        1.00392   0.00002   0.00000   0.00043   0.00043   1.00435
   D10       -1.00393  -0.00002   0.00000  -0.00042  -0.00042  -1.00435
   D11        3.14158   0.00000   0.00000   0.00001   0.00001   3.14159
   D12       -1.03196   0.00003   0.00000   0.00014   0.00014  -1.03181
   D13        1.03193  -0.00003   0.00000  -0.00012  -0.00012   1.03181
         Item               Value     Threshold  Converged?
 Maximum Force            0.000258     0.000450     YES
 RMS     Force            0.000062     0.000300     YES
 Maximum Displacement     0.000993     0.001800     YES
 RMS     Displacement     0.000327     0.001200     YES
 Predicted change in Energy=-2.802894D-07
 Optimization completed.
    -- Stationary point found.
                           ----------------------------
                           !   Optimized Parameters   !
                           ! (Angstroms and Degrees)  !
 --------------------------                            --------------------------
 ! Name  Definition              Value          Derivative Info.                !
 --------------------------------------------------------------------------------
 ! R1    R(1,2)                  1.331          -DE/DX =   -0.0001              !
 ! R2    R(1,5)                  1.0856         -DE/DX =   -0.0001              !
 ! R3    R(1,6)                  1.0845         -DE/DX =   -0.0001              !
 ! R4    R(2,3)                  1.5009         -DE/DX =    0.0                 !
 ! R5    R(2,7)                  1.0897         -DE/DX =    0.0                 !
 ! R6    R(3,4)                  1.417          -DE/DX =    0.0003              !
 ! R7    R(3,8)                  1.1051         -DE/DX =   -0.0001              !
 ! R8    R(3,9)                  1.1051         -DE/DX =   -0.0001              !
 ! R9    R(4,10)                 0.9647         -DE/DX =   -0.0001              !
 ! A1    A(2,1,5)              121.3147         -DE/DX =   -0.0001              !
 ! A2    A(2,1,6)              121.0358         -DE/DX =    0.0                 !
 ! A3    A(5,1,6)              117.6496         -DE/DX =    0.0001              !
 ! A4    A(1,2,3)              124.9781         -DE/DX =    0.0                 !
 ! A5    A(1,2,7)              120.5037         -DE/DX =    0.0                 !
 ! A6    A(3,2,7)              114.5182         -DE/DX =    0.0                 !
 ! A7    A(2,3,4)              110.3364         -DE/DX =    0.0001              !
 ! A8    A(2,3,8)              108.7191         -DE/DX =    0.0                 !
 ! A9    A(2,3,9)              108.719          -DE/DX =    0.0                 !
 ! A10   A(4,3,8)              111.4296         -DE/DX =   -0.0001              !
 ! A11   A(4,3,9)              111.4295         -DE/DX =   -0.0001              !
 ! A12   A(8,3,9)              106.0622         -DE/DX =    0.0                 !
 ! A13   A(3,4,10)             107.9169         -DE/DX =    0.0001              !
 ! D1    D(5,1,2,3)           -180.0            -DE/DX =    0.0                 !
 ! D2    D(5,1,2,7)             -0.0009         -DE/DX =    0.0                 !
 ! D3    D(6,1,2,3)              0.0005         -DE/DX =    0.0                 !
 ! D4    D(6,1,2,7)            179.9996         -DE/DX =    0.0                 !
 ! D5    D(1,2,3,4)             -0.0011         -DE/DX =    0.0                 !
 ! D6    D(1,2,3,8)           -122.4806         -DE/DX =    0.0                 !
 ! D7    D(1,2,3,9)            122.4781         -DE/DX =    0.0                 !
 ! D8    D(7,2,3,4)            179.9997         -DE/DX =    0.0                 !
 ! D9    D(7,2,3,8)             57.5203         -DE/DX =    0.0                 !
 ! D10   D(7,2,3,9)            -57.521          -DE/DX =    0.0                 !
 ! D11   D(2,3,4,10)           179.9993         -DE/DX =    0.0                 !
 ! D12   D(8,3,4,10)           -59.1267         -DE/DX =    0.0                 !
 ! D13   D(9,3,4,10)            59.1254         -DE/DX =    0.0                 !
 --------------------------------------------------------------------------------
 GradGradGradGradGradGradGradGradGradGradGradGradGradGradGradGradGradGrad

 Leave Link  103 at Thu Sep  8 15:21:39 2022, MaxMem= 24159191040 cpu:         1.7
 (Enter /public/home/users/caep010/software/Gaussian09/g09/l9999.exe)
 1\1\GINC-B1531\Freq\RB3LYP\6-31G(d,p)\C3H6O1\ROOT\08-Sep-2022\0\\#P Ge
 om=AllCheck Guess=TCheck SCRF=Check GenChk RB3LYP/6-31G(d,p) Freq\\Fra
 g_686\\0,1\C,-1.3296048983,-0.3953292893,0.733353256\C,-0.7225826614,0
 .3503624947,-0.1869886917\C,0.7448459299,0.3065163762,-0.4989502947\O,
 1.3956803803,-0.6435119384,0.3267691437\H,-2.3976628133,-0.3148362407,
 0.9100846354\H,-0.7722981467,-1.1059222629,1.3337804757\H,-1.291073233
 9,1.0617257187,-0.7854997006\H,1.1672331626,1.3183388301,-0.3606406697
 \H,0.872723334,0.0655551184,-1.5698880157\H,2.3328399468,-0.6429998068
 ,0.0979798615\\Version=ES64L-G09RevE.01\State=1-A\HF=-193.121616\RMSD=
 6.125e-10\RMSF=9.571e-05\ZeroPoint=0.0848954\Thermal=0.0899191\Dipole=
 0.4355404,0.3238819,-0.4416297\DipoleDeriv=0.0035246,-0.0929526,0.0287
 969,-0.0919286,-0.1497802,-0.1059189,0.0277331,-0.1056709,-0.1709164,0
 .1577207,0.0148935,-0.1006022,-0.0511979,-0.0386349,-0.1464177,-0.0321
 37,-0.1625198,-0.0158093,0.4646393,-0.1475531,0.163853,-0.2219518,0.59
 13857,-0.030522,0.2409352,-0.0486377,0.5014561,-0.5209114,0.1954006,-0
 .2031443,0.2530258,-0.6455838,0.0645385,-0.262844,0.0785731,-0.5411897
 ,-0.111046,0.0117828,0.0468006,0.0260982,0.0892454,0.0371514,0.0319715
 ,0.0406389,0.0813554,0.0517673,0.0492876,-0.0302413,0.0409065,0.053099
 8,0.0772168,-0.021557,0.0751764,0.0646219,-0.0259723,0.0565502,-0.0248
 469,0.0625146,0.0019808,0.0993283,-0.0310271,0.1007831,0.0157035,-0.09
 75952,-0.0880375,0.0203552,-0.0441514,-0.212997,-0.0002619,-0.051949,-
 0.0120623,0.0130138,-0.0626011,0.0008741,0.0461028,0.0657022,-0.000735
 5,-0.050938,0.0057808,-0.0126605,-0.2342414,0.140474,-0.0002456,0.0529
 264,-0.0390176,0.3120198,0.0558234,0.0930934,0.0463798,0.2860061\Polar
 =42.1449852,1.5213888,30.3650637,-6.7370301,-10.1203218,33.07882\PG=C0
 1 [X(C3H6O1)]\NImag=0\\0.68423826,-0.00879281,0.44345271,-0.13218225,-
 0.34943372,0.49827751,-0.20451763,-0.10637564,0.14845656,0.59645511,-0
 .11050365,-0.22675981,0.21268346,0.00897261,0.47603828,0.15273304,0.21
 167827,-0.30392523,-0.11983950,-0.34767526,0.53191241,-0.01748481,-0.0
 0573451,0.01177159,-0.20999110,-0.00217101,0.03515918,0.51520422,-0.01
 999683,0.00666444,0.00465465,0.00829073,-0.08229479,0.00568114,0.01714
 399,0.52789532,0.02654653,0.00118102,-0.00123261,0.02432121,0.00822940
 ,-0.08931023,-0.01140233,0.00972851,0.53401532,0.00102059,-0.00037071,
 0.00021304,-0.02664378,0.03450902,-0.02820197,-0.11885829,0.05923115,-
 0.04805205,0.63439572,-0.00047926,0.00016863,0.00027205,0.00760322,-0.
 00180471,0.00452814,0.02898624,-0.14614185,0.07783023,-0.07710763,0.19
 453258,0.00032558,0.00024564,-0.00001511,-0.00032749,-0.00202485,0.006
 53094,-0.01671774,0.07046333,-0.13313135,-0.06387058,-0.13698431,0.201
 65545,-0.33304271,0.02607834,0.04604941,-0.01070805,0.00297231,0.00017
 327,0.00171745,0.00067942,0.00218699,0.00016173,-0.00025529,0.00016111
 ,0.35127480,0.02916994,-0.04728266,0.00765934,-0.02024585,0.00394683,0
 .00358372,0.00166733,0.00451012,0.00899790,0.00064729,0.00029870,-0.00
 073922,-0.02675230,0.04013963,0.04284707,0.00841240,-0.05218188,0.0242
 2609,-0.00207102,-0.00110800,0.00116359,0.00923858,0.00373344,-0.00077
 387,-0.00051939,0.00046386,-0.05211339,-0.01072465,0.04730044,-0.13564
 970,0.10274267,-0.08209561,0.01343130,-0.00943873,0.00786466,-0.000153
 34,-0.00139782,-0.00034500,-0.00241058,-0.00049484,0.00095824,-0.00967
 307,0.01734616,-0.01518683,0.13494436,0.09921756,-0.16895354,0.1138876
 1,0.00986717,-0.00760718,0.01125228,0.00105300,-0.00436552,-0.00352038
 ,0.00045177,0.00019963,-0.00091851,-0.00112895,0.00163538,0.00039942,-
 0.10895921,0.17374494,-0.07844374,0.11302937,-0.13368666,-0.01213562,0
 .01595376,-0.00799832,-0.00288402,-0.00292351,-0.00378509,-0.00002246,
 -0.00068802,0.00013745,0.00395292,-0.00410008,0.00504036,0.08600804,-0
 .12796222,0.13622995,0.01137189,-0.01108437,0.01007020,-0.13498495,0.0
 9687261,-0.07670870,-0.00902651,0.02022704,-0.01851873,-0.00695206,-0.
 00050998,0.00241291,0.00095306,-0.00101120,-0.00116159,-0.00067440,-0.
 00049120,0.00361403,0.13876264,0.01138562,-0.00784172,0.01112183,0.095
 54485,-0.16177762,0.10508933,-0.00121610,0.00018435,0.00111689,-0.0001
 8013,0.00094977,-0.00012613,-0.00127155,-0.00341787,-0.00455982,-0.000
 63733,0.00501601,0.00746933,-0.10446848,0.16601416,-0.01320808,0.01659
 380,-0.00840369,-0.07533336,0.10476643,-0.12806708,0.00369606,-0.00410
 548,0.00432967,0.00207108,-0.00004577,0.00032869,-0.00089197,-0.004623
 15,-0.00311152,0.00376551,0.00743366,0.00345803,0.08062438,-0.12020958
 ,0.13032079,-0.00331947,0.00190963,-0.00103500,-0.01549996,-0.03103544
 ,-0.00214338,-0.08913534,-0.08789881,-0.01689298,0.00658998,0.02257025
 ,-0.00237374,0.00010005,0.00146452,0.00246223,-0.00021478,-0.00096592,
 -0.00083259,0.00064025,0.00104817,-0.00003288,0.09518056,0.00064530,0.
 00093460,-0.00106935,-0.00273533,0.00249467,0.00053022,-0.08264399,-0.
 23376556,-0.03583354,0.00321462,-0.02924964,0.01047359,-0.00011599,-0.
 00010257,-0.00008722,0.00034374,-0.00012260,-0.00033378,-0.00104914,0.
 00031054,0.00023644,0.08922796,0.26718089,0.00049422,-0.00046552,0.000
 29653,0.00697366,0.00854737,0.00194205,-0.01842060,-0.03746084,-0.0574
 1780,0.00438073,0.02898965,0.00053279,0.00004391,-0.00048493,-0.000639
 59,-0.00020742,0.00045040,0.00050035,-0.00025396,-0.00030066,0.0001033
 6,0.01858269,0.03055783,0.06009800,-0.00342969,0.00156317,-0.00091322,
 -0.00658748,0.00641553,0.03434437,-0.05381257,0.00894112,0.03274417,0.
 00020515,0.00350662,-0.02232070,-0.00082271,-0.00245754,-0.00134568,0.
 00019734,0.00086073,0.00096109,0.00065237,-0.00011453,-0.00117200,0.00
 391732,-0.00612203,-0.01282869,0.05838893,0.00029391,-0.00003607,-0.00
 006546,-0.00237085,0.00208143,0.00156903,0.00972691,-0.06805126,-0.062
 35656,0.00237681,0.00162331,0.03369959,-0.00010056,-0.00002355,-0.0001
 0430,0.00035098,0.00022095,0.00012738,0.00010799,0.00006707,-0.0000700
 3,0.00325677,-0.00801006,-0.02892377,-0.01204978,0.07128177,0.00018229
 ,-0.00128632,0.00137758,0.00501137,-0.00169570,-0.00655730,0.02801338,
 -0.05925777,-0.25845632,-0.00785206,0.01019409,-0.02395565,0.00026831,
 0.00048254,0.00020418,-0.00049286,-0.00046202,-0.00025538,0.00099136,0
 .00001046,0.00033464,0.00182329,-0.00510640,-0.00580279,-0.02861397,0.
 05654639,0.29279040,0.00081328,0.00006423,-0.00033473,-0.00095346,0.00
 340673,-0.00338096,-0.01845970,-0.00521999,0.00941219,-0.48750845,0.01
 618066,0.10175240,0.00003946,0.00017164,-0.00011762,0.00020286,0.00009
 505,-0.00021764,-0.00074229,-0.00009051,0.00048126,0.00174138,-0.00076
 514,0.00123545,0.00129135,-0.00159216,0.00066891,0.50357557,-0.0009397
 7,-0.00034659,0.00028958,0.00144909,-0.00431710,0.00376312,0.03318815,
 -0.00463524,-0.00537347,-0.02277219,-0.02057641,0.02591087,-0.00010545
 ,0.00029599,0.00001600,0.00014438,0.00023192,-0.00057223,0.00140675,0.
 00049530,0.00002369,0.00042287,0.00032974,-0.00090953,-0.00054330,0.00
 084641,0.00057473,-0.01225052,0.02767597,0.00070535,0.00004506,-0.0005
 0645,-0.00135291,0.00328641,-0.00341925,-0.03037912,0.00398139,0.00125
 498,0.14210814,0.01642333,-0.05254707,0.00016945,-0.00005148,0.0002987
 2,-0.00026874,-0.00056023,0.00035931,-0.00106990,0.00038834,0.00070711
 ,0.00044236,0.00063223,0.00038710,-0.00085536,-0.00042228,0.00032064,-
 0.10949926,-0.02372276,0.05314492\\-0.00000224,0.00004019,-0.00004207,
 0.00005037,-0.00000574,-0.00000486,0.00021549,-0.00022456,0.00017951,-
 0.00028928,0.00013112,-0.00006554,-0.00004921,-0.00003397,0.00004753,-
 0.00001509,-0.00004694,0.00005226,0.00002061,0.00003694,-0.00004394,-0
 .00000840,0.00006295,-0.00002563,-0.00001704,0.00002640,-0.00006007,0.
 00009480,0.00001360,-0.00003720\\\@


 FROM WHENCE IT HAPPENS, THAT THEY WHICH TRUST TO BOOKS, DO AS THEY THAT CAST UP MANY LITTLE SUMMS INTO GREATER,
 WITHOUT CONSIDERING WETHER THOSE LITTLE SUMMES WERE RIGHTLY CAST UP OR NOT...
 AND AT LAST FINDING THE ERROUR VISIBLE, AND NOT MISTRUSTING THEIR FIRST GROUNDS,
 KNOW NOT WHICH WAY TO CLEERE THEMSELVES...
 BUT SPEND TIME IN FLUTTERING OVER THEIR BOOKES....
 AS BIRDS THAT ENTERING BY THE CHIMNEY, AND FINDING THEMSELVES INCLOSED IN A CHAMBER,
 FLUTTER AT THE FALSE LIGHT OF A GLASSE WINDOW,
 FOR WANT OF WIT TO CONSIDER WHICH WAY THEY CAME IN....
           LEVIATHAN
 Job cpu time:       0 days  0 hours  3 minutes 10.0 seconds.
 File lengths (MBytes):  RWF=     12 Int=      0 D2E=      0 Chk=      2 Scr=      1
 Normal termination of Gaussian 09 at Thu Sep  8 15:21:39 2022.
