 Entering Gaussian System, Link 0=g09
 Input=B3LYP6-31Gdp.Frag_453.gjf
 Output=B3LYP6-31Gdp.Frag_453.log
 Initial command:
 /public/home/users/caep010/software/Gaussian09/g09/l1.exe "/public/home/users/caep010/.cache/gau_scr/Gau-188528.inp" -scrdir="/public/home/users/caep010/.cache/gau_scr/"
 Entering Link 1 = /public/home/users/caep010/software/Gaussian09/g09/l1.exe PID=    188530.
  
 Copyright (c) 1988,1990,1992,1993,1995,1998,2003,2009,2015,
            Gaussian, Inc.  All Rights Reserved.
  
 This is part of the Gaussian(R) 09 program.  It is based on
 the Gaussian(R) 03 system (copyright 2003, Gaussian, Inc.),
 the Gaussian(R) 98 system (copyright 1998, Gaussian, Inc.),
 the Gaussian(R) 94 system (copyright 1995, Gaussian, Inc.),
 the Gaussian 92(TM) system (copyright 1992, Gaussian, Inc.),
 the Gaussian 90(TM) system (copyright 1990, Gaussian, Inc.),
 the Gaussian 88(TM) system (copyright 1988, Gaussian, Inc.),
 the Gaussian 86(TM) system (copyright 1986, Carnegie Mellon
 University), and the Gaussian 82(TM) system (copyright 1983,
 Carnegie Mellon University). Gaussian is a federally registered
 trademark of Gaussian, Inc.
  
 This software contains proprietary and confidential information,
 including trade secrets, belonging to Gaussian, Inc.
  
 This software is provided under written license and may be
 used, copied, transmitted, or stored only in accord with that
 written license.
  
 The following legend is applicable only to US Government
 contracts under FAR:
  
                    RESTRICTED RIGHTS LEGEND
  
 Use, reproduction and disclosure by the US Government is
 subject to restrictions as set forth in subparagraphs (a)
 and (c) of the Commercial Computer Software - Restricted
 Rights clause in FAR 52.227-19.
  
 Gaussian, Inc.
 340 Quinnipiac St., Bldg. 40, Wallingford CT 06492
  
  
 ---------------------------------------------------------------
 Warning -- This program may not be used in any manner that
 competes with the business of Gaussian, Inc. or will provide
 assistance to any competitor of Gaussian, Inc.  The licensee
 of this program is prohibited from giving any competitor of
 Gaussian, Inc. access to this program.  By using this program,
 the user acknowledges that Gaussian, Inc. is engaged in the
 business of creating and licensing software in the field of
 computational chemistry and represents and warrants to the
 licensee that it is not a competitor of Gaussian, Inc. and that
 it will not use this program in any manner prohibited above.
 ---------------------------------------------------------------
  

 Cite this work as:
 Gaussian 09, Revision E.01,
 M. J. Frisch, G. W. Trucks, H. B. Schlegel, G. E. Scuseria, 
 M. A. Robb, J. R. Cheeseman, G. Scalmani, V. Barone, B. Mennucci, 
 G. A. Petersson, H. Nakatsuji, M. Caricato, X. Li, H. P. Hratchian, 
 A. F. Izmaylov, J. Bloino, G. Zheng, J. L. Sonnenberg, M. Hada, 
 M. Ehara, K. Toyota, R. Fukuda, J. Hasegawa, M. Ishida, T. Nakajima, 
 Y. Honda, O. Kitao, H. Nakai, T. Vreven, J. A. Montgomery, Jr., 
 J. E. Peralta, F. Ogliaro, M. Bearpark, J. J. Heyd, E. Brothers, 
 K. N. Kudin, V. N. Staroverov, T. Keith, R. Kobayashi, J. Normand, 
 K. Raghavachari, A. Rendell, J. C. Burant, S. S. Iyengar, J. Tomasi, 
 M. Cossi, N. Rega, J. M. Millam, M. Klene, J. E. Knox, J. B. Cross, 
 V. Bakken, C. Adamo, J. Jaramillo, R. Gomperts, R. E. Stratmann, 
 O. Yazyev, A. J. Austin, R. Cammi, C. Pomelli, J. W. Ochterski, 
 R. L. Martin, K. Morokuma, V. G. Zakrzewski, G. A. Voth, 
 P. Salvador, J. J. Dannenberg, S. Dapprich, A. D. Daniels, 
 O. Farkas, J. B. Foresman, J. V. Ortiz, J. Cioslowski, 
 and D. J. Fox, Gaussian, Inc., Wallingford CT, 2013.
 
 ******************************************
 Gaussian 09:  ES64L-G09RevE.01 30-Nov-2015
                 8-Sep-2022 
 ******************************************
 %nproc=32
 Will use up to   32 processors via shared memory.
 %mem=180GB
 %chk=B3LYP6-31Gdp.Frag_453.chk
 ----------------------------
 #P OPT Freq B3LYP/6-31G(d,p)
 ----------------------------
 1/14=-1,18=20,19=15,26=3,38=1/1,3;
 2/9=110,12=2,17=6,18=5,40=1/2;
 3/5=1,6=6,7=101,11=2,16=1,25=1,30=1,71=1,74=-5/1,2,3;
 4//1;
 5/5=2,38=5/2;
 6/7=2,8=2,9=2,10=2,28=1/1;
 7//1,2,3,16;
 1/14=-1,18=20,19=15,26=3/3(2);
 2/9=110/2;
 99//99;
 2/9=110/2;
 3/5=1,6=6,7=101,11=2,16=1,25=1,30=1,71=1,74=-5/1,2,3;
 4/5=5,16=3,69=1/1;
 5/5=2,38=5/2;
 7//1,2,3,16;
 1/14=-1,18=20,19=15,26=3/3(-5);
 2/9=110/2;
 6/7=2,8=2,9=2,10=2,19=2,28=1/1;
 99/9=1/99;
 Leave Link    1 at Thu Sep  8 14:54:27 2022, MaxMem= 24159191040 cpu:         2.3
 (Enter /public/home/users/caep010/software/Gaussian09/g09/l101.exe)
 --------
 Frag_453
 --------
 Symbolic Z-matrix:
 Charge =  0 Multiplicity = 1
 C                     1.92892  -0.06154   0.87366 
 O                     0.55345  -0.33892   1.05931 
 C                    -0.29769  -0.12596  -0.06204 
 C                    -0.2475    1.3271   -0.55741 
 C                    -1.6931   -0.4721    0.4736 
 N                     0.13899  -1.00227  -1.15293 
 H                     2.44927  -0.48612   1.73632 
 H                     2.13385   1.01836   0.84545 
 H                     2.31106  -0.52023  -0.04447 
 H                    -1.03256   1.50755  -1.29884 
 H                     0.7148    1.55265  -1.02316 
 H                    -0.40588   2.01128   0.27999 
 H                    -1.97802   0.19897   1.28912 
 H                    -2.44054  -0.39597  -0.32174 
 H                    -1.69357  -1.49508   0.8621 
 H                    -0.11215  -1.96386  -0.94084 
 H                    -0.32934  -0.75385  -2.01821 
 
 NAtoms=     17 NQM=       17 NQMF=       0 NMMI=      0 NMMIF=      0
                NMic=       0 NMicF=      0.
                    Isotopes and Nuclear Properties:
 (Nuclear quadrupole moments (NQMom) in fm**2, nuclear magnetic moments (NMagM)
  in nuclear magnetons)

  Atom         1           2           3           4           5           6           7           8           9          10
 IAtWgt=          12          16          12          12          12          14           1           1           1           1
 AtmWgt=  12.0000000  15.9949146  12.0000000  12.0000000  12.0000000  14.0030740   1.0078250   1.0078250   1.0078250   1.0078250
 NucSpn=           0           0           0           0           0           2           1           1           1           1
 AtZEff=   0.0000000   0.0000000   0.0000000   0.0000000   0.0000000   0.0000000   0.0000000   0.0000000   0.0000000   0.0000000
 NQMom=    0.0000000   0.0000000   0.0000000   0.0000000   0.0000000   2.0440000   0.0000000   0.0000000   0.0000000   0.0000000
 NMagM=    0.0000000   0.0000000   0.0000000   0.0000000   0.0000000   0.4037610   2.7928460   2.7928460   2.7928460   2.7928460
 AtZNuc=   6.0000000   8.0000000   6.0000000   6.0000000   6.0000000   7.0000000   1.0000000   1.0000000   1.0000000   1.0000000

  Atom        11          12          13          14          15          16          17
 IAtWgt=           1           1           1           1           1           1           1
 AtmWgt=   1.0078250   1.0078250   1.0078250   1.0078250   1.0078250   1.0078250   1.0078250
 NucSpn=           1           1           1           1           1           1           1
 AtZEff=   0.0000000   0.0000000   0.0000000   0.0000000   0.0000000   0.0000000   0.0000000
 NQMom=    0.0000000   0.0000000   0.0000000   0.0000000   0.0000000   0.0000000   0.0000000
 NMagM=    2.7928460   2.7928460   2.7928460   2.7928460   2.7928460   2.7928460   2.7928460
 AtZNuc=   1.0000000   1.0000000   1.0000000   1.0000000   1.0000000   1.0000000   1.0000000
 Leave Link  101 at Thu Sep  8 14:54:28 2022, MaxMem= 24159191040 cpu:        10.2
 (Enter /public/home/users/caep010/software/Gaussian09/g09/l103.exe)

 GradGradGradGradGradGradGradGradGradGradGradGradGradGradGradGradGradGrad
 Berny optimization.
 Initialization pass.
                           ----------------------------
                           !    Initial Parameters    !
                           ! (Angstroms and Degrees)  !
 --------------------------                            --------------------------
 ! Name  Definition              Value          Derivative Info.                !
 --------------------------------------------------------------------------------
 ! R1    R(1,2)                  1.4154         estimate D2E/DX2                !
 ! R2    R(1,7)                  1.0933         estimate D2E/DX2                !
 ! R3    R(1,8)                  1.0995         estimate D2E/DX2                !
 ! R4    R(1,9)                  1.0952         estimate D2E/DX2                !
 ! R5    R(2,3)                  1.4238         estimate D2E/DX2                !
 ! R6    R(3,4)                  1.536          estimate D2E/DX2                !
 ! R7    R(3,5)                  1.5342         estimate D2E/DX2                !
 ! R8    R(3,6)                  1.4658         estimate D2E/DX2                !
 ! R9    R(4,10)                 1.0948         estimate D2E/DX2                !
 ! R10   R(4,11)                 1.0926         estimate D2E/DX2                !
 ! R11   R(4,12)                 1.0929         estimate D2E/DX2                !
 ! R12   R(5,13)                 1.0939         estimate D2E/DX2                !
 ! R13   R(5,14)                 1.0941         estimate D2E/DX2                !
 ! R14   R(5,15)                 1.0943         estimate D2E/DX2                !
 ! R15   R(6,16)                 1.0162         estimate D2E/DX2                !
 ! R16   R(6,17)                 1.0148         estimate D2E/DX2                !
 ! A1    A(2,1,7)              106.4357         estimate D2E/DX2                !
 ! A2    A(2,1,8)              112.1457         estimate D2E/DX2                !
 ! A3    A(2,1,9)              111.5292         estimate D2E/DX2                !
 ! A4    A(7,1,8)              108.2375         estimate D2E/DX2                !
 ! A5    A(7,1,9)              109.4373         estimate D2E/DX2                !
 ! A6    A(8,1,9)              108.954          estimate D2E/DX2                !
 ! A7    A(1,2,3)              116.6362         estimate D2E/DX2                !
 ! A8    A(2,3,4)              112.0833         estimate D2E/DX2                !
 ! A9    A(2,3,5)              103.5916         estimate D2E/DX2                !
 ! A10   A(2,3,6)              108.5794         estimate D2E/DX2                !
 ! A11   A(4,3,5)              110.839          estimate D2E/DX2                !
 ! A12   A(4,3,6)              108.4089         estimate D2E/DX2                !
 ! A13   A(5,3,6)              113.322          estimate D2E/DX2                !
 ! A14   A(3,4,10)             110.5424         estimate D2E/DX2                !
 ! A15   A(3,4,11)             111.1947         estimate D2E/DX2                !
 ! A16   A(3,4,12)             109.8996         estimate D2E/DX2                !
 ! A17   A(10,4,11)            107.9895         estimate D2E/DX2                !
 ! A18   A(10,4,12)            108.1679         estimate D2E/DX2                !
 ! A19   A(11,4,12)            108.967          estimate D2E/DX2                !
 ! A20   A(3,5,13)             111.0247         estimate D2E/DX2                !
 ! A21   A(3,5,14)             110.6005         estimate D2E/DX2                !
 ! A22   A(3,5,15)             109.5877         estimate D2E/DX2                !
 ! A23   A(13,5,14)            108.7437         estimate D2E/DX2                !
 ! A24   A(13,5,15)            107.9816         estimate D2E/DX2                !
 ! A25   A(14,5,15)            108.8351         estimate D2E/DX2                !
 ! A26   A(3,6,16)             109.6782         estimate D2E/DX2                !
 ! A27   A(3,6,17)             110.5325         estimate D2E/DX2                !
 ! A28   A(16,6,17)            107.1907         estimate D2E/DX2                !
 ! D1    D(7,1,2,3)           -167.5607         estimate D2E/DX2                !
 ! D2    D(8,1,2,3)             74.2533         estimate D2E/DX2                !
 ! D3    D(9,1,2,3)            -48.2628         estimate D2E/DX2                !
 ! D4    D(1,2,3,4)            -58.8874         estimate D2E/DX2                !
 ! D5    D(1,2,3,5)           -178.4292         estimate D2E/DX2                !
 ! D6    D(1,2,3,6)             60.8425         estimate D2E/DX2                !
 ! D7    D(2,3,4,10)          -170.0862         estimate D2E/DX2                !
 ! D8    D(2,3,4,11)            69.9766         estimate D2E/DX2                !
 ! D9    D(2,3,4,12)           -50.761          estimate D2E/DX2                !
 ! D10   D(5,3,4,10)           -54.8856         estimate D2E/DX2                !
 ! D11   D(5,3,4,11)          -174.8228         estimate D2E/DX2                !
 ! D12   D(5,3,4,12)            64.4396         estimate D2E/DX2                !
 ! D13   D(6,3,4,10)            70.0842         estimate D2E/DX2                !
 ! D14   D(6,3,4,11)           -49.853          estimate D2E/DX2                !
 ! D15   D(6,3,4,12)          -170.5906         estimate D2E/DX2                !
 ! D16   D(2,3,5,13)            62.1384         estimate D2E/DX2                !
 ! D17   D(2,3,5,14)          -177.0481         estimate D2E/DX2                !
 ! D18   D(2,3,5,15)           -57.0586         estimate D2E/DX2                !
 ! D19   D(4,3,5,13)           -58.2518         estimate D2E/DX2                !
 ! D20   D(4,3,5,14)            62.5617         estimate D2E/DX2                !
 ! D21   D(4,3,5,15)          -177.4488         estimate D2E/DX2                !
 ! D22   D(6,3,5,13)           179.6029         estimate D2E/DX2                !
 ! D23   D(6,3,5,14)           -59.5836         estimate D2E/DX2                !
 ! D24   D(6,3,5,15)            60.4058         estimate D2E/DX2                !
 ! D25   D(2,3,6,16)            72.6973         estimate D2E/DX2                !
 ! D26   D(2,3,6,17)          -169.3256         estimate D2E/DX2                !
 ! D27   D(4,3,6,16)          -165.3046         estimate D2E/DX2                !
 ! D28   D(4,3,6,17)           -47.3275         estimate D2E/DX2                !
 ! D29   D(5,3,6,16)           -41.8155         estimate D2E/DX2                !
 ! D30   D(5,3,6,17)            76.1616         estimate D2E/DX2                !
 --------------------------------------------------------------------------------
 Trust Radius=3.00D-01 FncErr=1.00D-07 GrdErr=1.00D-06
 Number of steps in this run=     84 maximum allowed number of steps=    102.
 GradGradGradGradGradGradGradGradGradGradGradGradGradGradGradGradGradGrad

 Leave Link  103 at Thu Sep  8 14:54:28 2022, MaxMem= 24159191040 cpu:         0.6
 (Enter /public/home/users/caep010/software/Gaussian09/g09/l202.exe)
                          Input orientation:                          
 ---------------------------------------------------------------------
 Center     Atomic      Atomic             Coordinates (Angstroms)
 Number     Number       Type             X           Y           Z
 ---------------------------------------------------------------------
      1          6           0        1.928918   -0.061540    0.873661
      2          8           0        0.553449   -0.338918    1.059307
      3          6           0       -0.297693   -0.125962   -0.062039
      4          6           0       -0.247499    1.327101   -0.557408
      5          6           0       -1.693100   -0.472101    0.473598
      6          7           0        0.138990   -1.002273   -1.152934
      7          1           0        2.449271   -0.486116    1.736317
      8          1           0        2.133849    1.018357    0.845453
      9          1           0        2.311063   -0.520232   -0.044472
     10          1           0       -1.032555    1.507550   -1.298835
     11          1           0        0.714798    1.552649   -1.023158
     12          1           0       -0.405881    2.011277    0.279991
     13          1           0       -1.978016    0.198966    1.289120
     14          1           0       -2.440535   -0.395973   -0.321744
     15          1           0       -1.693566   -1.495083    0.862096
     16          1           0       -0.112152   -1.963855   -0.940842
     17          1           0       -0.329341   -0.753848   -2.018210
 ---------------------------------------------------------------------
                    Distance matrix (angstroms):
                    1          2          3          4          5
     1  C    0.000000
     2  O    1.415386   0.000000
     3  C    2.416088   1.423801   0.000000
     4  C    2.951792   2.455790   1.536002   0.000000
     5  C    3.667100   2.325462   1.534236   2.527818   0.000000
     6  N    2.862850   2.346450   1.465832   2.435161   2.506640
     7  H    1.093255   2.018453   3.302969   3.977625   4.330577
     8  H    1.099532   2.094181   2.836442   2.781036   4.123746
     9  H    1.095172   2.083365   2.638440   3.197183   4.037825
    10  H    3.994009   3.389054   2.176706   1.094801   2.738039
    11  H    2.770851   2.817928   2.183260   1.092616   3.483944
    12  H    3.178097   2.655384   2.167136   1.092895   2.803851
    13  H    3.937588   2.598162   2.180526   2.770748   1.093885
    14  H    4.542352   3.297650   2.175345   2.798916   1.094086
    15  H    3.895840   2.534696   2.162632   3.474309   1.094268
    16  H    3.328241   2.661586   2.045622   3.315981   2.593331
    17  H    3.733891   3.228405   2.054713   2.543814   2.854527
                    6          7          8          9         10
     6  N    0.000000
     7  H    3.735182   0.000000
     8  H    3.472169   1.776673   0.000000
     9  H    2.485750   1.786470   1.786233   0.000000
    10  H    2.773629   5.030901   3.855307   4.106715   0.000000
    11  H    2.622217   3.844433   2.406425   2.793336   1.769541
    12  H    3.381071   4.063219   2.784936   3.727680   1.771765
    13  H    3.447944   4.502243   4.216121   4.548836   3.050213
    14  H    2.777125   5.306029   4.928252   4.761303   2.561350
    15  H    2.767936   4.352629   4.578948   4.220101   3.757973
    16  H    1.016216   3.988957   4.138715   2.959645   3.609149
    17  H    1.014767   4.678551   4.172359   3.304838   2.475062
                   11         12         13         14         15
    11  H    0.000000
    12  H    1.778892   0.000000
    13  H    3.798728   2.602772   0.000000
    14  H    3.774286   3.208856   1.778415   0.000000
    15  H    4.317762   3.780415   1.770046   1.779742   0.000000
    16  H    3.613367   4.168739   3.623807   2.874527   2.443604
    17  H    2.720346   3.596318   3.816335   2.731888   3.272110
                   16         17
    16  H    0.000000
    17  H    1.634628   0.000000
 Stoichiometry    C4H11NO
 Framework group  C1[X(C4H11NO)]
 Deg. of freedom    45
 Full point group                 C1      NOp   1
 Largest Abelian subgroup         C1      NOp   1
 Largest concise Abelian subgroup C1      NOp   1
                         Standard orientation:                         
 ---------------------------------------------------------------------
 Center     Atomic      Atomic             Coordinates (Angstroms)
 Number     Number       Type             X           Y           Z
 ---------------------------------------------------------------------
      1          6           0       -2.022166   -0.110519   -0.081057
      2          8           0       -0.775002   -0.635292   -0.496404
      3          6           0        0.389228    0.002461    0.018425
      4          6           0        0.441621    1.492875   -0.349303
      5          6           0        1.542288   -0.763720   -0.642861
      6          7           0        0.377883   -0.113687    1.479605
      7          1           0       -2.779553   -0.840505   -0.378869
      8          1           0       -2.253830    0.845558   -0.572198
      9          1           0       -2.057851    0.029420    1.004551
     10          1           0        1.419149    1.916596   -0.097333
     11          1           0       -0.321042    2.059824    0.189885
     12          1           0        0.283162    1.616772   -1.423528
     13          1           0        1.510914   -0.657525   -1.731127
     14          1           0        2.506842   -0.395025   -0.281306
     15          1           0        1.459368   -1.828561   -0.404823
     16          1           0        0.586941   -1.071150    1.748408
     17          1           0        1.094915    0.476162    1.889110
 ---------------------------------------------------------------------
 Rotational constants (GHZ):      4.4951947      2.8175010      2.7563334
 Leave Link  202 at Thu Sep  8 14:54:28 2022, MaxMem= 24159191040 cpu:         0.9
 (Enter /public/home/users/caep010/software/Gaussian09/g09/l301.exe)
 Standard basis: 6-31G(d,p) (6D, 7F)
 Ernie: Thresh=  0.10000D-02 Tol=  0.10000D-05 Strict=F.
 There are   145 symmetry adapted cartesian basis functions of A   symmetry.
 There are   145 symmetry adapted basis functions of A   symmetry.
   145 basis functions,   245 primitive gaussians,   145 cartesian basis functions
    25 alpha electrons       25 beta electrons
       nuclear repulsion energy       273.0948204056 Hartrees.
 IExCor=  402 DFT=T Ex+Corr=B3LYP ExCW=0 ScaHFX=  0.200000
 ScaDFX=  0.800000  0.720000  1.000000  0.810000 ScalE2=  1.000000  1.000000
 IRadAn=      0 IRanWt=     -1 IRanGd=            0 ICorTp=0 IEmpDi=  4
 NAtoms=   17 NActive=   17 NUniq=   17 SFac= 1.00D+00 NAtFMM=   60 NAOKFM=F Big=F
 Integral buffers will be    131072 words long.
 Raffenetti 2 integral format.
 Two-electron integral symmetry is turned on.
 Leave Link  301 at Thu Sep  8 14:54:28 2022, MaxMem= 24159191040 cpu:         1.9
 (Enter /public/home/users/caep010/software/Gaussian09/g09/l302.exe)
 NPDir=0 NMtPBC=     1 NCelOv=     1 NCel=       1 NClECP=     1 NCelD=      1
         NCelK=      1 NCelE2=     1 NClLst=     1 CellRange=     0.0.
 One-electron integrals computed using PRISM.
 NBasis=   145 RedAO= T EigKep=  2.92D-03  NBF=   145
 NBsUse=   145 1.00D-06 EigRej= -1.00D+00 NBFU=   145
 Precomputing XC quadrature grid using
 IXCGrd= 4 IRadAn=           0 IRanWt=          -1 IRanGd=           0 AccXCQ= 0.00D+00.
 Generated NRdTot=       0 NPtTot=           0 NUsed=           0 NTot=          32
 NSgBfM=   145   145   145   145   145 MxSgAt=    17 MxSgA2=    17.
 Leave Link  302 at Thu Sep  8 14:54:28 2022, MaxMem= 24159191040 cpu:        11.9
 (Enter /public/home/users/caep010/software/Gaussian09/g09/l303.exe)
 DipDrv:  MaxL=1.
 Leave Link  303 at Thu Sep  8 14:54:28 2022, MaxMem= 24159191040 cpu:         0.7
 (Enter /public/home/users/caep010/software/Gaussian09/g09/l401.exe)
 ExpMin= 1.61D-01 ExpMax= 5.48D+03 ExpMxC= 8.25D+02 IAcc=1 IRadAn=         1 AccDes= 0.00D+00
 Harris functional with IExCor=  402 and IRadAn=       1 diagonalized for initial guess.
 HarFok:  IExCor=  402 AccDes= 0.00D+00 IRadAn=         1 IDoV= 1 UseB2=F ITyADJ=14
 ICtDFT=  3500011 ScaDFX=  1.000000  1.000000  1.000000  1.000000
 FoFCou: FMM=F IPFlag=           0 FMFlag=      100000 FMFlg1=           0
         NFxFlg=           0 DoJE=T BraDBF=F KetDBF=T FulRan=T
         wScrn=  0.000000 ICntrl=     500 IOpCl=  0 I1Cent=   200000004 NGrid=           0
         NMat0=    1 NMatS0=      1 NMatT0=    0 NMatD0=    1 NMtDS0=    0 NMtDT0=    0
 Petite list used in FoFCou.
 Harris En= -289.083310307023    
 JPrj=0 DoOrth=F DoCkMO=F.
 Leave Link  401 at Thu Sep  8 14:54:29 2022, MaxMem= 24159191040 cpu:         9.9
 (Enter /public/home/users/caep010/software/Gaussian09/g09/l502.exe)
 Closed shell SCF:
 Using DIIS extrapolation, IDIIS=  1040.
 Integral symmetry usage will be decided dynamically.
 Keep R1 ints in memory in canonical form, NReq=57669771.
 IVT=       87371 IEndB=       87371 NGot= 24159191040 MDV= 24103077265
 LenX= 24103077265 LenY= 24103055799
 Requested convergence on RMS density matrix=1.00D-08 within 128 cycles.
 Requested convergence on MAX density matrix=1.00D-06.
 Requested convergence on             energy=1.00D-06.
 No special actions if energy rises.
 FoFCou: FMM=F IPFlag=           0 FMFlag=           0 FMFlg1=           0
         NFxFlg=           0 DoJE=F BraDBF=F KetDBF=F FulRan=T
         wScrn=  0.000000 ICntrl=     600 IOpCl=  0 I1Cent=           0 NGrid=           0
         NMat0=    1 NMatS0=  10585 NMatT0=    0 NMatD0=    1 NMtDS0=    0 NMtDT0=    0
 Symmetry not used in FoFCou.
 Integral accuracy reduced to 1.0D-05 until final iterations.

 Cycle   1  Pass 0  IDiag  1:
 E= -288.796450763569    
 DIIS: error= 3.10D-02 at cycle   1 NSaved=   1.
 NSaved= 1 IEnMin= 1 EnMin= -288.796450763569     IErMin= 1 ErrMin= 3.10D-02
 ErrMax= 3.10D-02  0.00D+00 EMaxC= 1.00D-01 BMatC= 2.37D-01 BMatP= 2.37D-01
 IDIUse=3 WtCom= 6.90D-01 WtEn= 3.10D-01
 Coeff-Com:  0.100D+01
 Coeff-En:   0.100D+01
 Coeff:      0.100D+01
 Gap=     0.252 Goal=   None    Shift=    0.000
 GapD=    0.252 DampG=1.000 DampE=0.500 DampFc=0.5000 IDamp=-1.
 Damping current iteration by 5.00D-01
 RMSDP=7.05D-03 MaxDP=1.46D-01              OVMax= 1.68D-01

 Cycle   2  Pass 0  IDiag  1:
 E= -288.901070772895     Delta-E=       -0.104620009325 Rises=F Damp=T
 DIIS: error= 8.72D-03 at cycle   2 NSaved=   2.
 NSaved= 2 IEnMin= 2 EnMin= -288.901070772895     IErMin= 2 ErrMin= 8.72D-03
 ErrMax= 8.72D-03  0.00D+00 EMaxC= 1.00D-01 BMatC= 9.69D-03 BMatP= 2.37D-01
 IDIUse=3 WtCom= 9.13D-01 WtEn= 8.72D-02
 Coeff-Com:  0.771D-01 0.923D+00
 Coeff-En:   0.122D+00 0.878D+00
 Coeff:      0.811D-01 0.919D+00
 Gap=     0.316 Goal=   None    Shift=    0.000
 RMSDP=1.10D-03 MaxDP=1.72D-02 DE=-1.05D-01 OVMax= 9.25D-02

 Cycle   3  Pass 0  IDiag  1:
 E= -289.027981880339     Delta-E=       -0.126911107444 Rises=F Damp=F
 DIIS: error= 2.89D-03 at cycle   3 NSaved=   3.
 NSaved= 3 IEnMin= 3 EnMin= -289.027981880339     IErMin= 3 ErrMin= 2.89D-03
 ErrMax= 2.89D-03  0.00D+00 EMaxC= 1.00D-01 BMatC= 2.23D-03 BMatP= 9.69D-03
 IDIUse=3 WtCom= 9.71D-01 WtEn= 2.89D-02
 Coeff-Com:  0.630D-02 0.276D+00 0.718D+00
 Coeff-En:   0.000D+00 0.000D+00 0.100D+01
 Coeff:      0.612D-02 0.268D+00 0.726D+00
 Gap=     0.312 Goal=   None    Shift=    0.000
 RMSDP=4.62D-04 MaxDP=1.17D-02 DE=-1.27D-01 OVMax= 1.27D-02

 Cycle   4  Pass 0  IDiag  1:
 E= -289.028858956087     Delta-E=       -0.000877075748 Rises=F Damp=F
 DIIS: error= 1.95D-03 at cycle   4 NSaved=   4.
 NSaved= 4 IEnMin= 4 EnMin= -289.028858956087     IErMin= 4 ErrMin= 1.95D-03
 ErrMax= 1.95D-03  0.00D+00 EMaxC= 1.00D-01 BMatC= 1.20D-03 BMatP= 2.23D-03
 IDIUse=3 WtCom= 9.80D-01 WtEn= 1.95D-02
 Coeff-Com: -0.274D-02 0.495D-01 0.426D+00 0.527D+00
 Coeff-En:   0.000D+00 0.000D+00 0.353D+00 0.647D+00
 Coeff:     -0.268D-02 0.485D-01 0.425D+00 0.529D+00
 Gap=     0.315 Goal=   None    Shift=    0.000
 RMSDP=2.03D-04 MaxDP=6.21D-03 DE=-8.77D-04 OVMax= 6.03D-03

 Cycle   5  Pass 0  IDiag  1:
 E= -289.029784883202     Delta-E=       -0.000925927115 Rises=F Damp=F
 DIIS: error= 3.33D-04 at cycle   5 NSaved=   5.
 NSaved= 5 IEnMin= 5 EnMin= -289.029784883202     IErMin= 5 ErrMin= 3.33D-04
 ErrMax= 3.33D-04  0.00D+00 EMaxC= 1.00D-01 BMatC= 2.14D-05 BMatP= 1.20D-03
 IDIUse=3 WtCom= 9.97D-01 WtEn= 3.33D-03
 Coeff-Com: -0.853D-03 0.491D-02 0.134D+00 0.208D+00 0.654D+00
 Coeff-En:   0.000D+00 0.000D+00 0.000D+00 0.000D+00 0.100D+01
 Coeff:     -0.850D-03 0.489D-02 0.134D+00 0.207D+00 0.655D+00
 Gap=     0.315 Goal=   None    Shift=    0.000
 RMSDP=3.80D-05 MaxDP=9.61D-04 DE=-9.26D-04 OVMax= 1.06D-03

 Cycle   6  Pass 0  IDiag  1:
 E= -289.029797397341     Delta-E=       -0.000012514139 Rises=F Damp=F
 DIIS: error= 1.04D-04 at cycle   6 NSaved=   6.
 NSaved= 6 IEnMin= 6 EnMin= -289.029797397341     IErMin= 6 ErrMin= 1.04D-04
 ErrMax= 1.04D-04  0.00D+00 EMaxC= 1.00D-01 BMatC= 4.75D-06 BMatP= 2.14D-05
 IDIUse=3 WtCom= 9.99D-01 WtEn= 1.04D-03
 Coeff-Com: -0.221D-03-0.419D-03 0.510D-01 0.869D-01 0.388D+00 0.475D+00
 Coeff-En:   0.000D+00 0.000D+00 0.000D+00 0.000D+00 0.151D+00 0.849D+00
 Coeff:     -0.220D-03-0.419D-03 0.510D-01 0.868D-01 0.388D+00 0.475D+00
 Gap=     0.315 Goal=   None    Shift=    0.000
 RMSDP=1.41D-05 MaxDP=3.73D-04 DE=-1.25D-05 OVMax= 4.31D-04

 Cycle   7  Pass 0  IDiag  1:
 E= -289.029801269060     Delta-E=       -0.000003871719 Rises=F Damp=F
 DIIS: error= 8.66D-06 at cycle   7 NSaved=   7.
 NSaved= 7 IEnMin= 7 EnMin= -289.029801269060     IErMin= 7 ErrMin= 8.66D-06
 ErrMax= 8.66D-06  0.00D+00 EMaxC= 1.00D-01 BMatC= 2.94D-08 BMatP= 4.75D-06
 IDIUse=1 WtCom= 1.00D+00 WtEn= 0.00D+00
 Coeff-Com:  0.142D-04-0.360D-03 0.895D-02 0.157D-01 0.800D-01 0.132D+00
 Coeff-Com:  0.763D+00
 Coeff:      0.142D-04-0.360D-03 0.895D-02 0.157D-01 0.800D-01 0.132D+00
 Coeff:      0.763D+00
 Gap=     0.315 Goal=   None    Shift=    0.000
 RMSDP=1.50D-06 MaxDP=3.62D-05 DE=-3.87D-06 OVMax= 4.44D-05

 Initial convergence to 1.0D-05 achieved.  Increase integral accuracy.
 Cycle   8  Pass 1  IDiag  1:
 E= -289.029848872226     Delta-E=       -0.000047603166 Rises=F Damp=F
 DIIS: error= 1.02D-05 at cycle   1 NSaved=   1.
 NSaved= 1 IEnMin= 1 EnMin= -289.029848872226     IErMin= 1 ErrMin= 1.02D-05
 ErrMax= 1.02D-05  0.00D+00 EMaxC= 1.00D-01 BMatC= 3.21D-08 BMatP= 3.21D-08
 IDIUse=1 WtCom= 1.00D+00 WtEn= 0.00D+00
 Coeff-Com:  0.100D+01
 Coeff:      0.100D+01
 Gap=     0.315 Goal=   None    Shift=    0.000
 RMSDP=1.50D-06 MaxDP=3.62D-05 DE=-4.76D-05 OVMax= 5.19D-05

 Cycle   9  Pass 1  IDiag  1:
 E= -289.029848905745     Delta-E=       -0.000000033518 Rises=F Damp=F
 DIIS: error= 5.36D-06 at cycle   2 NSaved=   2.
 NSaved= 2 IEnMin= 2 EnMin= -289.029848905745     IErMin= 2 ErrMin= 5.36D-06
 ErrMax= 5.36D-06  0.00D+00 EMaxC= 1.00D-01 BMatC= 8.46D-09 BMatP= 3.21D-08
 IDIUse=1 WtCom= 1.00D+00 WtEn= 0.00D+00
 Coeff-Com:  0.268D+00 0.732D+00
 Coeff:      0.268D+00 0.732D+00
 Gap=     0.315 Goal=   None    Shift=    0.000
 RMSDP=1.03D-06 MaxDP=2.52D-05 DE=-3.35D-08 OVMax= 2.44D-05

 Cycle  10  Pass 1  IDiag  1:
 E= -289.029848910073     Delta-E=       -0.000000004329 Rises=F Damp=F
 DIIS: error= 3.58D-06 at cycle   3 NSaved=   3.
 NSaved= 3 IEnMin= 3 EnMin= -289.029848910073     IErMin= 3 ErrMin= 3.58D-06
 ErrMax= 3.58D-06  0.00D+00 EMaxC= 1.00D-01 BMatC= 4.04D-09 BMatP= 8.46D-09
 IDIUse=1 WtCom= 1.00D+00 WtEn= 0.00D+00
 Coeff-Com: -0.204D-01 0.407D+00 0.613D+00
 Coeff:     -0.204D-01 0.407D+00 0.613D+00
 Gap=     0.315 Goal=   None    Shift=    0.000
 RMSDP=4.10D-07 MaxDP=1.10D-05 DE=-4.33D-09 OVMax= 1.04D-05

 Cycle  11  Pass 1  IDiag  1:
 E= -289.029848913798     Delta-E=       -0.000000003725 Rises=F Damp=F
 DIIS: error= 3.63D-07 at cycle   4 NSaved=   4.
 NSaved= 4 IEnMin= 4 EnMin= -289.029848913798     IErMin= 4 ErrMin= 3.63D-07
 ErrMax= 3.63D-07  0.00D+00 EMaxC= 1.00D-01 BMatC= 4.38D-11 BMatP= 4.04D-09
 IDIUse=1 WtCom= 1.00D+00 WtEn= 0.00D+00
 Coeff-Com: -0.120D-01 0.163D+00 0.260D+00 0.590D+00
 Coeff:     -0.120D-01 0.163D+00 0.260D+00 0.590D+00
 Gap=     0.315 Goal=   None    Shift=    0.000
 RMSDP=5.33D-08 MaxDP=1.13D-06 DE=-3.72D-09 OVMax= 1.53D-06

 Cycle  12  Pass 1  IDiag  1:
 E= -289.029848913830     Delta-E=       -0.000000000032 Rises=F Damp=F
 DIIS: error= 1.11D-07 at cycle   5 NSaved=   5.
 NSaved= 5 IEnMin= 5 EnMin= -289.029848913830     IErMin= 5 ErrMin= 1.11D-07
 ErrMax= 1.11D-07  0.00D+00 EMaxC= 1.00D-01 BMatC= 3.53D-12 BMatP= 4.38D-11
 IDIUse=1 WtCom= 1.00D+00 WtEn= 0.00D+00
 Coeff-Com: -0.384D-02 0.458D-01 0.748D-01 0.267D+00 0.617D+00
 Coeff:     -0.384D-02 0.458D-01 0.748D-01 0.267D+00 0.617D+00
 Gap=     0.315 Goal=   None    Shift=    0.000
 RMSDP=1.31D-08 MaxDP=4.33D-07 DE=-3.16D-11 OVMax= 4.88D-07

 Cycle  13  Pass 1  IDiag  1:
 E= -289.029848913841     Delta-E=       -0.000000000012 Rises=F Damp=F
 DIIS: error= 3.01D-08 at cycle   6 NSaved=   6.
 NSaved= 6 IEnMin= 6 EnMin= -289.029848913841     IErMin= 6 ErrMin= 3.01D-08
 ErrMax= 3.01D-08  0.00D+00 EMaxC= 1.00D-01 BMatC= 2.28D-13 BMatP= 3.53D-12
 IDIUse=1 WtCom= 1.00D+00 WtEn= 0.00D+00
 Coeff-Com: -0.300D-03 0.434D-03 0.127D-02 0.396D-01 0.239D+00 0.720D+00
 Coeff:     -0.300D-03 0.434D-03 0.127D-02 0.396D-01 0.239D+00 0.720D+00
 Gap=     0.315 Goal=   None    Shift=    0.000
 RMSDP=3.89D-09 MaxDP=1.14D-07 DE=-1.16D-11 OVMax= 1.22D-07

 SCF Done:  E(RB3LYP) =  -289.029848914     A.U. after   13 cycles
            NFock= 13  Conv=0.39D-08     -V/T= 2.0093
 KE= 2.863613752608D+02 PE=-1.219062721196D+03 EE= 3.705766766156D+02
 Leave Link  502 at Thu Sep  8 14:54:31 2022, MaxMem= 24159191040 cpu:        51.9
 (Enter /public/home/users/caep010/software/Gaussian09/g09/l601.exe)
 Copying SCF densities to generalized density rwf, IOpCl= 0 IROHF=0.

 **********************************************************************

            Population analysis using the SCF density.

 **********************************************************************

 Orbital symmetries:
       Occupied  (A) (A) (A) (A) (A) (A) (A) (A) (A) (A) (A) (A)
                 (A) (A) (A) (A) (A) (A) (A) (A) (A) (A) (A) (A)
                 (A)
       Virtual   (A) (A) (A) (A) (A) (A) (A) (A) (A) (A) (A) (A)
                 (A) (A) (A) (A) (A) (A) (A) (A) (A) (A) (A) (A)
                 (A) (A) (A) (A) (A) (A) (A) (A) (A) (A) (A) (A)
                 (A) (A) (A) (A) (A) (A) (A) (A) (A) (A) (A) (A)
                 (A) (A) (A) (A) (A) (A) (A) (A) (A) (A) (A) (A)
                 (A) (A) (A) (A) (A) (A) (A) (A) (A) (A) (A) (A)
                 (A) (A) (A) (A) (A) (A) (A) (A) (A) (A) (A) (A)
                 (A) (A) (A) (A) (A) (A) (A) (A) (A) (A) (A) (A)
                 (A) (A) (A) (A) (A) (A) (A) (A) (A) (A) (A) (A)
                 (A) (A) (A) (A) (A) (A) (A) (A) (A) (A) (A) (A)
 The electronic state is 1-A.
 Alpha  occ. eigenvalues --  -19.13178 -14.31088 -10.26105 -10.20854 -10.17338
 Alpha  occ. eigenvalues --  -10.16996  -1.02249  -0.87427  -0.74928  -0.69512
 Alpha  occ. eigenvalues --   -0.66325  -0.55850  -0.49594  -0.47531  -0.45883
 Alpha  occ. eigenvalues --   -0.43288  -0.41746  -0.39756  -0.38226  -0.37259
 Alpha  occ. eigenvalues --   -0.36456  -0.34591  -0.29871  -0.24774  -0.24112
 Alpha virt. eigenvalues --    0.07396   0.11994   0.12502   0.14396   0.15271
 Alpha virt. eigenvalues --    0.16601   0.17172   0.17991   0.18723   0.19951
 Alpha virt. eigenvalues --    0.20463   0.20639   0.22681   0.25413   0.27953
 Alpha virt. eigenvalues --    0.29003   0.50226   0.51900   0.54313   0.56715
 Alpha virt. eigenvalues --    0.57447   0.58496   0.60919   0.62960   0.64793
 Alpha virt. eigenvalues --    0.69588   0.72148   0.73907   0.79279   0.80593
 Alpha virt. eigenvalues --    0.83894   0.85700   0.86288   0.87272   0.87402
 Alpha virt. eigenvalues --    0.89024   0.89946   0.90959   0.92431   0.94365
 Alpha virt. eigenvalues --    0.95555   0.97651   1.00498   1.03019   1.12737
 Alpha virt. eigenvalues --    1.17327   1.25732   1.30307   1.33250   1.38011
 Alpha virt. eigenvalues --    1.40051   1.45319   1.53186   1.55946   1.64137
 Alpha virt. eigenvalues --    1.65921   1.73505   1.79834   1.82221   1.84569
 Alpha virt. eigenvalues --    1.88697   1.89725   1.94021   1.99718   2.00787
 Alpha virt. eigenvalues --    2.01682   2.03610   2.04539   2.05029   2.06033
 Alpha virt. eigenvalues --    2.08794   2.09537   2.11978   2.12633   2.14813
 Alpha virt. eigenvalues --    2.16852   2.18721   2.20458   2.25649   2.26329
 Alpha virt. eigenvalues --    2.31704   2.34985   2.38678   2.45153   2.51094
 Alpha virt. eigenvalues --    2.54024   2.58362   2.59436   2.67504   2.68739
 Alpha virt. eigenvalues --    2.70107   2.72416   2.75694   2.76530   2.81857
 Alpha virt. eigenvalues --    2.83366   2.87760   2.89259   2.91375   2.97829
 Alpha virt. eigenvalues --    2.98867   3.02336   3.14805   3.18507   3.21364
 Alpha virt. eigenvalues --    3.23950   3.30625   3.42364   3.42969   3.43580
 Alpha virt. eigenvalues --    3.43676   3.45556   3.49264   3.53860   3.97939
 Alpha virt. eigenvalues --    4.08090   4.42969   4.45879   4.55832   4.70127
          Condensed to atoms (all electrons):
               1          2          3          4          5          6
     1  C    4.722473   0.253616  -0.029927  -0.007018   0.006566  -0.017678
     2  O    0.253616   8.290766   0.233945  -0.049707  -0.073743  -0.069086
     3  C   -0.029927   0.233945   4.560226   0.368383   0.401130   0.309451
     4  C   -0.007018  -0.049707   0.368383   5.056155  -0.068455  -0.081697
     5  C    0.006566  -0.073743   0.401130  -0.068455   5.036392  -0.068907
     6  N   -0.017678  -0.069086   0.309451  -0.081697  -0.068907   6.836662
     7  H    0.392582  -0.035326   0.005551  -0.000102  -0.000259   0.000151
     8  H    0.369908  -0.040937  -0.006212   0.006081  -0.000040  -0.000774
     9  H    0.373529  -0.034958  -0.011704  -0.002381   0.000463   0.022477
    10  H    0.000152   0.003365  -0.022196   0.360036  -0.004745   0.000108
    11  H    0.001251  -0.003308  -0.024694   0.373004   0.005743  -0.000457
    12  H   -0.000675   0.001041  -0.025400   0.373488  -0.003590   0.004808
    13  H   -0.000254   0.002859  -0.021712  -0.005604   0.356775   0.005888
    14  H   -0.000233   0.003972  -0.028522  -0.002389   0.361069   0.000647
    15  H   -0.000092   0.001670  -0.022278   0.006108   0.365201  -0.005223
    16  H    0.000353   0.003641  -0.032585   0.008099  -0.007405   0.326651
    17  H    0.000431   0.004755  -0.026506  -0.005318   0.001124   0.321636
               7          8          9         10         11         12
     1  C    0.392582   0.369908   0.373529   0.000152   0.001251  -0.000675
     2  O   -0.035326  -0.040937  -0.034958   0.003365  -0.003308   0.001041
     3  C    0.005551  -0.006212  -0.011704  -0.022196  -0.024694  -0.025400
     4  C   -0.000102   0.006081  -0.002381   0.360036   0.373004   0.373488
     5  C   -0.000259  -0.000040   0.000463  -0.004745   0.005743  -0.003590
     6  N    0.000151  -0.000774   0.022477   0.000108  -0.000457   0.004808
     7  H    0.607463  -0.040790  -0.032024   0.000000  -0.000044  -0.000043
     8  H   -0.040790   0.677813  -0.048647  -0.000307   0.000634  -0.000012
     9  H   -0.032024  -0.048647   0.617411   0.000040   0.001045   0.000328
    10  H    0.000000  -0.000307   0.000040   0.622184  -0.031135  -0.027140
    11  H   -0.000044   0.000634   0.001045  -0.031135   0.591060  -0.028038
    12  H   -0.000043  -0.000012   0.000328  -0.027140  -0.028038   0.587029
    13  H   -0.000008  -0.000067  -0.000010   0.000440  -0.000123   0.002409
    14  H    0.000003   0.000008   0.000016   0.001972  -0.000082   0.000181
    15  H   -0.000024   0.000035  -0.000040  -0.000067  -0.000223  -0.000055
    16  H   -0.000046   0.000086  -0.001019  -0.000196  -0.000097  -0.000280
    17  H    0.000006   0.000055  -0.001193   0.001966  -0.000085  -0.000167
              13         14         15         16         17
     1  C   -0.000254  -0.000233  -0.000092   0.000353   0.000431
     2  O    0.002859   0.003972   0.001670   0.003641   0.004755
     3  C   -0.021712  -0.028522  -0.022278  -0.032585  -0.026506
     4  C   -0.005604  -0.002389   0.006108   0.008099  -0.005318
     5  C    0.356775   0.361069   0.365201  -0.007405   0.001124
     6  N    0.005888   0.000647  -0.005223   0.326651   0.321636
     7  H   -0.000008   0.000003  -0.000024  -0.000046   0.000006
     8  H   -0.000067   0.000008   0.000035   0.000086   0.000055
     9  H   -0.000010   0.000016  -0.000040  -0.001019  -0.001193
    10  H    0.000440   0.001972  -0.000067  -0.000196   0.001966
    11  H   -0.000123  -0.000082  -0.000223  -0.000097  -0.000085
    12  H    0.002409   0.000181  -0.000055  -0.000280  -0.000167
    13  H    0.604267  -0.028180  -0.027325   0.000007  -0.000118
    14  H   -0.028180   0.631246  -0.029760   0.000314   0.001109
    15  H   -0.027325  -0.029760   0.600898   0.005837   0.000006
    16  H    0.000007   0.000314   0.005837   0.489714  -0.030536
    17  H   -0.000118   0.001109   0.000006  -0.030536   0.499792
 Mulliken charges:
               1
     1  C   -0.064984
     2  O   -0.492565
     3  C    0.373050
     4  C   -0.328684
     5  C   -0.307319
     6  N   -0.584656
     7  H    0.102910
     8  H    0.083165
     9  H    0.116669
    10  H    0.095523
    11  H    0.115550
    12  H    0.116117
    13  H    0.110757
    14  H    0.088629
    15  H    0.105334
    16  H    0.237461
    17  H    0.233042
 Sum of Mulliken charges =  -0.00000
 Mulliken charges with hydrogens summed into heavy atoms:
               1
     1  C    0.237760
     2  O   -0.492565
     3  C    0.373050
     4  C   -0.001495
     5  C   -0.002599
     6  N   -0.114152
 Electronic spatial extent (au):  <R**2>=            618.5076
 Charge=              0.0000 electrons
 Dipole moment (field-independent basis, Debye):
    X=              1.1879    Y=              0.6332    Z=              0.6179  Tot=              1.4811
 Quadrupole moment (field-independent basis, Debye-Ang):
   XX=            -35.6747   YY=            -38.2267   ZZ=            -39.1752
   XY=             -0.3959   XZ=              1.9503   YZ=             -1.5482
 Traceless Quadrupole moment (field-independent basis, Debye-Ang):
   XX=              2.0175   YY=             -0.5345   ZZ=             -1.4830
   XY=             -0.3959   XZ=              1.9503   YZ=             -1.5482
 Octapole moment (field-independent basis, Debye-Ang**2):
  XXX=             -7.5511  YYY=             -4.4675  ZZZ=              1.6430  XYY=              0.4455
  XXY=             -0.6948  XXZ=              2.9648  XZZ=              5.1829  YZZ=             -1.6189
  YYZ=              3.6543  XYZ=              0.6235
 Hexadecapole moment (field-independent basis, Debye-Ang**3):
 XXXX=           -397.5828 YYYY=           -215.2368 ZZZZ=           -184.3332 XXXY=             10.5347
 XXXZ=              9.9187 YYYX=             -0.5708 YYYZ=             -1.7884 ZZZX=             12.8075
 ZZZY=             -3.7914 XXYY=           -102.5816 XXZZ=            -96.9361 YYZZ=            -63.6633
 XXYZ=              2.0845 YYXZ=              3.8944 ZZXY=              0.5422
 N-N= 2.730948204056D+02 E-N=-1.219062725710D+03  KE= 2.863613752608D+02
 No NMR shielding tensors so no spin-rotation constants.
 Leave Link  601 at Thu Sep  8 14:54:32 2022, MaxMem= 24159191040 cpu:        13.7
 (Enter /public/home/users/caep010/software/Gaussian09/g09/l701.exe)
 Compute integral first derivatives.
 ... and contract with generalized density number  0.
 Leave Link  701 at Thu Sep  8 14:54:32 2022, MaxMem= 24159191040 cpu:        10.7
 (Enter /public/home/users/caep010/software/Gaussian09/g09/l702.exe)
 L702 exits ... SP integral derivatives will be done elsewhere.
 Leave Link  702 at Thu Sep  8 14:54:32 2022, MaxMem= 24159191040 cpu:         0.5
 (Enter /public/home/users/caep010/software/Gaussian09/g09/l703.exe)
 Compute integral first derivatives, UseDBF=F ICtDFT=           0.
 Integral derivatives from FoFJK, PRISM(SPDF).
 Calling FoFJK, ICntrl=      2127 FMM=F ISym2X=0 I1Cent= 0 IOpClX= 0 NMat=1 NMatS=1 NMatT=0.
 FoFJK:  IHMeth= 1 ICntrl=    2127 DoSepK=F KAlg= 0 I1Cent=   0 FoldK=F
 IRaf=         0 NMat=   1 IRICut=       1 DoRegI=T DoRafI=F ISym2E= 0.
 FoFCou: FMM=F IPFlag=           0 FMFlag=      100000 FMFlg1=         800
         NFxFlg=           0 DoJE=F BraDBF=F KetDBF=F FulRan=T
         wScrn=  0.000000 ICntrl=    2127 IOpCl=  0 I1Cent=           0 NGrid=           0
         NMat0=    1 NMatS0=      1 NMatT0=    0 NMatD0=    1 NMtDS0=    0 NMtDT0=    0
 Symmetry not used in FoFCou.
 Leave Link  703 at Thu Sep  8 14:54:33 2022, MaxMem= 24159191040 cpu:        13.9
 (Enter /public/home/users/caep010/software/Gaussian09/g09/l716.exe)
 Dipole        = 4.67342541D-01 2.49122263D-01 2.43087439D-01
 ***** Axes restored to original set *****
 -------------------------------------------------------------------
 Center     Atomic                   Forces (Hartrees/Bohr)
 Number     Number              X              Y              Z
 -------------------------------------------------------------------
      1        6           0.002733151    0.000402725   -0.000475622
      2        8          -0.001217455   -0.000880602    0.002734038
      3        6          -0.001159420    0.000274732   -0.001707937
      4        6          -0.000132588    0.000117901   -0.000067139
      5        6          -0.000100527   -0.000013385    0.000007763
      6        7           0.000618454    0.000745351    0.000152263
      7        1          -0.000070092    0.000024962   -0.000022204
      8        1           0.000168364    0.000029574    0.000043983
      9        1           0.000066241    0.000000080   -0.000018230
     10        1          -0.000051671    0.000171122   -0.000160561
     11        1           0.000147522    0.000056134    0.000009988
     12        1          -0.000062667    0.000064918    0.000090253
     13        1          -0.000046522    0.000010799    0.000051390
     14        1          -0.000277965    0.000028746   -0.000077204
     15        1          -0.000051720   -0.000138197    0.000081453
     16        1           0.000053591   -0.001273727    0.000603907
     17        1          -0.000616695    0.000378866   -0.001246139
 -------------------------------------------------------------------
 Cartesian Forces:  Max     0.002734038 RMS     0.000731108
 Leave Link  716 at Thu Sep  8 14:54:33 2022, MaxMem= 24159191040 cpu:         0.8
 (Enter /public/home/users/caep010/software/Gaussian09/g09/l103.exe)

 GradGradGradGradGradGradGradGradGradGradGradGradGradGradGradGradGradGrad
 Berny optimization.
 FormGI is forming the generalized inverse of G from B-inverse, IUseBI=4.
 Internal  Forces:  Max     0.002965492 RMS     0.000547728
 Search for a local minimum.
 Step number   1 out of a maximum of   84
 All quantities printed in internal units (Hartrees-Bohrs-Radians)
 RMS Force = .54773D-03 SwitMx=.10000D-02 MixMth= 2
 Mixed Optimization -- En-DIIS/RFO-DIIS
 Second derivative matrix not updated -- first step.
 ITU=  0
     Eigenvalues ---    0.00290   0.00313   0.00821   0.01377   0.01488
     Eigenvalues ---    0.04294   0.04783   0.05491   0.05518   0.05619
     Eigenvalues ---    0.05674   0.06273   0.07364   0.09990   0.10597
     Eigenvalues ---    0.16000   0.16000   0.16000   0.16000   0.16000
     Eigenvalues ---    0.16000   0.16000   0.16000   0.16000   0.16000
     Eigenvalues ---    0.16000   0.16205   0.17660   0.25000   0.28876
     Eigenvalues ---    0.29036   0.33734   0.34222   0.34264   0.34324
     Eigenvalues ---    0.34345   0.34368   0.34439   0.34480   0.34512
     Eigenvalues ---    0.36244   0.41893   0.43163   0.44947   0.45184
 RFO step:  Lambda=-7.82230191D-05 EMin= 2.89710764D-03
 Linear search not attempted -- first point.
 Iteration  1 RMS(Cart)=  0.00995629 RMS(Int)=  0.00006297
 Iteration  2 RMS(Cart)=  0.00006846 RMS(Int)=  0.00000068
 Iteration  3 RMS(Cart)=  0.00000000 RMS(Int)=  0.00000068
 ITry= 1 IFail=0 DXMaxC= 3.67D-02 DCOld= 1.00D+10 DXMaxT= 3.00D-01 DXLimC= 3.00D+00 Rises=F
 Variable       Old X    -DE/DX   Delta X   Delta X   Delta X     New X
                                 (Linear)    (Quad)   (Total)
    R1        2.67469   0.00297   0.00000   0.00687   0.00687   2.68156
    R2        2.06595  -0.00006   0.00000  -0.00018  -0.00018   2.06578
    R3        2.07781   0.00006   0.00000   0.00018   0.00018   2.07799
    R4        2.06957   0.00004   0.00000   0.00011   0.00011   2.06968
    R5        2.69059   0.00285   0.00000   0.00681   0.00681   2.69740
    R6        2.90262   0.00043   0.00000   0.00147   0.00147   2.90410
    R7        2.89929   0.00048   0.00000   0.00166   0.00166   2.90095
    R8        2.77002   0.00047   0.00000   0.00129   0.00129   2.77131
    R9        2.06887   0.00018   0.00000   0.00051   0.00051   2.06939
   R10        2.06475   0.00014   0.00000   0.00041   0.00041   2.06516
   R11        2.06527   0.00011   0.00000   0.00033   0.00033   2.06560
   R12        2.06714   0.00006   0.00000   0.00018   0.00018   2.06732
   R13        2.06752   0.00025   0.00000   0.00072   0.00072   2.06824
   R14        2.06787   0.00015   0.00000   0.00045   0.00045   2.06832
   R15        1.92037   0.00132   0.00000   0.00295   0.00295   1.92332
   R16        1.91763   0.00143   0.00000   0.00317   0.00317   1.92081
    A1        1.85765  -0.00015   0.00000  -0.00113  -0.00113   1.85652
    A2        1.95731   0.00024   0.00000   0.00160   0.00160   1.95891
    A3        1.94655   0.00007   0.00000   0.00055   0.00055   1.94710
    A4        1.88910  -0.00009   0.00000  -0.00077  -0.00077   1.88833
    A5        1.91004  -0.00002   0.00000  -0.00027  -0.00027   1.90977
    A6        1.90161  -0.00006   0.00000  -0.00007  -0.00008   1.90153
    A7        2.03569   0.00021   0.00000   0.00083   0.00083   2.03652
    A8        1.95622   0.00005   0.00000   0.00043   0.00043   1.95666
    A9        1.80801  -0.00002   0.00000  -0.00030  -0.00030   1.80772
   A10        1.89507  -0.00002   0.00000  -0.00003  -0.00003   1.89504
   A11        1.93451  -0.00004   0.00000  -0.00031  -0.00031   1.93420
   A12        1.89209   0.00001   0.00000   0.00019   0.00019   1.89228
   A13        1.97784   0.00002   0.00000   0.00002   0.00002   1.97786
   A14        1.92933   0.00025   0.00000   0.00176   0.00176   1.93109
   A15        1.94071  -0.00004   0.00000  -0.00034  -0.00034   1.94037
   A16        1.91811  -0.00005   0.00000  -0.00044  -0.00044   1.91767
   A17        1.88477  -0.00008   0.00000  -0.00023  -0.00023   1.88455
   A18        1.88789  -0.00008   0.00000  -0.00033  -0.00033   1.88756
   A19        1.90183  -0.00000   0.00000  -0.00044  -0.00044   1.90139
   A20        1.93775  -0.00001   0.00000  -0.00024  -0.00024   1.93750
   A21        1.93034   0.00019   0.00000   0.00133   0.00133   1.93167
   A22        1.91267   0.00006   0.00000   0.00040   0.00040   1.91306
   A23        1.89794  -0.00011   0.00000  -0.00077  -0.00077   1.89716
   A24        1.88463  -0.00005   0.00000  -0.00060  -0.00060   1.88404
   A25        1.89953  -0.00009   0.00000  -0.00017  -0.00017   1.89936
   A26        1.91425  -0.00015   0.00000   0.00006   0.00006   1.91431
   A27        1.92916   0.00013   0.00000   0.00182   0.00182   1.93097
   A28        1.87083   0.00019   0.00000   0.00325   0.00325   1.87408
    D1       -2.92449   0.00002   0.00000   0.00114   0.00114  -2.92334
    D2        1.29597   0.00009   0.00000   0.00189   0.00189   1.29786
    D3       -0.84235  -0.00006   0.00000   0.00042   0.00042  -0.84192
    D4       -1.02778  -0.00019   0.00000  -0.01236  -0.01236  -1.04014
    D5       -3.11418  -0.00015   0.00000  -0.01204  -0.01204  -3.12622
    D6        1.06190  -0.00016   0.00000  -0.01188  -0.01188   1.05002
    D7       -2.96856  -0.00002   0.00000  -0.01148  -0.01148  -2.98004
    D8        1.22132  -0.00005   0.00000  -0.01214  -0.01214   1.20919
    D9       -0.88595   0.00001   0.00000  -0.01106  -0.01106  -0.89700
   D10       -0.95793  -0.00004   0.00000  -0.01177  -0.01177  -0.96971
   D11       -3.05123  -0.00008   0.00000  -0.01243  -0.01243  -3.06366
   D12        1.12468  -0.00002   0.00000  -0.01135  -0.01135   1.11333
   D13        1.22320  -0.00003   0.00000  -0.01183  -0.01183   1.21137
   D14       -0.87010  -0.00007   0.00000  -0.01249  -0.01249  -0.88259
   D15       -2.97737  -0.00001   0.00000  -0.01141  -0.01141  -2.98878
   D16        1.08452   0.00000   0.00000  -0.00230  -0.00230   1.08222
   D17       -3.09007  -0.00001   0.00000  -0.00255  -0.00255  -3.09262
   D18       -0.99586   0.00004   0.00000  -0.00167  -0.00167  -0.99753
   D19       -1.01669  -0.00002   0.00000  -0.00249  -0.00249  -1.01917
   D20        1.09191  -0.00004   0.00000  -0.00274  -0.00274   1.08917
   D21       -3.09707   0.00001   0.00000  -0.00186  -0.00186  -3.09892
   D22        3.13466  -0.00002   0.00000  -0.00251  -0.00251   3.13215
   D23       -1.03993  -0.00004   0.00000  -0.00276  -0.00276  -1.04269
   D24        1.05428   0.00001   0.00000  -0.00188  -0.00188   1.05240
   D25        1.26881  -0.00027   0.00000  -0.01892  -0.01892   1.24988
   D26       -2.95529  -0.00005   0.00000  -0.01380  -0.01380  -2.96908
   D27       -2.88511  -0.00021   0.00000  -0.01830  -0.01830  -2.90341
   D28       -0.82602   0.00001   0.00000  -0.01318  -0.01317  -0.83919
   D29       -0.72982  -0.00024   0.00000  -0.01855  -0.01855  -0.74837
   D30        1.32927  -0.00002   0.00000  -0.01342  -0.01342   1.31585
         Item               Value     Threshold  Converged?
 Maximum Force            0.002965     0.000450     NO 
 RMS     Force            0.000548     0.000300     NO 
 Maximum Displacement     0.036716     0.001800     NO 
 RMS     Displacement     0.009962     0.001200     NO 
 Predicted change in Energy=-3.925048D-05
 Lowest energy point so far.  Saving SCF results.
 GradGradGradGradGradGradGradGradGradGradGradGradGradGradGradGradGradGrad

 Leave Link  103 at Thu Sep  8 14:54:33 2022, MaxMem= 24159191040 cpu:         5.8
 (Enter /public/home/users/caep010/software/Gaussian09/g09/l202.exe)
                          Input orientation:                          
 ---------------------------------------------------------------------
 Center     Atomic      Atomic             Coordinates (Angstroms)
 Number     Number       Type             X           Y           Z
 ---------------------------------------------------------------------
      1          6           0        1.934576   -0.066809    0.873025
      2          8           0        0.553669   -0.333411    1.061814
      3          6           0       -0.299626   -0.121771   -0.062719
      4          6           0       -0.253382    1.332166   -0.558324
      5          6           0       -1.695074   -0.471544    0.472967
      6          7           0        0.139699   -0.997493   -1.153945
      7          1           0        2.451284   -0.490603    1.738135
      8          1           0        2.149441    1.011081    0.838884
      9          1           0        2.313255   -0.534120   -0.042260
     10          1           0       -1.030834    1.509088   -1.308960
     11          1           0        0.713133    1.563774   -1.012737
     12          1           0       -0.425310    2.015301    0.277476
     13          1           0       -1.980576    0.197460    1.290104
     14          1           0       -2.444254   -0.395011   -0.321219
     15          1           0       -1.693991   -1.495332    0.860008
     16          1           0       -0.093717   -1.963305   -0.933513
     17          1           0       -0.338293   -0.759472   -2.018835
 ---------------------------------------------------------------------
                    Distance matrix (angstroms):
                    1          2          3          4          5
     1  C    0.000000
     2  O    1.419021   0.000000
     3  C    2.422869   1.427403   0.000000
     4  C    2.965308   2.459742   1.536782   0.000000
     5  C    3.673992   2.328662   1.535114   2.528914   0.000000
     6  N    2.862930   2.349887   1.466516   2.436512   2.507959
     7  H    1.093163   2.020658   3.308567   3.988914   4.335124
     8  H    1.099627   2.098534   2.845026   2.798008   4.136710
     9  H    1.095228   2.086961   2.645298   3.215117   4.041792
    10  H    4.004767   3.394999   2.178872   1.095073   2.745793
    11  H    2.776116   2.815759   2.183867   1.092833   3.485584
    12  H    3.202955   2.662712   2.167628   1.093067   2.799092
    13  H    3.946164   2.599296   2.181200   2.772624   1.093979
    14  H    4.550614   3.302139   2.177364   2.799872   1.094468
    15  H    3.899660   2.538260   2.163873   3.475884   1.094506
    16  H    3.312741   2.656500   2.047420   3.320601   2.601515
    17  H    3.742802   3.235355   2.057801   2.552499   2.851813
                    6          7          8          9         10
     6  N    0.000000
     7  H    3.736910   0.000000
     8  H    3.470563   1.776181   0.000000
     9  H    2.484936   1.786268   1.786308   0.000000
    10  H    2.770763   5.040704   3.869805   4.118514   0.000000
    11  H    2.628470   3.848237   2.407686   2.811294   1.769790
    12  H    3.383066   4.085079   2.820103   3.755199   1.771917
    13  H    3.449182   4.507277   4.233512   4.554930   3.062272
    14  H    2.780869   5.311908   4.942163   4.767711   2.568849
    15  H    2.768803   4.354755   4.588521   4.218535   3.764404
    16  H    1.017775   3.972856   4.125545   2.937758   3.616167
    17  H    1.016447   4.687094   4.182133   3.314867   2.475864
                   11         12         13         14         15
    11  H    0.000000
    12  H    1.778927   0.000000
    13  H    3.798152   2.597848   0.000000
    14  H    3.779435   3.200653   1.778308   0.000000
    15  H    4.319670   3.778021   1.769932   1.780140   0.000000
    16  H    3.619057   4.172021   3.629547   2.891276   2.448794
    17  H    2.741386   3.602775   3.816004   2.729434   3.266059
                   16         17
    16  H    0.000000
    17  H    1.639194   0.000000
 Stoichiometry    C4H11NO
 Framework group  C1[X(C4H11NO)]
 Deg. of freedom    45
 Full point group                 C1      NOp   1
 RotChk:  IX=0 Diff= 1.13D-02
 Largest Abelian subgroup         C1      NOp   1
 Largest concise Abelian subgroup C1      NOp   1
                         Standard orientation:                         
 ---------------------------------------------------------------------
 Center     Atomic      Atomic             Coordinates (Angstroms)
 Number     Number       Type             X           Y           Z
 ---------------------------------------------------------------------
      1          6           0       -2.027508   -0.105585   -0.082669
      2          8           0       -0.777658   -0.627046   -0.506432
      3          6           0        0.390825    0.002675    0.018523
      4          6           0        0.455109    1.495134   -0.342215
      5          6           0        1.542811   -0.768260   -0.641146
      6          7           0        0.371459   -0.120446    1.479734
      7          1           0       -2.784604   -0.831528   -0.390594
      8          1           0       -2.260397    0.857004   -0.560544
      9          1           0       -2.063670    0.019252    1.004820
     10          1           0        1.429702    1.915743   -0.073064
     11          1           0       -0.314778    2.062572    0.186533
     12          1           0        0.314300    1.623676   -1.418526
     13          1           0        1.515810   -0.658564   -1.729276
     14          1           0        2.509032   -0.406518   -0.275879
     15          1           0        1.453228   -1.833724   -0.407254
     16          1           0        0.555871   -1.085618    1.744879
     17          1           0        1.099144    0.453405    1.897265
 ---------------------------------------------------------------------
 Rotational constants (GHZ):      4.4889627      2.8079464      2.7467838
 Leave Link  202 at Thu Sep  8 14:54:33 2022, MaxMem= 24159191040 cpu:         0.3
 (Enter /public/home/users/caep010/software/Gaussian09/g09/l301.exe)
 Standard basis: 6-31G(d,p) (6D, 7F)
 Ernie: Thresh=  0.10000D-02 Tol=  0.10000D-05 Strict=F.
 There are   145 symmetry adapted cartesian basis functions of A   symmetry.
 There are   145 symmetry adapted basis functions of A   symmetry.
   145 basis functions,   245 primitive gaussians,   145 cartesian basis functions
    25 alpha electrons       25 beta electrons
       nuclear repulsion energy       272.7458053462 Hartrees.
 IExCor=  402 DFT=T Ex+Corr=B3LYP ExCW=0 ScaHFX=  0.200000
 ScaDFX=  0.800000  0.720000  1.000000  0.810000 ScalE2=  1.000000  1.000000
 IRadAn=      0 IRanWt=     -1 IRanGd=            0 ICorTp=0 IEmpDi=  4
 NAtoms=   17 NActive=   17 NUniq=   17 SFac= 1.00D+00 NAtFMM=   60 NAOKFM=F Big=F
 Integral buffers will be    131072 words long.
 Raffenetti 2 integral format.
 Two-electron integral symmetry is turned on.
 Leave Link  301 at Thu Sep  8 14:54:33 2022, MaxMem= 24159191040 cpu:         1.7
 (Enter /public/home/users/caep010/software/Gaussian09/g09/l302.exe)
 NPDir=0 NMtPBC=     1 NCelOv=     1 NCel=       1 NClECP=     1 NCelD=      1
         NCelK=      1 NCelE2=     1 NClLst=     1 CellRange=     0.0.
 One-electron integrals computed using PRISM.
 NBasis=   145 RedAO= T EigKep=  2.94D-03  NBF=   145
 NBsUse=   145 1.00D-06 EigRej= -1.00D+00 NBFU=   145
 Precomputing XC quadrature grid using
 IXCGrd= 4 IRadAn=           0 IRanWt=          -1 IRanGd=           0 AccXCQ= 0.00D+00.
 Generated NRdTot=       0 NPtTot=           0 NUsed=           0 NTot=          32
 NSgBfM=   145   145   145   145   145 MxSgAt=    17 MxSgA2=    17.
 Leave Link  302 at Thu Sep  8 14:54:34 2022, MaxMem= 24159191040 cpu:        11.7
 (Enter /public/home/users/caep010/software/Gaussian09/g09/l303.exe)
 DipDrv:  MaxL=1.
 Leave Link  303 at Thu Sep  8 14:54:34 2022, MaxMem= 24159191040 cpu:         0.7
 (Enter /public/home/users/caep010/software/Gaussian09/g09/l401.exe)
 Initial guess from the checkpoint file:  "B3LYP6-31Gdp.Frag_453.chk"
 B after Tr=     0.000000    0.000000   -0.000000
         Rot=    0.999993   -0.002562    0.001603    0.002290 Ang=  -0.43 deg.
 Guess basis will be translated and rotated to current coordinates.
 JPrj=2 DoOrth=T DoCkMO=T.
 Generating alternative initial guess.
 ExpMin= 1.61D-01 ExpMax= 5.48D+03 ExpMxC= 8.25D+02 IAcc=1 IRadAn=         1 AccDes= 0.00D+00
 Harris functional with IExCor=  402 and IRadAn=       1 diagonalized for initial guess.
 HarFok:  IExCor=  402 AccDes= 0.00D+00 IRadAn=         1 IDoV= 1 UseB2=F ITyADJ=14
 ICtDFT=  3500011 ScaDFX=  1.000000  1.000000  1.000000  1.000000
 FoFCou: FMM=F IPFlag=           0 FMFlag=      100000 FMFlg1=           0
         NFxFlg=           0 DoJE=T BraDBF=F KetDBF=T FulRan=T
         wScrn=  0.000000 ICntrl=     500 IOpCl=  0 I1Cent=   200000004 NGrid=           0
         NMat0=    1 NMatS0=      1 NMatT0=    0 NMatD0=    1 NMtDS0=    0 NMtDT0=    0
 Petite list used in FoFCou.
 Harris En= -289.083159464796    
 Leave Link  401 at Thu Sep  8 14:54:34 2022, MaxMem= 24159191040 cpu:        14.3
 (Enter /public/home/users/caep010/software/Gaussian09/g09/l502.exe)
 Closed shell SCF:
 Using DIIS extrapolation, IDIIS=  1040.
 Integral symmetry usage will be decided dynamically.
 Keep R1 ints in memory in canonical form, NReq=57669771.
 IVT=       87371 IEndB=       87371 NGot= 24159191040 MDV= 24103077265
 LenX= 24103077265 LenY= 24103055799
 Requested convergence on RMS density matrix=1.00D-08 within 128 cycles.
 Requested convergence on MAX density matrix=1.00D-06.
 Requested convergence on             energy=1.00D-06.
 No special actions if energy rises.
 FoFCou: FMM=F IPFlag=           0 FMFlag=           0 FMFlg1=           0
         NFxFlg=           0 DoJE=F BraDBF=F KetDBF=F FulRan=T
         wScrn=  0.000000 ICntrl=     600 IOpCl=  0 I1Cent=           0 NGrid=           0
         NMat0=    1 NMatS0=  10585 NMatT0=    0 NMatD0=    1 NMtDS0=    0 NMtDT0=    0
 Symmetry not used in FoFCou.
 Integral accuracy reduced to 1.0D-05 until final iterations.

 Cycle   1  Pass 0  IDiag  1:
 E= -289.029693646710    
 DIIS: error= 8.84D-04 at cycle   1 NSaved=   1.
 NSaved= 1 IEnMin= 1 EnMin= -289.029693646710     IErMin= 1 ErrMin= 8.84D-04
 ErrMax= 8.84D-04  0.00D+00 EMaxC= 1.00D-01 BMatC= 8.94D-05 BMatP= 8.94D-05
 IDIUse=3 WtCom= 9.91D-01 WtEn= 8.84D-03
 Coeff-Com:  0.100D+01
 Coeff-En:   0.100D+01
 Coeff:      0.100D+01
 Gap=     1.608 Goal=   None    Shift=    0.000
 RMSDP=1.01D-04 MaxDP=3.04D-03              OVMax= 3.83D-03

 Cycle   2  Pass 0  IDiag  1:
 E= -289.029844603596     Delta-E=       -0.000150956885 Rises=F Damp=F
 DIIS: error= 6.67D-05 at cycle   2 NSaved=   2.
 NSaved= 2 IEnMin= 2 EnMin= -289.029844603596     IErMin= 2 ErrMin= 6.67D-05
 ErrMax= 6.67D-05  0.00D+00 EMaxC= 1.00D-01 BMatC= 1.52D-06 BMatP= 8.94D-05
 IDIUse=1 WtCom= 1.00D+00 WtEn= 0.00D+00
 Coeff-Com: -0.523D-01 0.105D+01
 Coeff:     -0.523D-01 0.105D+01
 Gap=     0.315 Goal=   None    Shift=    0.000
 RMSDP=1.89D-05 MaxDP=3.44D-04 DE=-1.51D-04 OVMax= 6.55D-04

 Cycle   3  Pass 0  IDiag  1:
 E= -289.029845572293     Delta-E=       -0.000000968698 Rises=F Damp=F
 DIIS: error= 6.39D-05 at cycle   3 NSaved=   3.
 NSaved= 3 IEnMin= 3 EnMin= -289.029845572293     IErMin= 3 ErrMin= 6.39D-05
 ErrMax= 6.39D-05  0.00D+00 EMaxC= 1.00D-01 BMatC= 1.44D-06 BMatP= 1.52D-06
 IDIUse=1 WtCom= 1.00D+00 WtEn= 0.00D+00
 Coeff-Com: -0.409D-01 0.547D+00 0.493D+00
 Coeff:     -0.409D-01 0.547D+00 0.493D+00
 Gap=     0.314 Goal=   None    Shift=    0.000
 RMSDP=9.33D-06 MaxDP=2.34D-04 DE=-9.69D-07 OVMax= 2.54D-04

 Initial convergence to 1.0D-05 achieved.  Increase integral accuracy.
 Cycle   4  Pass 1  IDiag  1:
 E= -289.029891825648     Delta-E=       -0.000046253354 Rises=F Damp=F
 DIIS: error= 1.19D-05 at cycle   1 NSaved=   1.
 NSaved= 1 IEnMin= 1 EnMin= -289.029891825648     IErMin= 1 ErrMin= 1.19D-05
 ErrMax= 1.19D-05  0.00D+00 EMaxC= 1.00D-01 BMatC= 7.51D-08 BMatP= 7.51D-08
 IDIUse=1 WtCom= 1.00D+00 WtEn= 0.00D+00
 Coeff-Com:  0.100D+01
 Coeff:      0.100D+01
 Gap=     0.315 Goal=   None    Shift=    0.000
 RMSDP=9.33D-06 MaxDP=2.34D-04 DE=-4.63D-05 OVMax= 9.60D-05

 Cycle   5  Pass 1  IDiag  1:
 E= -289.029891821596     Delta-E=        0.000000004051 Rises=F Damp=F
 DIIS: error= 1.76D-05 at cycle   2 NSaved=   2.
 NSaved= 2 IEnMin= 1 EnMin= -289.029891825648     IErMin= 1 ErrMin= 1.19D-05
 ErrMax= 1.76D-05  0.00D+00 EMaxC= 1.00D-01 BMatC= 9.93D-08 BMatP= 7.51D-08
 IDIUse=1 WtCom= 1.00D+00 WtEn= 0.00D+00
 Coeff-Com:  0.539D+00 0.461D+00
 Coeff:      0.539D+00 0.461D+00
 Gap=     0.314 Goal=   None    Shift=    0.000
 RMSDP=2.26D-06 MaxDP=6.13D-05 DE= 4.05D-09 OVMax= 6.38D-05

 Cycle   6  Pass 1  IDiag  1:
 E= -289.029891897192     Delta-E=       -0.000000075596 Rises=F Damp=F
 DIIS: error= 3.97D-06 at cycle   3 NSaved=   3.
 NSaved= 3 IEnMin= 3 EnMin= -289.029891897192     IErMin= 3 ErrMin= 3.97D-06
 ErrMax= 3.97D-06  0.00D+00 EMaxC= 1.00D-01 BMatC= 3.34D-09 BMatP= 7.51D-08
 IDIUse=1 WtCom= 1.00D+00 WtEn= 0.00D+00
 Coeff-Com:  0.267D-01 0.157D+00 0.816D+00
 Coeff:      0.267D-01 0.157D+00 0.816D+00
 Gap=     0.314 Goal=   None    Shift=    0.000
 RMSDP=3.85D-07 MaxDP=1.38D-05 DE=-7.56D-08 OVMax= 1.25D-05

 Cycle   7  Pass 1  IDiag  1:
 E= -289.029891899138     Delta-E=       -0.000000001946 Rises=F Damp=F
 DIIS: error= 1.17D-06 at cycle   4 NSaved=   4.
 NSaved= 4 IEnMin= 4 EnMin= -289.029891899138     IErMin= 4 ErrMin= 1.17D-06
 ErrMax= 1.17D-06  0.00D+00 EMaxC= 1.00D-01 BMatC= 5.65D-10 BMatP= 3.34D-09
 IDIUse=1 WtCom= 1.00D+00 WtEn= 0.00D+00
 Coeff-Com: -0.947D-02 0.689D-01 0.453D+00 0.487D+00
 Coeff:     -0.947D-02 0.689D-01 0.453D+00 0.487D+00
 Gap=     0.314 Goal=   None    Shift=    0.000
 RMSDP=1.61D-07 MaxDP=4.51D-06 DE=-1.95D-09 OVMax= 4.86D-06

 Cycle   8  Pass 1  IDiag  1:
 E= -289.029891899580     Delta-E=       -0.000000000442 Rises=F Damp=F
 DIIS: error= 2.59D-07 at cycle   5 NSaved=   5.
 NSaved= 5 IEnMin= 5 EnMin= -289.029891899580     IErMin= 5 ErrMin= 2.59D-07
 ErrMax= 2.59D-07  0.00D+00 EMaxC= 1.00D-01 BMatC= 1.90D-11 BMatP= 5.65D-10
 IDIUse=1 WtCom= 1.00D+00 WtEn= 0.00D+00
 Coeff-Com: -0.570D-02 0.169D-01 0.120D+00 0.212D+00 0.657D+00
 Coeff:     -0.570D-02 0.169D-01 0.120D+00 0.212D+00 0.657D+00
 Gap=     0.314 Goal=   None    Shift=    0.000
 RMSDP=3.59D-08 MaxDP=7.18D-07 DE=-4.42D-10 OVMax= 1.02D-06

 Cycle   9  Pass 1  IDiag  1:
 E= -289.029891899594     Delta-E=       -0.000000000014 Rises=F Damp=F
 DIIS: error= 3.96D-08 at cycle   6 NSaved=   6.
 NSaved= 6 IEnMin= 6 EnMin= -289.029891899594     IErMin= 6 ErrMin= 3.96D-08
 ErrMax= 3.96D-08  0.00D+00 EMaxC= 1.00D-01 BMatC= 6.26D-13 BMatP= 1.90D-11
 IDIUse=1 WtCom= 1.00D+00 WtEn= 0.00D+00
 Coeff-Com: -0.196D-02 0.472D-02 0.340D-01 0.696D-01 0.267D+00 0.627D+00
 Coeff:     -0.196D-02 0.472D-02 0.340D-01 0.696D-01 0.267D+00 0.627D+00
 Gap=     0.314 Goal=   None    Shift=    0.000
 RMSDP=7.52D-09 MaxDP=1.74D-07 DE=-1.44D-11 OVMax= 1.84D-07

 SCF Done:  E(RB3LYP) =  -289.029891900     A.U. after    9 cycles
            NFock=  9  Conv=0.75D-08     -V/T= 2.0094
 KE= 2.863342893020D+02 PE=-1.218353225220D+03 EE= 3.702432386718D+02
 Leave Link  502 at Thu Sep  8 14:54:37 2022, MaxMem= 24159191040 cpu:        42.8
 (Enter /public/home/users/caep010/software/Gaussian09/g09/l701.exe)
 Compute integral first derivatives.
 ... and contract with generalized density number  0.
 Leave Link  701 at Thu Sep  8 14:54:37 2022, MaxMem= 24159191040 cpu:        10.8
 (Enter /public/home/users/caep010/software/Gaussian09/g09/l702.exe)
 L702 exits ... SP integral derivatives will be done elsewhere.
 Leave Link  702 at Thu Sep  8 14:54:37 2022, MaxMem= 24159191040 cpu:         0.6
 (Enter /public/home/users/caep010/software/Gaussian09/g09/l703.exe)
 Compute integral first derivatives, UseDBF=F ICtDFT=           0.
 Integral derivatives from FoFJK, PRISM(SPDF).
 Calling FoFJK, ICntrl=      2127 FMM=F ISym2X=0 I1Cent= 0 IOpClX= 0 NMat=1 NMatS=1 NMatT=0.
 FoFJK:  IHMeth= 1 ICntrl=    2127 DoSepK=F KAlg= 0 I1Cent=   0 FoldK=F
 IRaf=         0 NMat=   1 IRICut=       1 DoRegI=T DoRafI=F ISym2E= 0.
 FoFCou: FMM=F IPFlag=           0 FMFlag=      100000 FMFlg1=         800
         NFxFlg=           0 DoJE=F BraDBF=F KetDBF=F FulRan=T
         wScrn=  0.000000 ICntrl=    2127 IOpCl=  0 I1Cent=           0 NGrid=           0
         NMat0=    1 NMatS0=      1 NMatT0=    0 NMatD0=    1 NMtDS0=    0 NMtDT0=    0
 Symmetry not used in FoFCou.
 Leave Link  703 at Thu Sep  8 14:54:38 2022, MaxMem= 24159191040 cpu:        13.6
 (Enter /public/home/users/caep010/software/Gaussian09/g09/l716.exe)
 Dipole        = 4.61955421D-01 2.37327722D-01 2.53498645D-01
 ***** Axes restored to original set *****
 -------------------------------------------------------------------
 Center     Atomic                   Forces (Hartrees/Bohr)
 Number     Number              X              Y              Z
 -------------------------------------------------------------------
      1        6           0.001051522    0.000125249   -0.000443355
      2        8          -0.000489842   -0.000140600    0.000739066
      3        6          -0.000523743   -0.000052572   -0.001154192
      4        6           0.000201108   -0.000147952    0.000276287
      5        6           0.000206922   -0.000028794    0.000162972
      6        7           0.000154575    0.000290542    0.000004622
      7        1          -0.000197673   -0.000036249    0.000060681
      8        1          -0.000184733   -0.000061263   -0.000012659
      9        1          -0.000184161    0.000083528    0.000045231
     10        1           0.000020687   -0.000024738   -0.000012338
     11        1           0.000009121   -0.000031109    0.000032618
     12        1          -0.000022673   -0.000023842    0.000023339
     13        1          -0.000011477    0.000009322    0.000019880
     14        1           0.000034652    0.000031544   -0.000010875
     15        1          -0.000017952   -0.000002961   -0.000029617
     16        1           0.000051621    0.000076665    0.000133090
     17        1          -0.000097955   -0.000066770    0.000165249
 -------------------------------------------------------------------
 Cartesian Forces:  Max     0.001154192 RMS     0.000288745
 Leave Link  716 at Thu Sep  8 14:54:38 2022, MaxMem= 24159191040 cpu:         0.6
 (Enter /public/home/users/caep010/software/Gaussian09/g09/l103.exe)

 GradGradGradGradGradGradGradGradGradGradGradGradGradGradGradGradGradGrad
 Berny optimization.
 Using GEDIIS/GDIIS optimizer.
 FormGI is forming the generalized inverse of G from B-inverse, IUseBI=4.
 Internal  Forces:  Max     0.000642514 RMS     0.000145018
 Search for a local minimum.
 Step number   2 out of a maximum of   84
 All quantities printed in internal units (Hartrees-Bohrs-Radians)
 RMS Force = .14502D-03 SwitMx=.10000D-02 MixMth= 2
 Mixed Optimization -- En-DIIS/RFO-DIIS
 Swapping is turned off.
 Update second derivatives using D2CorX and points    1    2
 DE= -4.30D-05 DEPred=-3.93D-05 R= 1.10D+00
 TightC=F SS=  1.41D+00  RLast= 5.89D-02 DXNew= 5.0454D-01 1.7674D-01
 Trust test= 1.10D+00 RLast= 5.89D-02 DXMaxT set to 3.00D-01
 ITU=  1  0
     Eigenvalues ---    0.00274   0.00312   0.00675   0.01370   0.01488
     Eigenvalues ---    0.04333   0.04868   0.05494   0.05512   0.05612
     Eigenvalues ---    0.05678   0.06273   0.07394   0.10013   0.10602
     Eigenvalues ---    0.15675   0.16000   0.16000   0.16000   0.16000
     Eigenvalues ---    0.16000   0.16000   0.16000   0.16000   0.16000
     Eigenvalues ---    0.16188   0.16417   0.17670   0.25003   0.28917
     Eigenvalues ---    0.29447   0.33714   0.34148   0.34273   0.34328
     Eigenvalues ---    0.34364   0.34379   0.34434   0.34484   0.34523
     Eigenvalues ---    0.35981   0.41546   0.42490   0.45031   0.48152
 En-DIIS/RFO-DIIS IScMMF=        0 using points:     2    1
 RFO step:  Lambda=-4.04818908D-06.
 NNeg= 0 NP= 2 Switch=  2.50D-03 Rises=F DC=  4.30D-05 SmlDif=  1.00D-05
 RMS Error=  0.4993928480D-03 NUsed= 2 EDIIS=F
 DidBck=F Rises=F RFO-DIIS coefs:    1.18484   -0.18484
 Iteration  1 RMS(Cart)=  0.00641976 RMS(Int)=  0.00003501
 Iteration  2 RMS(Cart)=  0.00003649 RMS(Int)=  0.00000091
 Iteration  3 RMS(Cart)=  0.00000000 RMS(Int)=  0.00000091
 ITry= 1 IFail=0 DXMaxC= 2.47D-02 DCOld= 1.00D+10 DXMaxT= 3.00D-01 DXLimC= 3.00D+00 Rises=F
 Variable       Old X    -DE/DX   Delta X   Delta X   Delta X     New X
                                 (Linear)    (Quad)   (Total)
    R1        2.68156   0.00054   0.00127   0.00162   0.00289   2.68445
    R2        2.06578  -0.00003  -0.00003  -0.00011  -0.00014   2.06564
    R3        2.07799  -0.00009   0.00003  -0.00033  -0.00029   2.07770
    R4        2.06968  -0.00014   0.00002  -0.00048  -0.00046   2.06922
    R5        2.69740   0.00031   0.00126   0.00103   0.00228   2.69968
    R6        2.90410  -0.00031   0.00027  -0.00125  -0.00098   2.90312
    R7        2.90095  -0.00014   0.00031  -0.00055  -0.00025   2.90070
    R8        2.77131  -0.00037   0.00024  -0.00120  -0.00096   2.77036
    R9        2.06939  -0.00001   0.00010  -0.00001   0.00008   2.06947
   R10        2.06516  -0.00001   0.00008  -0.00002   0.00006   2.06521
   R11        2.06560  -0.00000   0.00006   0.00000   0.00006   2.06566
   R12        2.06732   0.00003   0.00003   0.00010   0.00013   2.06745
   R13        2.06824  -0.00001   0.00013  -0.00003   0.00010   2.06835
   R14        2.06832  -0.00001   0.00008  -0.00003   0.00005   2.06837
   R15        1.92332  -0.00005   0.00054  -0.00007   0.00048   1.92379
   R16        1.92081  -0.00012   0.00059  -0.00024   0.00035   1.92116
    A1        1.85652  -0.00022  -0.00021  -0.00155  -0.00176   1.85476
    A2        1.95891  -0.00019   0.00030  -0.00151  -0.00121   1.95770
    A3        1.94710  -0.00010   0.00010  -0.00073  -0.00063   1.94648
    A4        1.88833   0.00019  -0.00014   0.00137   0.00122   1.88955
    A5        1.90977   0.00022  -0.00005   0.00188   0.00183   1.91160
    A6        1.90153   0.00011  -0.00001   0.00066   0.00064   1.90217
    A7        2.03652  -0.00064   0.00015  -0.00303  -0.00287   2.03365
    A8        1.95666  -0.00013   0.00008  -0.00231  -0.00223   1.95443
    A9        1.80772  -0.00004  -0.00005  -0.00108  -0.00113   1.80658
   A10        1.89504  -0.00000  -0.00001  -0.00084  -0.00084   1.89420
   A11        1.93420   0.00010  -0.00006   0.00137   0.00131   1.93551
   A12        1.89228   0.00002   0.00003   0.00095   0.00098   1.89326
   A13        1.97786   0.00005   0.00000   0.00170   0.00170   1.97956
   A14        1.93109  -0.00001   0.00033  -0.00004   0.00029   1.93138
   A15        1.94037  -0.00006  -0.00006  -0.00049  -0.00055   1.93982
   A16        1.91767  -0.00002  -0.00008  -0.00011  -0.00019   1.91748
   A17        1.88455   0.00003  -0.00004   0.00009   0.00005   1.88460
   A18        1.88756   0.00003  -0.00006   0.00033   0.00027   1.88784
   A19        1.90139   0.00004  -0.00008   0.00024   0.00016   1.90154
   A20        1.93750   0.00001  -0.00004   0.00010   0.00006   1.93757
   A21        1.93167  -0.00007   0.00024  -0.00062  -0.00038   1.93129
   A22        1.91306   0.00004   0.00007   0.00038   0.00046   1.91352
   A23        1.89716   0.00001  -0.00014  -0.00012  -0.00026   1.89690
   A24        1.88404  -0.00000  -0.00011   0.00022   0.00011   1.88415
   A25        1.89936   0.00001  -0.00003   0.00005   0.00002   1.89938
   A26        1.91431  -0.00020   0.00001  -0.00192  -0.00191   1.91240
   A27        1.93097  -0.00010   0.00034  -0.00113  -0.00079   1.93018
   A28        1.87408   0.00008   0.00060  -0.00020   0.00040   1.87448
    D1       -2.92334  -0.00002   0.00021   0.00047   0.00068  -2.92266
    D2        1.29786  -0.00001   0.00035   0.00060   0.00095   1.29881
    D3       -0.84192   0.00006   0.00008   0.00138   0.00146  -0.84046
    D4       -1.04014   0.00001  -0.00229  -0.00138  -0.00366  -1.04380
    D5       -3.12622  -0.00001  -0.00223  -0.00119  -0.00342  -3.12963
    D6        1.05002  -0.00005  -0.00220  -0.00218  -0.00438   1.04564
    D7       -2.98004  -0.00002  -0.00212  -0.00673  -0.00885  -2.98889
    D8        1.20919  -0.00001  -0.00224  -0.00650  -0.00874   1.20044
    D9       -0.89700  -0.00001  -0.00204  -0.00641  -0.00845  -0.90546
   D10       -0.96971  -0.00010  -0.00218  -0.00862  -0.01080  -0.98050
   D11       -3.06366  -0.00008  -0.00230  -0.00839  -0.01069  -3.07435
   D12        1.11333  -0.00008  -0.00210  -0.00830  -0.01040   1.10293
   D13        1.21137   0.00005  -0.00219  -0.00489  -0.00707   1.20430
   D14       -0.88259   0.00006  -0.00231  -0.00466  -0.00697  -0.88955
   D15       -2.98878   0.00006  -0.00211  -0.00457  -0.00668  -2.99545
   D16        1.08222  -0.00003  -0.00043  -0.00386  -0.00429   1.07793
   D17       -3.09262  -0.00006  -0.00047  -0.00436  -0.00483  -3.09746
   D18       -0.99753  -0.00006  -0.00031  -0.00444  -0.00475  -1.00228
   D19       -1.01917   0.00009  -0.00046  -0.00119  -0.00165  -1.02083
   D20        1.08917   0.00007  -0.00051  -0.00169  -0.00220   1.08697
   D21       -3.09892   0.00007  -0.00034  -0.00177  -0.00211  -3.10104
   D22        3.13215  -0.00004  -0.00046  -0.00468  -0.00515   3.12700
   D23       -1.04269  -0.00006  -0.00051  -0.00518  -0.00569  -1.04839
   D24        1.05240  -0.00007  -0.00035  -0.00526  -0.00561   1.04679
   D25        1.24988   0.00000  -0.00350  -0.00985  -0.01335   1.23653
   D26       -2.96908  -0.00008  -0.00255  -0.01197  -0.01452  -2.98361
   D27       -2.90341  -0.00015  -0.00338  -0.01259  -0.01598  -2.91939
   D28       -0.83919  -0.00023  -0.00244  -0.01471  -0.01715  -0.85634
   D29       -0.74837   0.00003  -0.00343  -0.00896  -0.01239  -0.76076
   D30        1.31585  -0.00005  -0.00248  -0.01108  -0.01356   1.30229
         Item               Value     Threshold  Converged?
 Maximum Force            0.000643     0.000450     NO 
 RMS     Force            0.000145     0.000300     YES
 Maximum Displacement     0.024720     0.001800     NO 
 RMS     Displacement     0.006423     0.001200     NO 
 Predicted change in Energy=-9.231787D-06
 Lowest energy point so far.  Saving SCF results.
 GradGradGradGradGradGradGradGradGradGradGradGradGradGradGradGradGradGrad

 Leave Link  103 at Thu Sep  8 14:54:38 2022, MaxMem= 24159191040 cpu:         1.7
 (Enter /public/home/users/caep010/software/Gaussian09/g09/l202.exe)
                          Input orientation:                          
 ---------------------------------------------------------------------
 Center     Atomic      Atomic             Coordinates (Angstroms)
[...]
         Item               Value     Threshold  Converged?
 Maximum Force            0.000056     0.000450     YES
 RMS     Force            0.000015     0.000300     YES
 Maximum Displacement     0.001962     0.001800     NO 
 RMS     Displacement     0.000442     0.001200     YES
 Predicted change in Energy=-6.476640D-08
 GradGradGradGradGradGradGradGradGradGradGradGradGradGradGradGradGradGrad

 Leave Link  103 at Thu Sep  8 14:55:09 2022, MaxMem= 24159191040 cpu:         1.9
 (Enter /public/home/users/caep010/software/Gaussian09/g09/l9999.exe)
 1\1\GINC-B1334\Freq\RB3LYP\6-31G(d,p)\C4H11N1O1\ROOT\08-Sep-2022\0\\#P
  Geom=AllCheck Guess=TCheck SCRF=Check GenChk RB3LYP/6-31G(d,p) Freq\\
 Frag_453\\0,1\C,1.934533866,-0.0663681983,0.8701306927\O,0.5526012646,
 -0.3355018051,1.060315709\C,-0.3007477048,-0.1209001405,-0.0651582891\
 C,-0.2511888062,1.3333005196,-0.5568005409\C,-1.6959618457,-0.46980529
 97,0.4708926182\N,0.1402404474,-0.9955489414,-1.1559148612\H,2.4516718
 84,-0.497626918,1.731127985\H,2.1467417268,1.0119493139,0.8450686128\H
 ,2.3098977639,-0.5252557005,-0.0502913218\H,-1.0207838512,1.5110190596
 ,-1.3153871134\H,0.719444411,1.5662108473,-1.00130361\H,-0.4325963796,
 2.0145453158,0.2785105662\H,-1.9788200247,0.1968889775,1.290837332\H,-
 2.4460577044,-0.387957588,-0.3219945069\H,-1.6973741428,-1.4951668618,
 0.8535177036\H,-0.0710584548,-1.9630637582,-0.9206425147\H,-0.36054244
 95,-0.7767198221,-2.0130074615\\Version=ES64L-G09RevE.01\State=1-A\HF=
 -289.0298991\RMSD=2.533e-09\RMSF=3.013e-05\ZeroPoint=0.153384\Thermal=
 0.1612776\Dipole=-0.3225465,0.0415577,-0.4650879\DipoleDeriv=0.7956107
 ,0.0700762,0.1535795,0.1184401,0.3864325,0.0379122,-0.0876691,-0.01238
 18,0.2417267,-1.1637707,-0.0577462,-0.2691237,-0.0068558,-0.4946898,0.
 0153879,-0.2546112,0.0000024,-0.6772244,0.8796104,-0.0043121,0.0852149
 ,-0.1024294,0.6730903,0.1179717,0.3051597,0.1428483,0.8980963,0.019004
 7,-0.0381601,0.0337865,0.0226441,-0.1249539,0.0611793,-0.0443254,0.037
 5289,0.0145315,-0.0899581,-0.012131,0.061407,-0.062974,0.0403218,0.020
 9,0.0632364,-0.0173296,0.0365437,-0.5979049,0.1048684,0.277083,0.06827
 ,-0.3971298,-0.2315141,0.074708,-0.1876975,-0.5381137,-0.0557223,0.023
 258,-0.0878094,0.0390154,0.0236294,0.0746261,-0.1149226,0.0662359,-0.0
 732007,-0.0632843,-0.021724,-0.0238673,-0.1041563,-0.2002602,-0.019242
 3,0.0331127,0.0117451,0.0439219,-0.0114452,0.0178818,0.0294891,0.01963
 36,0.0039544,-0.0555214,0.133194,-0.0483341,-0.0289439,-0.0462472,0.03
 60452,-0.1091863,0.0186902,0.0421565,0.0074377,-0.1116969,0.033421,-0.
 0443387,-0.0842352,-0.0565352,0.0725052,-0.0354531,0.0262251,0.0196902
 ,0.0749511,0.0223967,0.0354192,0.0580673,0.017313,0.02506,0.0080754,-0
 .0294519,-0.0634492,0.030293,-0.0946079,-0.0464634,0.0188857,0.0240549
 ,0.0471861,0.0413457,-0.0153008,-0.0981267,0.0680136,-0.0874275,-0.057
 8144,-0.0676733,-0.0006503,-0.0730358,0.0112097,0.0502353,0.0166303,-0
 .1124015,0.0138987,-0.0692346,0.0408697,0.013711,0.008939,-0.0206061,-
 0.1295284,0.0682194,0.0224929,0.0547698,0.03486,0.2399574,-0.1307558,-
 0.0222202,-0.0420392,0.0087364,0.0185516,0.014638,0.0497898,0.1263565,
 0.1282353,0.0148063,-0.2090075,0.0271896,0.1365332,0.0093475,-0.094172
 5,0.015142,0.1038781\Polar=58.2838659,0.4035313,53.1739605,3.6858066,0
 .168098,53.3982474\PG=C01 [X(C4H11N1O1)]\NImag=0\\0.46862970,-0.024576
 65,0.56486408,0.02701156,-0.00573821,0.61003202,-0.20542378,-0.0341428
 0,0.04075331,0.46213876,-0.02762385,-0.07086475,0.01622338,0.03843943,
 0.12151204,0.00790019,0.01184289,-0.09642396,0.05285008,-0.04834206,0.
 30517655,-0.04286595,0.00450104,-0.03144054,-0.11925304,0.00188575,-0.
 01993067,0.50758615,-0.00333732,-0.00344165,-0.00572763,0.01092457,-0.
 07238760,0.02878719,0.01160296,0.51754704,-0.01805752,-0.00467497,0.00
 834307,-0.04725297,0.02480239,-0.14330281,-0.02620156,-0.01804641,0.47
 004995,0.00365951,0.00334256,-0.00142722,-0.00550956,0.02471409,-0.019
 00111,-0.08378151,-0.01467196,0.00624989,0.58749721,0.00128985,0.00125
 248,0.00017756,0.00608121,-0.00423648,0.00936822,-0.00935290,-0.166795
 56,0.02299616,-0.00170153,0.48126011,0.00157661,0.00017071,-0.00157133
 ,-0.01137288,0.02996415,-0.02142613,0.00450648,0.02745545,-0.08470181,
 -0.00506677,0.04202363,0.57917901,-0.00030044,0.00070766,-0.00286514,-
 0.04557389,-0.00625857,-0.00516316,-0.15352546,-0.02289350,0.03250624,
 -0.00199233,-0.00661395,0.00429835,0.49412485,0.00066595,-0.00009591,0
 .00100215,0.00572344,0.00412115,-0.00033806,-0.03147730,-0.08939268,0.
 01260818,-0.03028369,-0.01086175,0.01376832,-0.02632111,0.58104468,-0.
 00275018,0.00127206,-0.00402495,-0.03672410,-0.00523527,0.00281319,0.0
 3789140,0.01209518,-0.08450923,0.01166884,0.00642531,-0.00275511,0.043
 36736,0.01006587,0.57541872,-0.00368709,-0.00109294,-0.00080289,0.0089
 1319,-0.00958024,-0.01839359,-0.08551409,0.01160480,0.00609829,0.00168
 766,0.00136349,0.00154033,-0.00993516,0.02432913,0.03213532,0.23607258
 ,-0.00118290,0.00066147,-0.00111630,-0.00438990,0.00899667,0.00058276,
 0.05055192,-0.13719105,-0.03867873,0.01329037,-0.03476094,-0.03010870,
 0.00246296,0.00016965,-0.00492426,-0.00447578,0.62240267,0.00570800,0.
 00029188,-0.00214555,-0.01198545,-0.02083479,-0.05514203,0.04917916,-0
 .03065291,-0.13622204,0.00044986,0.00068764,0.00803836,0.01199795,-0.0
 1647557,-0.02049406,0.12121760,-0.07985113,0.59689240,-0.09448838,0.04
 604390,-0.08821868,-0.03334045,0.00965513,-0.03103738,-0.00351478,0.00
 031727,0.00562867,-0.00033998,-0.00061354,0.00020243,-0.00087950,0.000
 32322,-0.00169538,0.00093425,0.00017564,-0.00011986,0.12111306,0.05112
 463,-0.09565121,0.08814289,-0.00494588,0.00483691,-0.00749501,-0.00190
 092,-0.00047944,-0.00063889,-0.00026063,-0.00005414,0.00042321,-0.0001
 4590,0.00024328,-0.00023732,-0.00040664,0.00020104,0.00006609,-0.05018
 409,0.09565513,-0.09768208,0.08680004,-0.22341318,0.00174370,-0.003644
 58,0.00731941,0.00228768,-0.00051140,0.00040755,0.00029379,0.00012001,
 -0.00013375,0.00011386,-0.00000720,0.00013879,-0.00104300,0.00002462,0
 .00006631,0.10518265,-0.09451910,0.23287940,-0.05418358,-0.02869290,-0
 .00087052,-0.02489445,-0.03840176,0.00189294,0.00393264,-0.00348320,0.
 00571134,0.00021332,0.00066159,-0.00109221,-0.00029575,0.00027141,-0.0
 0049188,0.00016463,0.00021127,-0.00083470,0.00400194,0.01386440,0.0010
 8239,0.06791562,-0.03183601,-0.29302293,0.00229633,-0.01545274,0.00096
 142,0.00082460,0.00246382,-0.00093200,0.00344592,-0.00042471,-0.000203
 54,0.00068904,-0.00021355,0.00016228,-0.00033364,-0.00046109,0.0003963
 7,-0.00082942,-0.00030482,-0.01216807,-0.00086735,0.04496722,0.3174809
 9,0.00082375,0.00248352,-0.05388293,0.00348889,0.00577336,0.00269105,-
 0.00051163,-0.00159863,-0.00052567,-0.00024867,0.00022917,0.00044583,-
 0.00006425,0.00020047,0.00001170,-0.00065035,0.00046847,-0.00030939,0.
 00331913,0.02646783,0.00081948,-0.00240443,-0.00636894,0.04861272,-0.0
 7158609,0.03352890,0.06168000,-0.03207386,0.01072082,0.03026526,0.0033
 2937,0.00142227,0.00779029,-0.00050560,-0.00019291,-0.00061663,-0.0000
 0278,-0.00012908,-0.00064959,0.00046734,-0.00127489,-0.00145253,0.0067
 0952,-0.00734338,-0.01139681,0.00397118,-0.00009336,-0.00340739,0.0886
 6111,0.03618555,-0.10423599,-0.09508604,-0.00224859,0.00748591,0.00848
 118,0.00052569,0.00051341,-0.00128218,0.00038197,-0.00008665,-0.000359
 65,0.00013721,-0.00017311,-0.00006148,-0.00143326,-0.00116242,0.000035
 39,-0.00550736,0.00718366,0.01276215,0.00916678,-0.01318162,-0.0278998
 7,-0.03673900,0.10398874,0.07047153,-0.09413220,-0.23772366,0.00997713
 ,0.00062391,0.00050032,-0.00205447,0.00100296,-0.00173303,0.00015399,0
 .00002364,0.00009735,0.00018794,-0.00034193,-0.00015412,-0.00309953,-0
 .00070066,-0.00020200,0.00698181,-0.01170677,-0.01831583,-0.00208008,0
 .00177483,0.00294896,-0.08132851,0.10313226,0.25401922,-0.00014319,-0.
 00051157,-0.00016218,0.00127855,-0.00050593,0.00097939,-0.00041300,-0.
 00149731,0.00121452,-0.17948596,0.02925910,-0.12976564,-0.00012124,-0.
 00043666,0.00042699,0.00002562,0.00033366,0.00010433,0.00016064,0.0002
 6673,-0.00007680,0.00021115,0.00043759,0.00025652,0.00001112,-0.000103
 64,-0.00003359,0.19224330,-0.00282669,-0.00092062,-0.00002570,0.002305
 68,-0.00701752,0.00515127,0.02328871,0.00013839,0.02041623,0.02808384,
 -0.05502412,0.02683405,0.00053196,0.00100596,-0.00022161,-0.00062584,0
 .00088386,-0.00041888,0.00026354,0.00022681,-0.00000123,0.00022726,0.0
 0070293,-0.00021705,0.00025958,0.00003789,-0.00008258,-0.03064068,0.05
 698681,0.00181905,0.00038736,-0.00001116,-0.00113661,0.00409259,-0.000
 57670,-0.00729661,-0.00234746,-0.00862140,-0.12826664,0.02818747,-0.17
 307508,-0.00049556,-0.00042066,-0.00007051,0.00041124,-0.00059854,0.00
 026953,-0.00021182,-0.00011964,0.00001396,0.00013535,-0.00042766,0.000
 03018,-0.00021297,0.00009304,0.00005351,0.14219865,-0.03160270,0.18621
 928,-0.00115699,-0.00025283,-0.00095796,0.00048244,-0.00056300,0.00031
 465,-0.00097579,0.00037653,0.00012334,-0.26255442,-0.04958828,0.097652
 41,0.00101178,-0.00103385,0.00014200,0.00077382,0.00065025,-0.00063520
 ,0.00025053,0.00035102,-0.00012173,-0.00055663,0.00114262,-0.00082355,
 0.00005601,-0.00005192,0.00000052,-0.01908521,-0.00430133,0.00980139,0
 .28471896,0.00022819,0.00037989,0.00083880,0.00093053,0.00133481,-0.00
 131547,-0.03227848,-0.00519506,0.01170126,-0.04750335,-0.05983053,0.02
 130007,0.00153305,-0.00615779,0.00149346,0.00039838,0.00268417,-0.0000
 1475,0.00017288,0.00001855,-0.00018084,0.00061074,-0.00012177,0.000438
 31,0.00035135,-0.00028717,-0.00005638,0.00445488,0.00029649,-0.0027131
 1,0.05371095,0.06226975,0.00082861,0.00135899,-0.00020505,-0.00124465,
 -0.00038197,0.00015540,0.01101766,0.00085894,-0.00483270,0.09693367,0.
 02229010,-0.09249196,-0.00081661,0.00203991,-0.00047022,-0.00075000,-0
 .00119746,0.00034236,-0.00019061,-0.00043948,0.00008584,-0.00096565,-0
 .00036938,-0.00086194,-0.00005409,0.00003691,0.00012610,-0.02115915,-0
 .00533266,0.01052264,-0.10583699,-0.02569813,0.09598303,0.00005753,0.0
 0067804,0.00032018,-0.00020037,0.00001538,-0.00004447,-0.00166549,-0.0
 0038639,-0.00112388,-0.05571331,0.02689342,0.03558545,-0.00005419,-0.0
 0035708,-0.00048574,0.00043338,0.00043249,-0.00053832,-0.00001140,-0.0
 0017445,-0.00008026,-0.00025388,-0.00021094,0.00003534,0.00011445,-0.0
 0018595,-0.00003259,0.00444517,-0.01584385,-0.01776461,-0.00304109,0.0
 1911901,0.02204961,0.05543380,0.00084721,-0.00008533,-0.00004247,-0.00
 112714,0.00350391,0.00007045,0.00534481,-0.01719800,-0.02767253,0.0266
 6488,-0.15004276,-0.12654169,0.00075638,0.00075373,-0.00074135,-0.0003
 4924,-0.00712729,0.00335328,0.00002393,0.00003672,0.00000642,0.0002869
 4,-0.00018078,-0.00000610,-0.00025588,0.00004160,0.00002143,-0.0017997
 5,0.00367967,0.00507127,-0.00041471,0.00477752,0.00653701,-0.02979493,
 0.16266162,-0.00037786,-0.00025745,0.00009474,0.00058523,-0.00064446,0
 .00127388,-0.00179259,0.00715168,0.00746571,0.03549205,-0.12988500,-0.
 20845697,-0.00014912,-0.00006562,0.00003370,-0.00048865,0.00216871,0.0
 0007034,0.00002077,0.00002969,0.00003881,0.00013310,0.00013642,-0.0000
 4832,0.00004393,0.00013308,-0.00002413,0.00490092,-0.01314426,-0.01598
 223,0.00033935,-0.00667496,-0.00886986,-0.03875468,0.13985442,0.223021
 43,-0.00004626,-0.00017817,-0.00023841,0.00157912,-0.00073940,-0.00046
 536,-0.00345519,0.02046970,0.02102703,0.00090376,0.00087872,-0.0004687
 2,-0.06515826,0.03935204,0.04820965,-0.00743113,0.00020950,0.00504259,
 0.00001888,-0.00001609,-0.00002106,0.00001443,0.00000908,0.00000290,0.
 00042564,0.00008802,0.00012634,-0.00002921,-0.00011217,-0.00007025,0.0
 0003732,0.00014216,-0.00037448,-0.00003478,-0.00080310,0.00001564,0.06
 706444,0.00014562,0.00000393,0.00020636,0.00050505,0.00023600,0.000589
 75,-0.00147909,0.00376097,0.00584005,-0.00003454,0.00026050,0.00036169
 ,0.04096377,-0.15036512,-0.12343949,-0.00166732,0.00166694,0.00104245,
 0.00005679,-0.00000354,0.00000406,0.00000295,-0.00000416,-0.00001058,-
 0.00009014,0.00001779,0.00005911,0.00002811,-0.00003794,0.00006601,0.0
 0017123,0.00012163,-0.00007465,-0.00035750,0.00000057,0.00024254,-0.04
 357598,0.15922577,0.00031293,0.00009236,0.00010334,-0.00135445,0.00053
 659,0.00085146,-0.00027109,-0.00802237,-0.00983891,-0.00049614,-0.0004
 9821,0.00013563,0.05053411,-0.12230906,-0.19733219,0.00477085,0.000308
 71,-0.00099830,0.00001705,0.00004304,0.00004320,0.00004079,0.00004276,
 0.00002245,-0.00023375,0.00003221,0.00003622,0.00011577,-0.00004107,-0
 .00009272,-0.00015209,0.00013663,0.00027001,0.00029230,0.00073106,0.00
 033242,-0.05608203,0.13487580,0.21215427,0.00058748,0.00053979,-0.0013
 5855,-0.00886873,-0.00202700,0.00149498,-0.01487672,0.00410719,-0.0244
 2433,0.00063595,0.00078770,-0.00057402,-0.17074169,0.01344853,-0.12886
 730,0.00312684,-0.00033617,-0.00018158,-0.00061364,-0.00010888,0.00003
 331,-0.00032039,-0.00021067,0.00002078,-0.00028355,0.00002114,0.000085
 26,0.00034531,-0.00066402,0.00065697,0.00032398,0.00010940,0.00027763,
 0.00000078,0.00004847,0.00010119,0.00665091,-0.00169997,0.00682578,0.1
 8479016,-0.00019775,0.00092767,-0.00023035,-0.00193950,0.00028852,0.00
 031130,-0.00389588,-0.00141699,-0.00649559,-0.00009609,-0.00005676,-0.
 00042731,0.01376573,-0.04993785,0.01565079,0.00031557,-0.00045960,-0.0
 0035011,-0.00020807,-0.00002835,0.00001227,0.00016145,-0.00000918,-0.0
 0001458,-0.00012366,-0.00001211,0.00001971,-0.00033687,-0.00026388,0.0
 0041590,0.00024286,0.00005067,0.00004442,-0.00015429,-0.00000599,-0.00
 001538,-0.01502526,0.00188390,-0.01382204,-0.01454172,0.04909237,0.000
 82004,0.00001660,0.00086109,0.00192776,0.00031455,0.00059466,0.0087381
 9,-0.00144226,0.00612316,-0.00028929,-0.00005801,-0.00004772,-0.132291
 93,0.01487351,-0.19013479,-0.00047444,0.00061495,0.00121554,0.00021498
 ,0.00003338,0.00001784,-0.00006821,-0.00001008,0.00000163,-0.00021577,
 -0.00002841,0.00001670,0.00029848,0.00005338,0.00034037,0.00002105,-0.
 00023557,0.00019658,-0.00002788,0.00012570,0.00002810,-0.01628275,0.00
 361719,-0.01603972,0.14350335,-0.01714951,0.20447252,-0.00013019,0.000
 13991,0.00006904,0.00258001,0.00092438,0.00065789,-0.00083398,-0.03080
 711,0.01116876,-0.00568835,-0.00015133,0.00146431,-0.04726315,0.004372
 61,-0.00111211,0.00151783,-0.00055590,-0.00227493,0.00004109,0.0000232
 0,-0.00002590,0.00026101,0.00013979,0.00003243,0.00011253,-0.00003743,
 -0.00003655,0.00011686,0.00014068,0.00023509,-0.00007172,-0.00188970,0
 .00072289,-0.00004062,0.00008302,-0.00015559,-0.00066688,0.00733065,-0
 .00359515,0.00027637,0.02155107,-0.00614356,0.04959637,-0.00025606,0.0
 0025212,-0.00024326,0.00085233,0.00122743,-0.00040356,0.00172857,-0.01
 009954,0.00201664,-0.00272238,0.00096110,0.00064381,0.00208046,-0.2823
 2574,0.08643395,0.00010651,0.00188214,-0.00064563,-0.00009438,0.000005
 30,-0.00000775,0.00022226,0.00013605,-0.00000181,0.00005662,-0.0000183
 5,-0.00000520,0.00019366,0.00022197,-0.00016888,-0.00003789,-0.0005608
 5,0.00043816,0.00019123,0.00035205,-0.00003571,0.00000400,-0.01716792,
 0.00759609,0.00017384,-0.00025440,-0.00052627,-0.00219523,0.30470041,0
 .00000217,-0.00014207,-0.00002634,-0.00132882,-0.00114748,0.00018555,-
 0.00051415,0.01196836,-0.00560348,0.00254424,-0.00002163,-0.00078580,-
 0.00033051,0.08622343,-0.07991532,-0.00117108,0.00023651,0.00063001,0.
 00002914,-0.00002339,0.00000561,-0.00008107,-0.00004822,-0.00002632,0.
 00005656,0.00003011,-0.00000908,0.00009755,-0.00039820,0.00024032,0.00
 013774,0.00093581,0.00025481,0.00003591,0.00028668,0.00017648,-0.00019
 912,-0.02349626,0.00985635,0.00142028,0.02179695,-0.00764211,-0.001445
 59,-0.09571164,0.08311116,-0.00027853,-0.00025259,-0.00066976,-0.00114
 891,0.00015927,-0.00077498,-0.00176662,0.01563546,0.00155912,-0.000132
 13,0.00107648,0.00184820,0.00066724,0.00127612,-0.00176473,-0.03577133
 ,-0.11187725,0.02235954,-0.00000876,-0.00009379,-0.00022478,-0.0001133
 0,0.00025633,0.00027637,-0.00018333,-0.00059519,0.00029734,0.00013650,
 -0.00032168,0.00015429,0.00029761,0.00040258,-0.00010299,0.00086795,0.
 00060994,-0.00014692,0.00039600,-0.00043413,-0.00038433,-0.00037357,0.
 00022760,0.00002401,0.00013518,-0.00040535,0.00071756,0.03775031,-0.00
 033263,-0.00047457,-0.00029019,-0.00020023,0.00221462,-0.00034634,-0.0
 0785206,-0.02574439,0.00868562,0.00162638,-0.00153016,-0.00559445,-0.0
 0065975,0.00231214,0.00168498,-0.06067786,-0.37927334,0.08318406,0.000
 02570,0.00002975,0.00000002,0.00014187,0.00016386,0.00008158,-0.000029
 69,-0.00010958,0.00002445,0.00010927,0.00024840,0.00020561,-0.00003144
 ,0.00046304,-0.00002493,0.00010635,-0.00140957,0.00048577,-0.00072825,
 0.00044239,0.00040170,0.00027502,-0.00009005,-0.00011592,0.00090511,0.
 00065618,-0.00062728,0.07344408,0.40910200,-0.00088096,-0.00013834,-0.
 00001129,0.00057685,0.00243717,0.00108495,-0.00502930,-0.03085786,0.00
 870848,0.00157576,-0.00288297,-0.00390914,-0.00054172,-0.00149429,0.00
 097460,0.00963565,0.08606317,-0.08504488,-0.00002448,-0.00001555,0.000
 00002,0.00023659,0.00014807,-0.00003611,0.00009017,-0.00013341,-0.0000
 1283,0.00025795,-0.00020215,0.00008663,-0.00015848,0.00013916,-0.00016
 924,0.00014613,-0.00159527,0.00068122,-0.00013080,0.00022335,-0.000086
 39,-0.00008534,0.00032025,-0.00007354,0.00046049,0.00077661,-0.0004527
 0,-0.01671036,-0.08704509,0.08517258,0.00135625,0.00021866,-0.00082225
 ,-0.00068502,-0.00081451,-0.00154467,-0.00240653,0.00061603,0.01798277
 ,0.00110575,-0.00007712,0.00028228,0.00003999,0.00027632,0.00069945,-0
 .11177836,0.05577472,-0.19803647,-0.00003302,-0.00004932,-0.00006495,-
 0.00006793,-0.00020855,-0.00014582,0.00077695,0.00039598,0.00038346,0.
 00030359,0.00023500,0.00004303,-0.00051060,-0.00049255,-0.00033488,-0.
 00033793,-0.00012083,0.00023323,-0.00026880,0.00013450,-0.00034055,-0.
 00065947,0.00025482,0.00024595,0.00005764,0.00010182,0.00002920,-0.000
 47430,-0.00612186,0.01058183,0.11358180,0.00168287,0.00045135,-0.00038
 734,-0.00131545,-0.00221304,-0.00776909,-0.01365664,0.00831413,-0.0150
 2313,-0.00040520,-0.00025079,-0.00060235,0.00016716,-0.00050292,0.0000
 7283,0.04265235,-0.07997034,0.06141239,-0.00014575,-0.00005241,0.00000
 986,-0.00021827,-0.00017985,-0.00002515,-0.00006757,-0.00000199,0.0003
 4342,0.00074940,-0.00116513,-0.00012059,-0.00037022,-0.00024334,-0.000
 08577,0.00002946,0.00024234,0.00052054,0.00002519,-0.00004171,-0.00010
 421,0.00007736,0.00029203,-0.00008323,0.00002627,0.00003206,0.00013833
 ,0.02089212,-0.00700071,0.03425716,-0.05012310,0.08229033,0.00247415,0
 .00036683,0.00000515,0.00049700,-0.00453749,-0.00577477,-0.01857797,0.
 00988718,-0.02120682,-0.00056626,0.00081693,0.00145864,-0.00028780,0.0
 0067057,0.00046980,-0.14893575,0.06670789,-0.30696661,-0.00009844,-0.0
 0001096,0.00002653,-0.00034375,-0.00010329,0.00010670,-0.00035817,0.00
 011472,0.00037631,0.00034626,-0.00076686,0.00065337,0.00015354,-0.0000
 9428,-0.00003579,0.00038750,0.00054170,0.00016467,-0.00009118,-0.00010
 738,0.00058288,0.00107159,-0.00006672,0.00006969,-0.00002154,-0.000155
 56,0.00000087,-0.00645758,-0.00070959,-0.00691235,0.17080840,-0.072553
 69,0.33698170\\0.00005456,-0.00000034,-0.00001846,0.00000628,0.0000112
 7,0.00007105,-0.00001726,-0.00002498,-0.00014935,0.00001589,-0.0000235
 3,0.00004989,0.00002119,0.00000613,0.00002645,-0.00004244,0.00001537,0
 .00003428,-0.00002576,0.00001353,0.00001043,-0.00001229,-0.00000774,-0
 .00000781,-0.00001933,0.00001155,0.00001378,0.00000669,-0.00000172,-0.
 00001474,-0.00000555,-0.00001070,-0.00001294,0.00000118,-0.00000760,-0
 .00001721,0.00000068,0.00000860,-0.00000860,0.00000208,0.00000025,0.00
 000143,-0.00000298,0.00001344,-0.00000130,0.00000255,0.00003217,-0.000
 00918,0.00001449,-0.00003571,0.00003225\\\@


 IF YOU DON'T HAVE THE LAW - ARGUE THE FACTS.
 IF YOU DON'T HAVE THE FACTS - ARGUE THE LAW.
 IF YOU DON'T HAVE EITHER - POUND THE TABLE.
 Job cpu time:       0 days  0 hours  7 minutes 15.0 seconds.
 File lengths (MBytes):  RWF=     42 Int=      0 D2E=      0 Chk=      3 Scr=      1
 Normal termination of Gaussian 09 at Thu Sep  8 14:55:09 2022.
