 Entering Gaussian System, Link 0=g09
 Input=B3LYP6-31Gdp.Frag_535.gjf
 Output=B3LYP6-31Gdp.Frag_535.log
 Initial command:
 /public/home/users/caep010/software/Gaussian09/g09/l1.exe "/public/home/users/caep010/.cache/gau_scr/Gau-92913.inp" -scrdir="/public/home/users/caep010/.cache/gau_scr/"
 Entering Link 1 = /public/home/users/caep010/software/Gaussian09/g09/l1.exe PID=     92914.
  
 Copyright (c) 1988,1990,1992,1993,1995,1998,2003,2009,2015,
            Gaussian, Inc.  All Rights Reserved.
  
 This is part of the Gaussian(R) 09 program.  It is based on
 the Gaussian(R) 03 system (copyright 2003, Gaussian, Inc.),
 the Gaussian(R) 98 system (copyright 1998, Gaussian, Inc.),
 the Gaussian(R) 94 system (copyright 1995, Gaussian, Inc.),
 the Gaussian 92(TM) system (copyright 1992, Gaussian, Inc.),
 the Gaussian 90(TM) system (copyright 1990, Gaussian, Inc.),
 the Gaussian 88(TM) system (copyright 1988, Gaussian, Inc.),
 the Gaussian 86(TM) system (copyright 1986, Carnegie Mellon
 University), and the Gaussian 82(TM) system (copyright 1983,
 Carnegie Mellon University). Gaussian is a federally registered
 trademark of Gaussian, Inc.
  
 This software contains proprietary and confidential information,
 including trade secrets, belonging to Gaussian, Inc.
  
 This software is provided under written license and may be
 used, copied, transmitted, or stored only in accord with that
 written license.
  
 The following legend is applicable only to US Government
 contracts under FAR:
  
                    RESTRICTED RIGHTS LEGEND
  
 Use, reproduction and disclosure by the US Government is
 subject to restrictions as set forth in subparagraphs (a)
 and (c) of the Commercial Computer Software - Restricted
 Rights clause in FAR 52.227-19.
  
 Gaussian, Inc.
 340 Quinnipiac St., Bldg. 40, Wallingford CT 06492
  
  
 ---------------------------------------------------------------
 Warning -- This program may not be used in any manner that
 competes with the business of Gaussian, Inc. or will provide
 assistance to any competitor of Gaussian, Inc.  The licensee
 of this program is prohibited from giving any competitor of
 Gaussian, Inc. access to this program.  By using this program,
 the user acknowledges that Gaussian, Inc. is engaged in the
 business of creating and licensing software in the field of
 computational chemistry and represents and warrants to the
 licensee that it is not a competitor of Gaussian, Inc. and that
 it will not use this program in any manner prohibited above.
 ---------------------------------------------------------------
  

 Cite this work as:
 Gaussian 09, Revision E.01,
 M. J. Frisch, G. W. Trucks, H. B. Schlegel, G. E. Scuseria, 
 M. A. Robb, J. R. Cheeseman, G. Scalmani, V. Barone, B. Mennucci, 
 G. A. Petersson, H. Nakatsuji, M. Caricato, X. Li, H. P. Hratchian, 
 A. F. Izmaylov, J. Bloino, G. Zheng, J. L. Sonnenberg, M. Hada, 
 M. Ehara, K. Toyota, R. Fukuda, J. Hasegawa, M. Ishida, T. Nakajima, 
 Y. Honda, O. Kitao, H. Nakai, T. Vreven, J. A. Montgomery, Jr., 
 J. E. Peralta, F. Ogliaro, M. Bearpark, J. J. Heyd, E. Brothers, 
 K. N. Kudin, V. N. Staroverov, T. Keith, R. Kobayashi, J. Normand, 
 K. Raghavachari, A. Rendell, J. C. Burant, S. S. Iyengar, J. Tomasi, 
 M. Cossi, N. Rega, J. M. Millam, M. Klene, J. E. Knox, J. B. Cross, 
 V. Bakken, C. Adamo, J. Jaramillo, R. Gomperts, R. E. Stratmann, 
 O. Yazyev, A. J. Austin, R. Cammi, C. Pomelli, J. W. Ochterski, 
 R. L. Martin, K. Morokuma, V. G. Zakrzewski, G. A. Voth, 
 P. Salvador, J. J. Dannenberg, S. Dapprich, A. D. Daniels, 
 O. Farkas, J. B. Foresman, J. V. Ortiz, J. Cioslowski, 
 and D. J. Fox, Gaussian, Inc., Wallingford CT, 2013.
 
 ******************************************
 Gaussian 09:  ES64L-G09RevE.01 30-Nov-2015
                 8-Sep-2022 
 ******************************************
 %nproc=32
 Will use up to   32 processors via shared memory.
 %mem=180GB
 %chk=B3LYP6-31Gdp.Frag_535.chk
 ----------------------------
 #P OPT Freq B3LYP/6-31G(d,p)
 ----------------------------
 1/14=-1,18=20,19=15,26=3,38=1/1,3;
 2/9=110,12=2,17=6,18=5,40=1/2;
 3/5=1,6=6,7=101,11=2,16=1,25=1,30=1,71=1,74=-5/1,2,3;
 4//1;
 5/5=2,38=5/2;
 6/7=2,8=2,9=2,10=2,28=1/1;
 7//1,2,3,16;
 1/14=-1,18=20,19=15,26=3/3(2);
 2/9=110/2;
 99//99;
 2/9=110/2;
 3/5=1,6=6,7=101,11=2,16=1,25=1,30=1,71=1,74=-5/1,2,3;
 4/5=5,16=3,69=1/1;
 5/5=2,38=5/2;
 7//1,2,3,16;
 1/14=-1,18=20,19=15,26=3/3(-5);
 2/9=110/2;
 6/7=2,8=2,9=2,10=2,19=2,28=1/1;
 99/9=1/99;
 Leave Link    1 at Thu Sep  8 15:24:41 2022, MaxMem= 24159191040 cpu:         2.7
 (Enter /public/home/users/caep010/software/Gaussian09/g09/l101.exe)
 --------
 Frag_535
 --------
 Symbolic Z-matrix:
 Charge =  0 Multiplicity = 1
 N                    -1.73799  -1.28776   0.45746 
 C                    -0.9382   -0.30585   0.41531 
 O                    -1.10887   0.74639   1.22996 
 C                     0.24799  -0.13927  -0.54404 
 N                     1.20266   0.83959  -0.01243 
 H                    -1.45898  -1.99321  -0.22358 
 H                    -0.33935   1.32641   1.06161 
 H                     0.6791   -1.12586  -0.75657 
 H                    -0.14448   0.25226  -1.48942 
 H                     1.72959   1.28773  -0.75203 
 H                     1.86863   0.39977   0.61382 
 
 NAtoms=     11 NQM=       11 NQMF=       0 NMMI=      0 NMMIF=      0
                NMic=       0 NMicF=      0.
                    Isotopes and Nuclear Properties:
 (Nuclear quadrupole moments (NQMom) in fm**2, nuclear magnetic moments (NMagM)
  in nuclear magnetons)

  Atom         1           2           3           4           5           6           7           8           9          10
 IAtWgt=          14          12          16          12          14           1           1           1           1           1
 AtmWgt=  14.0030740  12.0000000  15.9949146  12.0000000  14.0030740   1.0078250   1.0078250   1.0078250   1.0078250   1.0078250
 NucSpn=           2           0           0           0           2           1           1           1           1           1
 AtZEff=   0.0000000   0.0000000   0.0000000   0.0000000   0.0000000   0.0000000   0.0000000   0.0000000   0.0000000   0.0000000
 NQMom=    2.0440000   0.0000000   0.0000000   0.0000000   2.0440000   0.0000000   0.0000000   0.0000000   0.0000000   0.0000000
 NMagM=    0.4037610   0.0000000   0.0000000   0.0000000   0.4037610   2.7928460   2.7928460   2.7928460   2.7928460   2.7928460
 AtZNuc=   7.0000000   6.0000000   8.0000000   6.0000000   7.0000000   1.0000000   1.0000000   1.0000000   1.0000000   1.0000000

  Atom        11
 IAtWgt=           1
 AtmWgt=   1.0078250
 NucSpn=           1
 AtZEff=   0.0000000
 NQMom=    0.0000000
 NMagM=    2.7928460
 AtZNuc=   1.0000000
 Leave Link  101 at Thu Sep  8 15:24:42 2022, MaxMem= 24159191040 cpu:        10.2
 (Enter /public/home/users/caep010/software/Gaussian09/g09/l103.exe)

 GradGradGradGradGradGradGradGradGradGradGradGradGradGradGradGradGradGrad
 Berny optimization.
 Initialization pass.
                           ----------------------------
                           !    Initial Parameters    !
                           ! (Angstroms and Degrees)  !
 --------------------------                            --------------------------
 ! Name  Definition              Value          Derivative Info.                !
 --------------------------------------------------------------------------------
 ! R1    R(1,2)                  1.2671         estimate D2E/DX2                !
 ! R2    R(1,6)                  1.0195         estimate D2E/DX2                !
 ! R3    R(2,3)                  1.3416         estimate D2E/DX2                !
 ! R4    R(2,4)                  1.5346         estimate D2E/DX2                !
 ! R5    R(3,7)                  0.9782         estimate D2E/DX2                !
 ! R6    R(4,5)                  1.467          estimate D2E/DX2                !
 ! R7    R(4,8)                  1.0974         estimate D2E/DX2                !
 ! R8    R(4,9)                  1.0959         estimate D2E/DX2                !
 ! R9    R(5,10)                 1.0127         estimate D2E/DX2                !
 ! R10   R(5,11)                 1.0145         estimate D2E/DX2                !
 ! A1    A(2,1,6)              109.9537         estimate D2E/DX2                !
 ! A2    A(1,2,3)              120.4822         estimate D2E/DX2                !
 ! A3    A(1,2,4)              126.3546         estimate D2E/DX2                !
 ! A4    A(3,2,4)              113.1271         estimate D2E/DX2                !
 ! A5    A(2,3,7)              105.0979         estimate D2E/DX2                !
 ! A6    A(2,4,5)              110.4193         estimate D2E/DX2                !
 ! A7    A(2,4,8)              109.094          estimate D2E/DX2                !
 ! A8    A(2,4,9)              107.5315         estimate D2E/DX2                !
 ! A9    A(5,4,8)              114.4803         estimate D2E/DX2                !
 ! A10   A(5,4,9)              107.8937         estimate D2E/DX2                !
 ! A11   A(8,4,9)              107.1454         estimate D2E/DX2                !
 ! A12   A(4,5,10)             111.6688         estimate D2E/DX2                !
 ! A13   A(4,5,11)             111.1996         estimate D2E/DX2                !
 ! A14   A(10,5,11)            107.525          estimate D2E/DX2                !
 ! D1    D(6,1,2,3)           -179.8837         estimate D2E/DX2                !
 ! D2    D(6,1,2,4)              2.4596         estimate D2E/DX2                !
 ! D3    D(1,2,3,7)            175.605          estimate D2E/DX2                !
 ! D4    D(4,2,3,7)             -6.447          estimate D2E/DX2                !
 ! D5    D(1,2,4,5)           -159.9322         estimate D2E/DX2                !
 ! D6    D(1,2,4,8)            -33.2929         estimate D2E/DX2                !
 ! D7    D(1,2,4,9)             82.5885         estimate D2E/DX2                !
 ! D8    D(3,2,4,5)             22.2636         estimate D2E/DX2                !
 ! D9    D(3,2,4,8)            148.9029         estimate D2E/DX2                !
 ! D10   D(3,2,4,9)            -95.2156         estimate D2E/DX2                !
 ! D11   D(2,4,5,10)          -153.2845         estimate D2E/DX2                !
 ! D12   D(2,4,5,11)            86.6066         estimate D2E/DX2                !
 ! D13   D(8,4,5,10)            83.1402         estimate D2E/DX2                !
 ! D14   D(8,4,5,11)           -36.9687         estimate D2E/DX2                !
 ! D15   D(9,4,5,10)           -36.0288         estimate D2E/DX2                !
 ! D16   D(9,4,5,11)          -156.1377         estimate D2E/DX2                !
 --------------------------------------------------------------------------------
 Trust Radius=3.00D-01 FncErr=1.00D-07 GrdErr=1.00D-06
 Number of steps in this run=     50 maximum allowed number of steps=    100.
 GradGradGradGradGradGradGradGradGradGradGradGradGradGradGradGradGradGrad

 Leave Link  103 at Thu Sep  8 15:24:42 2022, MaxMem= 24159191040 cpu:         0.6
 (Enter /public/home/users/caep010/software/Gaussian09/g09/l202.exe)
                          Input orientation:                          
 ---------------------------------------------------------------------
 Center     Atomic      Atomic             Coordinates (Angstroms)
 Number     Number       Type             X           Y           Z
 ---------------------------------------------------------------------
      1          7           0       -1.737989   -1.287756    0.457458
      2          6           0       -0.938196   -0.305854    0.415310
      3          8           0       -1.108867    0.746394    1.229959
      4          6           0        0.247988   -0.139273   -0.544040
      5          7           0        1.202655    0.839587   -0.012432
      6          1           0       -1.458979   -1.993213   -0.223575
      7          1           0       -0.339354    1.326414    1.061610
      8          1           0        0.679103   -1.125859   -0.756572
      9          1           0       -0.144482    0.252263   -1.489418
     10          1           0        1.729594    1.287730   -0.752025
     11          1           0        1.868627    0.399767    0.613824
 ---------------------------------------------------------------------
                    Distance matrix (angstroms):
                    1          2          3          4          5
     1  N    0.000000
     2  C    1.267114   0.000000
     3  O    2.265021   1.341644   0.000000
     4  C    2.503221   1.534645   2.402610   0.000000
     5  N    3.659750   2.465409   2.625901   1.467025   0.000000
     6  H    1.019471   1.877916   3.121023   2.540379   3.892767
     7  H    3.025734   1.854889   0.978220   2.251959   1.941226
     8  H    2.709689   2.159021   3.263200   1.097443   2.165832
     9  H    2.949788   2.137631   2.927322   1.095935   2.083558
    10  H    4.485544   3.319531   3.504021   2.067547   1.012667
    11  H    3.984955   2.900959   3.060268   2.063416   1.014474
                    6          7          8          9         10
     6  H    0.000000
     7  H    3.731646   0.000000
     8  H    2.368076   3.218180   0.000000
     9  H    2.893514   2.774801   1.764816   0.000000
    10  H    4.605523   2.751602   2.632293   2.264531   0.000000
    11  H    4.183366   2.436056   2.370757   2.915132   1.635039
                   11
    11  H    0.000000
 Stoichiometry    C2H6N2O
 Framework group  C1[X(C2H6N2O)]
 Deg. of freedom    27
 Full point group                 C1      NOp   1
 Largest Abelian subgroup         C1      NOp   1
 Largest concise Abelian subgroup C1      NOp   1
                         Standard orientation:                         
 ---------------------------------------------------------------------
 Center     Atomic      Atomic             Coordinates (Angstroms)
 Number     Number       Type             X           Y           Z
 ---------------------------------------------------------------------
      1          7           0        1.829321   -0.497859   -0.133782
      2          6           0        0.673810    0.000219    0.015513
      3          8           0        0.509074    1.330158    0.079802
      4          6           0       -0.636958   -0.778641    0.189857
      5          7           0       -1.785700    0.072551   -0.138818
      6          1           0        1.768515   -1.515081   -0.163527
      7          1           0       -0.458840    1.465247    0.122332
      8          1           0       -0.580824   -1.709846   -0.388148
      9          1           0       -0.716628   -1.058524    1.246451
     10          1           0       -2.621162   -0.220775    0.352566
     11          1           0       -1.990110    0.045408   -1.132114
 ---------------------------------------------------------------------
 Rotational constants (GHZ):      9.7511117      4.0406512      3.0003452
 Leave Link  202 at Thu Sep  8 15:24:42 2022, MaxMem= 24159191040 cpu:         1.9
 (Enter /public/home/users/caep010/software/Gaussian09/g09/l301.exe)
 Standard basis: 6-31G(d,p) (6D, 7F)
 Ernie: Thresh=  0.10000D-02 Tol=  0.10000D-05 Strict=F.
 There are   105 symmetry adapted cartesian basis functions of A   symmetry.
 There are   105 symmetry adapted basis functions of A   symmetry.
   105 basis functions,   182 primitive gaussians,   105 cartesian basis functions
    20 alpha electrons       20 beta electrons
       nuclear repulsion energy       180.8186607427 Hartrees.
 IExCor=  402 DFT=T Ex+Corr=B3LYP ExCW=0 ScaHFX=  0.200000
 ScaDFX=  0.800000  0.720000  1.000000  0.810000 ScalE2=  1.000000  1.000000
 IRadAn=      0 IRanWt=     -1 IRanGd=            0 ICorTp=0 IEmpDi=  4
 NAtoms=   11 NActive=   11 NUniq=   11 SFac= 1.00D+00 NAtFMM=   60 NAOKFM=F Big=F
 Integral buffers will be    131072 words long.
 Raffenetti 2 integral format.
 Two-electron integral symmetry is turned on.
 Leave Link  301 at Thu Sep  8 15:24:42 2022, MaxMem= 24159191040 cpu:         2.2
 (Enter /public/home/users/caep010/software/Gaussian09/g09/l302.exe)
 NPDir=0 NMtPBC=     1 NCelOv=     1 NCel=       1 NClECP=     1 NCelD=      1
         NCelK=      1 NCelE2=     1 NClLst=     1 CellRange=     0.0.
 One-electron integrals computed using PRISM.
 NBasis=   105 RedAO= T EigKep=  2.83D-03  NBF=   105
 NBsUse=   105 1.00D-06 EigRej= -1.00D+00 NBFU=   105
 Precomputing XC quadrature grid using
 IXCGrd= 4 IRadAn=           0 IRanWt=          -1 IRanGd=           0 AccXCQ= 0.00D+00.
 Generated NRdTot=       0 NPtTot=           0 NUsed=           0 NTot=          32
 NSgBfM=   105   105   105   105   105 MxSgAt=    11 MxSgA2=    11.
 Leave Link  302 at Thu Sep  8 15:24:42 2022, MaxMem= 24159191040 cpu:        10.9
 (Enter /public/home/users/caep010/software/Gaussian09/g09/l303.exe)
 DipDrv:  MaxL=1.
 Leave Link  303 at Thu Sep  8 15:24:43 2022, MaxMem= 24159191040 cpu:         0.9
 (Enter /public/home/users/caep010/software/Gaussian09/g09/l401.exe)
 ExpMin= 1.61D-01 ExpMax= 5.48D+03 ExpMxC= 8.25D+02 IAcc=1 IRadAn=         1 AccDes= 0.00D+00
 Harris functional with IExCor=  402 and IRadAn=       1 diagonalized for initial guess.
 HarFok:  IExCor=  402 AccDes= 0.00D+00 IRadAn=         1 IDoV= 1 UseB2=F ITyADJ=14
 ICtDFT=  3500011 ScaDFX=  1.000000  1.000000  1.000000  1.000000
 FoFCou: FMM=F IPFlag=           0 FMFlag=      100000 FMFlg1=           0
         NFxFlg=           0 DoJE=T BraDBF=F KetDBF=T FulRan=T
         wScrn=  0.000000 ICntrl=     500 IOpCl=  0 I1Cent=   200000004 NGrid=           0
         NMat0=    1 NMatS0=      1 NMatT0=    0 NMatD0=    1 NMtDS0=    0 NMtDT0=    0
 Petite list used in FoFCou.
 Harris En= -264.563802257229    
 JPrj=0 DoOrth=F DoCkMO=F.
 Leave Link  401 at Thu Sep  8 15:24:43 2022, MaxMem= 24159191040 cpu:         9.8
 (Enter /public/home/users/caep010/software/Gaussian09/g09/l502.exe)
 Closed shell SCF:
 Using DIIS extrapolation, IDIIS=  1040.
 Integral symmetry usage will be decided dynamically.
 Keep R1 ints in memory in canonical form, NReq=16470489.
 IVT=       55780 IEndB=       55780 NGot= 24159191040 MDV= 24143647866
 LenX= 24143647866 LenY= 24143636400
 Requested convergence on RMS density matrix=1.00D-08 within 128 cycles.
 Requested convergence on MAX density matrix=1.00D-06.
 Requested convergence on             energy=1.00D-06.
 No special actions if energy rises.
 FoFCou: FMM=F IPFlag=           0 FMFlag=           0 FMFlg1=           0
         NFxFlg=           0 DoJE=F BraDBF=F KetDBF=F FulRan=T
         wScrn=  0.000000 ICntrl=     600 IOpCl=  0 I1Cent=           0 NGrid=           0
         NMat0=    1 NMatS0=   5565 NMatT0=    0 NMatD0=    1 NMtDS0=    0 NMtDT0=    0
 Symmetry not used in FoFCou.
 Integral accuracy reduced to 1.0D-05 until final iterations.

 Cycle   1  Pass 0  IDiag  1:
 E= -264.378748126020    
 DIIS: error= 3.14D-02 at cycle   1 NSaved=   1.
 NSaved= 1 IEnMin= 1 EnMin= -264.378748126020     IErMin= 1 ErrMin= 3.14D-02
 ErrMax= 3.14D-02  0.00D+00 EMaxC= 1.00D-01 BMatC= 1.96D-01 BMatP= 1.96D-01
 IDIUse=3 WtCom= 6.86D-01 WtEn= 3.14D-01
 Coeff-Com:  0.100D+01
 Coeff-En:   0.100D+01
 Coeff:      0.100D+01
 Gap=     0.272 Goal=   None    Shift=    0.000
 GapD=    0.272 DampG=1.000 DampE=0.500 DampFc=0.5000 IDamp=-1.
 Damping current iteration by 5.00D-01
 RMSDP=9.58D-03 MaxDP=1.95D-01              OVMax= 2.43D-01

 Cycle   2  Pass 0  IDiag  1:
 E= -264.437736940256     Delta-E=       -0.058988814236 Rises=F Damp=T
 DIIS: error= 6.88D-03 at cycle   2 NSaved=   2.
 NSaved= 2 IEnMin= 2 EnMin= -264.437736940256     IErMin= 2 ErrMin= 6.88D-03
 ErrMax= 6.88D-03  0.00D+00 EMaxC= 1.00D-01 BMatC= 1.69D-02 BMatP= 1.96D-01
 IDIUse=3 WtCom= 9.31D-01 WtEn= 6.88D-02
 Coeff-Com:  0.164D+00 0.836D+00
 Coeff-En:   0.274D+00 0.726D+00
 Coeff:      0.172D+00 0.828D+00
 Gap=     0.300 Goal=   None    Shift=    0.000
 RMSDP=2.14D-03 MaxDP=4.71D-02 DE=-5.90D-02 OVMax= 1.93D-01

 Cycle   3  Pass 0  IDiag  1:
 E= -264.534705017227     Delta-E=       -0.096968076971 Rises=F Damp=F
 DIIS: error= 7.23D-03 at cycle   3 NSaved=   3.
 NSaved= 3 IEnMin= 3 EnMin= -264.534705017227     IErMin= 2 ErrMin= 6.88D-03
 ErrMax= 7.23D-03  0.00D+00 EMaxC= 1.00D-01 BMatC= 1.15D-02 BMatP= 1.69D-02
 IDIUse=3 WtCom= 9.28D-01 WtEn= 7.23D-02
 Coeff-Com:  0.581D-01 0.456D+00 0.486D+00
 Coeff-En:   0.000D+00 0.000D+00 0.100D+01
 Coeff:      0.539D-01 0.423D+00 0.524D+00
 Gap=     0.278 Goal=   None    Shift=    0.000
 RMSDP=1.29D-03 MaxDP=3.24D-02 DE=-9.70D-02 OVMax= 6.64D-02

 Cycle   4  Pass 0  IDiag  1:
 E= -264.543270754597     Delta-E=       -0.008565737370 Rises=F Damp=F
 DIIS: error= 4.38D-03 at cycle   4 NSaved=   4.
 NSaved= 4 IEnMin= 4 EnMin= -264.543270754597     IErMin= 4 ErrMin= 4.38D-03
 ErrMax= 4.38D-03  0.00D+00 EMaxC= 1.00D-01 BMatC= 2.49D-03 BMatP= 1.15D-02
 IDIUse=3 WtCom= 9.56D-01 WtEn= 4.38D-02
 Coeff-Com:  0.705D-02 0.816D-01 0.322D+00 0.590D+00
 Coeff-En:   0.000D+00 0.000D+00 0.197D+00 0.803D+00
 Coeff:      0.674D-02 0.781D-01 0.316D+00 0.599D+00
 Gap=     0.280 Goal=   None    Shift=    0.000
 RMSDP=4.89D-04 MaxDP=1.18D-02 DE=-8.57D-03 OVMax= 1.84D-02

 Cycle   5  Pass 0  IDiag  1:
 E= -264.545263667264     Delta-E=       -0.001992912667 Rises=F Damp=F
 DIIS: error= 1.24D-03 at cycle   5 NSaved=   5.
 NSaved= 5 IEnMin= 5 EnMin= -264.545263667264     IErMin= 5 ErrMin= 1.24D-03
 ErrMax= 1.24D-03  0.00D+00 EMaxC= 1.00D-01 BMatC= 2.00D-04 BMatP= 2.49D-03
 IDIUse=3 WtCom= 9.88D-01 WtEn= 1.24D-02
 Coeff-Com:  0.119D-02 0.110D-01 0.143D+00 0.344D+00 0.501D+00
 Coeff-En:   0.000D+00 0.000D+00 0.000D+00 0.000D+00 0.100D+01
 Coeff:      0.117D-02 0.108D-01 0.141D+00 0.340D+00 0.507D+00
 Gap=     0.279 Goal=   None    Shift=    0.000
 RMSDP=1.33D-04 MaxDP=2.78D-03 DE=-1.99D-03 OVMax= 4.32D-03

 Cycle   6  Pass 0  IDiag  1:
 E= -264.545426357541     Delta-E=       -0.000162690276 Rises=F Damp=F
 DIIS: error= 1.82D-04 at cycle   6 NSaved=   6.
 NSaved= 6 IEnMin= 6 EnMin= -264.545426357541     IErMin= 6 ErrMin= 1.82D-04
 ErrMax= 1.82D-04  0.00D+00 EMaxC= 1.00D-01 BMatC= 6.97D-06 BMatP= 2.00D-04
 IDIUse=3 WtCom= 9.98D-01 WtEn= 1.82D-03
 Coeff-Com:  0.153D-03-0.164D-02 0.385D-01 0.101D+00 0.229D+00 0.632D+00
 Coeff-En:   0.000D+00 0.000D+00 0.000D+00 0.000D+00 0.000D+00 0.100D+01
 Coeff:      0.152D-03-0.164D-02 0.384D-01 0.101D+00 0.229D+00 0.633D+00
 Gap=     0.279 Goal=   None    Shift=    0.000
 RMSDP=2.33D-05 MaxDP=4.55D-04 DE=-1.63D-04 OVMax= 4.72D-04

 Cycle   7  Pass 0  IDiag  1:
 E= -264.545431584075     Delta-E=       -0.000005226534 Rises=F Damp=F
 DIIS: error= 4.46D-05 at cycle   7 NSaved=   7.
 NSaved= 7 IEnMin= 7 EnMin= -264.545431584075     IErMin= 7 ErrMin= 4.46D-05
 ErrMax= 4.46D-05  0.00D+00 EMaxC= 1.00D-01 BMatC= 4.87D-07 BMatP= 6.97D-06
 IDIUse=1 WtCom= 1.00D+00 WtEn= 0.00D+00
 Coeff-Com:  0.943D-04-0.138D-02 0.156D-01 0.410D-01 0.106D+00 0.330D+00
 Coeff-Com:  0.508D+00
 Coeff:      0.943D-04-0.138D-02 0.156D-01 0.410D-01 0.106D+00 0.330D+00
 Coeff:      0.508D+00
 Gap=     0.279 Goal=   None    Shift=    0.000
 RMSDP=6.84D-06 MaxDP=1.54D-04 DE=-5.23D-06 OVMax= 1.74D-04

 Initial convergence to 1.0D-05 achieved.  Increase integral accuracy.
 Cycle   8  Pass 1  IDiag  1:
 E= -264.545459309517     Delta-E=       -0.000027725442 Rises=F Damp=F
 DIIS: error= 1.16D-05 at cycle   1 NSaved=   1.
 NSaved= 1 IEnMin= 1 EnMin= -264.545459309517     IErMin= 1 ErrMin= 1.16D-05
 ErrMax= 1.16D-05  0.00D+00 EMaxC= 1.00D-01 BMatC= 4.25D-08 BMatP= 4.25D-08
 IDIUse=1 WtCom= 1.00D+00 WtEn= 0.00D+00
 Coeff-Com:  0.100D+01
 Coeff:      0.100D+01
 Gap=     0.279 Goal=   None    Shift=    0.000
 RMSDP=6.84D-06 MaxDP=1.54D-04 DE=-2.77D-05 OVMax= 1.24D-04

 Cycle   9  Pass 1  IDiag  1:
 E= -264.545459292011     Delta-E=        0.000000017507 Rises=F Damp=F
 DIIS: error= 2.41D-05 at cycle   2 NSaved=   2.
 NSaved= 2 IEnMin= 1 EnMin= -264.545459309517     IErMin= 1 ErrMin= 1.16D-05
 ErrMax= 2.41D-05  0.00D+00 EMaxC= 1.00D-01 BMatC= 7.24D-08 BMatP= 4.25D-08
 IDIUse=1 WtCom= 1.00D+00 WtEn= 0.00D+00
 Coeff-Com:  0.575D+00 0.425D+00
 Coeff:      0.575D+00 0.425D+00
 Gap=     0.279 Goal=   None    Shift=    0.000
 RMSDP=2.36D-06 MaxDP=5.88D-05 DE= 1.75D-08 OVMax= 1.03D-04

 Cycle  10  Pass 1  IDiag  1:
 E= -264.545459346898     Delta-E=       -0.000000054887 Rises=F Damp=F
 DIIS: error= 6.02D-06 at cycle   3 NSaved=   3.
 NSaved= 3 IEnMin= 3 EnMin= -264.545459346898     IErMin= 3 ErrMin= 6.02D-06
 ErrMax= 6.02D-06  0.00D+00 EMaxC= 1.00D-01 BMatC= 3.99D-09 BMatP= 4.25D-08
 IDIUse=1 WtCom= 1.00D+00 WtEn= 0.00D+00
 Coeff-Com:  0.103D+00 0.201D+00 0.695D+00
 Coeff:      0.103D+00 0.201D+00 0.695D+00
 Gap=     0.279 Goal=   None    Shift=    0.000
 RMSDP=7.89D-07 MaxDP=2.13D-05 DE=-5.49D-08 OVMax= 3.50D-05

 Cycle  11  Pass 1  IDiag  1:
 E= -264.545459349020     Delta-E=       -0.000000002122 Rises=F Damp=F
 DIIS: error= 1.84D-06 at cycle   4 NSaved=   4.
 NSaved= 4 IEnMin= 4 EnMin= -264.545459349020     IErMin= 4 ErrMin= 1.84D-06
 ErrMax= 1.84D-06  0.00D+00 EMaxC= 1.00D-01 BMatC= 1.31D-09 BMatP= 3.99D-09
 IDIUse=1 WtCom= 1.00D+00 WtEn= 0.00D+00
 Coeff-Com: -0.151D-02 0.820D-01 0.451D+00 0.469D+00
 Coeff:     -0.151D-02 0.820D-01 0.451D+00 0.469D+00
 Gap=     0.279 Goal=   None    Shift=    0.000
 RMSDP=3.47D-07 MaxDP=9.27D-06 DE=-2.12D-09 OVMax= 1.43D-05

 Cycle  12  Pass 1  IDiag  1:
 E= -264.545459350130     Delta-E=       -0.000000001110 Rises=F Damp=F
 DIIS: error= 3.61D-07 at cycle   5 NSaved=   5.
 NSaved= 5 IEnMin= 5 EnMin= -264.545459350130     IErMin= 5 ErrMin= 3.61D-07
 ErrMax= 3.61D-07  0.00D+00 EMaxC= 1.00D-01 BMatC= 3.40D-11 BMatP= 1.31D-09
 IDIUse=1 WtCom= 1.00D+00 WtEn= 0.00D+00
 Coeff-Com: -0.646D-02 0.266D-01 0.160D+00 0.226D+00 0.594D+00
 Coeff:     -0.646D-02 0.266D-01 0.160D+00 0.226D+00 0.594D+00
 Gap=     0.279 Goal=   None    Shift=    0.000
 RMSDP=5.84D-08 MaxDP=1.13D-06 DE=-1.11D-09 OVMax= 1.60D-06

 Cycle  13  Pass 1  IDiag  1:
 E= -264.545459350159     Delta-E=       -0.000000000029 Rises=F Damp=F
 DIIS: error= 8.21D-08 at cycle   6 NSaved=   6.
 NSaved= 6 IEnMin= 6 EnMin= -264.545459350159     IErMin= 6 ErrMin= 8.21D-08
 ErrMax= 8.21D-08  0.00D+00 EMaxC= 1.00D-01 BMatC= 2.10D-12 BMatP= 3.40D-11
 IDIUse=1 WtCom= 1.00D+00 WtEn= 0.00D+00
 Coeff-Com: -0.318D-02 0.104D-01 0.619D-01 0.982D-01 0.299D+00 0.533D+00
 Coeff:     -0.318D-02 0.104D-01 0.619D-01 0.982D-01 0.299D+00 0.533D+00
 Gap=     0.279 Goal=   None    Shift=    0.000
 RMSDP=1.32D-08 MaxDP=2.51D-07 DE=-2.89D-11 OVMax= 3.69D-07

 Cycle  14  Pass 1  IDiag  1:
 E= -264.545459350159     Delta-E=       -0.000000000000 Rises=F Damp=F
 DIIS: error= 2.15D-08 at cycle   7 NSaved=   7.
 NSaved= 7 IEnMin= 7 EnMin= -264.545459350159     IErMin= 7 ErrMin= 2.15D-08
 ErrMax= 2.15D-08  0.00D+00 EMaxC= 1.00D-01 BMatC= 1.74D-13 BMatP= 2.10D-12
 IDIUse=1 WtCom= 1.00D+00 WtEn= 0.00D+00
 Coeff-Com: -0.680D-03 0.151D-02 0.773D-02 0.179D-01 0.564D-01 0.246D+00
 Coeff-Com:  0.671D+00
 Coeff:     -0.680D-03 0.151D-02 0.773D-02 0.179D-01 0.564D-01 0.246D+00
 Coeff:      0.671D+00
 Gap=     0.279 Goal=   None    Shift=    0.000
 RMSDP=4.15D-09 MaxDP=6.67D-08 DE=-2.27D-13 OVMax= 9.97D-08

 SCF Done:  E(RB3LYP) =  -264.545459350     A.U. after   14 cycles
            NFock= 14  Conv=0.41D-08     -V/T= 2.0089
 KE= 2.622138977431D+02 PE=-9.795537138760D+02 EE= 2.719756960400D+02
 Leave Link  502 at Thu Sep  8 15:24:44 2022, MaxMem= 24159191040 cpu:        30.5
 (Enter /public/home/users/caep010/software/Gaussian09/g09/l601.exe)
 Copying SCF densities to generalized density rwf, IOpCl= 0 IROHF=0.

 **********************************************************************

            Population analysis using the SCF density.

 **********************************************************************

 Orbital symmetries:
       Occupied  (A) (A) (A) (A) (A) (A) (A) (A) (A) (A) (A) (A)
                 (A) (A) (A) (A) (A) (A) (A) (A)
       Virtual   (A) (A) (A) (A) (A) (A) (A) (A) (A) (A) (A) (A)
                 (A) (A) (A) (A) (A) (A) (A) (A) (A) (A) (A) (A)
                 (A) (A) (A) (A) (A) (A) (A) (A) (A) (A) (A) (A)
                 (A) (A) (A) (A) (A) (A) (A) (A) (A) (A) (A) (A)
                 (A) (A) (A) (A) (A) (A) (A) (A) (A) (A) (A) (A)
                 (A) (A) (A) (A) (A) (A) (A) (A) (A) (A) (A) (A)
                 (A) (A) (A) (A) (A) (A) (A) (A) (A) (A) (A) (A)
                 (A)
 The electronic state is 1-A.
 Alpha  occ. eigenvalues --  -19.16081 -14.35586 -14.28802 -10.26861 -10.23915
 Alpha  occ. eigenvalues --   -1.05904  -0.91368  -0.87401  -0.70579  -0.58867
 Alpha  occ. eigenvalues --   -0.53806  -0.50051  -0.47600  -0.45125  -0.42942
 Alpha  occ. eigenvalues --   -0.37324  -0.35747  -0.28797  -0.25133  -0.24953
 Alpha virt. eigenvalues --    0.02944   0.05945   0.10303   0.11448   0.14425
 Alpha virt. eigenvalues --    0.16082   0.18210   0.21119   0.24136   0.34574
 Alpha virt. eigenvalues --    0.40617   0.53035   0.53942   0.56992   0.58741
 Alpha virt. eigenvalues --    0.63605   0.65004   0.68829   0.71941   0.74593
 Alpha virt. eigenvalues --    0.76048   0.78184   0.81796   0.83647   0.85178
 Alpha virt. eigenvalues --    0.88102   0.88912   0.91972   0.94721   0.96726
 Alpha virt. eigenvalues --    1.01889   1.04828   1.15837   1.24542   1.30964
 Alpha virt. eigenvalues --    1.35513   1.41313   1.44787   1.46666   1.56679
 Alpha virt. eigenvalues --    1.60251   1.64929   1.69843   1.72627   1.75376
 Alpha virt. eigenvalues --    1.82252   1.87148   1.90136   1.93411   2.05218
 Alpha virt. eigenvalues --    2.07541   2.16352   2.19908   2.24204   2.26702
 Alpha virt. eigenvalues --    2.28147   2.30639   2.37583   2.42061   2.46967
 Alpha virt. eigenvalues --    2.50387   2.54238   2.55153   2.57220   2.64660
 Alpha virt. eigenvalues --    2.64999   2.70395   2.74639   2.77555   2.81860
 Alpha virt. eigenvalues --    2.87357   2.94487   3.11324   3.12714   3.22050
 Alpha virt. eigenvalues --    3.27614   3.42349   3.44045   3.48405   3.51280
 Alpha virt. eigenvalues --    3.99314   4.05383   4.11055   4.24169   4.57984
          Condensed to atoms (all electrons):
               1          2          3          4          5          6
     1  N    6.776559   0.602136  -0.067028  -0.100867   0.003625   0.319774
     2  C    0.602136   4.526864   0.302432   0.300241  -0.044817  -0.065586
     3  O   -0.067028   0.302432   8.077904  -0.093780  -0.022525   0.006605
     4  C   -0.100867   0.300241  -0.093780   5.159151   0.222729  -0.016327
     5  N    0.003625  -0.044817  -0.022525   0.222729   6.812891   0.000616
     6  H    0.319774  -0.065586   0.006605  -0.016327   0.000616   0.537090
     7  H    0.006034  -0.039490   0.284155  -0.017892   0.055650  -0.000407
     8  H    0.000706  -0.041552   0.002148   0.373072  -0.037576   0.005384
     9  H   -0.000731  -0.029410   0.000633   0.378290  -0.034956   0.000774
    10  H   -0.000146   0.003605   0.000467  -0.023186   0.338945  -0.000028
    11  H    0.000082   0.001317   0.000899  -0.035758   0.342775  -0.000026
               7          8          9         10         11
     1  N    0.006034   0.000706  -0.000731  -0.000146   0.000082
     2  C   -0.039490  -0.041552  -0.029410   0.003605   0.001317
     3  O    0.284155   0.002148   0.000633   0.000467   0.000899
     4  C   -0.017892   0.373072   0.378290  -0.023186  -0.035758
     5  N    0.055650  -0.037576  -0.034956   0.338945   0.342775
     6  H   -0.000407   0.005384   0.000774  -0.000028  -0.000026
     7  H    0.378868   0.001949   0.000244  -0.000871  -0.002060
     8  H    0.001949   0.622146  -0.032015   0.000416  -0.007449
     9  H    0.000244  -0.032015   0.576050  -0.008865   0.005572
    10  H   -0.000871   0.000416  -0.008865   0.458977  -0.030946
    11  H   -0.002060  -0.007449   0.005572  -0.030946   0.459543
 Mulliken charges:
               1
     1  N   -0.540144
     2  C    0.484260
     3  O   -0.491909
     4  C   -0.145673
     5  N   -0.637355
     6  H    0.212130
     7  H    0.333820
     8  H    0.112771
     9  H    0.144416
    10  H    0.261633
    11  H    0.266051
 Sum of Mulliken charges =  -0.00000
 Mulliken charges with hydrogens summed into heavy atoms:
               1
     1  N   -0.328014
     2  C    0.484260
     3  O   -0.158089
     4  C    0.111514
     5  N   -0.109671
 Electronic spatial extent (au):  <R**2>=            423.2551
 Charge=             -0.0000 electrons
 Dipole moment (field-independent basis, Debye):
    X=             -5.1409    Y=             -2.4665    Z=             -0.0569  Tot=              5.7023
 Quadrupole moment (field-independent basis, Debye-Ang):
   XX=            -32.3804   YY=            -29.0674   ZZ=            -28.5810
   XY=             -1.3985   XZ=              1.0343   YZ=             -0.2566
 Traceless Quadrupole moment (field-independent basis, Debye-Ang):
   XX=             -2.3708   YY=              0.9422   ZZ=              1.4286
   XY=             -1.3985   XZ=              1.0343   YZ=             -0.2566
 Octapole moment (field-independent basis, Debye-Ang**2):
  XXX=            -33.4240  YYY=             -0.8368  ZZZ=             -1.0231  XYY=              0.0619
  XXY=             -4.1636  XXZ=             -0.0338  XZZ=             -5.4839  YZZ=              0.7019
  YYZ=             -0.2756  XYZ=              0.7908
 Hexadecapole moment (field-independent basis, Debye-Ang**3):
 XXXX=           -329.1667 YYYY=           -137.4124 ZZZZ=            -37.6813 XXXY=              6.1136
 XXXZ=              3.3523 YYYX=            -11.5218 YYYZ=              2.1687 ZZZX=              4.4972
 ZZZY=             -0.8596 XXYY=            -77.0397 XXZZ=            -57.3815 YYZZ=            -30.8833
 XXYZ=             -1.2174 YYXZ=             -0.9204 ZZXY=              0.8500
 N-N= 1.808186607427D+02 E-N=-9.795537162693D+02  KE= 2.622138977431D+02
 No NMR shielding tensors so no spin-rotation constants.
 Leave Link  601 at Thu Sep  8 15:24:45 2022, MaxMem= 24159191040 cpu:        10.2
 (Enter /public/home/users/caep010/software/Gaussian09/g09/l701.exe)
 Compute integral first derivatives.
 ... and contract with generalized density number  0.
 Leave Link  701 at Thu Sep  8 15:24:45 2022, MaxMem= 24159191040 cpu:        10.6
 (Enter /public/home/users/caep010/software/Gaussian09/g09/l702.exe)
 L702 exits ... SP integral derivatives will be done elsewhere.
 Leave Link  702 at Thu Sep  8 15:24:45 2022, MaxMem= 24159191040 cpu:         0.5
 (Enter /public/home/users/caep010/software/Gaussian09/g09/l703.exe)
 Compute integral first derivatives, UseDBF=F ICtDFT=           0.
 Integral derivatives from FoFJK, PRISM(SPDF).
 Calling FoFJK, ICntrl=      2127 FMM=F ISym2X=0 I1Cent= 0 IOpClX= 0 NMat=1 NMatS=1 NMatT=0.
 FoFJK:  IHMeth= 1 ICntrl=    2127 DoSepK=F KAlg= 0 I1Cent=   0 FoldK=F
 IRaf=         0 NMat=   1 IRICut=       1 DoRegI=T DoRafI=F ISym2E= 0.
 FoFCou: FMM=F IPFlag=           0 FMFlag=      100000 FMFlg1=         800
         NFxFlg=           0 DoJE=F BraDBF=F KetDBF=F FulRan=T
         wScrn=  0.000000 ICntrl=    2127 IOpCl=  0 I1Cent=           0 NGrid=           0
         NMat0=    1 NMatS0=      1 NMatT0=    0 NMatD0=    1 NMtDS0=    0 NMtDT0=    0
 Symmetry not used in FoFCou.
 Leave Link  703 at Thu Sep  8 15:24:46 2022, MaxMem= 24159191040 cpu:        12.8
 (Enter /public/home/users/caep010/software/Gaussian09/g09/l716.exe)
 Dipole        =-2.02258300D+00-9.70402279D-01-2.23878174D-02
 ***** Axes restored to original set *****
 -------------------------------------------------------------------
 Center     Atomic                   Forces (Hartrees/Bohr)
 Number     Number              X              Y              Z
 -------------------------------------------------------------------
      1        7          -0.004070148   -0.002482588    0.001593409
      2        6           0.003155801   -0.000151374   -0.001706593
      3        8          -0.002636743    0.001213087    0.002427471
      4        6           0.000423912    0.000180001   -0.001061190
      5        7          -0.001667352    0.000218832    0.000724047
      6        1           0.000703957   -0.000886202   -0.001108340
      7        1           0.002468494    0.002121962   -0.000492739
      8        1           0.000036045   -0.000451404   -0.000163606
      9        1          -0.000039707    0.000024450   -0.000196550
     10        1           0.000670902    0.000914254   -0.000990668
     11        1           0.000954838   -0.000701018    0.000974758
 -------------------------------------------------------------------
 Cartesian Forces:  Max     0.004070148 RMS     0.001511686
 Leave Link  716 at Thu Sep  8 15:24:46 2022, MaxMem= 24159191040 cpu:         0.7
 (Enter /public/home/users/caep010/software/Gaussian09/g09/l103.exe)

 GradGradGradGradGradGradGradGradGradGradGradGradGradGradGradGradGradGrad
 Berny optimization.
 FormGI is forming the generalized inverse of G from B-inverse, IUseBI=4.
 Internal  Forces:  Max     0.004750804 RMS     0.001239903
 Search for a local minimum.
 Step number   1 out of a maximum of   50
 All quantities printed in internal units (Hartrees-Bohrs-Radians)
 RMS Force = .12399D-02 SwitMx=.10000D-02 MixMth= 1
 Mixed Optimization -- RFO/linear search
 Second derivative matrix not updated -- first step.
 ITU=  0
     Eigenvalues ---    0.00308   0.00805   0.01401   0.02464   0.03450
     Eigenvalues ---    0.03957   0.04979   0.06537   0.09616   0.13081
     Eigenvalues ---    0.16000   0.16000   0.16000   0.16000   0.21943
     Eigenvalues ---    0.24989   0.24995   0.28999   0.33966   0.34136
     Eigenvalues ---    0.36099   0.44422   0.45232   0.45529   0.51732
     Eigenvalues ---    0.56838   0.77221
 RFO step:  Lambda=-1.37486080D-04 EMin= 3.07665428D-03
 Linear search not attempted -- first point.
 Iteration  1 RMS(Cart)=  0.01558982 RMS(Int)=  0.00010942
 Iteration  2 RMS(Cart)=  0.00013905 RMS(Int)=  0.00000611
 Iteration  3 RMS(Cart)=  0.00000001 RMS(Int)=  0.00000611
 ITry= 1 IFail=0 DXMaxC= 3.89D-02 DCOld= 1.00D+10 DXMaxT= 3.00D-01 DXLimC= 3.00D+00 Rises=F
 Variable       Old X    -DE/DX   Delta X   Delta X   Delta X     New X
                                 (Linear)    (Quad)   (Total)
    R1        2.39450   0.00475   0.00000   0.00615   0.00615   2.40065
    R2        1.92652   0.00154   0.00000   0.00348   0.00348   1.93000
    R3        2.53534   0.00381   0.00000   0.00671   0.00671   2.54205
    R4        2.90006   0.00076   0.00000   0.00261   0.00261   2.90267
    R5        1.84857   0.00329   0.00000   0.00635   0.00635   1.85492
    R6        2.77228   0.00052   0.00000   0.00143   0.00143   2.77371
    R7        2.07387   0.00045   0.00000   0.00133   0.00133   2.07520
    R8        2.07102   0.00019   0.00000   0.00056   0.00056   2.07158
    R9        1.91366   0.00148   0.00000   0.00324   0.00324   1.91691
   R10        1.91708   0.00153   0.00000   0.00339   0.00339   1.92047
    A1        1.91905  -0.00066   0.00000  -0.00411  -0.00411   1.91494
    A2        2.10281   0.00012   0.00000   0.00034   0.00032   2.10314
    A3        2.20530   0.00083   0.00000   0.00320   0.00319   2.20849
    A4        1.97444  -0.00095   0.00000  -0.00391  -0.00392   1.97052
    A5        1.83430   0.00037   0.00000   0.00233   0.00233   1.83664
    A6        1.92718  -0.00148   0.00000  -0.00716  -0.00716   1.92002
    A7        1.90405   0.00046   0.00000   0.00146   0.00146   1.90551
    A8        1.87678   0.00036   0.00000   0.00113   0.00113   1.87791
    A9        1.99806   0.00051   0.00000   0.00246   0.00245   2.00051
   A10        1.88310   0.00041   0.00000   0.00190   0.00190   1.88500
   A11        1.87004  -0.00022   0.00000   0.00043   0.00042   1.87046
   A12        1.94899   0.00030   0.00000   0.00272   0.00272   1.95170
   A13        1.94080  -0.00009   0.00000   0.00027   0.00027   1.94106
   A14        1.87667   0.00002   0.00000   0.00166   0.00166   1.87833
    D1       -3.13956  -0.00007   0.00000  -0.00520  -0.00521   3.13841
    D2        0.04293   0.00012   0.00000   0.00659   0.00660   0.04952
    D3        3.06489   0.00014   0.00000   0.00835   0.00834   3.07322
    D4       -0.11252   0.00002   0.00000  -0.00182  -0.00181  -0.11433
    D5       -2.79134  -0.00003   0.00000   0.01585   0.01585  -2.77549
    D6       -0.58107  -0.00009   0.00000   0.01498   0.01498  -0.56609
    D7        1.44144   0.00009   0.00000   0.01685   0.01685   1.45829
    D8        0.38857   0.00013   0.00000   0.02682   0.02682   0.41540
    D9        2.59885   0.00007   0.00000   0.02595   0.02595   2.62480
   D10       -1.66183   0.00024   0.00000   0.02782   0.02782  -1.63400
   D11       -2.67532   0.00013   0.00000   0.00906   0.00906  -2.66626
   D12        1.51157  -0.00004   0.00000   0.00491   0.00491   1.51648
   D13        1.45107   0.00031   0.00000   0.01096   0.01096   1.46203
   D14       -0.64523   0.00015   0.00000   0.00681   0.00681  -0.63841
   D15       -0.62882  -0.00002   0.00000   0.00755   0.00755  -0.62127
   D16       -2.72512  -0.00018   0.00000   0.00341   0.00340  -2.72171
         Item               Value     Threshold  Converged?
 Maximum Force            0.004751     0.000450     NO 
 RMS     Force            0.001240     0.000300     NO 
 Maximum Displacement     0.038871     0.001800     NO 
 RMS     Displacement     0.015616     0.001200     NO 
 Predicted change in Energy=-6.900084D-05
 Lowest energy point so far.  Saving SCF results.
 GradGradGradGradGradGradGradGradGradGradGradGradGradGradGradGradGradGrad

 Leave Link  103 at Thu Sep  8 15:24:46 2022, MaxMem= 24159191040 cpu:         1.4
 (Enter /public/home/users/caep010/software/Gaussian09/g09/l202.exe)
                          Input orientation:                          
 ---------------------------------------------------------------------
 Center     Atomic      Atomic             Coordinates (Angstroms)
 Number     Number       Type             X           Y           Z
 ---------------------------------------------------------------------
      1          7           0       -1.735338   -1.294508    0.466698
      2          6           0       -0.935720   -0.308634    0.416687
      3          8           0       -1.111983    0.754918    1.221256
      4          6           0        0.246894   -0.138437   -0.548632
      5          7           0        1.204769    0.830876   -0.003388
      6          1           0       -1.451304   -2.003304   -0.211541
      7          1           0       -0.345384    1.341909    1.044426
      8          1           0        0.672894   -1.125020   -0.774696
      9          1           0       -0.147574    0.266638   -1.487799
     10          1           0        1.728729    1.296565   -0.736582
     11          1           0        1.874117    0.379197    0.613670
 ---------------------------------------------------------------------
                    Distance matrix (angstroms):
                    1          2          3          4          5
     1  N    0.000000
     2  C    1.270369   0.000000
     3  O    2.271139   1.345193   0.000000
     4  C    2.509310   1.536028   2.403566   0.000000
     5  N    3.658206   2.461025   2.621615   1.467783   0.000000
     6  H    1.021311   1.879469   3.126633   2.544648   3.889812
     7  H    3.035858   1.861947   0.981581   2.253897   1.939599
     8  H    2.714658   2.161833   3.271663   1.098148   2.168718
     9  H    2.962808   2.139902   2.916758   1.096232   2.085826
    10  H    4.490134   3.317526   3.492299   2.071326   1.014383
    11  H    3.981339   2.899500   3.070362   2.065611   1.016268
                    6          7          8          9         10
     6  H    0.000000
     7  H    3.740450   0.000000
     8  H    2.366590   3.229836   0.000000
     9  H    2.912248   2.758169   1.765898   0.000000
    10  H    4.612745   2.734226   2.642028   2.268388   0.000000
    11  H    4.173214   2.457346   2.373430   2.918231   1.638866
                   11
    11  H    0.000000
 Stoichiometry    C2H6N2O
 Framework group  C1[X(C2H6N2O)]
 Deg. of freedom    27
 Full point group                 C1      NOp   1
 RotChk:  IX=0 Diff= 1.21D-02
 Largest Abelian subgroup         C1      NOp   1
 Largest concise Abelian subgroup C1      NOp   1
                         Standard orientation:                         
 ---------------------------------------------------------------------
 Center     Atomic      Atomic             Coordinates (Angstroms)
 Number     Number       Type             X           Y           Z
 ---------------------------------------------------------------------
      1          7           0        1.832672   -0.495819   -0.139098
      2          6           0        0.672953   -0.000192    0.013350
      3          8           0        0.503641    1.332540    0.081937
      4          6           0       -0.637113   -0.779672    0.201819
      5          7           0       -1.781639    0.069068   -0.150440
      6          1           0        1.771025   -1.514903   -0.166345
      7          1           0       -0.467316    1.466798    0.134075
      8          1           0       -0.578681   -1.723666   -0.356206
      9          1           0       -0.720046   -1.036431    1.264326
     10          1           0       -2.621253   -0.203607    0.349229
     11          1           0       -1.985136    0.017930   -1.144812
 ---------------------------------------------------------------------
 Rotational constants (GHZ):      9.7021466      4.0390352      3.0012329
 Leave Link  202 at Thu Sep  8 15:24:46 2022, MaxMem= 24159191040 cpu:         0.2
 (Enter /public/home/users/caep010/software/Gaussian09/g09/l301.exe)
 Standard basis: 6-31G(d,p) (6D, 7F)
 Ernie: Thresh=  0.10000D-02 Tol=  0.10000D-05 Strict=F.
 There are   105 symmetry adapted cartesian basis functions of A   symmetry.
 There are   105 symmetry adapted basis functions of A   symmetry.
   105 basis functions,   182 primitive gaussians,   105 cartesian basis functions
    20 alpha electrons       20 beta electrons
       nuclear repulsion energy       180.6077418379 Hartrees.
 IExCor=  402 DFT=T Ex+Corr=B3LYP ExCW=0 ScaHFX=  0.200000
 ScaDFX=  0.800000  0.720000  1.000000  0.810000 ScalE2=  1.000000  1.000000
 IRadAn=      0 IRanWt=     -1 IRanGd=            0 ICorTp=0 IEmpDi=  4
 NAtoms=   11 NActive=   11 NUniq=   11 SFac= 1.00D+00 NAtFMM=   60 NAOKFM=F Big=F
 Integral buffers will be    131072 words long.
 Raffenetti 2 integral format.
 Two-electron integral symmetry is turned on.
 Leave Link  301 at Thu Sep  8 15:24:46 2022, MaxMem= 24159191040 cpu:         1.7
 (Enter /public/home/users/caep010/software/Gaussian09/g09/l302.exe)
 NPDir=0 NMtPBC=     1 NCelOv=     1 NCel=       1 NClECP=     1 NCelD=      1
         NCelK=      1 NCelE2=     1 NClLst=     1 CellRange=     0.0.
 One-electron integrals computed using PRISM.
 NBasis=   105 RedAO= T EigKep=  2.85D-03  NBF=   105
 NBsUse=   105 1.00D-06 EigRej= -1.00D+00 NBFU=   105
 Precomputing XC quadrature grid using
 IXCGrd= 4 IRadAn=           0 IRanWt=          -1 IRanGd=           0 AccXCQ= 0.00D+00.
 Generated NRdTot=       0 NPtTot=           0 NUsed=           0 NTot=          32
 NSgBfM=   105   105   105   105   105 MxSgAt=    11 MxSgA2=    11.
 Leave Link  302 at Thu Sep  8 15:24:46 2022, MaxMem= 24159191040 cpu:        10.8
 (Enter /public/home/users/caep010/software/Gaussian09/g09/l303.exe)
 DipDrv:  MaxL=1.
 Leave Link  303 at Thu Sep  8 15:24:46 2022, MaxMem= 24159191040 cpu:         0.6
 (Enter /public/home/users/caep010/software/Gaussian09/g09/l401.exe)
 Initial guess from the checkpoint file:  "B3LYP6-31Gdp.Frag_535.chk"
 B after Tr=     0.000000   -0.000000    0.000000
         Rot=    0.999997    0.002267    0.000326   -0.000863 Ang=   0.28 deg.
 Guess basis will be translated and rotated to current coordinates.
 JPrj=2 DoOrth=T DoCkMO=T.
 Generating alternative initial guess.
 ExpMin= 1.61D-01 ExpMax= 5.48D+03 ExpMxC= 8.25D+02 IAcc=1 IRadAn=         1 AccDes= 0.00D+00
 Harris functional with IExCor=  402 and IRadAn=       1 diagonalized for initial guess.
 HarFok:  IExCor=  402 AccDes= 0.00D+00 IRadAn=         1 IDoV= 1 UseB2=F ITyADJ=14
 ICtDFT=  3500011 ScaDFX=  1.000000  1.000000  1.000000  1.000000
 FoFCou: FMM=F IPFlag=           0 FMFlag=      100000 FMFlg1=           0
         NFxFlg=           0 DoJE=T BraDBF=F KetDBF=T FulRan=T
         wScrn=  0.000000 ICntrl=     500 IOpCl=  0 I1Cent=   200000004 NGrid=           0
         NMat0=    1 NMatS0=      1 NMatT0=    0 NMatD0=    1 NMtDS0=    0 NMtDT0=    0
 Petite list used in FoFCou.
 Harris En= -264.563130196313    
 Leave Link  401 at Thu Sep  8 15:24:47 2022, MaxMem= 24159191040 cpu:        11.3
 (Enter /public/home/users/caep010/software/Gaussian09/g09/l502.exe)
 Closed shell SCF:
 Using DIIS extrapolation, IDIIS=  1040.
 Integral symmetry usage will be decided dynamically.
 Keep R1 ints in memory in canonical form, NReq=16470489.
 IVT=       55780 IEndB=       55780 NGot= 24159191040 MDV= 24143647866
 LenX= 24143647866 LenY= 24143636400
 Requested convergence on RMS density matrix=1.00D-08 within 128 cycles.
 Requested convergence on MAX density matrix=1.00D-06.
 Requested convergence on             energy=1.00D-06.
 No special actions if energy rises.
 FoFCou: FMM=F IPFlag=           0 FMFlag=           0 FMFlg1=           0
         NFxFlg=           0 DoJE=F BraDBF=F KetDBF=F FulRan=T
         wScrn=  0.000000 ICntrl=     600 IOpCl=  0 I1Cent=           0 NGrid=           0
         NMat0=    1 NMatS0=   5565 NMatT0=    0 NMatD0=    1 NMtDS0=    0 NMtDT0=    0
 Symmetry not used in FoFCou.
 Integral accuracy reduced to 1.0D-05 until final iterations.

 Cycle   1  Pass 0  IDiag  1:
 E= -264.545197915083    
 DIIS: error= 7.23D-04 at cycle   1 NSaved=   1.
 NSaved= 1 IEnMin= 1 EnMin= -264.545197915083     IErMin= 1 ErrMin= 7.23D-04
 ErrMax= 7.23D-04  0.00D+00 EMaxC= 1.00D-01 BMatC= 1.57D-04 BMatP= 1.57D-04
 IDIUse=3 WtCom= 9.93D-01 WtEn= 7.23D-03
 Coeff-Com:  0.100D+01
 Coeff-En:   0.100D+01
 Coeff:      0.100D+01
 Gap=     1.611 Goal=   None    Shift=    0.000
 RMSDP=2.17D-04 MaxDP=3.30D-03              OVMax= 5.13D-03

 Cycle   2  Pass 0  IDiag  1:
 E= -264.545464096395     Delta-E=       -0.000266181312 Rises=F Damp=F
 DIIS: error= 1.29D-04 at cycle   2 NSaved=   2.
 NSaved= 2 IEnMin= 2 EnMin= -264.545464096395     IErMin= 2 ErrMin= 1.29D-04
 ErrMax= 1.29D-04  0.00D+00 EMaxC= 1.00D-01 BMatC= 4.33D-06 BMatP= 1.57D-04
 IDIUse=3 WtCom= 9.99D-01 WtEn= 1.29D-03
 Coeff-Com: -0.222D-01 0.102D+01
 Coeff-En:   0.000D+00 0.100D+01
 Coeff:     -0.222D-01 0.102D+01
 Gap=     0.278 Goal=   None    Shift=    0.000
 RMSDP=4.29D-05 MaxDP=5.77D-04 DE=-2.66D-04 OVMax= 8.10D-04

 Cycle   3  Pass 0  IDiag  1:
 E= -264.545466124131     Delta-E=       -0.000002027736 Rises=F Damp=F
 DIIS: error= 1.35D-04 at cycle   3 NSaved=   3.
 NSaved= 3 IEnMin= 3 EnMin= -264.545466124131     IErMin= 2 ErrMin= 1.29D-04
 ErrMax= 1.35D-04  0.00D+00 EMaxC= 1.00D-01 BMatC= 3.80D-06 BMatP= 4.33D-06
 IDIUse=3 WtCom= 9.99D-01 WtEn= 1.35D-03
 Coeff-Com: -0.367D-01 0.508D+00 0.528D+00
 Coeff-En:   0.000D+00 0.324D+00 0.676D+00
 Coeff:     -0.367D-01 0.508D+00 0.528D+00
 Gap=     0.278 Goal=   None    Shift=    0.000
 RMSDP=2.07D-05 MaxDP=3.46D-04 DE=-2.03D-06 OVMax= 4.06D-04

 Cycle   4  Pass 0  IDiag  1:
 E= -264.545469337154     Delta-E=       -0.000003213023 Rises=F Damp=F
 DIIS: error= 1.83D-05 at cycle   4 NSaved=   4.
 NSaved= 4 IEnMin= 4 EnMin= -264.545469337154     IErMin= 4 ErrMin= 1.83D-05
 ErrMax= 1.83D-05  0.00D+00 EMaxC= 1.00D-01 BMatC= 1.08D-07 BMatP= 3.80D-06
 IDIUse=1 WtCom= 1.00D+00 WtEn= 0.00D+00
 Coeff-Com: -0.134D-01 0.157D+00 0.218D+00 0.639D+00
 Coeff:     -0.134D-01 0.157D+00 0.218D+00 0.639D+00
 Gap=     0.278 Goal=   None    Shift=    0.000
 RMSDP=3.98D-06 MaxDP=7.77D-05 DE=-3.21D-06 OVMax= 1.05D-04

 Initial convergence to 1.0D-05 achieved.  Increase integral accuracy.
 Cycle   5  Pass 1  IDiag  1:
 E= -264.545502134777     Delta-E=       -0.000032797624 Rises=F Damp=F
 DIIS: error= 1.32D-05 at cycle   1 NSaved=   1.
 NSaved= 1 IEnMin= 1 EnMin= -264.545502134777     IErMin= 1 ErrMin= 1.32D-05
 ErrMax= 1.32D-05  0.00D+00 EMaxC= 1.00D-01 BMatC= 4.59D-08 BMatP= 4.59D-08
 IDIUse=1 WtCom= 1.00D+00 WtEn= 0.00D+00
 Coeff-Com:  0.100D+01
 Coeff:      0.100D+01
 Gap=     0.278 Goal=   None    Shift=    0.000
 RMSDP=3.98D-06 MaxDP=7.77D-05 DE=-3.28D-05 OVMax= 1.47D-04

 Cycle   6  Pass 1  IDiag  1:
 E= -264.545502086974     Delta-E=        0.000000047804 Rises=F Damp=F
 DIIS: error= 2.22D-05 at cycle   2 NSaved=   2.
 NSaved= 2 IEnMin= 1 EnMin= -264.545502134777     IErMin= 1 ErrMin= 1.32D-05
 ErrMax= 2.22D-05  0.00D+00 EMaxC= 1.00D-01 BMatC= 1.06D-07 BMatP= 4.59D-08
 IDIUse=1 WtCom= 1.00D+00 WtEn= 0.00D+00
 Coeff-Com:  0.615D+00 0.385D+00
 Coeff:      0.615D+00 0.385D+00
 Gap=     0.278 Goal=   None    Shift=    0.000
 RMSDP=2.92D-06 MaxDP=8.53D-05 DE= 4.78D-08 OVMax= 1.26D-04

 Cycle   7  Pass 1  IDiag  1:
 E= -264.545502177773     Delta-E=       -0.000000090800 Rises=F Damp=F
 DIIS: error= 4.22D-06 at cycle   3 NSaved=   3.
 NSaved= 3 IEnMin= 3 EnMin= -264.545502177773     IErMin= 3 ErrMin= 4.22D-06
 ErrMax= 4.22D-06  0.00D+00 EMaxC= 1.00D-01 BMatC= 3.24D-09 BMatP= 4.59D-08
 IDIUse=1 WtCom= 1.00D+00 WtEn= 0.00D+00
 Coeff-Com:  0.104D+00 0.159D+00 0.737D+00
 Coeff:      0.104D+00 0.159D+00 0.737D+00
 Gap=     0.278 Goal=   None    Shift=    0.000
 RMSDP=7.82D-07 MaxDP=2.11D-05 DE=-9.08D-08 OVMax= 3.36D-05

 Cycle   8  Pass 1  IDiag  1:
 E= -264.545502179402     Delta-E=       -0.000000001629 Rises=F Damp=F
 DIIS: error= 3.44D-06 at cycle   4 NSaved=   4.
 NSaved= 4 IEnMin= 4 EnMin= -264.545502179402     IErMin= 4 ErrMin= 3.44D-06
 ErrMax= 3.44D-06  0.00D+00 EMaxC= 1.00D-01 BMatC= 1.53D-09 BMatP= 3.24D-09
 IDIUse=1 WtCom= 1.00D+00 WtEn= 0.00D+00
 Coeff-Com: -0.120D-01 0.543D-01 0.486D+00 0.471D+00
 Coeff:     -0.120D-01 0.543D-01 0.486D+00 0.471D+00
 Gap=     0.278 Goal=   None    Shift=    0.000
 RMSDP=3.29D-07 MaxDP=7.93D-06 DE=-1.63D-09 OVMax= 1.15D-05

 Cycle   9  Pass 1  IDiag  1:
 E= -264.545502180635     Delta-E=       -0.000000001233 Rises=F Damp=F
 DIIS: error= 4.64D-07 at cycle   5 NSaved=   5.
 NSaved= 5 IEnMin= 5 EnMin= -264.545502180635     IErMin= 5 ErrMin= 4.64D-07
 ErrMax= 4.64D-07  0.00D+00 EMaxC= 1.00D-01 BMatC= 2.91D-11 BMatP= 1.53D-09
 IDIUse=1 WtCom= 1.00D+00 WtEn= 0.00D+00
 Coeff-Com: -0.913D-02 0.245D-01 0.241D+00 0.252D+00 0.492D+00
 Coeff:     -0.913D-02 0.245D-01 0.241D+00 0.252D+00 0.492D+00
 Gap=     0.278 Goal=   None    Shift=    0.000
 RMSDP=5.25D-08 MaxDP=1.18D-06 DE=-1.23D-09 OVMax= 1.08D-06

 Cycle  10  Pass 1  IDiag  1:
 E= -264.545502180655     Delta-E=       -0.000000000020 Rises=F Damp=F
 DIIS: error= 4.24D-08 at cycle   6 NSaved=   6.
 NSaved= 6 IEnMin= 6 EnMin= -264.545502180655     IErMin= 6 ErrMin= 4.24D-08
 ErrMax= 4.24D-08  0.00D+00 EMaxC= 1.00D-01 BMatC= 4.92D-13 BMatP= 2.91D-11
 IDIUse=1 WtCom= 1.00D+00 WtEn= 0.00D+00
 Coeff-Com: -0.180D-02 0.296D-02 0.359D-01 0.405D-01 0.144D+00 0.778D+00
 Coeff:     -0.180D-02 0.296D-02 0.359D-01 0.405D-01 0.144D+00 0.778D+00
 Gap=     0.278 Goal=   None    Shift=    0.000
 RMSDP=7.92D-09 MaxDP=1.84D-07 DE=-1.98D-11 OVMax= 2.00D-07

 SCF Done:  E(RB3LYP) =  -264.545502181     A.U. after   10 cycles
            NFock= 10  Conv=0.79D-08     -V/T= 2.0090
 KE= 2.621761410407D+02 PE=-9.791151410130D+02 EE= 2.717857559538D+02
 Leave Link  502 at Thu Sep  8 15:24:48 2022, MaxMem= 24159191040 cpu:        24.6
 (Enter /public/home/users/caep010/software/Gaussian09/g09/l701.exe)
 Compute integral first derivatives.
 ... and contract with generalized density number  0.
 Leave Link  701 at Thu Sep  8 15:24:48 2022, MaxMem= 24159191040 cpu:        11.7
 (Enter /public/home/users/caep010/software/Gaussian09/g09/l702.exe)
 L702 exits ... SP integral derivatives will be done elsewhere.
 Leave Link  702 at Thu Sep  8 15:24:49 2022, MaxMem= 24159191040 cpu:         0.5
 (Enter /public/home/users/caep010/software/Gaussian09/g09/l703.exe)
 Compute integral first derivatives, UseDBF=F ICtDFT=           0.
 Integral derivatives from FoFJK, PRISM(SPDF).
 Calling FoFJK, ICntrl=      2127 FMM=F ISym2X=0 I1Cent= 0 IOpClX= 0 NMat=1 NMatS=1 NMatT=0.
 FoFJK:  IHMeth= 1 ICntrl=    2127 DoSepK=F KAlg= 0 I1Cent=   0 FoldK=F
 IRaf=         0 NMat=   1 IRICut=       1 DoRegI=T DoRafI=F ISym2E= 0.
 FoFCou: FMM=F IPFlag=           0 FMFlag=      100000 FMFlg1=         800
         NFxFlg=           0 DoJE=F BraDBF=F KetDBF=F FulRan=T
         wScrn=  0.000000 ICntrl=    2127 IOpCl=  0 I1Cent=           0 NGrid=           0
         NMat0=    1 NMatS0=      1 NMatT0=    0 NMatD0=    1 NMtDS0=    0 NMtDT0=    0
 Symmetry not used in FoFCou.
 Leave Link  703 at Thu Sep  8 15:24:49 2022, MaxMem= 24159191040 cpu:         9.3
 (Enter /public/home/users/caep010/software/Gaussian09/g09/l716.exe)
 Dipole        =-2.02818626D+00-9.75382081D-01-4.11398355D-04
 ***** Axes restored to original set *****
 -------------------------------------------------------------------
 Center     Atomic                   Forces (Hartrees/Bohr)
 Number     Number              X              Y              Z
 -------------------------------------------------------------------
      1        7          -0.000517891    0.000184371    0.000832000
      2        6           0.000223907    0.000073927   -0.001334134
      3        8          -0.001081223    0.000149929    0.000533797
      4        6           0.000161725   -0.000129954    0.000259607
      5        7           0.000051814    0.000392575   -0.000383170
      6        1           0.000370187   -0.000030864   -0.000096794
      7        1           0.000796055   -0.000743941    0.000118609
      8        1           0.000040802    0.000088230   -0.000005688
      9        1           0.000016886    0.000044925    0.000059171
     10        1           0.000106427   -0.000196927   -0.000050828
     11        1          -0.000168688    0.000167728    0.000067429
 -------------------------------------------------------------------
 Cartesian Forces:  Max     0.001334134 RMS     0.000433385
 Leave Link  716 at Thu Sep  8 15:24:49 2022, MaxMem= 24159191040 cpu:         0.6
 (Enter /public/home/users/caep010/software/Gaussian09/g09/l103.exe)

 GradGradGradGradGradGradGradGradGradGradGradGradGradGradGradGradGradGrad
 Berny optimization.
 Using GEDIIS/GDIIS optimizer.
 FormGI is forming the generalized inverse of G from B-inverse, IUseBI=4.
 Internal  Forces:  Max     0.001274111 RMS     0.000356502
 Search for a local minimum.
 Step number   2 out of a maximum of   50
 All quantities printed in internal units (Hartrees-Bohrs-Radians)
 RMS Force = .35650D-03 SwitMx=.10000D-02 MixMth= 2
 Mixed Optimization -- En-DIIS/RFO-DIIS
 Update second derivatives using D2CorX and points    1    2
 DE= -4.28D-05 DEPred=-6.90D-05 R= 6.21D-01
 TightC=F SS=  1.41D+00  RLast= 6.08D-02 DXNew= 5.0454D-01 1.8255D-01
 Trust test= 6.21D-01 RLast= 6.08D-02 DXMaxT set to 3.00D-01
 ITU=  1  0
 Use linear search instead of GDIIS.
     Eigenvalues ---    0.00404   0.00850   0.01525   0.02715   0.03439
     Eigenvalues ---    0.03946   0.05050   0.06542   0.09570   0.12976
     Eigenvalues ---    0.14931   0.16000   0.16000   0.16560   0.22790
     Eigenvalues ---    0.24037   0.25703   0.28694   0.33977   0.34143
     Eigenvalues ---    0.35951   0.42558   0.45154   0.45389   0.49174
     Eigenvalues ---    0.55471   0.74136
 RFO step:  Lambda=-9.36474828D-05 EMin= 4.04090361D-03
 Quartic linear search produced a step of -0.27377.
 Iteration  1 RMS(Cart)=  0.02848149 RMS(Int)=  0.00029835
 Iteration  2 RMS(Cart)=  0.00039337 RMS(Int)=  0.00000397
 Iteration  3 RMS(Cart)=  0.00000006 RMS(Int)=  0.00000397
 ITry= 1 IFail=0 DXMaxC= 7.15D-02 DCOld= 1.00D+10 DXMaxT= 3.00D-01 DXLimC= 3.00D+00 Rises=F
 Variable       Old X    -DE/DX   Delta X   Delta X   Delta X     New X
                                 (Linear)    (Quad)   (Total)
    R1        2.40065   0.00000  -0.00168   0.00592   0.00423   2.40488
    R2        1.93000   0.00019  -0.00095   0.00365   0.00270   1.93269
    R3        2.54205  -0.00004  -0.00184   0.00640   0.00456   2.54661
    R4        2.90267   0.00024  -0.00072   0.00310   0.00239   2.90506
    R5        1.85492   0.00016  -0.00174   0.00633   0.00459   1.85951
    R6        2.77371   0.00010  -0.00039   0.00157   0.00118   2.77488
    R7        2.07520  -0.00006  -0.00036   0.00115   0.00078   2.07598
    R8        2.07158  -0.00004  -0.00015   0.00045   0.00030   2.07188
    R9        1.91691   0.00000  -0.00089   0.00312   0.00223   1.91914
   R10        1.92047  -0.00014  -0.00093   0.00303   0.00210   1.92257
    A1        1.91494  -0.00057   0.00113  -0.00653  -0.00540   1.90954
    A2        2.10314  -0.00058  -0.00009  -0.00115  -0.00125   2.10189
    A3        2.20849   0.00047  -0.00087   0.00462   0.00375   2.21224
    A4        1.97052   0.00012   0.00107  -0.00326  -0.00219   1.96833
    A5        1.83664  -0.00127  -0.00064  -0.00355  -0.00419   1.83245
    A6        1.92002   0.00049   0.00196  -0.00509  -0.00313   1.91689
    A7        1.90551  -0.00020  -0.00040   0.00154   0.00114   1.90665
    A8        1.87791  -0.00004  -0.00031   0.00063   0.00031   1.87822
    A9        2.00051   0.00004  -0.00067   0.00360   0.00293   2.00344
   A10        1.88500  -0.00039  -0.00052  -0.00093  -0.00145   1.88355
   A11        1.87046   0.00008  -0.00012   0.00023   0.00012   1.87058
   A12        1.95170  -0.00017  -0.00074   0.00179   0.00105   1.95275
   A13        1.94106   0.00015  -0.00007   0.00089   0.00082   1.94188
   A14        1.87833  -0.00001  -0.00045   0.00145   0.00100   1.87932
    D1        3.13841   0.00031   0.00143   0.00632   0.00776  -3.13702
    D2        0.04952  -0.00002  -0.00181   0.00099  -0.00082   0.04870
    D3        3.07322  -0.00090  -0.00228  -0.02143  -0.02370   3.04952
    D4       -0.11433  -0.00060   0.00050  -0.01656  -0.01608  -0.13041
    D5       -2.77549  -0.00025  -0.00434  -0.03275  -0.03709  -2.81258
    D6       -0.56609   0.00001  -0.00410  -0.03064  -0.03475  -0.60083
    D7        1.45829  -0.00002  -0.00461  -0.02923  -0.03384   1.42446
    D8        0.41540  -0.00054  -0.00734  -0.03778  -0.04512   0.37027
    D9        2.62480  -0.00028  -0.00710  -0.03567  -0.04278   2.58202
   D10       -1.63400  -0.00031  -0.00762  -0.03425  -0.04187  -1.67587
   D11       -2.66626  -0.00008  -0.00248  -0.00091  -0.00339  -2.66965
   D12        1.51648  -0.00006  -0.00134  -0.00460  -0.00595   1.51053
   D13        1.46203  -0.00023  -0.00300  -0.00159  -0.00459   1.45744
   D14       -0.63841  -0.00021  -0.00187  -0.00529  -0.00715  -0.64556
   D15       -0.62127  -0.00008  -0.00207  -0.00350  -0.00557  -0.62684
   D16       -2.72171  -0.00006  -0.00093  -0.00720  -0.00813  -2.72984
         Item               Value     Threshold  Converged?
 Maximum Force            0.001274     0.000450     NO 
 RMS     Force            0.000357     0.000300     NO 
 Maximum Displacement     0.071474     0.001800     NO 
 RMS     Displacement     0.028503     0.001200     NO 
 Predicted change in Energy=-5.430765D-05
 Lowest energy point so far.  Saving SCF results.
 GradGradGradGradGradGradGradGradGradGradGradGradGradGradGradGradGradGrad

 Leave Link  103 at Thu Sep  8 15:24:49 2022, MaxMem= 24159191040 cpu:         1.1
 (Enter /public/home/users/caep010/software/Gaussian09/g09/l202.exe)
                          Input orientation:                          
 ---------------------------------------------------------------------
 Center     Atomic      Atomic             Coordinates (Angstroms)
 Number     Number       Type             X           Y           Z
 ---------------------------------------------------------------------
      1          7           0       -1.752975   -1.285992    0.456194
      2          6           0       -0.937872   -0.309668    0.412234
      3          8           0       -1.096273    0.749088    1.230761
      4          6           0        0.250907   -0.146427   -0.548716
      5          7           0        1.191275    0.846349   -0.013626
      6          1           0       -1.473731   -1.992932   -0.228095
      7          1           0       -0.307791    1.315391    1.069906
      8          1           0        0.689302   -1.132763   -0.753146
      9          1           0       -0.140384    0.237108   -1.498381
     10          1           0        1.719748    1.303026   -0.750871
     11          1           0        1.857894    0.417020    0.623839
 ---------------------------------------------------------------------
                    Distance matrix (angstroms):
                    1          2          3          4          5
     1  N    0.000000
     2  C    1.272609   0.000000
     3  O    2.274371   1.347607   0.000000
     4  C    2.514756   1.537293   2.404866   0.000000
     5  N    3.665545   2.459878   2.605923   1.468406   0.000000
     6  H    1.022738   1.878974   3.128803   2.546911   3.899970
     7  H    3.038486   1.862888   0.984010   2.251443   1.908204
     8  H    2.729597   2.164091   3.265812   1.098563   2.171577
     9  H    2.956459   2.141355   2.936676   1.096390   2.085422
    10  H    4.496647   3.319118   3.487648   2.073469   1.015564
    11  H    3.995839   2.896405   3.034094   2.067550   1.017382
                    6          7          8          9         10
     6  H    0.000000
     7  H    3.740217   0.000000
     8  H    2.386269   3.211102   0.000000
     9  H    2.892148   2.790487   1.766437   0.000000
    10  H    4.618976   2.725124   2.644786   2.270472   0.000000
    11  H    4.199212   2.386680   2.379815   2.920496   1.641316
                   11
    11  H    0.000000
 Stoichiometry    C2H6N2O
 Framework group  C1[X(C2H6N2O)]
 Deg. of freedom    27
 Full point group                 C1      NOp   1
 RotChk:  IX=0 Diff= 2.33D-02
 Largest Abelian subgroup         C1      NOp   1
 Largest concise Abelian subgroup C1      NOp   1
                         Standard orientation:                         
 ---------------------------------------------------------------------
 Center     Atomic      Atomic             Coordinates (Angstroms)
 Number     Number       Type             X           Y           Z
 ---------------------------------------------------------------------
      1          7           0        1.843693   -0.480314   -0.128152
      2          6           0        0.673958    0.000251    0.014362
      3          8           0        0.487277    1.333132    0.082360
      4          6           0       -0.632421   -0.792913    0.180290
      5          7           0       -1.780665    0.067620   -0.131535
      6          1           0        1.789786   -1.501015   -0.163595
      7          1           0       -0.489225    1.452650    0.103235
      8          1           0       -0.573684   -1.715536   -0.413139
      9          1           0       -0.709113   -1.089398    1.233042
     10          1           0       -2.619319   -0.227670    0.359212
     11          1           0       -1.987079    0.060748   -1.127734
 ---------------------------------------------------------------------
 Rotational constants (GHZ):      9.7423798      4.0395931      2.9951014
 Leave Link  202 at Thu Sep  8 15:24:49 2022, MaxMem= 24159191040 cpu:         0.2
 (Enter /public/home/users/caep010/software/Gaussian09/g09/l301.exe)
 Standard basis: 6-31G(d,p) (6D, 7F)
 Ernie: Thresh=  0.10000D-02 Tol=  0.10000D-05 Strict=F.
 There are   105 symmetry adapted cartesian basis functions of A   symmetry.
 There are   105 symmetry adapted basis functions of A   symmetry.
   105 basis functions,   182 primitive gaussians,   105 cartesian basis functions
    20 alpha electrons       20 beta electrons
       nuclear repulsion energy       180.5396073613 Hartrees.
 IExCor=  402 DFT=T Ex+Corr=B3LYP ExCW=0 ScaHFX=  0.200000
 ScaDFX=  0.800000  0.720000  1.000000  0.810000 ScalE2=  1.000000  1.000000
 IRadAn=      0 IRanWt=     -1 IRanGd=            0 ICorTp=0 IEmpDi=  4
 NAtoms=   11 NActive=   11 NUniq=   11 SFac= 1.00D+00 NAtFMM=   60 NAOKFM=F Big=F
 Integral buffers will be    131072 words long.
 Raffenetti 2 integral format.
 Two-electron integral symmetry is turned on.
 Leave Link  301 at Thu Sep  8 15:24:49 2022, MaxMem= 24159191040 cpu:         1.8
 (Enter /public/home/users/caep010/software/Gaussian09/g09/l302.exe)
 NPDir=0 NMtPBC=     1 NCelOv=     1 NCel=       1 NClECP=     1 NCelD=      1
         NCelK=      1 NCelE2=     1 NClLst=     1 CellRange=     0.0.
 One-electron integrals computed using PRISM.
 NBasis=   105 RedAO= T EigKep=  2.87D-03  NBF=   105
 NBsUse=   105 1.00D-06 EigRej= -1.00D+00 NBFU=   105
 Precomputing XC quadrature grid using
 IXCGrd= 4 IRadAn=           0 IRanWt=          -1 IRanGd=           0 AccXCQ= 0.00D+00.
 Generated NRdTot=       0 NPtTot=           0 NUsed=           0 NTot=          32
 NSgBfM=   105   105   105   105   105 MxSgAt=    11 MxSgA2=    11.
 Leave Link  302 at Thu Sep  8 15:24:50 2022, MaxMem= 24159191040 cpu:        11.2
 (Enter /public/home/users/caep010/software/Gaussian09/g09/l303.exe)
 DipDrv:  MaxL=1.
 Leave Link  303 at Thu Sep  8 15:24:50 2022, MaxMem= 24159191040 cpu:         0.6
 (Enter /public/home/users/caep010/software/Gaussian09/g09/l401.exe)
 Initial guess from the checkpoint file:  "B3LYP6-31Gdp.Frag_535.chk"
 B after Tr=     0.000000    0.000000    0.000000
         Rot=    0.999982   -0.004966    0.000107   -0.003273 Ang=  -0.68 deg.
 Guess basis will be translated and rotated to current coordinates.
 JPrj=2 DoOrth=T DoCkMO=T.
 Generating alternative initial guess.
 ExpMin= 1.61D-01 ExpMax= 5.48D+03 ExpMxC= 8.25D+02 IAcc=1 IRadAn=         1 AccDes= 0.00D+00
 Harris functional with IExCor=  402 and IRadAn=       1 diagonalized for initial guess.
 HarFok:  IExCor=  402 AccDes= 0.00D+00 IRadAn=         1 IDoV= 1 UseB2=F ITyADJ=14
 ICtDFT=  3500011 ScaDFX=  1.000000  1.000000  1.000000  1.000000
 FoFCou: FMM=F IPFlag=           0 FMFlag=      100000 FMFlg1=           0
         NFxFlg=           0 DoJE=T BraDBF=F KetDBF=T FulRan=T
         wScrn=  0.000000 ICntrl=     500 IOpCl=  0 I1Cent=   200000004 NGrid=           0
         NMat0=    1 NMatS0=      1 NMatT0=    0 NMatD0=    1 NMtDS0=    0 NMtDT0=    0
 Petite list used in FoFCou.
 Harris En= -264.562581498734    
 Leave Link  401 at Thu Sep  8 15:24:50 2022, MaxMem= 24159191040 cpu:        11.2
 (Enter /public/home/users/caep010/software/Gaussian09/g09/l502.exe)
 Closed shell SCF:
 Using DIIS extrapolation, IDIIS=  1040.
 Integral symmetry usage will be decided dynamically.
 Keep R1 ints in memory in canonical form, NReq=16470489.
 IVT=       55780 IEndB=       55780 NGot= 24159191040 MDV= 24143647866
 LenX= 24143647866 LenY= 24143636400
 Requested convergence on RMS density matrix=1.00D-08 within 128 cycles.
 Requested convergence on MAX density matrix=1.00D-06.
 Requested convergence on             energy=1.00D-06.
 No special actions if energy rises.
 FoFCou: FMM=F IPFlag=           0 FMFlag=           0 FMFlg1=           0
         NFxFlg=           0 DoJE=F BraDBF=F KetDBF=F FulRan=T
         wScrn=  0.000000 ICntrl=     600 IOpCl=  0 I1Cent=           0 NGrid=           0
         NMat0=    1 NMatS0=   5565 NMatT0=    0 NMatD0=    1 NMtDS0=    0 NMtDT0=    0
 Symmetry not used in FoFCou.
 Integral accuracy reduced to 1.0D-05 until final iterations.

 Cycle   1  Pass 0  IDiag  1:
 E= -264.544611733701    
 DIIS: error= 1.30D-03 at cycle   1 NSaved=   1.
 NSaved= 1 IEnMin= 1 EnMin= -264.544611733701     IErMin= 1 ErrMin= 1.30D-03
 ErrMax= 1.30D-03  0.00D+00 EMaxC= 1.00D-01 BMatC= 4.62D-04 BMatP= 4.62D-04
 IDIUse=3 WtCom= 9.87D-01 WtEn= 1.30D-02
 Coeff-Com:  0.100D+01
 Coeff-En:   0.100D+01
 Coeff:      0.100D+01
 Gap=     1.610 Goal=   None    Shift=    0.000
 GapD=    1.610 DampG=2.000 DampE=1.000 DampFc=2.0000 IDamp=-1.
 RMSDP=3.56D-04 MaxDP=5.81D-03              OVMax= 7.43D-03

 Cycle   2  Pass 0  IDiag  1:
 E= -264.545409033053     Delta-E=       -0.000797299353 Rises=F Damp=F
 DIIS: error= 2.30D-04 at cycle   2 NSaved=   2.
 NSaved= 2 IEnMin= 2 EnMin= -264.545409033053     IErMin= 2 ErrMin= 2.30D-04
 ErrMax= 2.30D-04  0.00D+00 EMaxC= 1.00D-01 BMatC= 1.16D-05 BMatP= 4.62D-04
 IDIUse=3 WtCom= 9.98D-01 WtEn= 2.30D-03
 Coeff-Com: -0.341D-01 0.103D+01
 Coeff-En:   0.000D+00 0.100D+01
 Coeff:     -0.341D-01 0.103D+01
 Gap=     0.278 Goal=   None    Shift=    0.000
 RMSDP=6.54D-05 MaxDP=1.54D-03 DE=-7.97D-04 OVMax= 1.51D-03

 Cycle   3  Pass 0  IDiag  1:
 E= -264.545408843331     Delta-E=        0.000000189722 Rises=F Damp=F
 DIIS: error= 3.50D-04 at cycle   3 NSaved=   3.
 NSaved= 3 IEnMin= 2 EnMin= -264.545409033053     IErMin= 2 ErrMin= 2.30D-04
 ErrMax= 3.50D-04  0.00D+00 EMaxC= 1.00D-01 BMatC= 1.98D-05 BMatP= 1.16D-05
 IDIUse=3 WtCom= 3.48D-01 WtEn= 6.52D-01
 Coeff-Com: -0.423D-01 0.610D+00 0.432D+00
 Coeff-En:   0.000D+00 0.504D+00 0.496D+00
 Coeff:     -0.148D-01 0.541D+00 0.474D+00
 Gap=     0.278 Goal=   None    Shift=    0.000
 RMSDP=3.89D-05 MaxDP=1.28D-03 DE= 1.90D-07 OVMax= 1.11D-03

 Cycle   4  Pass 0  IDiag  1:
 E= -264.545421891103     Delta-E=       -0.000013047772 Rises=F Damp=F
 DIIS: error= 1.16D-04 at cycle   4 NSaved=   4.
 NSaved= 4 IEnMin= 4 EnMin= -264.545421891103     IErMin= 4 ErrMin= 1.16D-04
 ErrMax= 1.16D-04  0.00D+00 EMaxC= 1.00D-01 BMatC= 1.65D-06 BMatP= 1.16D-05
 IDIUse=3 WtCom= 9.99D-01 WtEn= 1.16D-03
 Coeff-Com: -0.152D-01 0.166D+00 0.264D+00 0.585D+00
 Coeff-En:   0.000D+00 0.000D+00 0.463D-01 0.954D+00
 Coeff:     -0.152D-01 0.165D+00 0.264D+00 0.586D+00
 Gap=     0.278 Goal=   None    Shift=    0.000
 RMSDP=1.09D-05 MaxDP=3.00D-04 DE=-1.30D-05 OVMax= 3.83D-04

 Cycle   5  Pass 0  IDiag  1:
 E= -264.545423075393     Delta-E=       -0.000001184290 Rises=F Damp=F
 DIIS: error= 1.99D-05 at cycle   5 NSaved=   5.
 NSaved= 5 IEnMin= 5 EnMin= -264.545423075393     IErMin= 5 ErrMin= 1.99D-05
 ErrMax= 1.99D-05  0.00D+00 EMaxC= 1.00D-01 BMatC= 9.00D-08 BMatP= 1.65D-06
 IDIUse=1 WtCom= 1.00D+00 WtEn= 0.00D+00
 Coeff-Com: -0.484D-02 0.415D-01 0.111D+00 0.328D+00 0.524D+00
 Coeff:     -0.484D-02 0.415D-01 0.111D+00 0.328D+00 0.524D+00
 Gap=     0.278 Goal=   None    Shift=    0.000
 RMSDP=3.74D-06 MaxDP=1.12D-04 DE=-1.18D-06 OVMax= 1.76D-04

 Initial convergence to 1.0D-05 achieved.  Increase integral accuracy.
 Cycle   6  Pass 1  IDiag  1:
 E= -264.545446473407     Delta-E=       -0.000023398014 Rises=F Damp=F
 DIIS: error= 1.13D-05 at cycle   1 NSaved=   1.
 NSaved= 1 IEnMin= 1 EnMin= -264.545446473407     IErMin= 1 ErrMin= 1.13D-05
 ErrMax= 1.13D-05  0.00D+00 EMaxC= 1.00D-01 BMatC= 3.79D-08 BMatP= 3.79D-08
 IDIUse=1 WtCom= 1.00D+00 WtEn= 0.00D+00
 Coeff-Com:  0.100D+01
 Coeff:      0.100D+01
 Gap=     0.278 Goal=   None    Shift=    0.000
 RMSDP=3.74D-06 MaxDP=1.12D-04 DE=-2.34D-05 OVMax= 1.57D-04

 Cycle   7  Pass 1  IDiag  1:
 E= -264.545446439840     Delta-E=        0.000000033566 Rises=F Damp=F
 DIIS: error= 1.83D-05 at cycle   2 NSaved=   2.
 NSaved= 2 IEnMin= 1 EnMin= -264.545446473407     IErMin= 1 ErrMin= 1.13D-05
 ErrMax= 1.83D-05  0.00D+00 EMaxC= 1.00D-01 BMatC= 8.20D-08 BMatP= 3.79D-08
 IDIUse=1 WtCom= 1.00D+00 WtEn= 0.00D+00
 Coeff-Com:  0.611D+00 0.389D+00
 Coeff:      0.611D+00 0.389D+00
 Gap=     0.278 Goal=   None    Shift=    0.000
 RMSDP=2.87D-06 MaxDP=8.88D-05 DE= 3.36D-08 OVMax= 1.39D-04

 Cycle   8  Pass 1  IDiag  1:
 E= -264.545446509023     Delta-E=       -0.000000069183 Rises=F Damp=F
 DIIS: error= 4.94D-06 at cycle   3 NSaved=   3.
 NSaved= 3 IEnMin= 3 EnMin= -264.545446509023     IErMin= 3 ErrMin= 4.94D-06
 ErrMax= 4.94D-06  0.00D+00 EMaxC= 1.00D-01 BMatC= 3.91D-09 BMatP= 3.79D-08
 IDIUse=1 WtCom= 1.00D+00 WtEn= 0.00D+00
 Coeff-Com:  0.296D-01 0.179D+00 0.792D+00
 Coeff:      0.296D-01 0.179D+00 0.792D+00
 Gap=     0.278 Goal=   None    Shift=    0.000
 RMSDP=6.46D-07 MaxDP=1.63D-05 DE=-6.92D-08 OVMax= 2.85D-05

 Cycle   9  Pass 1  IDiag  1:
 E= -264.545446512080     Delta-E=       -0.000000003057 Rises=F Damp=F
 DIIS: error= 1.91D-06 at cycle   4 NSaved=   4.
 NSaved= 4 IEnMin= 4 EnMin= -264.545446512080     IErMin= 4 ErrMin= 1.91D-06
 ErrMax= 1.91D-06  0.00D+00 EMaxC= 1.00D-01 BMatC= 5.45D-10 BMatP= 3.91D-09
 IDIUse=1 WtCom= 1.00D+00 WtEn= 0.00D+00
 Coeff-Com: -0.109D-01 0.845D-01 0.454D+00 0.473D+00
 Coeff:     -0.109D-01 0.845D-01 0.454D+00 0.473D+00
 Gap=     0.278 Goal=   None    Shift=    0.000
 RMSDP=1.99D-07 MaxDP=5.88D-06 DE=-3.06D-09 OVMax= 5.72D-06

 Cycle  10  Pass 1  IDiag  1:
 E= -264.545446512484     Delta-E=       -0.000000000404 Rises=F Damp=F
 DIIS: error= 3.66D-07 at cycle   5 NSaved=   5.
 NSaved= 5 IEnMin= 5 EnMin= -264.545446512484     IErMin= 5 ErrMin= 3.66D-07
 ErrMax= 3.66D-07  0.00D+00 EMaxC= 1.00D-01 BMatC= 2.83D-11 BMatP= 5.45D-10
 IDIUse=1 WtCom= 1.00D+00 WtEn= 0.00D+00
 Coeff-Com: -0.755D-02 0.307D-01 0.179D+00 0.253D+00 0.545D+00
 Coeff:     -0.755D-02 0.307D-01 0.179D+00 0.253D+00 0.545D+00
 Gap=     0.278 Goal=   None    Shift=    0.000
 RMSDP=4.90D-08 MaxDP=9.83D-07 DE=-4.04D-10 OVMax= 1.01D-06

 Cycle  11  Pass 1  IDiag  1:
 E= -264.545446512505     Delta-E=       -0.000000000021 Rises=F Damp=F
 DIIS: error= 2.90D-08 at cycle   6 NSaved=   6.
 NSaved= 6 IEnMin= 6 EnMin= -264.545446512505     IErMin= 6 ErrMin= 2.90D-08
 ErrMax= 2.90D-08  0.00D+00 EMaxC= 1.00D-01 BMatC= 1.29D-13 BMatP= 2.83D-11
 IDIUse=1 WtCom= 1.00D+00 WtEn= 0.00D+00
 Coeff-Com: -0.961D-03 0.188D-02 0.138D-01 0.281D-01 0.884D-01 0.869D+00
 Coeff:     -0.961D-03 0.188D-02 0.138D-01 0.281D-01 0.884D-01 0.869D+00
 Gap=     0.278 Goal=   None    Shift=    0.000
 RMSDP=5.63D-09 MaxDP=8.54D-08 DE=-2.09D-11 OVMax= 1.40D-07

 SCF Done:  E(RB3LYP) =  -264.545446513     A.U. after   11 cycles
            NFock= 11  Conv=0.56D-08     -V/T= 2.0091
 KE= 2.621551308617D+02 PE=-9.789651314427D+02 EE= 2.717249467073D+02
 Leave Link  502 at Thu Sep  8 15:24:51 2022, MaxMem= 24159191040 cpu:        31.1
 (Enter /public/home/users/caep010/software/Gaussian09/g09/l701.exe)
 Compute integral first derivatives.
 ... and contract with generalized density number  0.
 Leave Link  701 at Thu Sep  8 15:24:52 2022, MaxMem= 24159191040 cpu:        10.1
 (Enter /public/home/users/caep010/software/Gaussian09/g09/l702.exe)
 L702 exits ... SP integral derivatives will be done elsewhere.
 Leave Link  702 at Thu Sep  8 15:24:52 2022, MaxMem= 24159191040 cpu:         0.6
 (Enter /public/home/users/caep010/software/Gaussian09/g09/l703.exe)
 Compute integral first derivatives, UseDBF=F ICtDFT=           0.
 Integral derivatives from FoFJK, PRISM(SPDF).
 Calling FoFJK, ICntrl=      2127 FMM=F ISym2X=0 I1Cent= 0 IOpClX= 0 NMat=1 NMatS=1 NMatT=0.
 FoFJK:  IHMeth= 1 ICntrl=    2127 DoSepK=F KAlg= 0 I1Cent=   0 FoldK=F
 IRaf=         0 NMat=   1 IRICut=       1 DoRegI=T DoRafI=F ISym2E= 0.
 FoFCou: FMM=F IPFlag=           0 FMFlag=      100000 FMFlg1=         800
         NFxFlg=           0 DoJE=F BraDBF=F KetDBF=F FulRan=T
         wScrn=  0.000000 ICntrl=    2127 IOpCl=  0 I1Cent=           0 NGrid=           0
         NMat0=    1 NMatS0=      1 NMatT0=    0 NMatD0=    1 NMtDS0=    0 NMtDT0=    0
 Symmetry not used in FoFCou.
 Leave Link  703 at Thu Sep  8 15:24:52 2022, MaxMem= 24159191040 cpu:         9.8
 (Enter /public/home/users/caep010/software/Gaussian09/g09/l716.exe)
 Dipole        =-2.04114867D+00-9.96133924D-01-4.94250948D-02
 ***** Axes restored to original set *****
 -------------------------------------------------------------------
 Center     Atomic                   Forces (Hartrees/Bohr)
 Number     Number              X              Y              Z
 -------------------------------------------------------------------
      1        7           0.002321470    0.001645391   -0.000522094
      2        6          -0.001452301    0.000058327    0.001434838
[...]
     37  0.283415D-04  0.344294D-02  0.337206D-02 -0.683404D-02  0.614203D-02
     38 -0.262123D-03  0.455398D-02  0.339690D-02 -0.797378D-02  0.104105D-02
     39  0.164568D-03 -0.412558D-02 -0.185562D-02  0.593182D-02  0.912789D-03
     40 -0.125896D-03 -0.301454D-02 -0.183078D-02  0.479208D-02 -0.418819D-02
               16            17            18            19            20 
     16  0.221031D+00
     17 -0.759620D-01  0.698543D-01
     18 -0.546656D-01  0.592373D-02  0.558127D-01
     19 -0.749622D-01 -0.119430D-01  0.283200D-01  0.757181D-01
     20 -0.576611D-01  0.293334D-01 -0.189679D-01  0.585451D-03  0.640961D-01
     21  0.365585D-01 -0.150550D-01 -0.125096D-01 -0.173509D-01 -0.172420D-01
     22  0.110461D-01 -0.518556D-02 -0.162436D-02 -0.702871D-03 -0.591037D-02
     23 -0.576171D-02  0.340734D-02 -0.382777D-02 -0.275563D-02  0.115526D-01
     24 -0.533117D-02  0.146536D-02  0.290605D-02  0.285834D-02 -0.167779D-02
     25 -0.688721D-03  0.353715D-03  0.778092D-04  0.191029D-03 -0.157569D-03
     26 -0.183740D-02 -0.895712D-03  0.312528D-02  0.690792D-03 -0.592417D-03
     27 -0.201774D-02  0.245959D-02 -0.471329D-03 -0.418455D-02  0.467481D-02
     28 -0.179621D-02  0.349331D-02 -0.284479D-02 -0.409566D-02  0.509589D-02
     29  0.715271D-02  0.597270D-02 -0.100314D-01 -0.224631D-01  0.196260D-01
     30  0.130651D-01 -0.129896D-01 -0.818326D-02  0.128486D-01  0.651938D-03
     31 -0.130949D-01  0.894577D-02  0.103985D-01  0.147308D-02 -0.146631D-01
     32  0.706918D-02  0.475962D-02 -0.743550D-02 -0.225604D-01  0.189981D-01
     33  0.129816D-01 -0.142027D-01 -0.558737D-02  0.127513D-01  0.240619D-04
     34 -0.131784D-01  0.773270D-02  0.129944D-01  0.137576D-02 -0.152910D-01
     35 -0.458060D-02  0.149150D-01 -0.132241D-01 -0.299312D-02  0.490196D-02
     36 -0.135117D-02  0.142373D-01 -0.131817D-01 -0.425808D-02  0.311109D-02
     37 -0.230691D-01 -0.880591D-02  0.115905D-02  0.160097D-01  0.111614D-01
     38 -0.198396D-01 -0.948362D-02  0.120151D-02  0.147448D-01  0.937050D-02
     39  0.185303D-01 -0.296258D-02  0.126079D-01 -0.100427D-01 -0.126833D-01
     40  0.217598D-01 -0.364028D-02  0.126504D-01 -0.113076D-01 -0.144742D-01
               21            22            23            24            25 
     21  0.250979D-01
     22  0.201100D-02  0.134001D+00
     23 -0.256557D-02 -0.344806D-01  0.139734D+00
     24 -0.267999D-04 -0.495096D-01 -0.515440D-01  0.602265D-01
     25  0.238868D-03 -0.313361D-03  0.263478D-03  0.319231D-04  0.289648D-01
     26 -0.220222D-03 -0.196612D-04 -0.523803D-03  0.191209D-03  0.163201D-01
     27 -0.202618D-03  0.263852D-02 -0.294308D-02 -0.520470D-03 -0.962885D-02
     28  0.204084D-03  0.257790D-02 -0.232319D-02 -0.743663D-03  0.136790D-02
     29  0.679114D-04 -0.872826D-03  0.382402D-02 -0.174858D-02  0.531913D-02
     30 -0.705454D-02  0.231734D-02 -0.132535D-02 -0.811846D-03  0.532987D-02
     31  0.793277D-02  0.110171D-02 -0.464952D-02  0.149767D-02  0.583894D-02
     32 -0.289098D-03 -0.548136D-03  0.311959D-02 -0.160578D-02 -0.643540D-02
     33 -0.741155D-02  0.264203D-02 -0.202979D-02 -0.669049D-03 -0.642466D-02
     34  0.757576D-02  0.142640D-02 -0.535396D-02  0.164047D-02 -0.591559D-02
     35  0.255314D-04  0.294476D-02  0.138969D-02  0.413609D-02  0.182344D-04
     36  0.455717D-03 -0.163015D-02 -0.568822D-02 -0.332313D-02  0.979232D-05
     37  0.394030D-02  0.160803D-02  0.346886D-02  0.429019D-02 -0.478087D-04
     38  0.437048D-02 -0.296688D-02 -0.360905D-02 -0.316902D-02 -0.562508D-04
     39 -0.475224D-02  0.368139D-02  0.283750D-03  0.371281D-02 -0.359152D-03
     40 -0.432206D-02 -0.893526D-03 -0.679416D-02 -0.374641D-02 -0.367594D-03
               26            27            28            29            30 
     26  0.193681D-01
     27 -0.179671D-03  0.229980D-01
     28 -0.279076D-02  0.147171D-01  0.185465D-01
     29 -0.905961D-03  0.324065D-02  0.850020D-02  0.197260D-01
     30 -0.195833D-02 -0.176998D-02  0.449677D-02  0.348147D-03  0.166967D-01
     31 -0.992091D-03 -0.979537D-03  0.502087D-02 -0.188908D-02 -0.285733D-02
     32  0.191222D-02  0.119916D-01  0.449588D-02  0.139123D-01 -0.651422D-02
     33  0.859854D-03  0.698100D-02  0.492449D-03 -0.546557D-02  0.983434D-02
     34  0.182609D-02  0.777144D-02  0.101655D-02 -0.770280D-02 -0.971969D-02
     35 -0.145061D-02  0.653253D-03  0.184668D-02 -0.160681D-02  0.198363D-02
     36 -0.131986D-02  0.154481D-02  0.263683D-02 -0.141785D-02  0.235063D-02
     37  0.678119D-03  0.208773D-02  0.166934D-02  0.146219D-02 -0.642060D-03
     38  0.808869D-03  0.297929D-02  0.245948D-02  0.165116D-02 -0.275061D-03
     39  0.941543D-03  0.167074D-02  0.383478D-03  0.162658D-02 -0.246409D-03
     40  0.107229D-02  0.256230D-02  0.117362D-02  0.181554D-02  0.120590D-03
               31            32            33            34            35 
     31  0.168216D-01
     32 -0.839956D-02  0.219221D-01
     33 -0.936781D-02  0.149565D-02  0.167956D-01
     34  0.103111D-01 -0.389689D-03 -0.240658D-02  0.176242D-01
     35  0.263812D-02 -0.288343D-02  0.707010D-03  0.136151D-02  0.146983D-01
     36  0.318198D-02 -0.261252D-02  0.115595D-02  0.198731D-02  0.645603D-02
     37  0.376764D-04  0.193238D-02 -0.171872D-03  0.507865D-03  0.759428D-03
     38  0.581535D-03  0.220329D-02  0.277071D-03  0.113367D-02 -0.748287D-02
     39 -0.570806D-03  0.305420D-02  0.118122D-02  0.856818D-03 -0.856504D-03
     40 -0.269477D-04  0.332511D-02  0.163016D-02  0.148262D-02 -0.909880D-02
               36            37            38            39            40 
     36  0.157279D-01
     37 -0.820032D-02  0.188142D-01
     38  0.107157D-02  0.985446D-02  0.184089D-01
     39 -0.829945D-02 -0.413807D-02 -0.115810D-01  0.171662D-01
     40  0.972444D-03 -0.130978D-01 -0.302658D-02  0.972325D-02  0.197945D-01
 Leave Link  716 at Thu Sep  8 15:25:10 2022, MaxMem= 24159191040 cpu:         1.4
 (Enter /public/home/users/caep010/software/Gaussian09/g09/l103.exe)

 GradGradGradGradGradGradGradGradGradGradGradGradGradGradGradGradGradGrad
 Berny optimization.
 Red2BG is reusing G-inverse.
 Internal  Forces:  Max     0.000065565 RMS     0.000024096
 Search for a local minimum.
 Step number   1 out of a maximum of    2
 All quantities printed in internal units (Hartrees-Bohrs-Radians)
 Second derivative matrix not updated -- analytic derivatives used.
 ITU=  0
     Eigenvalues ---    0.00168   0.00553   0.02549   0.02935   0.03626
     Eigenvalues ---    0.04959   0.05250   0.06065   0.08599   0.13042
     Eigenvalues ---    0.14461   0.16814   0.17136   0.19636   0.21526
     Eigenvalues ---    0.23884   0.26451   0.32657   0.33392   0.35119
     Eigenvalues ---    0.41318   0.43648   0.45116   0.45609   0.46839
     Eigenvalues ---    0.51006   0.76724
 Angle between quadratic step and forces=  77.61 degrees.
 Linear search not attempted -- first point.
 Iteration  1 RMS(Cart)=  0.00076533 RMS(Int)=  0.00000028
 Iteration  2 RMS(Cart)=  0.00000047 RMS(Int)=  0.00000002
 ITry= 1 IFail=0 DXMaxC= 1.90D-03 DCOld= 1.00D+10 DXMaxT= 3.00D-01 DXLimC= 3.00D+00 Rises=F
 Variable       Old X    -DE/DX   Delta X   Delta X   Delta X     New X
                                 (Linear)    (Quad)   (Total)
    R1        2.40097   0.00002   0.00000   0.00002   0.00002   2.40099
    R2        1.93085  -0.00001   0.00000  -0.00003  -0.00003   1.93082
    R3        2.54287  -0.00002   0.00000   0.00004   0.00004   2.54291
    R4        2.90305   0.00006   0.00000   0.00005   0.00005   2.90309
    R5        1.85630  -0.00001   0.00000  -0.00003  -0.00003   1.85627
    R6        2.77400   0.00005   0.00000   0.00013   0.00013   2.77413
    R7        2.07496   0.00000   0.00000   0.00001   0.00001   2.07497
    R8        2.07137   0.00001   0.00000   0.00003   0.00003   2.07141
    R9        1.91683   0.00003   0.00000   0.00006   0.00006   1.91689
   R10        1.92032   0.00002   0.00000   0.00005   0.00005   1.92037
    A1        1.91197  -0.00000   0.00000  -0.00001  -0.00001   1.91196
    A2        2.10181  -0.00005   0.00000  -0.00014  -0.00014   2.10168
    A3        2.20991   0.00002   0.00000   0.00014   0.00014   2.21006
    A4        1.97068   0.00003   0.00000  -0.00003  -0.00003   1.97065
    A5        1.83128  -0.00007   0.00000  -0.00023  -0.00023   1.83105
    A6        1.92088   0.00006   0.00000   0.00004   0.00004   1.92092
    A7        1.90591  -0.00002   0.00000   0.00009   0.00009   1.90600
    A8        1.87766   0.00000   0.00000   0.00005   0.00005   1.87771
    A9        1.99999  -0.00002   0.00000   0.00000   0.00000   1.99999
   A10        1.88420  -0.00003   0.00000  -0.00019  -0.00019   1.88400
   A11        1.87074   0.00000   0.00000   0.00001   0.00001   1.87075
   A12        1.95113   0.00001   0.00000   0.00001   0.00001   1.95115
   A13        1.94089  -0.00000   0.00000  -0.00004  -0.00004   1.94085
   A14        1.87777  -0.00000   0.00000   0.00003   0.00003   1.87780
    D1       -3.14107  -0.00002   0.00000  -0.00062  -0.00062   3.14150
    D2        0.04603  -0.00000   0.00000   0.00010   0.00010   0.04613
    D3        3.05770  -0.00001   0.00000  -0.00099  -0.00099   3.05671
    D4       -0.12354  -0.00003   0.00000  -0.00162  -0.00162  -0.12516
    D5       -2.78193  -0.00001   0.00000   0.00093   0.00093  -2.78100
    D6       -0.57230  -0.00001   0.00000   0.00102   0.00102  -0.57129
    D7        1.45248  -0.00001   0.00000   0.00111   0.00111   1.45359
    D8        0.40226   0.00001   0.00000   0.00161   0.00161   0.40387
    D9        2.61189   0.00001   0.00000   0.00170   0.00170   2.61359
   D10       -1.64651   0.00001   0.00000   0.00179   0.00179  -1.64472
   D11       -2.66925  -0.00000   0.00000  -0.00097  -0.00097  -2.67023
   D12        1.51471  -0.00001   0.00000  -0.00099  -0.00099   1.51372
   D13        1.45821  -0.00001   0.00000  -0.00112  -0.00112   1.45710
   D14       -0.64101  -0.00002   0.00000  -0.00113  -0.00113  -0.64214
   D15       -0.62454   0.00001   0.00000  -0.00100  -0.00100  -0.62554
   D16       -2.72377   0.00001   0.00000  -0.00101  -0.00101  -2.72478
         Item               Value     Threshold  Converged?
 Maximum Force            0.000066     0.000450     YES
 RMS     Force            0.000024     0.000300     YES
 Maximum Displacement     0.001900     0.001800     NO 
 RMS     Displacement     0.000765     0.001200     YES
 Predicted change in Energy=-7.739399D-08
 GradGradGradGradGradGradGradGradGradGradGradGradGradGradGradGradGradGrad

 Leave Link  103 at Thu Sep  8 15:25:10 2022, MaxMem= 24159191040 cpu:         1.1
 (Enter /public/home/users/caep010/software/Gaussian09/g09/l9999.exe)
 1\1\GINC-B1331\Freq\RB3LYP\6-31G(d,p)\C2H6N2O1\ROOT\08-Sep-2022\0\\#P 
 Geom=AllCheck Guess=TCheck SCRF=Check GenChk RB3LYP/6-31G(d,p) Freq\\F
 rag_535\\0,1\N,-1.7396971241,-1.2920762726,0.4645509909\C,-0.938001609
 2,-0.3076874496,0.4142116104\O,-1.1104331372,0.7536424998,1.223261323\
 C,0.2473494505,-0.1395666675,-0.5484243832\N,1.2013235398,0.8358644819
 ,-0.0068449552\H,-1.4552259738,-1.9997731977,-0.2153273852\H,-0.333702
 7876,1.3303847338,1.0529968491\H,0.6772061252,-1.1258786247,-0.7676581
 727\H,-0.1454372773,0.2592717405,-1.4908333362\H,1.7276067464,1.295941
 8009,-0.7418596238\H,1.8691120472,0.3900769552,0.616026083\\Version=ES
 64L-G09RevE.01\State=1-A\HF=-264.5455278\RMSD=4.064e-09\RMSF=2.405e-05
 \ZeroPoint=0.092922\Thermal=0.0982884\Dipole=1.9363003,0.2695053,-1.13
 03423\DipoleDeriv=-0.7132631,-0.44886,-0.0971017,-0.251725,-0.7639647,
 0.0245559,0.0377973,0.1925453,-0.3941295,0.5600397,0.2405432,-0.213703
 ,0.4452347,1.2567412,0.339341,-0.1535352,0.4435103,0.6034709,-0.522383
 3,0.0934417,0.1458244,-0.2247461,-1.0501059,-0.2751216,-0.0027303,-0.4
 691506,-0.6616443,0.366235,0.191774,0.1789615,0.0211282,0.3750073,0.05
 26988,0.1769673,0.0628807,0.1117584,-0.5289506,-0.1136332,0.0469513,-0
 .0975234,-0.540458,-0.1520904,0.0441671,-0.191794,-0.3419145,0.212205,
 0.1607477,0.0999065,0.067599,0.1465657,-0.0919086,0.0323578,-0.1749238
 ,0.0687221,0.5051004,0.0250859,-0.0975395,0.0194831,0.3381514,0.028200
 1,-0.1124121,0.0098987,0.3456764,-0.0316202,0.000857,0.0080879,0.00992
 34,-0.1710152,-0.0844695,0.0003337,-0.0392734,0.035038,-0.0118024,-0.0
 232153,-0.0326867,-0.0227587,0.0052059,0.0733376,-0.0399357,0.0411945,
 -0.0529145,0.0683865,-0.1095767,0.0418045,-0.0024736,0.2581139,-0.0002
 652,0.0524698,0.0715347,0.092512,0.0960529,-0.0171643,-0.0805053,0.035
 8584,0.1457584,0.0857218,-0.0354796,0.0535777,0.193425\Polar=38.996976
 ,9.4432258,42.4226964,-3.5682165,3.6475251,31.9472004\PG=C01 [X(C2H6N2
 O1)]\NImag=0\\0.36053711,0.23154692,0.68082754,-0.11380073,0.20094306,
 0.26862189,-0.29886342,-0.28717866,0.02435358,0.55749126,-0.23795737,-
 0.40212144,-0.02087315,0.28672458,0.78803718,0.05615177,0.02174162,-0.
 08508519,-0.12940794,0.13923483,0.39506034,0.01150089,-0.03146402,-0.0
 2834129,-0.10424346,0.00026176,0.04292985,0.39727118,-0.01371168,-0.06
 860435,-0.03216537,0.03512275,-0.21667706,-0.13325203,0.18853673,0.450
 89161,-0.01783157,-0.01799468,0.00299112,0.06725086,-0.10743501,-0.168
 82965,-0.13985724,0.13652480,0.22383096,-0.00828786,-0.01428806,0.0179
 8760,-0.12392802,0.00399561,0.04690182,-0.00635840,0.00201055,0.015033
 91,0.46544805,-0.02913606,-0.00352288,0.01022439,-0.00227923,-0.078886
 57,0.00969984,0.01448992,-0.00830199,-0.03095297,-0.05390853,0.5728858
 6,0.01002524,-0.00558191,0.01601017,0.03592555,0.00189121,-0.12136672,
 0.02150599,-0.01662628,-0.01718554,0.03030253,-0.00433506,0.53501145,-
 0.00384521,-0.00339128,0.00461232,-0.02654503,-0.01493537,-0.00254711,
 -0.01236451,-0.01142936,0.00263330,-0.12789618,-0.07844905,-0.05489221
 ,0.54297657,-0.00329256,0.00162097,0.00370967,-0.01542500,-0.01358503,
 -0.00496666,-0.00053558,0.00387947,0.00036222,-0.04314589,-0.13900651,
 -0.02055755,0.09836978,0.38896997,0.00462688,0.00394559,-0.00262249,0.
 01222691,0.00778338,0.00801026,0.01147414,0.00683619,0.00227462,-0.022
 89554,-0.01705387,-0.10718739,0.06403641,-0.22937857,0.54915973,-0.058
 39515,0.09800554,0.08938590,-0.00760999,-0.03130915,-0.02007759,0.0024
 7930,-0.00501136,0.00474974,-0.00185448,-0.00035904,-0.00404718,0.0006
 7039,0.00134655,0.00045397,0.06346795,0.05201759,-0.21026249,-0.158930
 05,0.01685212,-0.03160726,-0.02916008,-0.00943824,-0.00054543,-0.00026
 057,0.00253908,-0.00034299,0.00340791,0.00049771,0.00124012,-0.0003042
 3,-0.06186874,0.24178504,0.06033997,-0.19612580,-0.19756885,0.00935282
 ,0.01028469,-0.00850131,0.00215799,-0.00393685,0.00704123,-0.00119093,
 0.00354621,-0.00327522,-0.00099904,-0.00043732,-0.00016984,-0.07114393
 ,0.18679378,0.20011393,0.00154598,0.00676112,0.00401267,0.00426759,-0.
 01243778,-0.01439955,-0.28288618,-0.19708691,0.06230374,0.00271520,0.0
 0837030,0.00708343,0.00198637,0.00244108,-0.00640374,0.00125438,0.0007
 1479,0.00191340,0.27391863,0.00275057,-0.00148820,-0.00425684,-0.03154
 041,-0.03935650,0.00023477,-0.16766943,-0.16566185,0.01887339,0.000993
 76,-0.00182701,-0.00171061,0.00152056,-0.00629315,0.00167666,-0.001383
 80,-0.00043589,-0.00108269,0.19715619,0.21472708,0.00137585,-0.0059255
 1,-0.00417753,-0.02590922,-0.01615960,0.00583887,0.08250499,0.04152553
 ,-0.04693098,-0.00003017,-0.00708517,-0.00613240,-0.00454812,0.0004634
 7,-0.00387013,0.00085668,-0.00255439,0.00157035,-0.05196667,-0.0141315
 6,0.05100781,0.00092826,-0.00082294,0.00073413,-0.00697028,0.02285198,
 0.00269585,-0.00204981,0.00024365,0.00450414,-0.09704025,0.09653395,0.
 01743637,0.00688518,-0.02865304,-0.00745055,-0.00078974,-0.00099485,-0
 .00051934,-0.00206366,-0.00113993,-0.00026810,0.10262814,-0.00033871,0
 .00249279,0.00009956,-0.00257398,-0.00014520,0.00028972,0.00058756,0.0
 0239462,0.00168592,0.09661111,-0.24753394,-0.03985916,-0.00152799,-0.0
 2179400,-0.00877809,0.00064732,0.00003110,0.00048210,-0.00214673,-0.00
 049144,0.00081553,-0.09703373,0.27405089,-0.00260067,0.00102123,-0.000
 71655,0.01149039,-0.02165250,-0.00505530,0.00337592,0.00052025,-0.0030
 4713,0.01843614,-0.03793758,-0.05636335,0.00075754,-0.01375250,-0.0025
 0148,0.00057447,0.00042059,0.00133632,-0.00072506,-0.00003787,0.000479
 94,-0.02028793,0.04678846,0.05893928,-0.00290088,0.00203938,-0.0016057
 3,0.00971363,-0.01249288,0.02324778,-0.00174918,0.00190876,-0.00089446
 ,-0.07614805,0.03330909,-0.07241367,-0.01363111,0.00590149,-0.02348342
 ,0.00053664,-0.00074379,0.00041922,-0.00049223,-0.00034913,0.00063715,
 -0.00417748,0.00594967,-0.01169167,0.09034003,-0.00136484,0.00122668,0
 .00004465,-0.00096469,-0.00206505,0.00107415,0.00082354,-0.00001941,0.
 00038805,0.03970375,-0.08879209,0.08950960,-0.01270196,0.00735972,-0.0
 2348693,0.00018561,-0.00023909,0.00036711,-0.00051394,0.00004436,0.000
 00102,0.00977802,-0.00967824,0.02514358,-0.03222200,0.09288386,0.00230
 141,-0.00236984,0.00218042,-0.00483489,0.01052662,-0.01891742,0.002086
 59,-0.00115489,0.00095487,-0.08274897,0.08290574,-0.23974478,-0.006161
 47,0.00303359,-0.01036006,-0.00059521,0.00050939,-0.00069709,-0.000642
 78,0.00049832,-0.00057772,0.00254830,-0.00193046,0.00650564,0.08875114
 ,-0.08989005,0.25900599,-0.00221309,-0.00112031,0.00178295,-0.00214403
 ,-0.00347330,-0.00300383,-0.00151250,-0.00056014,0.00004285,-0.0130612
 1,-0.00372273,0.01980824,-0.15194632,-0.11437186,0.13998180,0.00023341
 ,0.00031004,-0.00022654,0.00126324,-0.00160848,-0.00048447,0.00056190,
 0.00041852,0.00000497,0.00046461,0.00031712,-0.00019017,0.15504289,-0.
 00047408,0.00025665,0.00103957,0.00070251,-0.00415077,-0.00499292,0.00
 425919,0.00225739,0.00005045,-0.01378231,-0.01396950,0.01626140,-0.084
 60869,-0.09797124,0.11867854,-0.00019615,0.00041004,0.00016931,-0.0043
 5296,0.00170041,0.00100000,-0.00103495,-0.00111545,0.00017949,0.001290
 54,0.00224282,0.00011932,0.10772620,0.11982582,-0.00079167,0.00030997,
 0.00067259,-0.00062099,-0.00370753,-0.00201830,0.00145998,0.00084922,0
 .00081926,-0.01106115,-0.01336633,0.01092355,0.13282569,0.15501686,-0.
 26158119,0.00003788,0.00014894,0.00013444,-0.00121456,0.00130439,-0.00
 034949,-0.00097450,-0.00106059,-0.00054330,-0.00046569,-0.00031448,0.0
 0127124,-0.13636361,-0.14606652,0.26820322,-0.00000664,-0.00008770,0.0
 0087859,-0.00116827,-0.00122808,-0.00249105,-0.00008731,-0.00002299,0.
 00206474,-0.01358881,0.01515138,-0.01073429,-0.21629014,0.09736502,-0.
 17256687,0.00000729,0.00011429,-0.00010363,-0.00150933,0.00127011,-0.0
 0216792,0.00208774,-0.00059305,0.00066588,-0.00195599,-0.00304062,-0.0
 0051395,0.01331109,-0.00952930,0.01716863,0.21920035,-0.00003980,-0.00
 042527,0.00016451,0.00056000,0.00055770,0.00009677,0.00014855,0.000387
 00,-0.00124159,-0.02072907,0.00929763,-0.02239955,0.10665566,-0.124420
 33,0.14008131,-0.00005677,-0.00003316,-0.00006053,0.00109485,-0.000917
 82,0.00205066,0.00027184,0.00178888,-0.00069317,-0.00459115,-0.0029635
 6,-0.00224774,0.01608494,-0.00948617,0.00688607,-0.09939905,0.12621510
 ,0.00020353,0.00003627,-0.00030558,0.00017293,0.00010706,0.00086442,0.
 00070307,0.00087942,-0.00191877,-0.01073525,0.00435481,-0.01068978,-0.
 13571731,0.10650678,-0.17115202,-0.00019473,-0.00007131,0.00001604,0.0
 0003912,-0.00136795,0.00314127,0.00158161,0.00146699,0.00096591,-0.002
 50066,-0.00283671,0.00037890,-0.02135219,0.01356137,-0.01753201,0.1677
 9988,-0.12263673,0.19623162\\0.00002226,0.00001172,-0.00001291,-0.0000
 6101,0.00002035,-0.00004530,0.00007285,-0.00001257,0.00000507,0.000031
 13,0.00000543,0.00001149,-0.00002441,-0.00002807,0.00001864,0.00000746
 ,-0.00001538,-0.00000030,-0.00001131,0.00004173,0.00000543,-0.00000457
 ,-0.00000320,0.00000653,-0.00000841,-0.00001068,0.00001120,-0.00001484
 ,-0.00001521,0.00001748,-0.00000915,0.00000587,-0.00001732\\\@


 BOOKS ARE LIGHTHOUSES ERECTED IN THE GREAT SEA OF TIME.
     -- E.P.WHIPPLE
 Job cpu time:       0 days  0 hours  3 minutes 45.2 seconds.
 File lengths (MBytes):  RWF=     18 Int=      0 D2E=      0 Chk=      2 Scr=      1
 Normal termination of Gaussian 09 at Thu Sep  8 15:25:10 2022.
