 Entering Gaussian System, Link 0=g09
 Input=B3LYP6-31Gdp.Frag_990.gjf
 Output=B3LYP6-31Gdp.Frag_990.log
 Initial command:
 /public/home/users/caep010/software/Gaussian09/g09/l1.exe "/public/home/users/caep010/.cache/gau_scr/Gau-221333.inp" -scrdir="/public/home/users/caep010/.cache/gau_scr/"
 Entering Link 1 = /public/home/users/caep010/software/Gaussian09/g09/l1.exe PID=    221334.
  
 Copyright (c) 1988,1990,1992,1993,1995,1998,2003,2009,2015,
            Gaussian, Inc.  All Rights Reserved.
  
 This is part of the Gaussian(R) 09 program.  It is based on
 the Gaussian(R) 03 system (copyright 2003, Gaussian, Inc.),
 the Gaussian(R) 98 system (copyright 1998, Gaussian, Inc.),
 the Gaussian(R) 94 system (copyright 1995, Gaussian, Inc.),
 the Gaussian 92(TM) system (copyright 1992, Gaussian, Inc.),
 the Gaussian 90(TM) system (copyright 1990, Gaussian, Inc.),
 the Gaussian 88(TM) system (copyright 1988, Gaussian, Inc.),
 the Gaussian 86(TM) system (copyright 1986, Carnegie Mellon
 University), and the Gaussian 82(TM) system (copyright 1983,
 Carnegie Mellon University). Gaussian is a federally registered
 trademark of Gaussian, Inc.
  
 This software contains proprietary and confidential information,
 including trade secrets, belonging to Gaussian, Inc.
  
 This software is provided under written license and may be
 used, copied, transmitted, or stored only in accord with that
 written license.
  
 The following legend is applicable only to US Government
 contracts under FAR:
  
                    RESTRICTED RIGHTS LEGEND
  
 Use, reproduction and disclosure by the US Government is
 subject to restrictions as set forth in subparagraphs (a)
 and (c) of the Commercial Computer Software - Restricted
 Rights clause in FAR 52.227-19.
  
 Gaussian, Inc.
 340 Quinnipiac St., Bldg. 40, Wallingford CT 06492
  
  
 ---------------------------------------------------------------
 Warning -- This program may not be used in any manner that
 competes with the business of Gaussian, Inc. or will provide
 assistance to any competitor of Gaussian, Inc.  The licensee
 of this program is prohibited from giving any competitor of
 Gaussian, Inc. access to this program.  By using this program,
 the user acknowledges that Gaussian, Inc. is engaged in the
 business of creating and licensing software in the field of
 computational chemistry and represents and warrants to the
 licensee that it is not a competitor of Gaussian, Inc. and that
 it will not use this program in any manner prohibited above.
 ---------------------------------------------------------------
  

 Cite this work as:
 Gaussian 09, Revision E.01,
 M. J. Frisch, G. W. Trucks, H. B. Schlegel, G. E. Scuseria, 
 M. A. Robb, J. R. Cheeseman, G. Scalmani, V. Barone, B. Mennucci, 
 G. A. Petersson, H. Nakatsuji, M. Caricato, X. Li, H. P. Hratchian, 
 A. F. Izmaylov, J. Bloino, G. Zheng, J. L. Sonnenberg, M. Hada, 
 M. Ehara, K. Toyota, R. Fukuda, J. Hasegawa, M. Ishida, T. Nakajima, 
 Y. Honda, O. Kitao, H. Nakai, T. Vreven, J. A. Montgomery, Jr., 
 J. E. Peralta, F. Ogliaro, M. Bearpark, J. J. Heyd, E. Brothers, 
 K. N. Kudin, V. N. Staroverov, T. Keith, R. Kobayashi, J. Normand, 
 K. Raghavachari, A. Rendell, J. C. Burant, S. S. Iyengar, J. Tomasi, 
 M. Cossi, N. Rega, J. M. Millam, M. Klene, J. E. Knox, J. B. Cross, 
 V. Bakken, C. Adamo, J. Jaramillo, R. Gomperts, R. E. Stratmann, 
 O. Yazyev, A. J. Austin, R. Cammi, C. Pomelli, J. W. Ochterski, 
 R. L. Martin, K. Morokuma, V. G. Zakrzewski, G. A. Voth, 
 P. Salvador, J. J. Dannenberg, S. Dapprich, A. D. Daniels, 
 O. Farkas, J. B. Foresman, J. V. Ortiz, J. Cioslowski, 
 and D. J. Fox, Gaussian, Inc., Wallingford CT, 2013.
 
 ******************************************
 Gaussian 09:  ES64L-G09RevE.01 30-Nov-2015
                 8-Sep-2022 
 ******************************************
 %nproc=32
 Will use up to   32 processors via shared memory.
 %mem=180GB
 %chk=B3LYP6-31Gdp.Frag_990.chk
 ----------------------------
 #P OPT Freq B3LYP/6-31G(d,p)
 ----------------------------
 1/14=-1,18=20,19=15,26=3,38=1/1,3;
 2/9=110,12=2,17=6,18=5,40=1/2;
 3/5=1,6=6,7=101,11=2,16=1,25=1,30=1,71=1,74=-5/1,2,3;
 4//1;
 5/5=2,38=5/2;
 6/7=2,8=2,9=2,10=2,28=1/1;
 7//1,2,3,16;
 1/14=-1,18=20,19=15,26=3/3(2);
 2/9=110/2;
 99//99;
 2/9=110/2;
 3/5=1,6=6,7=101,11=2,16=1,25=1,30=1,71=1,74=-5/1,2,3;
 4/5=5,16=3,69=1/1;
 5/5=2,38=5/2;
 7//1,2,3,16;
 1/14=-1,18=20,19=15,26=3/3(-5);
 2/9=110/2;
 6/7=2,8=2,9=2,10=2,19=2,28=1/1;
 99/9=1/99;
 Leave Link    1 at Thu Sep  8 15:05:30 2022, MaxMem= 24159191040 cpu:         2.6
 (Enter /public/home/users/caep010/software/Gaussian09/g09/l101.exe)
 --------
 Frag_990
 --------
 Symbolic Z-matrix:
 Charge =  0 Multiplicity = 1
 C                    -0.85235  -0.58341  -0.04788 
 N                     0.234     0.37724   0.05779 
 N                     1.54974   0.04147  -0.25066 
 N                     0.07065   1.65279   0.45414 
 O                    -1.07363   1.96515   0.72851 
 H                    -0.94165  -0.94586  -1.07822 
 H                    -1.76791  -0.07047   0.24692 
 H                    -0.67196  -1.43708   0.61525 
 H                     1.60097  -0.27407  -1.21683 
 H                     1.85204  -0.72567   0.34598 
 
 NAtoms=     10 NQM=       10 NQMF=       0 NMMI=      0 NMMIF=      0
                NMic=       0 NMicF=      0.
                    Isotopes and Nuclear Properties:
 (Nuclear quadrupole moments (NQMom) in fm**2, nuclear magnetic moments (NMagM)
  in nuclear magnetons)

  Atom         1           2           3           4           5           6           7           8           9          10
 IAtWgt=          12          14          14          14          16           1           1           1           1           1
 AtmWgt=  12.0000000  14.0030740  14.0030740  14.0030740  15.9949146   1.0078250   1.0078250   1.0078250   1.0078250   1.0078250
 NucSpn=           0           2           2           2           0           1           1           1           1           1
 AtZEff=   0.0000000   0.0000000   0.0000000   0.0000000   0.0000000   0.0000000   0.0000000   0.0000000   0.0000000   0.0000000
 NQMom=    0.0000000   2.0440000   2.0440000   2.0440000   0.0000000   0.0000000   0.0000000   0.0000000   0.0000000   0.0000000
 NMagM=    0.0000000   0.4037610   0.4037610   0.4037610   0.0000000   2.7928460   2.7928460   2.7928460   2.7928460   2.7928460
 AtZNuc=   6.0000000   7.0000000   7.0000000   7.0000000   8.0000000   1.0000000   1.0000000   1.0000000   1.0000000   1.0000000
 Leave Link  101 at Thu Sep  8 15:05:30 2022, MaxMem= 24159191040 cpu:        10.0
 (Enter /public/home/users/caep010/software/Gaussian09/g09/l103.exe)

 GradGradGradGradGradGradGradGradGradGradGradGradGradGradGradGradGradGrad
 Berny optimization.
 Initialization pass.
                           ----------------------------
                           !    Initial Parameters    !
                           ! (Angstroms and Degrees)  !
 --------------------------                            --------------------------
 ! Name  Definition              Value          Derivative Info.                !
 --------------------------------------------------------------------------------
 ! R1    R(1,2)                  1.454          estimate D2E/DX2                !
 ! R2    R(1,6)                  1.0959         estimate D2E/DX2                !
 ! R3    R(1,7)                  1.0901         estimate D2E/DX2                !
 ! R4    R(1,8)                  1.0959         estimate D2E/DX2                !
 ! R5    R(2,3)                  1.3925         estimate D2E/DX2                !
 ! R6    R(2,4)                  1.3457         estimate D2E/DX2                !
 ! R7    R(3,9)                  1.0177         estimate D2E/DX2                !
 ! R8    R(3,10)                 1.0178         estimate D2E/DX2                !
 ! R9    R(4,5)                  1.2175         estimate D2E/DX2                !
 ! A1    A(2,1,6)              110.3482         estimate D2E/DX2                !
 ! A2    A(2,1,7)              107.2761         estimate D2E/DX2                !
 ! A3    A(2,1,8)              110.3458         estimate D2E/DX2                !
 ! A4    A(6,1,7)              109.9656         estimate D2E/DX2                !
 ! A5    A(6,1,8)              108.9472         estimate D2E/DX2                !
 ! A6    A(7,1,8)              109.947          estimate D2E/DX2                !
 ! A7    A(1,2,3)              122.0425         estimate D2E/DX2                !
 ! A8    A(1,2,4)              123.8469         estimate D2E/DX2                !
 ! A9    A(3,2,4)              114.1105         estimate D2E/DX2                !
 ! A10   A(2,3,9)              109.4278         estimate D2E/DX2                !
 ! A11   A(2,3,10)             109.4229         estimate D2E/DX2                !
 ! A12   A(9,3,10)             107.932          estimate D2E/DX2                !
 ! A13   A(2,4,5)              115.0661         estimate D2E/DX2                !
 ! D1    D(6,1,2,3)            -60.1569         estimate D2E/DX2                !
 ! D2    D(6,1,2,4)            119.7892         estimate D2E/DX2                !
 ! D3    D(7,1,2,3)           -179.9409         estimate D2E/DX2                !
 ! D4    D(7,1,2,4)              0.0053         estimate D2E/DX2                !
 ! D5    D(8,1,2,3)             60.299          estimate D2E/DX2                !
 ! D6    D(8,1,2,4)           -119.7548         estimate D2E/DX2                !
 ! D7    D(1,2,3,9)             58.9171         estimate D2E/DX2                !
 ! D8    D(1,2,3,10)           -59.1524         estimate D2E/DX2                !
 ! D9    D(4,2,3,9)           -121.0339         estimate D2E/DX2                !
 ! D10   D(4,2,3,10)           120.8966         estimate D2E/DX2                !
 ! D11   D(1,2,4,5)              0.0607         estimate D2E/DX2                !
 ! D12   D(3,2,4,5)           -179.9893         estimate D2E/DX2                !
 --------------------------------------------------------------------------------
 Trust Radius=3.00D-01 FncErr=1.00D-07 GrdErr=1.00D-06
 Number of steps in this run=     44 maximum allowed number of steps=    100.
 GradGradGradGradGradGradGradGradGradGradGradGradGradGradGradGradGradGrad

 Leave Link  103 at Thu Sep  8 15:05:31 2022, MaxMem= 24159191040 cpu:         0.4
 (Enter /public/home/users/caep010/software/Gaussian09/g09/l202.exe)
                          Input orientation:                          
 ---------------------------------------------------------------------
 Center     Atomic      Atomic             Coordinates (Angstroms)
 Number     Number       Type             X           Y           Z
 ---------------------------------------------------------------------
      1          6           0       -0.852352   -0.583411   -0.047883
      2          7           0        0.233999    0.377239    0.057785
      3          7           0        1.549742    0.041474   -0.250659
      4          7           0        0.070654    1.652789    0.454140
      5          8           0       -1.073627    1.965146    0.728510
      6          1           0       -0.941654   -0.945855   -1.078218
      7          1           0       -1.767910   -0.070465    0.246919
      8          1           0       -0.671959   -1.437077    0.615253
      9          1           0        1.600970   -0.274068   -1.216827
     10          1           0        1.852036   -0.725673    0.345981
 ---------------------------------------------------------------------
                    Distance matrix (angstroms):
                    1          2          3          4          5
     1  C    0.000000
     2  N    1.454019   0.000000
     3  N    2.490312   1.392500   0.000000
     4  N    2.470740   1.345662   2.297995   0.000000
     5  O    2.673367   2.163610   3.397256   1.217467   0.000000
     6  H    1.095870   2.103150   2.804769   3.182112   3.428645
     7  H    1.090077   2.060061   3.356625   2.528411   2.204012
     8  H    1.095918   2.103158   2.805686   3.181934   3.427723
     9  H    2.735126   1.979254   1.017680   2.974353   3.993981
    10  H    2.736619   1.979271   1.017780   2.973567   3.993287
                    6          7          8          9         10
     6  H    0.000000
     7  H    1.790250   0.000000
     8  H    1.783782   1.790086   0.000000
     9  H    2.633524   3.678771   3.142501   0.000000
    10  H    3.143490   3.680098   2.636125   1.646010   0.000000
 Stoichiometry    CH5N3O
 Framework group  C1[X(CH5N3O)]
 Deg. of freedom    24
 Full point group                 C1      NOp   1
 Largest Abelian subgroup         C1      NOp   1
 Largest concise Abelian subgroup C1      NOp   1
                         Standard orientation:                         
 ---------------------------------------------------------------------
 Center     Atomic      Atomic             Coordinates (Angstroms)
 Number     Number       Type             X           Y           Z
 ---------------------------------------------------------------------
      1          6           0       -0.372180    1.400002   -0.000017
      2          7           0       -0.333818   -0.053512    0.000176
      3          7           0       -1.494274   -0.823186   -0.000170
      4          7           0        0.803179   -0.773265   -0.000353
      5          8           0        1.828850   -0.117351    0.000144
      6          1           0       -0.893021    1.767329   -0.891492
      7          1           0        0.659814    1.751078   -0.000742
      8          1           0       -0.891517    1.767581    0.892289
      9          1           0       -2.049924   -0.597463   -0.822346
     10          1           0       -2.048677   -0.599997    0.823662
 ---------------------------------------------------------------------
 Rotational constants (GHZ):      9.2729616      4.5884178      3.1843869
 Leave Link  202 at Thu Sep  8 15:05:31 2022, MaxMem= 24159191040 cpu:         0.5
 (Enter /public/home/users/caep010/software/Gaussian09/g09/l301.exe)
 Standard basis: 6-31G(d,p) (6D, 7F)
 Ernie: Thresh=  0.10000D-02 Tol=  0.10000D-05 Strict=F.
 There are   100 symmetry adapted cartesian basis functions of A   symmetry.
 There are   100 symmetry adapted basis functions of A   symmetry.
   100 basis functions,   175 primitive gaussians,   100 cartesian basis functions
    20 alpha electrons       20 beta electrons
       nuclear repulsion energy       184.7871171711 Hartrees.
 IExCor=  402 DFT=T Ex+Corr=B3LYP ExCW=0 ScaHFX=  0.200000
 ScaDFX=  0.800000  0.720000  1.000000  0.810000 ScalE2=  1.000000  1.000000
 IRadAn=      0 IRanWt=     -1 IRanGd=            0 ICorTp=0 IEmpDi=  4
 NAtoms=   10 NActive=   10 NUniq=   10 SFac= 1.00D+00 NAtFMM=   60 NAOKFM=F Big=F
 Integral buffers will be    131072 words long.
 Raffenetti 2 integral format.
 Two-electron integral symmetry is turned on.
 Leave Link  301 at Thu Sep  8 15:05:31 2022, MaxMem= 24159191040 cpu:         2.2
 (Enter /public/home/users/caep010/software/Gaussian09/g09/l302.exe)
 NPDir=0 NMtPBC=     1 NCelOv=     1 NCel=       1 NClECP=     1 NCelD=      1
         NCelK=      1 NCelE2=     1 NClLst=     1 CellRange=     0.0.
 One-electron integrals computed using PRISM.
 NBasis=   100 RedAO= T EigKep=  3.60D-03  NBF=   100
 NBsUse=   100 1.00D-06 EigRej= -1.00D+00 NBFU=   100
 Precomputing XC quadrature grid using
 IXCGrd= 4 IRadAn=           0 IRanWt=          -1 IRanGd=           0 AccXCQ= 0.00D+00.
 Generated NRdTot=       0 NPtTot=           0 NUsed=           0 NTot=          32
 NSgBfM=   100   100   100   100   100 MxSgAt=    10 MxSgA2=    10.
 Leave Link  302 at Thu Sep  8 15:05:31 2022, MaxMem= 24159191040 cpu:        13.5
 (Enter /public/home/users/caep010/software/Gaussian09/g09/l303.exe)
 DipDrv:  MaxL=1.
 Leave Link  303 at Thu Sep  8 15:05:31 2022, MaxMem= 24159191040 cpu:         0.8
 (Enter /public/home/users/caep010/software/Gaussian09/g09/l401.exe)
 ExpMin= 1.61D-01 ExpMax= 5.48D+03 ExpMxC= 8.25D+02 IAcc=1 IRadAn=         1 AccDes= 0.00D+00
 Harris functional with IExCor=  402 and IRadAn=       1 diagonalized for initial guess.
 HarFok:  IExCor=  402 AccDes= 0.00D+00 IRadAn=         1 IDoV= 1 UseB2=F ITyADJ=14
 ICtDFT=  3500011 ScaDFX=  1.000000  1.000000  1.000000  1.000000
 FoFCou: FMM=F IPFlag=           0 FMFlag=      100000 FMFlg1=           0
         NFxFlg=           0 DoJE=T BraDBF=F KetDBF=T FulRan=T
         wScrn=  0.000000 ICntrl=     500 IOpCl=  0 I1Cent=   200000004 NGrid=           0
         NMat0=    1 NMatS0=      1 NMatT0=    0 NMatD0=    1 NMtDS0=    0 NMtDT0=    0
 Petite list used in FoFCou.
 Harris En= -280.483497550902    
 JPrj=0 DoOrth=F DoCkMO=F.
 Leave Link  401 at Thu Sep  8 15:05:32 2022, MaxMem= 24159191040 cpu:         9.5
 (Enter /public/home/users/caep010/software/Gaussian09/g09/l502.exe)
 Closed shell SCF:
 Using DIIS extrapolation, IDIIS=  1040.
 Integral symmetry usage will be decided dynamically.
 Keep R1 ints in memory in canonical form, NReq=13729312.
 IVT=       52505 IEndB=       52505 NGot= 24159191040 MDV= 24146384761
 LenX= 24146384761 LenY= 24146374320
 Requested convergence on RMS density matrix=1.00D-08 within 128 cycles.
 Requested convergence on MAX density matrix=1.00D-06.
 Requested convergence on             energy=1.00D-06.
 No special actions if energy rises.
 FoFCou: FMM=F IPFlag=           0 FMFlag=           0 FMFlg1=           0
         NFxFlg=           0 DoJE=F BraDBF=F KetDBF=F FulRan=T
         wScrn=  0.000000 ICntrl=     600 IOpCl=  0 I1Cent=           0 NGrid=           0
         NMat0=    1 NMatS0=   5050 NMatT0=    0 NMatD0=    1 NMtDS0=    0 NMtDT0=    0
 Symmetry not used in FoFCou.
 Integral accuracy reduced to 1.0D-05 until final iterations.

 Cycle   1  Pass 0  IDiag  1:
 E= -280.341779678792    
 DIIS: error= 3.20D-02 at cycle   1 NSaved=   1.
 NSaved= 1 IEnMin= 1 EnMin= -280.341779678792     IErMin= 1 ErrMin= 3.20D-02
 ErrMax= 3.20D-02  0.00D+00 EMaxC= 1.00D-01 BMatC= 1.71D-01 BMatP= 1.71D-01
 IDIUse=3 WtCom= 6.80D-01 WtEn= 3.20D-01
 Coeff-Com:  0.100D+01
 Coeff-En:   0.100D+01
 Coeff:      0.100D+01
 Gap=     0.120 Goal=   None    Shift=    0.000
 GapD=    0.120 DampG=1.000 DampE=0.500 DampFc=0.5000 IDamp=-1.
 Damping current iteration by 5.00D-01
 RMSDP=1.05D-02 MaxDP=2.71D-01              OVMax= 4.39D-01

 Cycle   2  Pass 0  IDiag  1:
 E= -280.323918906740     Delta-E=        0.017860772052 Rises=F Damp=T
 DIIS: error= 2.43D-02 at cycle   2 NSaved=   2.
 NSaved= 2 IEnMin= 1 EnMin= -280.341779678792     IErMin= 2 ErrMin= 2.43D-02
 ErrMax= 2.43D-02  0.00D+00 EMaxC= 1.00D-01 BMatC= 7.72D-02 BMatP= 1.71D-01
 IDIUse=3 WtCom= 7.57D-01 WtEn= 2.43D-01
 Coeff-Com:  0.377D+00 0.623D+00
 Coeff-En:   0.542D+00 0.458D+00
 Coeff:      0.417D+00 0.583D+00
 Gap=     0.173 Goal=   None    Shift=    0.000
 RMSDP=3.99D-03 MaxDP=1.05D-01 DE= 1.79D-02 OVMax= 3.02D-01

 Cycle   3  Pass 0  IDiag  1:
 E= -280.459915988858     Delta-E=       -0.135997082119 Rises=F Damp=F
 DIIS: error= 1.46D-02 at cycle   3 NSaved=   3.
 NSaved= 3 IEnMin= 3 EnMin= -280.459915988858     IErMin= 3 ErrMin= 1.46D-02
 ErrMax= 1.46D-02  0.00D+00 EMaxC= 1.00D-01 BMatC= 2.71D-02 BMatP= 7.72D-02
 IDIUse=3 WtCom= 8.54D-01 WtEn= 1.46D-01
 Coeff-Com:  0.156D+00 0.355D+00 0.489D+00
 Coeff-En:   0.000D+00 0.000D+00 0.100D+01
 Coeff:      0.133D+00 0.303D+00 0.564D+00
 Gap=     0.190 Goal=   None    Shift=    0.000
 RMSDP=2.11D-03 MaxDP=3.90D-02 DE=-1.36D-01 OVMax= 8.21D-02

 Cycle   4  Pass 0  IDiag  1:
 E= -280.479331046691     Delta-E=       -0.019415057833 Rises=F Damp=F
 DIIS: error= 6.06D-03 at cycle   4 NSaved=   4.
 NSaved= 4 IEnMin= 4 EnMin= -280.479331046691     IErMin= 4 ErrMin= 6.06D-03
 ErrMax= 6.06D-03  0.00D+00 EMaxC= 1.00D-01 BMatC= 5.99D-03 BMatP= 2.71D-02
 IDIUse=3 WtCom= 9.39D-01 WtEn= 6.06D-02
 Coeff-Com:  0.425D-01 0.509D-01 0.317D+00 0.590D+00
 Coeff-En:   0.000D+00 0.000D+00 0.200D+00 0.800D+00
 Coeff:      0.399D-01 0.478D-01 0.309D+00 0.603D+00
 Gap=     0.193 Goal=   None    Shift=    0.000
 RMSDP=9.13D-04 MaxDP=2.01D-02 DE=-1.94D-02 OVMax= 3.63D-02

 Cycle   5  Pass 0  IDiag  1:
 E= -280.484121401934     Delta-E=       -0.004790355243 Rises=F Damp=F
 DIIS: error= 1.61D-03 at cycle   5 NSaved=   5.
 NSaved= 5 IEnMin= 5 EnMin= -280.484121401934     IErMin= 5 ErrMin= 1.61D-03
 ErrMax= 1.61D-03  0.00D+00 EMaxC= 1.00D-01 BMatC= 4.59D-04 BMatP= 5.99D-03
 IDIUse=3 WtCom= 9.84D-01 WtEn= 1.61D-02
 Coeff-Com:  0.123D-01 0.691D-02 0.140D+00 0.349D+00 0.492D+00
 Coeff-En:   0.000D+00 0.000D+00 0.000D+00 0.174D-01 0.983D+00
 Coeff:      0.121D-01 0.680D-02 0.138D+00 0.344D+00 0.500D+00
 Gap=     0.194 Goal=   None    Shift=    0.000
 RMSDP=2.43D-04 MaxDP=5.99D-03 DE=-4.79D-03 OVMax= 1.14D-02

 Cycle   6  Pass 0  IDiag  1:
 E= -280.484494847955     Delta-E=       -0.000373446021 Rises=F Damp=F
 DIIS: error= 5.46D-04 at cycle   6 NSaved=   6.
 NSaved= 6 IEnMin= 6 EnMin= -280.484494847955     IErMin= 6 ErrMin= 5.46D-04
 ErrMax= 5.46D-04  0.00D+00 EMaxC= 1.00D-01 BMatC= 5.15D-05 BMatP= 4.59D-04
 IDIUse=3 WtCom= 9.95D-01 WtEn= 5.46D-03
 Coeff-Com:  0.205D-02-0.513D-02 0.407D-01 0.126D+00 0.300D+00 0.537D+00
 Coeff-En:   0.000D+00 0.000D+00 0.000D+00 0.000D+00 0.634D-01 0.937D+00
 Coeff:      0.204D-02-0.510D-02 0.405D-01 0.125D+00 0.299D+00 0.539D+00
 Gap=     0.194 Goal=   None    Shift=    0.000
 RMSDP=5.95D-05 MaxDP=1.79D-03 DE=-3.73D-04 OVMax= 1.80D-03

 Cycle   7  Pass 0  IDiag  1:
 E= -280.484532294809     Delta-E=       -0.000037446854 Rises=F Damp=F
 DIIS: error= 1.46D-04 at cycle   7 NSaved=   7.
 NSaved= 7 IEnMin= 7 EnMin= -280.484532294809     IErMin= 7 ErrMin= 1.46D-04
 ErrMax= 1.46D-04  0.00D+00 EMaxC= 1.00D-01 BMatC= 3.01D-06 BMatP= 5.15D-05
 IDIUse=3 WtCom= 9.99D-01 WtEn= 1.46D-03
 Coeff-Com:  0.409D-03-0.363D-02 0.101D-01 0.351D-01 0.120D+00 0.277D+00
 Coeff-Com:  0.560D+00
 Coeff-En:   0.000D+00 0.000D+00 0.000D+00 0.000D+00 0.000D+00 0.000D+00
 Coeff-En:   0.100D+01
 Coeff:      0.409D-03-0.362D-02 0.100D-01 0.350D-01 0.120D+00 0.277D+00
 Coeff:      0.561D+00
 Gap=     0.194 Goal=   None    Shift=    0.000
 RMSDP=1.78D-05 MaxDP=2.49D-04 DE=-3.74D-05 OVMax= 2.96D-04

 Cycle   8  Pass 0  IDiag  1:
 E= -280.484534664729     Delta-E=       -0.000002369920 Rises=F Damp=F
 DIIS: error= 3.23D-05 at cycle   8 NSaved=   8.
 NSaved= 8 IEnMin= 8 EnMin= -280.484534664729     IErMin= 8 ErrMin= 3.23D-05
 ErrMax= 3.23D-05  0.00D+00 EMaxC= 1.00D-01 BMatC= 1.79D-07 BMatP= 3.01D-06
 IDIUse=1 WtCom= 1.00D+00 WtEn= 0.00D+00
 Coeff-Com:  0.229D-03-0.101D-02 0.431D-03 0.542D-03 0.132D-01 0.281D-01
 Coeff-Com:  0.145D+00 0.813D+00
 Coeff:      0.229D-03-0.101D-02 0.431D-03 0.542D-03 0.132D-01 0.281D-01
 Coeff:      0.145D+00 0.813D+00
 Gap=     0.194 Goal=   None    Shift=    0.000
 RMSDP=5.41D-06 MaxDP=1.48D-04 DE=-2.37D-06 OVMax= 1.38D-04

 Initial convergence to 1.0D-05 achieved.  Increase integral accuracy.
 Cycle   9  Pass 1  IDiag  1:
 E= -280.484515075021     Delta-E=        0.000019589708 Rises=F Damp=F
 DIIS: error= 1.16D-05 at cycle   1 NSaved=   1.
 NSaved= 1 IEnMin= 1 EnMin= -280.484515075021     IErMin= 1 ErrMin= 1.16D-05
 ErrMax= 1.16D-05  0.00D+00 EMaxC= 1.00D-01 BMatC= 2.82D-08 BMatP= 2.82D-08
 IDIUse=1 WtCom= 1.00D+00 WtEn= 0.00D+00
 Coeff-Com:  0.100D+01
 Coeff:      0.100D+01
 Gap=     0.194 Goal=   None    Shift=    0.000
 RMSDP=5.41D-06 MaxDP=1.48D-04 DE= 1.96D-05 OVMax= 7.33D-05

 Cycle  10  Pass 1  IDiag  1:
 E= -280.484515057645     Delta-E=        0.000000017376 Rises=F Damp=F
 DIIS: error= 1.80D-05 at cycle   2 NSaved=   2.
 NSaved= 2 IEnMin= 1 EnMin= -280.484515075021     IErMin= 1 ErrMin= 1.16D-05
 ErrMax= 1.80D-05  0.00D+00 EMaxC= 1.00D-01 BMatC= 5.54D-08 BMatP= 2.82D-08
 IDIUse=1 WtCom= 1.00D+00 WtEn= 0.00D+00
 Coeff-Com:  0.596D+00 0.404D+00
 Coeff:      0.596D+00 0.404D+00
 Gap=     0.194 Goal=   None    Shift=    0.000
 RMSDP=2.51D-06 MaxDP=5.92D-05 DE= 1.74D-08 OVMax= 1.06D-04

 Cycle  11  Pass 1  IDiag  1:
 E= -280.484515096293     Delta-E=       -0.000000038648 Rises=F Damp=F
 DIIS: error= 8.62D-06 at cycle   3 NSaved=   3.
 NSaved= 3 IEnMin= 3 EnMin= -280.484515096293     IErMin= 3 ErrMin= 8.62D-06
 ErrMax= 8.62D-06  0.00D+00 EMaxC= 1.00D-01 BMatC= 9.30D-09 BMatP= 2.82D-08
 IDIUse=1 WtCom= 1.00D+00 WtEn= 0.00D+00
 Coeff-Com:  0.242D+00 0.284D+00 0.475D+00
 Coeff:      0.242D+00 0.284D+00 0.475D+00
 Gap=     0.194 Goal=   None    Shift=    0.000
 RMSDP=1.12D-06 MaxDP=2.95D-05 DE=-3.86D-08 OVMax= 5.03D-05

 Cycle  12  Pass 1  IDiag  1:
 E= -280.484515102660     Delta-E=       -0.000000006367 Rises=F Damp=F
 DIIS: error= 2.35D-06 at cycle   4 NSaved=   4.
 NSaved= 4 IEnMin= 4 EnMin= -280.484515102660     IErMin= 4 ErrMin= 2.35D-06
 ErrMax= 2.35D-06  0.00D+00 EMaxC= 1.00D-01 BMatC= 1.09D-09 BMatP= 9.30D-09
 IDIUse=1 WtCom= 1.00D+00 WtEn= 0.00D+00
 Coeff-Com: -0.108D-01 0.713D-01 0.299D+00 0.640D+00
 Coeff:     -0.108D-01 0.713D-01 0.299D+00 0.640D+00
 Gap=     0.194 Goal=   None    Shift=    0.000
 RMSDP=3.21D-07 MaxDP=7.12D-06 DE=-6.37D-09 OVMax= 1.45D-05

 Cycle  13  Pass 1  IDiag  1:
 E= -280.484515103600     Delta-E=       -0.000000000940 Rises=F Damp=F
 DIIS: error= 4.42D-07 at cycle   5 NSaved=   5.
 NSaved= 5 IEnMin= 5 EnMin= -280.484515103600     IErMin= 5 ErrMin= 4.42D-07
 ErrMax= 4.42D-07  0.00D+00 EMaxC= 1.00D-01 BMatC= 3.09D-11 BMatP= 1.09D-09
 IDIUse=1 WtCom= 1.00D+00 WtEn= 0.00D+00
 Coeff-Com: -0.968D-02 0.348D-01 0.151D+00 0.350D+00 0.474D+00
 Coeff:     -0.968D-02 0.348D-01 0.151D+00 0.350D+00 0.474D+00
 Gap=     0.194 Goal=   None    Shift=    0.000
 RMSDP=5.24D-08 MaxDP=1.31D-06 DE=-9.40D-10 OVMax= 1.19D-06

 Cycle  14  Pass 1  IDiag  1:
 E= -280.484515103623     Delta-E=       -0.000000000023 Rises=F Damp=F
 DIIS: error= 1.52D-07 at cycle   6 NSaved=   6.
 NSaved= 6 IEnMin= 6 EnMin= -280.484515103623     IErMin= 6 ErrMin= 1.52D-07
 ErrMax= 1.52D-07  0.00D+00 EMaxC= 1.00D-01 BMatC= 2.69D-12 BMatP= 3.09D-11
 IDIUse=1 WtCom= 1.00D+00 WtEn= 0.00D+00
 Coeff-Com: -0.308D-02 0.792D-02 0.304D-01 0.878D-01 0.237D+00 0.639D+00
 Coeff:     -0.308D-02 0.792D-02 0.304D-01 0.878D-01 0.237D+00 0.639D+00
 Gap=     0.194 Goal=   None    Shift=    0.000
 RMSDP=1.43D-08 MaxDP=4.28D-07 DE=-2.31D-11 OVMax= 4.85D-07

 Cycle  15  Pass 1  IDiag  1:
 E= -280.484515103622     Delta-E=        0.000000000001 Rises=F Damp=F
 DIIS: error= 4.39D-08 at cycle   7 NSaved=   7.
 NSaved= 7 IEnMin= 6 EnMin= -280.484515103623     IErMin= 7 ErrMin= 4.39D-08
 ErrMax= 4.39D-08  0.00D+00 EMaxC= 1.00D-01 BMatC= 4.03D-13 BMatP= 2.69D-12
 IDIUse=1 WtCom= 1.00D+00 WtEn= 0.00D+00
 Coeff-Com: -0.939D-03 0.181D-02 0.412D-02 0.216D-01 0.897D-01 0.365D+00
 Coeff-Com:  0.518D+00
 Coeff:     -0.939D-03 0.181D-02 0.412D-02 0.216D-01 0.897D-01 0.365D+00
 Coeff:      0.518D+00
 Gap=     0.194 Goal=   None    Shift=    0.000
 RMSDP=7.32D-09 MaxDP=1.58D-07 DE= 1.14D-12 OVMax= 1.62D-07

 SCF Done:  E(RB3LYP) =  -280.484515104     A.U. after   15 cycles
            NFock= 15  Conv=0.73D-08     -V/T= 2.0089
 KE= 2.780108453838D+02 PE=-1.025191116781D+03 EE= 2.819086391223D+02
 Leave Link  502 at Thu Sep  8 15:05:33 2022, MaxMem= 24159191040 cpu:        34.4
 (Enter /public/home/users/caep010/software/Gaussian09/g09/l601.exe)
 Copying SCF densities to generalized density rwf, IOpCl= 0 IROHF=0.

 **********************************************************************

            Population analysis using the SCF density.

 **********************************************************************

 Orbital symmetries:
       Occupied  (A) (A) (A) (A) (A) (A) (A) (A) (A) (A) (A) (A)
                 (A) (A) (A) (A) (A) (A) (A) (A)
       Virtual   (A) (A) (A) (A) (A) (A) (A) (A) (A) (A) (A) (A)
                 (A) (A) (A) (A) (A) (A) (A) (A) (A) (A) (A) (A)
                 (A) (A) (A) (A) (A) (A) (A) (A) (A) (A) (A) (A)
                 (A) (A) (A) (A) (A) (A) (A) (A) (A) (A) (A) (A)
                 (A) (A) (A) (A) (A) (A) (A) (A) (A) (A) (A) (A)
                 (A) (A) (A) (A) (A) (A) (A) (A) (A) (A) (A) (A)
                 (A) (A) (A) (A) (A) (A) (A) (A)
 The electronic state is 1-A.
 Alpha  occ. eigenvalues --  -19.15915 -14.45087 -14.42548 -14.37884 -10.23294
 Alpha  occ. eigenvalues --   -1.14818  -1.01471  -0.84025  -0.75944  -0.60156
 Alpha  occ. eigenvalues --   -0.54231  -0.53292  -0.50836  -0.45693  -0.42056
 Alpha  occ. eigenvalues --   -0.42050  -0.38850  -0.29238  -0.26543  -0.22352
 Alpha virt. eigenvalues --   -0.02985   0.05429   0.11713   0.13052   0.13955
 Alpha virt. eigenvalues --    0.15782   0.15934   0.22909   0.29113   0.34639
 Alpha virt. eigenvalues --    0.50467   0.52266   0.53900   0.64148   0.64757
 Alpha virt. eigenvalues --    0.65251   0.66202   0.73149   0.74951   0.76342
 Alpha virt. eigenvalues --    0.80747   0.81596   0.85350   0.85791   0.87858
 Alpha virt. eigenvalues --    0.89307   0.90047   0.92742   0.99271   0.99880
 Alpha virt. eigenvalues --    1.11224   1.16285   1.22363   1.28823   1.30336
 Alpha virt. eigenvalues --    1.35356   1.51738   1.53130   1.62603   1.71999
 Alpha virt. eigenvalues --    1.73503   1.80919   1.84979   1.86601   1.87944
 Alpha virt. eigenvalues --    1.94733   2.01026   2.03146   2.04180   2.07439
 Alpha virt. eigenvalues --    2.13991   2.16538   2.16803   2.28339   2.28385
 Alpha virt. eigenvalues --    2.30744   2.35645   2.47868   2.50345   2.53617
 Alpha virt. eigenvalues --    2.61985   2.62734   2.66260   2.73987   2.80103
 Alpha virt. eigenvalues --    2.80623   2.85488   2.90866   3.05956   3.10176
 Alpha virt. eigenvalues --    3.18434   3.26255   3.36827   3.42379   3.42820
 Alpha virt. eigenvalues --    3.52993   3.72112   3.86243   4.12112   4.44817
          Condensed to atoms (all electrons):
               1          2          3          4          5          6
     1  C    4.905514   0.233546  -0.054748  -0.028169  -0.006001   0.385160
     2  N    0.233546   6.935325   0.243700   0.080871  -0.104861  -0.040286
     3  N   -0.054748   0.243700   6.571321  -0.051745   0.004344   0.000243
     4  N   -0.028169   0.080871  -0.051745   6.546308   0.258365   0.001094
     5  O   -0.006001  -0.104861   0.004344   0.258365   8.182956   0.000538
     6  H    0.385160  -0.040286   0.000243   0.001094   0.000538   0.591244
     7  H    0.367641  -0.041360   0.004756  -0.001564   0.030123  -0.023372
     8  H    0.385161  -0.040296   0.000273   0.001095   0.000534  -0.041628
     9  H    0.001342  -0.053542   0.347793   0.002540  -0.000095   0.005061
    10  H    0.001356  -0.053603   0.347786   0.002532  -0.000094  -0.001480
               7          8          9         10
     1  C    0.367641   0.385161   0.001342   0.001356
     2  N   -0.041360  -0.040296  -0.053542  -0.053603
     3  N    0.004756   0.000273   0.347793   0.347786
     4  N   -0.001564   0.001095   0.002540   0.002532
     5  O    0.030123   0.000534  -0.000095  -0.000094
     6  H   -0.023372  -0.041628   0.005061  -0.001480
     7  H    0.518740  -0.023408   0.000004   0.000003
     8  H   -0.023408   0.591256  -0.001483   0.005037
     9  H    0.000004  -0.001483   0.482308  -0.046825
    10  H    0.000003   0.005037  -0.046825   0.482352
 Mulliken charges:
               1
     1  C   -0.190801
     2  N   -0.159495
     3  N   -0.413724
     4  N    0.188673
     5  O   -0.365810
     6  H    0.123427
     7  H    0.168437
     8  H    0.123459
     9  H    0.262897
    10  H    0.262938
 Sum of Mulliken charges =  -0.00000
 Mulliken charges with hydrogens summed into heavy atoms:
               1
     1  C    0.224522
     2  N   -0.159495
     3  N    0.112111
     4  N    0.188673
     5  O   -0.365810
 Electronic spatial extent (au):  <R**2>=            396.5416
 Charge=             -0.0000 electrons
 Dipole moment (field-independent basis, Debye):
    X=             -4.1881    Y=              2.5167    Z=              0.0022  Tot=              4.8861
 Quadrupole moment (field-independent basis, Debye-Ang):
   XX=            -29.1264   YY=            -31.4993   ZZ=            -27.3009
   XY=              0.0547   XZ=             -0.0032   YZ=             -0.0072
 Traceless Quadrupole moment (field-independent basis, Debye-Ang):
   XX=              0.1825   YY=             -2.1905   ZZ=              2.0080
   XY=              0.0547   XZ=             -0.0032   YZ=             -0.0072
 Octapole moment (field-independent basis, Debye-Ang**2):
  XXX=            -19.3247  YYY=              7.0812  ZZZ=              0.0063  XYY=              2.8158
  XXY=             -0.4250  XXZ=              0.0008  XZZ=             -2.4896  YZZ=             -1.1365
  YYZ=              0.0092  XYZ=              0.0096
 Hexadecapole moment (field-independent basis, Debye-Ang**3):
 XXXX=           -260.2652 YYYY=           -180.2828 ZZZZ=            -34.1591 XXXY=              9.0454
 XXXZ=              0.0028 YYYX=             -3.1901 YYYZ=             -0.0137 ZZZX=             -0.0084
 ZZZY=             -0.0059 XXYY=            -76.1063 XXZZ=            -42.5626 YYZZ=            -33.2109
 XXYZ=             -0.0222 YYXZ=             -0.0117 ZZXY=              0.8117
 N-N= 1.847871171711D+02 E-N=-1.025191118247D+03  KE= 2.780108453838D+02
 No NMR shielding tensors so no spin-rotation constants.
 Leave Link  601 at Thu Sep  8 15:05:33 2022, MaxMem= 24159191040 cpu:        10.5
 (Enter /public/home/users/caep010/software/Gaussian09/g09/l701.exe)
 Compute integral first derivatives.
 ... and contract with generalized density number  0.
 Leave Link  701 at Thu Sep  8 15:05:34 2022, MaxMem= 24159191040 cpu:        12.5
 (Enter /public/home/users/caep010/software/Gaussian09/g09/l702.exe)
 L702 exits ... SP integral derivatives will be done elsewhere.
 Leave Link  702 at Thu Sep  8 15:05:34 2022, MaxMem= 24159191040 cpu:         0.5
 (Enter /public/home/users/caep010/software/Gaussian09/g09/l703.exe)
 Compute integral first derivatives, UseDBF=F ICtDFT=           0.
 Integral derivatives from FoFJK, PRISM(SPDF).
 Calling FoFJK, ICntrl=      2127 FMM=F ISym2X=0 I1Cent= 0 IOpClX= 0 NMat=1 NMatS=1 NMatT=0.
 FoFJK:  IHMeth= 1 ICntrl=    2127 DoSepK=F KAlg= 0 I1Cent=   0 FoldK=F
 IRaf=         0 NMat=   1 IRICut=       1 DoRegI=T DoRafI=F ISym2E= 0.
 FoFCou: FMM=F IPFlag=           0 FMFlag=      100000 FMFlg1=         800
         NFxFlg=           0 DoJE=F BraDBF=F KetDBF=F FulRan=T
         wScrn=  0.000000 ICntrl=    2127 IOpCl=  0 I1Cent=           0 NGrid=           0
         NMat0=    1 NMatS0=      1 NMatT0=    0 NMatD0=    1 NMtDS0=    0 NMtDT0=    0
 Symmetry not used in FoFCou.
 Leave Link  703 at Thu Sep  8 15:05:34 2022, MaxMem= 24159191040 cpu:         9.2
 (Enter /public/home/users/caep010/software/Gaussian09/g09/l716.exe)
 Dipole        =-1.64772433D+00 9.90146543D-01 8.67438009D-04
 ***** Axes restored to original set *****
 -------------------------------------------------------------------
 Center     Atomic                   Forces (Hartrees/Bohr)
 Number     Number              X              Y              Z
 -------------------------------------------------------------------
      1        6          -0.000754210   -0.000823342   -0.000044814
      2        7           0.000001960   -0.002601356   -0.000797577
      3        7           0.001348213   -0.000546077   -0.000286924
      4        7           0.009256739    0.001766968   -0.000955823
      5        8          -0.009755442    0.002347746    0.002233068
      6        1          -0.000168309    0.000056569   -0.000071338
      7        1          -0.000066875   -0.000102875   -0.000031595
      8        1          -0.000141013    0.000004669    0.000107164
      9        1          -0.000040286    0.000267300   -0.001227231
     10        1           0.000319224   -0.000369603    0.001075071
 -------------------------------------------------------------------
 Cartesian Forces:  Max     0.009755442 RMS     0.002641324
 Leave Link  716 at Thu Sep  8 15:05:34 2022, MaxMem= 24159191040 cpu:         0.7
 (Enter /public/home/users/caep010/software/Gaussian09/g09/l103.exe)

 GradGradGradGradGradGradGradGradGradGradGradGradGradGradGradGradGradGrad
 Berny optimization.
 FormGI is forming the generalized inverse of G from B-inverse, IUseBI=4.
 Internal  Forces:  Max     0.010277960 RMS     0.001981136
 Search for a local minimum.
 Step number   1 out of a maximum of   44
 All quantities printed in internal units (Hartrees-Bohrs-Radians)
 RMS Force = .19811D-02 SwitMx=.10000D-02 MixMth= 1
 Mixed Optimization -- RFO/linear search
 Second derivative matrix not updated -- first step.
 ITU=  0
     Eigenvalues ---    0.00977   0.01264   0.01394   0.02014   0.06015
     Eigenvalues ---    0.07525   0.07830   0.16000   0.16000   0.16000
     Eigenvalues ---    0.16000   0.16000   0.25000   0.25000   0.25000
     Eigenvalues ---    0.34138   0.34143   0.34804   0.37723   0.44694
     Eigenvalues ---    0.44710   0.46886   0.55955   0.96515
 RFO step:  Lambda=-1.74333759D-04 EMin= 9.77206164D-03
 Linear search not attempted -- first point.
 Iteration  1 RMS(Cart)=  0.00408259 RMS(Int)=  0.00000725
 Iteration  2 RMS(Cart)=  0.00000798 RMS(Int)=  0.00000263
 Iteration  3 RMS(Cart)=  0.00000000 RMS(Int)=  0.00000263
 ITry= 1 IFail=0 DXMaxC= 1.06D-02 DCOld= 1.00D+10 DXMaxT= 3.00D-01 DXLimC= 3.00D+00 Rises=F
 Variable       Old X    -DE/DX   Delta X   Delta X   Delta X     New X
                                 (Linear)    (Quad)   (Total)
    R1        2.74770   0.00142   0.00000   0.00376   0.00376   2.75146
    R2        2.07089   0.00006   0.00000   0.00018   0.00018   2.07108
    R3        2.05995  -0.00000   0.00000  -0.00001  -0.00001   2.05994
    R4        2.07099   0.00004   0.00000   0.00011   0.00011   2.07110
    R5        2.63144   0.00179   0.00000   0.00382   0.00382   2.63526
    R6        2.54293   0.00434   0.00000   0.00775   0.00775   2.55068
    R7        1.92314   0.00108   0.00000   0.00241   0.00241   1.92555
    R8        1.92332   0.00100   0.00000   0.00224   0.00224   1.92557
    R9        2.30068   0.01028   0.00000   0.01065   0.01065   2.31133
    A1        1.92594   0.00009   0.00000   0.00070   0.00070   1.92664
    A2        1.87232   0.00010   0.00000   0.00030   0.00030   1.87262
    A3        1.92590   0.00011   0.00000   0.00091   0.00091   1.92680
    A4        1.91926  -0.00017   0.00000  -0.00144  -0.00144   1.91782
    A5        1.90149   0.00002   0.00000   0.00078   0.00078   1.90226
    A6        1.91894  -0.00016   0.00000  -0.00128  -0.00128   1.91766
    A7        2.13004   0.00003   0.00000   0.00010   0.00010   2.13015
    A8        2.16154  -0.00035   0.00000  -0.00142  -0.00142   2.16012
    A9        1.99160   0.00033   0.00000   0.00131   0.00131   1.99292
   A10        1.90987  -0.00010   0.00000   0.00109   0.00108   1.91096
   A11        1.90979  -0.00008   0.00000   0.00120   0.00120   1.91099
   A12        1.88377   0.00059   0.00000   0.00721   0.00720   1.89097
   A13        2.00828  -0.00073   0.00000  -0.00293  -0.00293   2.00535
    D1       -1.04994  -0.00008   0.00000  -0.00128  -0.00128  -1.05122
    D2        2.09072  -0.00008   0.00000  -0.00099  -0.00099   2.08973
    D3       -3.14056   0.00001   0.00000  -0.00012  -0.00012  -3.14068
    D4        0.00009   0.00001   0.00000   0.00018   0.00018   0.00027
    D5        1.05242   0.00007   0.00000   0.00073   0.00073   1.05315
    D6       -2.09012   0.00007   0.00000   0.00102   0.00102  -2.08909
    D7        1.02830   0.00031   0.00000   0.00575   0.00576   1.03406
    D8       -1.03240  -0.00029   0.00000  -0.00433  -0.00434  -1.03674
    D9       -2.11244   0.00031   0.00000   0.00549   0.00549  -2.10695
   D10        2.11004  -0.00030   0.00000  -0.00460  -0.00460   2.10544
   D11        0.00106  -0.00002   0.00000  -0.00084  -0.00084   0.00022
   D12       -3.14141  -0.00001   0.00000  -0.00057  -0.00057   3.14121
         Item               Value     Threshold  Converged?
 Maximum Force            0.010278     0.000450     NO 
 RMS     Force            0.001981     0.000300     NO 
 Maximum Displacement     0.010628     0.001800     NO 
 RMS     Displacement     0.004081     0.001200     NO 
 Predicted change in Energy=-8.721414D-05
 Lowest energy point so far.  Saving SCF results.
 GradGradGradGradGradGradGradGradGradGradGradGradGradGradGradGradGradGrad

 Leave Link  103 at Thu Sep  8 15:05:34 2022, MaxMem= 24159191040 cpu:         1.8
 (Enter /public/home/users/caep010/software/Gaussian09/g09/l202.exe)
                          Input orientation:                          
 ---------------------------------------------------------------------
 Center     Atomic      Atomic             Coordinates (Angstroms)
 Number     Number       Type             X           Y           Z
 ---------------------------------------------------------------------
      1          6           0       -0.853643   -0.584049   -0.047695
      2          7           0        0.235455    0.376567    0.057417
      3          7           0        1.552616    0.038662   -0.251762
      4          7           0        0.071549    1.655956    0.455106
      5          8           0       -1.079251    1.966565    0.729251
      6          1           0       -0.945183   -0.946239   -1.078027
      7          1           0       -1.768598   -0.070144    0.247292
      8          1           0       -0.675323   -1.437817    0.615970
      9          1           0        1.605276   -0.272624   -1.220575
     10          1           0        1.857000   -0.726778    0.348023
 ---------------------------------------------------------------------
                    Distance matrix (angstroms):
                    1          2          3          4          5
     1  C    0.000000
     2  N    1.456011   0.000000
     3  N    2.493892   1.394520   0.000000
     4  N    2.475159   1.349762   2.304096   0.000000
     5  O    2.675851   2.169771   3.406747   1.223101   0.000000
     6  H    1.095968   2.105459   2.809226   3.186794   3.430547
     7  H    1.090073   2.061998   3.360262   2.531551   2.203558
     8  H    1.095979   2.105585   2.810100   3.186711   3.430132
     9  H    2.742065   1.982706   1.018956   2.979873   4.002808
    10  H    2.743092   1.982733   1.018965   2.979383   4.002624
                    6          7          8          9         10
     6  H    0.000000
     7  H    1.789420   0.000000
     8  H    1.784405   1.789331   0.000000
     9  H    2.641765   3.684924   3.151461   0.000000
    10  H    3.151827   3.685957   2.643867   1.652308   0.000000
 Stoichiometry    CH5N3O
 Framework group  C1[X(CH5N3O)]
 Deg. of freedom    24
 Full point group                 C1      NOp   1
 RotChk:  IX=0 Diff= 3.47D-03
 Largest Abelian subgroup         C1      NOp   1
 Largest concise Abelian subgroup C1      NOp   1
                         Standard orientation:                         
 ---------------------------------------------------------------------
 Center     Atomic      Atomic             Coordinates (Angstroms)
 Number     Number       Type             X           Y           Z
 ---------------------------------------------------------------------
      1          6           0       -0.368680    1.402098    0.000032
      2          7           0       -0.335794   -0.053542    0.000197
      3          7           0       -1.500774   -0.820032   -0.000194
      4          7           0        0.802942   -0.778203    0.000006
      5          8           0        1.832998   -0.118688   -0.000081
      6          1           0       -0.886886    1.772199   -0.891950
      7          1           0        0.664533    1.749561   -0.000540
      8          1           0       -0.885866    1.772598    0.892454
      9          1           0       -2.054416   -0.596649   -0.825937
     10          1           0       -2.053891   -0.598348    0.826370
 ---------------------------------------------------------------------
 Rotational constants (GHZ):      9.2479261      4.5662101      3.1711981
 Leave Link  202 at Thu Sep  8 15:05:35 2022, MaxMem= 24159191040 cpu:         0.4
 (Enter /public/home/users/caep010/software/Gaussian09/g09/l301.exe)
 Standard basis: 6-31G(d,p) (6D, 7F)
 Ernie: Thresh=  0.10000D-02 Tol=  0.10000D-05 Strict=F.
 There are   100 symmetry adapted cartesian basis functions of A   symmetry.
 There are   100 symmetry adapted basis functions of A   symmetry.
   100 basis functions,   175 primitive gaussians,   100 cartesian basis functions
    20 alpha electrons       20 beta electrons
       nuclear repulsion energy       184.3857630944 Hartrees.
 IExCor=  402 DFT=T Ex+Corr=B3LYP ExCW=0 ScaHFX=  0.200000
 ScaDFX=  0.800000  0.720000  1.000000  0.810000 ScalE2=  1.000000  1.000000
 IRadAn=      0 IRanWt=     -1 IRanGd=            0 ICorTp=0 IEmpDi=  4
 NAtoms=   10 NActive=   10 NUniq=   10 SFac= 1.00D+00 NAtFMM=   60 NAOKFM=F Big=F
 Integral buffers will be    131072 words long.
 Raffenetti 2 integral format.
 Two-electron integral symmetry is turned on.
 Leave Link  301 at Thu Sep  8 15:05:35 2022, MaxMem= 24159191040 cpu:         1.9
 (Enter /public/home/users/caep010/software/Gaussian09/g09/l302.exe)
 NPDir=0 NMtPBC=     1 NCelOv=     1 NCel=       1 NClECP=     1 NCelD=      1
         NCelK=      1 NCelE2=     1 NClLst=     1 CellRange=     0.0.
 One-electron integrals computed using PRISM.
 NBasis=   100 RedAO= T EigKep=  3.67D-03  NBF=   100
 NBsUse=   100 1.00D-06 EigRej= -1.00D+00 NBFU=   100
 Precomputing XC quadrature grid using
 IXCGrd= 4 IRadAn=           0 IRanWt=          -1 IRanGd=           0 AccXCQ= 0.00D+00.
 Generated NRdTot=       0 NPtTot=           0 NUsed=           0 NTot=          32
 NSgBfM=   100   100   100   100   100 MxSgAt=    10 MxSgA2=    10.
 Leave Link  302 at Thu Sep  8 15:05:35 2022, MaxMem= 24159191040 cpu:        10.8
 (Enter /public/home/users/caep010/software/Gaussian09/g09/l303.exe)
 DipDrv:  MaxL=1.
 Leave Link  303 at Thu Sep  8 15:05:35 2022, MaxMem= 24159191040 cpu:         0.6
 (Enter /public/home/users/caep010/software/Gaussian09/g09/l401.exe)
 Initial guess from the checkpoint file:  "B3LYP6-31Gdp.Frag_990.chk"
 B after Tr=     0.000000   -0.000000    0.000000
         Rot=    0.999999    0.000024    0.000017    0.001110 Ang=   0.13 deg.
 Guess basis will be translated and rotated to current coordinates.
 JPrj=2 DoOrth=T DoCkMO=T.
 Leave Link  401 at Thu Sep  8 15:05:35 2022, MaxMem= 24159191040 cpu:         3.0
 (Enter /public/home/users/caep010/software/Gaussian09/g09/l502.exe)
 Closed shell SCF:
 Using DIIS extrapolation, IDIIS=  1040.
 Integral symmetry usage will be decided dynamically.
 Keep R1 ints in memory in canonical form, NReq=13729312.
 IVT=       52505 IEndB=       52505 NGot= 24159191040 MDV= 24146384761
 LenX= 24146384761 LenY= 24146374320
 Requested convergence on RMS density matrix=1.00D-08 within 128 cycles.
 Requested convergence on MAX density matrix=1.00D-06.
 Requested convergence on             energy=1.00D-06.
 No special actions if energy rises.
 FoFCou: FMM=F IPFlag=           0 FMFlag=           0 FMFlg1=           0
         NFxFlg=           0 DoJE=F BraDBF=F KetDBF=F FulRan=T
         wScrn=  0.000000 ICntrl=     600 IOpCl=  0 I1Cent=           0 NGrid=           0
         NMat0=    1 NMatS0=   5050 NMatT0=    0 NMatD0=    1 NMtDS0=    0 NMtDT0=    0
 Symmetry not used in FoFCou.

 Cycle   1  Pass 1  IDiag  1:
 E= -280.484571868791    
 DIIS: error= 4.61D-04 at cycle   1 NSaved=   1.
 NSaved= 1 IEnMin= 1 EnMin= -280.484571868791     IErMin= 1 ErrMin= 4.61D-04
 ErrMax= 4.61D-04  0.00D+00 EMaxC= 1.00D-01 BMatC= 2.99D-05 BMatP= 2.99D-05
 IDIUse=3 WtCom= 9.95D-01 WtEn= 4.61D-03
 Coeff-Com:  0.100D+01
 Coeff-En:   0.100D+01
 Coeff:      0.100D+01
 Gap=     1.989 Goal=   None    Shift=    0.000
 RMSDP=8.40D-05 MaxDP=1.41D-03              OVMax= 1.59D-03

 Cycle   2  Pass 1  IDiag  1:
 E= -280.484610145268     Delta-E=       -0.000038276477 Rises=F Damp=F
 DIIS: error= 7.85D-05 at cycle   2 NSaved=   2.
 NSaved= 2 IEnMin= 2 EnMin= -280.484610145268     IErMin= 2 ErrMin= 7.85D-05
 ErrMax= 7.85D-05  0.00D+00 EMaxC= 1.00D-01 BMatC= 1.89D-06 BMatP= 2.99D-05
 IDIUse=1 WtCom= 1.00D+00 WtEn= 0.00D+00
 Coeff-Com:  0.767D-01 0.923D+00
 Coeff:      0.767D-01 0.923D+00
 Gap=     0.193 Goal=   None    Shift=    0.000
 RMSDP=3.17D-05 MaxDP=7.57D-04 DE=-3.83D-05 OVMax= 1.12D-03

 Cycle   3  Pass 1  IDiag  1:
 E= -280.484608051383     Delta-E=        0.000002093885 Rises=F Damp=F
 DIIS: error= 1.94D-04 at cycle   3 NSaved=   3.
 NSaved= 3 IEnMin= 2 EnMin= -280.484610145268     IErMin= 2 ErrMin= 7.85D-05
 ErrMax= 1.94D-04  0.00D+00 EMaxC= 1.00D-01 BMatC= 4.62D-06 BMatP= 1.89D-06
 IDIUse=3 WtCom= 4.18D-01 WtEn= 5.82D-01
 Coeff-Com: -0.288D-03 0.622D+00 0.378D+00
 Coeff-En:   0.000D+00 0.670D+00 0.330D+00
 Coeff:     -0.120D-03 0.650D+00 0.350D+00
 Gap=     0.193 Goal=   None    Shift=    0.000
 RMSDP=2.07D-05 MaxDP=5.15D-04 DE= 2.09D-06 OVMax= 1.00D-03

 Cycle   4  Pass 1  IDiag  1:
 E= -280.484611599460     Delta-E=       -0.000003548077 Rises=F Damp=F
 DIIS: error= 6.52D-05 at cycle   4 NSaved=   4.
 NSaved= 4 IEnMin= 4 EnMin= -280.484611599460     IErMin= 4 ErrMin= 6.52D-05
 ErrMax= 6.52D-05  0.00D+00 EMaxC= 1.00D-01 BMatC= 3.85D-07 BMatP= 1.89D-06
 IDIUse=1 WtCom= 1.00D+00 WtEn= 0.00D+00
 Coeff-Com: -0.177D-01 0.295D+00 0.233D+00 0.490D+00
 Coeff:     -0.177D-01 0.295D+00 0.233D+00 0.490D+00
 Gap=     0.193 Goal=   None    Shift=    0.000
 RMSDP=6.73D-06 MaxDP=1.73D-04 DE=-3.55D-06 OVMax= 2.63D-04

 Cycle   5  Pass 1  IDiag  1:
 E= -280.484611892714     Delta-E=       -0.000000293254 Rises=F Damp=F
 DIIS: error= 7.71D-06 at cycle   5 NSaved=   5.
 NSaved= 5 IEnMin= 5 EnMin= -280.484611892714     IErMin= 5 ErrMin= 7.71D-06
 ErrMax= 7.71D-06  0.00D+00 EMaxC= 1.00D-01 BMatC= 6.96D-09 BMatP= 3.85D-07
 IDIUse=1 WtCom= 1.00D+00 WtEn= 0.00D+00
 Coeff-Com: -0.504D-02 0.606D-01 0.569D-01 0.183D+00 0.704D+00
 Coeff:     -0.504D-02 0.606D-01 0.569D-01 0.183D+00 0.704D+00
 Gap=     0.193 Goal=   None    Shift=    0.000
 RMSDP=1.29D-06 MaxDP=2.22D-05 DE=-2.93D-07 OVMax= 4.04D-05

 Cycle   6  Pass 1  IDiag  1:
 E= -280.484611899030     Delta-E=       -0.000000006317 Rises=F Damp=F
 DIIS: error= 1.78D-06 at cycle   6 NSaved=   6.
 NSaved= 6 IEnMin= 6 EnMin= -280.484611899030     IErMin= 6 ErrMin= 1.78D-06
 ErrMax= 1.78D-06  0.00D+00 EMaxC= 1.00D-01 BMatC= 7.51D-10 BMatP= 6.96D-09
 IDIUse=1 WtCom= 1.00D+00 WtEn= 0.00D+00
 Coeff-Com: -0.107D-02 0.831D-02 0.123D-01 0.489D-01 0.329D+00 0.602D+00
 Coeff:     -0.107D-02 0.831D-02 0.123D-01 0.489D-01 0.329D+00 0.602D+00
 Gap=     0.193 Goal=   None    Shift=    0.000
 RMSDP=2.50D-07 MaxDP=5.01D-06 DE=-6.32D-09 OVMax= 5.51D-06

 Cycle   7  Pass 1  IDiag  1:
 E= -280.484611899574     Delta-E=       -0.000000000544 Rises=F Damp=F
 DIIS: error= 7.04D-07 at cycle   7 NSaved=   7.
 NSaved= 7 IEnMin= 7 EnMin= -280.484611899574     IErMin= 7 ErrMin= 7.04D-07
 ErrMax= 7.04D-07  0.00D+00 EMaxC= 1.00D-01 BMatC= 1.03D-10 BMatP= 7.51D-10
 IDIUse=1 WtCom= 1.00D+00 WtEn= 0.00D+00
 Coeff-Com: -0.184D-03-0.566D-03 0.230D-02 0.862D-02 0.113D+00 0.318D+00
 Coeff-Com:  0.559D+00
 Coeff:     -0.184D-03-0.566D-03 0.230D-02 0.862D-02 0.113D+00 0.318D+00
 Coeff:      0.559D+00
 Gap=     0.193 Goal=   None    Shift=    0.000
 RMSDP=1.18D-07 MaxDP=2.52D-06 DE=-5.44D-10 OVMax= 3.65D-06

 Cycle   8  Pass 1  IDiag  1:
 E= -280.484611899657     Delta-E=       -0.000000000083 Rises=F Damp=F
 DIIS: error= 2.86D-07 at cycle   8 NSaved=   8.
 NSaved= 8 IEnMin= 8 EnMin= -280.484611899657     IErMin= 8 ErrMin= 2.86D-07
 ErrMax= 2.86D-07  0.00D+00 EMaxC= 1.00D-01 BMatC= 1.22D-11 BMatP= 1.03D-10
 IDIUse=1 WtCom= 1.00D+00 WtEn= 0.00D+00
 Coeff-Com:  0.238D-04-0.150D-02-0.151D-04-0.296D-03 0.384D-01 0.128D+00
 Coeff-Com:  0.316D+00 0.519D+00
 Coeff:      0.238D-04-0.150D-02-0.151D-04-0.296D-03 0.384D-01 0.128D+00
 Coeff:      0.316D+00 0.519D+00
 Gap=     0.193 Goal=   None    Shift=    0.000
 RMSDP=3.14D-08 MaxDP=7.26D-07 DE=-8.32D-11 OVMax= 9.48D-07

 Cycle   9  Pass 1  IDiag  1:
 E= -280.484611899663     Delta-E=       -0.000000000005 Rises=F Damp=F
 DIIS: error= 6.59D-08 at cycle   9 NSaved=   9.
 NSaved= 9 IEnMin= 9 EnMin= -280.484611899663     IErMin= 9 ErrMin= 6.59D-08
 ErrMax= 6.59D-08  0.00D+00 EMaxC= 1.00D-01 BMatC= 9.10D-13 BMatP= 1.22D-11
 IDIUse=1 WtCom= 1.00D+00 WtEn= 0.00D+00
 Coeff-Com:  0.274D-04-0.439D-03-0.222D-03-0.156D-02-0.109D-02 0.235D-02
 Coeff-Com:  0.413D-01 0.225D+00 0.734D+00
 Coeff:      0.274D-04-0.439D-03-0.222D-03-0.156D-02-0.109D-02 0.235D-02
 Coeff:      0.413D-01 0.225D+00 0.734D+00
 Gap=     0.193 Goal=   None    Shift=    0.000
 RMSDP=1.46D-08 MaxDP=2.52D-07 DE=-5.34D-12 OVMax= 5.80D-07

 Cycle  10  Pass 1  IDiag  1:
 E= -280.484611899665     Delta-E=       -0.000000000003 Rises=F Damp=F
 DIIS: error= 2.67D-08 at cycle  10 NSaved=  10.
 NSaved=10 IEnMin=10 EnMin= -280.484611899665     IErMin=10 ErrMin= 2.67D-08
 ErrMax= 2.67D-08  0.00D+00 EMaxC= 1.00D-01 BMatC= 6.49D-14 BMatP= 9.10D-13
 IDIUse=1 WtCom= 1.00D+00 WtEn= 0.00D+00
 Coeff-Com:  0.112D-04-0.933D-04-0.100D-03-0.639D-03-0.316D-02-0.807D-02
 Coeff-Com: -0.657D-02 0.485D-01 0.302D+00 0.668D+00
 Coeff:      0.112D-04-0.933D-04-0.100D-03-0.639D-03-0.316D-02-0.807D-02
 Coeff:     -0.657D-02 0.485D-01 0.302D+00 0.668D+00
 Gap=     0.193 Goal=   None    Shift=    0.000
 RMSDP=3.69D-09 MaxDP=6.48D-08 DE=-2.79D-12 OVMax= 1.83D-07

 SCF Done:  E(RB3LYP) =  -280.484611900     A.U. after   10 cycles
            NFock= 10  Conv=0.37D-08     -V/T= 2.0091
 KE= 2.779678831824D+02 PE=-1.024370233098D+03 EE= 2.815319749214D+02
 Leave Link  502 at Thu Sep  8 15:05:36 2022, MaxMem= 24159191040 cpu:        27.5
 (Enter /public/home/users/caep010/software/Gaussian09/g09/l701.exe)
 Compute integral first derivatives.
 ... and contract with generalized density number  0.
 Leave Link  701 at Thu Sep  8 15:05:37 2022, MaxMem= 24159191040 cpu:        10.3
 (Enter /public/home/users/caep010/software/Gaussian09/g09/l702.exe)
 L702 exits ... SP integral derivatives will be done elsewhere.
 Leave Link  702 at Thu Sep  8 15:05:37 2022, MaxMem= 24159191040 cpu:         0.5
 (Enter /public/home/users/caep010/software/Gaussian09/g09/l703.exe)
 Compute integral first derivatives, UseDBF=F ICtDFT=           0.
 Integral derivatives from FoFJK, PRISM(SPDF).
 Calling FoFJK, ICntrl=      2127 FMM=F ISym2X=0 I1Cent= 0 IOpClX= 0 NMat=1 NMatS=1 NMatT=0.
 FoFJK:  IHMeth= 1 ICntrl=    2127 DoSepK=F KAlg= 0 I1Cent=   0 FoldK=F
 IRaf=         0 NMat=   1 IRICut=       1 DoRegI=T DoRafI=F ISym2E= 0.
 FoFCou: FMM=F IPFlag=           0 FMFlag=      100000 FMFlg1=         800
         NFxFlg=           0 DoJE=F BraDBF=F KetDBF=F FulRan=T
         wScrn=  0.000000 ICntrl=    2127 IOpCl=  0 I1Cent=           0 NGrid=           0
         NMat0=    1 NMatS0=      1 NMatT0=    0 NMatD0=    1 NMtDS0=    0 NMtDT0=    0
 Symmetry not used in FoFCou.
 Leave Link  703 at Thu Sep  8 15:05:37 2022, MaxMem= 24159191040 cpu:         9.1
 (Enter /public/home/users/caep010/software/Gaussian09/g09/l716.exe)
 Dipole        =-1.65250602D+00 9.90083294D-01 5.16989794D-04
 ***** Axes restored to original set *****
 -------------------------------------------------------------------
 Center     Atomic                   Forces (Hartrees/Bohr)
 Number     Number              X              Y              Z
 -------------------------------------------------------------------
      1        6          -0.000258288   -0.000171681    0.000001733
      2        7          -0.000085482   -0.000792577   -0.000221221
      3        7           0.000133194   -0.000168890   -0.000044772
      4        7           0.001915247    0.000333452   -0.000231179
      5        8          -0.001537955    0.000085200    0.000283717
      6        1           0.000058490    0.000101356    0.000011298
      7        1           0.000051277    0.000033979   -0.000004751
      8        1           0.000074748    0.000101976    0.000020990
      9        1          -0.000156610    0.000212231    0.000201021
     10        1          -0.000194620    0.000264952   -0.000016837
 -------------------------------------------------------------------
 Cartesian Forces:  Max     0.001915247 RMS     0.000495552
 Leave Link  716 at Thu Sep  8 15:05:37 2022, MaxMem= 24159191040 cpu:         0.5
 (Enter /public/home/users/caep010/software/Gaussian09/g09/l103.exe)

 GradGradGradGradGradGradGradGradGradGradGradGradGradGradGradGradGradGrad
 Berny optimization.
 Using GEDIIS/GDIIS optimizer.
 FormGI is forming the generalized inverse of G from B-inverse, IUseBI=4.
 Internal  Forces:  Max     0.001535615 RMS     0.000326883
 Search for a local minimum.
 Step number   2 out of a maximum of   44
 All quantities printed in internal units (Hartrees-Bohrs-Radians)
 RMS Force = .32688D-03 SwitMx=.10000D-02 MixMth= 2
 Mixed Optimization -- En-DIIS/RFO-DIIS
 Update second derivatives using D2CorX and points    1    2
 DE= -9.68D-05 DEPred=-8.72D-05 R= 1.11D+00
 TightC=F SS=  1.41D+00  RLast= 1.99D-02 DXNew= 5.0454D-01 5.9559D-02
 Trust test= 1.11D+00 RLast= 1.99D-02 DXMaxT set to 3.00D-01
 ITU=  1  0
 Use linear search instead of GDIIS.
     Eigenvalues ---    0.00977   0.01264   0.01394   0.02014   0.05976
     Eigenvalues ---    0.07512   0.07828   0.15759   0.16000   0.16000
     Eigenvalues ---    0.16000   0.16070   0.24153   0.25000   0.25156
     Eigenvalues ---    0.34138   0.34146   0.34803   0.37839   0.44701
     Eigenvalues ---    0.45202   0.47980   0.55688   0.86193
 RFO step:  Lambda=-6.44635486D-06 EMin= 9.77201312D-03
 Quartic linear search produced a step of  0.12768.
 Iteration  1 RMS(Cart)=  0.00127101 RMS(Int)=  0.00000179
 Iteration  2 RMS(Cart)=  0.00000215 RMS(Int)=  0.00000048
 Iteration  3 RMS(Cart)=  0.00000000 RMS(Int)=  0.00000048
 ITry= 1 IFail=0 DXMaxC= 5.18D-03 DCOld= 1.00D+10 DXMaxT= 3.00D-01 DXLimC= 3.00D+00 Rises=F
 Variable       Old X    -DE/DX   Delta X   Delta X   Delta X     New X
                                 (Linear)    (Quad)   (Total)
    R1        2.75146   0.00001   0.00048  -0.00030   0.00018   2.75164
    R2        2.07108  -0.00005   0.00002  -0.00018  -0.00015   2.07093
    R3        2.05994  -0.00003  -0.00000  -0.00010  -0.00010   2.05984
    R4        2.07110  -0.00005   0.00001  -0.00019  -0.00017   2.07093
    R5        2.63526  -0.00031   0.00049  -0.00109  -0.00061   2.63465
    R6        2.55068   0.00037   0.00099   0.00004   0.00103   2.55171
    R7        1.92555  -0.00027   0.00031  -0.00089  -0.00058   1.92497
    R8        1.92557  -0.00027   0.00029  -0.00088  -0.00059   1.92497
    R9        2.31133   0.00154   0.00136   0.00083   0.00219   2.31352
    A1        1.92664  -0.00011   0.00009  -0.00084  -0.00075   1.92589
    A2        1.87262  -0.00003   0.00004  -0.00030  -0.00026   1.87236
    A3        1.92680  -0.00013   0.00012  -0.00098  -0.00087   1.92594
    A4        1.91782   0.00006  -0.00018   0.00055   0.00036   1.91818
    A5        1.90226   0.00013   0.00010   0.00091   0.00101   1.90328
    A6        1.91766   0.00008  -0.00016   0.00064   0.00048   1.91814
    A7        2.13015   0.00022   0.00001   0.00100   0.00101   2.13116
    A8        2.16012   0.00005  -0.00018   0.00035   0.00017   2.16029
    A9        1.99292  -0.00027   0.00017  -0.00135  -0.00118   1.99174
   A10        1.91096  -0.00021   0.00014  -0.00150  -0.00137   1.90959
   A11        1.91099  -0.00021   0.00015  -0.00150  -0.00135   1.90964
   A12        1.89097   0.00022   0.00092   0.00106   0.00197   1.89294
   A13        2.00535  -0.00076  -0.00037  -0.00315  -0.00353   2.00182
    D1       -1.05122  -0.00001  -0.00016  -0.00022  -0.00039  -1.05161
    D2        2.08973  -0.00000  -0.00013   0.00006  -0.00006   2.08966
    D3       -3.14068  -0.00000  -0.00001  -0.00023  -0.00024  -3.14092
    D4        0.00027   0.00000   0.00002   0.00006   0.00008   0.00035
    D5        1.05315   0.00000   0.00009  -0.00027  -0.00017   1.05297
    D6       -2.08909   0.00000   0.00013   0.00002   0.00015  -2.08894
    D7        1.03406   0.00002   0.00074   0.00036   0.00109   1.03515
    D8       -1.03674  -0.00000  -0.00055   0.00086   0.00031  -1.03643
    D9       -2.10695   0.00001   0.00070   0.00010   0.00080  -2.10615
   D10        2.10544  -0.00000  -0.00059   0.00060   0.00001   2.10546
   D11        0.00022   0.00001  -0.00011   0.00065   0.00055   0.00076
   D12        3.14121   0.00001  -0.00007   0.00092   0.00085  -3.14113
         Item               Value     Threshold  Converged?
 Maximum Force            0.001536     0.000450     NO 
 RMS     Force            0.000327     0.000300     NO 
 Maximum Displacement     0.005185     0.001800     NO 
 RMS     Displacement     0.001272     0.001200     NO 
 Predicted change in Energy=-4.463740D-06
 Lowest energy point so far.  Saving SCF results.
 GradGradGradGradGradGradGradGradGradGradGradGradGradGradGradGradGradGrad

 Leave Link  103 at Thu Sep  8 15:05:37 2022, MaxMem= 24159191040 cpu:         0.8
 (Enter /public/home/users/caep010/software/Gaussian09/g09/l202.exe)
                          Input orientation:                          
 ---------------------------------------------------------------------
 Center     Atomic      Atomic             Coordinates (Angstroms)
 Number     Number       Type             X           Y           Z
 ---------------------------------------------------------------------
      1          6           0       -0.853900   -0.584013   -0.047653
      2          7           0        0.235858    0.376046    0.056991
      3          7           0        1.552908    0.038590   -0.251705
      4          7           0        0.072964    1.656164    0.454594
      5          8           0       -1.079824    1.963821    0.728898
      6          1           0       -0.945320   -0.945809   -1.078049
      7          1           0       -1.768300   -0.069275    0.247410
      8          1           0       -0.675187   -1.437213    0.616486
      9          1           0        1.604706   -0.271672   -1.220570
     10          1           0        1.855994   -0.726540    0.348600
 ---------------------------------------------------------------------
                    Distance matrix (angstroms):
                    1          2          3          4          5
     1  C    0.000000
     2  N    1.456104   0.000000
     3  N    2.494394   1.394199   0.000000
     4  N    2.475828   1.350306   2.303397   0.000000
     5  O    2.673113   2.168757   3.405785   1.224261   0.000000
     6  H    1.095887   2.104946   2.809454   3.186873   3.427695
     7  H    1.090021   2.061849   3.360235   2.531861   2.199843
     8  H    1.095888   2.104981   2.810010   3.186679   3.426865
     9  H    2.741903   1.981273   1.018649   2.978080   4.000569
    10  H    2.742418   1.981305   1.018651   2.977870   4.000212
                    6          7          8          9         10
     6  H    0.000000
     7  H    1.789539   0.000000
     8  H    1.784909   1.789517   0.000000
     9  H    2.641477   3.684169   3.151376   0.000000
    10  H    3.151312   3.684799   2.642668   1.652980   0.000000
 Stoichiometry    CH5N3O
 Framework group  C1[X(CH5N3O)]
 Deg. of freedom    24
 Full point group                 C1      NOp   1
 RotChk:  IX=0 Diff= 1.89D-03
 Largest Abelian subgroup         C1      NOp   1
 Largest concise Abelian subgroup C1      NOp   1
                         Standard orientation:                         
 ---------------------------------------------------------------------
 Center     Atomic      Atomic             Coordinates (Angstroms)
 Number     Number       Type             X           Y           Z
 ---------------------------------------------------------------------
      1          6           0       -0.366058    1.402541   -0.000024
      2          7           0       -0.336068   -0.053254    0.000017
      3          7           0       -1.501528   -0.818429    0.000024
      4          7           0        0.801559   -0.780666   -0.000313
      5          8           0        1.831689   -0.119117    0.000192
      6          1           0       -0.883619    1.772949   -0.892154
      7          1           0        0.667884    1.747663   -0.000724
      8          1           0       -0.882412    1.773074    0.892755
      9          1           0       -2.053647   -0.594345   -0.826171
     10          1           0       -2.053118   -0.595215    0.826810
 ---------------------------------------------------------------------
 Rotational constants (GHZ):      9.2435695      4.5706242      3.1728942
 Leave Link  202 at Thu Sep  8 15:05:37 2022, MaxMem= 24159191040 cpu:         0.2
 (Enter /public/home/users/caep010/software/Gaussian09/g09/l301.exe)
 Standard basis: 6-31G(d,p) (6D, 7F)
 Ernie: Thresh=  0.10000D-02 Tol=  0.10000D-05 Strict=F.
 There are   100 symmetry adapted cartesian basis functions of A   symmetry.
 There are   100 symmetry adapted basis functions of A   symmetry.
   100 basis functions,   175 primitive gaussians,   100 cartesian basis functions
    20 alpha electrons       20 beta electrons
       nuclear repulsion energy       184.3907977982 Hartrees.
 IExCor=  402 DFT=T Ex+Corr=B3LYP ExCW=0 ScaHFX=  0.200000
 ScaDFX=  0.800000  0.720000  1.000000  0.810000 ScalE2=  1.000000  1.000000
 IRadAn=      0 IRanWt=     -1 IRanGd=            0 ICorTp=0 IEmpDi=  4
 NAtoms=   10 NActive=   10 NUniq=   10 SFac= 1.00D+00 NAtFMM=   60 NAOKFM=F Big=F
 Integral buffers will be    131072 words long.
 Raffenetti 2 integral format.
 Two-electron integral symmetry is turned on.
 Leave Link  301 at Thu Sep  8 15:05:37 2022, MaxMem= 24159191040 cpu:         1.6
 (Enter /public/home/users/caep010/software/Gaussian09/g09/l302.exe)
 NPDir=0 NMtPBC=     1 NCelOv=     1 NCel=       1 NClECP=     1 NCelD=      1
         NCelK=      1 NCelE2=     1 NClLst=     1 CellRange=     0.0.
 One-electron integrals computed using PRISM.
 NBasis=   100 RedAO= T EigKep=  3.68D-03  NBF=   100
 NBsUse=   100 1.00D-06 EigRej= -1.00D+00 NBFU=   100
 Precomputing XC quadrature grid using
 IXCGrd= 4 IRadAn=           0 IRanWt=          -1 IRanGd=           0 AccXCQ= 0.00D+00.
 Generated NRdTot=       0 NPtTot=           0 NUsed=           0 NTot=          32
 NSgBfM=   100   100   100   100   100 MxSgAt=    10 MxSgA2=    10.
 Leave Link  302 at Thu Sep  8 15:05:38 2022, MaxMem= 24159191040 cpu:        11.4
 (Enter /public/home/users/caep010/software/Gaussian09/g09/l303.exe)
 DipDrv:  MaxL=1.
 Leave Link  303 at Thu Sep  8 15:05:38 2022, MaxMem= 24159191040 cpu:         0.6
 (Enter /public/home/users/caep010/software/Gaussian09/g09/l401.exe)
 Initial guess from the checkpoint file:  "B3LYP6-31Gdp.Frag_990.chk"
 B after Tr=     0.000000    0.000000    0.000000
         Rot=    1.000000    0.000013   -0.000003    0.000579 Ang=   0.07 deg.
 Guess basis will be translated and rotated to current coordinates.
 JPrj=2 DoOrth=T DoCkMO=T.
 Leave Link  401 at Thu Sep  8 15:05:38 2022, MaxMem= 24159191040 cpu:         2.6
 (Enter /public/home/users/caep010/software/Gaussian09/g09/l502.exe)
 Closed shell SCF:
 Using DIIS extrapolation, IDIIS=  1040.
 Integral symmetry usage will be decided dynamically.
 Keep R1 ints in memory in canonical form, NReq=13729312.
 IVT=       52505 IEndB=       52505 NGot= 24159191040 MDV= 24146384761
 LenX= 24146384761 LenY= 24146374320
 Requested convergence on RMS density matrix=1.00D-08 within 128 cycles.
 Requested convergence on MAX density matrix=1.00D-06.
 Requested convergence on             energy=1.00D-06.
 No special actions if energy rises.
 FoFCou: FMM=F IPFlag=           0 FMFlag=           0 FMFlg1=           0
         NFxFlg=           0 DoJE=F BraDBF=F KetDBF=F FulRan=T
         wScrn=  0.000000 ICntrl=     600 IOpCl=  0 I1Cent=           0 NGrid=           0
         NMat0=    1 NMatS0=   5050 NMatT0=    0 NMatD0=    1 NMtDS0=    0 NMtDT0=    0
 Symmetry not used in FoFCou.

 Cycle   1  Pass 1  IDiag  1:
 E= -280.484608170623    
 DIIS: error= 2.14D-04 at cycle   1 NSaved=   1.
 NSaved= 1 IEnMin= 1 EnMin= -280.484608170623     IErMin= 1 ErrMin= 2.14D-04
 ErrMax= 2.14D-04  0.00D+00 EMaxC= 1.00D-01 BMatC= 3.80D-06 BMatP= 3.80D-06
 IDIUse=3 WtCom= 9.98D-01 WtEn= 2.14D-03
 Coeff-Com:  0.100D+01
 Coeff-En:   0.100D+01
 Coeff:      0.100D+01
 Gap=     1.990 Goal=   None    Shift=    0.000
 RMSDP=3.63D-05 MaxDP=7.13D-04              OVMax= 8.44D-04

 Cycle   2  Pass 1  IDiag  1:
 E= -280.484614254095     Delta-E=       -0.000006083472 Rises=F Damp=F
 DIIS: error= 3.10D-05 at cycle   2 NSaved=   2.
 NSaved= 2 IEnMin= 2 EnMin= -280.484614254095     IErMin= 2 ErrMin= 3.10D-05
 ErrMax= 3.10D-05  0.00D+00 EMaxC= 1.00D-01 BMatC= 1.22D-07 BMatP= 3.80D-06
 IDIUse=1 WtCom= 1.00D+00 WtEn= 0.00D+00
 Coeff-Com: -0.123D-01 0.101D+01
 Coeff:     -0.123D-01 0.101D+01
 Gap=     0.193 Goal=   None    Shift=    0.000
 RMSDP=6.29D-06 MaxDP=1.56D-04 DE=-6.08D-06 OVMax= 1.60D-04

 Cycle   3  Pass 1  IDiag  1:
 E= -280.484614218009     Delta-E=        0.000000036087 Rises=F Damp=F
 DIIS: error= 4.13D-05 at cycle   3 NSaved=   3.
 NSaved= 3 IEnMin= 2 EnMin= -280.484614254095     IErMin= 2 ErrMin= 3.10D-05
 ErrMax= 4.13D-05  0.00D+00 EMaxC= 1.00D-01 BMatC= 1.96D-07 BMatP= 1.22D-07
 IDIUse=1 WtCom= 1.00D+00 WtEn= 0.00D+00
 Coeff-Com: -0.314D-01 0.588D+00 0.443D+00
 Coeff:     -0.314D-01 0.588D+00 0.443D+00
 Gap=     0.193 Goal=   None    Shift=    0.000
 RMSDP=3.84D-06 MaxDP=9.98D-05 DE= 3.61D-08 OVMax= 1.42D-04

 Cycle   4  Pass 1  IDiag  1:
 E= -280.484614362448     Delta-E=       -0.000000144439 Rises=F Damp=F
 DIIS: error= 9.06D-06 at cycle   4 NSaved=   4.
 NSaved= 4 IEnMin= 4 EnMin= -280.484614362448     IErMin= 4 ErrMin= 9.06D-06
 ErrMax= 9.06D-06  0.00D+00 EMaxC= 1.00D-01 BMatC= 1.34D-08 BMatP= 1.22D-07
 IDIUse=1 WtCom= 1.00D+00 WtEn= 0.00D+00
 Coeff-Com: -0.180D-01 0.250D+00 0.247D+00 0.520D+00
 Coeff:     -0.180D-01 0.250D+00 0.247D+00 0.520D+00
 Gap=     0.193 Goal=   None    Shift=    0.000
 RMSDP=1.65D-06 MaxDP=3.96D-05 DE=-1.44D-07 OVMax= 8.34D-05

 Cycle   5  Pass 1  IDiag  1:
 E= -280.484614367884     Delta-E=       -0.000000005436 Rises=F Damp=F
 DIIS: error= 7.33D-06 at cycle   5 NSaved=   5.
 NSaved= 5 IEnMin= 5 EnMin= -280.484614367884     IErMin= 5 ErrMin= 7.33D-06
 ErrMax= 7.33D-06  0.00D+00 EMaxC= 1.00D-01 BMatC= 6.49D-09 BMatP= 1.34D-08
 IDIUse=1 WtCom= 1.00D+00 WtEn= 0.00D+00
 Coeff-Com: -0.554D-02 0.636D-01 0.930D-01 0.418D+00 0.431D+00
 Coeff:     -0.554D-02 0.636D-01 0.930D-01 0.418D+00 0.431D+00
 Gap=     0.193 Goal=   None    Shift=    0.000
 RMSDP=7.95D-07 MaxDP=1.98D-05 DE=-5.44D-09 OVMax= 3.66D-05

 Cycle   6  Pass 1  IDiag  1:
 E= -280.484614373260     Delta-E=       -0.000000005376 Rises=F Damp=F
 DIIS: error= 1.58D-06 at cycle   6 NSaved=   6.
 NSaved= 6 IEnMin= 6 EnMin= -280.484614373260     IErMin= 6 ErrMin= 1.58D-06
 ErrMax= 1.58D-06  0.00D+00 EMaxC= 1.00D-01 BMatC= 1.96D-10 BMatP= 6.49D-09
 IDIUse=1 WtCom= 1.00D+00 WtEn= 0.00D+00
 Coeff-Com: -0.197D-02 0.199D-01 0.367D-01 0.211D+00 0.250D+00 0.484D+00
 Coeff:     -0.197D-02 0.199D-01 0.367D-01 0.211D+00 0.250D+00 0.484D+00
 Gap=     0.193 Goal=   None    Shift=    0.000
 RMSDP=1.22D-07 MaxDP=3.71D-06 DE=-5.38D-09 OVMax= 5.03D-06

 Cycle   7  Pass 1  IDiag  1:
 E= -280.484614373391     Delta-E=       -0.000000000131 Rises=F Damp=F
 DIIS: error= 4.35D-07 at cycle   7 NSaved=   7.
 NSaved= 7 IEnMin= 7 EnMin= -280.484614373391     IErMin= 7 ErrMin= 4.35D-07
 ErrMax= 4.35D-07  0.00D+00 EMaxC= 1.00D-01 BMatC= 2.51D-11 BMatP= 1.96D-10
 IDIUse=1 WtCom= 1.00D+00 WtEn= 0.00D+00
 Coeff-Com:  0.112D-03-0.414D-02-0.555D-03 0.285D-01 0.555D-01 0.280D+00
 Coeff-Com:  0.641D+00
 Coeff:      0.112D-03-0.414D-02-0.555D-03 0.285D-01 0.555D-01 0.280D+00
 Coeff:      0.641D+00
 Gap=     0.193 Goal=   None    Shift=    0.000
 RMSDP=4.63D-08 MaxDP=9.59D-07 DE=-1.31D-10 OVMax= 1.80D-06

 Cycle   8  Pass 1  IDiag  1:
 E= -280.484614373415     Delta-E=       -0.000000000024 Rises=F Damp=F
 DIIS: error= 3.59D-08 at cycle   8 NSaved=   8.
 NSaved= 8 IEnMin= 8 EnMin= -280.484614373415     IErMin= 8 ErrMin= 3.59D-08
 ErrMax= 3.59D-08  0.00D+00 EMaxC= 1.00D-01 BMatC= 3.06D-13 BMatP= 2.51D-11
 IDIUse=1 WtCom= 1.00D+00 WtEn= 0.00D+00
 Coeff-Com:  0.993D-04-0.144D-02-0.163D-02-0.671D-02-0.263D-02 0.694D-02
 Coeff-Com:  0.805D-01 0.925D+00
 Coeff:      0.993D-04-0.144D-02-0.163D-02-0.671D-02-0.263D-02 0.694D-02
 Coeff:      0.805D-01 0.925D+00
 Gap=     0.193 Goal=   None    Shift=    0.000
 RMSDP=1.62D-08 MaxDP=2.75D-07 DE=-2.40D-11 OVMax= 9.70D-07

 Cycle   9  Pass 1  IDiag  1:
 E= -280.484614373413     Delta-E=        0.000000000002 Rises=F Damp=F
 DIIS: error= 1.59D-08 at cycle   9 NSaved=   9.
 NSaved= 9 IEnMin= 8 EnMin= -280.484614373415     IErMin= 9 ErrMin= 1.59D-08
 ErrMax= 1.59D-08  0.00D+00 EMaxC= 1.00D-01 BMatC= 4.60D-14 BMatP= 3.06D-13
 IDIUse=1 WtCom= 1.00D+00 WtEn= 0.00D+00
 Coeff-Com:  0.253D-04-0.146D-03-0.464D-03-0.400D-02-0.520D-02-0.208D-01
 Coeff-Com: -0.287D-01 0.271D+00 0.788D+00
 Coeff:      0.253D-04-0.146D-03-0.464D-03-0.400D-02-0.520D-02-0.208D-01
 Coeff:     -0.287D-01 0.271D+00 0.788D+00
 Gap=     0.193 Goal=   None    Shift=    0.000
 RMSDP=4.67D-09 MaxDP=8.19D-08 DE= 1.93D-12 OVMax= 2.73D-07

 SCF Done:  E(RB3LYP) =  -280.484614373     A.U. after    9 cycles
            NFock=  9  Conv=0.47D-08     -V/T= 2.0091
 KE= 2.779669073148D+02 PE=-1.024382690088D+03 EE= 2.815403706018D+02
 Leave Link  502 at Thu Sep  8 15:05:39 2022, MaxMem= 24159191040 cpu:        25.5
 (Enter /public/home/users/caep010/software/Gaussian09/g09/l701.exe)
 Compute integral first derivatives.
 ... and contract with generalized density number  0.
 Leave Link  701 at Thu Sep  8 15:05:40 2022, MaxMem= 24159191040 cpu:        10.2
 (Enter /public/home/users/caep010/software/Gaussian09/g09/l702.exe)
 L702 exits ... SP integral derivatives will be done elsewhere.
 Leave Link  702 at Thu Sep  8 15:05:40 2022, MaxMem= 24159191040 cpu:         0.5
 (Enter /public/home/users/caep010/software/Gaussian09/g09/l703.exe)
 Compute integral first derivatives, UseDBF=F ICtDFT=           0.
 Integral derivatives from FoFJK, PRISM(SPDF).
 Calling FoFJK, ICntrl=      2127 FMM=F ISym2X=0 I1Cent= 0 IOpClX= 0 NMat=1 NMatS=1 NMatT=0.
 FoFJK:  IHMeth= 1 ICntrl=    2127 DoSepK=F KAlg= 0 I1Cent=   0 FoldK=F
 IRaf=         0 NMat=   1 IRICut=       1 DoRegI=T DoRafI=F ISym2E= 0.
 FoFCou: FMM=F IPFlag=           0 FMFlag=      100000 FMFlg1=         800
         NFxFlg=           0 DoJE=F BraDBF=F KetDBF=F FulRan=T
         wScrn=  0.000000 ICntrl=    2127 IOpCl=  0 I1Cent=           0 NGrid=           0
         NMat0=    1 NMatS0=      1 NMatT0=    0 NMatD0=    1 NMtDS0=    0 NMtDT0=    0
 Symmetry not used in FoFCou.
 Leave Link  703 at Thu Sep  8 15:05:40 2022, MaxMem= 24159191040 cpu:         9.0
 (Enter /public/home/users/caep010/software/Gaussian09/g09/l716.exe)
 Dipole        =-1.65125240D+00 9.91319926D-01 2.92136670D-04
 ***** Axes restored to original set *****
 -------------------------------------------------------------------
 Center     Atomic                   Forces (Hartrees/Bohr)
 Number     Number              X              Y              Z
 -------------------------------------------------------------------
      1        6          -0.000045187   -0.000007011    0.000017912
      2        7           0.000271768    0.000124922   -0.000020909
      3        7          -0.000026868   -0.000139998   -0.000048510
      4        7          -0.000434732   -0.000452066   -0.000029488
      5        8          -0.000028544    0.000510140    0.000130371
      6        1           0.000026976    0.000007484    0.000004319
      7        1           0.000045734   -0.000008507   -0.000005938
      8        1           0.000017034    0.000007661   -0.000006987
      9        1           0.000098764   -0.000034866    0.000027196
     10        1           0.000075055   -0.000007759   -0.000067966
 -------------------------------------------------------------------
 Cartesian Forces:  Max     0.000510140 RMS     0.000164589
 Leave Link  716 at Thu Sep  8 15:05:40 2022, MaxMem= 24159191040 cpu:         0.6
 (Enter /public/home/users/caep010/software/Gaussian09/g09/l103.exe)

 GradGradGradGradGradGradGradGradGradGradGradGradGradGradGradGradGradGrad
 Berny optimization.
 Using GEDIIS/GDIIS optimizer.
 FormGI is forming the generalized inverse of G from B-inverse, IUseBI=4.
 Internal  Forces:  Max     0.001134243 RMS     0.000207440
 Search for a local minimum.
 Step number   3 out of a maximum of   44
 All quantities printed in internal units (Hartrees-Bohrs-Radians)
 RMS Force = .20744D-03 SwitMx=.10000D-02 MixMth= 2
 Mixed Optimization -- En-DIIS/RFO-DIIS
 Swapping is turned off.
 Update second derivatives using D2CorX and points    1    2    3
 DE= -2.47D-06 DEPred=-4.46D-06 R= 5.54D-01
 TightC=F SS=  1.41D+00  RLast= 5.96D-03 DXNew= 5.0454D-01 1.7867D-02
 Trust test= 5.54D-01 RLast= 5.96D-03 DXMaxT set to 3.00D-01
 ITU=  1  1  0
     Eigenvalues ---    0.00977   0.01264   0.01392   0.02020   0.05857
     Eigenvalues ---    0.07527   0.07833   0.15259   0.16000   0.16000
     Eigenvalues ---    0.16005   0.16215   0.24583   0.25023   0.34070
     Eigenvalues ---    0.34141   0.34746   0.37716   0.41346   0.44030
     Eigenvalues ---    0.44704   0.50317   0.53113   0.73555
 En-DIIS/RFO-DIIS IScMMF=        0 using points:     3    2
 RFO step:  Lambda=-2.17428512D-06.
 NNeg= 0 NP= 2 Switch=  2.50D-03 Rises=F DC=  2.47D-06 SmlDif=  1.00D-05
 RMS Error=  0.3108353369D-03 NUsed= 2 EDIIS=F
 DidBck=T Rises=F RFO-DIIS coefs:    0.67702    0.32298
 Iteration  1 RMS(Cart)=  0.00103823 RMS(Int)=  0.00000128
 Iteration  2 RMS(Cart)=  0.00000120 RMS(Int)=  0.00000003
 Iteration  3 RMS(Cart)=  0.00000000 RMS(Int)=  0.00000003
 ITry= 1 IFail=0 DXMaxC= 5.32D-03 DCOld= 1.00D+10 DXMaxT= 3.00D-01 DXLimC= 3.00D+00 Rises=F
 Variable       Old X    -DE/DX   Delta X   Delta X   Delta X     New X
                                 (Linear)    (Quad)   (Total)
    R1        2.75164  -0.00003  -0.00006   0.00002  -0.00004   2.75160
    R2        2.07093  -0.00001   0.00005  -0.00010  -0.00005   2.07088
    R3        2.05984  -0.00005   0.00003  -0.00014  -0.00011   2.05973
    R4        2.07093  -0.00001   0.00006  -0.00010  -0.00005   2.07088
    R5        2.63465   0.00020   0.00020  -0.00003   0.00017   2.63482
    R6        2.55171   0.00014  -0.00033   0.00068   0.00035   2.55206
    R7        1.92497  -0.00001   0.00019  -0.00033  -0.00014   1.92482
    R8        1.92497  -0.00001   0.00019  -0.00034  -0.00015   1.92482
    R9        2.31352   0.00019  -0.00071   0.00124   0.00053   2.31405
    A1        1.92589  -0.00003   0.00024  -0.00056  -0.00031   1.92557
    A2        1.87236  -0.00000   0.00008  -0.00012  -0.00004   1.87232
    A3        1.92594  -0.00002   0.00028  -0.00056  -0.00028   1.92566
    A4        1.91818   0.00003  -0.00012   0.00034   0.00022   1.91840
    A5        1.90328   0.00001  -0.00033   0.00052   0.00020   1.90347
    A6        1.91814   0.00002  -0.00016   0.00037   0.00021   1.91836
    A7        2.13116  -0.00011  -0.00033   0.00023  -0.00010   2.13106
    A8        2.16029   0.00003  -0.00005   0.00017   0.00012   2.16041
    A9        1.99174   0.00008   0.00038  -0.00040  -0.00002   1.99172
   A10        1.90959   0.00015   0.00044   0.00005   0.00049   1.91008
   A11        1.90964   0.00014   0.00044  -0.00001   0.00043   1.91006
   A12        1.89294  -0.00010  -0.00064   0.00072   0.00008   1.89303
   A13        2.00182   0.00113   0.00114   0.00139   0.00252   2.00435
    D1       -1.05161   0.00001   0.00012  -0.00015  -0.00003  -1.05163
    D2        2.08966   0.00001   0.00002   0.00005   0.00007   2.08974
    D3       -3.14092  -0.00000   0.00008  -0.00017  -0.00009  -3.14101
    D4        0.00035  -0.00000  -0.00003   0.00003   0.00001   0.00036
    D5        1.05297  -0.00001   0.00006  -0.00022  -0.00017   1.05281
[...]
     23  0.983259D-02 -0.112427D-01  0.899556D-02 -0.915832D-02  0.235090D-03
     24  0.983142D-02 -0.112207D-01  0.896649D-02 -0.915871D-02  0.264084D-03
     25 -0.304383D-05  0.792513D-02 -0.112426D-01  0.000000D+00  0.112460D-01
     26 -0.421505D-05  0.794714D-02 -0.112716D-01  0.000000D+00  0.112750D-01
     27 -0.983295D-02 -0.172665D-02 -0.235186D-03  0.915822D-02 -0.899251D-02
     28 -0.983412D-02 -0.170465D-02 -0.264253D-03  0.915783D-02 -0.896352D-02
     29 -0.496283D-03  0.310501D-03 -0.783531D-04 -0.170444D-04  0.136410D-03
     30  0.493841D-03 -0.138867D-03 -0.136014D-03  0.153732D-04  0.779924D-04
     31 -0.495680D-03  0.290253D-03 -0.517956D-04 -0.159966D-04  0.110082D-03
     32  0.494443D-03 -0.159115D-03 -0.109456D-03  0.164211D-04  0.516640D-04
     33 -0.167581D-05 -0.472682D-02 -0.275004D-02  0.000000D+00  0.275249D-02
     34  0.000000D+00 -0.470744D-02 -0.277786D-02  0.000000D+00  0.277857D-02
               16            17            18            19            20 
     16  0.146404D+00
     17 -0.742074D-01  0.189715D+00
     18 -0.721965D-01 -0.115507D+00  0.187704D+00
     19 -0.343432D-02 -0.380488D-02  0.723936D-02  0.173959D+00
     20 -0.342943D-02 -0.380537D-02  0.723463D-02 -0.389942D-01  0.173963D+00
     21  0.453488D-02  0.411784D-02 -0.865272D-02 -0.555796D-01 -0.555813D-01
     22 -0.408965D-01  0.394584D-01  0.143813D-02  0.628418D-02  0.627934D-02
     23  0.193690D-02  0.734920D-03 -0.267192D-02 -0.805579D-03  0.318350D-03
     24  0.193536D-02  0.722820D-03 -0.265814D-02  0.287043D-03 -0.772970D-03
     25 -0.197855D-05  0.964048D-05 -0.775472D-05 -0.986160D-04  0.975241D-04
     26 -0.351173D-05 -0.245947D-05  0.601951D-05  0.994007D-03 -0.993796D-03
     27 -0.194440D-02 -0.711737D-03  0.265604D-02 -0.318938D-03  0.803543D-03
     28 -0.194594D-02 -0.723837D-03  0.266981D-02  0.773684D-03 -0.287777D-03
     29  0.709510D-03  0.245646D-03 -0.955060D-03  0.581723D-02  0.706690D-02
     30 -0.714005D-03 -0.225054D-03  0.939155D-03 -0.706739D-02 -0.581834D-02
     31  0.713992D-03  0.224772D-03 -0.938797D-03  0.482302D-02  0.806199D-02
     32 -0.709523D-03 -0.245929D-03  0.955419D-03 -0.806160D-02 -0.482325D-02
     33 -0.136725D-04  0.959100D-05  0.415886D-05 -0.410400D-02  0.410382D-02
     34  0.750394D-05  0.000000D+00 -0.660031D-05 -0.309077D-02  0.308983D-02
               21            22            23            24            25 
     21  0.648433D-01
     22 -0.580030D-02  0.606828D+00
     23  0.150616D-04  0.434113D-02  0.124728D-01
     24  0.143372D-04  0.434230D-02  0.118120D-01  0.120839D-01
     25  0.000000D+00  0.642503D-05 -0.532543D-02 -0.593878D-02  0.127826D-01
     26  0.000000D+00  0.759960D-05 -0.598623D-02 -0.566693D-02  0.121692D-01
     27 -0.143640D-04 -0.433027D-02 -0.514885D-02 -0.580907D-02 -0.532592D-02
     28 -0.150884D-04 -0.432910D-02 -0.580964D-02 -0.553722D-02 -0.593926D-02
     29  0.629442D-02  0.222146D-03 -0.565807D-03  0.662056D-04 -0.251690D-03
     30 -0.629411D-02 -0.214854D-03 -0.293465D-03  0.338651D-03 -0.251528D-03
     31  0.629390D-02  0.216479D-03  0.357944D-04 -0.181711D-03  0.306989D-03
     32 -0.629463D-02 -0.220521D-03  0.308136D-03  0.907348D-04  0.307152D-03
     33  0.000000D+00  0.180248D-04 -0.759509D-03 -0.248204D-03 -0.124682D-03
     34  0.000000D+00  0.143291D-04 -0.137245D-02  0.457175D-05 -0.694014D-03
               26            27            28            29            30 
     26  0.124885D-01
     27 -0.598614D-02  0.124718D-01
     28 -0.566684D-02  0.118116D-01  0.120840D-01
     29  0.380323D-03 -0.293542D-03  0.338470D-03  0.948652D-02
     30  0.380589D-03 -0.565167D-03  0.669495D-04 -0.585920D-02  0.948709D-02
     31  0.894845D-04  0.308136D-03  0.906308D-04  0.891072D-02 -0.643488D-02
     32  0.897501D-04  0.365115D-04 -0.180890D-03 -0.643499D-02  0.891141D-02
     33  0.386622D-03 -0.759692D-03 -0.248388D-03  0.139516D-02  0.139609D-02
     34  0.683006D-03 -0.137298D-02  0.404293D-05  0.198198D-02  0.198269D-02
               31            32            33            34 
     31  0.910874D-02
     32 -0.623686D-02  0.910954D-02
     33  0.929421D-03  0.930352D-03  0.212616D-01
     34  0.727682D-03  0.728391D-03  0.217362D-01  0.230144D-01
 Leave Link  716 at Thu Sep  8 15:05:53 2022, MaxMem= 24159191040 cpu:         1.1
 (Enter /public/home/users/caep010/software/Gaussian09/g09/l103.exe)

 GradGradGradGradGradGradGradGradGradGradGradGradGradGradGradGradGradGrad
 Berny optimization.
 Red2BG is reusing G-inverse.
 Internal  Forces:  Max     0.000048610 RMS     0.000012718
 Search for a local minimum.
 Step number   1 out of a maximum of    2
 All quantities printed in internal units (Hartrees-Bohrs-Radians)
 Second derivative matrix not updated -- analytic derivatives used.
 ITU=  0
     Eigenvalues ---    0.00092   0.00263   0.00544   0.03841   0.04283
     Eigenvalues ---    0.05927   0.06422   0.12543   0.14698   0.15334
     Eigenvalues ---    0.17229   0.21330   0.21594   0.25667   0.29616
     Eigenvalues ---    0.33215   0.33364   0.35398   0.35978   0.43001
     Eigenvalues ---    0.43819   0.45857   0.56829   0.83950
 Angle between quadratic step and forces=  78.39 degrees.
 Linear search not attempted -- first point.
 Iteration  1 RMS(Cart)=  0.00025330 RMS(Int)=  0.00000004
 Iteration  2 RMS(Cart)=  0.00000004 RMS(Int)=  0.00000000
 ITry= 1 IFail=0 DXMaxC= 6.75D-04 DCOld= 1.00D+10 DXMaxT= 3.00D-01 DXLimC= 3.00D+00 Rises=F
 Variable       Old X    -DE/DX   Delta X   Delta X   Delta X     New X
                                 (Linear)    (Quad)   (Total)
    R1        2.75158   0.00002   0.00000   0.00008   0.00008   2.75167
    R2        2.07090  -0.00000   0.00000  -0.00001  -0.00001   2.07089
    R3        2.05979   0.00000   0.00000  -0.00000  -0.00000   2.05979
    R4        2.07091  -0.00000   0.00000  -0.00001  -0.00001   2.07089
    R5        2.63488  -0.00005   0.00000  -0.00012  -0.00012   2.63476
    R6        2.55164  -0.00004   0.00000  -0.00013  -0.00013   2.55151
    R7        1.92490  -0.00001   0.00000  -0.00002  -0.00002   1.92488
    R8        1.92491  -0.00001   0.00000  -0.00002  -0.00002   1.92488
    R9        2.31357  -0.00002   0.00000  -0.00000  -0.00000   2.31356
    A1        1.92580   0.00000   0.00000   0.00002   0.00002   1.92582
    A2        1.87219  -0.00000   0.00000  -0.00000  -0.00000   1.87218
    A3        1.92588  -0.00000   0.00000  -0.00006  -0.00006   1.92582
    A4        1.91834  -0.00000   0.00000   0.00000   0.00000   1.91834
    A5        1.90330  -0.00000   0.00000  -0.00002  -0.00002   1.90328
    A6        1.91829   0.00000   0.00000   0.00006   0.00006   1.91834
    A7        2.13104  -0.00000   0.00000  -0.00002  -0.00002   2.13102
    A8        2.16019   0.00001   0.00000   0.00001   0.00001   2.16020
    A9        1.99196  -0.00001   0.00000   0.00000   0.00000   1.99196
   A10        1.91040  -0.00001   0.00000   0.00001   0.00001   1.91041
   A11        1.91040  -0.00001   0.00000   0.00001   0.00001   1.91041
   A12        1.89273   0.00001   0.00000   0.00011   0.00011   1.89284
   A13        2.00364   0.00001   0.00000   0.00005   0.00005   2.00369
    D1       -1.05171  -0.00000   0.00000  -0.00052  -0.00052  -1.05223
    D2        2.08969   0.00000   0.00000  -0.00033  -0.00033   2.08936
    D3       -3.14106  -0.00000   0.00000  -0.00054  -0.00054  -3.14159
    D4        0.00034   0.00000   0.00000  -0.00034  -0.00034  -0.00000
    D5        1.05280  -0.00000   0.00000  -0.00057  -0.00057   1.05223
    D6       -2.08899  -0.00000   0.00000  -0.00038  -0.00038  -2.08936
    D7        1.03574   0.00000   0.00000   0.00046   0.00046   1.03620
    D8       -1.03652   0.00000   0.00000   0.00031   0.00031  -1.03621
    D9       -2.10567   0.00000   0.00000   0.00028   0.00028  -2.10540
   D10        2.10525   0.00000   0.00000   0.00013   0.00013   2.10539
   D11        0.00012   0.00000   0.00000  -0.00012  -0.00012   0.00000
   D12        3.14153   0.00000   0.00000   0.00006   0.00006  -3.14159
         Item               Value     Threshold  Converged?
 Maximum Force            0.000049     0.000450     YES
 RMS     Force            0.000013     0.000300     YES
 Maximum Displacement     0.000675     0.001800     YES
 RMS     Displacement     0.000253     0.001200     YES
 Predicted change in Energy=-9.828726D-09
 Optimization completed.
    -- Stationary point found.
                           ----------------------------
                           !   Optimized Parameters   !
                           ! (Angstroms and Degrees)  !
 --------------------------                            --------------------------
 ! Name  Definition              Value          Derivative Info.                !
 --------------------------------------------------------------------------------
 ! R1    R(1,2)                  1.4561         -DE/DX =    0.0                 !
 ! R2    R(1,6)                  1.0959         -DE/DX =    0.0                 !
 ! R3    R(1,7)                  1.09           -DE/DX =    0.0                 !
 ! R4    R(1,8)                  1.0959         -DE/DX =    0.0                 !
 ! R5    R(2,3)                  1.3943         -DE/DX =    0.0                 !
 ! R6    R(2,4)                  1.3503         -DE/DX =    0.0                 !
 ! R7    R(3,9)                  1.0186         -DE/DX =    0.0                 !
 ! R8    R(3,10)                 1.0186         -DE/DX =    0.0                 !
 ! R9    R(4,5)                  1.2243         -DE/DX =    0.0                 !
 ! A1    A(2,1,6)              110.3402         -DE/DX =    0.0                 !
 ! A2    A(2,1,7)              107.2684         -DE/DX =    0.0                 !
 ! A3    A(2,1,8)              110.3445         -DE/DX =    0.0                 !
 ! A4    A(6,1,7)              109.9128         -DE/DX =    0.0                 !
 ! A5    A(6,1,8)              109.0508         -DE/DX =    0.0                 !
 ! A6    A(7,1,8)              109.9098         -DE/DX =    0.0                 !
 ! A7    A(1,2,3)              122.0994         -DE/DX =    0.0                 !
 ! A8    A(1,2,4)              123.7697         -DE/DX =    0.0                 !
 ! A9    A(3,2,4)              114.1309         -DE/DX =    0.0                 !
 ! A10   A(2,3,9)              109.458          -DE/DX =    0.0                 !
 ! A11   A(2,3,10)             109.4581         -DE/DX =    0.0                 !
 ! A12   A(9,3,10)             108.4452         -DE/DX =    0.0                 !
 ! A13   A(2,4,5)              114.8003         -DE/DX =    0.0                 !
 ! D1    D(6,1,2,3)            -60.2583         -DE/DX =    0.0                 !
 ! D2    D(6,1,2,4)            119.7305         -DE/DX =    0.0                 !
 ! D3    D(7,1,2,3)           -179.9692         -DE/DX =    0.0                 !
 ! D4    D(7,1,2,4)              0.0195         -DE/DX =    0.0                 !
 ! D5    D(8,1,2,3)             60.321          -DE/DX =    0.0                 !
 ! D6    D(8,1,2,4)           -119.6902         -DE/DX =    0.0                 !
 ! D7    D(1,2,3,9)             59.3435         -DE/DX =    0.0                 !
 ! D8    D(1,2,3,10)           -59.3881         -DE/DX =    0.0                 !
 ! D9    D(4,2,3,9)           -120.6462         -DE/DX =    0.0                 !
 ! D10   D(4,2,3,10)           120.6222         -DE/DX =    0.0                 !
 ! D11   D(1,2,4,5)              0.007          -DE/DX =    0.0                 !
 ! D12   D(3,2,4,5)           -180.0035         -DE/DX =    0.0                 !
 --------------------------------------------------------------------------------
 GradGradGradGradGradGradGradGradGradGradGradGradGradGradGradGradGradGrad

 Leave Link  103 at Thu Sep  8 15:05:53 2022, MaxMem= 24159191040 cpu:         0.9
 (Enter /public/home/users/caep010/software/Gaussian09/g09/l9999.exe)
 1\1\GINC-B1376\Freq\RB3LYP\6-31G(d,p)\C1H5N3O1\ROOT\08-Sep-2022\0\\#P 
 Geom=AllCheck Guess=TCheck SCRF=Check GenChk RB3LYP/6-31G(d,p) Freq\\F
 rag_990\\0,1\C,-0.8540619374,-0.5842785987,-0.0476439938\N,0.235586350
 8,0.3758576612,0.0570319018\N,1.5527364737,0.0383308576,-0.2516937334\
 N,0.0724600029,1.6558626267,0.4547751991\O,-1.0798418578,1.965533681,0
 .7289690103\H,-0.9454114088,-0.9459403962,-1.0780785153\H,-1.768370381
 9,-0.069515967,0.2475562849\H,-0.6751486444,-1.4375113109,0.6163805077
 \H,1.605427947,-0.2715272972,-1.2206047963\H,1.8565224559,-0.726712256
 4,0.3483091351\\Version=ES64L-G09RevE.01\State=1-A\HF=-280.4846155\RMS
 D=2.058e-09\RMSF=1.592e-05\ZeroPoint=0.0780874\Thermal=0.0839931\Dipol
 e=0.2861799,-1.817504,-0.5734509\DipoleDeriv=0.0164251,0.2694495,0.127
 3726,0.1213508,0.1771018,-0.0621598,0.0843522,-0.0857233,0.2858702,0.1
 627519,-0.0039847,-0.0594161,0.3202183,-0.7451459,-0.2089878,0.0346915
 ,-0.1572077,-0.2527897,-0.2697767,-0.2424591,-0.0240424,-0.2729055,-0.
 2582749,-0.0370551,-0.0328408,-0.0418964,0.012862,0.396982,-0.9436162,
 -0.3463358,-0.6140879,1.1462662,0.447072,-0.2506615,0.499793,0.1297842
 ,-0.7718292,0.9040035,0.3536081,0.1237362,-0.567523,-0.1259296,0.12708
 61,-0.2507592,-0.2950696,0.0717844,-0.0623119,0.0213798,-0.036915,-0.0
 089855,-0.0366363,-0.02409,-0.0749909,-0.1211766,-0.00045,-0.0212984,0
 .0089071,0.0678623,0.1216317,-0.0027862,0.0347858,0.011429,0.0918526,0
 .05076,0.0005241,-0.0828748,-0.0139057,-0.0957966,0.058031,-0.0342031,
 0.0981352,-0.0134108,0.1566209,0.0609348,-0.0751898,0.140739,0.1657962
 ,-0.1211872,0.0064951,-0.0574584,0.0456962,0.1867316,0.0387583,0.07659
 14,0.1639075,0.06493,0.0896391,0.0543846,0.0586786,0.1163814\Polar=39.
 559808,-6.7334342,43.2524928,-4.1128778,6.0680396,28.4847417\PG=C01 [X
 (C1H5N3O1)]\NImag=0\\0.50930950,-0.08373589,0.54908933,-0.01545860,0.0
 0880893,0.56985692,-0.14732327,-0.05267775,-0.00134317,0.63939188,-0.0
 2774223,-0.14322562,-0.01973562,-0.01553195,0.54224366,0.00590683,-0.0
 1574844,-0.06550772,-0.09201873,0.13321336,0.14551964,-0.03214942,0.01
 815000,0.00966804,-0.23966833,0.00518314,0.02887587,0.37777685,-0.0200
 8271,0.00981857,0.00740760,0.07207062,-0.09299326,-0.01864929,-0.18739
 809,0.40610719,-0.00143709,0.00129634,-0.00404459,0.04829484,-0.007950
 92,-0.07854521,-0.00562789,-0.05010412,0.66859841,0.02291742,-0.027606
 34,-0.00956679,-0.14008487,-0.07596739,-0.00109156,-0.02082722,0.05047
 497,0.01475406,0.76875651,-0.01811619,-0.03865664,-0.01215268,-0.06200
 063,-0.21554344,-0.05006510,0.02298631,-0.00819652,-0.00018446,-0.0123
 7840,0.36090665,-0.00681848,-0.01063432,0.01116247,0.00296315,-0.04782
 113,-0.02336902,0.00676303,-0.00458201,-0.02263606,-0.11915379,0.09337
 853,0.09232938,-0.01095924,-0.00259477,-0.00018533,-0.02562771,0.09694
 733,0.03325927,0.00565420,0.00121380,0.00167793,-0.60754011,0.07111662
 ,0.11307237,0.62905526,-0.00045572,0.00077211,0.00242828,0.09447864,-0
 .03938763,-0.02838743,0.00156382,-0.00668401,-0.00624290,0.06751393,-0
 .10939692,-0.03395948,-0.17378932,0.16440667,0.00044367,0.00277259,-0.
 00662285,0.03254238,-0.02878428,-0.00721422,0.00178488,-0.00618483,0.0
 1186845,0.11201827,-0.03453310,-0.05758129,-0.14787489,0.06975284,0.06
 381939,-0.04780398,-0.00124334,-0.01261056,-0.00834485,-0.02110563,-0.
 02685078,0.00311912,0.00055899,-0.00163018,-0.00650586,0.00169471,0.00
 495272,0.00395020,0.00255506,-0.00327706,0.05091806,-0.00325876,-0.071
 18518,-0.07390004,-0.00622132,-0.01801364,-0.02330221,0.00156945,0.000
 47455,0.00038695,-0.00459298,0.00063213,0.00025519,0.00139743,0.000434
 29,-0.00044507,0.01234453,0.08186962,-0.01378865,-0.07616615,-0.285163
 26,-0.00269185,-0.00664036,0.00595378,-0.00022481,0.00082053,0.0016061
 0,-0.00035823,0.00345066,-0.00099595,0.00015046,-0.00052814,0.00026469
 ,0.01888102,0.08625326,0.30364464,-0.24129981,0.10489090,0.06071488,-0
 .02823519,0.00837035,0.00666000,-0.00464790,-0.00356176,-0.00019400,-0
 .00424939,0.00440936,0.00231501,0.00439741,0.00265905,-0.00029347,0.00
 559312,-0.00206194,-0.00089267,0.26956290,0.11505100,-0.11129511,-0.03
 571288,-0.01845986,0.01511267,0.00783334,-0.00642965,-0.00474893,-0.00
 053201,-0.00065861,0.00568480,0.00111087,0.00167023,-0.00681244,-0.001
 58418,0.00566501,-0.00391960,-0.00072777,-0.11611688,0.11576600,0.0636
 6370,-0.03409222,-0.07149354,-0.00112692,0.00355297,-0.00053134,-0.001
 02176,-0.00099052,0.00049956,0.00084278,0.00030100,0.00218188,-0.00057
 999,-0.00174151,-0.00269131,0.02619910,-0.01368166,-0.00605027,-0.0688
 5744,0.03785431,0.07108314,-0.05710222,0.04238917,-0.03140826,-0.00057
 751,-0.03268775,0.01539034,0.00362254,-0.00048461,0.00085320,-0.007577
 96,0.00266696,-0.00181377,0.00481669,0.00084700,0.00286486,-0.00008139
 ,0.00193111,0.00018849,-0.00174879,0.01832550,-0.01933315,0.05948783,0
 .03950966,-0.19755913,0.12235999,-0.00332983,-0.02789392,0.00655063,0.
 00117973,0.00140576,-0.00079069,-0.00423921,0.00177941,0.00254433,0.00
 169727,0.00012448,0.00011111,-0.00085746,0.00922983,-0.00618640,0.0016
 8255,-0.00947191,0.00891275,-0.03403104,0.22219922,-0.03165363,0.12384
 152,-0.14948307,0.00407397,-0.00304900,0.00807648,0.00022783,-0.000797
 07,0.00016674,-0.00033902,-0.00275680,-0.00106601,-0.00064920,0.000147
 97,-0.00029077,-0.00668361,0.02379599,-0.01834551,0.00069051,-0.007930
 36,0.00683734,0.03388048,-0.13401797,0.15473294,0.00250328,0.00067967,
 0.00279461,-0.02003198,0.02290574,0.04368053,-0.03799251,0.01793940,-0
 .02295942,-0.00194576,-0.00604568,0.00231349,-0.00226441,0.00285477,-0
 .00048641,-0.00038969,-0.00068990,-0.00114780,0.00021080,0.00054596,-0
 .00024880,-0.00045570,-0.00042386,-0.00017937,0.05956863,-0.00013604,0
 .00030054,0.00151974,-0.00482290,-0.00935523,-0.00831351,0.03258512,-0
 .06309514,-0.12581405,0.00313260,0.00238285,-0.00447533,0.00170759,-0.
 00239846,0.00089151,0.00024474,0.00042601,-0.00043945,-0.00006973,-0.0
 0005972,-0.00018105,0.00013015,0.00008778,0.00018787,-0.02903377,0.067
 15220,-0.00118987,0.00136607,0.00117213,0.00459292,-0.00993257,0.00228
 019,0.01149834,-0.08564940,-0.38670334,0.00087599,0.00263613,-0.001500
 68,-0.00032488,-0.00017550,0.00028559,0.00103064,0.00030288,-0.0003944
 9,-0.00036492,-0.00037117,0.00008864,0.00004117,0.00019536,-0.00055508
 ,-0.01385915,0.10425016,0.40752708,0.00190774,0.00174835,-0.00260482,-
 0.02949816,0.03962839,-0.01381177,-0.05488732,0.06926939,-0.03373147,-
 0.00294276,-0.00433306,-0.00459374,-0.00148230,0.00177277,0.00227778,-
 0.00045474,-0.00041762,-0.00011597,0.00041684,0.00040729,0.00046249,-0
 .00038347,-0.00118781,0.00063205,0.00079735,-0.00373776,-0.00230026,0.
 08652681,-0.00103312,0.00194113,-0.00102332,-0.00350501,-0.01094359,-0
 .00313135,0.11061017,-0.24208820,0.18993585,0.00432143,0.00040768,0.00
 418334,0.00063382,-0.00105809,-0.00199658,0.00014336,0.00005198,0.0001
 6382,-0.00020189,-0.00025575,0.00006593,0.00091352,0.00009849,0.000577
 83,-0.00873233,0.00455916,-0.01262196,-0.10314994,0.24728719,0.0003321
 1,-0.00144433,0.00012352,0.00471342,-0.01285245,0.01333741,-0.05194354
 ,0.15872911,-0.19081005,0.00201828,-0.00007419,0.00147529,0.00145425,-
 0.00129413,-0.00183768,-0.00001129,0.00033470,-0.00051973,0.00022209,0
 .00005986,0.00007589,-0.00066337,0.00032090,-0.00007305,-0.00990768,0.
 03237411,-0.02220004,0.05378573,-0.17615356,0.20042845\\0.00001429,0.0
 0001316,0.00000040,-0.00004895,-0.00003663,0.00000082,0.00002964,0.000
 00436,-0.00001041,0.00000710,0.00003870,0.00001408,-0.00002176,-0.0000
 0285,0.00000047,0.00000285,0.00000008,-0.00000373,0.,-0.00000438,-0.00
 000092,0.00000070,-0.00000132,0.00000285,0.00000802,-0.00000704,-0.000
 00213,0.00000810,-0.00000407,-0.00000143\\\@


 MODELS ARE TO BE USED, NOT BELIEVED.

    -- PARAPHRASED BY H. THIEL IN "PRINCIPLES OF ECONOMETRICS"
 Job cpu time:       0 days  0 hours  3 minutes 21.9 seconds.
 File lengths (MBytes):  RWF=     15 Int=      0 D2E=      0 Chk=      2 Scr=      1
 Normal termination of Gaussian 09 at Thu Sep  8 15:05:54 2022.
