 Entering Gaussian System, Link 0=g09
 Input=B3LYP6-31Gdp.Frag_742.gjf
 Output=B3LYP6-31Gdp.Frag_742.log
 Initial command:
 /public/home/users/caep010/software/Gaussian09/g09/l1.exe "/public/home/users/caep010/.cache/gau_scr/Gau-33148.inp" -scrdir="/public/home/users/caep010/.cache/gau_scr/"
 Entering Link 1 = /public/home/users/caep010/software/Gaussian09/g09/l1.exe PID=     33149.
  
 Copyright (c) 1988,1990,1992,1993,1995,1998,2003,2009,2015,
            Gaussian, Inc.  All Rights Reserved.
  
 This is part of the Gaussian(R) 09 program.  It is based on
 the Gaussian(R) 03 system (copyright 2003, Gaussian, Inc.),
 the Gaussian(R) 98 system (copyright 1998, Gaussian, Inc.),
 the Gaussian(R) 94 system (copyright 1995, Gaussian, Inc.),
 the Gaussian 92(TM) system (copyright 1992, Gaussian, Inc.),
 the Gaussian 90(TM) system (copyright 1990, Gaussian, Inc.),
 the Gaussian 88(TM) system (copyright 1988, Gaussian, Inc.),
 the Gaussian 86(TM) system (copyright 1986, Carnegie Mellon
 University), and the Gaussian 82(TM) system (copyright 1983,
 Carnegie Mellon University). Gaussian is a federally registered
 trademark of Gaussian, Inc.
  
 This software contains proprietary and confidential information,
 including trade secrets, belonging to Gaussian, Inc.
  
 This software is provided under written license and may be
 used, copied, transmitted, or stored only in accord with that
 written license.
  
 The following legend is applicable only to US Government
 contracts under FAR:
  
                    RESTRICTED RIGHTS LEGEND
  
 Use, reproduction and disclosure by the US Government is
 subject to restrictions as set forth in subparagraphs (a)
 and (c) of the Commercial Computer Software - Restricted
 Rights clause in FAR 52.227-19.
  
 Gaussian, Inc.
 340 Quinnipiac St., Bldg. 40, Wallingford CT 06492
  
  
 ---------------------------------------------------------------
 Warning -- This program may not be used in any manner that
 competes with the business of Gaussian, Inc. or will provide
 assistance to any competitor of Gaussian, Inc.  The licensee
 of this program is prohibited from giving any competitor of
 Gaussian, Inc. access to this program.  By using this program,
 the user acknowledges that Gaussian, Inc. is engaged in the
 business of creating and licensing software in the field of
 computational chemistry and represents and warrants to the
 licensee that it is not a competitor of Gaussian, Inc. and that
 it will not use this program in any manner prohibited above.
 ---------------------------------------------------------------
  

 Cite this work as:
 Gaussian 09, Revision E.01,
 M. J. Frisch, G. W. Trucks, H. B. Schlegel, G. E. Scuseria, 
 M. A. Robb, J. R. Cheeseman, G. Scalmani, V. Barone, B. Mennucci, 
 G. A. Petersson, H. Nakatsuji, M. Caricato, X. Li, H. P. Hratchian, 
 A. F. Izmaylov, J. Bloino, G. Zheng, J. L. Sonnenberg, M. Hada, 
 M. Ehara, K. Toyota, R. Fukuda, J. Hasegawa, M. Ishida, T. Nakajima, 
 Y. Honda, O. Kitao, H. Nakai, T. Vreven, J. A. Montgomery, Jr., 
 J. E. Peralta, F. Ogliaro, M. Bearpark, J. J. Heyd, E. Brothers, 
 K. N. Kudin, V. N. Staroverov, T. Keith, R. Kobayashi, J. Normand, 
 K. Raghavachari, A. Rendell, J. C. Burant, S. S. Iyengar, J. Tomasi, 
 M. Cossi, N. Rega, J. M. Millam, M. Klene, J. E. Knox, J. B. Cross, 
 V. Bakken, C. Adamo, J. Jaramillo, R. Gomperts, R. E. Stratmann, 
 O. Yazyev, A. J. Austin, R. Cammi, C. Pomelli, J. W. Ochterski, 
 R. L. Martin, K. Morokuma, V. G. Zakrzewski, G. A. Voth, 
 P. Salvador, J. J. Dannenberg, S. Dapprich, A. D. Daniels, 
 O. Farkas, J. B. Foresman, J. V. Ortiz, J. Cioslowski, 
 and D. J. Fox, Gaussian, Inc., Wallingford CT, 2013.
 
 ******************************************
 Gaussian 09:  ES64L-G09RevE.01 30-Nov-2015
                 8-Sep-2022 
 ******************************************
 %nproc=32
 Will use up to   32 processors via shared memory.
 %mem=180GB
 %chk=B3LYP6-31Gdp.Frag_742.chk
 ----------------------------
 #P OPT Freq B3LYP/6-31G(d,p)
 ----------------------------
 1/14=-1,18=20,19=15,26=3,38=1/1,3;
 2/9=110,12=2,17=6,18=5,40=1/2;
 3/5=1,6=6,7=101,11=2,16=1,25=1,30=1,71=1,74=-5/1,2,3;
 4//1;
 5/5=2,38=5/2;
 6/7=2,8=2,9=2,10=2,28=1/1;
 7//1,2,3,16;
 1/14=-1,18=20,19=15,26=3/3(2);
 2/9=110/2;
 99//99;
 2/9=110/2;
 3/5=1,6=6,7=101,11=2,16=1,25=1,30=1,71=1,74=-5/1,2,3;
 4/5=5,16=3,69=1/1;
 5/5=2,38=5/2;
 7//1,2,3,16;
 1/14=-1,18=20,19=15,26=3/3(-5);
 2/9=110/2;
 6/7=2,8=2,9=2,10=2,19=2,28=1/1;
 99/9=1/99;
 Leave Link    1 at Thu Sep  8 15:19:19 2022, MaxMem= 24159191040 cpu:         2.5
 (Enter /public/home/users/caep010/software/Gaussian09/g09/l101.exe)
 --------
 Frag_742
 --------
 Symbolic Z-matrix:
 Charge =  0 Multiplicity = 1
 N                    -1.14212  -0.25567  -1.39468 
 C                    -0.48329   0.25179  -0.1879 
 O                    -0.67187   1.62385  -0.05989 
 C                     1.00691  -0.06044  -0.34768 
 O                     1.84328   0.77222  -0.58186 
 O                     1.26192  -1.37696  -0.23398 
 H                    -1.05988  -1.26809  -1.43514 
 H                    -2.13117  -0.03223  -1.33104 
 H                    -0.84832  -0.20435   0.74604 
 H                     0.01405   2.04775  -0.59524 
 H                     2.2104   -1.49776  -0.39594 
 
 NAtoms=     11 NQM=       11 NQMF=       0 NMMI=      0 NMMIF=      0
                NMic=       0 NMicF=      0.
                    Isotopes and Nuclear Properties:
 (Nuclear quadrupole moments (NQMom) in fm**2, nuclear magnetic moments (NMagM)
  in nuclear magnetons)

  Atom         1           2           3           4           5           6           7           8           9          10
 IAtWgt=          14          12          16          12          16          16           1           1           1           1
 AtmWgt=  14.0030740  12.0000000  15.9949146  12.0000000  15.9949146  15.9949146   1.0078250   1.0078250   1.0078250   1.0078250
 NucSpn=           2           0           0           0           0           0           1           1           1           1
 AtZEff=   0.0000000   0.0000000   0.0000000   0.0000000   0.0000000   0.0000000   0.0000000   0.0000000   0.0000000   0.0000000
 NQMom=    2.0440000   0.0000000   0.0000000   0.0000000   0.0000000   0.0000000   0.0000000   0.0000000   0.0000000   0.0000000
 NMagM=    0.4037610   0.0000000   0.0000000   0.0000000   0.0000000   0.0000000   2.7928460   2.7928460   2.7928460   2.7928460
 AtZNuc=   7.0000000   6.0000000   8.0000000   6.0000000   8.0000000   8.0000000   1.0000000   1.0000000   1.0000000   1.0000000

  Atom        11
 IAtWgt=           1
 AtmWgt=   1.0078250
 NucSpn=           1
 AtZEff=   0.0000000
 NQMom=    0.0000000
 NMagM=    2.7928460
 AtZNuc=   1.0000000
 Leave Link  101 at Thu Sep  8 15:19:19 2022, MaxMem= 24159191040 cpu:        10.0
 (Enter /public/home/users/caep010/software/Gaussian09/g09/l103.exe)

 GradGradGradGradGradGradGradGradGradGradGradGradGradGradGradGradGradGrad
 Berny optimization.
 Initialization pass.
                           ----------------------------
                           !    Initial Parameters    !
                           ! (Angstroms and Degrees)  !
 --------------------------                            --------------------------
 ! Name  Definition              Value          Derivative Info.                !
 --------------------------------------------------------------------------------
 ! R1    R(1,2)                  1.4656         estimate D2E/DX2                !
 ! R2    R(1,7)                  1.0166         estimate D2E/DX2                !
 ! R3    R(1,8)                  1.016          estimate D2E/DX2                !
 ! R4    R(2,3)                  1.3909         estimate D2E/DX2                !
 ! R5    R(2,4)                  1.5309         estimate D2E/DX2                !
 ! R6    R(2,9)                  1.1016         estimate D2E/DX2                !
 ! R7    R(3,10)                 0.9679         estimate D2E/DX2                !
 ! R8    R(4,5)                  1.2032         estimate D2E/DX2                !
 ! R9    R(4,6)                  1.3458         estimate D2E/DX2                !
 ! R10   R(6,11)                 0.9698         estimate D2E/DX2                !
 ! A1    A(2,1,7)              109.9527         estimate D2E/DX2                !
 ! A2    A(2,1,8)              108.0527         estimate D2E/DX2                !
 ! A3    A(7,1,8)              107.4742         estimate D2E/DX2                !
 ! A4    A(1,2,3)              110.8797         estimate D2E/DX2                !
 ! A5    A(1,2,4)              106.3216         estimate D2E/DX2                !
 ! A6    A(1,2,9)              113.9394         estimate D2E/DX2                !
 ! A7    A(3,2,4)              110.046          estimate D2E/DX2                !
 ! A8    A(3,2,9)              106.589          estimate D2E/DX2                !
 ! A9    A(4,2,9)              109.0611         estimate D2E/DX2                !
 ! A10   A(2,3,10)             106.5619         estimate D2E/DX2                !
 ! A11   A(2,4,5)              123.7664         estimate D2E/DX2                !
 ! A12   A(2,4,6)              112.033          estimate D2E/DX2                !
 ! A13   A(5,4,6)              124.1741         estimate D2E/DX2                !
 ! A14   A(4,6,11)             107.0424         estimate D2E/DX2                !
 ! D1    D(7,1,2,3)           -175.445          estimate D2E/DX2                !
 ! D2    D(7,1,2,4)             64.9528         estimate D2E/DX2                !
 ! D3    D(7,1,2,9)            -55.201          estimate D2E/DX2                !
 ! D4    D(8,1,2,3)            -58.4239         estimate D2E/DX2                !
 ! D5    D(8,1,2,4)           -178.026          estimate D2E/DX2                !
 ! D6    D(8,1,2,9)             61.8201         estimate D2E/DX2                !
 ! D7    D(1,2,3,10)           -84.4367         estimate D2E/DX2                !
 ! D8    D(4,2,3,10)            32.9094         estimate D2E/DX2                !
 ! D9    D(9,2,3,10)           151.0368         estimate D2E/DX2                !
 ! D10   D(1,2,4,5)            107.1792         estimate D2E/DX2                !
 ! D11   D(1,2,4,6)            -71.0159         estimate D2E/DX2                !
 ! D12   D(3,2,4,5)            -12.9645         estimate D2E/DX2                !
 ! D13   D(3,2,4,6)            168.8404         estimate D2E/DX2                !
 ! D14   D(9,2,4,5)           -129.5556         estimate D2E/DX2                !
 ! D15   D(9,2,4,6)             52.2493         estimate D2E/DX2                !
 ! D16   D(2,4,6,11)           176.8581         estimate D2E/DX2                !
 ! D17   D(5,4,6,11)            -1.3284         estimate D2E/DX2                !
 --------------------------------------------------------------------------------
 Trust Radius=3.00D-01 FncErr=1.00D-07 GrdErr=1.00D-06
 Number of steps in this run=     51 maximum allowed number of steps=    100.
 GradGradGradGradGradGradGradGradGradGradGradGradGradGradGradGradGradGrad

 Leave Link  103 at Thu Sep  8 15:19:19 2022, MaxMem= 24159191040 cpu:         0.3
 (Enter /public/home/users/caep010/software/Gaussian09/g09/l202.exe)
                          Input orientation:                          
 ---------------------------------------------------------------------
 Center     Atomic      Atomic             Coordinates (Angstroms)
 Number     Number       Type             X           Y           Z
 ---------------------------------------------------------------------
      1          7           0       -1.142118   -0.255668   -1.394684
      2          6           0       -0.483291    0.251785   -0.187902
      3          8           0       -0.671873    1.623849   -0.059886
      4          6           0        1.006906   -0.060440   -0.347676
      5          8           0        1.843275    0.772221   -0.581856
      6          8           0        1.261921   -1.376963   -0.233980
      7          1           0       -1.059882   -1.268090   -1.435141
      8          1           0       -2.131166   -0.032230   -1.331036
      9          1           0       -0.848317   -0.204349    0.746041
     10          1           0        0.014050    2.047750   -0.595244
     11          1           0        2.210397   -1.497764   -0.395936
 ---------------------------------------------------------------------
                    Distance matrix (angstroms):
                    1          2          3          4          5
     1  N    0.000000
     2  C    1.465566   0.000000
     3  O    2.352743   1.390867   0.000000
     4  C    2.398467   1.530915   2.395402   0.000000
     5  O    3.260340   2.416395   2.706232   1.203195   0.000000
     6  O    2.895503   2.387616   3.574177   1.345805   2.253438
     7  H    1.016562   2.048922   3.225707   2.629185   3.649560
     8  H    1.015968   2.025565   2.547147   3.288661   4.123663
     9  H    2.161401   1.101613   2.005731   2.158421   3.156211
    10  H    2.698437   1.907555   0.967879   2.343399   2.230071
    11  H    3.712096   3.218719   4.262027   1.875265   2.306984
                    6          7          8          9         10
     6  O    0.000000
     7  H    2.616373   0.000000
     8  H    3.811152   1.638852   0.000000
     9  H    2.605488   2.435951   2.447361   0.000000
    10  H    3.662834   3.585185   3.077281   2.759470   0.000000
    11  H    0.969757   3.439102   4.676684   3.511804   4.175444
                   11
    11  H    0.000000
 Stoichiometry    C2H5NO3
 Framework group  C1[X(C2H5NO3)]
 Deg. of freedom    27
 Full point group                 C1      NOp   1
 Largest Abelian subgroup         C1      NOp   1
 Largest concise Abelian subgroup C1      NOp   1
                         Standard orientation:                         
 ---------------------------------------------------------------------
 Center     Atomic      Atomic             Coordinates (Angstroms)
 Number     Number       Type             X           Y           Z
 ---------------------------------------------------------------------
      1          7           0        1.150141    1.150131   -0.575551
      2          6           0        0.697145    0.146121    0.391218
      3          8           0        1.469489   -1.007493    0.306534
      4          6           0       -0.757828   -0.169102    0.034304
      5          8           0       -1.112052   -1.195885   -0.483305
      6          8           0       -1.583168    0.851371    0.332032
      7          1           0        0.626771    2.012655   -0.450910
      8          1           0        2.126345    1.355044   -0.382606
      9          1           0        0.745960    0.481046    1.439547
     10          1           0        1.089572   -1.542239   -0.405154
     11          1           0       -2.469684    0.596514    0.032755
 ---------------------------------------------------------------------
 Rotational constants (GHZ):      5.3353764      3.2690130      2.3275785
 Leave Link  202 at Thu Sep  8 15:19:19 2022, MaxMem= 24159191040 cpu:         0.3
 (Enter /public/home/users/caep010/software/Gaussian09/g09/l301.exe)
 Standard basis: 6-31G(d,p) (6D, 7F)
 Ernie: Thresh=  0.10000D-02 Tol=  0.10000D-05 Strict=F.
 There are   115 symmetry adapted cartesian basis functions of A   symmetry.
 There are   115 symmetry adapted basis functions of A   symmetry.
   115 basis functions,   203 primitive gaussians,   115 cartesian basis functions
    24 alpha electrons       24 beta electrons
       nuclear repulsion energy       251.9322214691 Hartrees.
 IExCor=  402 DFT=T Ex+Corr=B3LYP ExCW=0 ScaHFX=  0.200000
 ScaDFX=  0.800000  0.720000  1.000000  0.810000 ScalE2=  1.000000  1.000000
 IRadAn=      0 IRanWt=     -1 IRanGd=            0 ICorTp=0 IEmpDi=  4
 NAtoms=   11 NActive=   11 NUniq=   11 SFac= 1.00D+00 NAtFMM=   60 NAOKFM=F Big=F
 Integral buffers will be    131072 words long.
 Raffenetti 2 integral format.
 Two-electron integral symmetry is turned on.
 Leave Link  301 at Thu Sep  8 15:19:19 2022, MaxMem= 24159191040 cpu:         2.0
 (Enter /public/home/users/caep010/software/Gaussian09/g09/l302.exe)
 NPDir=0 NMtPBC=     1 NCelOv=     1 NCel=       1 NClECP=     1 NCelD=      1
         NCelK=      1 NCelE2=     1 NClLst=     1 CellRange=     0.0.
 One-electron integrals computed using PRISM.
 NBasis=   115 RedAO= T EigKep=  2.64D-03  NBF=   115
 NBsUse=   115 1.00D-06 EigRej= -1.00D+00 NBFU=   115
 Precomputing XC quadrature grid using
 IXCGrd= 4 IRadAn=           0 IRanWt=          -1 IRanGd=           0 AccXCQ= 0.00D+00.
 Generated NRdTot=       0 NPtTot=           0 NUsed=           0 NTot=          32
 NSgBfM=   115   115   115   115   115 MxSgAt=    11 MxSgA2=    11.
 Leave Link  302 at Thu Sep  8 15:19:20 2022, MaxMem= 24159191040 cpu:        18.0
 (Enter /public/home/users/caep010/software/Gaussian09/g09/l303.exe)
 DipDrv:  MaxL=1.
 Leave Link  303 at Thu Sep  8 15:19:20 2022, MaxMem= 24159191040 cpu:         0.7
 (Enter /public/home/users/caep010/software/Gaussian09/g09/l401.exe)
 ExpMin= 1.61D-01 ExpMax= 5.48D+03 ExpMxC= 8.25D+02 IAcc=1 IRadAn=         1 AccDes= 0.00D+00
 Harris functional with IExCor=  402 and IRadAn=       1 diagonalized for initial guess.
 HarFok:  IExCor=  402 AccDes= 0.00D+00 IRadAn=         1 IDoV= 1 UseB2=F ITyADJ=14
 ICtDFT=  3500011 ScaDFX=  1.000000  1.000000  1.000000  1.000000
 FoFCou: FMM=F IPFlag=           0 FMFlag=      100000 FMFlg1=           0
         NFxFlg=           0 DoJE=T BraDBF=F KetDBF=T FulRan=T
         wScrn=  0.000000 ICntrl=     500 IOpCl=  0 I1Cent=   200000004 NGrid=           0
         NMat0=    1 NMatS0=      1 NMatT0=    0 NMatD0=    1 NMtDS0=    0 NMtDT0=    0
 Petite list used in FoFCou.
 Harris En= -359.670931563465    
 JPrj=0 DoOrth=F DoCkMO=F.
 Leave Link  401 at Thu Sep  8 15:19:20 2022, MaxMem= 24159191040 cpu:         9.7
 (Enter /public/home/users/caep010/software/Gaussian09/g09/l502.exe)
 Closed shell SCF:
 Using DIIS extrapolation, IDIIS=  1040.
 Integral symmetry usage will be decided dynamically.
 Keep R1 ints in memory in canonical form, NReq=23246264.
 IVT=       62771 IEndB=       62771 NGot= 24159191040 MDV= 24136880485
 LenX= 24136880485 LenY= 24136866819
 Requested convergence on RMS density matrix=1.00D-08 within 128 cycles.
 Requested convergence on MAX density matrix=1.00D-06.
 Requested convergence on             energy=1.00D-06.
 No special actions if energy rises.
 FoFCou: FMM=F IPFlag=           0 FMFlag=           0 FMFlg1=           0
         NFxFlg=           0 DoJE=F BraDBF=F KetDBF=F FulRan=T
         wScrn=  0.000000 ICntrl=     600 IOpCl=  0 I1Cent=           0 NGrid=           0
         NMat0=    1 NMatS0=   6670 NMatT0=    0 NMatD0=    1 NMtDS0=    0 NMtDT0=    0
 Symmetry not used in FoFCou.
 Integral accuracy reduced to 1.0D-05 until final iterations.

 Cycle   1  Pass 0  IDiag  1:
 E= -359.470344793869    
 DIIS: error= 2.47D-02 at cycle   1 NSaved=   1.
 NSaved= 1 IEnMin= 1 EnMin= -359.470344793869     IErMin= 1 ErrMin= 2.47D-02
 ErrMax= 2.47D-02  0.00D+00 EMaxC= 1.00D-01 BMatC= 2.45D-01 BMatP= 2.45D-01
 IDIUse=3 WtCom= 7.53D-01 WtEn= 2.47D-01
 Coeff-Com:  0.100D+01
 Coeff-En:   0.100D+01
 Coeff:      0.100D+01
 Gap=     0.174 Goal=   None    Shift=    0.000
 GapD=    0.174 DampG=1.000 DampE=0.500 DampFc=0.5000 IDamp=-1.
 Damping current iteration by 5.00D-01
 RMSDP=8.28D-03 MaxDP=1.82D-01              OVMax= 2.20D-01

 Cycle   2  Pass 0  IDiag  1:
 E= -359.518198953252     Delta-E=       -0.047854159382 Rises=F Damp=T
 DIIS: error= 8.62D-03 at cycle   2 NSaved=   2.
 NSaved= 2 IEnMin= 2 EnMin= -359.518198953252     IErMin= 2 ErrMin= 8.62D-03
 ErrMax= 8.62D-03  0.00D+00 EMaxC= 1.00D-01 BMatC= 3.18D-02 BMatP= 2.45D-01
 IDIUse=3 WtCom= 9.14D-01 WtEn= 8.62D-02
 Coeff-Com:  0.221D+00 0.779D+00
 Coeff-En:   0.362D+00 0.638D+00
 Coeff:      0.233D+00 0.767D+00
 Gap=     0.228 Goal=   None    Shift=    0.000
 RMSDP=2.11D-03 MaxDP=4.90D-02 DE=-4.79D-02 OVMax= 1.60D-01

 Cycle   3  Pass 0  IDiag  1:
 E= -359.635992031944     Delta-E=       -0.117793078692 Rises=F Damp=F
 DIIS: error= 8.94D-03 at cycle   3 NSaved=   3.
 NSaved= 3 IEnMin= 3 EnMin= -359.635992031944     IErMin= 2 ErrMin= 8.62D-03
 ErrMax= 8.94D-03  0.00D+00 EMaxC= 1.00D-01 BMatC= 2.17D-02 BMatP= 3.18D-02
 IDIUse=3 WtCom= 9.11D-01 WtEn= 8.94D-02
 Coeff-Com:  0.102D+00 0.465D+00 0.433D+00
 Coeff-En:   0.000D+00 0.000D+00 0.100D+01
 Coeff:      0.929D-01 0.424D+00 0.484D+00
 Gap=     0.254 Goal=   None    Shift=    0.000
 RMSDP=1.33D-03 MaxDP=3.50D-02 DE=-1.18D-01 OVMax= 7.02D-02

 Cycle   4  Pass 0  IDiag  1:
 E= -359.650405010690     Delta-E=       -0.014412978746 Rises=F Damp=F
 DIIS: error= 4.16D-03 at cycle   4 NSaved=   4.
 NSaved= 4 IEnMin= 4 EnMin= -359.650405010690     IErMin= 4 ErrMin= 4.16D-03
 ErrMax= 4.16D-03  0.00D+00 EMaxC= 1.00D-01 BMatC= 3.98D-03 BMatP= 2.17D-02
 IDIUse=3 WtCom= 9.58D-01 WtEn= 4.16D-02
 Coeff-Com:  0.161D-01 0.875D-01 0.302D+00 0.594D+00
 Coeff-En:   0.000D+00 0.000D+00 0.175D+00 0.825D+00
 Coeff:      0.154D-01 0.839D-01 0.297D+00 0.604D+00
 Gap=     0.248 Goal=   None    Shift=    0.000
 RMSDP=4.57D-04 MaxDP=1.17D-02 DE=-1.44D-02 OVMax= 2.36D-02

 Cycle   5  Pass 0  IDiag  1:
 E= -359.653166959252     Delta-E=       -0.002761948562 Rises=F Damp=F
 DIIS: error= 7.59D-04 at cycle   5 NSaved=   5.
 NSaved= 5 IEnMin= 5 EnMin= -359.653166959252     IErMin= 5 ErrMin= 7.59D-04
 ErrMax= 7.59D-04  0.00D+00 EMaxC= 1.00D-01 BMatC= 2.21D-04 BMatP= 3.98D-03
 IDIUse=3 WtCom= 9.92D-01 WtEn= 7.59D-03
 Coeff-Com:  0.203D-02 0.856D-02 0.118D+00 0.319D+00 0.552D+00
 Coeff-En:   0.000D+00 0.000D+00 0.000D+00 0.000D+00 0.100D+01
 Coeff:      0.201D-02 0.849D-02 0.117D+00 0.317D+00 0.555D+00
 Gap=     0.250 Goal=   None    Shift=    0.000
 RMSDP=1.28D-04 MaxDP=2.24D-03 DE=-2.76D-03 OVMax= 4.12D-03

 Cycle   6  Pass 0  IDiag  1:
 E= -359.653347913875     Delta-E=       -0.000180954623 Rises=F Damp=F
 DIIS: error= 1.59D-04 at cycle   6 NSaved=   6.
 NSaved= 6 IEnMin= 6 EnMin= -359.653347913875     IErMin= 6 ErrMin= 1.59D-04
 ErrMax= 1.59D-04  0.00D+00 EMaxC= 1.00D-01 BMatC= 9.35D-06 BMatP= 2.21D-04
 IDIUse=3 WtCom= 9.98D-01 WtEn= 1.59D-03
 Coeff-Com:  0.110D-03-0.130D-02 0.381D-01 0.111D+00 0.262D+00 0.590D+00
 Coeff-En:   0.000D+00 0.000D+00 0.000D+00 0.000D+00 0.000D+00 0.100D+01
 Coeff:      0.110D-03-0.130D-02 0.381D-01 0.111D+00 0.262D+00 0.591D+00
 Gap=     0.250 Goal=   None    Shift=    0.000
 RMSDP=2.57D-05 MaxDP=4.98D-04 DE=-1.81D-04 OVMax= 6.30D-04

 Cycle   7  Pass 0  IDiag  1:
 E= -359.653354845704     Delta-E=       -0.000006931828 Rises=F Damp=F
 DIIS: error= 4.35D-05 at cycle   7 NSaved=   7.
 NSaved= 7 IEnMin= 7 EnMin= -359.653354845704     IErMin= 7 ErrMin= 4.35D-05
 ErrMax= 4.35D-05  0.00D+00 EMaxC= 1.00D-01 BMatC= 8.45D-07 BMatP= 9.35D-06
 IDIUse=1 WtCom= 1.00D+00 WtEn= 0.00D+00
 Coeff-Com: -0.411D-04-0.139D-02 0.114D-01 0.338D-01 0.989D-01 0.305D+00
 Coeff-Com:  0.552D+00
 Coeff:     -0.411D-04-0.139D-02 0.114D-01 0.338D-01 0.989D-01 0.305D+00
 Coeff:      0.552D+00
 Gap=     0.250 Goal=   None    Shift=    0.000
 RMSDP=7.28D-06 MaxDP=1.81D-04 DE=-6.93D-06 OVMax= 1.77D-04

 Initial convergence to 1.0D-05 achieved.  Increase integral accuracy.
 Cycle   8  Pass 1  IDiag  1:
 E= -359.653359437584     Delta-E=       -0.000004591880 Rises=F Damp=F
 DIIS: error= 1.03D-05 at cycle   1 NSaved=   1.
 NSaved= 1 IEnMin= 1 EnMin= -359.653359437584     IErMin= 1 ErrMin= 1.03D-05
 ErrMax= 1.03D-05  0.00D+00 EMaxC= 1.00D-01 BMatC= 3.12D-08 BMatP= 3.12D-08
 IDIUse=1 WtCom= 1.00D+00 WtEn= 0.00D+00
 Coeff-Com:  0.100D+01
 Coeff:      0.100D+01
 Gap=     0.250 Goal=   None    Shift=    0.000
 RMSDP=7.28D-06 MaxDP=1.81D-04 DE=-4.59D-06 OVMax= 6.93D-05

 Cycle   9  Pass 1  IDiag  1:
 E= -359.653359429370     Delta-E=        0.000000008214 Rises=F Damp=F
 DIIS: error= 1.14D-05 at cycle   2 NSaved=   2.
 NSaved= 2 IEnMin= 1 EnMin= -359.653359437584     IErMin= 1 ErrMin= 1.03D-05
 ErrMax= 1.14D-05  0.00D+00 EMaxC= 1.00D-01 BMatC= 4.69D-08 BMatP= 3.12D-08
 IDIUse=1 WtCom= 1.00D+00 WtEn= 0.00D+00
 Coeff-Com:  0.558D+00 0.442D+00
 Coeff:      0.558D+00 0.442D+00
 Gap=     0.250 Goal=   None    Shift=    0.000
 RMSDP=1.69D-06 MaxDP=3.83D-05 DE= 8.21D-09 OVMax= 7.82D-05

 Cycle  10  Pass 1  IDiag  1:
 E= -359.653359462646     Delta-E=       -0.000000033276 Rises=F Damp=F
 DIIS: error= 4.25D-06 at cycle   3 NSaved=   3.
 NSaved= 3 IEnMin= 3 EnMin= -359.653359462646     IErMin= 3 ErrMin= 4.25D-06
 ErrMax= 4.25D-06  0.00D+00 EMaxC= 1.00D-01 BMatC= 4.29D-09 BMatP= 3.12D-08
 IDIUse=1 WtCom= 1.00D+00 WtEn= 0.00D+00
 Coeff-Com:  0.158D+00 0.247D+00 0.595D+00
 Coeff:      0.158D+00 0.247D+00 0.595D+00
 Gap=     0.250 Goal=   None    Shift=    0.000
 RMSDP=6.24D-07 MaxDP=1.78D-05 DE=-3.33D-08 OVMax= 3.08D-05

 Cycle  11  Pass 1  IDiag  1:
 E= -359.653359464984     Delta-E=       -0.000000002338 Rises=F Damp=F
 DIIS: error= 2.01D-06 at cycle   4 NSaved=   4.
 NSaved= 4 IEnMin= 4 EnMin= -359.653359464984     IErMin= 4 ErrMin= 2.01D-06
 ErrMax= 2.01D-06  0.00D+00 EMaxC= 1.00D-01 BMatC= 1.17D-09 BMatP= 4.29D-09
 IDIUse=1 WtCom= 1.00D+00 WtEn= 0.00D+00
 Coeff-Com:  0.229D-02 0.857D-01 0.399D+00 0.513D+00
 Coeff:      0.229D-02 0.857D-01 0.399D+00 0.513D+00
 Gap=     0.250 Goal=   None    Shift=    0.000
 RMSDP=2.37D-07 MaxDP=7.13D-06 DE=-2.34D-09 OVMax= 1.07D-05

 Cycle  12  Pass 1  IDiag  1:
 E= -359.653359465865     Delta-E=       -0.000000000881 Rises=F Damp=F
 DIIS: error= 3.14D-07 at cycle   5 NSaved=   5.
 NSaved= 5 IEnMin= 5 EnMin= -359.653359465865     IErMin= 5 ErrMin= 3.14D-07
 ErrMax= 3.14D-07  0.00D+00 EMaxC= 1.00D-01 BMatC= 3.37D-11 BMatP= 1.17D-09
 IDIUse=1 WtCom= 1.00D+00 WtEn= 0.00D+00
 Coeff-Com: -0.782D-02 0.283D-01 0.162D+00 0.253D+00 0.565D+00
 Coeff:     -0.782D-02 0.283D-01 0.162D+00 0.253D+00 0.565D+00
 Gap=     0.250 Goal=   None    Shift=    0.000
 RMSDP=5.16D-08 MaxDP=7.75D-07 DE=-8.81D-10 OVMax= 1.18D-06

 Cycle  13  Pass 1  IDiag  1:
 E= -359.653359465891     Delta-E=       -0.000000000026 Rises=F Damp=F
 DIIS: error= 6.70D-08 at cycle   6 NSaved=   6.
 NSaved= 6 IEnMin= 6 EnMin= -359.653359465891     IErMin= 6 ErrMin= 6.70D-08
 ErrMax= 6.70D-08  0.00D+00 EMaxC= 1.00D-01 BMatC= 2.33D-12 BMatP= 3.37D-11
 IDIUse=1 WtCom= 1.00D+00 WtEn= 0.00D+00
 Coeff-Com: -0.395D-02 0.947D-02 0.576D-01 0.986D-01 0.291D+00 0.547D+00
 Coeff:     -0.395D-02 0.947D-02 0.576D-01 0.986D-01 0.291D+00 0.547D+00
 Gap=     0.250 Goal=   None    Shift=    0.000
 RMSDP=1.27D-08 MaxDP=2.89D-07 DE=-2.64D-11 OVMax= 2.88D-07

 Cycle  14  Pass 1  IDiag  1:
 E= -359.653359465898     Delta-E=       -0.000000000006 Rises=F Damp=F
 DIIS: error= 1.56D-08 at cycle   7 NSaved=   7.
 NSaved= 7 IEnMin= 7 EnMin= -359.653359465898     IErMin= 7 ErrMin= 1.56D-08
 ErrMax= 1.56D-08  0.00D+00 EMaxC= 1.00D-01 BMatC= 9.82D-14 BMatP= 2.33D-12
 IDIUse=1 WtCom= 1.00D+00 WtEn= 0.00D+00
 Coeff-Com: -0.502D-03 0.292D-03 0.159D-02 0.766D-02 0.419D-01 0.186D+00
 Coeff-Com:  0.763D+00
 Coeff:     -0.502D-03 0.292D-03 0.159D-02 0.766D-02 0.419D-01 0.186D+00
 Coeff:      0.763D+00
 Gap=     0.250 Goal=   None    Shift=    0.000
 RMSDP=3.50D-09 MaxDP=5.09D-08 DE=-6.48D-12 OVMax= 8.74D-08

 SCF Done:  E(RB3LYP) =  -359.653359466     A.U. after   14 cycles
            NFock= 14  Conv=0.35D-08     -V/T= 2.0084
 KE= 3.566489212400D+02 PE=-1.347919970483D+03 EE= 3.796854683078D+02
 Leave Link  502 at Thu Sep  8 15:19:22 2022, MaxMem= 24159191040 cpu:        38.2
 (Enter /public/home/users/caep010/software/Gaussian09/g09/l601.exe)
 Copying SCF densities to generalized density rwf, IOpCl= 0 IROHF=0.

 **********************************************************************

            Population analysis using the SCF density.

 **********************************************************************

 Orbital symmetries:
       Occupied  (A) (A) (A) (A) (A) (A) (A) (A) (A) (A) (A) (A)
                 (A) (A) (A) (A) (A) (A) (A) (A) (A) (A) (A) (A)
       Virtual   (A) (A) (A) (A) (A) (A) (A) (A) (A) (A) (A) (A)
                 (A) (A) (A) (A) (A) (A) (A) (A) (A) (A) (A) (A)
                 (A) (A) (A) (A) (A) (A) (A) (A) (A) (A) (A) (A)
                 (A) (A) (A) (A) (A) (A) (A) (A) (A) (A) (A) (A)
                 (A) (A) (A) (A) (A) (A) (A) (A) (A) (A) (A) (A)
                 (A) (A) (A) (A) (A) (A) (A) (A) (A) (A) (A) (A)
                 (A) (A) (A) (A) (A) (A) (A) (A) (A) (A) (A) (A)
                 (A) (A) (A) (A) (A) (A) (A)
 The electronic state is 1-A.
 Alpha  occ. eigenvalues --  -19.21553 -19.15875 -19.15109 -14.32563 -10.33102
 Alpha  occ. eigenvalues --  -10.27971  -1.12696  -1.04864  -1.02833  -0.88375
 Alpha  occ. eigenvalues --   -0.71322  -0.61807  -0.55061  -0.50724  -0.49598
 Alpha  occ. eigenvalues --   -0.47520  -0.45902  -0.42980  -0.41662  -0.35471
 Alpha  occ. eigenvalues --   -0.33775  -0.30199  -0.28908  -0.25380
 Alpha virt. eigenvalues --   -0.00384   0.06203   0.09490   0.11703   0.14085
 Alpha virt. eigenvalues --    0.15704   0.21772   0.22600   0.25175   0.32041
 Alpha virt. eigenvalues --    0.37055   0.51991   0.55271   0.55773   0.61302
 Alpha virt. eigenvalues --    0.65125   0.66956   0.68688   0.71110   0.73635
 Alpha virt. eigenvalues --    0.75341   0.79042   0.81683   0.83589   0.86675
 Alpha virt. eigenvalues --    0.88786   0.90628   0.93583   0.96830   0.97676
 Alpha virt. eigenvalues --    1.00189   1.06447   1.07772   1.10180   1.16573
 Alpha virt. eigenvalues --    1.21720   1.29516   1.35111   1.36923   1.46510
 Alpha virt. eigenvalues --    1.50307   1.54152   1.58222   1.60953   1.64463
 Alpha virt. eigenvalues --    1.65190   1.72969   1.77213   1.79828   1.82960
 Alpha virt. eigenvalues --    1.87408   1.90081   1.96885   2.00778   2.05036
 Alpha virt. eigenvalues --    2.07337   2.10127   2.21571   2.23328   2.26622
 Alpha virt. eigenvalues --    2.31793   2.32914   2.37036   2.40754   2.46528
 Alpha virt. eigenvalues --    2.53165   2.54957   2.57509   2.58298   2.65691
 Alpha virt. eigenvalues --    2.67099   2.69453   2.73634   2.83523   2.89442
 Alpha virt. eigenvalues --    2.90916   2.94675   2.98963   3.02359   3.19370
 Alpha virt. eigenvalues --    3.28875   3.34158   3.41461   3.46178   3.50940
 Alpha virt. eigenvalues --    3.84760   3.91199   4.07057   4.21501   4.36033
 Alpha virt. eigenvalues --    4.62461
          Condensed to atoms (all electrons):
               1          2          3          4          5          6
     1  N    6.877598   0.253698  -0.069513  -0.053458  -0.000643   0.002250
     2  C    0.253698   4.809224   0.281336   0.285575  -0.069675  -0.088580
     3  O   -0.069513   0.281336   8.101096  -0.019049  -0.011967   0.001502
     4  C   -0.053458   0.285575  -0.019049   4.474035   0.578309   0.232978
     5  O   -0.000643  -0.069675  -0.011967   0.578309   8.007630  -0.082707
     6  O    0.002250  -0.088580   0.001502   0.232978  -0.082707   8.136949
     7  H    0.311682  -0.020042   0.004595  -0.005027   0.000121   0.006565
     8  H    0.330056  -0.029632   0.004334   0.006249  -0.000105  -0.000093
     9  H   -0.060779   0.381827  -0.055831  -0.046526   0.002039   0.001565
    10  H    0.004458  -0.042553   0.285167  -0.012211   0.025655   0.000743
    11  H   -0.000548   0.009100  -0.000105  -0.009053   0.009473   0.268244
               7          8          9         10         11
     1  N    0.311682   0.330056  -0.060779   0.004458  -0.000548
     2  C   -0.020042  -0.029632   0.381827  -0.042553   0.009100
     3  O    0.004595   0.004334  -0.055831   0.285167  -0.000105
     4  C   -0.005027   0.006249  -0.046526  -0.012211  -0.009053
     5  O    0.000121  -0.000105   0.002039   0.025655   0.009473
     6  O    0.006565  -0.000093   0.001565   0.000743   0.268244
     7  H    0.481906  -0.026567   0.000034  -0.000187  -0.000096
     8  H   -0.026567   0.468049  -0.005492  -0.001028   0.000035
     9  H    0.000034  -0.005492   0.667430   0.009640  -0.000694
    10  H   -0.000187  -0.001028   0.009640   0.411085  -0.000110
    11  H   -0.000096   0.000035  -0.000694  -0.000110   0.395076
 Mulliken charges:
               1
     1  N   -0.594802
     2  C    0.229720
     3  O   -0.521564
     4  C    0.568178
     5  O   -0.458130
     6  O   -0.479417
     7  H    0.247016
     8  H    0.254194
     9  H    0.106787
    10  H    0.319342
    11  H    0.328676
 Sum of Mulliken charges =  -0.00000
 Mulliken charges with hydrogens summed into heavy atoms:
               1
     1  N   -0.093592
     2  C    0.336507
     3  O   -0.202222
     4  C    0.568178
     5  O   -0.458130
     6  O   -0.150740
 Electronic spatial extent (au):  <R**2>=            534.2181
 Charge=              0.0000 electrons
 Dipole moment (field-independent basis, Debye):
    X=             -1.1029    Y=              2.2797    Z=              0.6226  Tot=              2.6079
 Quadrupole moment (field-independent basis, Debye-Ang):
   XX=            -30.1076   YY=            -33.8853   ZZ=            -36.3549
   XY=              0.3558   XZ=             -0.3803   YZ=              0.8023
 Traceless Quadrupole moment (field-independent basis, Debye-Ang):
   XX=              3.3417   YY=             -0.4360   ZZ=             -2.9056
   XY=              0.3558   XZ=             -0.3803   YZ=              0.8023
 Octapole moment (field-independent basis, Debye-Ang**2):
  XXX=            -21.1602  YYY=              3.7538  ZZZ=              3.1460  XYY=              7.0981
  XXY=             11.3504  XXZ=             -1.8976  XZZ=             -2.2057  YZZ=             -2.2547
  YYZ=             -2.8099  XYZ=              6.0168
 Hexadecapole moment (field-independent basis, Debye-Ang**3):
 XXXX=           -267.5778 YYYY=           -186.5595 ZZZZ=            -72.6268 XXXY=             -0.7144
 XXXZ=             -3.2424 YYYX=             -3.4642 YYYZ=              0.4784 ZZZX=              4.0569
 ZZZY=              4.7618 XXYY=            -88.2479 XXZZ=            -71.3354 YYZZ=            -48.2022
 XXYZ=              0.3766 YYXZ=             -5.1196 ZZXY=             -2.8723
 N-N= 2.519322214691D+02 E-N=-1.347919973153D+03  KE= 3.566489212400D+02
 No NMR shielding tensors so no spin-rotation constants.
 Leave Link  601 at Thu Sep  8 15:19:23 2022, MaxMem= 24159191040 cpu:        13.7
 (Enter /public/home/users/caep010/software/Gaussian09/g09/l701.exe)
 Compute integral first derivatives.
 ... and contract with generalized density number  0.
 Leave Link  701 at Thu Sep  8 15:19:23 2022, MaxMem= 24159191040 cpu:        10.1
 (Enter /public/home/users/caep010/software/Gaussian09/g09/l702.exe)
 L702 exits ... SP integral derivatives will be done elsewhere.
 Leave Link  702 at Thu Sep  8 15:19:23 2022, MaxMem= 24159191040 cpu:         0.5
 (Enter /public/home/users/caep010/software/Gaussian09/g09/l703.exe)
 Compute integral first derivatives, UseDBF=F ICtDFT=           0.
 Integral derivatives from FoFJK, PRISM(SPDF).
 Calling FoFJK, ICntrl=      2127 FMM=F ISym2X=0 I1Cent= 0 IOpClX= 0 NMat=1 NMatS=1 NMatT=0.
 FoFJK:  IHMeth= 1 ICntrl=    2127 DoSepK=F KAlg= 0 I1Cent=   0 FoldK=F
 IRaf=         0 NMat=   1 IRICut=       1 DoRegI=T DoRafI=F ISym2E= 0.
 FoFCou: FMM=F IPFlag=           0 FMFlag=      100000 FMFlg1=         800
         NFxFlg=           0 DoJE=F BraDBF=F KetDBF=F FulRan=T
         wScrn=  0.000000 ICntrl=    2127 IOpCl=  0 I1Cent=           0 NGrid=           0
         NMat0=    1 NMatS0=      1 NMatT0=    0 NMatD0=    1 NMtDS0=    0 NMtDT0=    0
 Symmetry not used in FoFCou.
 Leave Link  703 at Thu Sep  8 15:19:24 2022, MaxMem= 24159191040 cpu:        10.1
 (Enter /public/home/users/caep010/software/Gaussian09/g09/l716.exe)
 Dipole        =-4.33933320D-01 8.96906867D-01 2.44941947D-01
 ***** Axes restored to original set *****
 -------------------------------------------------------------------
 Center     Atomic                   Forces (Hartrees/Bohr)
 Number     Number              X              Y              Z
 -------------------------------------------------------------------
      1        7           0.001092410    0.000666767   -0.000136329
      2        6          -0.001219958   -0.001741972   -0.000697013
      3        8          -0.002072601    0.000930429    0.002609777
      4        6          -0.008006946   -0.005266339    0.002667906
      5        8           0.008068334    0.007628753   -0.002223757
      6        8          -0.001855311   -0.002333644    0.000456206
      7        1           0.000133454   -0.001407474   -0.000109740
      8        1          -0.001169227    0.000593844   -0.000066843
      9        1           0.000281559   -0.000077798    0.000317358
     10        1           0.001828011    0.001495602   -0.002291431
     11        1           0.002920275   -0.000488167   -0.000526134
 -------------------------------------------------------------------
 Cartesian Forces:  Max     0.008068334 RMS     0.002906269
 Leave Link  716 at Thu Sep  8 15:19:24 2022, MaxMem= 24159191040 cpu:         0.7
 (Enter /public/home/users/caep010/software/Gaussian09/g09/l103.exe)

 GradGradGradGradGradGradGradGradGradGradGradGradGradGradGradGradGradGrad
 Berny optimization.
 FormGI is forming the generalized inverse of G from B-inverse, IUseBI=4.
 Internal  Forces:  Max     0.011320823 RMS     0.002031734
 Search for a local minimum.
 Step number   1 out of a maximum of   51
 All quantities printed in internal units (Hartrees-Bohrs-Radians)
 RMS Force = .20317D-02 SwitMx=.10000D-02 MixMth= 1
 Mixed Optimization -- RFO/linear search
 Second derivative matrix not updated -- first step.
 ITU=  0
     Eigenvalues ---    0.00357   0.00824   0.00877   0.01813   0.02409
     Eigenvalues ---    0.04524   0.06211   0.06644   0.07999   0.16000
     Eigenvalues ---    0.16000   0.16000   0.16000   0.17509   0.20012
     Eigenvalues ---    0.24992   0.25000   0.29339   0.33504   0.36276
     Eigenvalues ---    0.44891   0.44988   0.47168   0.53427   0.53813
     Eigenvalues ---    0.55924   1.03234
 RFO step:  Lambda=-2.59822663D-04 EMin= 3.57007548D-03
 Linear search not attempted -- first point.
 Iteration  1 RMS(Cart)=  0.01509993 RMS(Int)=  0.00013679
 Iteration  2 RMS(Cart)=  0.00017706 RMS(Int)=  0.00001331
 Iteration  3 RMS(Cart)=  0.00000002 RMS(Int)=  0.00001331
 ITry= 1 IFail=0 DXMaxC= 4.82D-02 DCOld= 1.00D+10 DXMaxT= 3.00D-01 DXLimC= 3.00D+00 Rises=F
 Variable       Old X    -DE/DX   Delta X   Delta X   Delta X     New X
                                 (Linear)    (Quad)   (Total)
    R1        2.76952   0.00028   0.00000   0.00077   0.00077   2.77029
    R2        1.92102   0.00142   0.00000   0.00315   0.00315   1.92418
    R3        1.91990   0.00127   0.00000   0.00281   0.00281   1.92271
    R4        2.62836   0.00246   0.00000   0.00520   0.00520   2.63356
    R5        2.89301   0.00115   0.00000   0.00392   0.00392   2.89693
    R6        2.08175   0.00021   0.00000   0.00062   0.00062   2.08237
    R7        1.82903   0.00322   0.00000   0.00598   0.00598   1.83501
    R8        2.27371   0.01132   0.00000   0.01096   0.01096   2.28467
    R9        2.54320   0.00296   0.00000   0.00528   0.00528   2.54849
   R10        1.83258   0.00300   0.00000   0.00562   0.00562   1.83820
    A1        1.91904   0.00011   0.00000   0.00148   0.00148   1.92052
    A2        1.88587   0.00001   0.00000   0.00087   0.00087   1.88675
    A3        1.87578   0.00010   0.00000   0.00230   0.00229   1.87807
    A4        1.93522  -0.00007   0.00000   0.00036   0.00035   1.93557
    A5        1.85566   0.00010   0.00000   0.00060   0.00061   1.85627
    A6        1.98862   0.00026   0.00000   0.00284   0.00284   1.99146
    A7        1.92067   0.00006   0.00000   0.00015   0.00015   1.92082
    A8        1.86033   0.00000   0.00000  -0.00020  -0.00020   1.86013
    A9        1.90348  -0.00035   0.00000  -0.00389  -0.00389   1.89958
   A10        1.85986   0.00019   0.00000   0.00118   0.00118   1.86103
   A11        2.16013   0.00004   0.00000  -0.00001  -0.00006   2.16007
   A12        1.95535   0.00058   0.00000   0.00214   0.00210   1.95744
   A13        2.16725  -0.00062   0.00000  -0.00265  -0.00269   2.16455
   A14        1.86824   0.00020   0.00000   0.00127   0.00127   1.86951
    D1       -3.06209  -0.00001   0.00000   0.00866   0.00866  -3.05344
    D2        1.13364  -0.00010   0.00000   0.00791   0.00791   1.14155
    D3       -0.96344   0.00012   0.00000   0.01066   0.01066  -0.95278
    D4       -1.01969   0.00017   0.00000   0.01273   0.01273  -1.00696
    D5       -3.10714   0.00008   0.00000   0.01198   0.01199  -3.09516
    D6        1.07896   0.00030   0.00000   0.01473   0.01473   1.09369
    D7       -1.47370   0.00045   0.00000   0.02250   0.02250  -1.45119
    D8        0.57438   0.00056   0.00000   0.02356   0.02356   0.59794
    D9        2.63609   0.00018   0.00000   0.01890   0.01890   2.65499
   D10        1.87063  -0.00005   0.00000   0.01318   0.01318   1.88381
   D11       -1.23946   0.00011   0.00000   0.03081   0.03081  -1.20865
   D12       -0.22627  -0.00005   0.00000   0.01232   0.01231  -0.21396
   D13        2.94682   0.00011   0.00000   0.02994   0.02994   2.97677
   D14       -2.26117   0.00012   0.00000   0.01473   0.01472  -2.24645
   D15        0.91192   0.00028   0.00000   0.03235   0.03235   0.94428
   D16        3.08676  -0.00011   0.00000  -0.01031  -0.01030   3.07646
   D17       -0.02318   0.00004   0.00000   0.00734   0.00733  -0.01585
         Item               Value     Threshold  Converged?
 Maximum Force            0.011321     0.000450     NO 
 RMS     Force            0.002032     0.000300     NO 
 Maximum Displacement     0.048161     0.001800     NO 
 RMS     Displacement     0.015095     0.001200     NO 
 Predicted change in Energy=-1.307044D-04
 Lowest energy point so far.  Saving SCF results.
 GradGradGradGradGradGradGradGradGradGradGradGradGradGradGradGradGradGrad

 Leave Link  103 at Thu Sep  8 15:19:24 2022, MaxMem= 24159191040 cpu:         2.2
 (Enter /public/home/users/caep010/software/Gaussian09/g09/l202.exe)
                          Input orientation:                          
 ---------------------------------------------------------------------
 Center     Atomic      Atomic             Coordinates (Angstroms)
 Number     Number       Type             X           Y           Z
 ---------------------------------------------------------------------
      1          7           0       -1.138144   -0.260615   -1.391164
      2          6           0       -0.484546    0.252716   -0.183527
      3          8           0       -0.674110    1.628027   -0.062025
      4          6           0        1.008441   -0.060877   -0.334210
      5          8           0        1.851800    0.776418   -0.556371
      6          8           0        1.261342   -1.382920   -0.250720
      7          1           0       -1.063259   -1.275564   -1.423786
      8          1           0       -2.126939   -0.026498   -1.339298
      9          1           0       -0.850280   -0.198987    0.752677
     10          1           0        0.003039    2.051732   -0.614175
     11          1           0        2.212561   -1.503331   -0.414702
 ---------------------------------------------------------------------
                    Distance matrix (angstroms):
                    1          2          3          4          5
     1  N    0.000000
     2  C    1.465976   0.000000
     3  O    2.355611   1.393621   0.000000
     4  C    2.401016   1.532989   2.399471   0.000000
     5  O    3.272932   2.423177   2.711058   1.208996   0.000000
     6  O    2.884045   2.393312   3.584324   1.348602   2.259381
     7  H    1.018231   2.051534   3.230584   2.637155   3.668871
     8  H    1.017456   2.027615   2.545504   3.292718   4.133765
     9  H    2.163959   1.101941   2.008172   2.157601   3.156938
    10  H    2.693131   1.913022   0.971043   2.356338   2.246705
    11  H    3.704733   3.226690   4.273483   1.880707   2.312461
                    6          7          8          9         10
     6  O    0.000000
     7  H    2.606027   0.000000
     8  H    3.808586   1.642778   0.000000
     9  H    2.620582   2.437493   2.456821   0.000000
    10  H    3.675902   3.586553   3.062948   2.768062   0.000000
    11  H    0.972732   3.435277   4.676235   3.527759   4.190495
                   11
    11  H    0.000000
 Stoichiometry    C2H5NO3
 Framework group  C1[X(C2H5NO3)]
 Deg. of freedom    27
 Full point group                 C1      NOp   1
 RotChk:  IX=0 Diff= 8.59D-03
 Largest Abelian subgroup         C1      NOp   1
 Largest concise Abelian subgroup C1      NOp   1
                         Standard orientation:                         
 ---------------------------------------------------------------------
 Center     Atomic      Atomic             Coordinates (Angstroms)
 Number     Number       Type             X           Y           Z
 ---------------------------------------------------------------------
      1          7           0        1.143197    1.158601   -0.568796
      2          6           0        0.699798    0.145040    0.393066
      3          8           0        1.477143   -1.007450    0.294691
      4          6           0       -0.758524   -0.173074    0.043556
      5          8           0       -1.116074   -1.207421   -0.470211
      6          8           0       -1.583972    0.857042    0.319642
      7          1           0        0.623043    2.022817   -0.429645
      8          1           0        2.124567    1.357649   -0.388494
      9          1           0        0.750899    0.469911    1.444789
     10          1           0        1.106931   -1.530940   -0.434574
     11          1           0       -2.472247    0.601197    0.016791
 ---------------------------------------------------------------------
 Rotational constants (GHZ):      5.3133761      3.2706245      2.3135650
 Leave Link  202 at Thu Sep  8 15:19:24 2022, MaxMem= 24159191040 cpu:         0.3
 (Enter /public/home/users/caep010/software/Gaussian09/g09/l301.exe)
 Standard basis: 6-31G(d,p) (6D, 7F)
 Ernie: Thresh=  0.10000D-02 Tol=  0.10000D-05 Strict=F.
 There are   115 symmetry adapted cartesian basis functions of A   symmetry.
 There are   115 symmetry adapted basis functions of A   symmetry.
   115 basis functions,   203 primitive gaussians,   115 cartesian basis functions
    24 alpha electrons       24 beta electrons
       nuclear repulsion energy       251.4469973315 Hartrees.
 IExCor=  402 DFT=T Ex+Corr=B3LYP ExCW=0 ScaHFX=  0.200000
 ScaDFX=  0.800000  0.720000  1.000000  0.810000 ScalE2=  1.000000  1.000000
 IRadAn=      0 IRanWt=     -1 IRanGd=            0 ICorTp=0 IEmpDi=  4
 NAtoms=   11 NActive=   11 NUniq=   11 SFac= 1.00D+00 NAtFMM=   60 NAOKFM=F Big=F
 Integral buffers will be    131072 words long.
 Raffenetti 2 integral format.
 Two-electron integral symmetry is turned on.
 Leave Link  301 at Thu Sep  8 15:19:24 2022, MaxMem= 24159191040 cpu:         1.6
 (Enter /public/home/users/caep010/software/Gaussian09/g09/l302.exe)
 NPDir=0 NMtPBC=     1 NCelOv=     1 NCel=       1 NClECP=     1 NCelD=      1
         NCelK=      1 NCelE2=     1 NClLst=     1 CellRange=     0.0.
 One-electron integrals computed using PRISM.
 NBasis=   115 RedAO= T EigKep=  2.67D-03  NBF=   115
 NBsUse=   115 1.00D-06 EigRej= -1.00D+00 NBFU=   115
 Precomputing XC quadrature grid using
 IXCGrd= 4 IRadAn=           0 IRanWt=          -1 IRanGd=           0 AccXCQ= 0.00D+00.
 Generated NRdTot=       0 NPtTot=           0 NUsed=           0 NTot=          32
 NSgBfM=   115   115   115   115   115 MxSgAt=    11 MxSgA2=    11.
 Leave Link  302 at Thu Sep  8 15:19:24 2022, MaxMem= 24159191040 cpu:        11.2
 (Enter /public/home/users/caep010/software/Gaussian09/g09/l303.exe)
 DipDrv:  MaxL=1.
 Leave Link  303 at Thu Sep  8 15:19:24 2022, MaxMem= 24159191040 cpu:         0.6
 (Enter /public/home/users/caep010/software/Gaussian09/g09/l401.exe)
 Initial guess from the checkpoint file:  "B3LYP6-31Gdp.Frag_742.chk"
 B after Tr=    -0.000000   -0.000000    0.000000
         Rot=    0.999999   -0.000088   -0.000796   -0.000981 Ang=  -0.15 deg.
 Guess basis will be translated and rotated to current coordinates.
 JPrj=2 DoOrth=T DoCkMO=T.
 Generating alternative initial guess.
 ExpMin= 1.61D-01 ExpMax= 5.48D+03 ExpMxC= 8.25D+02 IAcc=1 IRadAn=         1 AccDes= 0.00D+00
 Harris functional with IExCor=  402 and IRadAn=       1 diagonalized for initial guess.
 HarFok:  IExCor=  402 AccDes= 0.00D+00 IRadAn=         1 IDoV= 1 UseB2=F ITyADJ=14
 ICtDFT=  3500011 ScaDFX=  1.000000  1.000000  1.000000  1.000000
 FoFCou: FMM=F IPFlag=           0 FMFlag=      100000 FMFlg1=           0
         NFxFlg=           0 DoJE=T BraDBF=F KetDBF=T FulRan=T
         wScrn=  0.000000 ICntrl=     500 IOpCl=  0 I1Cent=   200000004 NGrid=           0
         NMat0=    1 NMatS0=      1 NMatT0=    0 NMatD0=    1 NMtDS0=    0 NMtDT0=    0
 Petite list used in FoFCou.
 Harris En= -359.670823007218    
 Leave Link  401 at Thu Sep  8 15:19:25 2022, MaxMem= 24159191040 cpu:        11.2
 (Enter /public/home/users/caep010/software/Gaussian09/g09/l502.exe)
 Closed shell SCF:
 Using DIIS extrapolation, IDIIS=  1040.
 Integral symmetry usage will be decided dynamically.
 Keep R1 ints in memory in canonical form, NReq=23246264.
 IVT=       62771 IEndB=       62771 NGot= 24159191040 MDV= 24136880485
 LenX= 24136880485 LenY= 24136866819
 Requested convergence on RMS density matrix=1.00D-08 within 128 cycles.
 Requested convergence on MAX density matrix=1.00D-06.
 Requested convergence on             energy=1.00D-06.
 No special actions if energy rises.
 FoFCou: FMM=F IPFlag=           0 FMFlag=           0 FMFlg1=           0
         NFxFlg=           0 DoJE=F BraDBF=F KetDBF=F FulRan=T
         wScrn=  0.000000 ICntrl=     600 IOpCl=  0 I1Cent=           0 NGrid=           0
         NMat0=    1 NMatS0=   6670 NMatT0=    0 NMatD0=    1 NMtDS0=    0 NMtDT0=    0
 Symmetry not used in FoFCou.
 Integral accuracy reduced to 1.0D-05 until final iterations.

 Cycle   1  Pass 0  IDiag  1:
 E= -359.653067867522    
 DIIS: error= 7.76D-04 at cycle   1 NSaved=   1.
 NSaved= 1 IEnMin= 1 EnMin= -359.653067867522     IErMin= 1 ErrMin= 7.76D-04
 ErrMax= 7.76D-04  0.00D+00 EMaxC= 1.00D-01 BMatC= 2.41D-04 BMatP= 2.41D-04
 IDIUse=3 WtCom= 9.92D-01 WtEn= 7.76D-03
 Coeff-Com:  0.100D+01
 Coeff-En:   0.100D+01
 Coeff:      0.100D+01
 Gap=     1.599 Goal=   None    Shift=    0.000
 RMSDP=2.39D-04 MaxDP=2.98D-03              OVMax= 5.25D-03

 Cycle   2  Pass 0  IDiag  1:
 E= -359.653466793510     Delta-E=       -0.000398925988 Rises=F Damp=F
 DIIS: error= 2.40D-04 at cycle   2 NSaved=   2.
 NSaved= 2 IEnMin= 2 EnMin= -359.653466793510     IErMin= 2 ErrMin= 2.40D-04
 ErrMax= 2.40D-04  0.00D+00 EMaxC= 1.00D-01 BMatC= 9.90D-06 BMatP= 2.41D-04
 IDIUse=3 WtCom= 9.98D-01 WtEn= 2.40D-03
 Coeff-Com:  0.355D-02 0.996D+00
 Coeff-En:   0.000D+00 0.100D+01
 Coeff:      0.354D-02 0.996D+00
 Gap=     0.248 Goal=   None    Shift=    0.000
 RMSDP=5.61D-05 MaxDP=1.43D-03 DE=-3.99D-04 OVMax= 2.17D-03

 Cycle   3  Pass 0  IDiag  1:
 E= -359.653461675986     Delta-E=        0.000005117524 Rises=F Damp=F
 DIIS: error= 3.39D-04 at cycle   3 NSaved=   3.
 NSaved= 3 IEnMin= 2 EnMin= -359.653466793510     IErMin= 2 ErrMin= 2.40D-04
 ErrMax= 3.39D-04  0.00D+00 EMaxC= 1.00D-01 BMatC= 2.04D-05 BMatP= 9.90D-06
 IDIUse=3 WtCom= 3.52D-01 WtEn= 6.48D-01
 Coeff-Com: -0.352D-01 0.619D+00 0.416D+00
 Coeff-En:   0.000D+00 0.610D+00 0.390D+00
 Coeff:     -0.124D-01 0.613D+00 0.399D+00
 Gap=     0.249 Goal=   None    Shift=    0.000
 RMSDP=3.56D-05 MaxDP=1.19D-03 DE= 5.12D-06 OVMax= 1.91D-03

 Cycle   4  Pass 0  IDiag  1:
 E= -359.653475758044     Delta-E=       -0.000014082058 Rises=F Damp=F
 DIIS: error= 8.67D-05 at cycle   4 NSaved=   4.
 NSaved= 4 IEnMin= 4 EnMin= -359.653475758044     IErMin= 4 ErrMin= 8.67D-05
 ErrMax= 8.67D-05  0.00D+00 EMaxC= 1.00D-01 BMatC= 1.53D-06 BMatP= 9.90D-06
 IDIUse=1 WtCom= 1.00D+00 WtEn= 0.00D+00
 Coeff-Com: -0.208D-01 0.253D+00 0.256D+00 0.512D+00
 Coeff:     -0.208D-01 0.253D+00 0.256D+00 0.512D+00
 Gap=     0.249 Goal=   None    Shift=    0.000
 RMSDP=9.08D-06 MaxDP=2.02D-04 DE=-1.41D-05 OVMax= 4.28D-04

 Initial convergence to 1.0D-05 achieved.  Increase integral accuracy.
 Cycle   5  Pass 1  IDiag  1:
 E= -359.653483165808     Delta-E=       -0.000007407764 Rises=F Damp=F
 DIIS: error= 1.01D-05 at cycle   1 NSaved=   1.
 NSaved= 1 IEnMin= 1 EnMin= -359.653483165808     IErMin= 1 ErrMin= 1.01D-05
 ErrMax= 1.01D-05  0.00D+00 EMaxC= 1.00D-01 BMatC= 4.18D-08 BMatP= 4.18D-08
 IDIUse=1 WtCom= 1.00D+00 WtEn= 0.00D+00
 Coeff-Com:  0.100D+01
 Coeff:      0.100D+01
 Gap=     0.249 Goal=   None    Shift=    0.000
 RMSDP=9.08D-06 MaxDP=2.02D-04 DE=-7.41D-06 OVMax= 7.39D-05

 Cycle   6  Pass 1  IDiag  1:
 E= -359.653483169041     Delta-E=       -0.000000003233 Rises=F Damp=F
 DIIS: error= 1.30D-05 at cycle   2 NSaved=   2.
 NSaved= 2 IEnMin= 2 EnMin= -359.653483169041     IErMin= 1 ErrMin= 1.01D-05
 ErrMax= 1.30D-05  0.00D+00 EMaxC= 1.00D-01 BMatC= 4.93D-08 BMatP= 4.18D-08
 IDIUse=1 WtCom= 1.00D+00 WtEn= 0.00D+00
 Coeff-Com:  0.523D+00 0.477D+00
 Coeff:      0.523D+00 0.477D+00
 Gap=     0.249 Goal=   None    Shift=    0.000
 RMSDP=1.94D-06 MaxDP=4.07D-05 DE=-3.23D-09 OVMax= 7.21D-05

 Cycle   7  Pass 1  IDiag  1:
 E= -359.653483204478     Delta-E=       -0.000000035437 Rises=F Damp=F
 DIIS: error= 5.42D-06 at cycle   3 NSaved=   3.
 NSaved= 3 IEnMin= 3 EnMin= -359.653483204478     IErMin= 3 ErrMin= 5.42D-06
 ErrMax= 5.42D-06  0.00D+00 EMaxC= 1.00D-01 BMatC= 6.71D-09 BMatP= 4.18D-08
 IDIUse=1 WtCom= 1.00D+00 WtEn= 0.00D+00
 Coeff-Com:  0.215D+00 0.291D+00 0.494D+00
 Coeff:      0.215D+00 0.291D+00 0.494D+00
 Gap=     0.249 Goal=   None    Shift=    0.000
 RMSDP=7.16D-07 MaxDP=2.25D-05 DE=-3.54D-08 OVMax= 3.84D-05

 Cycle   8  Pass 1  IDiag  1:
 E= -359.653483208905     Delta-E=       -0.000000004427 Rises=F Damp=F
 DIIS: error= 2.17D-06 at cycle   4 NSaved=   4.
 NSaved= 4 IEnMin= 4 EnMin= -359.653483208905     IErMin= 4 ErrMin= 2.17D-06
 ErrMax= 2.17D-06  0.00D+00 EMaxC= 1.00D-01 BMatC= 9.31D-10 BMatP= 6.71D-09
 IDIUse=1 WtCom= 1.00D+00 WtEn= 0.00D+00
 Coeff-Com: -0.433D-02 0.543D-01 0.298D+00 0.652D+00
 Coeff:     -0.433D-02 0.543D-01 0.298D+00 0.652D+00
 Gap=     0.249 Goal=   None    Shift=    0.000
 RMSDP=2.61D-07 MaxDP=7.24D-06 DE=-4.43D-09 OVMax= 1.07D-05

 Cycle   9  Pass 1  IDiag  1:
 E= -359.653483209579     Delta-E=       -0.000000000675 Rises=F Damp=F
 DIIS: error= 5.06D-07 at cycle   5 NSaved=   5.
 NSaved= 5 IEnMin= 5 EnMin= -359.653483209579     IErMin= 5 ErrMin= 5.06D-07
 ErrMax= 5.06D-07  0.00D+00 EMaxC= 1.00D-01 BMatC= 8.35D-11 BMatP= 9.31D-10
 IDIUse=1 WtCom= 1.00D+00 WtEn= 0.00D+00
 Coeff-Com: -0.129D-01 0.182D-01 0.154D+00 0.382D+00 0.458D+00
 Coeff:     -0.129D-01 0.182D-01 0.154D+00 0.382D+00 0.458D+00
 Gap=     0.249 Goal=   None    Shift=    0.000
 RMSDP=6.64D-08 MaxDP=1.72D-06 DE=-6.75D-10 OVMax= 1.85D-06

 Cycle  10  Pass 1  IDiag  1:
 E= -359.653483209641     Delta-E=       -0.000000000062 Rises=F Damp=F
 DIIS: error= 5.90D-08 at cycle   6 NSaved=   6.
 NSaved= 6 IEnMin= 6 EnMin= -359.653483209641     IErMin= 6 ErrMin= 5.90D-08
 ErrMax= 5.90D-08  0.00D+00 EMaxC= 1.00D-01 BMatC= 1.20D-12 BMatP= 8.35D-11
 IDIUse=1 WtCom= 1.00D+00 WtEn= 0.00D+00
 Coeff-Com: -0.228D-02-0.119D-02 0.568D-02 0.154D-01 0.103D+00 0.880D+00
 Coeff:     -0.228D-02-0.119D-02 0.568D-02 0.154D-01 0.103D+00 0.880D+00
 Gap=     0.249 Goal=   None    Shift=    0.000
 RMSDP=1.49D-08 MaxDP=2.56D-07 DE=-6.17D-11 OVMax= 8.04D-07

 Cycle  11  Pass 1  IDiag  1:
 E= -359.653483209645     Delta-E=       -0.000000000004 Rises=F Damp=F
 DIIS: error= 1.74D-08 at cycle   7 NSaved=   7.
 NSaved= 7 IEnMin= 7 EnMin= -359.653483209645     IErMin= 7 ErrMin= 1.74D-08
 ErrMax= 1.74D-08  0.00D+00 EMaxC= 1.00D-01 BMatC= 1.17D-13 BMatP= 1.20D-12
 IDIUse=1 WtCom= 1.00D+00 WtEn= 0.00D+00
 Coeff-Com:  0.203D-03-0.151D-02-0.912D-02-0.210D-01 0.752D-03 0.275D+00
 Coeff-Com:  0.756D+00
 Coeff:      0.203D-03-0.151D-02-0.912D-02-0.210D-01 0.752D-03 0.275D+00
 Coeff:      0.756D+00
 Gap=     0.249 Goal=   None    Shift=    0.000
 RMSDP=4.66D-09 MaxDP=9.08D-08 DE=-4.32D-12 OVMax= 1.99D-07

 SCF Done:  E(RB3LYP) =  -359.653483210     A.U. after   11 cycles
            NFock= 11  Conv=0.47D-08     -V/T= 2.0086
 KE= 3.565902048674D+02 PE=-1.346925042019D+03 EE= 3.792343566106D+02
 Leave Link  502 at Thu Sep  8 15:19:26 2022, MaxMem= 24159191040 cpu:        31.0
 (Enter /public/home/users/caep010/software/Gaussian09/g09/l701.exe)
 Compute integral first derivatives.
 ... and contract with generalized density number  0.
 Leave Link  701 at Thu Sep  8 15:19:27 2022, MaxMem= 24159191040 cpu:        10.4
 (Enter /public/home/users/caep010/software/Gaussian09/g09/l702.exe)
 L702 exits ... SP integral derivatives will be done elsewhere.
 Leave Link  702 at Thu Sep  8 15:19:27 2022, MaxMem= 24159191040 cpu:         0.5
 (Enter /public/home/users/caep010/software/Gaussian09/g09/l703.exe)
 Compute integral first derivatives, UseDBF=F ICtDFT=           0.
 Integral derivatives from FoFJK, PRISM(SPDF).
 Calling FoFJK, ICntrl=      2127 FMM=F ISym2X=0 I1Cent= 0 IOpClX= 0 NMat=1 NMatS=1 NMatT=0.
 FoFJK:  IHMeth= 1 ICntrl=    2127 DoSepK=F KAlg= 0 I1Cent=   0 FoldK=F
 IRaf=         0 NMat=   1 IRICut=       1 DoRegI=T DoRafI=F ISym2E= 0.
 FoFCou: FMM=F IPFlag=           0 FMFlag=      100000 FMFlg1=         800
         NFxFlg=           0 DoJE=F BraDBF=F KetDBF=F FulRan=T
         wScrn=  0.000000 ICntrl=    2127 IOpCl=  0 I1Cent=           0 NGrid=           0
         NMat0=    1 NMatS0=      1 NMatT0=    0 NMatD0=    1 NMtDS0=    0 NMtDT0=    0
 Symmetry not used in FoFCou.
 Leave Link  703 at Thu Sep  8 15:19:27 2022, MaxMem= 24159191040 cpu:         9.7
 (Enter /public/home/users/caep010/software/Gaussian09/g09/l716.exe)
 Dipole        =-4.12049139D-01 9.08351744D-01 2.36254936D-01
 ***** Axes restored to original set *****
 -------------------------------------------------------------------
 Center     Atomic                   Forces (Hartrees/Bohr)
 Number     Number              X              Y              Z
 -------------------------------------------------------------------
      1        7           0.000420641    0.000039774    0.000237347
      2        6           0.000035174   -0.000608930   -0.000291237
      3        8          -0.000061905    0.000107255    0.000727742
      4        6          -0.001240642   -0.000776210   -0.001609709
      5        8           0.001046558    0.000666454    0.000398739
      6        8          -0.000135818   -0.000117917    0.000713546
      7        1           0.000040663    0.000152333    0.000013972
      8        1           0.000109598    0.000159128    0.000097784
      9        1          -0.000135019    0.000292529    0.000070334
     10        1          -0.000142409   -0.000247454   -0.000332231
     11        1           0.000063160    0.000333038   -0.000026287
 -------------------------------------------------------------------
 Cartesian Forces:  Max     0.001609709 RMS     0.000513385
 Leave Link  716 at Thu Sep  8 15:19:27 2022, MaxMem= 24159191040 cpu:         0.6
 (Enter /public/home/users/caep010/software/Gaussian09/g09/l103.exe)

 GradGradGradGradGradGradGradGradGradGradGradGradGradGradGradGradGradGrad
 Berny optimization.
 Using GEDIIS/GDIIS optimizer.
 FormGI is forming the generalized inverse of G from B-inverse, IUseBI=4.
 Internal  Forces:  Max     0.001118597 RMS     0.000316886
 Search for a local minimum.
 Step number   2 out of a maximum of   51
 All quantities printed in internal units (Hartrees-Bohrs-Radians)
 RMS Force = .31689D-03 SwitMx=.10000D-02 MixMth= 2
 Mixed Optimization -- En-DIIS/RFO-DIIS
 Update second derivatives using D2CorX and points    1    2
 DE= -1.24D-04 DEPred=-1.31D-04 R= 9.47D-01
 TightC=F SS=  1.41D+00  RLast= 7.82D-02 DXNew= 5.0454D-01 2.3451D-01
 Trust test= 9.47D-01 RLast= 7.82D-02 DXMaxT set to 3.00D-01
 ITU=  1  0
 Use linear search instead of GDIIS.
     Eigenvalues ---    0.00372   0.00784   0.01087   0.01693   0.02410
     Eigenvalues ---    0.04498   0.06240   0.06634   0.07958   0.15985
     Eigenvalues ---    0.16000   0.16000   0.16170   0.17504   0.20039
     Eigenvalues ---    0.24752   0.25055   0.29533   0.33506   0.36313
     Eigenvalues ---    0.44941   0.45139   0.47299   0.53223   0.53761
     Eigenvalues ---    0.56293   0.92835
 RFO step:  Lambda=-1.26021577D-04 EMin= 3.72400797D-03
 Quartic linear search produced a step of -0.04009.
 Iteration  1 RMS(Cart)=  0.01808207 RMS(Int)=  0.00031073
 Iteration  2 RMS(Cart)=  0.00032228 RMS(Int)=  0.00018760
 Iteration  3 RMS(Cart)=  0.00000005 RMS(Int)=  0.00018760
 ITry= 1 IFail=0 DXMaxC= 5.32D-02 DCOld= 1.00D+10 DXMaxT= 3.00D-01 DXLimC= 3.00D+00 Rises=F
 Variable       Old X    -DE/DX   Delta X   Delta X   Delta X     New X
                                 (Linear)    (Quad)   (Total)
    R1        2.77029  -0.00067  -0.00003  -0.00136  -0.00139   2.76890
    R2        1.92418  -0.00015  -0.00013   0.00135   0.00122   1.92540
    R3        1.92271  -0.00006  -0.00011   0.00135   0.00124   1.92395
    R4        2.63356  -0.00008  -0.00021   0.00260   0.00239   2.63595
    R5        2.89693  -0.00023  -0.00016   0.00132   0.00116   2.89809
    R6        2.08237  -0.00002  -0.00002   0.00028   0.00026   2.08263
    R7        1.83501  -0.00002  -0.00024   0.00313   0.00289   1.83790
    R8        2.28467   0.00112  -0.00044   0.00684   0.00640   2.29107
    R9        2.54849  -0.00018  -0.00021   0.00248   0.00227   2.55076
   R10        1.83820   0.00002  -0.00023   0.00302   0.00279   1.84099
    A1        1.92052  -0.00000  -0.00006   0.00081   0.00075   1.92127
    A2        1.88675  -0.00027  -0.00003  -0.00110  -0.00114   1.88561
    A3        1.87807   0.00014  -0.00009   0.00216   0.00206   1.88014
    A4        1.93557   0.00002  -0.00001  -0.00006  -0.00007   1.93550
    A5        1.85627  -0.00019  -0.00002  -0.00014  -0.00017   1.85610
    A6        1.99146   0.00022  -0.00011   0.00376   0.00364   1.99510
    A7        1.92082   0.00012  -0.00001   0.00033   0.00032   1.92114
    A8        1.86013  -0.00026   0.00001  -0.00311  -0.00311   1.85702
    A9        1.89958   0.00011   0.00016  -0.00077  -0.00062   1.89896
   A10        1.86103  -0.00048  -0.00005  -0.00225  -0.00229   1.85874
   A11        2.16007   0.00031   0.00000   0.00215   0.00146   2.16153
   A12        1.95744   0.00001  -0.00008   0.00223   0.00146   1.95890
   A13        2.16455  -0.00028   0.00011  -0.00136  -0.00194   2.16261
   A14        1.86951  -0.00062  -0.00005  -0.00306  -0.00311   1.86640
    D1       -3.05344   0.00009  -0.00035   0.00770   0.00735  -3.04608
    D2        1.14155   0.00004  -0.00032   0.00743   0.00711   1.14866
    D3       -0.95278  -0.00008  -0.00043   0.00625   0.00582  -0.94697
    D4       -1.00696   0.00010  -0.00051   0.01010   0.00959  -0.99737
    D5       -3.09516   0.00006  -0.00048   0.00982   0.00934  -3.08581
    D6        1.09369  -0.00007  -0.00059   0.00865   0.00806   1.10175
    D7       -1.45119   0.00029  -0.00090   0.02313   0.02223  -1.42897
    D8        0.59794   0.00014  -0.00094   0.02312   0.02217   0.62011
    D9        2.65499   0.00019  -0.00076   0.02060   0.01984   2.67482
   D10        1.88381   0.00020  -0.00053   0.02437   0.02386   1.90767
   D11       -1.20865  -0.00049  -0.00124  -0.04176  -0.04301  -1.25166
   D12       -0.21396   0.00022  -0.00049   0.02435   0.02387  -0.19009
   D13        2.97677  -0.00047  -0.00120  -0.04179  -0.04300   2.93376
   D14       -2.24645   0.00040  -0.00059   0.02836   0.02779  -2.21866
   D15        0.94428  -0.00029  -0.00130  -0.03777  -0.03909   0.90519
   D16        3.07646   0.00037   0.00041   0.03306   0.03341   3.10987
   D17       -0.01585  -0.00034  -0.00029  -0.03339  -0.03362  -0.04948
         Item               Value     Threshold  Converged?
 Maximum Force            0.001119     0.000450     NO 
 RMS     Force            0.000317     0.000300     NO 
 Maximum Displacement     0.053239     0.001800     NO 
 RMS     Displacement     0.018009     0.001200     NO 
 Predicted change in Energy=-6.435523D-05
 Lowest energy point so far.  Saving SCF results.
 GradGradGradGradGradGradGradGradGradGradGradGradGradGradGradGradGradGrad

 Leave Link  103 at Thu Sep  8 15:19:27 2022, MaxMem= 24159191040 cpu:         1.9
 (Enter /public/home/users/caep010/software/Gaussian09/g09/l202.exe)
                          Input orientation:                          
 ---------------------------------------------------------------------
 Center     Atomic      Atomic             Coordinates (Angstroms)
 Number     Number       Type             X           Y           Z
 ---------------------------------------------------------------------
      1          7           0       -1.148315   -0.253528   -1.394415
      2          6           0       -0.482609    0.246846   -0.188849
      3          8           0       -0.670511    1.622149   -0.051238
      4          6           0        1.009130   -0.066275   -0.358015
      5          8           0        1.857649    0.776466   -0.557192
      6          8           0        1.271114   -1.384943   -0.237804
      7          1           0       -1.080620   -1.269331   -1.435356
      8          1           0       -2.135197   -0.010875   -1.333327
      9          1           0       -0.837585   -0.211042    0.748651
     10          1           0       -0.010269    2.049712   -0.623227
     11          1           0        2.227114   -1.499078   -0.386529
 ---------------------------------------------------------------------
                    Distance matrix (angstroms):
                    1          2          3          4          5
     1  N    0.000000
     2  C    1.465240   0.000000
     3  O    2.355968   1.394884   0.000000
     4  C    2.400783   1.533606   2.401266   0.000000
     5  O    3.285978   2.427547   2.713441   1.212382   0.000000
     6  O    2.910581   2.395970   3.584315   1.349803   2.262238
     7  H    1.018879   2.051875   3.231815   2.641034   3.686446
     8  H    1.018110   2.026647   2.540831   3.292582   4.143080
     9  H    2.165892   1.102078   2.007069   2.157782   3.153520
    10  H    2.682311   1.913665   0.972574   2.363665   2.261555
    11  H    3.736409   3.229540   4.272085   1.880751   2.311651
                    6          7          8          9         10
     6  O    0.000000
     7  H    2.641618   0.000000
     8  H    3.832909   1.645070   0.000000
     9  H    2.607249   2.439042   2.461402   0.000000
    10  H    3.686101   3.580677   3.043941   2.770832   0.000000
    11  H    0.974209   3.477632   4.705416   3.512841   4.201883
                   11
    11  H    0.000000
 Stoichiometry    C2H5NO3
 Framework group  C1[X(C2H5NO3)]
 Deg. of freedom    27
 Full point group                 C1      NOp   1
 RotChk:  IX=0 Diff= 1.17D-02
 Largest Abelian subgroup         C1      NOp   1
 Largest concise Abelian subgroup C1      NOp   1
                         Standard orientation:                         
 ---------------------------------------------------------------------
 Center     Atomic      Atomic             Coordinates (Angstroms)
 Number     Number       Type             X           Y           Z
 ---------------------------------------------------------------------
      1          7           0        1.168246    1.147032   -0.570268
      2          6           0        0.698524    0.144924    0.389977
      3          8           0        1.464016   -1.018373    0.309576
      4          6           0       -0.758826   -0.157360    0.020247
      5          8           0       -1.127714   -1.201736   -0.472776
      6          8           0       -1.586079    0.864159    0.327037
      7          1           0        0.661480    2.021239   -0.439638
      8          1           0        2.152165    1.327913   -0.381234
      9          1           0        0.737773    0.471145    1.441935
     10          1           0        1.109408   -1.531310   -0.436782
     11          1           0       -2.478512    0.603999    0.035552
 ---------------------------------------------------------------------
 Rotational constants (GHZ):      5.3107614      3.2470954      2.3061602
 Leave Link  202 at Thu Sep  8 15:19:27 2022, MaxMem= 24159191040 cpu:         0.3
 (Enter /public/home/users/caep010/software/Gaussian09/g09/l301.exe)
 Standard basis: 6-31G(d,p) (6D, 7F)
 Ernie: Thresh=  0.10000D-02 Tol=  0.10000D-05 Strict=F.
 There are   115 symmetry adapted cartesian basis functions of A   symmetry.
 There are   115 symmetry adapted basis functions of A   symmetry.
   115 basis functions,   203 primitive gaussians,   115 cartesian basis functions
    24 alpha electrons       24 beta electrons
       nuclear repulsion energy       251.0886268316 Hartrees.
 IExCor=  402 DFT=T Ex+Corr=B3LYP ExCW=0 ScaHFX=  0.200000
 ScaDFX=  0.800000  0.720000  1.000000  0.810000 ScalE2=  1.000000  1.000000
 IRadAn=      0 IRanWt=     -1 IRanGd=            0 ICorTp=0 IEmpDi=  4
 NAtoms=   11 NActive=   11 NUniq=   11 SFac= 1.00D+00 NAtFMM=   60 NAOKFM=F Big=F
 Integral buffers will be    131072 words long.
 Raffenetti 2 integral format.
 Two-electron integral symmetry is turned on.
 Leave Link  301 at Thu Sep  8 15:19:28 2022, MaxMem= 24159191040 cpu:         1.7
 (Enter /public/home/users/caep010/software/Gaussian09/g09/l302.exe)
 NPDir=0 NMtPBC=     1 NCelOv=     1 NCel=       1 NClECP=     1 NCelD=      1
         NCelK=      1 NCelE2=     1 NClLst=     1 CellRange=     0.0.
 One-electron integrals computed using PRISM.
 NBasis=   115 RedAO= T EigKep=  2.63D-03  NBF=   115
 NBsUse=   115 1.00D-06 EigRej= -1.00D+00 NBFU=   115
 Precomputing XC quadrature grid using
 IXCGrd= 4 IRadAn=           0 IRanWt=          -1 IRanGd=           0 AccXCQ= 0.00D+00.
 Generated NRdTot=       0 NPtTot=           0 NUsed=           0 NTot=          32
 NSgBfM=   115   115   115   115   115 MxSgAt=    11 MxSgA2=    11.
 Leave Link  302 at Thu Sep  8 15:19:28 2022, MaxMem= 24159191040 cpu:        14.7
 (Enter /public/home/users/caep010/software/Gaussian09/g09/l303.exe)
 DipDrv:  MaxL=1.
 Leave Link  303 at Thu Sep  8 15:19:28 2022, MaxMem= 24159191040 cpu:         0.7
 (Enter /public/home/users/caep010/software/Gaussian09/g09/l401.exe)
 Initial guess from the checkpoint file:  "B3LYP6-31Gdp.Frag_742.chk"
 B after Tr=    -0.000000    0.000000   -0.000000
         Rot=    0.999990    0.000630    0.001686    0.004211 Ang=   0.52 deg.
 Guess basis will be translated and rotated to current coordinates.
 JPrj=2 DoOrth=T DoCkMO=T.
 Generating alternative initial guess.
 ExpMin= 1.61D-01 ExpMax= 5.48D+03 ExpMxC= 8.25D+02 IAcc=1 IRadAn=         1 AccDes= 0.00D+00
 Harris functional with IExCor=  402 and IRadAn=       1 diagonalized for initial guess.
 HarFok:  IExCor=  402 AccDes= 0.00D+00 IRadAn=         1 IDoV= 1 UseB2=F ITyADJ=14
 ICtDFT=  3500011 ScaDFX=  1.000000  1.000000  1.000000  1.000000
 FoFCou: FMM=F IPFlag=           0 FMFlag=      100000 FMFlg1=           0
         NFxFlg=           0 DoJE=T BraDBF=F KetDBF=T FulRan=T
         wScrn=  0.000000 ICntrl=     500 IOpCl=  0 I1Cent=   200000004 NGrid=           0
         NMat0=    1 NMatS0=      1 NMatT0=    0 NMatD0=    1 NMtDS0=    0 NMtDT0=    0
 Petite list used in FoFCou.
 Harris En= -359.670636959054    
 Leave Link  401 at Thu Sep  8 15:19:29 2022, MaxMem= 24159191040 cpu:        11.1
 (Enter /public/home/users/caep010/software/Gaussian09/g09/l502.exe)
 Closed shell SCF:
 Using DIIS extrapolation, IDIIS=  1040.
 Integral symmetry usage will be decided dynamically.
 Keep R1 ints in memory in canonical form, NReq=23246264.
 IVT=       62771 IEndB=       62771 NGot= 24159191040 MDV= 24136880485
 LenX= 24136880485 LenY= 24136866819
 Requested convergence on RMS density matrix=1.00D-08 within 128 cycles.
 Requested convergence on MAX density matrix=1.00D-06.
 Requested convergence on             energy=1.00D-06.
 No special actions if energy rises.
 FoFCou: FMM=F IPFlag=           0 FMFlag=           0 FMFlg1=           0
         NFxFlg=           0 DoJE=F BraDBF=F KetDBF=F FulRan=T
         wScrn=  0.000000 ICntrl=     600 IOpCl=  0 I1Cent=           0 NGrid=           0
         NMat0=    1 NMatS0=   6670 NMatT0=    0 NMatD0=    1 NMtDS0=    0 NMtDT0=    0
 Symmetry not used in FoFCou.
 Integral accuracy reduced to 1.0D-05 until final iterations.

 Cycle   1  Pass 0  IDiag  1:
 E= -359.652435237557    
 DIIS: error= 1.66D-03 at cycle   1 NSaved=   1.
 NSaved= 1 IEnMin= 1 EnMin= -359.652435237557     IErMin= 1 ErrMin= 1.66D-03
 ErrMax= 1.66D-03  0.00D+00 EMaxC= 1.00D-01 BMatC= 5.17D-04 BMatP= 5.17D-04
 IDIUse=3 WtCom= 9.83D-01 WtEn= 1.66D-02
 Coeff-Com:  0.100D+01
 Coeff-En:   0.100D+01
 Coeff:      0.100D+01
 Gap=     1.604 Goal=   None    Shift=    0.000
 GapD=    1.604 DampG=2.000 DampE=1.000 DampFc=2.0000 IDamp=-1.
 RMSDP=4.13D-04 MaxDP=7.03D-03              OVMax= 8.52D-03

 Cycle   2  Pass 0  IDiag  1:
 E= -359.653331501713     Delta-E=       -0.000896264156 Rises=F Damp=F
 DIIS: error= 2.17D-04 at cycle   2 NSaved=   2.
 NSaved= 2 IEnMin= 2 EnMin= -359.653331501713     IErMin= 2 ErrMin= 2.17D-04
 ErrMax= 2.17D-04  0.00D+00 EMaxC= 1.00D-01 BMatC= 1.34D-05 BMatP= 5.17D-04
 IDIUse=3 WtCom= 9.98D-01 WtEn= 2.17D-03
 Coeff-Com: -0.409D-01 0.104D+01
 Coeff-En:   0.000D+00 0.100D+01
 Coeff:     -0.408D-01 0.104D+01
 Gap=     0.248 Goal=   None    Shift=    0.000
 RMSDP=6.20D-05 MaxDP=1.21D-03 DE=-8.96D-04 OVMax= 1.57D-03

 Cycle   3  Pass 0  IDiag  1:
 E= -359.653330458456     Delta-E=        0.000001043257 Rises=F Damp=F
 DIIS: error= 2.58D-04 at cycle   3 NSaved=   3.
 NSaved= 3 IEnMin= 2 EnMin= -359.653331501713     IErMin= 2 ErrMin= 2.17D-04
 ErrMax= 2.58D-04  0.00D+00 EMaxC= 1.00D-01 BMatC= 2.38D-05 BMatP= 1.34D-05
 IDIUse=3 WtCom= 3.84D-01 WtEn= 6.16D-01
 Coeff-Com: -0.438D-01 0.623D+00 0.421D+00
 Coeff-En:   0.000D+00 0.521D+00 0.479D+00
 Coeff:     -0.168D-01 0.560D+00 0.457D+00
 Gap=     0.249 Goal=   None    Shift=    0.000
 RMSDP=4.04D-05 MaxDP=1.17D-03 DE= 1.04D-06 OVMax= 1.43D-03

 Cycle   4  Pass 0  IDiag  1:
 E= -359.653345613046     Delta-E=       -0.000015154591 Rises=F Damp=F
 DIIS: error= 1.31D-04 at cycle   4 NSaved=   4.
 NSaved= 4 IEnMin= 4 EnMin= -359.653345613046     IErMin= 4 ErrMin= 1.31D-04
 ErrMax= 1.31D-04  0.00D+00 EMaxC= 1.00D-01 BMatC= 2.89D-06 BMatP= 1.34D-05
 IDIUse=3 WtCom= 9.99D-01 WtEn= 1.31D-03
 Coeff-Com: -0.176D-01 0.205D+00 0.285D+00 0.527D+00
 Coeff-En:   0.000D+00 0.000D+00 0.112D+00 0.888D+00
 Coeff:     -0.176D-01 0.205D+00 0.285D+00 0.527D+00
 Gap=     0.249 Goal=   None    Shift=    0.000
 RMSDP=1.32D-05 MaxDP=3.88D-04 DE=-1.52D-05 OVMax= 6.83D-04

 Cycle   5  Pass 0  IDiag  1:
 E= -359.653347592640     Delta-E=       -0.000001979593 Rises=F Damp=F
 DIIS: error= 4.24D-05 at cycle   5 NSaved=   5.
 NSaved= 5 IEnMin= 5 EnMin= -359.653347592640     IErMin= 5 ErrMin= 4.24D-05
 ErrMax= 4.24D-05  0.00D+00 EMaxC= 1.00D-01 BMatC= 3.48D-07 BMatP= 2.89D-06
 IDIUse=1 WtCom= 1.00D+00 WtEn= 0.00D+00
 Coeff-Com: -0.515D-02 0.440D-01 0.127D+00 0.354D+00 0.481D+00
 Coeff:     -0.515D-02 0.440D-01 0.127D+00 0.354D+00 0.481D+00
 Gap=     0.249 Goal=   None    Shift=    0.000
 RMSDP=4.09D-06 MaxDP=1.08D-04 DE=-1.98D-06 OVMax= 2.08D-04

 Initial convergence to 1.0D-05 achieved.  Increase integral accuracy.
 Cycle   6  Pass 1  IDiag  1:
 E= -359.653358139430     Delta-E=       -0.000010546790 Rises=F Damp=F
 DIIS: error= 1.00D-05 at cycle   1 NSaved=   1.
 NSaved= 1 IEnMin= 1 EnMin= -359.653358139430     IErMin= 1 ErrMin= 1.00D-05
 ErrMax= 1.00D-05  0.00D+00 EMaxC= 1.00D-01 BMatC= 2.37D-08 BMatP= 2.37D-08
 IDIUse=1 WtCom= 1.00D+00 WtEn= 0.00D+00
 Coeff-Com:  0.100D+01
 Coeff:      0.100D+01
 Gap=     0.249 Goal=   None    Shift=    0.000
 RMSDP=4.09D-06 MaxDP=1.08D-04 DE=-1.05D-05 OVMax= 7.92D-05

 Cycle   7  Pass 1  IDiag  1:
 E= -359.653358137957     Delta-E=        0.000000001472 Rises=F Damp=F
 DIIS: error= 1.28D-05 at cycle   2 NSaved=   2.
 NSaved= 2 IEnMin= 1 EnMin= -359.653358139430     IErMin= 1 ErrMin= 1.00D-05
 ErrMax= 1.28D-05  0.00D+00 EMaxC= 1.00D-01 BMatC= 3.35D-08 BMatP= 2.37D-08
 IDIUse=1 WtCom= 1.00D+00 WtEn= 0.00D+00
 Coeff-Com:  0.551D+00 0.449D+00
 Coeff:      0.551D+00 0.449D+00
 Gap=     0.249 Goal=   None    Shift=    0.000
 RMSDP=1.51D-06 MaxDP=3.58D-05 DE= 1.47D-09 OVMax= 7.10D-05

 Cycle   8  Pass 1  IDiag  1:
 E= -359.653358161104     Delta-E=       -0.000000023146 Rises=F Damp=F
 DIIS: error= 3.97D-06 at cycle   3 NSaved=   3.
 NSaved= 3 IEnMin= 3 EnMin= -359.653358161104     IErMin= 3 ErrMin= 3.97D-06
 ErrMax= 3.97D-06  0.00D+00 EMaxC= 1.00D-01 BMatC= 3.51D-09 BMatP= 2.37D-08
 IDIUse=1 WtCom= 1.00D+00 WtEn= 0.00D+00
 Coeff-Com:  0.983D-01 0.246D+00 0.656D+00
 Coeff:      0.983D-01 0.246D+00 0.656D+00
 Gap=     0.249 Goal=   None    Shift=    0.000
 RMSDP=5.42D-07 MaxDP=1.35D-05 DE=-2.31D-08 OVMax= 2.88D-05

 Cycle   9  Pass 1  IDiag  1:
 E= -359.653358162918     Delta-E=       -0.000000001814 Rises=F Damp=F
 DIIS: error= 2.48D-06 at cycle   4 NSaved=   4.
 NSaved= 4 IEnMin= 4 EnMin= -359.653358162918     IErMin= 4 ErrMin= 2.48D-06
 ErrMax= 2.48D-06  0.00D+00 EMaxC= 1.00D-01 BMatC= 1.08D-09 BMatP= 3.51D-09
 IDIUse=1 WtCom= 1.00D+00 WtEn= 0.00D+00
 Coeff-Com: -0.130D-02 0.108D+00 0.439D+00 0.454D+00
 Coeff:     -0.130D-02 0.108D+00 0.439D+00 0.454D+00
 Gap=     0.249 Goal=   None    Shift=    0.000
 RMSDP=2.37D-07 MaxDP=6.48D-06 DE=-1.81D-09 OVMax= 9.58D-06

 Cycle  10  Pass 1  IDiag  1:
 E= -359.653358163742     Delta-E=       -0.000000000824 Rises=F Damp=F
 DIIS: error= 4.00D-07 at cycle   5 NSaved=   5.
 NSaved= 5 IEnMin= 5 EnMin= -359.653358163742     IErMin= 5 ErrMin= 4.00D-07
 ErrMax= 4.00D-07  0.00D+00 EMaxC= 1.00D-01 BMatC= 4.96D-11 BMatP= 1.08D-09
 IDIUse=1 WtCom= 1.00D+00 WtEn= 0.00D+00
 Coeff-Com: -0.951D-02 0.400D-01 0.193D+00 0.250D+00 0.527D+00
 Coeff:     -0.951D-02 0.400D-01 0.193D+00 0.250D+00 0.527D+00
 Gap=     0.249 Goal=   None    Shift=    0.000
 RMSDP=5.15D-08 MaxDP=1.31D-06 DE=-8.24D-10 OVMax= 1.35D-06

 Cycle  11  Pass 1  IDiag  1:
 E= -359.653358163780     Delta-E=       -0.000000000039 Rises=F Damp=F
 DIIS: error= 4.84D-08 at cycle   6 NSaved=   6.
 NSaved= 6 IEnMin= 6 EnMin= -359.653358163780     IErMin= 6 ErrMin= 4.84D-08
 ErrMax= 4.84D-08  0.00D+00 EMaxC= 1.00D-01 BMatC= 7.52D-13 BMatP= 4.96D-11
 IDIUse=1 WtCom= 1.00D+00 WtEn= 0.00D+00
 Coeff-Com: -0.282D-02 0.581D-02 0.344D-01 0.507D-01 0.161D+00 0.751D+00
 Coeff:     -0.282D-02 0.581D-02 0.344D-01 0.507D-01 0.161D+00 0.751D+00
 Gap=     0.249 Goal=   None    Shift=    0.000
 RMSDP=9.98D-09 MaxDP=1.62D-07 DE=-3.85D-11 OVMax= 3.48D-07

 SCF Done:  E(RB3LYP) =  -359.653358164     A.U. after   11 cycles
            NFock= 11  Conv=0.10D-07     -V/T= 2.0087
 KE= 3.565667219963D+02 PE=-1.346197881680D+03 EE= 3.788891746884D+02
 Leave Link  502 at Thu Sep  8 15:19:30 2022, MaxMem= 24159191040 cpu:        26.8
 (Enter /public/home/users/caep010/software/Gaussian09/g09/l701.exe)
 Compute integral first derivatives.
 ... and contract with generalized density number  0.
 Leave Link  701 at Thu Sep  8 15:19:30 2022, MaxMem= 24159191040 cpu:        10.5
 (Enter /public/home/users/caep010/software/Gaussian09/g09/l702.exe)
 L702 exits ... SP integral derivatives will be done elsewhere.
 Leave Link  702 at Thu Sep  8 15:19:30 2022, MaxMem= 24159191040 cpu:         0.5
 (Enter /public/home/users/caep010/software/Gaussian09/g09/l703.exe)
 Compute integral first derivatives, UseDBF=F ICtDFT=           0.
 Integral derivatives from FoFJK, PRISM(SPDF).
 Calling FoFJK, ICntrl=      2127 FMM=F ISym2X=0 I1Cent= 0 IOpClX= 0 NMat=1 NMatS=1 NMatT=0.
 FoFJK:  IHMeth= 1 ICntrl=    2127 DoSepK=F KAlg= 0 I1Cent=   0 FoldK=F
[...]
     33  0.819610D-01 -0.909957D-02 -0.322725D-01  0.959097D-04  0.214573D-03
               21            22            23            24            25 
     21  0.350729D-01
     22  0.302202D-02  0.424581D+00
     23 -0.198159D-02 -0.923651D-01  0.698011D-01
     24 -0.303783D-02 -0.131397D-01  0.228367D-01  0.388522D-01
     25  0.448276D-03  0.194132D-02  0.778643D-03 -0.630479D-04  0.884423D-01
     26  0.976396D-03  0.304281D-03 -0.484021D-04  0.489734D-03  0.391675D-01
     27  0.596422D-03  0.397806D-03 -0.550554D-03  0.158475D-02 -0.758253D-01
     28 -0.382234D-03 -0.701605D-03 -0.713348D-03  0.350362D-03  0.286780D-03
     29 -0.278452D-03  0.562528D-04 -0.212241D-04 -0.137543D-03  0.148155D-02
     30 -0.115318D-02 -0.124532D-03 -0.571292D-04  0.223859D-03  0.570863D-04
     31  0.114754D-03  0.122367D-03 -0.970851D-04 -0.113137D-04  0.693094D-04
     32  0.478328D-03  0.468210D-04  0.115061D-03  0.187005D-04 -0.220049D-03
     33  0.438010D-03  0.270697D-03  0.338280D-03 -0.359972D-04 -0.735399D-03
               26            27            28            29            30 
     26  0.110783D+00
     27 -0.894589D-01  0.241991D+00
     28  0.358029D-02 -0.836086D-03  0.209869D+00
     29 -0.657989D-02 -0.140303D-02  0.131452D+00  0.159183D+00
     30  0.208961D-02  0.132963D-02 -0.202313D+00 -0.131726D+00  0.203002D+00
     31 -0.485034D-03  0.254868D-03 -0.217390D-03  0.690362D-04  0.974916D-04
     32  0.197058D-03 -0.258584D-03  0.734499D-03 -0.695059D-04 -0.156977D-03
     33 -0.424908D-04  0.586683D-04  0.545857D-04 -0.735383D-04  0.186572D-03
               31            32            33 
     31  0.480271D+00
     32 -0.699708D-01  0.610418D-01
     33 -0.791531D-01  0.766429D-02  0.277578D-01
 FormGI is forming the generalized inverse of G from B-inverse, IUseBI=4.
 Leave Link  716 at Thu Sep  8 15:20:05 2022, MaxMem= 24159191040 cpu:         1.2
 (Enter /public/home/users/caep010/software/Gaussian09/g09/l103.exe)

 GradGradGradGradGradGradGradGradGradGradGradGradGradGradGradGradGradGrad
 Berny optimization.
 Red2BG is reusing G-inverse.
 Internal  Forces:  Max     0.000025572 RMS     0.000008024
 Search for a local minimum.
 Step number   1 out of a maximum of    2
 All quantities printed in internal units (Hartrees-Bohrs-Radians)
 Second derivative matrix not updated -- analytic derivatives used.
 ITU=  0
     Eigenvalues ---    0.00156   0.00319   0.00571   0.02122   0.03056
     Eigenvalues ---    0.04371   0.06256   0.07090   0.08057   0.14358
     Eigenvalues ---    0.14707   0.14947   0.17168   0.18230   0.20178
     Eigenvalues ---    0.22106   0.24370   0.31132   0.32226   0.34144
     Eigenvalues ---    0.41129   0.43492   0.44635   0.45124   0.51032
     Eigenvalues ---    0.51143   0.89717
 Angle between quadratic step and forces=  61.91 degrees.
 Linear search not attempted -- first point.
 Iteration  1 RMS(Cart)=  0.00012310 RMS(Int)=  0.00000002
 Iteration  2 RMS(Cart)=  0.00000002 RMS(Int)=  0.00000001
 ITry= 1 IFail=0 DXMaxC= 4.32D-04 DCOld= 1.00D+10 DXMaxT= 3.00D-01 DXLimC= 3.00D+00 Rises=F
 Variable       Old X    -DE/DX   Delta X   Delta X   Delta X     New X
                                 (Linear)    (Quad)   (Total)
    R1        2.76724  -0.00003   0.00000  -0.00016  -0.00016   2.76708
    R2        1.92380  -0.00001   0.00000  -0.00003  -0.00003   1.92377
    R3        1.92260  -0.00000   0.00000  -0.00002  -0.00002   1.92257
    R4        2.63433   0.00001   0.00000   0.00009   0.00009   2.63443
    R5        2.89671  -0.00001   0.00000  -0.00004  -0.00004   2.89667
    R6        2.08155   0.00000   0.00000   0.00002   0.00002   2.08158
    R7        1.83467  -0.00001   0.00000  -0.00001  -0.00001   1.83466
    R8        2.28502   0.00001   0.00000   0.00003   0.00003   2.28505
    R9        2.55038  -0.00002   0.00000  -0.00006  -0.00006   2.55032
   R10        1.83847  -0.00000   0.00000  -0.00001  -0.00001   1.83847
    A1        1.92255   0.00000   0.00000   0.00011   0.00011   1.92267
    A2        1.88753   0.00001   0.00000   0.00014   0.00014   1.88767
    A3        1.87927  -0.00000   0.00000   0.00007   0.00007   1.87934
    A4        1.93559  -0.00000   0.00000  -0.00001  -0.00001   1.93557
    A5        1.85634   0.00001   0.00000   0.00011   0.00011   1.85644
    A6        1.99549   0.00000   0.00000   0.00008   0.00008   1.99557
    A7        1.92348  -0.00001   0.00000  -0.00006  -0.00006   1.92342
    A8        1.85280  -0.00000   0.00000  -0.00009  -0.00009   1.85270
    A9        1.90035  -0.00000   0.00000  -0.00002  -0.00002   1.90033
   A10        1.85886  -0.00001   0.00000  -0.00009  -0.00009   1.85877
   A11        2.16448  -0.00000   0.00000  -0.00003  -0.00003   2.16445
   A12        1.95544   0.00001   0.00000   0.00006   0.00006   1.95551
   A13        2.16264  -0.00001   0.00000  -0.00003  -0.00003   2.16261
   A14        1.86474  -0.00001   0.00000  -0.00005  -0.00005   1.86468
    D1       -3.07024  -0.00000   0.00000  -0.00027  -0.00027  -3.07051
    D2        1.12148  -0.00000   0.00000  -0.00025  -0.00025   1.12123
    D3       -0.97629  -0.00001   0.00000  -0.00035  -0.00035  -0.97664
    D4       -1.02073   0.00000   0.00000  -0.00004  -0.00004  -1.02077
    D5       -3.11220   0.00000   0.00000  -0.00002  -0.00002  -3.11222
    D6        1.07322  -0.00000   0.00000  -0.00012  -0.00012   1.07310
    D7       -1.36556  -0.00000   0.00000  -0.00030  -0.00030  -1.36586
    D8        0.68532   0.00000   0.00000  -0.00022  -0.00022   0.68511
    D9        2.74051  -0.00000   0.00000  -0.00033  -0.00033   2.74018
   D10        1.86269  -0.00000   0.00000   0.00000   0.00000   1.86270
   D11       -1.24244  -0.00000   0.00000   0.00001   0.00001  -1.24243
   D12       -0.23661  -0.00000   0.00000  -0.00001  -0.00001  -0.23662
   D13        2.94143  -0.00000   0.00000   0.00000   0.00000   2.94144
   D14       -2.26221   0.00000   0.00000   0.00015   0.00015  -2.26207
   D15        0.91583   0.00001   0.00000   0.00016   0.00016   0.91599
   D16        3.08475  -0.00000   0.00000   0.00004   0.00004   3.08478
   D17       -0.02044   0.00000   0.00000   0.00005   0.00005  -0.02039
         Item               Value     Threshold  Converged?
 Maximum Force            0.000026     0.000450     YES
 RMS     Force            0.000008     0.000300     YES
 Maximum Displacement     0.000432     0.001800     YES
 RMS     Displacement     0.000123     0.001200     YES
 Predicted change in Energy=-1.016708D-08
 Optimization completed.
    -- Stationary point found.
                           ----------------------------
                           !   Optimized Parameters   !
                           ! (Angstroms and Degrees)  !
 --------------------------                            --------------------------
 ! Name  Definition              Value          Derivative Info.                !
 --------------------------------------------------------------------------------
 ! R1    R(1,2)                  1.4644         -DE/DX =    0.0                 !
 ! R2    R(1,7)                  1.018          -DE/DX =    0.0                 !
 ! R3    R(1,8)                  1.0174         -DE/DX =    0.0                 !
 ! R4    R(2,3)                  1.394          -DE/DX =    0.0                 !
 ! R5    R(2,4)                  1.5329         -DE/DX =    0.0                 !
 ! R6    R(2,9)                  1.1015         -DE/DX =    0.0                 !
 ! R7    R(3,10)                 0.9709         -DE/DX =    0.0                 !
 ! R8    R(4,5)                  1.2092         -DE/DX =    0.0                 !
 ! R9    R(4,6)                  1.3496         -DE/DX =    0.0                 !
 ! R10   R(6,11)                 0.9729         -DE/DX =    0.0                 !
 ! A1    A(2,1,7)              110.1543         -DE/DX =    0.0                 !
 ! A2    A(2,1,8)              108.1474         -DE/DX =    0.0                 !
 ! A3    A(7,1,8)              107.6742         -DE/DX =    0.0                 !
 ! A4    A(1,2,3)              110.9009         -DE/DX =    0.0                 !
 ! A5    A(1,2,4)              106.3602         -DE/DX =    0.0                 !
 ! A6    A(1,2,9)              114.3334         -DE/DX =    0.0                 !
 ! A7    A(3,2,4)              110.2075         -DE/DX =    0.0                 !
 ! A8    A(3,2,9)              106.1575         -DE/DX =    0.0                 !
 ! A9    A(4,2,9)              108.8822         -DE/DX =    0.0                 !
 ! A10   A(2,3,10)             106.5049         -DE/DX =    0.0                 !
 ! A11   A(2,4,5)              124.0158         -DE/DX =    0.0                 !
 ! A12   A(2,4,6)              112.0387         -DE/DX =    0.0                 !
 ! A13   A(5,4,6)              123.9103         -DE/DX =    0.0                 !
 ! A14   A(4,6,11)             106.8415         -DE/DX =    0.0                 !
 ! D1    D(7,1,2,3)           -175.9118         -DE/DX =    0.0                 !
 ! D2    D(7,1,2,4)             64.2561         -DE/DX =    0.0                 !
 ! D3    D(7,1,2,9)            -55.9372         -DE/DX =    0.0                 !
 ! D4    D(8,1,2,3)            -58.4838         -DE/DX =    0.0                 !
 ! D5    D(8,1,2,4)           -178.3158         -DE/DX =    0.0                 !
 ! D6    D(8,1,2,9)             61.4909         -DE/DX =    0.0                 !
 ! D7    D(1,2,3,10)           -78.2405         -DE/DX =    0.0                 !
 ! D8    D(4,2,3,10)            39.2662         -DE/DX =    0.0                 !
 ! D9    D(9,2,3,10)           157.0199         -DE/DX =    0.0                 !
 ! D10   D(1,2,4,5)            106.7245         -DE/DX =    0.0                 !
 ! D11   D(1,2,4,6)            -71.1869         -DE/DX =    0.0                 !
 ! D12   D(3,2,4,5)            -13.5568         -DE/DX =    0.0                 !
 ! D13   D(3,2,4,6)            168.5318         -DE/DX =    0.0                 !
 ! D14   D(9,2,4,5)           -129.6154         -DE/DX =    0.0                 !
 ! D15   D(9,2,4,6)             52.4732         -DE/DX =    0.0                 !
 ! D16   D(2,4,6,11)           176.743          -DE/DX =    0.0                 !
 ! D17   D(5,4,6,11)            -1.171          -DE/DX =    0.0                 !
 --------------------------------------------------------------------------------
 GradGradGradGradGradGradGradGradGradGradGradGradGradGradGradGradGradGrad

 Leave Link  103 at Thu Sep  8 15:20:05 2022, MaxMem= 24159191040 cpu:         2.1
 (Enter /public/home/users/caep010/software/Gaussian09/g09/l9999.exe)
 1\1\GINC-B1531\Freq\RB3LYP\6-31G(d,p)\C2H5N1O3\ROOT\08-Sep-2022\0\\#P 
 Geom=AllCheck Guess=TCheck SCRF=Check GenChk RB3LYP/6-31G(d,p) Freq\\F
 rag_742\\0,1\N,-1.1374857119,-0.2429164241,-1.3912652449\C,-0.47902947
 77,0.2505376589,-0.1799494831\O,-0.6662403176,1.6244894372,-0.03667660
 04\C,1.0121321322,-0.0668929608,-0.339244593\O,1.8592970518,0.76359670
 01,-0.5731710738\O,1.2627317558,-1.3887236059,-0.2325002149\H,-1.05141
 74574,-1.2556250463,-1.4495382852\H,-2.1281177729,-0.0203254428,-1.326
 5240853\H,-0.8432679322,-0.2074149854,0.7532889229\H,-0.0427878166,2.0
 527603304,-0.6453396323\H,2.2140875464,-1.5093846614,-0.3963797102\\Ve
 rsion=ES64L-G09RevE.01\State=1-A\HF=-359.6535305\RMSD=2.849e-09\RMSF=1
 .519e-05\ZeroPoint=0.0845442\Thermal=0.0910849\Dipole=-0.0997489,-1.01
 84333,0.0048238\DipoleDeriv=-0.4283315,-0.112976,-0.091409,-0.0355816,
 -0.3406009,0.0015459,-0.1100415,-0.1153434,-0.7564311,0.4507727,0.0396
 696,0.1784726,0.0727675,0.9003257,0.175978,0.1068776,0.1444763,0.77578
 07,-0.4914671,0.1051894,-0.0952744,0.0326994,-0.9131769,-0.1326548,-0.
 1354688,-0.0793742,-0.4074976,1.0709519,0.1100455,-0.0579447,-0.080313
 8,1.5996224,-0.1365761,-0.0911884,-0.2133206,0.2611134,-0.8608002,-0.3
 023367,0.0735487,-0.0303585,-0.8558362,0.0546082,0.0800362,0.125094,-0
 .3433137,-0.4418004,0.2808317,-0.0544664,0.1785021,-1.2051842,0.086429
 6,-0.0172637,0.0595762,-0.3589959,0.1889207,-0.0136279,-0.0668838,0.00
 92127,0.0024564,-0.034925,-0.0208337,0.0644698,0.2454255,0.0148717,0.0
 234314,-0.0181254,-0.0306428,0.1930917,-0.0750489,0.0637297,-0.0614781
 ,0.2251403,-0.0217586,-0.0285397,0.0210042,-0.0255448,-0.045751,0.0516
 661,-0.0053022,0.0407627,-0.2039976,0.3257009,-0.0866289,0.0827521,-0.
 0172531,0.3426931,-0.0032785,0.0930318,0.0298801,0.2241205,0.19294,-0.
 0150582,0.0283261,-0.0734871,0.32236,0.0122556,0.0364228,0.0052573,0.3
 386554\Polar=41.0918529,-0.388466,41.7199234,0.4944996,0.1237487,27.79
 55317\PG=C01 [X(C2H5N1O3)]\NImag=0\\0.58996576,-0.10561627,0.59499983,
 0.07655822,0.10781213,0.25502811,-0.11500721,0.00527723,-0.03010259,0.
 49992212,0.00302884,-0.09012015,-0.00720464,0.01267664,0.56120000,-0.0
 8368296,-0.03822661,-0.16182181,-0.05064548,-0.06932105,0.52721381,0.0
 1036466,-0.01823362,-0.00328168,-0.08896242,-0.00056129,0.02252762,0.3
 0557439,0.00289766,-0.03740516,-0.02143450,0.03923678,-0.24657841,-0.0
 2018252,0.08818886,0.47101036,0.00635237,-0.04378049,-0.00276392,0.019
 51642,0.01537681,-0.08562581,-0.22651140,-0.08810924,0.28378656,-0.023
 16134,-0.00563377,-0.00863382,-0.16502893,0.02588624,0.01026548,-0.009
 77229,0.00657101,0.00260944,0.82096046,-0.01317194,0.00583893,0.000552
 95,0.02228440,-0.06969172,0.00199189,0.03210152,-0.03723736,-0.0059730
 5,0.19609516,0.79119410,-0.03702065,0.00671335,-0.00260141,0.01945616,
 -0.00379419,-0.08902778,0.00655522,-0.00355705,0.00181241,-0.11383326,
 -0.09400086,0.25496539,-0.00373690,0.00275025,-0.00084021,-0.02831036,
 -0.03221759,0.01588587,-0.00015227,-0.00261634,-0.00000578,-0.46140908
 ,-0.30381221,0.09716870,0.47267557,0.00063436,0.00203452,0.00065319,-0
 .00840737,-0.00678312,0.00299887,0.00897343,0.00741838,-0.00107295,-0.
 31698514,-0.39952336,0.08946762,0.37071747,0.47691402,0.00529544,-0.00
 216809,0.00008156,0.00518366,0.00664268,0.02005283,-0.00115696,0.00078
 653,0.00110927,0.09995745,0.08643024,-0.09965501,-0.11407621,-0.110117
 75,0.06177654,-0.00189895,-0.00019446,-0.00139247,-0.00247799,0.034353
 29,-0.00091386,-0.00809293,0.00798488,0.00052095,-0.14364637,0.0638555
 6,0.00555381,0.02962020,-0.04373521,0.00488567,0.59517170,0.00184611,-
 0.00020387,0.00036138,0.00262029,-0.01683755,0.00020480,0.00651400,0.0
 0057002,-0.00022924,0.03280212,-0.27472239,0.01980346,-0.02696992,-0.0
 9066415,0.01861383,-0.07921675,0.42737101,0.00082368,-0.00079777,0.000
 72473,0.00040194,-0.00200782,0.00851893,0.00049903,-0.00127945,0.00076
 566,0.00989548,0.01158536,-0.06596376,0.00326705,0.02045606,0.02553071
 ,-0.09100961,-0.02925631,0.06201349,-0.05736149,0.02122143,-0.01911335
 ,0.00260325,-0.01570907,0.00717845,-0.00091231,-0.00461714,-0.00526261
 ,0.00039337,-0.00491690,-0.00074794,-0.00001602,0.00150353,-0.00035950
 ,-0.00080355,0.00228104,0.00071637,0.05743284,0.04575636,-0.41929860,-
 0.04379993,0.00203677,-0.01225779,0.00961414,-0.00209439,-0.00144363,-
 0.00475033,-0.00113254,-0.00110288,-0.00071460,0.00030212,0.00053652,-
 0.00005666,0.00111312,0.00024410,0.00053694,-0.04184871,0.43976080,-0.
 01913867,0.00352224,-0.02410066,0.00511393,-0.03285208,-0.00477929,-0.
 00324284,-0.00458607,-0.00325329,-0.00107250,-0.00105935,0.00144702,0.
 00046182,0.00050872,-0.00033578,0.00032903,-0.00021740,-0.00089434,0.0
 1434642,0.03548925,0.03507292,-0.40648179,0.09551602,0.00696970,-0.020
 00736,0.00369038,0.00484246,0.00295940,-0.00041932,0.00118797,0.000468
 24,-0.00131912,-0.00428065,-0.00048865,-0.00021354,0.00062866,-0.00009
 736,0.00015888,0.00022562,-0.00229598,-0.00545553,0.00302202,0.4245814
 2,0.06471406,-0.06555563,-0.02108401,-0.01500007,0.00529769,0.00032029
 ,0.00183997,0.00013124,0.00180632,0.00058026,-0.00236752,-0.00329248,-
 0.00133163,-0.00014116,0.00112154,0.00022350,0.00085228,0.00054265,0.0
 4137082,-0.00806349,-0.00198159,-0.09236512,0.06980114,0.04923255,-0.0
 3335918,-0.02962459,-0.04058673,0.00746610,-0.00496271,0.00250750,0.00
 207365,0.00114520,-0.00030147,-0.00375970,-0.00629923,-0.00123787,-0.0
 0000392,0.00135717,-0.00035357,0.00102840,0.00079713,0.00360333,0.0033
 4708,-0.00303783,-0.01313974,0.02283668,0.03885224,0.00865050,0.003582
 73,-0.02079833,-0.09160211,-0.03446934,0.07746177,0.00581898,0.0030760
 3,-0.00467086,-0.00683823,-0.01635653,0.02809465,-0.00722603,0.0002493
 4,-0.00201231,-0.00008461,0.00199963,-0.00195650,0.00054179,0.00071054
 ,0.00044828,0.00194132,0.00077864,-0.00006305,0.08844229,0.00022893,0.
 00765719,-0.01529894,-0.02922294,-0.08446456,0.07736653,-0.01635021,-0
 .03394477,0.02779308,0.00030043,0.00414729,-0.00434355,0.00217124,0.00
 108821,0.00019393,0.00042894,0.00019350,0.00023457,-0.00012337,0.00097
 159,0.00097640,0.00030428,-0.00004840,0.00048973,0.03916745,0.11078278
 ,0.00016042,0.00192974,-0.03507369,0.07426040,0.08615560,-0.21555287,-
 0.00023446,0.00088751,0.00622028,0.00281249,0.00402957,-0.00087177,0.0
 0007633,-0.00117171,-0.00072970,-0.00037384,-0.00044566,0.00044755,-0.
 00069258,0.00028599,0.00059642,0.00039781,-0.00055055,0.00158475,-0.07
 582534,-0.08945887,0.24199072,-0.00180764,0.00182429,0.00097412,0.0051
 7778,0.00157572,-0.00348873,-0.21657539,-0.14069432,0.20640879,0.00475
 245,0.01180528,-0.00310783,-0.00054109,-0.00523548,0.00176735,-0.00105
 169,-0.00493986,0.00057271,0.00080928,0.00061048,-0.00038223,-0.000701
 60,-0.00071335,0.00035036,0.00028678,0.00358029,-0.00083609,0.20986851
 ,0.00007138,0.00170751,-0.00051069,-0.02918761,-0.03383739,0.03375331,
 -0.10176703,-0.12094361,0.09912292,-0.00025334,-0.00528896,0.00274519,
 -0.00121984,0.00299483,-0.00130710,-0.00103182,0.00244004,-0.00018490,
 0.00032898,0.00041532,-0.00027845,0.00005625,-0.00002122,-0.00013754,0
 .00148155,-0.00657989,-0.00140303,0.13145245,0.15918287,0.00029954,-0.
 00121036,0.00045281,-0.00311255,-0.00151001,0.00056250,0.20292552,0.13
 528282,-0.20322362,0.00136452,-0.00031926,0.00074548,-0.00022245,-0.00
 146239,-0.00245806,0.00079291,-0.00076369,0.00033241,0.00023550,-0.000
 16645,-0.00115318,-0.00012453,-0.00005713,0.00022386,0.00005709,0.0020
 8961,0.00132963,-0.20231304,-0.13172616,0.20300160,0.00047439,-0.00049
 384,-0.00033958,0.00369322,0.00174618,0.00056938,-0.00024983,0.0003919
 1,-0.00014528,-0.01671829,0.01343478,0.00216178,-0.00041538,-0.0075014
 0,-0.00011325,-0.46663846,0.06290446,0.07656424,-0.00039118,0.00000178
 ,0.00011475,0.00012237,-0.00009709,-0.00001131,0.00006931,-0.00048503,
 0.00025487,-0.00021739,0.00006904,0.00009749,0.48027124,-0.00038949,0.
 00034543,-0.00004693,-0.00231411,-0.00592700,0.00148035,0.00138876,-0.
 00157705,-0.00018381,0.06176957,-0.01124613,-0.00902688,-0.00777355,0.
 00612530,-0.00013916,0.01621895,-0.04924299,0.00017066,0.00050939,0.00
 023804,0.00047833,0.00004682,0.00011506,0.00001870,-0.00022005,0.00019
 706,-0.00025858,0.00073450,-0.00006951,-0.00015698,-0.06997079,0.06104
 178,0.00112006,-0.00043497,-0.00030114,0.00051484,0.00104860,0.0054222
 0,-0.00058755,0.00011833,0.00002724,-0.00306381,0.00052222,0.00544868,
 -0.00047724,-0.00025574,-0.00672954,0.08196099,-0.00909957,-0.03227251
 ,0.00009591,0.00021457,0.00043801,0.00027070,0.00033828,-0.00003600,-0
 .00073540,-0.00004249,0.00005867,0.00005459,-0.00007354,0.00018657,-0.
 07915309,0.00766429,0.02775781\\0.00000120,-0.00000825,-0.00003343,-0.
 00000945,0.00003990,0.00004741,0.00000770,-0.00002065,-0.00000797,0.00
 001390,0.00002291,-0.00001640,-0.00000794,-0.00000770,0.00000004,-0.00
 000228,-0.00001721,0.00000489,-0.00000304,-0.00000875,0.00000830,-0.00
 000491,0.00000205,0.00000960,0.00000114,-0.00000409,-0.00000535,0.0000
 0114,0.00000910,-0.00000696,0.00000253,-0.00000732,-0.00000014\\\@


 AND ALL THIS SCIENCE I DON'T UNDERSTAND
 IT'S JUST MY JOB FIVE DAYS A WEEK

                           -- ELTON JOHN, "ROCKET MAN"
 Job cpu time:       0 days  0 hours  4 minutes  8.6 seconds.
 File lengths (MBytes):  RWF=     21 Int=      0 D2E=      0 Chk=      2 Scr=      1
 Normal termination of Gaussian 09 at Thu Sep  8 15:20:05 2022.
