 Entering Gaussian System, Link 0=g09
 Input=B3LYP6-31Gxx.Frag_349.gjf
 Output=B3LYP6-31Gxx.Frag_349.log
 Initial command:
 /public/home/users/caep010/software/Gaussian09/g09/l1.exe "/public/home/users/caep010/.cache/gau_scr/Gau-217375.inp" -scrdir="/public/home/users/caep010/.cache/gau_scr/"
 Entering Link 1 = /public/home/users/caep010/software/Gaussian09/g09/l1.exe PID=    217376.
  
 Copyright (c) 1988,1990,1992,1993,1995,1998,2003,2009,2015,
            Gaussian, Inc.  All Rights Reserved.
  
 This is part of the Gaussian(R) 09 program.  It is based on
 the Gaussian(R) 03 system (copyright 2003, Gaussian, Inc.),
 the Gaussian(R) 98 system (copyright 1998, Gaussian, Inc.),
 the Gaussian(R) 94 system (copyright 1995, Gaussian, Inc.),
 the Gaussian 92(TM) system (copyright 1992, Gaussian, Inc.),
 the Gaussian 90(TM) system (copyright 1990, Gaussian, Inc.),
 the Gaussian 88(TM) system (copyright 1988, Gaussian, Inc.),
 the Gaussian 86(TM) system (copyright 1986, Carnegie Mellon
 University), and the Gaussian 82(TM) system (copyright 1983,
 Carnegie Mellon University). Gaussian is a federally registered
 trademark of Gaussian, Inc.
  
 This software contains proprietary and confidential information,
 including trade secrets, belonging to Gaussian, Inc.
  
 This software is provided under written license and may be
 used, copied, transmitted, or stored only in accord with that
 written license.
  
 The following legend is applicable only to US Government
 contracts under FAR:
  
                    RESTRICTED RIGHTS LEGEND
  
 Use, reproduction and disclosure by the US Government is
 subject to restrictions as set forth in subparagraphs (a)
 and (c) of the Commercial Computer Software - Restricted
 Rights clause in FAR 52.227-19.
  
 Gaussian, Inc.
 340 Quinnipiac St., Bldg. 40, Wallingford CT 06492
  
  
 ---------------------------------------------------------------
 Warning -- This program may not be used in any manner that
 competes with the business of Gaussian, Inc. or will provide
 assistance to any competitor of Gaussian, Inc.  The licensee
 of this program is prohibited from giving any competitor of
 Gaussian, Inc. access to this program.  By using this program,
 the user acknowledges that Gaussian, Inc. is engaged in the
 business of creating and licensing software in the field of
 computational chemistry and represents and warrants to the
 licensee that it is not a competitor of Gaussian, Inc. and that
 it will not use this program in any manner prohibited above.
 ---------------------------------------------------------------
  

 Cite this work as:
 Gaussian 09, Revision E.01,
 M. J. Frisch, G. W. Trucks, H. B. Schlegel, G. E. Scuseria, 
 M. A. Robb, J. R. Cheeseman, G. Scalmani, V. Barone, B. Mennucci, 
 G. A. Petersson, H. Nakatsuji, M. Caricato, X. Li, H. P. Hratchian, 
 A. F. Izmaylov, J. Bloino, G. Zheng, J. L. Sonnenberg, M. Hada, 
 M. Ehara, K. Toyota, R. Fukuda, J. Hasegawa, M. Ishida, T. Nakajima, 
 Y. Honda, O. Kitao, H. Nakai, T. Vreven, J. A. Montgomery, Jr., 
 J. E. Peralta, F. Ogliaro, M. Bearpark, J. J. Heyd, E. Brothers, 
 K. N. Kudin, V. N. Staroverov, T. Keith, R. Kobayashi, J. Normand, 
 K. Raghavachari, A. Rendell, J. C. Burant, S. S. Iyengar, J. Tomasi, 
 M. Cossi, N. Rega, J. M. Millam, M. Klene, J. E. Knox, J. B. Cross, 
 V. Bakken, C. Adamo, J. Jaramillo, R. Gomperts, R. E. Stratmann, 
 O. Yazyev, A. J. Austin, R. Cammi, C. Pomelli, J. W. Ochterski, 
 R. L. Martin, K. Morokuma, V. G. Zakrzewski, G. A. Voth, 
 P. Salvador, J. J. Dannenberg, S. Dapprich, A. D. Daniels, 
 O. Farkas, J. B. Foresman, J. V. Ortiz, J. Cioslowski, 
 and D. J. Fox, Gaussian, Inc., Wallingford CT, 2013.
 
 ******************************************
 Gaussian 09:  ES64L-G09RevE.01 30-Nov-2015
                10-Sep-2021 
 ******************************************
 %nproc=32
 Will use up to   32 processors via shared memory.
 %mem=180GB
 --------------------------------
 #P OPT=calcfc Freq B3LYP/6-31G**
 --------------------------------
 1/10=4,14=-1,18=20,19=15,26=3,38=1/1,3;
 2/9=110,12=2,17=6,18=5,40=1/2;
 3/5=1,6=6,7=101,11=2,16=1,25=1,30=1,71=2,74=-5,140=1/1,2,3;
 4//1;
 5/5=2,38=5/2;
 8/6=4,10=90,11=11/1;
 11/6=1,8=1,9=11,15=111,16=1/1,2,10;
 10/6=1,13=1/2;
 6/7=2,8=2,9=2,10=2,28=1/1;
 7/10=1,18=20,25=1/1,2,3,16;
 1/10=4,14=-1,18=20,19=15,26=3/3(2);
 2/9=110/2;
 99//99;
 2/9=110/2;
 3/5=1,6=6,7=101,11=2,16=1,25=1,30=1,71=1,74=-5/1,2,3;
 4/5=5,16=3,69=1/1;
 5/5=2,38=5/2;
 7//1,2,3,16;
 1/14=-1,18=20,19=15,26=3/3(-5);
 2/9=110/2;
 6/7=2,8=2,9=2,10=2,19=2,28=1/1;
 99/9=1/99;
 Leave Link    1 at Fri Sep 10 19:27:51 2021, MaxMem= 24159191040 cpu:         2.2
 (Enter /public/home/users/caep010/software/Gaussian09/g09/l101.exe)
 --------
 Frag_349
 --------
 Symbolic Z-matrix:
 Charge =  0 Multiplicity = 1
 C                    -1.4147    0.0672   -0.0008 
 N                    -0.0096    0.4164   -0.151 
 C                     0.9917   -0.6028   -0.2211 
 N                     2.2411   -0.2946   -0.3545 
 H                    -1.7422   -0.5529   -0.8618 
 H                    -1.5625   -0.5005    0.942 
 H                    -2.0314    0.9899    0.0338 
 H                     0.2627    1.424    -0.2074 
 H                     0.7079   -1.6459   -0.1625 
 H                     2.5569    0.6992   -0.4149 
 
 NAtoms=     10 NQM=       10 NQMF=       0 NMMI=      0 NMMIF=      0
                NMic=       0 NMicF=      0.
                    Isotopes and Nuclear Properties:
 (Nuclear quadrupole moments (NQMom) in fm**2, nuclear magnetic moments (NMagM)
  in nuclear magnetons)

  Atom         1           2           3           4           5           6           7           8           9          10
 IAtWgt=          12          14          12          14           1           1           1           1           1           1
 AtmWgt=  12.0000000  14.0030740  12.0000000  14.0030740   1.0078250   1.0078250   1.0078250   1.0078250   1.0078250   1.0078250
 NucSpn=           0           2           0           2           1           1           1           1           1           1
 AtZEff=   0.0000000   0.0000000   0.0000000   0.0000000   0.0000000   0.0000000   0.0000000   0.0000000   0.0000000   0.0000000
 NQMom=    0.0000000   2.0440000   0.0000000   2.0440000   0.0000000   0.0000000   0.0000000   0.0000000   0.0000000   0.0000000
 NMagM=    0.0000000   0.4037610   0.0000000   0.4037610   2.7928460   2.7928460   2.7928460   2.7928460   2.7928460   2.7928460
 AtZNuc=   6.0000000   7.0000000   6.0000000   7.0000000   1.0000000   1.0000000   1.0000000   1.0000000   1.0000000   1.0000000
 Leave Link  101 at Fri Sep 10 19:27:51 2021, MaxMem= 24159191040 cpu:        10.0
 (Enter /public/home/users/caep010/software/Gaussian09/g09/l103.exe)

 GradGradGradGradGradGradGradGradGradGradGradGradGradGradGradGradGradGrad
 Berny optimization.
 Initialization pass.
                           ----------------------------
                           !    Initial Parameters    !
                           ! (Angstroms and Degrees)  !
 --------------------------                            --------------------------
 ! Name  Definition              Value          Derivative Info.                !
 --------------------------------------------------------------------------------
 ! R1    R(1,2)                  1.4556         calculate D2E/DX2 analytically  !
 ! R2    R(1,5)                  1.1105         calculate D2E/DX2 analytically  !
 ! R3    R(1,6)                  1.1104         calculate D2E/DX2 analytically  !
 ! R4    R(1,7)                  1.1104         calculate D2E/DX2 analytically  !
 ! R5    R(2,3)                  1.4305         calculate D2E/DX2 analytically  !
 ! R6    R(2,8)                  1.0453         calculate D2E/DX2 analytically  !
 ! R7    R(3,4)                  1.2937         calculate D2E/DX2 analytically  !
 ! R8    R(3,9)                  1.0826         calculate D2E/DX2 analytically  !
 ! R9    R(4,10)                 1.0445         calculate D2E/DX2 analytically  !
 ! A1    A(2,1,5)              109.7946         calculate D2E/DX2 analytically  !
 ! A2    A(2,1,6)              109.8005         calculate D2E/DX2 analytically  !
 ! A3    A(2,1,7)              109.8765         calculate D2E/DX2 analytically  !
 ! A4    A(5,1,6)              109.4859         calculate D2E/DX2 analytically  !
 ! A5    A(5,1,7)              108.9294         calculate D2E/DX2 analytically  !
 ! A6    A(6,1,7)              108.9332         calculate D2E/DX2 analytically  !
 ! A7    A(1,2,3)              120.6515         calculate D2E/DX2 analytically  !
 ! A8    A(1,2,8)              119.2282         calculate D2E/DX2 analytically  !
 ! A9    A(3,2,8)              120.1204         calculate D2E/DX2 analytically  !
 ! A10   A(2,3,4)              120.7506         calculate D2E/DX2 analytically  !
 ! A11   A(2,3,9)              120.0225         calculate D2E/DX2 analytically  !
 ! A12   A(4,3,9)              119.227          calculate D2E/DX2 analytically  !
 ! A13   A(3,4,10)             121.641          calculate D2E/DX2 analytically  !
 ! D1    D(5,1,2,3)            -60.2167         calculate D2E/DX2 analytically  !
 ! D2    D(5,1,2,8)            119.7887         calculate D2E/DX2 analytically  !
 ! D3    D(6,1,2,3)             60.2064         calculate D2E/DX2 analytically  !
 ! D4    D(6,1,2,8)           -119.7882         calculate D2E/DX2 analytically  !
 ! D5    D(7,1,2,3)            179.999          calculate D2E/DX2 analytically  !
 ! D6    D(7,1,2,8)              0.0044         calculate D2E/DX2 analytically  !
 ! D7    D(1,2,3,4)           -179.9954         calculate D2E/DX2 analytically  !
 ! D8    D(1,2,3,9)              0.004          calculate D2E/DX2 analytically  !
 ! D9    D(8,2,3,4)             -0.0008         calculate D2E/DX2 analytically  !
 ! D10   D(8,2,3,9)            179.9986         calculate D2E/DX2 analytically  !
 ! D11   D(2,3,4,10)            -0.0035         calculate D2E/DX2 analytically  !
 ! D12   D(9,3,4,10)           179.997          calculate D2E/DX2 analytically  !
 --------------------------------------------------------------------------------
 Trust Radius=3.00D-01 FncErr=1.00D-07 GrdErr=1.00D-06
 Number of steps in this run=     44 maximum allowed number of steps=    100.
 GradGradGradGradGradGradGradGradGradGradGradGradGradGradGradGradGradGrad

 Leave Link  103 at Fri Sep 10 19:27:51 2021, MaxMem= 24159191040 cpu:         0.4
 (Enter /public/home/users/caep010/software/Gaussian09/g09/l202.exe)
                          Input orientation:                          
 ---------------------------------------------------------------------
 Center     Atomic      Atomic             Coordinates (Angstroms)
 Number     Number       Type             X           Y           Z
 ---------------------------------------------------------------------
      1          6           0       -1.414700    0.067200   -0.000800
      2          7           0       -0.009600    0.416400   -0.151000
      3          6           0        0.991700   -0.602800   -0.221100
      4          7           0        2.241100   -0.294600   -0.354500
      5          1           0       -1.742200   -0.552900   -0.861800
      6          1           0       -1.562500   -0.500500    0.942000
      7          1           0       -2.031400    0.989900    0.033800
      8          1           0        0.262700    1.424000   -0.207400
      9          1           0        0.707900   -1.645900   -0.162500
     10          1           0        2.556900    0.699200   -0.414900
 ---------------------------------------------------------------------
                    Distance matrix (angstroms):
                    1          2          3          4          5
     1  C    0.000000
     2  N    1.455612   0.000000
     3  C    2.507627   1.430484   0.000000
     4  N    3.690647   2.369089   1.293748   0.000000
     5  H    1.110451   2.108716   2.808415   4.023773   0.000000
     6  H    1.110405   2.108756   2.808417   4.023764   1.813486
     7  H    1.110356   2.109675   3.426485   4.478278   1.807199
     8  H    2.167316   1.045268   2.153961   2.624746   2.890674
     9  H    2.732451   2.183580   1.082605   2.052700   2.772483
    10  H    4.042834   2.595485   2.045144   1.044517   4.499971
                    6          7          8          9         10
     6  H    0.000000
     7  H    1.807204   0.000000
     8  H    2.890705   2.347236   0.000000
     9  H    2.772468   3.806539   3.102339   0.000000
    10  H    4.499990   4.619344   2.414901   2.996999   0.000000
 Stoichiometry    C2H6N2
 Framework group  C1[X(C2H6N2)]
 Deg. of freedom    24
 Full point group                 C1      NOp   1
 Largest Abelian subgroup         C1      NOp   1
 Largest concise Abelian subgroup C1      NOp   1
                         Standard orientation:                         
 ---------------------------------------------------------------------
 Center     Atomic      Atomic             Coordinates (Angstroms)
 Number     Number       Type             X           Y           Z
 ---------------------------------------------------------------------
      1          6           0        1.777031   -0.102882   -0.000029
      2          7           0        0.421099    0.426511    0.000027
      3          6           0       -0.705807   -0.454605    0.000016
      4          7           0       -1.911771    0.013835   -0.000023
      5          1           0        1.938600   -0.723140    0.906766
      6          1           0        1.938599   -0.723210   -0.906720
      7          1           0        2.508463    0.732520   -0.000028
      8          1           0        0.277413    1.461857   -0.000011
      9          1           0       -0.555157   -1.526677    0.000033
     10          1           0       -2.100559    1.041150    0.000006
 ---------------------------------------------------------------------
 Rotational constants (GHZ):     36.1771402      4.2936344      3.9372201
 Leave Link  202 at Fri Sep 10 19:27:51 2021, MaxMem= 24159191040 cpu:         0.9
 (Enter /public/home/users/caep010/software/Gaussian09/g09/l301.exe)
 Standard basis: 6-31G(d,p) (6D, 7F)
 Ernie: Thresh=  0.10000D-02 Tol=  0.10000D-05 Strict=F.
 There are    90 symmetry adapted cartesian basis functions of A   symmetry.
 There are    90 symmetry adapted basis functions of A   symmetry.
    90 basis functions,   154 primitive gaussians,    90 cartesian basis functions
    16 alpha electrons       16 beta electrons
       nuclear repulsion energy       117.9593203466 Hartrees.
 IExCor=  402 DFT=T Ex+Corr=B3LYP ExCW=0 ScaHFX=  0.200000
 ScaDFX=  0.800000  0.720000  1.000000  0.810000 ScalE2=  1.000000  1.000000
 IRadAn=      0 IRanWt=     -1 IRanGd=            0 ICorTp=0 IEmpDi=  4
 NAtoms=   10 NActive=   10 NUniq=   10 SFac= 1.00D+00 NAtFMM=   60 NAOKFM=F Big=F
 Integral buffers will be    131072 words long.
 Raffenetti 2 integral format.
 Two-electron integral symmetry is turned on.
 Leave Link  301 at Fri Sep 10 19:27:51 2021, MaxMem= 24159191040 cpu:         2.1
 (Enter /public/home/users/caep010/software/Gaussian09/g09/l302.exe)
 NPDir=0 NMtPBC=     1 NCelOv=     1 NCel=       1 NClECP=     1 NCelD=      1
         NCelK=      1 NCelE2=     1 NClLst=     1 CellRange=     0.0.
 One-electron integrals computed using PRISM.
 NBasis=    90 RedAO= T EigKep=  4.43D-03  NBF=    90
 NBsUse=    90 1.00D-06 EigRej= -1.00D+00 NBFU=    90
 Precomputing XC quadrature grid using
 IXCGrd= 4 IRadAn=           0 IRanWt=          -1 IRanGd=           0 AccXCQ= 0.00D+00.
 Generated NRdTot=       0 NPtTot=           0 NUsed=           0 NTot=          32
 NSgBfM=    90    90    90    90    90 MxSgAt=    10 MxSgA2=    10.
 Leave Link  302 at Fri Sep 10 19:27:52 2021, MaxMem= 24159191040 cpu:        11.3
 (Enter /public/home/users/caep010/software/Gaussian09/g09/l303.exe)
 DipDrv:  MaxL=1.
 Leave Link  303 at Fri Sep 10 19:27:52 2021, MaxMem= 24159191040 cpu:         0.6
 (Enter /public/home/users/caep010/software/Gaussian09/g09/l401.exe)
 ExpMin= 1.61D-01 ExpMax= 4.17D+03 ExpMxC= 6.27D+02 IAcc=1 IRadAn=         1 AccDes= 0.00D+00
 Harris functional with IExCor=  402 and IRadAn=       1 diagonalized for initial guess.
 HarFok:  IExCor=  402 AccDes= 0.00D+00 IRadAn=         1 IDoV= 1 UseB2=F ITyADJ=14
 ICtDFT=  3500011 ScaDFX=  1.000000  1.000000  1.000000  1.000000
 FoFCou: FMM=F IPFlag=           0 FMFlag=      100000 FMFlg1=           0
         NFxFlg=           0 DoJE=T BraDBF=F KetDBF=T FulRan=T
         wScrn=  0.000000 ICntrl=     500 IOpCl=  0 I1Cent=   200000004 NGrid=           0
         NMat0=    1 NMatS0=      1 NMatT0=    0 NMatD0=    1 NMtDS0=    0 NMtDT0=    0
 Petite list used in FoFCou.
 Harris En= -189.314183389062    
 JPrj=0 DoOrth=F DoCkMO=F.
 Leave Link  401 at Fri Sep 10 19:27:52 2021, MaxMem= 24159191040 cpu:         9.9
 (Enter /public/home/users/caep010/software/Gaussian09/g09/l502.exe)
 Closed shell SCF:
 Using DIIS extrapolation, IDIIS=  1040.
 Integral symmetry usage will be decided dynamically.
 Keep R1 ints in memory in canonical form, NReq=9343712.
 IVT=       46414 IEndB=       46414 NGot= 24159191040 MDV= 24150758067
 LenX= 24150758067 LenY= 24150749526
 Requested convergence on RMS density matrix=1.00D-08 within 128 cycles.
 Requested convergence on MAX density matrix=1.00D-06.
 Requested convergence on             energy=1.00D-06.
 No special actions if energy rises.
 FoFCou: FMM=F IPFlag=           0 FMFlag=           0 FMFlg1=           0
         NFxFlg=           0 DoJE=F BraDBF=F KetDBF=F FulRan=T
         wScrn=  0.000000 ICntrl=     600 IOpCl=  0 I1Cent=           0 NGrid=           0
         NMat0=    1 NMatS0=   4095 NMatT0=    0 NMatD0=    1 NMtDS0=    0 NMtDT0=    0
 Symmetry not used in FoFCou.
 Integral accuracy reduced to 1.0D-05 until final iterations.

 Cycle   1  Pass 0  IDiag  1:
 E= -189.172212169897    
 DIIS: error= 2.73D-02 at cycle   1 NSaved=   1.
 NSaved= 1 IEnMin= 1 EnMin= -189.172212169897     IErMin= 1 ErrMin= 2.73D-02
 ErrMax= 2.73D-02  0.00D+00 EMaxC= 1.00D-01 BMatC= 1.35D-01 BMatP= 1.35D-01
 IDIUse=3 WtCom= 7.27D-01 WtEn= 2.73D-01
 Coeff-Com:  0.100D+01
 Coeff-En:   0.100D+01
 Coeff:      0.100D+01
 Gap=     0.230 Goal=   None    Shift=    0.000
 GapD=    0.230 DampG=1.000 DampE=0.500 DampFc=0.5000 IDamp=-1.
 Damping current iteration by 5.00D-01
 RMSDP=1.01D-02 MaxDP=2.04D-01              OVMax= 3.05D-01

 Cycle   2  Pass 0  IDiag  1:
 E= -189.214868720691     Delta-E=       -0.042656550795 Rises=F Damp=T
 DIIS: error= 1.00D-02 at cycle   2 NSaved=   2.
 NSaved= 2 IEnMin= 2 EnMin= -189.214868720691     IErMin= 2 ErrMin= 1.00D-02
 ErrMax= 1.00D-02  0.00D+00 EMaxC= 1.00D-01 BMatC= 1.66D-02 BMatP= 1.35D-01
 IDIUse=3 WtCom= 9.00D-01 WtEn= 1.00D-01
 Coeff-Com:  0.186D+00 0.814D+00
 Coeff-En:   0.298D+00 0.702D+00
 Coeff:      0.197D+00 0.803D+00
 Gap=     0.316 Goal=   None    Shift=    0.000
 RMSDP=2.68D-03 MaxDP=5.75D-02 DE=-4.27D-02 OVMax= 2.07D-01

 Cycle   3  Pass 0  IDiag  1:
 E= -189.287137030549     Delta-E=       -0.072268309858 Rises=F Damp=F
 DIIS: error= 1.18D-02 at cycle   3 NSaved=   3.
 NSaved= 3 IEnMin= 3 EnMin= -189.287137030549     IErMin= 2 ErrMin= 1.00D-02
 ErrMax= 1.18D-02  0.00D+00 EMaxC= 1.00D-01 BMatC= 1.68D-02 BMatP= 1.66D-02
 IDIUse=3 WtCom= 8.82D-01 WtEn= 1.18D-01
 Coeff-Com:  0.616D-01 0.497D+00 0.441D+00
 Coeff-En:   0.000D+00 0.000D+00 0.100D+01
 Coeff:      0.543D-01 0.438D+00 0.508D+00
 Gap=     0.246 Goal=   None    Shift=    0.000
 RMSDP=1.82D-03 MaxDP=4.01D-02 DE=-7.23D-02 OVMax= 8.39D-02

 Cycle   4  Pass 0  IDiag  1:
 E= -189.300214306822     Delta-E=       -0.013077276273 Rises=F Damp=F
 DIIS: error= 6.29D-03 at cycle   4 NSaved=   4.
 NSaved= 4 IEnMin= 4 EnMin= -189.300214306822     IErMin= 4 ErrMin= 6.29D-03
 ErrMax= 6.29D-03  0.00D+00 EMaxC= 1.00D-01 BMatC= 3.50D-03 BMatP= 1.66D-02
 IDIUse=3 WtCom= 9.37D-01 WtEn= 6.29D-02
 Coeff-Com:  0.881D-02 0.584D-01 0.315D+00 0.618D+00
 Coeff-En:   0.000D+00 0.000D+00 0.208D+00 0.792D+00
 Coeff:      0.826D-02 0.547D-01 0.308D+00 0.629D+00
 Gap=     0.241 Goal=   None    Shift=    0.000
 RMSDP=6.61D-04 MaxDP=1.40D-02 DE=-1.31D-02 OVMax= 2.78D-02

 Cycle   5  Pass 0  IDiag  1:
 E= -189.303289015006     Delta-E=       -0.003074708184 Rises=F Damp=F
 DIIS: error= 1.32D-03 at cycle   5 NSaved=   5.
 NSaved= 5 IEnMin= 5 EnMin= -189.303289015006     IErMin= 5 ErrMin= 1.32D-03
 ErrMax= 1.32D-03  0.00D+00 EMaxC= 1.00D-01 BMatC= 1.69D-04 BMatP= 3.50D-03
 IDIUse=3 WtCom= 9.87D-01 WtEn= 1.32D-02
 Coeff-Com:  0.256D-02 0.579D-02 0.150D+00 0.357D+00 0.485D+00
 Coeff-En:   0.000D+00 0.000D+00 0.000D+00 0.000D+00 0.100D+01
 Coeff:      0.253D-02 0.571D-02 0.148D+00 0.352D+00 0.492D+00
 Gap=     0.244 Goal=   None    Shift=    0.000
 RMSDP=1.29D-04 MaxDP=3.57D-03 DE=-3.07D-03 OVMax= 4.39D-03

 Cycle   6  Pass 0  IDiag  1:
 E= -189.303434359752     Delta-E=       -0.000145344746 Rises=F Damp=F
 DIIS: error= 2.19D-04 at cycle   6 NSaved=   6.
 NSaved= 6 IEnMin= 6 EnMin= -189.303434359752     IErMin= 6 ErrMin= 2.19D-04
 ErrMax= 2.19D-04  0.00D+00 EMaxC= 1.00D-01 BMatC= 5.60D-06 BMatP= 1.69D-04
 IDIUse=3 WtCom= 9.98D-01 WtEn= 2.19D-03
 Coeff-Com:  0.484D-03-0.404D-02 0.274D-01 0.715D-01 0.200D+00 0.705D+00
 Coeff-En:   0.000D+00 0.000D+00 0.000D+00 0.000D+00 0.000D+00 0.100D+01
 Coeff:      0.483D-03-0.404D-02 0.273D-01 0.714D-01 0.199D+00 0.706D+00
 Gap=     0.244 Goal=   None    Shift=    0.000
 RMSDP=1.87D-05 MaxDP=4.27D-04 DE=-1.45D-04 OVMax= 4.24D-04

 Cycle   7  Pass 0  IDiag  1:
 E= -189.303438970864     Delta-E=       -0.000004611113 Rises=F Damp=F
 DIIS: error= 2.33D-05 at cycle   7 NSaved=   7.
 NSaved= 7 IEnMin= 7 EnMin= -189.303438970864     IErMin= 7 ErrMin= 2.33D-05
 ErrMax= 2.33D-05  0.00D+00 EMaxC= 1.00D-01 BMatC= 7.96D-08 BMatP= 5.60D-06
 IDIUse=1 WtCom= 1.00D+00 WtEn= 0.00D+00
 Coeff-Com:  0.198D-03-0.801D-03 0.140D-02 0.162D-02 0.224D-01 0.862D-01
 Coeff-Com:  0.889D+00
 Coeff:      0.198D-03-0.801D-03 0.140D-02 0.162D-02 0.224D-01 0.862D-01
 Coeff:      0.889D+00
 Gap=     0.244 Goal=   None    Shift=    0.000
 RMSDP=4.91D-06 MaxDP=1.09D-04 DE=-4.61D-06 OVMax= 1.06D-04

 Initial convergence to 1.0D-05 achieved.  Increase integral accuracy.
 Cycle   8  Pass 1  IDiag  1:
 E= -189.303494095016     Delta-E=       -0.000055124152 Rises=F Damp=F
 DIIS: error= 1.02D-05 at cycle   1 NSaved=   1.
 NSaved= 1 IEnMin= 1 EnMin= -189.303494095016     IErMin= 1 ErrMin= 1.02D-05
 ErrMax= 1.02D-05  0.00D+00 EMaxC= 1.00D-01 BMatC= 1.94D-08 BMatP= 1.94D-08
 IDIUse=1 WtCom= 1.00D+00 WtEn= 0.00D+00
 Coeff-Com:  0.100D+01
 Coeff:      0.100D+01
 Gap=     0.244 Goal=   None    Shift=    0.000
 RMSDP=4.91D-06 MaxDP=1.09D-04 DE=-5.51D-05 OVMax= 6.74D-05

 Cycle   9  Pass 1  IDiag  1:
 E= -189.303494095958     Delta-E=       -0.000000000942 Rises=F Damp=F
 DIIS: error= 1.22D-05 at cycle   2 NSaved=   2.
 NSaved= 2 IEnMin= 2 EnMin= -189.303494095958     IErMin= 1 ErrMin= 1.02D-05
 ErrMax= 1.22D-05  0.00D+00 EMaxC= 1.00D-01 BMatC= 2.43D-08 BMatP= 1.94D-08
 IDIUse=1 WtCom= 1.00D+00 WtEn= 0.00D+00
 Coeff-Com:  0.531D+00 0.469D+00
 Coeff:      0.531D+00 0.469D+00
 Gap=     0.244 Goal=   None    Shift=    0.000
 RMSDP=1.53D-06 MaxDP=2.92D-05 DE=-9.42D-10 OVMax= 4.77D-05

 Cycle  10  Pass 1  IDiag  1:
 E= -189.303494116653     Delta-E=       -0.000000020695 Rises=F Damp=F
 DIIS: error= 4.07D-06 at cycle   3 NSaved=   3.
 NSaved= 3 IEnMin= 3 EnMin= -189.303494116653     IErMin= 3 ErrMin= 4.07D-06
 ErrMax= 4.07D-06  0.00D+00 EMaxC= 1.00D-01 BMatC= 1.48D-09 BMatP= 1.94D-08
 IDIUse=1 WtCom= 1.00D+00 WtEn= 0.00D+00
 Coeff-Com:  0.156D+00 0.222D+00 0.622D+00
 Coeff:      0.156D+00 0.222D+00 0.622D+00
 Gap=     0.244 Goal=   None    Shift=    0.000
 RMSDP=6.74D-07 MaxDP=1.64D-05 DE=-2.07D-08 OVMax= 2.98D-05

 Cycle  11  Pass 1  IDiag  1:
 E= -189.303494117093     Delta-E=       -0.000000000439 Rises=F Damp=F
 DIIS: error= 2.62D-06 at cycle   4 NSaved=   4.
 NSaved= 4 IEnMin= 4 EnMin= -189.303494117093     IErMin= 4 ErrMin= 2.62D-06
 ErrMax= 2.62D-06  0.00D+00 EMaxC= 1.00D-01 BMatC= 9.49D-10 BMatP= 1.48D-09
 IDIUse=1 WtCom= 1.00D+00 WtEn= 0.00D+00
 Coeff-Com: -0.126D-01 0.474D-01 0.474D+00 0.491D+00
 Coeff:     -0.126D-01 0.474D-01 0.474D+00 0.491D+00
 Gap=     0.244 Goal=   None    Shift=    0.000
 RMSDP=3.23D-07 MaxDP=8.39D-06 DE=-4.39D-10 OVMax= 1.48D-05

 Cycle  12  Pass 1  IDiag  1:
 E= -189.303494117982     Delta-E=       -0.000000000889 Rises=F Damp=F
 DIIS: error= 1.54D-07 at cycle   5 NSaved=   5.
 NSaved= 5 IEnMin= 5 EnMin= -189.303494117982     IErMin= 5 ErrMin= 1.54D-07
 ErrMax= 1.54D-07  0.00D+00 EMaxC= 1.00D-01 BMatC= 3.87D-12 BMatP= 9.49D-10
 IDIUse=1 WtCom= 1.00D+00 WtEn= 0.00D+00
 Coeff-Com: -0.724D-02 0.113D-01 0.149D+00 0.173D+00 0.674D+00
 Coeff:     -0.724D-02 0.113D-01 0.149D+00 0.173D+00 0.674D+00
 Gap=     0.244 Goal=   None    Shift=    0.000
 RMSDP=2.36D-08 MaxDP=4.10D-07 DE=-8.89D-10 OVMax= 6.09D-07

 Cycle  13  Pass 1  IDiag  1:
 E= -189.303494117985     Delta-E=       -0.000000000003 Rises=F Damp=F
 DIIS: error= 5.41D-08 at cycle   6 NSaved=   6.
 NSaved= 6 IEnMin= 6 EnMin= -189.303494117985     IErMin= 6 ErrMin= 5.41D-08
 ErrMax= 5.41D-08  0.00D+00 EMaxC= 1.00D-01 BMatC= 3.99D-13 BMatP= 3.87D-12
 IDIUse=1 WtCom= 1.00D+00 WtEn= 0.00D+00
 Coeff-Com: -0.255D-02 0.295D-02 0.457D-01 0.566D-01 0.309D+00 0.588D+00
 Coeff:     -0.255D-02 0.295D-02 0.457D-01 0.566D-01 0.309D+00 0.588D+00
 Gap=     0.244 Goal=   None    Shift=    0.000
 RMSDP=6.84D-09 MaxDP=1.71D-07 DE=-3.07D-12 OVMax= 3.07D-07

 SCF Done:  E(RB3LYP) =  -189.303494118     A.U. after   13 cycles
            NFock= 13  Conv=0.68D-08     -V/T= 2.0113
 KE= 1.871792050499D+02 PE=-6.757242416225D+02 EE= 1.812822221080D+02
 Leave Link  502 at Fri Sep 10 19:27:53 2021, MaxMem= 24159191040 cpu:        21.3
 (Enter /public/home/users/caep010/software/Gaussian09/g09/l801.exe)
 DoSCS=F DFT=T ScalE2(SS,OS)=  1.000000  1.000000
 Range of M.O.s used for correlation:     1    90
 NBasis=    90 NAE=    16 NBE=    16 NFC=     0 NFV=     0
 NROrb=     90 NOA=    16 NOB=    16 NVA=    74 NVB=    74
 Leave Link  801 at Fri Sep 10 19:27:53 2021, MaxMem= 24159191040 cpu:         0.6
 (Enter /public/home/users/caep010/software/Gaussian09/g09/l1101.exe)
 Using compressed storage, NAtomX=    10.
 Will process     11 centers per pass.
 Leave Link 1101 at Fri Sep 10 19:27:54 2021, MaxMem= 24159191040 cpu:        12.5
 (Enter /public/home/users/caep010/software/Gaussian09/g09/l1102.exe)
 Symmetrizing basis deriv contribution to polar:
 IMax=3 JMax=2 DiffMx= 0.00D+00
 Leave Link 1102 at Fri Sep 10 19:27:54 2021, MaxMem= 24159191040 cpu:         0.7
 (Enter /public/home/users/caep010/software/Gaussian09/g09/l1110.exe)
 Forming Gx(P) for the SCF density, NAtomX=    10.
 Integral derivatives from FoFJK, PRISM(SPDF).
 Do as many integral derivatives as possible in FoFJK.
 G2DrvN: MDV=   24159190856.
 G2DrvN: will do    11 centers at a time, making    1 passes.
 Calling FoFCou, ICntrl=  3107 FMM=F I1Cent=   0 AccDes= 0.00D+00.
 FoFJK:  IHMeth= 1 ICntrl=    3107 DoSepK=F KAlg= 0 I1Cent=   0 FoldK=F
 IRaf=         0 NMat=   1 IRICut=       1 DoRegI=T DoRafI=F ISym2E= 0.
 FoFCou: FMM=F IPFlag=           0 FMFlag=      100000 FMFlg1=           0
         NFxFlg=           0 DoJE=F BraDBF=F KetDBF=F FulRan=T
         wScrn=  0.000000 ICntrl=    3107 IOpCl=  0 I1Cent=           0 NGrid=           0
         NMat0=    1 NMatS0=      1 NMatT0=    0 NMatD0=    1 NMtDS0=    0 NMtDT0=    0
 Symmetry not used in FoFCou.
 End of G2Drv F.D. properties file   721 does not exist.
 End of G2Drv F.D. properties file   722 does not exist.
 End of G2Drv F.D. properties file   788 does not exist.
 Leave Link 1110 at Fri Sep 10 19:27:54 2021, MaxMem= 24159191040 cpu:        25.0
 (Enter /public/home/users/caep010/software/Gaussian09/g09/l1002.exe)
 Minotr:  Closed shell wavefunction.
          IDoAtm=1111111111
          Direct CPHF calculation.
          Differentiating once with respect to nuclear coordinates.
          Requested convergence is 1.0D-08 RMS, and 1.0D-07 maximum.
          Secondary convergence is 1.0D-12 RMS, and 1.0D-12 maximum.
          NewPWx=T KeepS1=F KeepF1=F KeepIn=T MapXYZ=F SortEE=F KeepMc=T.
          MDV=   24159190846 using IRadAn=       2.
 Generate precomputed XC quadrature information.
 Keep R1 ints in memory in canonical form, NReq=9298887.
 FoFCou: FMM=F IPFlag=           0 FMFlag=           0 FMFlg1=           0
         NFxFlg=           0 DoJE=F BraDBF=F KetDBF=F FulRan=T
         wScrn=  0.000000 ICntrl=     600 IOpCl=  0 I1Cent=           0 NGrid=           0
         NMat0=    1 NMatS0=   4095 NMatT0=    0 NMatD0=    1 NMtDS0=    0 NMtDT0=    0
 Symmetry not used in FoFCou.
          Solving linear equations simultaneously, MaxMat=       0.
          There are    33 degrees of freedom in the 1st order CPHF.  IDoFFX=6 NUNeed=     0.
     27 vectors produced by pass  0 Test12= 3.59D-15 3.03D-09 XBig12= 1.09D-01 1.20D-01.
 AX will form    27 AO Fock derivatives at one time.
     27 vectors produced by pass  1 Test12= 3.59D-15 3.03D-09 XBig12= 2.21D-02 4.57D-02.
     27 vectors produced by pass  2 Test12= 3.59D-15 3.03D-09 XBig12= 2.66D-04 3.12D-03.
     27 vectors produced by pass  3 Test12= 3.59D-15 3.03D-09 XBig12= 8.31D-07 2.06D-04.
     27 vectors produced by pass  4 Test12= 3.59D-15 3.03D-09 XBig12= 9.27D-10 5.51D-06.
     13 vectors produced by pass  5 Test12= 3.59D-15 3.03D-09 XBig12= 4.15D-13 1.14D-07.
      1 vectors produced by pass  6 Test12= 3.59D-15 3.03D-09 XBig12= 2.15D-16 3.20D-09.
 InvSVY:  IOpt=1 It=  1 EMax= 2.22D-15
 Solved reduced A of dimension   149 with    27 vectors.
 End of Minotr F.D. properties file   721 does not exist.
 End of Minotr F.D. properties file   722 does not exist.
 End of Minotr F.D. properties file   788 does not exist.
 Leave Link 1002 at Fri Sep 10 19:27:56 2021, MaxMem= 24159191040 cpu:        30.9
 (Enter /public/home/users/caep010/software/Gaussian09/g09/l601.exe)
 Copying SCF densities to generalized density rwf, IOpCl= 0 IROHF=0.

 **********************************************************************

            Population analysis using the SCF density.

 **********************************************************************

 Orbital symmetries:
       Occupied  (A) (A) (A) (A) (A) (A) (A) (A) (A) (A) (A) (A)
                 (A) (A) (A) (A)
       Virtual   (A) (A) (A) (A) (A) (A) (A) (A) (A) (A) (A) (A)
                 (A) (A) (A) (A) (A) (A) (A) (A) (A) (A) (A) (A)
                 (A) (A) (A) (A) (A) (A) (A) (A) (A) (A) (A) (A)
                 (A) (A) (A) (A) (A) (A) (A) (A) (A) (A) (A) (A)
                 (A) (A) (A) (A) (A) (A) (A) (A) (A) (A) (A) (A)
                 (A) (A) (A) (A) (A) (A) (A) (A) (A) (A) (A) (A)
                 (A) (A)
 The electronic state is 1-A.
 Alpha  occ. eigenvalues --  -14.34975 -14.28868 -10.25394 -10.22588  -0.92499
 Alpha  occ. eigenvalues --   -0.83707  -0.67899  -0.61189  -0.50716  -0.46799
 Alpha  occ. eigenvalues --   -0.43938  -0.42290  -0.39634  -0.33140  -0.23495
 Alpha  occ. eigenvalues --   -0.21378
 Alpha virt. eigenvalues --    0.02975   0.06989   0.09916   0.13201   0.14496
 Alpha virt. eigenvalues --    0.15740   0.17092   0.21712   0.31046   0.34320
 Alpha virt. eigenvalues --    0.51818   0.54414   0.54674   0.59285   0.60099
 Alpha virt. eigenvalues --    0.63572   0.72296   0.74687   0.75894   0.78097
 Alpha virt. eigenvalues --    0.78947   0.83866   0.84185   0.85684   0.89956
 Alpha virt. eigenvalues --    0.90468   0.92664   1.01979   1.15593   1.21698
 Alpha virt. eigenvalues --    1.26462   1.29228   1.33907   1.43854   1.51571
 Alpha virt. eigenvalues --    1.62733   1.67993   1.74323   1.83744   1.83899
 Alpha virt. eigenvalues --    1.91396   1.93810   2.00160   2.01940   2.02127
 Alpha virt. eigenvalues --    2.09970   2.10152   2.17589   2.25581   2.29608
 Alpha virt. eigenvalues --    2.39222   2.46285   2.48038   2.49794   2.53516
 Alpha virt. eigenvalues --    2.57757   2.60162   2.66265   2.68490   2.75566
 Alpha virt. eigenvalues --    2.83455   2.84144   2.91081   2.98565   3.13481
 Alpha virt. eigenvalues --    3.30057   3.37670   3.37721   3.47135   3.56287
 Alpha virt. eigenvalues --    3.92031   3.96651   4.31703   4.49832
          Condensed to atoms (all electrons):
               1          2          3          4          5          6
     1  C    4.792201   0.263767  -0.026489   0.005139   0.389056   0.389058
     2  N    0.263767   6.900349   0.314774  -0.087823  -0.051980  -0.051970
     3  C   -0.026489   0.314774   4.495654   0.619314  -0.002770  -0.002769
     4  N    0.005139  -0.087823   0.619314   6.749472   0.000178   0.000178
     5  H    0.389056  -0.051980  -0.002770   0.000178   0.619602  -0.047256
     6  H    0.389058  -0.051970  -0.002769   0.000178  -0.047256   0.619578
     7  H    0.381172  -0.023008   0.002259  -0.000205  -0.028679  -0.028680
     8  H   -0.031570   0.337681  -0.020859   0.000644   0.003067   0.003066
     9  H    0.003422  -0.067424   0.382446  -0.043458   0.001384   0.001384
    10  H    0.000576  -0.014421  -0.060969   0.311366   0.000005   0.000005
               7          8          9         10
     1  C    0.381172  -0.031570   0.003422   0.000576
     2  N   -0.023008   0.337681  -0.067424  -0.014421
     3  C    0.002259  -0.020859   0.382446  -0.060969
     4  N   -0.000205   0.000644  -0.043458   0.311366
     5  H   -0.028679   0.003067   0.001384   0.000005
     6  H   -0.028680   0.003066   0.001384   0.000005
     7  H    0.591657  -0.006599  -0.000163  -0.000019
     8  H   -0.006599   0.444395   0.004146   0.006854
     9  H   -0.000163   0.004146   0.589364   0.007184
    10  H   -0.000019   0.006854   0.007184   0.535702
 Mulliken charges:
               1
     1  C   -0.166333
     2  N   -0.519945
     3  C    0.299409
     4  N   -0.554805
     5  H    0.117394
     6  H    0.117404
     7  H    0.112266
     8  H    0.259176
     9  H    0.121714
    10  H    0.213719
 Sum of Mulliken charges =  -0.00000
 Mulliken charges with hydrogens summed into heavy atoms:
               1
     1  C    0.180732
     2  N   -0.260769
     3  C    0.421123
     4  N   -0.341086
 APT charges:
               1
     1  C   -1.023150
     2  N   -0.609020
     3  C   -0.440699
     4  N   -0.495295
     5  H    0.336766
     6  H    0.336804
     7  H    0.471252
     8  H    0.500215
     9  H    0.395132
    10  H    0.527996
 Sum of APT charges =  -0.00000
 APT charges with hydrogens summed into heavy atoms:
               1
     1  C    0.121672
     2  N   -0.108805
     3  C   -0.045567
     4  N    0.032700
 Electronic spatial extent (au):  <R**2>=            338.2245
 Charge=             -0.0000 electrons
 Dipole moment (field-independent basis, Debye):
    X=              3.0133    Y=              1.2744    Z=             -0.0000  Tot=              3.2717
 Quadrupole moment (field-independent basis, Debye-Ang):
   XX=            -29.8700   YY=            -20.3412   ZZ=            -26.5827
   XY=             -2.3572   XZ=             -0.0003   YZ=             -0.0000
 Traceless Quadrupole moment (field-independent basis, Debye-Ang):
   XX=             -4.2720   YY=              5.2568   ZZ=             -0.9847
   XY=             -2.3572   XZ=             -0.0003   YZ=             -0.0000
 Octapole moment (field-independent basis, Debye-Ang**2):
  XXX=             18.8099  YYY=              5.4149  ZZZ=             -0.0001  XYY=             -2.0408
  XXY=              9.2452  XXZ=              0.0001  XZZ=              0.9784  YZZ=             -0.2242
  YYZ=             -0.0001  XYZ=              0.0001
 Hexadecapole moment (field-independent basis, Debye-Ang**3):
 XXXX=           -381.9952 YYYY=            -52.0235 ZZZZ=            -32.2247 XXXY=            -15.7261
 XXXZ=             -0.0015 YYYX=             -0.4441 YYYZ=              0.0000 ZZZX=             -0.0002
 ZZZY=              0.0000 XXYY=            -61.8799 XXZZ=            -65.4854 YYZZ=            -16.2333
 XXYZ=              0.0004 YYXZ=             -0.0004 ZZXY=             -1.8504
 N-N= 1.179593203466D+02 E-N=-6.757242410007D+02  KE= 1.871792050499D+02
  Exact polarizability:   0.000   0.000   0.000   0.000   0.000   0.000
 Approx polarizability:  76.255  -4.245  50.595   0.001  -0.000  29.634
 No NMR shielding tensors so no spin-rotation constants.
 Leave Link  601 at Fri Sep 10 19:27:56 2021, MaxMem= 24159191040 cpu:        11.4
 (Enter /public/home/users/caep010/software/Gaussian09/g09/l701.exe)
 Compute integral second derivatives.
 ... and contract with generalized density number  0.
 Leave Link  701 at Fri Sep 10 19:27:56 2021, MaxMem= 24159191040 cpu:        12.1
 (Enter /public/home/users/caep010/software/Gaussian09/g09/l702.exe)
 L702 exits ... SP integral derivatives will be done elsewhere.
 Leave Link  702 at Fri Sep 10 19:27:56 2021, MaxMem= 24159191040 cpu:         0.5
 (Enter /public/home/users/caep010/software/Gaussian09/g09/l703.exe)
 Compute integral second derivatives, UseDBF=F ICtDFT=           0.
 Integral derivatives from FoFJK, PRISM(SPDF).
 Calling FoFJK, ICntrl=    100147 FMM=F ISym2X=0 I1Cent= 0 IOpClX= 0 NMat=1 NMatS=1 NMatT=0.
 FoFJK:  IHMeth= 1 ICntrl=  100147 DoSepK=F KAlg= 0 I1Cent=   0 FoldK=F
 IRaf=         0 NMat=   1 IRICut=       1 DoRegI=T DoRafI=F ISym2E= 0.
 FoFCou: FMM=F IPFlag=           0 FMFlag=      100000 FMFlg1=         800
         NFxFlg=           0 DoJE=F BraDBF=F KetDBF=F FulRan=T
         wScrn=  0.000000 ICntrl=  100147 IOpCl=  0 I1Cent=           0 NGrid=           0
         NMat0=    1 NMatS0=      1 NMatT0=    0 NMatD0=    1 NMtDS0=    0 NMtDT0=    0
 Symmetry not used in FoFCou.
 Leave Link  703 at Fri Sep 10 19:27:58 2021, MaxMem= 24159191040 cpu:        32.8
 (Enter /public/home/users/caep010/software/Gaussian09/g09/l716.exe)
 Dipole        = 1.18552960D+00 5.01403219D-01-1.18581994D-05
 Polarizability= 0.00000000D+00 0.00000000D+00 0.00000000D+00
                 0.00000000D+00 0.00000000D+00 0.00000000D+00
 ***** Axes restored to original set *****
 -------------------------------------------------------------------
 Center     Atomic                   Forces (Hartrees/Bohr)
 Number     Number              X              Y              Z
 -------------------------------------------------------------------
      1        6          -0.000826756    0.001583298    0.000002255
      2        7           0.008740744   -0.015585997   -0.000412908
      3        6           0.023907154    0.087715217   -0.004929425
      4        7           0.002754260   -0.023223766    0.000396175
      5        1          -0.002874938    0.004577503    0.008091795
      6        1          -0.004435928    0.004113118   -0.007591860
      7        1           0.005746656   -0.010607833   -0.000261124
      8        1          -0.002685800   -0.032449832    0.001211834
      9        1          -0.008352404   -0.001179834    0.000867131
     10        1          -0.021972989   -0.014941874    0.002626127
 -------------------------------------------------------------------
 Cartesian Forces:  Max     0.087715217 RMS     0.019442801
 Force constants in Cartesian coordinates: 
                1             2             3             4             5 
      1  0.478649D+00
      2 -0.312256D-01  0.566038D+00
      3  0.606807D-02  0.202458D-02  0.530005D+00
      4 -0.218937D+00 -0.339760D-01  0.182336D-01  0.606052D+00
      5 -0.471200D-01 -0.122235D+00  0.691689D-02  0.577297D-01  0.649292D+00
      6  0.186095D-01  0.560449D-02 -0.479289D-01 -0.568210D-01 -0.230938D-01
      7 -0.338856D-01  0.205897D-01  0.201749D-02 -0.159233D+00  0.325947D-01
      8  0.395190D-02  0.174824D-01 -0.112337D-02  0.362383D-01 -0.193625D+00
      9  0.250391D-02 -0.278216D-02 -0.778376D-02  0.101834D-01  0.103691D-02
     10  0.501960D-02  0.583384D-02  0.960849D-04 -0.764220D-01  0.206130D-01
     11  0.206407D-02 -0.532025D-02  0.173146D-03  0.410769D-01  0.188885D-01
     12  0.206135D-03 -0.202317D-03  0.767723D-02  0.910545D-02 -0.181820D-02
     13 -0.614366D-01 -0.273545D-01 -0.446988D-01 -0.258720D-01 -0.236286D-01
     14 -0.301181D-01 -0.123427D+00 -0.975675D-01 -0.960833D-02 -0.345442D-02
     15 -0.459778D-01 -0.993693D-01 -0.197977D+00 -0.223789D-02  0.445065D-02
     16 -0.491193D-01 -0.598491D-02  0.145855D-01 -0.202545D-01 -0.226761D-01
     17 -0.897134D-02 -0.112093D+00  0.960699D-01 -0.830766D-02 -0.327588D-02
     18  0.160326D-01  0.973006D-01 -0.221704D+00  0.925869D-02  0.911908D-03
     19 -0.118549D+00  0.989760D-01  0.375814D-02 -0.236618D-01  0.311321D-01
     20  0.109959D+00 -0.221433D+00 -0.602295D-02 -0.866442D-02  0.103344D-01
     21  0.343964D-02 -0.492924D-02 -0.521364D-01  0.246487D-02 -0.344456D-02
     22 -0.305680D-02 -0.267744D-01  0.258181D-03 -0.941059D-01 -0.687321D-01
     23  0.342291D-02  0.791601D-03 -0.604989D-03 -0.712534D-01 -0.341843D+00
     24 -0.618173D-03  0.240615D-02 -0.827498D-02  0.113237D-01  0.167388D-01
     25  0.139817D-02  0.394258D-03 -0.109997D-03  0.731974D-02  0.216017D-01
     26 -0.157329D-02 -0.380247D-03  0.179619D-03 -0.563299D-02 -0.162714D-01
     27 -0.529154D-04 -0.163575D-04  0.414872D-03 -0.308621D-03 -0.160362D-02
     28 -0.823696D-04 -0.478293D-03 -0.208335D-03  0.511454D-02 -0.151448D-02
     29 -0.390009D-03  0.576359D-03 -0.452804D-04  0.239787D-02  0.218908D-02
     30 -0.210928D-03 -0.364403D-04 -0.229092D-02 -0.120221D-02 -0.949489D-04
                6             7             8             9            10 
      6  0.589038D-01
      7  0.102948D-01  0.744142D+00
      8  0.670000D-03  0.161133D+00  0.694374D+00
      9 -0.474514D-01 -0.624953D-01 -0.314803D-01  0.170912D+00
     10  0.969936D-02 -0.484630D+00 -0.100144D+00  0.445490D-01  0.640914D+00
     11 -0.385681D-02 -0.160077D+00 -0.158683D+00  0.186228D-01  0.206736D+00
     12  0.261314D-01  0.462937D-01  0.126536D-01 -0.715824D-01 -0.627018D-01
     13 -0.182009D-01  0.405438D-02 -0.445287D-02 -0.155912D-02 -0.238834D-02
     14 -0.347876D-02  0.194722D-02 -0.911840D-03  0.614092D-03 -0.115009D-02
     15  0.120297D-01  0.582109D-03 -0.166061D-02  0.852949D-03 -0.400845D-03
     16  0.260481D-01  0.413201D-02 -0.395057D-02  0.113721D-02 -0.258328D-02
     17  0.601446D-02  0.174158D-02 -0.831292D-03 -0.887568D-03 -0.108955D-02
     18  0.623974D-02 -0.135554D-02  0.259197D-02  0.695875D-03  0.911433D-03
     19  0.130838D-02 -0.268333D-02 -0.653783D-02  0.451987D-03 -0.222204D-02
     20  0.520652D-03 -0.144433D-02 -0.567762D-03  0.158739D-03 -0.604228D-03
     21 -0.159503D-02  0.303481D-03  0.666213D-03 -0.108701D-03  0.267901D-03
     22  0.112513D-01  0.118584D-01  0.217586D-01 -0.237889D-02  0.115420D-02
     23  0.169951D-01 -0.118963D-01 -0.171009D-01  0.151616D-02 -0.101674D-02
     24 -0.284857D-02 -0.140202D-02 -0.183375D-02 -0.548511D-02 -0.292563D-03
     25 -0.110050D-02 -0.651951D-01 -0.694078D-01  0.480255D-02 -0.184612D-01
     26  0.110917D-02 -0.676141D-01 -0.330464D+00  0.152617D-01 -0.107558D-01
     27  0.265252D-02  0.475098D-02  0.154403D-01 -0.381589D-01  0.170427D-02
     28 -0.108892D-02 -0.185602D-01 -0.385886D-01  0.280528D-02 -0.603801D-01
     29 -0.484504D-03  0.230254D-01 -0.967239D-02 -0.206036D-02 -0.118423D+00
     30 -0.613330D-02  0.101037D-02  0.407593D-02 -0.189049D-02  0.616724D-02
               11            12            13            14            15 
     11  0.467803D+00
     12 -0.321211D-01  0.789897D-01
     13  0.688309D-03  0.183005D-02  0.806399D-01
     14  0.323711D-03 -0.192049D-04  0.429378D-01  0.129496D+00
     15  0.492196D-03 -0.384297D-03  0.519864D-01  0.109418D+00  0.206732D+00
     16  0.480167D-03 -0.141868D-02  0.234924D-02  0.475548D-02 -0.562968D-02
     17  0.297177D-03  0.209778D-03  0.205960D-02  0.103451D-01 -0.157109D-01
     18 -0.641104D-03 -0.162764D-03  0.694016D-03  0.131854D-01 -0.211402D-01
     19  0.197467D-02  0.192656D-03  0.629754D-02 -0.744312D-02  0.989252D-03
     20  0.558305D-03  0.523455D-04  0.857013D-02 -0.129279D-01  0.110171D-02
     21 -0.204520D-03  0.269695D-03  0.145165D-01 -0.204748D-01  0.619439D-03
     22 -0.533669D-03 -0.307506D-03 -0.364836D-02 -0.145819D-02  0.799201D-03
     23  0.377075D-02 -0.686834D-04  0.319066D-03  0.326801D-03  0.842360D-03
     24 -0.117311D-03 -0.205406D-02 -0.382550D-02 -0.156510D-02 -0.644952D-03
     25 -0.313276D-01  0.230348D-02 -0.212202D-03 -0.688322D-04 -0.205669D-03
     26 -0.803808D-03  0.964368D-03  0.635594D-03  0.206080D-03  0.349670D-03
     27  0.301293D-02 -0.474640D-02 -0.149066D-04 -0.293132D-03 -0.270308D-03
     28 -0.610825D-01  0.449659D-02  0.216424D-03  0.206089D-03  0.949744D-04
     29 -0.326835D+00  0.203494D-01  0.225435D-03  0.226821D-04  0.858960D-04
     30  0.146398D-01 -0.341381D-01 -0.727755D-03  0.180675D-03  0.182935D-03
               16            17            18            19            20 
     16  0.652046D-01
     17  0.188131D-01  0.116755D+00
     18 -0.240463D-01 -0.109856D+00  0.234975D+00
     19  0.305155D-02 -0.324876D-02 -0.128341D-02  0.136598D+00
     20  0.739221D-02 -0.117707D-01 -0.188058D-02 -0.115440D+00  0.234004D+00
     21 -0.155860D-01  0.223522D-01  0.271049D-02 -0.538190D-02  0.611680D-02
     22 -0.294068D-02 -0.115667D-02 -0.265641D-03  0.717683D-03  0.340647D-03
     23  0.374127D-03  0.370366D-03 -0.989433D-03  0.390846D-03  0.136810D-02
     24  0.426322D-02  0.174737D-02 -0.139568D-02  0.383050D-04 -0.383029D-04
     25 -0.174952D-03 -0.103620D-05  0.188904D-03  0.140456D-03 -0.227527D-03
     26  0.550758D-03  0.197913D-03 -0.496309D-03  0.374027D-03  0.479101D-03
     27 -0.383546D-04  0.271622D-03 -0.299377D-03 -0.467963D-04  0.233591D-05
     28  0.335273D-03  0.160741D-03 -0.134725D-03  0.311174D-03  0.118555D-03
     29  0.245751D-03  0.518685D-05 -0.126099D-03 -0.177489D-03 -0.442804D-04
     30  0.684934D-03 -0.210511D-03  0.815039D-04 -0.266061D-04 -0.107442D-04
               21            22            23            24            25 
     21  0.492463D-01
     22  0.400202D-04  0.951166D-01
     23 -0.432923D-04  0.756313D-01  0.352266D+00
     24  0.121472D-02 -0.102330D-01 -0.173483D-01  0.159938D-01
     25 -0.292963D-04 -0.352425D-02  0.280189D-02  0.613499D-03  0.811934D-01
     26 -0.575878D-04  0.242336D-02 -0.558999D-03 -0.124600D-03  0.807244D-01
     27 -0.215198D-03  0.624607D-03 -0.162360D-03  0.339560D-02 -0.814100D-02
     28 -0.352802D-04 -0.157085D-02  0.122627D-02  0.132530D-03 -0.248410D-02
     29  0.187339D-04 -0.149890D-02  0.608411D-03  0.135021D-03 -0.448957D-02
     30 -0.534169D-05  0.211772D-03 -0.136630D-03  0.992091D-04  0.167803D-02
               26            27            28            29            30 
     26  0.346829D+00
     27 -0.174567D-01  0.243467D-01
     28  0.867996D-03  0.152274D-02  0.771002D-01
     29  0.766050D-03  0.804956D-03  0.990843D-01  0.332384D+00
     30  0.270660D-03  0.128805D-01 -0.758485D-02 -0.186778D-01  0.312140D-01
 FormGI is forming the generalized inverse of G from B-inverse, IUseBI=4.
 Force constants in internal coordinates: 
                1             2             3             4             5 
      1  0.346432D+00
      2  0.158850D-01  0.304350D+00
      3  0.158808D-01  0.439320D-02  0.304436D+00
      4  0.519797D-02  0.254628D-02  0.254522D-02  0.310839D+00
      5  0.132215D-01 -0.188908D-02 -0.188911D-02 -0.149297D-02  0.307766D+00
      6 -0.775600D-03 -0.700639D-03 -0.700723D-03  0.856859D-03  0.380867D-03
      7 -0.318454D-03  0.116512D-02  0.116514D-02  0.512645D-03  0.617433D-01
      8  0.411257D-03  0.504982D-03  0.504959D-03 -0.111849D-03  0.527178D-02
      9 -0.278303D-03 -0.212490D-03 -0.212471D-03  0.376076D-04  0.702193D-03
     10  0.314121D-01 -0.258896D-02 -0.425256D-02 -0.514262D-02 -0.406954D-02
     11  0.313986D-01 -0.425327D-02 -0.258855D-02 -0.514323D-02 -0.407040D-02
     12  0.175432D-01 -0.388166D-02 -0.388128D-02  0.223041D-02  0.334173D-02
     13 -0.293622D-01  0.715578D-02  0.715437D-02 -0.184473D-02  0.258201D-02
     14 -0.260443D-01  0.629239D-02 -0.259625D-02  0.502406D-02  0.115389D-02
     15 -0.260441D-01 -0.259570D-02  0.629181D-02  0.502425D-02  0.115422D-02
     16  0.134035D-01 -0.128455D-02 -0.128448D-02  0.321463D-02  0.115820D-01
     17  0.961637D-02  0.187152D-02  0.187121D-02 -0.195428D-02 -0.163199D-01
     18 -0.230199D-01 -0.587021D-03 -0.586678D-03 -0.126035D-02  0.473790D-02
     19  0.649539D-02  0.148513D-02  0.148490D-02  0.124881D-02  0.378730D-01
     20 -0.435051D-02 -0.363176D-03 -0.363088D-03 -0.941113D-03 -0.259630D-02
     21 -0.214487D-02 -0.112195D-02 -0.112181D-02 -0.307696D-03 -0.352767D-01
     22 -0.146288D-02 -0.380347D-03 -0.380303D-03 -0.182368D-03 -0.728319D-02
     23 -0.161843D-02  0.228743D-03 -0.476200D-02  0.437316D-02  0.966026D-03
     24 -0.161865D-02  0.829362D-03 -0.536240D-02  0.437312D-02  0.964055D-03
     25  0.161972D-02  0.476291D-02 -0.228975D-03 -0.437313D-02 -0.964154D-03
     26  0.161950D-02  0.536353D-02 -0.829381D-03 -0.437318D-02 -0.966125D-03
     27  0.000000D+00 -0.349700D-02  0.349593D-02  0.000000D+00  0.000000D+00
     28  0.000000D+00 -0.289638D-02  0.289552D-02  0.000000D+00  0.000000D+00
     29  0.000000D+00  0.937624D-04 -0.939131D-04  0.000000D+00  0.000000D+00
     30 -0.105394D-05 -0.331631D-04  0.331125D-04  0.000000D+00  0.000000D+00
     31  0.131653D-05 -0.512078D-03  0.511975D-03  0.000000D+00  0.000000D+00
     32  0.000000D+00 -0.639003D-03  0.639000D-03  0.000000D+00  0.000000D+00
     33  0.000000D+00 -0.110249D-03  0.110297D-03  0.000000D+00  0.000000D+00
     34  0.000000D+00  0.156742D-04 -0.157341D-04  0.000000D+00  0.000000D+00
                6             7             8             9            10 
      6  0.373914D+00
      7  0.989783D-03  0.636538D+00
      8 -0.563330D-03  0.171536D-01  0.370459D+00
      9  0.414664D-03 -0.884630D-02  0.428647D-03  0.367369D+00
     10  0.133016D-02  0.199046D-02  0.396877D-03 -0.360233D-03  0.133368D+00
     11  0.132931D-02  0.198983D-02  0.396852D-03 -0.360205D-03 -0.273595D-01
     12 -0.229431D-02  0.124780D-02  0.620847D-03  0.267336D-03 -0.253796D-01
     13 -0.106468D-02 -0.198769D-02 -0.340286D-03  0.209404D-03 -0.448762D-01
     14  0.340599D-03 -0.165536D-02 -0.545974D-03  0.126080D-03 -0.442993D-01
     15  0.340880D-03 -0.165550D-02 -0.546044D-03  0.126073D-03  0.720972D-02
     16 -0.853898D-02  0.347437D-02 -0.174903D-02 -0.997615D-03 -0.495694D-02
     17  0.217505D-02 -0.290222D-02 -0.390231D-03 -0.158334D-02  0.674965D-02
     18  0.636393D-02 -0.572141D-03  0.213926D-02  0.258096D-02 -0.179289D-02
     19 -0.604591D-02  0.234933D-01 -0.105409D-01 -0.788656D-02  0.957392D-03
     20  0.472911D-02 -0.380415D-01  0.661369D-02 -0.138892D-02 -0.164500D-03
     21  0.131680D-02  0.145482D-01  0.392726D-02  0.927548D-02 -0.792883D-03
     22  0.133391D-02  0.587012D-01 -0.484834D-03  0.309497D-01 -0.241443D-03
     23 -0.178448D-03 -0.241774D-04 -0.394095D-04  0.972761D-04  0.147766D-02
     24 -0.179197D-03 -0.240070D-04 -0.394966D-04  0.971565D-04  0.364946D-02
     25  0.179149D-03  0.241685D-04  0.394964D-04 -0.971705D-04  0.127277D-01
     26  0.178399D-03  0.243389D-04  0.394093D-04 -0.972901D-04  0.148995D-01
     27  0.000000D+00  0.000000D+00  0.000000D+00  0.000000D+00 -0.112109D-01
     28  0.000000D+00  0.000000D+00  0.000000D+00  0.000000D+00 -0.903913D-02
     29  0.000000D+00  0.000000D+00  0.000000D+00  0.000000D+00  0.248052D-03
     30  0.000000D+00  0.000000D+00  0.000000D+00  0.000000D+00  0.143903D-02
     31  0.000000D+00  0.000000D+00  0.000000D+00  0.000000D+00 -0.194265D-02
     32  0.000000D+00  0.000000D+00  0.000000D+00  0.000000D+00 -0.751676D-03
     33  0.000000D+00  0.133172D-05  0.000000D+00  0.000000D+00  0.164479D-02
     34  0.000000D+00  0.000000D+00  0.000000D+00  0.000000D+00  0.463177D-03
               11            12            13            14            15 
     11  0.133357D+00
     12 -0.253917D-01  0.123690D+00
     13 -0.448654D-01  0.869152D-02  0.613138D-01
     14  0.721175D-02 -0.409941D-01  0.104664D-01  0.583262D-01
     15 -0.442966D-01 -0.410009D-01  0.104667D-01  0.102454D-01  0.583318D-01
     16 -0.495827D-02  0.136187D-01  0.322378D-02 -0.345282D-02 -0.345336D-02
     17  0.675025D-02 -0.911869D-02 -0.531388D-02  0.408293D-03  0.408533D-03
     18 -0.179181D-02 -0.450000D-02  0.209010D-02  0.304456D-02  0.304480D-02
     19  0.956601D-03  0.389376D-02 -0.123139D-02 -0.232032D-02 -0.232051D-02
     20 -0.164082D-03 -0.187638D-02  0.463488D-03  0.881631D-03  0.881735D-03
     21 -0.792529D-03 -0.201739D-02  0.767901D-03  0.143868D-02  0.143878D-02
     22 -0.241538D-03 -0.996651D-03  0.470749D-03  0.512378D-03  0.512497D-03
     23 -0.127245D-01  0.105963D-01 -0.964258D-02  0.960227D-02  0.795829D-03
     24 -0.148958D-01  0.105963D-01 -0.964284D-02  0.920272D-02  0.119531D-02
     25 -0.147924D-02 -0.105976D-01  0.964160D-02 -0.796645D-03 -0.959882D-02
     26 -0.365053D-02 -0.105976D-01  0.964135D-02 -0.119620D-02 -0.919934D-02
     27  0.112093D-01  0.156889D-05  0.000000D+00 -0.917753D-02  0.917487D-02
     28  0.903799D-02  0.151987D-05  0.000000D+00 -0.957708D-02  0.957436D-02
     29 -0.248366D-03  0.000000D+00  0.000000D+00  0.918791D-04 -0.918276D-04
     30 -0.143919D-02  0.000000D+00  0.000000D+00 -0.265299D-03  0.265412D-03
     31  0.194273D-02  0.000000D+00  0.000000D+00  0.494847D-03 -0.495017D-03
     32  0.751903D-03  0.000000D+00  0.000000D+00  0.137669D-03 -0.137777D-03
     33 -0.164468D-02  0.000000D+00  0.000000D+00 -0.534515D-03  0.534588D-03
     34 -0.463218D-03  0.000000D+00  0.000000D+00 -0.180143D-03  0.180160D-03
               16            17            18            19            20 
     16  0.105937D+00
     17 -0.565342D-01  0.873786D-01
     18 -0.494029D-01 -0.308444D-01  0.802473D-01
     19  0.175024D-01 -0.254104D-02 -0.149613D-01  0.171135D+00
     20 -0.122637D-01 -0.172895D-02  0.139926D-01 -0.803725D-01  0.100928D+00
     21 -0.523871D-02  0.427000D-02  0.968711D-03 -0.907620D-01 -0.205559D-01
     22 -0.229022D-02 -0.133610D-02  0.362632D-02 -0.465629D-02 -0.172127D-03
     23  0.112732D-02 -0.964902D-03 -0.162446D-03  0.158510D-03 -0.182704D-03
     24  0.112694D-02 -0.962452D-03 -0.164463D-03  0.158676D-03 -0.183111D-03
     25 -0.112670D-02  0.962218D-03  0.164449D-03 -0.158552D-03  0.183039D-03
     26 -0.112707D-02  0.964668D-03  0.162432D-03 -0.158386D-03  0.182632D-03
     27  0.000000D+00 -0.149872D-05  0.000000D+00  0.000000D+00  0.000000D+00
     28  0.000000D+00  0.000000D+00 -0.103809D-05  0.000000D+00  0.000000D+00
     29  0.000000D+00 -0.222431D-05  0.203463D-05 -0.171672D-05  0.000000D+00
     30  0.000000D+00 -0.188313D-05  0.197202D-05  0.000000D+00  0.000000D+00
     31  0.000000D+00  0.160629D-05 -0.195221D-05 -0.119923D-05  0.000000D+00
     32  0.000000D+00  0.194747D-05 -0.201482D-05  0.000000D+00  0.000000D+00
     33  0.000000D+00  0.000000D+00  0.000000D+00  0.000000D+00  0.000000D+00
     34  0.000000D+00  0.000000D+00  0.000000D+00  0.000000D+00  0.000000D+00
               21            22            23            24            25 
     21  0.111318D+00
     22  0.482842D-02  0.127678D+00
     23  0.242014D-04 -0.138753D-03  0.129418D-01
     24  0.244300D-04 -0.138830D-03  0.133085D-01  0.129697D-01
     25 -0.244800D-04  0.138865D-03 -0.603803D-02 -0.567116D-02  0.129426D-01
     26 -0.242514D-04  0.138787D-03 -0.567131D-02 -0.601000D-02  0.133095D-01
     27  0.000000D+00  0.000000D+00 -0.639216D-02 -0.688534D-02 -0.639285D-02
     28  0.000000D+00  0.000000D+00 -0.602545D-02 -0.722418D-02 -0.602598D-02
     29  0.000000D+00  0.000000D+00 -0.463486D-03  0.771367D-04 -0.463530D-03
     30  0.000000D+00  0.000000D+00  0.347121D-03 -0.593406D-03  0.347186D-03
     31  0.000000D+00  0.000000D+00 -0.833516D-03  0.418955D-03 -0.833628D-03
     32  0.000000D+00  0.000000D+00 -0.229095D-04 -0.251588D-03 -0.229126D-04
     33  0.000000D+00  0.200190D-05  0.512028D-03 -0.587688D-03  0.512140D-03
     34  0.107414D-05  0.174621D-05 -0.292202D-03  0.775823D-04 -0.292201D-03
               26            27            28            29            30 
     26  0.129708D-01
     27 -0.688603D-02  0.118903D-01
     28 -0.722472D-02  0.113971D-01  0.101984D-01
     29  0.770930D-04 -0.731195D-03 -0.190572D-03  0.121194D-01
     30 -0.593340D-03 -0.222035D-03 -0.116256D-02 -0.589230D-02  0.798629D-02
     31  0.418843D-03 -0.233621D-03  0.101885D-02  0.115739D-01 -0.494340D-02
     32 -0.251591D-03  0.275538D-03  0.468604D-04 -0.643775D-02  0.893520D-02
     33 -0.587576D-03  0.146454D-03 -0.953262D-03 -0.962454D-02  0.567929D-02
     34  0.775835D-04 -0.358701D-03  0.110837D-04  0.824548D-02 -0.809017D-02
               31            32            33            34 
     31  0.103103D-01
     32 -0.620703D-02  0.916592D-02
     33 -0.851502D-02  0.678880D-02  0.245901D-01
     34  0.787240D-02 -0.846325D-02  0.940666D-02  0.256138D-01
 Leave Link  716 at Fri Sep 10 19:27:58 2021, MaxMem= 24159191040 cpu:         1.3
 (Enter /public/home/users/caep010/software/Gaussian09/g09/l103.exe)

 GradGradGradGradGradGradGradGradGradGradGradGradGradGradGradGradGradGrad
 Berny optimization.
 Red2BG is reusing G-inverse.
 Internal  Forces:  Max     0.036975071 RMS     0.014851649
 Search for a local minimum.
 Step number   1 out of a maximum of   44
 All quantities printed in internal units (Hartrees-Bohrs-Radians)
 RMS Force = .14852D-01 SwitMx=.10000D-02 MixMth= 1
 Mixed Optimization -- RFO/linear search
 Second derivative matrix not updated -- analytic derivatives used.
 ITU=  0
     Eigenvalues ---   -0.00298  -0.00012   0.00804   0.03466   0.04803
     Eigenvalues ---    0.06209   0.06416   0.10260   0.11294   0.12504
     Eigenvalues ---    0.13456   0.14210   0.18405   0.18553   0.23220
     Eigenvalues ---    0.30078   0.30431   0.31306   0.32761   0.37018
     Eigenvalues ---    0.37269   0.37387   0.38323   0.66018
 Eigenvalue     1 is  -2.98D-03 should be greater than     0.000000 Eigenvector:
                          D6        D2        D4        D8        D9
   1                    0.50060   0.47579   0.47579   0.29689  -0.27897
                          D7        D10       D3        D1        D11
   1                    0.25410  -0.23618  -0.05257  -0.05257   0.04281
 Eigenvalue     2 is  -1.20D-04 should be greater than     0.000000 Eigenvector:
                          D5        D1        D3        D9        D10
   1                   -0.51938  -0.50688  -0.50688  -0.23045  -0.21147
                          D6        D2        D4        D8        D7
   1                   -0.17951  -0.16702  -0.16702   0.13142   0.11245
 RFO step:  Lambda=-2.59743767D-02 EMin=-2.98286254D-03
 Linear search not attempted -- first point.
 Maximum step size (   0.300) exceeded in Quadratic search.
    -- Step size scaled by   0.884
 Iteration  1 RMS(Cart)=  0.08790834 RMS(Int)=  0.03039834
 Iteration  2 RMS(Cart)=  0.02112645 RMS(Int)=  0.01073028
 Iteration  3 RMS(Cart)=  0.00047240 RMS(Int)=  0.01071727
 Iteration  4 RMS(Cart)=  0.00000703 RMS(Int)=  0.01071727
 Iteration  5 RMS(Cart)=  0.00000009 RMS(Int)=  0.01071727
 ITry= 1 IFail=0 DXMaxC= 3.45D-01 DCOld= 1.00D+10 DXMaxT= 3.00D-01 DXLimC= 3.00D+00 Rises=F
 Variable       Old X    -DE/DX   Delta X   Delta X   Delta X     New X
                                 (Linear)    (Quad)   (Total)
    R1        2.75071   0.00241   0.00000  -0.00327  -0.00327   2.74744
    R2        2.09845  -0.00798   0.00000  -0.01946  -0.01946   2.07899
    R3        2.09836  -0.00796   0.00000  -0.02346  -0.02346   2.07490
    R4        2.09827  -0.01201   0.00000  -0.03112  -0.03112   2.06715
    R5        2.70322  -0.03698   0.00000  -0.11475  -0.11475   2.58847
    R6        1.97527  -0.03205   0.00000  -0.06583  -0.06583   1.90944
    R7        2.44483  -0.02796   0.00000  -0.02284  -0.02284   2.42199
    R8        2.04583   0.00337   0.00000   0.01534   0.01534   2.06116
    R9        1.97385  -0.02101   0.00000  -0.03115  -0.03115   1.94270
    A1        1.91628   0.00703   0.00000   0.04477   0.04450   1.96078
    A2        1.91638   0.00701   0.00000   0.01357   0.01328   1.92966
    A3        1.91771  -0.00143   0.00000  -0.01285  -0.01281   1.90490
    A4        1.91089  -0.00532   0.00000  -0.01642  -0.01697   1.89392
    A5        1.90118  -0.00375   0.00000  -0.01389  -0.01384   1.88734
    A6        1.90124  -0.00375   0.00000  -0.01595  -0.01593   1.88531
    A7        2.10577   0.01090   0.00000   0.03850   0.00470   2.11046
    A8        2.08092   0.00037   0.00000  -0.00771  -0.04461   2.03632
    A9        2.09650  -0.01127   0.00000  -0.03075  -0.06650   2.02999
   A10        2.10749   0.03652   0.00000   0.12473   0.12455   2.23204
   A11        2.09479  -0.02622   0.00000  -0.10794  -0.10810   1.98668
   A12        2.08090  -0.01030   0.00000  -0.01679  -0.01698   2.06392
   A13        2.12304  -0.03252   0.00000  -0.17165  -0.17165   1.95139
    D1       -1.05098  -0.00113   0.00000   0.25084   0.24870  -0.80228
    D2        2.09071  -0.00113   0.00000  -0.24994  -0.24827   1.84244
    D3        1.05080   0.00113   0.00000   0.26725   0.26556   1.31637
    D4       -2.09070   0.00114   0.00000  -0.23353  -0.23141  -2.32210
    D5        3.14158  -0.00000   0.00000   0.24807   0.24618  -2.89543
    D6        0.00008  -0.00000   0.00000  -0.25272  -0.25079  -0.25072
    D7       -3.14151  -0.00000   0.00000  -0.21829  -0.21359   2.92808
    D8        0.00007   0.00000   0.00000  -0.25506  -0.24978  -0.24971
    D9       -0.00001  -0.00000   0.00000   0.28695   0.28167   0.28166
   D10        3.14157   0.00000   0.00000   0.25019   0.24549  -2.89613
   D11       -0.00006   0.00000   0.00000  -0.03061  -0.03116  -0.03122
   D12        3.14154   0.00000   0.00000   0.00587   0.00642  -3.13522
         Item               Value     Threshold  Converged?
 Maximum Force            0.036975     0.000450     NO 
 RMS     Force            0.014852     0.000300     NO 
 Maximum Displacement     0.345174     0.001800     NO 
 RMS     Displacement     0.103189     0.001200     NO 
 Predicted change in Energy=-1.455266D-02
 Lowest energy point so far.  Saving SCF results.
 GradGradGradGradGradGradGradGradGradGradGradGradGradGradGradGradGradGrad

 Leave Link  103 at Fri Sep 10 19:27:58 2021, MaxMem= 24159191040 cpu:         2.6
 (Enter /public/home/users/caep010/software/Gaussian09/g09/l202.exe)
                          Input orientation:                          
 ---------------------------------------------------------------------
 Center     Atomic      Atomic             Coordinates (Angstroms)
 Number     Number       Type             X           Y           Z
 ---------------------------------------------------------------------
      1          6           0       -1.378646    0.051511    0.010468
      2          7           0        0.029593    0.412331    0.031658
      3          6           0        0.999813   -0.524079   -0.209283
      4          7           0        2.245627   -0.326224   -0.436138
      5          1           0       -1.638872   -0.566942   -0.861388
      6          1           0       -1.649571   -0.498427    0.921376
      7          1           0       -1.982017    0.963200   -0.026480
      8          1           0        0.257176    1.366052   -0.212460
      9          1           0        0.640211   -1.552830   -0.164244
     10          1           0        2.476588    0.675409   -0.451709
 ---------------------------------------------------------------------
                    Distance matrix (angstroms):
                    1          2          3          4          5
     1  C    0.000000
     2  N    1.453883   0.000000
     3  C    2.456962   1.369760   0.000000
     4  N    3.671171   2.382247   1.281664   0.000000
     5  H    1.100152   2.130794   2.718407   3.915114   0.000000
     6  H    1.097992   2.107290   2.880674   4.128567   1.784112
     7  H    1.093891   2.086483   3.337173   4.438852   1.776556
     8  H    2.110362   1.010432   2.030792   2.620643   2.784344
     9  H    2.584612   2.067146   1.090720   2.038590   2.579187
    10  H    3.932643   2.508114   1.917917   1.028034   4.318366
                    6          7          8          9         10
     6  H    0.000000
     7  H    1.773500   0.000000
     8  H    2.897853   2.282732   0.000000
     9  H    2.744711   3.636683   2.944302   0.000000
    10  H    4.504269   4.488073   2.336668   2.901718   0.000000
 Stoichiometry    C2H6N2
 Framework group  C1[X(C2H6N2)]
 Deg. of freedom    24
 Full point group                 C1      NOp   1
 RotChk:  IX=0 Diff= 9.61D-02
 Largest Abelian subgroup         C1      NOp   1
 Largest concise Abelian subgroup C1      NOp   1
                         Standard orientation:                         
 ---------------------------------------------------------------------
 Center     Atomic      Atomic             Coordinates (Angstroms)
 Number     Number       Type             X           Y           Z
 ---------------------------------------------------------------------
      1          6           0        1.752418   -0.113675    0.051793
      2          7           0        0.413931    0.426137   -0.123805
      3          6           0       -0.688349   -0.382012   -0.033721
      4          7           0       -1.917794   -0.029774    0.050281
      5          1           0        1.824095   -0.778157    0.925669
      6          1           0        2.061724   -0.675297   -0.839552
      7          1           0        2.456379    0.711624    0.192921
      8          1           0        0.279718    1.396075    0.125552
      9          1           0       -0.457985   -1.447422   -0.072529
     10          1           0       -2.021306    0.992757    0.074178
 ---------------------------------------------------------------------
 Rotational constants (GHZ):     38.8701327      4.3480417      4.0302334
 Leave Link  202 at Fri Sep 10 19:27:58 2021, MaxMem= 24159191040 cpu:         0.3
 (Enter /public/home/users/caep010/software/Gaussian09/g09/l301.exe)
 Standard basis: 6-31G(d,p) (6D, 7F)
 Ernie: Thresh=  0.10000D-02 Tol=  0.10000D-05 Strict=F.
 There are    90 symmetry adapted cartesian basis functions of A   symmetry.
 There are    90 symmetry adapted basis functions of A   symmetry.
    90 basis functions,   154 primitive gaussians,    90 cartesian basis functions
    16 alpha electrons       16 beta electrons
       nuclear repulsion energy       119.8235687286 Hartrees.
 IExCor=  402 DFT=T Ex+Corr=B3LYP ExCW=0 ScaHFX=  0.200000
 ScaDFX=  0.800000  0.720000  1.000000  0.810000 ScalE2=  1.000000  1.000000
 IRadAn=      0 IRanWt=     -1 IRanGd=            0 ICorTp=0 IEmpDi=  4
 NAtoms=   10 NActive=   10 NUniq=   10 SFac= 1.00D+00 NAtFMM=   60 NAOKFM=F Big=F
 Integral buffers will be    131072 words long.
 Raffenetti 2 integral format.
 Two-electron integral symmetry is turned on.
 Leave Link  301 at Fri Sep 10 19:27:58 2021, MaxMem= 24159191040 cpu:         1.6
 (Enter /public/home/users/caep010/software/Gaussian09/g09/l302.exe)
 NPDir=0 NMtPBC=     1 NCelOv=     1 NCel=       1 NClECP=     1 NCelD=      1
         NCelK=      1 NCelE2=     1 NClLst=     1 CellRange=     0.0.
 One-electron integrals computed using PRISM.
 NBasis=    90 RedAO= T EigKep=  4.08D-03  NBF=    90
 NBsUse=    90 1.00D-06 EigRej= -1.00D+00 NBFU=    90
 Precomputing XC quadrature grid using
 IXCGrd= 4 IRadAn=           0 IRanWt=          -1 IRanGd=           0 AccXCQ= 0.00D+00.
 Generated NRdTot=       0 NPtTot=           0 NUsed=           0 NTot=          32
 NSgBfM=    90    90    90    90    90 MxSgAt=    10 MxSgA2=    10.
 Leave Link  302 at Fri Sep 10 19:27:58 2021, MaxMem= 24159191040 cpu:        10.8
 (Enter /public/home/users/caep010/software/Gaussian09/g09/l303.exe)
 DipDrv:  MaxL=1.
 Leave Link  303 at Fri Sep 10 19:27:58 2021, MaxMem= 24159191040 cpu:         0.6
 (Enter /public/home/users/caep010/software/Gaussian09/g09/l401.exe)
 Initial guess from the checkpoint file:  "/public/home/users/caep010/.cache/gau_scr/Gau-217376.chk"
 B after Tr=     0.000000   -0.000000    0.000000
         Rot=    0.999932   -0.011035    0.003240   -0.001937 Ang=  -1.34 deg.
 Guess basis will be translated and rotated to current coordinates.
 JPrj=2 DoOrth=T DoCkMO=T.
 Generating alternative initial guess.
 ExpMin= 1.61D-01 ExpMax= 4.17D+03 ExpMxC= 6.27D+02 IAcc=1 IRadAn=         1 AccDes= 0.00D+00
 Harris functional with IExCor=  402 and IRadAn=       1 diagonalized for initial guess.
 HarFok:  IExCor=  402 AccDes= 0.00D+00 IRadAn=         1 IDoV= 1 UseB2=F ITyADJ=14
 ICtDFT=  3500011 ScaDFX=  1.000000  1.000000  1.000000  1.000000
 FoFCou: FMM=F IPFlag=           0 FMFlag=      100000 FMFlg1=           0
         NFxFlg=           0 DoJE=T BraDBF=F KetDBF=T FulRan=T
         wScrn=  0.000000 ICntrl=     500 IOpCl=  0 I1Cent=   200000004 NGrid=           0
         NMat0=    1 NMatS0=      1 NMatT0=    0 NMatD0=    1 NMtDS0=    0 NMtDT0=    0
 Petite list used in FoFCou.
 Harris En= -189.329803881041    
 Leave Link  401 at Fri Sep 10 19:27:59 2021, MaxMem= 24159191040 cpu:        14.6
 (Enter /public/home/users/caep010/software/Gaussian09/g09/l502.exe)
 Closed shell SCF:
 Using DIIS extrapolation, IDIIS=  1040.
 Integral symmetry usage will be decided dynamically.
 Keep R1 ints in memory in canonical form, NReq=9343712.
 IVT=       46414 IEndB=       46414 NGot= 24159191040 MDV= 24150758067
 LenX= 24150758067 LenY= 24150749526
 Requested convergence on RMS density matrix=1.00D-08 within 128 cycles.
 Requested convergence on MAX density matrix=1.00D-06.
 Requested convergence on             energy=1.00D-06.
 No special actions if energy rises.
 FoFCou: FMM=F IPFlag=           0 FMFlag=           0 FMFlg1=           0
         NFxFlg=           0 DoJE=F BraDBF=F KetDBF=F FulRan=T
         wScrn=  0.000000 ICntrl=     600 IOpCl=  0 I1Cent=           0 NGrid=           0
         NMat0=    1 NMatS0=   4095 NMatT0=    0 NMatD0=    1 NMtDS0=    0 NMtDT0=    0
 Symmetry not used in FoFCou.
 Integral accuracy reduced to 1.0D-05 until final iterations.

 Cycle   1  Pass 0  IDiag  1:
 E= -189.293593919190    
 DIIS: error= 1.07D-02 at cycle   1 NSaved=   1.
 NSaved= 1 IEnMin= 1 EnMin= -189.293593919190     IErMin= 1 ErrMin= 1.07D-02
 ErrMax= 1.07D-02  0.00D+00 EMaxC= 1.00D-01 BMatC= 1.40D-02 BMatP= 1.40D-02
 IDIUse=3 WtCom= 8.93D-01 WtEn= 1.07D-01
 Coeff-Com:  0.100D+01
 Coeff-En:   0.100D+01
 Coeff:      0.100D+01
 Recover alternate guess density for next cycle.
 RMSDP=5.01D-03 MaxDP=9.01D-02              OVMax= 0.00D+00

 Cycle   2  Pass 0  IDiag  1:
 E= -189.183387497350     Delta-E=        0.110206421841 Rises=F Damp=F
 Switch densities from cycles 1 and 2 for lowest energy.
 DIIS: error= 2.42D-02 at cycle   2 NSaved=   2.
 NSaved= 2 IEnMin= 1 EnMin= -189.293593919190     IErMin= 1 ErrMin= 1.07D-02
 ErrMax= 2.42D-02  0.00D+00 EMaxC= 1.00D+00 BMatC= 1.36D-01 BMatP= 1.40D-02
 IDIUse=1 WtCom= 1.00D+00 WtEn= 0.00D+00
 Coeff-Com:  0.895D+00 0.105D+00
 Coeff:      0.895D+00 0.105D+00
 Gap=     0.262 Goal=   None    Shift=    0.000
 RMSDP=2.38D-03 MaxDP=3.72D-02 DE= 1.10D-01 OVMax= 1.30D-01

 Cycle   3  Pass 0  IDiag  1:
 E= -189.313268659448     Delta-E=       -0.129881162098 Rises=F Damp=F
 DIIS: error= 4.78D-03 at cycle   3 NSaved=   3.
 NSaved= 3 IEnMin= 3 EnMin= -189.313268659448     IErMin= 3 ErrMin= 4.78D-03
 ErrMax= 4.78D-03  0.00D+00 EMaxC= 1.00D+00 BMatC= 3.37D-03 BMatP= 1.40D-02
 IDIUse=1 WtCom= 1.00D+00 WtEn= 0.00D+00
 Coeff-Com:  0.472D-01 0.112D+00 0.841D+00
 Coeff:      0.472D-01 0.112D+00 0.841D+00
 Gap=     0.260 Goal=   None    Shift=    0.000
 RMSDP=9.84D-04 MaxDP=2.64D-02 DE=-1.30D-01 OVMax= 4.24D-02

 Cycle   4  Pass 0  IDiag  1:
 E= -189.314068136367     Delta-E=       -0.000799476919 Rises=F Damp=F
 DIIS: error= 4.61D-03 at cycle   4 NSaved=   4.
 NSaved= 4 IEnMin= 4 EnMin= -189.314068136367     IErMin= 4 ErrMin= 4.61D-03
 ErrMax= 4.61D-03  0.00D+00 EMaxC= 1.00D+00 BMatC= 2.53D-03 BMatP= 3.37D-03
 IDIUse=1 WtCom= 1.00D+00 WtEn= 0.00D+00
 Coeff-Com: -0.292D-01 0.572D-01 0.566D+00 0.406D+00
 Coeff:     -0.292D-01 0.572D-01 0.566D+00 0.406D+00
 Gap=     0.262 Goal=   None    Shift=    0.000
 RMSDP=5.33D-04 MaxDP=1.18D-02 DE=-7.99D-04 OVMax= 2.43D-02

 Cycle   5  Pass 0  IDiag  1:
 E= -189.316334197330     Delta-E=       -0.002266060963 Rises=F Damp=F
 DIIS: error= 5.40D-04 at cycle   5 NSaved=   5.
 NSaved= 5 IEnMin= 5 EnMin= -189.316334197330     IErMin= 5 ErrMin= 5.40D-04
 ErrMax= 5.40D-04  0.00D+00 EMaxC= 1.00D+00 BMatC= 4.03D-05 BMatP= 2.53D-03
 IDIUse=1 WtCom= 1.00D+00 WtEn= 0.00D+00
 Coeff-Com: -0.100D-01 0.801D-02 0.124D+00 0.156D+00 0.722D+00
 Coeff:     -0.100D-01 0.801D-02 0.124D+00 0.156D+00 0.722D+00
 Gap=     0.261 Goal=   None    Shift=    0.000
 RMSDP=7.59D-05 MaxDP=1.60D-03 DE=-2.27D-03 OVMax= 2.32D-03

 Cycle   6  Pass 0  IDiag  1:
 E= -189.316367987505     Delta-E=       -0.000033790175 Rises=F Damp=F
 DIIS: error= 1.57D-04 at cycle   6 NSaved=   6.
 NSaved= 6 IEnMin= 6 EnMin= -189.316367987505     IErMin= 6 ErrMin= 1.57D-04
 ErrMax= 1.57D-04  0.00D+00 EMaxC= 1.00D+00 BMatC= 3.69D-06 BMatP= 4.03D-05
 IDIUse=1 WtCom= 1.00D+00 WtEn= 0.00D+00
 Coeff-Com: -0.320D-02 0.153D-02 0.351D-01 0.573D-01 0.347D+00 0.562D+00
 Coeff:     -0.320D-02 0.153D-02 0.351D-01 0.573D-01 0.347D+00 0.562D+00
 Gap=     0.261 Goal=   None    Shift=    0.000
 RMSDP=2.11D-05 MaxDP=4.66D-04 DE=-3.38D-05 OVMax= 7.60D-04

 Cycle   7  Pass 0  IDiag  1:
 E= -189.316371181576     Delta-E=       -0.000003194071 Rises=F Damp=F
 DIIS: error= 4.40D-05 at cycle   7 NSaved=   7.
 NSaved= 7 IEnMin= 7 EnMin= -189.316371181576     IErMin= 7 ErrMin= 4.40D-05
 ErrMax= 4.40D-05  0.00D+00 EMaxC= 1.00D+00 BMatC= 2.52D-07 BMatP= 3.69D-06
 IDIUse=1 WtCom= 1.00D+00 WtEn= 0.00D+00
 Coeff-Com: -0.471D-03-0.270D-03 0.236D-02 0.951D-02 0.845D-01 0.257D+00
 Coeff-Com:  0.648D+00
 Coeff:     -0.471D-03-0.270D-03 0.236D-02 0.951D-02 0.845D-01 0.257D+00
 Coeff:      0.648D+00
 Gap=     0.261 Goal=   None    Shift=    0.000
 RMSDP=4.74D-06 MaxDP=9.77D-05 DE=-3.19D-06 OVMax= 1.63D-04

 Initial convergence to 1.0D-05 achieved.  Increase integral accuracy.
 Cycle   8  Pass 1  IDiag  1:
 E= -189.316369372624     Delta-E=        0.000001808953 Rises=F Damp=F
 DIIS: error= 6.61D-06 at cycle   1 NSaved=   1.
 NSaved= 1 IEnMin= 1 EnMin= -189.316369372624     IErMin= 1 ErrMin= 6.61D-06
 ErrMax= 6.61D-06  0.00D+00 EMaxC= 1.00D+00 BMatC= 9.29D-09 BMatP= 9.29D-09
 IDIUse=1 WtCom= 1.00D+00 WtEn= 0.00D+00
 Coeff-Com:  0.100D+01
 Coeff:      0.100D+01
 Gap=     0.261 Goal=   None    Shift=    0.000
 RMSDP=4.74D-06 MaxDP=9.77D-05 DE= 1.81D-06 OVMax= 4.41D-05

 Cycle   9  Pass 1  IDiag  1:
 E= -189.316369377101     Delta-E=       -0.000000004477 Rises=F Damp=F
 DIIS: error= 6.24D-06 at cycle   2 NSaved=   2.
 NSaved= 2 IEnMin= 2 EnMin= -189.316369377101     IErMin= 2 ErrMin= 6.24D-06
 ErrMax= 6.24D-06  0.00D+00 EMaxC= 1.00D+00 BMatC= 7.82D-09 BMatP= 9.29D-09
 IDIUse=1 WtCom= 1.00D+00 WtEn= 0.00D+00
 Coeff-Com:  0.473D+00 0.527D+00
 Coeff:      0.473D+00 0.527D+00
 Gap=     0.261 Goal=   None    Shift=    0.000
 RMSDP=1.07D-06 MaxDP=2.49D-05 DE=-4.48D-09 OVMax= 3.13D-05

 Cycle  10  Pass 1  IDiag  1:
 E= -189.316369382898     Delta-E=       -0.000000005797 Rises=F Damp=F
 DIIS: error= 2.91D-06 at cycle   3 NSaved=   3.
 NSaved= 3 IEnMin= 3 EnMin= -189.316369382898     IErMin= 3 ErrMin= 2.91D-06
 ErrMax= 2.91D-06  0.00D+00 EMaxC= 1.00D+00 BMatC= 1.10D-09 BMatP= 7.82D-09
 IDIUse=1 WtCom= 1.00D+00 WtEn= 0.00D+00
 Coeff-Com:  0.509D-01 0.269D+00 0.680D+00
 Coeff:      0.509D-01 0.269D+00 0.680D+00
 Gap=     0.261 Goal=   None    Shift=    0.000
 RMSDP=4.68D-07 MaxDP=1.29D-05 DE=-5.80D-09 OVMax= 1.98D-05

 Cycle  11  Pass 1  IDiag  1:
 E= -189.316369383487     Delta-E=       -0.000000000589 Rises=F Damp=F
 DIIS: error= 1.96D-06 at cycle   4 NSaved=   4.
 NSaved= 4 IEnMin= 4 EnMin= -189.316369383487     IErMin= 4 ErrMin= 1.96D-06
 ErrMax= 1.96D-06  0.00D+00 EMaxC= 1.00D+00 BMatC= 4.64D-10 BMatP= 1.10D-09
 IDIUse=1 WtCom= 1.00D+00 WtEn= 0.00D+00
 Coeff-Com: -0.154D-01 0.129D+00 0.475D+00 0.411D+00
 Coeff:     -0.154D-01 0.129D+00 0.475D+00 0.411D+00
 Gap=     0.261 Goal=   None    Shift=    0.000
 RMSDP=2.15D-07 MaxDP=4.70D-06 DE=-5.89D-10 OVMax= 9.62D-06

 Cycle  12  Pass 1  IDiag  1:
 E= -189.316369383892     Delta-E=       -0.000000000405 Rises=F Damp=F
 DIIS: error= 1.90D-07 at cycle   5 NSaved=   5.
 NSaved= 5 IEnMin= 5 EnMin= -189.316369383892     IErMin= 5 ErrMin= 1.90D-07
 ErrMax= 1.90D-07  0.00D+00 EMaxC= 1.00D+00 BMatC= 6.21D-12 BMatP= 4.64D-10
 IDIUse=1 WtCom= 1.00D+00 WtEn= 0.00D+00
 Coeff-Com: -0.944D-02 0.451D-01 0.184D+00 0.189D+00 0.591D+00
 Coeff:     -0.944D-02 0.451D-01 0.184D+00 0.189D+00 0.591D+00
 Gap=     0.261 Goal=   None    Shift=    0.000
 RMSDP=2.82D-08 MaxDP=6.76D-07 DE=-4.05D-10 OVMax= 9.05D-07

 Cycle  13  Pass 1  IDiag  1:
 E= -189.316369383896     Delta-E=       -0.000000000004 Rises=F Damp=F
 DIIS: error= 7.13D-08 at cycle   6 NSaved=   6.
 NSaved= 6 IEnMin= 6 EnMin= -189.316369383896     IErMin= 6 ErrMin= 7.13D-08
 ErrMax= 7.13D-08  0.00D+00 EMaxC= 1.00D+00 BMatC= 6.30D-13 BMatP= 6.21D-12
 IDIUse=1 WtCom= 1.00D+00 WtEn= 0.00D+00
 Coeff-Com: -0.263D-02 0.539D-02 0.302D-01 0.400D-01 0.274D+00 0.653D+00
 Coeff:     -0.263D-02 0.539D-02 0.302D-01 0.400D-01 0.274D+00 0.653D+00
 Gap=     0.261 Goal=   None    Shift=    0.000
 RMSDP=1.01D-08 MaxDP=1.54D-07 DE=-4.15D-12 OVMax= 2.47D-07

 Cycle  14  Pass 1  IDiag  1:
 E= -189.316369383898     Delta-E=       -0.000000000002 Rises=F Damp=F
 DIIS: error= 1.69D-08 at cycle   7 NSaved=   7.
 NSaved= 7 IEnMin= 7 EnMin= -189.316369383898     IErMin= 7 ErrMin= 1.69D-08
 ErrMax= 1.69D-08  0.00D+00 EMaxC= 1.00D+00 BMatC= 3.59D-14 BMatP= 6.30D-13
 IDIUse=1 WtCom= 1.00D+00 WtEn= 0.00D+00
 Coeff-Com:  0.230D-03-0.338D-02-0.109D-01-0.778D-02 0.215D-01 0.226D+00
 Coeff-Com:  0.774D+00
 Coeff:      0.230D-03-0.338D-02-0.109D-01-0.778D-02 0.215D-01 0.226D+00
 Coeff:      0.774D+00
 Gap=     0.261 Goal=   None    Shift=    0.000
 RMSDP=2.75D-09 MaxDP=3.29D-08 DE=-2.33D-12 OVMax= 8.18D-08

 SCF Done:  E(RB3LYP) =  -189.316369384     A.U. after   14 cycles
            NFock= 14  Conv=0.28D-08     -V/T= 2.0096
 KE= 1.875160078686D+02 PE=-6.795437653992D+02 EE= 1.828878194180D+02
 Leave Link  502 at Fri Sep 10 19:28:00 2021, MaxMem= 24159191040 cpu:        22.2
 (Enter /public/home/users/caep010/software/Gaussian09/g09/l701.exe)
 Compute integral first derivatives.
 ... and contract with generalized density number  0.
 Leave Link  701 at Fri Sep 10 19:28:00 2021, MaxMem= 24159191040 cpu:        10.9
 (Enter /public/home/users/caep010/software/Gaussian09/g09/l702.exe)
 L702 exits ... SP integral derivatives will be done elsewhere.
 Leave Link  702 at Fri Sep 10 19:28:00 2021, MaxMem= 24159191040 cpu:         0.5
 (Enter /public/home/users/caep010/software/Gaussian09/g09/l703.exe)
 Compute integral first derivatives, UseDBF=F ICtDFT=           0.
 Integral derivatives from FoFJK, PRISM(SPDF).
 Calling FoFJK, ICntrl=      2127 FMM=F ISym2X=0 I1Cent= 0 IOpClX= 0 NMat=1 NMatS=1 NMatT=0.
 FoFJK:  IHMeth= 1 ICntrl=    2127 DoSepK=F KAlg= 0 I1Cent=   0 FoldK=F
 IRaf=         0 NMat=   1 IRICut=       1 DoRegI=T DoRafI=F ISym2E= 0.
 FoFCou: FMM=F IPFlag=           0 FMFlag=      100000 FMFlg1=         800
         NFxFlg=           0 DoJE=F BraDBF=F KetDBF=F FulRan=T
         wScrn=  0.000000 ICntrl=    2127 IOpCl=  0 I1Cent=           0 NGrid=           0
         NMat0=    1 NMatS0=      1 NMatT0=    0 NMatD0=    1 NMtDS0=    0 NMtDT0=    0
 Symmetry not used in FoFCou.
 Leave Link  703 at Fri Sep 10 19:28:01 2021, MaxMem= 24159191040 cpu:         8.3
 (Enter /public/home/users/caep010/software/Gaussian09/g09/l716.exe)
[...]
     23 -0.114449D-01  0.132499D-01 -0.900044D-02  0.877417D-02 -0.265139D-03
     24 -0.129860D-01  0.125537D-01 -0.873959D-02  0.875620D-02  0.297805D-03
     25  0.501212D-03 -0.883574D-02  0.929903D-02 -0.122986D-03 -0.106952D-01
     26 -0.103994D-02 -0.953196D-02  0.955987D-02 -0.140954D-03 -0.101323D-01
     27  0.109065D-01  0.176905D-02  0.116642D-04 -0.915048D-02  0.977188D-02
     28  0.936536D-02  0.107283D-02  0.272509D-03 -0.916845D-02  0.103348D-01
     29  0.131648D-02  0.628933D-03 -0.381912D-03  0.360842D-03 -0.500274D-03
     30  0.893687D-03 -0.739505D-03 -0.666637D-03  0.204252D-03  0.125152D-04
     31 -0.107439D-02  0.214148D-02  0.701666D-03  0.791171D-04  0.375540D-04
     32 -0.149718D-02  0.773047D-03  0.416941D-03 -0.774727D-04  0.550343D-03
     33 -0.815419D-03 -0.134526D-02 -0.308056D-03 -0.215909D-03  0.681260D-03
     34 -0.407152D-03  0.811641D-04  0.876556D-05 -0.440410D-04  0.172626D-03
               16            17            18            19            20 
     16  0.127908D+00
     17 -0.599716D-01  0.870069D-01
     18 -0.609137D-01 -0.292144D-01  0.858890D-01
     19  0.139714D-01  0.378502D-03 -0.136369D-01  0.153775D+00
     20 -0.729934D-02 -0.482177D-02  0.119015D-01 -0.773964D-01  0.114801D+00
     21 -0.666730D-02  0.441365D-02  0.174493D-02 -0.762657D-01 -0.374314D-01
     22 -0.142751D-02 -0.172508D-02  0.296953D-02 -0.764617D-02 -0.220767D-02
     23  0.207110D-02  0.335129D-02 -0.547856D-02  0.137627D-02 -0.154001D-02
     24  0.213259D-02 -0.715474D-02  0.532867D-02 -0.371797D-03  0.873428D-03
     25  0.617070D-03  0.494779D-02 -0.556129D-02  0.998320D-03 -0.113431D-02
     26  0.678556D-03 -0.555824D-02  0.524594D-02 -0.749746D-03  0.127912D-02
     27  0.184178D-03  0.625439D-02 -0.659815D-02  0.661530D-03 -0.119173D-02
     28  0.245664D-03 -0.425163D-02  0.420908D-02 -0.108654D-02  0.122171D-02
     29  0.253234D-03  0.898103D-02 -0.868254D-02  0.138126D-02 -0.110860D-02
     30  0.136931D-03  0.819681D-02 -0.824917D-02  0.182808D-02 -0.197298D-02
     31  0.255322D-03 -0.745252D-02  0.692864D-02 -0.748314D-04  0.323006D-03
     32  0.139019D-03 -0.823673D-02  0.736201D-02  0.371994D-03 -0.541374D-03
     33 -0.534259D-03 -0.562440D-03  0.731813D-03  0.714957D-03  0.601892D-03
     34 -0.436164D-03  0.450399D-03  0.102081D-03 -0.135076D-03 -0.146597D-02
               21            22            23            24            25 
     21  0.113645D+00
     22  0.984891D-02  0.182695D+00
     23  0.176525D-03 -0.112732D-03  0.148362D-01
     24 -0.526562D-03  0.145113D-03  0.133589D-01  0.153171D-01
     25  0.164048D-03  0.156244D-03 -0.572246D-02 -0.701855D-02  0.124168D-01
     26 -0.539039D-03  0.414090D-03 -0.719981D-02 -0.506037D-02  0.111207D-01
     27  0.543174D-03  0.278980D-04 -0.515246D-02 -0.709687D-02 -0.546688D-02
     28 -0.159913D-03  0.285744D-03 -0.662980D-02 -0.513869D-02 -0.676296D-02
     29 -0.810934D-03 -0.433620D-03  0.615003D-03  0.272235D-04  0.129195D-03
     30  0.595106D-03 -0.315037D-03  0.981504D-03 -0.711330D-03  0.946652D-03
     31 -0.739864D-03  0.387630D-03  0.574635D-04  0.956485D-03 -0.998810D-03
     32  0.666177D-03  0.506213D-03  0.423965D-03  0.217932D-03 -0.181353D-03
     33 -0.848394D-03  0.181813D-03  0.346670D-03 -0.411571D-03  0.676315D-03
     34  0.103372D-02  0.329456D-03 -0.487225D-05  0.333474D-03 -0.155118D-03
               26            27            28            29            30 
     26  0.132602D-01
     27 -0.741129D-02  0.140015D-01
     28 -0.527185D-02  0.120571D-01  0.135482D-01
     29 -0.458584D-03  0.679454D-03  0.916746D-04  0.124966D-01
     30 -0.746182D-03  0.106509D-02 -0.627748D-03 -0.332067D-02  0.988067D-02
     31 -0.997881D-04 -0.343456D-03  0.555566D-03  0.901457D-02 -0.542186D-02
     32 -0.387386D-03  0.421765D-04 -0.163856D-03 -0.680271D-02  0.777948D-02
     33 -0.819261D-04  0.227289D-03 -0.530952D-03 -0.825936D-02  0.545831D-02
     34  0.183229D-03 -0.142015D-03  0.196332D-03  0.830426D-02 -0.831502D-02
               31            32            33            34 
     31  0.114318D-01
     32 -0.300468D-02  0.115775D-01
     33 -0.720722D-02  0.651046D-02  0.259226D-01
     34  0.788608D-02 -0.873320D-02  0.115278D-01  0.289811D-01
 Leave Link  716 at Fri Sep 10 19:29:03 2021, MaxMem= 24159191040 cpu:         1.2
 (Enter /public/home/users/caep010/software/Gaussian09/g09/l103.exe)

 GradGradGradGradGradGradGradGradGradGradGradGradGradGradGradGradGradGrad
 Berny optimization.
 Red2BG is reusing G-inverse.
 Internal  Forces:  Max     0.000051901 RMS     0.000017208
 Search for a local minimum.
 Step number   1 out of a maximum of    2
 All quantities printed in internal units (Hartrees-Bohrs-Radians)
 Second derivative matrix not updated -- analytic derivatives used.
 ITU=  0
     Eigenvalues ---    0.00092   0.00318   0.01036   0.03813   0.04593
     Eigenvalues ---    0.06319   0.06352   0.11337   0.13031   0.14553
     Eigenvalues ---    0.16095   0.16907   0.17955   0.18934   0.22951
     Eigenvalues ---    0.32127   0.33769   0.34210   0.34604   0.37645
     Eigenvalues ---    0.42182   0.43993   0.46461   0.72584
 Angle between quadratic step and forces=  77.14 degrees.
 Linear search not attempted -- first point.
 Iteration  1 RMS(Cart)=  0.00036531 RMS(Int)=  0.00000012
 Iteration  2 RMS(Cart)=  0.00000016 RMS(Int)=  0.00000007
 ITry= 1 IFail=0 DXMaxC= 1.06D-03 DCOld= 1.00D+10 DXMaxT= 3.00D-01 DXLimC= 3.00D+00 Rises=F
 Variable       Old X    -DE/DX   Delta X   Delta X   Delta X     New X
                                 (Linear)    (Quad)   (Total)
    R1        2.74451  -0.00004   0.00000  -0.00005  -0.00005   2.74445
    R2        2.07789   0.00001   0.00000   0.00003   0.00003   2.07792
    R3        2.06601  -0.00002   0.00000  -0.00006  -0.00006   2.06594
    R4        2.06764  -0.00001   0.00000  -0.00004  -0.00004   2.06760
    R5        2.60227  -0.00003   0.00000  -0.00001  -0.00001   2.60227
    R6        1.91172  -0.00000   0.00000   0.00002   0.00002   1.91174
    R7        2.41605  -0.00005   0.00000  -0.00008  -0.00008   2.41597
    R8        2.06871  -0.00001   0.00000  -0.00002  -0.00002   2.06869
    R9        1.93940  -0.00003   0.00000  -0.00006  -0.00006   1.93934
    A1        1.97948  -0.00001   0.00000  -0.00003  -0.00003   1.97945
    A2        1.90289  -0.00000   0.00000  -0.00000  -0.00000   1.90289
    A3        1.92414  -0.00001   0.00000  -0.00005  -0.00005   1.92409
    A4        1.88440   0.00000   0.00000  -0.00002  -0.00002   1.88437
    A5        1.89171   0.00001   0.00000   0.00007   0.00007   1.89177
    A6        1.87824   0.00001   0.00000   0.00005   0.00005   1.87828
    A7        2.14154  -0.00001   0.00000  -0.00020  -0.00020   2.14134
    A8        2.03461  -0.00001   0.00000  -0.00025  -0.00025   2.03436
    A9        2.02660   0.00002   0.00000  -0.00000  -0.00000   2.02660
   A10        2.26163   0.00000   0.00000   0.00001   0.00001   2.26164
   A11        1.96162  -0.00002   0.00000  -0.00017  -0.00017   1.96145
   A12        2.05922   0.00002   0.00000   0.00014   0.00014   2.05937
   A13        1.93863  -0.00003   0.00000  -0.00014  -0.00014   1.93849
    D1       -1.53652   0.00000   0.00000   0.00081   0.00081  -1.53571
    D2        1.16808   0.00000   0.00000  -0.00037  -0.00037   1.16771
    D3        0.56360  -0.00000   0.00000   0.00076   0.00076   0.56436
    D4       -3.01498  -0.00000   0.00000  -0.00042  -0.00042  -3.01541
    D5        2.62186   0.00000   0.00000   0.00078   0.00078   2.62264
    D6       -0.95673  -0.00000   0.00000  -0.00040  -0.00040  -0.95712
    D7        2.88476   0.00000   0.00000  -0.00067  -0.00067   2.88409
    D8       -0.29907  -0.00001   0.00000  -0.00104  -0.00104  -0.30011
    D9        0.17831   0.00001   0.00000   0.00056   0.00056   0.17887
   D10       -3.00552  -0.00000   0.00000   0.00019   0.00019  -3.00533
   D11       -0.04816  -0.00001   0.00000  -0.00042  -0.00042  -0.04858
   D12        3.13765   0.00000   0.00000  -0.00002  -0.00002   3.13763
         Item               Value     Threshold  Converged?
 Maximum Force            0.000052     0.000450     YES
 RMS     Force            0.000017     0.000300     YES
 Maximum Displacement     0.001060     0.001800     YES
 RMS     Displacement     0.000365     0.001200     YES
 Predicted change in Energy=-2.389520D-08
 Optimization completed.
    -- Stationary point found.
                           ----------------------------
                           !   Optimized Parameters   !
                           ! (Angstroms and Degrees)  !
 --------------------------                            --------------------------
 ! Name  Definition              Value          Derivative Info.                !
 --------------------------------------------------------------------------------
 ! R1    R(1,2)                  1.4523         -DE/DX =    0.0                 !
 ! R2    R(1,5)                  1.0996         -DE/DX =    0.0                 !
 ! R3    R(1,6)                  1.0933         -DE/DX =    0.0                 !
 ! R4    R(1,7)                  1.0941         -DE/DX =    0.0                 !
 ! R5    R(2,3)                  1.3771         -DE/DX =    0.0                 !
 ! R6    R(2,8)                  1.0116         -DE/DX =    0.0                 !
 ! R7    R(3,4)                  1.2785         -DE/DX =   -0.0001              !
 ! R8    R(3,9)                  1.0947         -DE/DX =    0.0                 !
 ! R9    R(4,10)                 1.0263         -DE/DX =    0.0                 !
 ! A1    A(2,1,5)              113.4158         -DE/DX =    0.0                 !
 ! A2    A(2,1,6)              109.0276         -DE/DX =    0.0                 !
 ! A3    A(2,1,7)              110.2454         -DE/DX =    0.0                 !
 ! A4    A(5,1,6)              107.968          -DE/DX =    0.0                 !
 ! A5    A(5,1,7)              108.3869         -DE/DX =    0.0                 !
 ! A6    A(6,1,7)              107.615          -DE/DX =    0.0                 !
 ! A7    A(1,2,3)              122.7012         -DE/DX =    0.0                 !
 ! A8    A(1,2,8)              116.5745         -DE/DX =    0.0                 !
 ! A9    A(3,2,8)              116.1158         -DE/DX =    0.0                 !
 ! A10   A(2,3,4)              129.5816         -DE/DX =    0.0                 !
 ! A11   A(2,3,9)              112.3924         -DE/DX =    0.0                 !
 ! A12   A(4,3,9)              117.9848         -DE/DX =    0.0                 !
 ! A13   A(3,4,10)             111.0752         -DE/DX =    0.0                 !
 ! D1    D(5,1,2,3)            -88.0363         -DE/DX =    0.0                 !
 ! D2    D(5,1,2,8)             66.9261         -DE/DX =    0.0                 !
 ! D3    D(6,1,2,3)             32.2917         -DE/DX =    0.0                 !
 ! D4    D(6,1,2,8)           -172.7459         -DE/DX =    0.0                 !
 ! D5    D(7,1,2,3)            150.2213         -DE/DX =    0.0                 !
 ! D6    D(7,1,2,8)            -54.8163         -DE/DX =    0.0                 !
 ! D7    D(1,2,3,4)            165.2845         -DE/DX =    0.0                 !
 ! D8    D(1,2,3,9)            -17.1352         -DE/DX =    0.0                 !
 ! D9    D(8,2,3,4)             10.2163         -DE/DX =    0.0                 !
 ! D10   D(8,2,3,9)           -172.2034         -DE/DX =    0.0                 !
 ! D11   D(2,3,4,10)            -2.7596         -DE/DX =    0.0                 !
 ! D12   D(9,3,4,10)           179.7739         -DE/DX =    0.0                 !
 --------------------------------------------------------------------------------
 GradGradGradGradGradGradGradGradGradGradGradGradGradGradGradGradGradGrad

 Leave Link  103 at Fri Sep 10 19:29:03 2021, MaxMem= 24159191040 cpu:         0.8
 (Enter /public/home/users/caep010/software/Gaussian09/g09/l9999.exe)
 1\1\GINC-B1178\Freq\RB3LYP\6-31G(d,p)\C2H6N2\ROOT\10-Sep-2021\0\\#P Ge
 om=AllCheck Guess=TCheck SCRF=Check GenChk RB3LYP/6-31G(d,p) Freq\\Fra
 g_349\\0,1\C,-1.3929346642,0.0586112365,-0.0481898553\N,0.0087440846,0
 .4372479736,-0.0827154029\C,1.0298981882,-0.4858214425,-0.0440803423\N
 ,2.2707596181,-0.339763127,-0.3152536005\H,-1.8159506901,-0.1422146554
 ,-1.0430679443\H,-1.5027325248,-0.8471878352,0.5540925214\H,-1.9862028
 991,0.845864226,0.4265963635\H,0.2271692447,1.325088845,-0.5156631804\
 H,0.6933481546,-1.4654438404,0.3101427561\H,2.4678014879,0.6136186194,
 -0.6400613153\\Version=ES64L-G09RevE.01\State=1-A\HF=-189.318044\RMSD=
 1.553e-09\RMSF=1.748e-05\ZeroPoint=0.0863833\Thermal=0.091557\Dipole=-
 1.2834627,0.6575055,-0.1597339\DipoleDeriv=0.7410956,0.0468454,0.07031
 32,0.1469547,0.1797012,0.0627099,-0.0700341,0.0835914,0.3336581,-1.150
 6749,0.1477878,0.0076686,0.6811165,-0.4586285,-0.1572003,0.1274563,-0.
 1340294,-0.4157697,1.5680838,-0.2431511,-0.193428,-0.6581003,0.5728858
 ,-0.0422236,-0.1437268,-0.0988654,0.1869423,-1.2574012,0.076289,0.0854
 471,0.0497678,-0.2002802,-0.0962906,0.1042952,-0.1014136,-0.5172429,-0
 .1609341,-0.0117105,-0.0501153,-0.0788389,0.0499971,-0.0360701,-0.1420
 929,-0.0444884,-0.146058,0.0387989,0.0215546,-0.0223301,-0.0576498,-0.
 0508824,0.0894635,0.0107426,0.0828196,0.0141453,-0.0888722,0.052084,0.
 0340636,0.0990526,-0.0402719,-0.0775112,0.0467102,-0.0756012,0.0249135
 ,0.0383548,-0.0433309,0.0411034,-0.0301179,0.1397969,0.0708987,0.00212
 06,0.1256333,0.2569511,0.0012334,-0.1022922,0.0441794,-0.0565842,-0.07
 37865,0.058125,0.0372361,0.0634867,0.0530491,0.2703157,0.0559239,-0.01
 69019,-0.0956004,-0.1185315,0.1280987,0.0272929,0.0988669,0.2094112\Po
 lar=51.7680225,-1.1297648,33.4176929,-3.5621722,-3.4963834,23.282594\P
 G=C01 [X(C2H6N2)]\NImag=0\\0.50168294,-0.03476783,0.59455918,0.0005743
 3,-0.01001535,0.56086051,-0.22505356,-0.03509481,-0.01079069,0.6579605
 7,-0.03843610,-0.11626198,0.01852302,-0.01406868,0.69031611,0.00801136
 ,0.01969806,-0.05574633,-0.04593504,-0.22538248,0.15627748,-0.03769314
 ,0.01931347,0.00826305,-0.22538534,0.08850578,-0.00747862,0.89559203,0
 .00341186,0.01527087,-0.00924378,0.10130453,-0.22796110,0.04254050,0.0
 5545621,0.64535334,-0.00136414,-0.00696323,-0.01053338,0.01012101,0.02
 903832,-0.04887687,-0.14601192,-0.15215146,0.23192853,0.00638878,0.005
 38880,-0.00115367,-0.06232645,0.02169220,0.01694598,-0.55375010,-0.054
 86010,0.10336101,0.67907406,0.00034154,-0.00448272,0.00194142,0.040236
 05,0.01688437,-0.00289472,-0.11341781,-0.12665620,0.03870998,0.1333132
 3,0.45688222,-0.00022287,0.00235203,0.00809059,0.00715575,-0.00002553,
 0.02341385,0.12073425,0.02980943,-0.09537138,-0.15247983,-0.14189447,0
 .13981312,-0.07605423,-0.01270081,-0.07574298,-0.02993023,-0.00501253,
 -0.02757501,0.00465248,-0.00733520,-0.00317691,-0.00302252,0.00156727,
 0.00234390,0.09463206,-0.01217428,-0.06066569,-0.03986972,-0.00902698,
 0.00218120,-0.00537568,0.00154780,-0.00179801,0.00005362,-0.00096835,0
 .00030817,0.00017917,0.01899585,0.05696027,-0.07616568,-0.03850489,-0.
 26332342,-0.00351288,-0.00022233,0.01162706,0.00055577,-0.00065636,0.0
 0081597,-0.00056595,0.00008783,-0.00063276,0.08847838,0.04430875,0.279
 96527,-0.05098165,-0.01086208,0.00739396,-0.00887289,-0.03408002,0.019
 47510,0.00157844,-0.00375161,0.00134673,-0.00046764,0.00038611,-0.0007
 0887,0.00170472,0.00948982,-0.00460774,0.06116426,-0.01953180,-0.23164
 681,0.12263800,-0.00536652,-0.00935004,0.00397960,0.00344637,-0.000614
 87,-0.00045334,-0.00060453,0.00067893,-0.00004533,0.00151707,0.0062740
 7,-0.00393413,0.02399510,0.25028952,0.01235917,0.12456777,-0.13246299,
 0.00233872,-0.00119236,0.00094543,-0.00136818,0.00163898,0.00037621,0.
 00015681,-0.00054329,-0.00011218,0.00180863,0.02558925,-0.01574208,-0.
 01265918,-0.13584656,0.13705670,-0.11594050,0.09599822,0.05773416,-0.0
 2984790,0.02561279,0.00849725,-0.00182424,-0.00529527,0.00567202,-0.00
 254268,0.00154004,-0.00144756,0.00758624,-0.00756540,-0.00369316,0.002
 39550,-0.00221073,-0.00255829,0.13900783,0.10300343,-0.19465065,-0.085
 73848,-0.00896502,0.01200057,0.00553725,-0.00068089,-0.00109582,0.0009
 4374,-0.00079182,0.00054487,-0.00064875,0.00198066,-0.00336277,-0.0012
 3691,0.01315535,-0.01753589,-0.01297353,-0.10836642,0.20319253,0.05955
 723,-0.08707588,-0.10219942,0.00227661,0.00286087,0.00312004,-0.002260
 17,0.00134338,-0.00034345,0.00029239,-0.00014340,0.00017033,0.01508701
 ,-0.02391155,-0.01296396,-0.01107953,0.01342684,0.00921987,-0.06436876
 ,0.09394488,0.10293015,-0.00281077,-0.02916102,0.01546974,-0.08564449,
 -0.06640277,0.03717676,0.01180779,0.02443677,-0.01337299,0.00126305,-0
 .00043859,-0.00032539,0.00027788,-0.00030159,-0.00062326,-0.00635640,-
 0.00135654,-0.00030601,0.00057198,0.00067358,0.00046411,0.08549106,0.0
 0071987,-0.00215124,0.00183194,-0.06748085,-0.34429099,0.15540103,-0.0
 0771568,-0.02442439,0.01309355,-0.00264622,0.00327783,-0.00328501,0.00
 054550,-0.00009804,0.00007358,0.00002812,0.00120189,-0.00059499,-0.000
 03948,0.00032146,-0.00017800,0.07099925,0.36661202,-0.00324327,-0.0029
 1101,-0.00216032,0.03980542,0.17650836,-0.08893230,0.00482102,-0.00445
 779,-0.00164691,-0.00256096,-0.00183853,-0.00138686,-0.00034225,-0.000
 89473,0.00021341,0.00097496,0.00033176,0.00039501,0.00003328,0.0002349
 9,0.00006670,-0.03988768,-0.16784502,0.08919546,0.00105674,0.00245433,
 -0.00117202,0.00448704,0.02383671,-0.00783969,-0.07224089,-0.06563960,
 0.02415962,-0.01969668,-0.03091653,0.01289462,-0.00000136,-0.00000014,
 0.00001650,-0.00038639,-0.00021137,0.00032580,0.00016486,-0.00018856,0
 .00010701,-0.00318808,0.00374210,0.00083385,0.09347325,-0.00258566,-0.
 00031829,0.00045657,-0.00377452,-0.02644096,0.01079209,-0.05968858,-0.
 26297968,0.07407346,-0.01064473,0.00061565,0.00137124,0.00049311,0.000
 18192,-0.00002250,0.00104145,0.00089557,-0.00060395,0.00027201,0.00047
 757,-0.00021424,0.00350490,-0.00147748,0.00053067,0.07038893,0.2867897
 3,0.00088411,-0.00095888,-0.00079565,0.00175480,0.00348811,0.00436276,
 0.02145778,0.07714827,-0.07617603,0.00656043,0.00463543,-0.00505103,-0
 .00030368,0.00013798,-0.00023464,-0.00032438,0.00017095,0.00016253,-0.
 00013441,-0.00028717,0.00010496,0.00046423,0.00114492,0.00425405,-0.03
 326750,-0.08949317,0.06129513,-0.00059461,-0.00056826,-0.00057589,0.00
 461325,-0.00164738,-0.00127809,-0.02273703,-0.04772758,0.01926556,-0.0
 4491984,-0.03261131,0.01205598,0.00015495,0.00000327,0.00011802,0.0002
 2206,0.00032294,-0.00009749,0.00042892,0.00017970,-0.00007590,-0.00141
 201,0.00184739,-0.00043439,-0.00366848,0.00099309,0.00290862,0.0679128
 0,0.00001897,0.00034733,-0.00052363,0.00223680,0.00292284,-0.00429566,
 0.01323333,-0.01509414,0.00365537,-0.08987848,-0.34805314,0.11218723,-
 0.00005091,0.00001886,0.00010695,0.00059777,-0.00019238,-0.00004133,0.
 00005424,0.00010813,-0.00005290,-0.00195399,0.00102894,0.00034130,-0.0
 0346586,0.00225596,0.00401355,0.07920814,0.35665758,-0.00039024,-0.000
 18862,-0.00172960,-0.00321371,-0.00359599,-0.00619112,0.00128702,0.014
 02883,-0.00017269,0.02944378,0.10193974,-0.06893368,-0.00057710,-0.000
 21709,0.00027515,0.00018893,-0.00026779,0.00016151,0.00026547,0.000223
 97,-0.00010522,0.00094047,0.00035799,0.00000175,0.00394180,0.00310982,
 0.01207791,-0.03188643,-0.11539088,0.06461598\\-0.00001638,-0.00000264
 ,-0.00002373,-0.00000391,0.00002853,-0.00002314,-0.00003175,-0.0000048
 5,0.00004417,0.00002686,-0.00001533,-0.00001775,-0.00000525,-0.0000004
 3,0.00000920,-0.00000549,-0.00001646,0.00001763,-0.00001307,0.00000481
 ,-0.00000009,0.00001336,-0.00000195,-0.00000052,0.00001506,-0.00001701
 ,-0.00000061,0.00002058,0.00002533,-0.00000516\\\@


 SCIENCE IS LONG AND LIFE IS SHORT.

                     DON MOSER IN THE FEBRUARY 1979 SMITHSONIAN
 Job cpu time:       0 days  0 hours  2 minutes 58.0 seconds.
 File lengths (MBytes):  RWF=     12 Int=      0 D2E=      0 Chk=      2 Scr=      1
 Normal termination of Gaussian 09 at Fri Sep 10 19:29:04 2021.
