 Entering Gaussian System, Link 0=g09
 Input=B3LYP6-31Gxx.Frag_392.gjf
 Output=B3LYP6-31Gxx.Frag_392.log
 Initial command:
 /public/home/users/caep010/software/Gaussian09/g09/l1.exe "/public/home/users/caep010/.cache/gau_scr/Gau-160559.inp" -scrdir="/public/home/users/caep010/.cache/gau_scr/"
 Entering Link 1 = /public/home/users/caep010/software/Gaussian09/g09/l1.exe PID=    160560.
  
 Copyright (c) 1988,1990,1992,1993,1995,1998,2003,2009,2015,
            Gaussian, Inc.  All Rights Reserved.
  
 This is part of the Gaussian(R) 09 program.  It is based on
 the Gaussian(R) 03 system (copyright 2003, Gaussian, Inc.),
 the Gaussian(R) 98 system (copyright 1998, Gaussian, Inc.),
 the Gaussian(R) 94 system (copyright 1995, Gaussian, Inc.),
 the Gaussian 92(TM) system (copyright 1992, Gaussian, Inc.),
 the Gaussian 90(TM) system (copyright 1990, Gaussian, Inc.),
 the Gaussian 88(TM) system (copyright 1988, Gaussian, Inc.),
 the Gaussian 86(TM) system (copyright 1986, Carnegie Mellon
 University), and the Gaussian 82(TM) system (copyright 1983,
 Carnegie Mellon University). Gaussian is a federally registered
 trademark of Gaussian, Inc.
  
 This software contains proprietary and confidential information,
 including trade secrets, belonging to Gaussian, Inc.
  
 This software is provided under written license and may be
 used, copied, transmitted, or stored only in accord with that
 written license.
  
 The following legend is applicable only to US Government
 contracts under FAR:
  
                    RESTRICTED RIGHTS LEGEND
  
 Use, reproduction and disclosure by the US Government is
 subject to restrictions as set forth in subparagraphs (a)
 and (c) of the Commercial Computer Software - Restricted
 Rights clause in FAR 52.227-19.
  
 Gaussian, Inc.
 340 Quinnipiac St., Bldg. 40, Wallingford CT 06492
  
  
 ---------------------------------------------------------------
 Warning -- This program may not be used in any manner that
 competes with the business of Gaussian, Inc. or will provide
 assistance to any competitor of Gaussian, Inc.  The licensee
 of this program is prohibited from giving any competitor of
 Gaussian, Inc. access to this program.  By using this program,
 the user acknowledges that Gaussian, Inc. is engaged in the
 business of creating and licensing software in the field of
 computational chemistry and represents and warrants to the
 licensee that it is not a competitor of Gaussian, Inc. and that
 it will not use this program in any manner prohibited above.
 ---------------------------------------------------------------
  

 Cite this work as:
 Gaussian 09, Revision E.01,
 M. J. Frisch, G. W. Trucks, H. B. Schlegel, G. E. Scuseria, 
 M. A. Robb, J. R. Cheeseman, G. Scalmani, V. Barone, B. Mennucci, 
 G. A. Petersson, H. Nakatsuji, M. Caricato, X. Li, H. P. Hratchian, 
 A. F. Izmaylov, J. Bloino, G. Zheng, J. L. Sonnenberg, M. Hada, 
 M. Ehara, K. Toyota, R. Fukuda, J. Hasegawa, M. Ishida, T. Nakajima, 
 Y. Honda, O. Kitao, H. Nakai, T. Vreven, J. A. Montgomery, Jr., 
 J. E. Peralta, F. Ogliaro, M. Bearpark, J. J. Heyd, E. Brothers, 
 K. N. Kudin, V. N. Staroverov, T. Keith, R. Kobayashi, J. Normand, 
 K. Raghavachari, A. Rendell, J. C. Burant, S. S. Iyengar, J. Tomasi, 
 M. Cossi, N. Rega, J. M. Millam, M. Klene, J. E. Knox, J. B. Cross, 
 V. Bakken, C. Adamo, J. Jaramillo, R. Gomperts, R. E. Stratmann, 
 O. Yazyev, A. J. Austin, R. Cammi, C. Pomelli, J. W. Ochterski, 
 R. L. Martin, K. Morokuma, V. G. Zakrzewski, G. A. Voth, 
 P. Salvador, J. J. Dannenberg, S. Dapprich, A. D. Daniels, 
 O. Farkas, J. B. Foresman, J. V. Ortiz, J. Cioslowski, 
 and D. J. Fox, Gaussian, Inc., Wallingford CT, 2013.
 
 ******************************************
 Gaussian 09:  ES64L-G09RevE.01 30-Nov-2015
                10-Sep-2021 
 ******************************************
 %nproc=32
 Will use up to   32 processors via shared memory.
 %mem=180GB
 --------------------------------
 #P OPT=calcfc Freq B3LYP/6-31G**
 --------------------------------
 1/10=4,14=-1,18=20,19=15,26=3,38=1/1,3;
 2/9=110,12=2,17=6,18=5,40=1/2;
 3/5=1,6=6,7=101,11=2,16=1,25=1,30=1,71=2,74=-5,140=1/1,2,3;
 4//1;
 5/5=2,38=5/2;
 8/6=4,10=90,11=11/1;
 11/6=1,8=1,9=11,15=111,16=1/1,2,10;
 10/6=1,13=1/2;
 6/7=2,8=2,9=2,10=2,28=1/1;
 7/10=1,18=20,25=1/1,2,3,16;
 1/10=4,14=-1,18=20,19=15,26=3/3(2);
 2/9=110/2;
 99//99;
 2/9=110/2;
 3/5=1,6=6,7=101,11=2,16=1,25=1,30=1,71=1,74=-5/1,2,3;
 4/5=5,16=3,69=1/1;
 5/5=2,38=5/2;
 7//1,2,3,16;
 1/14=-1,18=20,19=15,26=3/3(-5);
 2/9=110/2;
 6/7=2,8=2,9=2,10=2,19=2,28=1/1;
 99/9=1/99;
 Leave Link    1 at Fri Sep 10 20:44:04 2021, MaxMem= 24159191040 cpu:         2.5
 (Enter /public/home/users/caep010/software/Gaussian09/g09/l101.exe)
 --------
 Frag_401
 --------
 Symbolic Z-matrix:
 Charge =  0 Multiplicity = 1
 C                    -1.2894   -0.1683   -0.5422 
 C                     0.0569   -0.1461    0.2028 
 C                     0.907     1.0385   -0.2891 
 N                     0.7742   -1.3943   -0.0701 
 O                    -0.1629   -0.0371    1.5902 
 H                    -1.127    -0.3127   -1.6321 
 H                    -1.9222   -1.0001   -0.1654 
 H                    -1.8389    0.7852   -0.3882 
 H                     0.3695    1.9986   -0.1337 
 H                     1.8655    1.081     0.2711 
 H                     1.1341    0.9296   -1.3715 
 H                     1.6707   -1.3929    0.4699 
 H                     0.2115   -2.1946    0.3017 
 H                    -0.6491    0.8131    1.7565 
 
 NAtoms=     14 NQM=       14 NQMF=       0 NMMI=      0 NMMIF=      0
                NMic=       0 NMicF=      0.
                    Isotopes and Nuclear Properties:
 (Nuclear quadrupole moments (NQMom) in fm**2, nuclear magnetic moments (NMagM)
  in nuclear magnetons)

  Atom         1           2           3           4           5           6           7           8           9          10
 IAtWgt=          12          12          12          14          16           1           1           1           1           1
 AtmWgt=  12.0000000  12.0000000  12.0000000  14.0030740  15.9949146   1.0078250   1.0078250   1.0078250   1.0078250   1.0078250
 NucSpn=           0           0           0           2           0           1           1           1           1           1
 AtZEff=   0.0000000   0.0000000   0.0000000   0.0000000   0.0000000   0.0000000   0.0000000   0.0000000   0.0000000   0.0000000
 NQMom=    0.0000000   0.0000000   0.0000000   2.0440000   0.0000000   0.0000000   0.0000000   0.0000000   0.0000000   0.0000000
 NMagM=    0.0000000   0.0000000   0.0000000   0.4037610   0.0000000   2.7928460   2.7928460   2.7928460   2.7928460   2.7928460
 AtZNuc=   6.0000000   6.0000000   6.0000000   7.0000000   8.0000000   1.0000000   1.0000000   1.0000000   1.0000000   1.0000000

  Atom        11          12          13          14
 IAtWgt=           1           1           1           1
 AtmWgt=   1.0078250   1.0078250   1.0078250   1.0078250
 NucSpn=           1           1           1           1
 AtZEff=   0.0000000   0.0000000   0.0000000   0.0000000
 NQMom=    0.0000000   0.0000000   0.0000000   0.0000000
 NMagM=    2.7928460   2.7928460   2.7928460   2.7928460
 AtZNuc=   1.0000000   1.0000000   1.0000000   1.0000000
 Leave Link  101 at Fri Sep 10 20:44:05 2021, MaxMem= 24159191040 cpu:        10.9
 (Enter /public/home/users/caep010/software/Gaussian09/g09/l103.exe)

 GradGradGradGradGradGradGradGradGradGradGradGradGradGradGradGradGradGrad
 Berny optimization.
 Initialization pass.
                           ----------------------------
                           !    Initial Parameters    !
                           ! (Angstroms and Degrees)  !
 --------------------------                            --------------------------
 ! Name  Definition              Value          Derivative Info.                !
 --------------------------------------------------------------------------------
 ! R1    R(1,2)                  1.5388         calculate D2E/DX2 analytically  !
 ! R2    R(1,6)                  1.1114         calculate D2E/DX2 analytically  !
 ! R3    R(1,7)                  1.111          calculate D2E/DX2 analytically  !
 ! R4    R(1,8)                  1.1112         calculate D2E/DX2 analytically  !
 ! R5    R(2,3)                  1.5388         calculate D2E/DX2 analytically  !
 ! R6    R(2,4)                  1.4653         calculate D2E/DX2 analytically  !
 ! R7    R(2,5)                  1.4089         calculate D2E/DX2 analytically  !
 ! R8    R(3,9)                  1.1112         calculate D2E/DX2 analytically  !
 ! R9    R(3,10)                 1.111          calculate D2E/DX2 analytically  !
 ! R10   R(3,11)                 1.1113         calculate D2E/DX2 analytically  !
 ! R11   R(4,12)                 1.0466         calculate D2E/DX2 analytically  !
 ! R12   R(4,13)                 1.0466         calculate D2E/DX2 analytically  !
 ! R13   R(5,14)                 0.9934         calculate D2E/DX2 analytically  !
 ! A1    A(2,1,6)              110.4148         calculate D2E/DX2 analytically  !
 ! A2    A(2,1,7)              110.1768         calculate D2E/DX2 analytically  !
 ! A3    A(2,1,8)              110.6803         calculate D2E/DX2 analytically  !
 ! A4    A(6,1,7)              108.5759         calculate D2E/DX2 analytically  !
 ! A5    A(6,1,8)              108.6423         calculate D2E/DX2 analytically  !
 ! A6    A(7,1,8)              108.2866         calculate D2E/DX2 analytically  !
 ! A7    A(1,2,3)              109.8566         calculate D2E/DX2 analytically  !
 ! A8    A(1,2,4)              109.0157         calculate D2E/DX2 analytically  !
 ! A9    A(1,2,5)              109.96           calculate D2E/DX2 analytically  !
 ! A10   A(3,2,4)              109.0141         calculate D2E/DX2 analytically  !
 ! A11   A(3,2,5)              109.9627         calculate D2E/DX2 analytically  !
 ! A12   A(4,2,5)              109.0064         calculate D2E/DX2 analytically  !
 ! A13   A(2,3,9)              110.6832         calculate D2E/DX2 analytically  !
 ! A14   A(2,3,10)             110.174          calculate D2E/DX2 analytically  !
 ! A15   A(2,3,11)             110.4141         calculate D2E/DX2 analytically  !
 ! A16   A(9,3,10)             108.2843         calculate D2E/DX2 analytically  !
 ! A17   A(9,3,11)             108.6456         calculate D2E/DX2 analytically  !
 ! A18   A(10,3,11)            108.5754         calculate D2E/DX2 analytically  !
 ! A19   A(2,4,12)             108.7901         calculate D2E/DX2 analytically  !
 ! A20   A(2,4,13)             108.7859         calculate D2E/DX2 analytically  !
 ! A21   A(12,4,13)            106.1576         calculate D2E/DX2 analytically  !
 ! A22   A(2,5,14)             107.903          calculate D2E/DX2 analytically  !
 ! D1    D(6,1,2,3)             62.0845         calculate D2E/DX2 analytically  !
 ! D2    D(6,1,2,4)            -57.312          calculate D2E/DX2 analytically  !
 ! D3    D(6,1,2,5)           -176.7612         calculate D2E/DX2 analytically  !
 ! D4    D(7,1,2,3)           -177.9881         calculate D2E/DX2 analytically  !
 ! D5    D(7,1,2,4)             62.6154         calculate D2E/DX2 analytically  !
 ! D6    D(7,1,2,5)            -56.8338         calculate D2E/DX2 analytically  !
 ! D7    D(8,1,2,3)            -58.2512         calculate D2E/DX2 analytically  !
 ! D8    D(8,1,2,4)           -177.6477         calculate D2E/DX2 analytically  !
 ! D9    D(8,1,2,5)             62.9031         calculate D2E/DX2 analytically  !
 ! D10   D(1,2,3,9)             58.2539         calculate D2E/DX2 analytically  !
 ! D11   D(1,2,3,10)           177.9881         calculate D2E/DX2 analytically  !
 ! D12   D(1,2,3,11)           -62.0874         calculate D2E/DX2 analytically  !
 ! D13   D(4,2,3,9)            177.6514         calculate D2E/DX2 analytically  !
 ! D14   D(4,2,3,10)           -62.6144         calculate D2E/DX2 analytically  !
 ! D15   D(4,2,3,11)            57.3101         calculate D2E/DX2 analytically  !
 ! D16   D(5,2,3,9)            -62.8987         calculate D2E/DX2 analytically  !
 ! D17   D(5,2,3,10)            56.8354         calculate D2E/DX2 analytically  !
 ! D18   D(5,2,3,11)           176.7599         calculate D2E/DX2 analytically  !
 ! D19   D(1,2,4,12)          -177.6516         calculate D2E/DX2 analytically  !
 ! D20   D(1,2,4,13)           -62.4237         calculate D2E/DX2 analytically  !
 ! D21   D(3,2,4,12)            62.4299         calculate D2E/DX2 analytically  !
 ! D22   D(3,2,4,13)           177.6577         calculate D2E/DX2 analytically  !
 ! D23   D(5,2,4,12)           -57.612          calculate D2E/DX2 analytically  !
 ! D24   D(5,2,4,13)            57.6158         calculate D2E/DX2 analytically  !
 ! D25   D(1,2,5,14)           -60.5518         calculate D2E/DX2 analytically  !
 ! D26   D(3,2,5,14)            60.5389         calculate D2E/DX2 analytically  !
 ! D27   D(4,2,5,14)           179.9934         calculate D2E/DX2 analytically  !
 --------------------------------------------------------------------------------
 Trust Radius=3.00D-01 FncErr=1.00D-07 GrdErr=1.00D-06
 Number of steps in this run=     72 maximum allowed number of steps=    100.
 GradGradGradGradGradGradGradGradGradGradGradGradGradGradGradGradGradGrad

 Leave Link  103 at Fri Sep 10 20:44:05 2021, MaxMem= 24159191040 cpu:         0.5
 (Enter /public/home/users/caep010/software/Gaussian09/g09/l202.exe)
                          Input orientation:                          
 ---------------------------------------------------------------------
 Center     Atomic      Atomic             Coordinates (Angstroms)
 Number     Number       Type             X           Y           Z
 ---------------------------------------------------------------------
      1          6           0       -1.289400   -0.168300   -0.542200
      2          6           0        0.056900   -0.146100    0.202800
      3          6           0        0.907000    1.038500   -0.289100
      4          7           0        0.774200   -1.394300   -0.070100
      5          8           0       -0.162900   -0.037100    1.590200
      6          1           0       -1.127000   -0.312700   -1.632100
      7          1           0       -1.922200   -1.000100   -0.165400
      8          1           0       -1.838900    0.785200   -0.388200
      9          1           0        0.369500    1.998600   -0.133700
     10          1           0        1.865500    1.081000    0.271100
     11          1           0        1.134100    0.929600   -1.371500
     12          1           0        1.670700   -1.392900    0.469900
     13          1           0        0.211500   -2.194600    0.301700
     14          1           0       -0.649100    0.813100    1.756500
 ---------------------------------------------------------------------
                    Distance matrix (angstroms):
                    1          2          3          4          5
     1  C    0.000000
     2  C    1.538844   0.000000
     3  C    2.518849   1.538802   0.000000
     4  N    2.446303   1.465263   2.446245   0.000000
     5  O    2.415232   1.408926   2.415237   2.340245   0.000000
     6  H    1.111354   2.190030   2.786852   2.687799   3.374709
     7  H    1.110993   2.186715   3.489350   2.726729   2.665452
     8  H    1.111228   2.193321   2.759338   3.417558   2.720151
     9  H    2.759398   2.193328   1.111237   3.417543   2.720176
    10  H    3.489355   2.186658   1.111014   2.726621   2.665442
    11  H    2.786840   2.189957   1.111316   2.687691   3.374668
    12  H    3.359492   2.056746   2.659140   1.046573   2.540739
    13  H    2.659090   2.056705   3.359420   1.046588   2.540711
    14  H    2.580146   1.957673   2.580064   3.199198   0.993421
                    6          7          8          9         10
     6  H    0.000000
     7  H    1.804459   0.000000
     8  H    1.805401   1.801076   0.000000
     9  H    3.134776   3.774268   2.532615   0.000000
    10  H    3.810463   4.343752   3.774222   1.801074   0.000000
    11  H    2.593028   3.810432   3.134718   1.805415   1.804440
    12  H    3.662289   3.669718   4.218738   3.682353   2.489508
    13  H    3.012094   2.489516   3.682297   4.218704   3.669633
    14  H    3.602558   2.932947   2.452782   2.452715   2.932814
                   11         12         13         14
    11  H    0.000000
    12  H    3.012092   0.000000
    13  H    3.662160   1.673403   0.000000
    14  H    3.602466   3.450108   3.450121   0.000000
 Stoichiometry    C3H9NO
 Framework group  C1[X(C3H9NO)]
 Deg. of freedom    36
 Full point group                 C1      NOp   1
 Largest Abelian subgroup         C1      NOp   1
 Largest concise Abelian subgroup C1      NOp   1
                         Standard orientation:                         
 ---------------------------------------------------------------------
 Center     Atomic      Atomic             Coordinates (Angstroms)
 Number     Number       Type             X           Y           Z
 ---------------------------------------------------------------------
      1          6           0        1.259738   -0.748201   -0.396661
      2          6           0       -0.000023    0.034847    0.013069
      3          6           0       -1.259110   -0.749209   -0.396647
      4          7           0       -0.000576    1.330376   -0.671476
      5          8           0       -0.000071    0.251489    1.405240
      6          1           0        1.296870   -0.872758   -1.500388
      7          1           0        2.171975   -0.204067   -0.071013
      8          1           0        1.266996   -1.754429    0.074806
      9          1           0       -1.265619   -1.755443    0.074838
     10          1           0       -2.171777   -0.205769   -0.070968
     11          1           0       -1.296158   -0.873741   -1.500342
     12          1           0       -0.837459    1.876028   -0.359699
     13          1           0        0.835944    1.876641   -0.359746
     14          1           0        0.000198   -0.635630    1.852348
 ---------------------------------------------------------------------
 Rotational constants (GHZ):      4.8398201      4.7896174      4.5893710
 Leave Link  202 at Fri Sep 10 20:44:05 2021, MaxMem= 24159191040 cpu:         0.3
 (Enter /public/home/users/caep010/software/Gaussian09/g09/l301.exe)
 Standard basis: 6-31G(d,p) (6D, 7F)
 Ernie: Thresh=  0.10000D-02 Tol=  0.10000D-05 Strict=F.
 There are   120 symmetry adapted cartesian basis functions of A   symmetry.
 There are   120 symmetry adapted basis functions of A   symmetry.
   120 basis functions,   203 primitive gaussians,   120 cartesian basis functions
    21 alpha electrons       21 beta electrons
       nuclear repulsion energy       200.1400713062 Hartrees.
 IExCor=  402 DFT=T Ex+Corr=B3LYP ExCW=0 ScaHFX=  0.200000
 ScaDFX=  0.800000  0.720000  1.000000  0.810000 ScalE2=  1.000000  1.000000
 IRadAn=      0 IRanWt=     -1 IRanGd=            0 ICorTp=0 IEmpDi=  4
 NAtoms=   14 NActive=   14 NUniq=   14 SFac= 1.00D+00 NAtFMM=   60 NAOKFM=F Big=F
 Integral buffers will be    131072 words long.
 Raffenetti 2 integral format.
 Two-electron integral symmetry is turned on.
 Leave Link  301 at Fri Sep 10 20:44:05 2021, MaxMem= 24159191040 cpu:         2.2
 (Enter /public/home/users/caep010/software/Gaussian09/g09/l302.exe)
 NPDir=0 NMtPBC=     1 NCelOv=     1 NCel=       1 NClECP=     1 NCelD=      1
         NCelK=      1 NCelE2=     1 NClLst=     1 CellRange=     0.0.
 One-electron integrals computed using PRISM.
 NBasis=   120 RedAO= T EigKep=  3.00D-03  NBF=   120
 NBsUse=   120 1.00D-06 EigRej= -1.00D+00 NBFU=   120
 Precomputing XC quadrature grid using
 IXCGrd= 4 IRadAn=           0 IRanWt=          -1 IRanGd=           0 AccXCQ= 0.00D+00.
 Generated NRdTot=       0 NPtTot=           0 NUsed=           0 NTot=          32
 NSgBfM=   120   120   120   120   120 MxSgAt=    14 MxSgA2=    14.
 Leave Link  302 at Fri Sep 10 20:44:05 2021, MaxMem= 24159191040 cpu:        11.5
 (Enter /public/home/users/caep010/software/Gaussian09/g09/l303.exe)
 DipDrv:  MaxL=1.
 Leave Link  303 at Fri Sep 10 20:44:06 2021, MaxMem= 24159191040 cpu:         0.7
 (Enter /public/home/users/caep010/software/Gaussian09/g09/l401.exe)
 ExpMin= 1.61D-01 ExpMax= 5.48D+03 ExpMxC= 8.25D+02 IAcc=1 IRadAn=         1 AccDes= 0.00D+00
 Harris functional with IExCor=  402 and IRadAn=       1 diagonalized for initial guess.
 HarFok:  IExCor=  402 AccDes= 0.00D+00 IRadAn=         1 IDoV= 1 UseB2=F ITyADJ=14
 ICtDFT=  3500011 ScaDFX=  1.000000  1.000000  1.000000  1.000000
 FoFCou: FMM=F IPFlag=           0 FMFlag=      100000 FMFlg1=           0
         NFxFlg=           0 DoJE=T BraDBF=F KetDBF=T FulRan=T
         wScrn=  0.000000 ICntrl=     500 IOpCl=  0 I1Cent=   200000004 NGrid=           0
         NMat0=    1 NMatS0=      1 NMatT0=    0 NMatD0=    1 NMtDS0=    0 NMtDT0=    0
 Petite list used in FoFCou.
 Harris En= -249.769059645861    
 JPrj=0 DoOrth=F DoCkMO=F.
 Leave Link  401 at Fri Sep 10 20:44:06 2021, MaxMem= 24159191040 cpu:        10.3
 (Enter /public/home/users/caep010/software/Gaussian09/g09/l502.exe)
 Closed shell SCF:
 Using DIIS extrapolation, IDIIS=  1040.
 Integral symmetry usage will be decided dynamically.
 Keep R1 ints in memory in canonical form, NReq=27368019.
 IVT=       66505 IEndB=       66505 NGot= 24159191040 MDV= 24132767106
 LenX= 24132767106 LenY= 24132752265
 Requested convergence on RMS density matrix=1.00D-08 within 128 cycles.
 Requested convergence on MAX density matrix=1.00D-06.
 Requested convergence on             energy=1.00D-06.
 No special actions if energy rises.
 FoFCou: FMM=F IPFlag=           0 FMFlag=           0 FMFlg1=           0
         NFxFlg=           0 DoJE=F BraDBF=F KetDBF=F FulRan=T
         wScrn=  0.000000 ICntrl=     600 IOpCl=  0 I1Cent=           0 NGrid=           0
         NMat0=    1 NMatS0=   7260 NMatT0=    0 NMatD0=    1 NMtDS0=    0 NMtDT0=    0
 Symmetry not used in FoFCou.
 Integral accuracy reduced to 1.0D-05 until final iterations.

 Cycle   1  Pass 0  IDiag  1:
 E= -249.510366186633    
 DIIS: error= 3.21D-02 at cycle   1 NSaved=   1.
 NSaved= 1 IEnMin= 1 EnMin= -249.510366186633     IErMin= 1 ErrMin= 3.21D-02
 ErrMax= 3.21D-02  0.00D+00 EMaxC= 1.00D-01 BMatC= 2.28D-01 BMatP= 2.28D-01
 IDIUse=3 WtCom= 6.79D-01 WtEn= 3.21D-01
 Coeff-Com:  0.100D+01
 Coeff-En:   0.100D+01
 Coeff:      0.100D+01
 Gap=     0.210 Goal=   None    Shift=    0.000
 GapD=    0.210 DampG=1.000 DampE=0.500 DampFc=0.5000 IDamp=-1.
 Damping current iteration by 5.00D-01
 RMSDP=8.03D-03 MaxDP=1.40D-01              OVMax= 1.80D-01

 Cycle   2  Pass 0  IDiag  1:
 E= -249.600616328148     Delta-E=       -0.090250141515 Rises=F Damp=T
 DIIS: error= 9.33D-03 at cycle   2 NSaved=   2.
 NSaved= 2 IEnMin= 2 EnMin= -249.600616328148     IErMin= 2 ErrMin= 9.33D-03
 ErrMax= 9.33D-03  0.00D+00 EMaxC= 1.00D-01 BMatC= 1.00D-02 BMatP= 2.28D-01
 IDIUse=3 WtCom= 9.07D-01 WtEn= 9.33D-02
 Coeff-Com:  0.113D+00 0.887D+00
 Coeff-En:   0.183D+00 0.817D+00
 Coeff:      0.120D+00 0.880D+00
 Gap=     0.307 Goal=   None    Shift=    0.000
 RMSDP=1.16D-03 MaxDP=1.85D-02 DE=-9.03D-02 OVMax= 9.91D-02

 Cycle   3  Pass 0  IDiag  1:
 E= -249.722699133232     Delta-E=       -0.122082805084 Rises=F Damp=F
 DIIS: error= 2.79D-03 at cycle   3 NSaved=   3.
 NSaved= 3 IEnMin= 3 EnMin= -249.722699133232     IErMin= 3 ErrMin= 2.79D-03
 ErrMax= 2.79D-03  0.00D+00 EMaxC= 1.00D-01 BMatC= 1.58D-03 BMatP= 1.00D-02
 IDIUse=3 WtCom= 9.72D-01 WtEn= 2.79D-02
 Coeff-Com:  0.234D-01 0.243D+00 0.733D+00
 Coeff-En:   0.000D+00 0.000D+00 0.100D+01
 Coeff:      0.227D-01 0.237D+00 0.741D+00
 Gap=     0.302 Goal=   None    Shift=    0.000
 RMSDP=4.75D-04 MaxDP=7.86D-03 DE=-1.22D-01 OVMax= 1.09D-02

 Cycle   4  Pass 0  IDiag  1:
 E= -249.723330359405     Delta-E=       -0.000631226173 Rises=F Damp=F
 DIIS: error= 1.98D-03 at cycle   4 NSaved=   4.
 NSaved= 4 IEnMin= 4 EnMin= -249.723330359405     IErMin= 4 ErrMin= 1.98D-03
 ErrMax= 1.98D-03  0.00D+00 EMaxC= 1.00D-01 BMatC= 8.72D-04 BMatP= 1.58D-03
 IDIUse=3 WtCom= 9.80D-01 WtEn= 1.98D-02
 Coeff-Com:  0.132D-02 0.224D-01 0.425D+00 0.551D+00
 Coeff-En:   0.000D+00 0.000D+00 0.365D+00 0.635D+00
 Coeff:      0.130D-02 0.220D-01 0.424D+00 0.553D+00
 Gap=     0.307 Goal=   None    Shift=    0.000
 RMSDP=2.11D-04 MaxDP=3.93D-03 DE=-6.31D-04 OVMax= 5.34D-03

 Cycle   5  Pass 0  IDiag  1:
 E= -249.724077436962     Delta-E=       -0.000747077557 Rises=F Damp=F
 DIIS: error= 2.72D-04 at cycle   5 NSaved=   5.
 NSaved= 5 IEnMin= 5 EnMin= -249.724077436962     IErMin= 5 ErrMin= 2.72D-04
 ErrMax= 2.72D-04  0.00D+00 EMaxC= 1.00D-01 BMatC= 8.14D-06 BMatP= 8.72D-04
 IDIUse=3 WtCom= 9.97D-01 WtEn= 2.72D-03
 Coeff-Com:  0.114D-03 0.346D-03 0.127D+00 0.192D+00 0.680D+00
 Coeff-En:   0.000D+00 0.000D+00 0.000D+00 0.000D+00 0.100D+01
 Coeff:      0.113D-03 0.345D-03 0.127D+00 0.192D+00 0.681D+00
 Gap=     0.307 Goal=   None    Shift=    0.000
 RMSDP=3.05D-05 MaxDP=5.94D-04 DE=-7.47D-04 OVMax= 6.55D-04

 Cycle   6  Pass 0  IDiag  1:
 E= -249.724082318885     Delta-E=       -0.000004881923 Rises=F Damp=F
 DIIS: error= 1.25D-04 at cycle   6 NSaved=   6.
 NSaved= 6 IEnMin= 6 EnMin= -249.724082318885     IErMin= 6 ErrMin= 1.25D-04
 ErrMax= 1.25D-04  0.00D+00 EMaxC= 1.00D-01 BMatC= 2.33D-06 BMatP= 8.14D-06
 IDIUse=3 WtCom= 9.99D-01 WtEn= 1.25D-03
 Coeff-Com:  0.892D-04-0.138D-02 0.472D-01 0.766D-01 0.398D+00 0.480D+00
 Coeff-En:   0.000D+00 0.000D+00 0.000D+00 0.000D+00 0.183D+00 0.817D+00
 Coeff:      0.891D-04-0.138D-02 0.471D-01 0.765D-01 0.398D+00 0.480D+00
 Gap=     0.307 Goal=   None    Shift=    0.000
 RMSDP=1.07D-05 MaxDP=2.39D-04 DE=-4.88D-06 OVMax= 2.64D-04

 Cycle   7  Pass 0  IDiag  1:
 E= -249.724084170893     Delta-E=       -0.000001852009 Rises=F Damp=F
 DIIS: error= 1.10D-05 at cycle   7 NSaved=   7.
 NSaved= 7 IEnMin= 7 EnMin= -249.724084170893     IErMin= 7 ErrMin= 1.10D-05
 ErrMax= 1.10D-05  0.00D+00 EMaxC= 1.00D-01 BMatC= 1.93D-08 BMatP= 2.33D-06
 IDIUse=1 WtCom= 1.00D+00 WtEn= 0.00D+00
 Coeff-Com:  0.661D-04-0.415D-03 0.827D-02 0.135D-01 0.784D-01 0.136D+00
 Coeff-Com:  0.764D+00
 Coeff:      0.661D-04-0.415D-03 0.827D-02 0.135D-01 0.784D-01 0.136D+00
 Coeff:      0.764D+00
 Gap=     0.307 Goal=   None    Shift=    0.000
 RMSDP=1.60D-06 MaxDP=3.92D-05 DE=-1.85D-06 OVMax= 4.86D-05

 Initial convergence to 1.0D-05 achieved.  Increase integral accuracy.
 Cycle   8  Pass 1  IDiag  1:
 E= -249.724168867511     Delta-E=       -0.000084696617 Rises=F Damp=F
 DIIS: error= 1.47D-05 at cycle   1 NSaved=   1.
 NSaved= 1 IEnMin= 1 EnMin= -249.724168867511     IErMin= 1 ErrMin= 1.47D-05
 ErrMax= 1.47D-05  0.00D+00 EMaxC= 1.00D-01 BMatC= 2.73D-08 BMatP= 2.73D-08
 IDIUse=1 WtCom= 1.00D+00 WtEn= 0.00D+00
 Coeff-Com:  0.100D+01
 Coeff:      0.100D+01
 Gap=     0.307 Goal=   None    Shift=    0.000
 RMSDP=1.60D-06 MaxDP=3.92D-05 DE=-8.47D-05 OVMax= 6.07D-05

 Cycle   9  Pass 1  IDiag  1:
 E= -249.724168886281     Delta-E=       -0.000000018770 Rises=F Damp=F
 DIIS: error= 8.35D-06 at cycle   2 NSaved=   2.
 NSaved= 2 IEnMin= 2 EnMin= -249.724168886281     IErMin= 2 ErrMin= 8.35D-06
 ErrMax= 8.35D-06  0.00D+00 EMaxC= 1.00D-01 BMatC= 1.44D-08 BMatP= 2.73D-08
 IDIUse=1 WtCom= 1.00D+00 WtEn= 0.00D+00
 Coeff-Com:  0.394D+00 0.606D+00
 Coeff:      0.394D+00 0.606D+00
 Gap=     0.307 Goal=   None    Shift=    0.000
 RMSDP=1.38D-06 MaxDP=3.09D-05 DE=-1.88D-08 OVMax= 2.97D-05

 Cycle  10  Pass 1  IDiag  1:
 E= -249.724168896627     Delta-E=       -0.000000010346 Rises=F Damp=F
 DIIS: error= 4.24D-06 at cycle   3 NSaved=   3.
 NSaved= 3 IEnMin= 3 EnMin= -249.724168896627     IErMin= 3 ErrMin= 4.24D-06
 ErrMax= 4.24D-06  0.00D+00 EMaxC= 1.00D-01 BMatC= 2.97D-09 BMatP= 1.44D-08
 IDIUse=1 WtCom= 1.00D+00 WtEn= 0.00D+00
 Coeff-Com: -0.101D-01 0.308D+00 0.702D+00
 Coeff:     -0.101D-01 0.308D+00 0.702D+00
 Gap=     0.307 Goal=   None    Shift=    0.000
 RMSDP=4.39D-07 MaxDP=1.08D-05 DE=-1.03D-08 OVMax= 1.19D-05

 Cycle  11  Pass 1  IDiag  1:
 E= -249.724168899086     Delta-E=       -0.000000002460 Rises=F Damp=F
 DIIS: error= 7.20D-07 at cycle   4 NSaved=   4.
 NSaved= 4 IEnMin= 4 EnMin= -249.724168899086     IErMin= 4 ErrMin= 7.20D-07
 ErrMax= 7.20D-07  0.00D+00 EMaxC= 1.00D-01 BMatC= 9.10D-11 BMatP= 2.97D-09
 IDIUse=1 WtCom= 1.00D+00 WtEn= 0.00D+00
 Coeff-Com: -0.113D-01 0.145D+00 0.352D+00 0.515D+00
 Coeff:     -0.113D-01 0.145D+00 0.352D+00 0.515D+00
 Gap=     0.307 Goal=   None    Shift=    0.000
 RMSDP=8.36D-08 MaxDP=1.96D-06 DE=-2.46D-09 OVMax= 2.05D-06

 Cycle  12  Pass 1  IDiag  1:
 E= -249.724168899159     Delta-E=       -0.000000000073 Rises=F Damp=F
 DIIS: error= 1.89D-07 at cycle   5 NSaved=   5.
 NSaved= 5 IEnMin= 5 EnMin= -249.724168899159     IErMin= 5 ErrMin= 1.89D-07
 ErrMax= 1.89D-07  0.00D+00 EMaxC= 1.00D-01 BMatC= 5.35D-12 BMatP= 9.10D-11
 IDIUse=1 WtCom= 1.00D+00 WtEn= 0.00D+00
 Coeff-Com: -0.422D-02 0.443D-01 0.109D+00 0.250D+00 0.601D+00
 Coeff:     -0.422D-02 0.443D-01 0.109D+00 0.250D+00 0.601D+00
 Gap=     0.307 Goal=   None    Shift=    0.000
 RMSDP=2.08D-08 MaxDP=3.96D-07 DE=-7.28D-11 OVMax= 4.97D-07

 Cycle  13  Pass 1  IDiag  1:
 E= -249.724168899166     Delta-E=       -0.000000000007 Rises=F Damp=F
 DIIS: error= 3.11D-08 at cycle   6 NSaved=   6.
 NSaved= 6 IEnMin= 6 EnMin= -249.724168899166     IErMin= 6 ErrMin= 3.11D-08
 ErrMax= 3.11D-08  0.00D+00 EMaxC= 1.00D-01 BMatC= 2.00D-13 BMatP= 5.35D-12
 IDIUse=1 WtCom= 1.00D+00 WtEn= 0.00D+00
 Coeff-Com: -0.900D-03 0.696D-02 0.177D-01 0.610D-01 0.223D+00 0.692D+00
 Coeff:     -0.900D-03 0.696D-02 0.177D-01 0.610D-01 0.223D+00 0.692D+00
 Gap=     0.307 Goal=   None    Shift=    0.000
 RMSDP=4.37D-09 MaxDP=1.15D-07 DE=-7.39D-12 OVMax= 1.14D-07

 SCF Done:  E(RB3LYP) =  -249.724168899     A.U. after   13 cycles
            NFock= 13  Conv=0.44D-08     -V/T= 2.0102
 KE= 2.472090376172D+02 PE=-9.822850435781D+02 EE= 2.852117657554D+02
 Leave Link  502 at Fri Sep 10 20:44:08 2021, MaxMem= 24159191040 cpu:        36.7
 (Enter /public/home/users/caep010/software/Gaussian09/g09/l801.exe)
 DoSCS=F DFT=T ScalE2(SS,OS)=  1.000000  1.000000
 Range of M.O.s used for correlation:     1   120
 NBasis=   120 NAE=    21 NBE=    21 NFC=     0 NFV=     0
 NROrb=    120 NOA=    21 NOB=    21 NVA=    99 NVB=    99
 Leave Link  801 at Fri Sep 10 20:44:08 2021, MaxMem= 24159191040 cpu:         0.7
 (Enter /public/home/users/caep010/software/Gaussian09/g09/l1101.exe)
 Using compressed storage, NAtomX=    14.
 Will process     15 centers per pass.
 Leave Link 1101 at Fri Sep 10 20:44:08 2021, MaxMem= 24159191040 cpu:        11.5
 (Enter /public/home/users/caep010/software/Gaussian09/g09/l1102.exe)
 Symmetrizing basis deriv contribution to polar:
 IMax=3 JMax=2 DiffMx= 0.00D+00
 Leave Link 1102 at Fri Sep 10 20:44:08 2021, MaxMem= 24159191040 cpu:         0.7
 (Enter /public/home/users/caep010/software/Gaussian09/g09/l1110.exe)
 Forming Gx(P) for the SCF density, NAtomX=    14.
 Integral derivatives from FoFJK, PRISM(SPDF).
 Do as many integral derivatives as possible in FoFJK.
 G2DrvN: MDV=   24159190824.
 G2DrvN: will do    15 centers at a time, making    1 passes.
 Calling FoFCou, ICntrl=  3107 FMM=F I1Cent=   0 AccDes= 0.00D+00.
 FoFJK:  IHMeth= 1 ICntrl=    3107 DoSepK=F KAlg= 0 I1Cent=   0 FoldK=F
 IRaf=         0 NMat=   1 IRICut=       1 DoRegI=T DoRafI=F ISym2E= 0.
 FoFCou: FMM=F IPFlag=           0 FMFlag=      100000 FMFlg1=           0
         NFxFlg=           0 DoJE=F BraDBF=F KetDBF=F FulRan=T
         wScrn=  0.000000 ICntrl=    3107 IOpCl=  0 I1Cent=           0 NGrid=           0
         NMat0=    1 NMatS0=      1 NMatT0=    0 NMatD0=    1 NMtDS0=    0 NMtDT0=    0
 Symmetry not used in FoFCou.
 End of G2Drv F.D. properties file   721 does not exist.
 End of G2Drv F.D. properties file   722 does not exist.
 End of G2Drv F.D. properties file   788 does not exist.
 Leave Link 1110 at Fri Sep 10 20:44:10 2021, MaxMem= 24159191040 cpu:        55.9
 (Enter /public/home/users/caep010/software/Gaussian09/g09/l1002.exe)
 Minotr:  Closed shell wavefunction.
          IDoAtm=11111111111111
          Direct CPHF calculation.
          Differentiating once with respect to nuclear coordinates.
          Requested convergence is 1.0D-08 RMS, and 1.0D-07 maximum.
          Secondary convergence is 1.0D-12 RMS, and 1.0D-12 maximum.
          NewPWx=T KeepS1=F KeepF1=F KeepIn=T MapXYZ=F SortEE=F KeepMc=T.
          MDV=   24159190776 using IRadAn=       2.
 Generate precomputed XC quadrature information.
 Keep R1 ints in memory in canonical form, NReq=27304304.
 FoFCou: FMM=F IPFlag=           0 FMFlag=           0 FMFlg1=           0
         NFxFlg=           0 DoJE=F BraDBF=F KetDBF=F FulRan=T
         wScrn=  0.000000 ICntrl=     600 IOpCl=  0 I1Cent=           0 NGrid=           0
         NMat0=    1 NMatS0=   7260 NMatT0=    0 NMatD0=    1 NMtDS0=    0 NMtDT0=    0
 Symmetry not used in FoFCou.
          Solving linear equations simultaneously, MaxMat=       0.
          There are    45 degrees of freedom in the 1st order CPHF.  IDoFFX=6 NUNeed=     0.
     39 vectors produced by pass  0 Test12= 4.62D-15 2.22D-09 XBig12= 1.17D-01 9.40D-02.
 AX will form    39 AO Fock derivatives at one time.
     39 vectors produced by pass  1 Test12= 4.62D-15 2.22D-09 XBig12= 9.89D-03 2.25D-02.
     39 vectors produced by pass  2 Test12= 4.62D-15 2.22D-09 XBig12= 7.09D-05 1.78D-03.
     39 vectors produced by pass  3 Test12= 4.62D-15 2.22D-09 XBig12= 1.41D-07 6.15D-05.
     39 vectors produced by pass  4 Test12= 4.62D-15 2.22D-09 XBig12= 1.50D-10 1.99D-06.
     19 vectors produced by pass  5 Test12= 4.62D-15 2.22D-09 XBig12= 9.99D-14 5.25D-08.
 InvSVY:  IOpt=1 It=  1 EMax= 2.33D-15
 Solved reduced A of dimension   214 with    39 vectors.
 End of Minotr F.D. properties file   721 does not exist.
 End of Minotr F.D. properties file   722 does not exist.
 End of Minotr F.D. properties file   788 does not exist.
 Leave Link 1002 at Fri Sep 10 20:44:12 2021, MaxMem= 24159191040 cpu:        70.5
 (Enter /public/home/users/caep010/software/Gaussian09/g09/l601.exe)
 Copying SCF densities to generalized density rwf, IOpCl= 0 IROHF=0.

 **********************************************************************

            Population analysis using the SCF density.

 **********************************************************************

 Orbital symmetries:
       Occupied  (A) (A) (A) (A) (A) (A) (A) (A) (A) (A) (A) (A)
                 (A) (A) (A) (A) (A) (A) (A) (A) (A)
       Virtual   (A) (A) (A) (A) (A) (A) (A) (A) (A) (A) (A) (A)
                 (A) (A) (A) (A) (A) (A) (A) (A) (A) (A) (A) (A)
                 (A) (A) (A) (A) (A) (A) (A) (A) (A) (A) (A) (A)
                 (A) (A) (A) (A) (A) (A) (A) (A) (A) (A) (A) (A)
                 (A) (A) (A) (A) (A) (A) (A) (A) (A) (A) (A) (A)
                 (A) (A) (A) (A) (A) (A) (A) (A) (A) (A) (A) (A)
                 (A) (A) (A) (A) (A) (A) (A) (A) (A) (A) (A) (A)
                 (A) (A) (A) (A) (A) (A) (A) (A) (A) (A) (A) (A)
                 (A) (A) (A)
 The electronic state is 1-A.
 Alpha  occ. eigenvalues --  -19.13910 -14.31359 -10.26210 -10.17782 -10.17781
 Alpha  occ. eigenvalues --   -1.02152  -0.86198  -0.73724  -0.68511  -0.57482
 Alpha  occ. eigenvalues --   -0.49029  -0.47627  -0.46072  -0.40660  -0.40069
 Alpha  occ. eigenvalues --   -0.37587  -0.37017  -0.34852  -0.32625  -0.26229
 Alpha  occ. eigenvalues --   -0.24808
 Alpha virt. eigenvalues --    0.05876   0.09927   0.13193   0.13922   0.15041
 Alpha virt. eigenvalues --    0.15867   0.15892   0.19577   0.21163   0.22342
 Alpha virt. eigenvalues --    0.25689   0.25880   0.28480   0.51671   0.53399
 Alpha virt. eigenvalues --    0.57869   0.57995   0.59438   0.63008   0.63389
 Alpha virt. eigenvalues --    0.69484   0.71272   0.73025   0.79711   0.81624
 Alpha virt. eigenvalues --    0.82307   0.85063   0.86845   0.86880   0.88619
 Alpha virt. eigenvalues --    0.89456   0.94018   0.94040   0.97365   0.98670
 Alpha virt. eigenvalues --    0.99821   1.04261   1.08943   1.28817   1.32369
 Alpha virt. eigenvalues --    1.38090   1.41715   1.49484   1.51578   1.55985
 Alpha virt. eigenvalues --    1.62029   1.70093   1.72309   1.82816   1.83102
 Alpha virt. eigenvalues --    1.85771   1.94012   1.94151   2.01846   2.02380
 Alpha virt. eigenvalues --    2.03926   2.04830   2.06857   2.07245   2.10286
 Alpha virt. eigenvalues --    2.10922   2.13952   2.17461   2.23008   2.27256
 Alpha virt. eigenvalues --    2.31488   2.32060   2.32526   2.34940   2.44291
 Alpha virt. eigenvalues --    2.47036   2.59769   2.60537   2.65434   2.66088
 Alpha virt. eigenvalues --    2.68929   2.70002   2.77217   2.79334   2.85234
 Alpha virt. eigenvalues --    2.86641   2.91363   2.93086   3.00657   3.08977
 Alpha virt. eigenvalues --    3.13375   3.19083   3.25688   3.38063   3.39448
 Alpha virt. eigenvalues --    3.40154   3.40499   3.48959   3.50001   3.92514
 Alpha virt. eigenvalues --    4.04118   4.40316   4.52715   4.67705
          Condensed to atoms (all electrons):
               1          2          3          4          5          6
     1  C    5.053622   0.374110  -0.073113  -0.070028  -0.059341   0.354329
     2  C    0.374110   4.570677   0.374114   0.337900   0.215354  -0.021457
     3  C   -0.073113   0.374114   5.053618  -0.070035  -0.059335  -0.000266
     4  N   -0.070028   0.337900  -0.070035   6.814186  -0.078688   0.000802
     5  O   -0.059341   0.215354  -0.059335  -0.078688   8.246584   0.003906
     6  H    0.354329  -0.021457  -0.000266   0.000802   0.003906   0.600334
     7  H    0.365731  -0.024458   0.005840  -0.005309   0.000983  -0.025890
     8  H    0.364158  -0.025500  -0.007399   0.004524  -0.000320  -0.027152
     9  H   -0.007399  -0.025501   0.364158   0.004524  -0.000321   0.000248
    10  H    0.005841  -0.024461   0.365726  -0.005310   0.000983  -0.000117
    11  H   -0.000267  -0.021457   0.354336   0.000802   0.003906   0.000155
    12  H    0.008020  -0.028507  -0.009357   0.317989   0.002106  -0.000226
    13  H   -0.009359  -0.028511   0.008021   0.317989   0.002105   0.000098
    14  H   -0.003944  -0.017159  -0.003946   0.008302   0.260980  -0.000176
               7          8          9         10         11         12
     1  C    0.365731   0.364158  -0.007399   0.005841  -0.000267   0.008020
     2  C   -0.024458  -0.025500  -0.025501  -0.024461  -0.021457  -0.028507
     3  C    0.005840  -0.007399   0.364158   0.365726   0.354336  -0.009357
     4  N   -0.005309   0.004524   0.004524  -0.005310   0.000802   0.317989
     5  O    0.000983  -0.000320  -0.000321   0.000983   0.003906   0.002106
     6  H   -0.025890  -0.027152   0.000248  -0.000117   0.000155  -0.000226
     7  H    0.606961  -0.030461  -0.000032  -0.000220  -0.000117  -0.000132
     8  H   -0.030461   0.630845   0.004030  -0.000032   0.000248  -0.000267
     9  H   -0.000032   0.004030   0.630847  -0.030463  -0.027149  -0.000210
    10  H   -0.000220  -0.000032  -0.030463   0.606977  -0.025889   0.005056
    11  H   -0.000117   0.000248  -0.027149  -0.025889   0.600308   0.000098
    12  H   -0.000132  -0.000267  -0.000210   0.005056   0.000098   0.499477
    13  H    0.005056  -0.000210  -0.000267  -0.000132  -0.000226  -0.031067
    14  H   -0.000148   0.002568   0.002569  -0.000148  -0.000176  -0.000137
              13         14
     1  C   -0.009359  -0.003944
     2  C   -0.028511  -0.017159
     3  C    0.008021  -0.003946
     4  N    0.317989   0.008302
     5  O    0.002105   0.260980
     6  H    0.000098  -0.000176
     7  H    0.005056  -0.000148
     8  H   -0.000210   0.002568
     9  H   -0.000267   0.002569
    10  H   -0.000132  -0.000148
    11  H   -0.000226  -0.000176
    12  H   -0.031067  -0.000137
    13  H    0.499486  -0.000137
    14  H   -0.000137   0.454599
 Mulliken charges:
               1
     1  C   -0.302361
     2  C    0.344854
     3  C   -0.302363
     4  N   -0.577649
     5  O   -0.538903
     6  H    0.115412
     7  H    0.102197
     8  H    0.084967
     9  H    0.084964
    10  H    0.102191
    11  H    0.115427
    12  H    0.237157
    13  H    0.237153
    14  H    0.296953
 Sum of Mulliken charges =  -0.00000
 Mulliken charges with hydrogens summed into heavy atoms:
               1
     1  C    0.000215
     2  C    0.344854
     3  C    0.000219
     4  N   -0.103339
     5  O   -0.241950
 APT charges:
               1
     1  C   -0.974524
     2  C   -0.011573
     3  C   -0.974511
     4  N   -0.992708
     5  O   -0.678864
     6  H    0.359803
     7  H    0.358296
     8  H    0.345606
     9  H    0.345616
    10  H    0.358271
    11  H    0.359805
    12  H    0.484842
    13  H    0.484805
    14  H    0.535135
 Sum of APT charges =  -0.00000
 APT charges with hydrogens summed into heavy atoms:
               1
     1  C    0.089181
     2  C   -0.011573
     3  C    0.089181
     4  N   -0.023060
     5  O   -0.143728
 Electronic spatial extent (au):  <R**2>=            429.1819
 Charge=             -0.0000 electrons
 Dipole moment (field-independent basis, Debye):
    X=              0.0003    Y=             -1.0112    Z=              0.6387  Tot=              1.1961
 Quadrupole moment (field-independent basis, Debye-Ang):
   XX=            -31.1481   YY=            -29.3882   ZZ=            -34.7912
   XY=             -0.0006   XZ=              0.0002   YZ=             -1.4109
 Traceless Quadrupole moment (field-independent basis, Debye-Ang):
   XX=              0.6277   YY=              2.3877   ZZ=             -3.0154
   XY=             -0.0006   XZ=              0.0002   YZ=             -1.4109
 Octapole moment (field-independent basis, Debye-Ang**2):
  XXX=             -0.0062  YYY=             10.3014  ZZZ=             10.3422  XYY=             -0.0001
  XXY=              5.3792  XXZ=              1.3351  XZZ=              0.0028  YZZ=             -8.5255
  YYZ=              5.0859  XYZ=             -0.0016
 Hexadecapole moment (field-independent basis, Debye-Ang**3):
 XXXX=           -207.4186 YYYY=           -171.4806 ZZZZ=           -146.5671 XXXY=             -0.0064
 XXXZ=              0.0019 YYYX=             -0.0053 YYYZ=             -3.3481 ZZZX=              0.0011
 ZZZY=             -4.3119 XXYY=            -62.4630 XXZZ=            -61.9721 YYZZ=            -60.3634
 XXYZ=             -1.3901 YYXZ=             -0.0001 ZZXY=              0.0004
 N-N= 2.001400713062D+02 E-N=-9.822850396370D+02  KE= 2.472090376172D+02
  Exact polarizability:   0.000   0.000   0.000   0.000   0.000   0.000
 Approx polarizability:  58.448  -0.002  64.154   0.001  -3.729  59.938
 No NMR shielding tensors so no spin-rotation constants.
 Leave Link  601 at Fri Sep 10 20:44:13 2021, MaxMem= 24159191040 cpu:        11.1
 (Enter /public/home/users/caep010/software/Gaussian09/g09/l701.exe)
 Compute integral second derivatives.
 ... and contract with generalized density number  0.
 Leave Link  701 at Fri Sep 10 20:44:13 2021, MaxMem= 24159191040 cpu:        12.8
 (Enter /public/home/users/caep010/software/Gaussian09/g09/l702.exe)
 L702 exits ... SP integral derivatives will be done elsewhere.
 Leave Link  702 at Fri Sep 10 20:44:13 2021, MaxMem= 24159191040 cpu:         0.5
 (Enter /public/home/users/caep010/software/Gaussian09/g09/l703.exe)
 Compute integral second derivatives, UseDBF=F ICtDFT=           0.
 Integral derivatives from FoFJK, PRISM(SPDF).
 Calling FoFJK, ICntrl=    100147 FMM=F ISym2X=0 I1Cent= 0 IOpClX= 0 NMat=1 NMatS=1 NMatT=0.
 FoFJK:  IHMeth= 1 ICntrl=  100147 DoSepK=F KAlg= 0 I1Cent=   0 FoldK=F
 IRaf=         0 NMat=   1 IRICut=       1 DoRegI=T DoRafI=F ISym2E= 0.
 FoFCou: FMM=F IPFlag=           0 FMFlag=      100000 FMFlg1=         800
         NFxFlg=           0 DoJE=F BraDBF=F KetDBF=F FulRan=T
         wScrn=  0.000000 ICntrl=  100147 IOpCl=  0 I1Cent=           0 NGrid=           0
         NMat0=    1 NMatS0=      1 NMatT0=    0 NMatD0=    1 NMtDS0=    0 NMtDT0=    0
 Symmetry not used in FoFCou.
 Leave Link  703 at Fri Sep 10 20:44:16 2021, MaxMem= 24159191040 cpu:        65.8
 (Enter /public/home/users/caep010/software/Gaussian09/g09/l716.exe)
 Dipole        = 1.10935125D-04-3.97854934D-01 2.51302985D-01
 Polarizability= 0.00000000D+00 0.00000000D+00 0.00000000D+00
                 0.00000000D+00 0.00000000D+00 0.00000000D+00
 ***** Axes restored to original set *****
 -------------------------------------------------------------------
 Center     Atomic                   Forces (Hartrees/Bohr)
 Number     Number              X              Y              Z
 -------------------------------------------------------------------
      1        6          -0.005961244   -0.004433404   -0.006648895
      2        6           0.004159868   -0.003350331   -0.020254705
      3        6           0.007992045    0.003240734   -0.005011864
      4        7           0.002216274   -0.007514792    0.016412262
      5        8          -0.013480925    0.019924367    0.022034016
      6        1          -0.002716384    0.001990123    0.011138568
      7        1           0.005296343    0.007796342   -0.003316751
      8        1           0.004534418   -0.008709017   -0.001290682
      9        1           0.005140935   -0.008379910   -0.001225054
     10        1          -0.008698617    0.000112910   -0.004936008
     11        1          -0.002197944    0.002275617    0.011177341
     12        1          -0.019365712   -0.000012504   -0.009369998
     13        1           0.011748130    0.017079162   -0.005789986
     14        1           0.011332812   -0.020019297   -0.002918244
 -------------------------------------------------------------------
 Cartesian Forces:  Max     0.022034016 RMS     0.009955710
 FormGI is forming the generalized inverse of G from B-inverse, IUseBI=4.
 Leave Link  716 at Fri Sep 10 20:44:16 2021, MaxMem= 24159191040 cpu:         0.8
 (Enter /public/home/users/caep010/software/Gaussian09/g09/l103.exe)

 GradGradGradGradGradGradGradGradGradGradGradGradGradGradGradGradGradGrad
 Berny optimization.
 Red2BG is reusing G-inverse.
 Internal  Forces:  Max     0.023159915 RMS     0.006551062
 Search for a local minimum.
 Step number   1 out of a maximum of   72
 All quantities printed in internal units (Hartrees-Bohrs-Radians)
 RMS Force = .65511D-02 SwitMx=.10000D-02 MixMth= 1
 Mixed Optimization -- RFO/linear search
 Second derivative matrix not updated -- analytic derivatives used.
 ITU=  0
     Eigenvalues ---    0.00231   0.00308   0.00351   0.00455   0.02995
     Eigenvalues ---    0.04442   0.04489   0.04519   0.04603   0.05125
     Eigenvalues ---    0.06829   0.07526   0.11984   0.12382   0.12507
     Eigenvalues ---    0.12915   0.14107   0.14536   0.14933   0.16438
     Eigenvalues ---    0.16645   0.19529   0.19534   0.26558   0.27753
     Eigenvalues ---    0.30581   0.30731   0.30759   0.30850   0.31218
     Eigenvalues ---    0.31391   0.31468   0.36877   0.37183   0.40430
     Eigenvalues ---    0.43025
 RFO step:  Lambda=-7.68890477D-03 EMin= 2.31272038D-03
 Linear search not attempted -- first point.
 Iteration  1 RMS(Cart)=  0.02548246 RMS(Int)=  0.00020607
 Iteration  2 RMS(Cart)=  0.00030196 RMS(Int)=  0.00004230
 Iteration  3 RMS(Cart)=  0.00000005 RMS(Int)=  0.00004230
 ITry= 1 IFail=0 DXMaxC= 9.04D-02 DCOld= 1.00D+10 DXMaxT= 3.00D-01 DXLimC= 3.00D+00 Rises=F
 Variable       Old X    -DE/DX   Delta X   Delta X   Delta X     New X
                                 (Linear)    (Quad)   (Total)
    R1        2.90799  -0.00090   0.00000  -0.00931  -0.00931   2.89868
    R2        2.10015  -0.01158   0.00000  -0.03583  -0.03583   2.06433
    R3        2.09947  -0.00998   0.00000  -0.03160  -0.03160   2.06788
    R4        2.09992  -0.00990   0.00000  -0.03048  -0.03048   2.06944
    R5        2.90792  -0.00088   0.00000  -0.00923  -0.00923   2.89868
    R6        2.76895  -0.01102   0.00000  -0.03768  -0.03768   2.73127
    R7        2.66248   0.01915   0.00000   0.06243   0.06243   2.72491
    R8        2.09993  -0.00990   0.00000  -0.03049  -0.03049   2.06944
    R9        2.09951  -0.00999   0.00000  -0.03164  -0.03164   2.06787
   R10        2.10008  -0.01156   0.00000  -0.03575  -0.03575   2.06433
   R11        1.97774  -0.02142   0.00000  -0.05724  -0.05724   1.92050
   R12        1.97776  -0.02143   0.00000  -0.05727  -0.05727   1.92049
   R13        1.87729  -0.02316   0.00000  -0.05300  -0.05300   1.82429
    A1        1.92710   0.00156   0.00000   0.00681   0.00680   1.93391
    A2        1.92295   0.00016   0.00000  -0.00296  -0.00296   1.91999
    A3        1.93174  -0.00002   0.00000   0.00155   0.00154   1.93328
    A4        1.89501  -0.00050   0.00000   0.00295   0.00295   1.89795
    A5        1.89617  -0.00077   0.00000  -0.00353  -0.00354   1.89262
    A6        1.88996  -0.00050   0.00000  -0.00502  -0.00502   1.88494
    A7        1.91736   0.00264   0.00000   0.02887   0.02885   1.94621
    A8        1.90268  -0.00122   0.00000   0.00015  -0.00005   1.90263
    A9        1.91916   0.00006   0.00000  -0.00733  -0.00734   1.91182
   A10        1.90266  -0.00122   0.00000   0.00017  -0.00003   1.90263
   A11        1.91921   0.00006   0.00000  -0.00737  -0.00738   1.91183
   A12        1.90252  -0.00037   0.00000  -0.01472  -0.01477   1.88775
   A13        1.93179  -0.00003   0.00000   0.00151   0.00150   1.93329
   A14        1.92290   0.00017   0.00000  -0.00291  -0.00291   1.91999
   A15        1.92709   0.00156   0.00000   0.00682   0.00681   1.93390
   A16        1.88992  -0.00050   0.00000  -0.00498  -0.00498   1.88493
   A17        1.89622  -0.00077   0.00000  -0.00359  -0.00359   1.89263
   A18        1.89500  -0.00050   0.00000   0.00295   0.00295   1.89795
   A19        1.89875  -0.00181   0.00000  -0.00174  -0.00174   1.89700
   A20        1.89867  -0.00179   0.00000  -0.00167  -0.00167   1.89700
   A21        1.85280  -0.00016   0.00000  -0.00242  -0.00243   1.85037
   A22        1.88326   0.00183   0.00000   0.00546   0.00546   1.88873
    D1        1.08358  -0.00104   0.00000  -0.00609  -0.00605   1.07753
    D2       -1.00028  -0.00040   0.00000  -0.02368  -0.02372  -1.02400
    D3       -3.08506   0.00077   0.00000  -0.00139  -0.00139  -3.08645
    D4       -3.10648  -0.00056   0.00000   0.00003   0.00007  -3.10641
    D5        1.09284   0.00009   0.00000  -0.01757  -0.01760   1.07524
    D6       -0.99194   0.00125   0.00000   0.00473   0.00473  -0.98721
    D7       -1.01667  -0.00109   0.00000  -0.00713  -0.00710  -1.02377
    D8       -3.10054  -0.00044   0.00000  -0.02473  -0.02477  -3.12530
    D9        1.09787   0.00072   0.00000  -0.00243  -0.00244   1.09543
   D10        1.01672   0.00109   0.00000   0.00710   0.00706   1.02378
   D11        3.10648   0.00056   0.00000  -0.00002  -0.00006   3.10642
   D12       -1.08363   0.00105   0.00000   0.00614   0.00610  -1.07753
   D13        3.10060   0.00044   0.00000   0.02468   0.02471   3.12532
   D14       -1.09283  -0.00009   0.00000   0.01756   0.01760  -1.07523
   D15        1.00025   0.00040   0.00000   0.02372   0.02375   1.02400
   D16       -1.09779  -0.00073   0.00000   0.00237   0.00237  -1.09542
   D17        0.99196  -0.00125   0.00000  -0.00475  -0.00474   0.98722
   D18        3.08504  -0.00077   0.00000   0.00141   0.00141   3.08645
   D19       -3.10060   0.00194   0.00000   0.01995   0.01991  -3.08070
   D20       -1.08950  -0.00018   0.00000   0.01526   0.01521  -1.07428
   D21        1.08961   0.00018   0.00000  -0.01529  -0.01525   1.07436
   D22        3.10071  -0.00194   0.00000  -0.01999  -0.01994   3.08077
   D23       -1.00552   0.00106   0.00000   0.00235   0.00235  -1.00317
   D24        1.00559  -0.00106   0.00000  -0.00235  -0.00234   1.00324
   D25       -1.05683  -0.00168   0.00000  -0.01320  -0.01316  -1.06999
   D26        1.05660   0.00168   0.00000   0.01324   0.01320   1.06981
   D27        3.14148   0.00000   0.00000   0.00002   0.00003   3.14150
         Item               Value     Threshold  Converged?
 Maximum Force            0.023160     0.000450     NO 
 RMS     Force            0.006551     0.000300     NO 
 Maximum Displacement     0.090402     0.001800     NO 
 RMS     Displacement     0.025436     0.001200     NO 
 Predicted change in Energy=-3.950192D-03
 Lowest energy point so far.  Saving SCF results.
 GradGradGradGradGradGradGradGradGradGradGradGradGradGradGradGradGradGrad

 Leave Link  103 at Fri Sep 10 20:44:16 2021, MaxMem= 24159191040 cpu:         3.0
 (Enter /public/home/users/caep010/software/Gaussian09/g09/l202.exe)
                          Input orientation:                          
 ---------------------------------------------------------------------
 Center     Atomic      Atomic             Coordinates (Angstroms)
 Number     Number       Type             X           Y           Z
 ---------------------------------------------------------------------
      1          6           0       -1.291683   -0.180528   -0.549191
      2          6           0        0.056398   -0.140754    0.181559
      3          6           0        0.919657    1.034487   -0.294358
      4          7           0        0.763918   -1.376094   -0.068063
      5          8           0       -0.167908   -0.030373    1.601684
      6          1           0       -1.147015   -0.320142   -1.622925
      7          1           0       -1.900902   -1.004964   -0.166318
      8          1           0       -1.845909    0.750893   -0.392574
      9          1           0        0.402563    1.986311   -0.133455
     10          1           0        1.858651    1.060704    0.266922
     11          1           0        1.149146    0.941477   -1.358320
     12          1           0        1.629522   -1.368953    0.464395
     13          1           0        0.213874   -2.146761    0.301197
     14          1           0       -0.640411    0.794597    1.769347
 ---------------------------------------------------------------------
                    Distance matrix (angstroms):
                    1          2          3          4          5
     1  C    0.000000
     2  C    1.533916   0.000000
     3  C    2.535986   1.533918   0.000000
     4  N    2.426181   1.445324   2.426184   0.000000
     5  O    2.431395   1.441962   2.431399   2.338230   0.000000
     6  H    1.092394   2.176360   2.805573   2.680354   3.382413
     7  H    1.094273   2.167695   3.483003   2.692333   2.660625
     8  H    1.095099   2.177943   2.781803   3.382393   2.720869
     9  H    2.781816   2.177950   1.095100   3.382399   2.720875
    10  H    3.483001   2.167695   1.094272   2.692330   2.660635
    11  H    2.805571   2.176361   1.092397   2.680354   3.382417
    12  H    3.312574   2.015735   2.618423   1.016284   2.513160
    13  H    2.618384   2.015733   3.312576   1.016282   2.513190
    14  H    2.598200   1.970151   2.598123   3.171768   0.965373
                    6          7          8          9         10
     6  H    0.000000
     7  H    1.777366   0.000000
     8  H    1.774636   1.771228   0.000000
     9  H    3.152687   3.775547   2.578571   0.000000
    10  H    3.809499   4.311487   3.775537   1.771225   0.000000
    11  H    2.633259   3.809500   3.152672   1.774643   1.777364
    12  H    3.628508   3.604744   4.160140   3.622243   2.448413
    13  H    2.981745   2.448377   3.622213   4.160146   3.604761
    14  H    3.606494   2.928149   2.475690   2.475608   2.928037
                   11         12         13         14
    11  H    0.000000
    12  H    2.981801   0.000000
    13  H    3.628491   1.623477   0.000000
    14  H    3.606437   3.396533   3.396595   0.000000
 Stoichiometry    C3H9NO
 Framework group  C1[X(C3H9NO)]
 Deg. of freedom    36
 Full point group                 C1      NOp   1
 RotChk:  IX=0 Diff= 9.28D-02
 Largest Abelian subgroup         C1      NOp   1
 Largest concise Abelian subgroup C1      NOp   1
                         Standard orientation:                         
 ---------------------------------------------------------------------
 Center     Atomic      Atomic             Coordinates (Angstroms)
 Number     Number       Type             X           Y           Z
 ---------------------------------------------------------------------
      1          6           0        1.267968   -0.763238   -0.355104
      2          6           0        0.000002    0.026566   -0.006722
      3          6           0       -1.268018   -0.763130   -0.355162
      4          7           0        0.000073    1.267781   -0.747226
      5          8           0       -0.000014    0.342600    1.400181
      6          1           0        1.316622   -0.965659   -1.427476
      7          1           0        2.155737   -0.193452   -0.064166
      8          1           0        1.289201   -1.718962    0.179109
      9          1           0       -1.289370   -1.718849    0.179056
     10          1           0       -2.155750   -0.193262   -0.064275
     11          1           0       -1.316636   -0.965546   -1.427540
     12          1           0       -0.811629    1.812671   -0.469617
     13          1           0        0.811848    1.812567   -0.469632
     14          1           0       -0.000144   -0.485958    1.895597
 ---------------------------------------------------------------------
 Rotational constants (GHZ):      4.8844629      4.7460196      4.6264619
 Leave Link  202 at Fri Sep 10 20:44:16 2021, MaxMem= 24159191040 cpu:         0.2
 (Enter /public/home/users/caep010/software/Gaussian09/g09/l301.exe)
 Standard basis: 6-31G(d,p) (6D, 7F)
 Ernie: Thresh=  0.10000D-02 Tol=  0.10000D-05 Strict=F.
 There are   120 symmetry adapted cartesian basis functions of A   symmetry.
 There are   120 symmetry adapted basis functions of A   symmetry.
   120 basis functions,   203 primitive gaussians,   120 cartesian basis functions
    21 alpha electrons       21 beta electrons
       nuclear repulsion energy       200.8937139993 Hartrees.
 IExCor=  402 DFT=T Ex+Corr=B3LYP ExCW=0 ScaHFX=  0.200000
 ScaDFX=  0.800000  0.720000  1.000000  0.810000 ScalE2=  1.000000  1.000000
 IRadAn=      0 IRanWt=     -1 IRanGd=            0 ICorTp=0 IEmpDi=  4
 NAtoms=   14 NActive=   14 NUniq=   14 SFac= 1.00D+00 NAtFMM=   60 NAOKFM=F Big=F
 Integral buffers will be    131072 words long.
 Raffenetti 2 integral format.
 Two-electron integral symmetry is turned on.
 Leave Link  301 at Fri Sep 10 20:44:16 2021, MaxMem= 24159191040 cpu:         1.6
 (Enter /public/home/users/caep010/software/Gaussian09/g09/l302.exe)
 NPDir=0 NMtPBC=     1 NCelOv=     1 NCel=       1 NClECP=     1 NCelD=      1
         NCelK=      1 NCelE2=     1 NClLst=     1 CellRange=     0.0.
 One-electron integrals computed using PRISM.
 NBasis=   120 RedAO= T EigKep=  2.97D-03  NBF=   120
 NBsUse=   120 1.00D-06 EigRej= -1.00D+00 NBFU=   120
 Precomputing XC quadrature grid using
 IXCGrd= 4 IRadAn=           0 IRanWt=          -1 IRanGd=           0 AccXCQ= 0.00D+00.
 Generated NRdTot=       0 NPtTot=           0 NUsed=           0 NTot=          32
 NSgBfM=   120   120   120   120   120 MxSgAt=    14 MxSgA2=    14.
 Leave Link  302 at Fri Sep 10 20:44:16 2021, MaxMem= 24159191040 cpu:        11.3
 (Enter /public/home/users/caep010/software/Gaussian09/g09/l303.exe)
 DipDrv:  MaxL=1.
 Leave Link  303 at Fri Sep 10 20:44:16 2021, MaxMem= 24159191040 cpu:         0.7
 (Enter /public/home/users/caep010/software/Gaussian09/g09/l401.exe)
 Initial guess from the checkpoint file:  "/public/home/users/caep010/.cache/gau_scr/Gau-160560.chk"
 B after Tr=    -0.000000    0.000000    0.000000
         Rot=    0.999499    0.031661    0.000023    0.000225 Ang=   3.63 deg.
 Guess basis will be translated and rotated to current coordinates.
 JPrj=2 DoOrth=T DoCkMO=T.
 Generating alternative initial guess.
 ExpMin= 1.61D-01 ExpMax= 5.48D+03 ExpMxC= 8.25D+02 IAcc=1 IRadAn=         1 AccDes= 0.00D+00
 Harris functional with IExCor=  402 and IRadAn=       1 diagonalized for initial guess.
 HarFok:  IExCor=  402 AccDes= 0.00D+00 IRadAn=         1 IDoV= 1 UseB2=F ITyADJ=14
 ICtDFT=  3500011 ScaDFX=  1.000000  1.000000  1.000000  1.000000
 FoFCou: FMM=F IPFlag=           0 FMFlag=      100000 FMFlg1=           0
         NFxFlg=           0 DoJE=T BraDBF=F KetDBF=T FulRan=T
         wScrn=  0.000000 ICntrl=     500 IOpCl=  0 I1Cent=   200000004 NGrid=           0
         NMat0=    1 NMatS0=      1 NMatT0=    0 NMatD0=    1 NMtDS0=    0 NMtDT0=    0
 Petite list used in FoFCou.
 Harris En= -249.784049209097    
 Leave Link  401 at Fri Sep 10 20:44:17 2021, MaxMem= 24159191040 cpu:        11.3
 (Enter /public/home/users/caep010/software/Gaussian09/g09/l502.exe)
 Closed shell SCF:
 Using DIIS extrapolation, IDIIS=  1040.
 Integral symmetry usage will be decided dynamically.
 Keep R1 ints in memory in canonical form, NReq=27368019.
 IVT=       66505 IEndB=       66505 NGot= 24159191040 MDV= 24132767106
 LenX= 24132767106 LenY= 24132752265
 Requested convergence on RMS density matrix=1.00D-08 within 128 cycles.
 Requested convergence on MAX density matrix=1.00D-06.
 Requested convergence on             energy=1.00D-06.
 No special actions if energy rises.
 FoFCou: FMM=F IPFlag=           0 FMFlag=           0 FMFlg1=           0
         NFxFlg=           0 DoJE=F BraDBF=F KetDBF=F FulRan=T
         wScrn=  0.000000 ICntrl=     600 IOpCl=  0 I1Cent=           0 NGrid=           0
         NMat0=    1 NMatS0=   7260 NMatT0=    0 NMatD0=    1 NMtDS0=    0 NMtDT0=    0
 Symmetry not used in FoFCou.
 Integral accuracy reduced to 1.0D-05 until final iterations.

 Cycle   1  Pass 0  IDiag  1:
 E= -249.726231964423    
 DIIS: error= 2.36D-03 at cycle   1 NSaved=   1.
 NSaved= 1 IEnMin= 1 EnMin= -249.726231964423     IErMin= 1 ErrMin= 2.36D-03
 ErrMax= 2.36D-03  0.00D+00 EMaxC= 1.00D-01 BMatC= 1.22D-03 BMatP= 1.22D-03
 IDIUse=3 WtCom= 9.76D-01 WtEn= 2.36D-02
 Coeff-Com:  0.100D+01
 Coeff-En:   0.100D+01
 Coeff:      0.100D+01
 Gap=     1.662 Goal=   None    Shift=    0.000
 GapD=    1.662 DampG=2.000 DampE=1.000 DampFc=2.0000 IDamp=-1.
 RMSDP=4.58D-04 MaxDP=9.68D-03              OVMax= 1.31D-02

 Cycle   2  Pass 0  IDiag  1:
 E= -249.727628359147     Delta-E=       -0.001396394724 Rises=F Damp=F
 DIIS: error= 1.69D-03 at cycle   2 NSaved=   2.
 NSaved= 2 IEnMin= 2 EnMin= -249.727628359147     IErMin= 2 ErrMin= 1.69D-03
 ErrMax= 1.69D-03  0.00D+00 EMaxC= 1.00D-01 BMatC= 3.20D-04 BMatP= 1.22D-03
 IDIUse=3 WtCom= 9.83D-01 WtEn= 1.69D-02
 Coeff-Com:  0.268D+00 0.732D+00
 Coeff-En:   0.000D+00 0.100D+01
 Coeff:      0.263D+00 0.737D+00
 Gap=     0.313 Goal=   None    Shift=    0.000
 RMSDP=2.02D-04 MaxDP=6.26D-03 DE=-1.40D-03 OVMax= 5.99D-03

 Cycle   3  Pass 0  IDiag  1:
 E= -249.727784940636     Delta-E=       -0.000156581489 Rises=F Damp=F
 DIIS: error= 1.16D-03 at cycle   3 NSaved=   3.
 NSaved= 3 IEnMin= 3 EnMin= -249.727784940636     IErMin= 3 ErrMin= 1.16D-03
 ErrMax= 1.16D-03  0.00D+00 EMaxC= 1.00D-01 BMatC= 1.52D-04 BMatP= 3.20D-04
 IDIUse=3 WtCom= 9.88D-01 WtEn= 1.16D-02
 Coeff-Com: -0.510D-02 0.405D+00 0.600D+00
 Coeff-En:   0.000D+00 0.321D+00 0.679D+00
 Coeff:     -0.504D-02 0.404D+00 0.601D+00
 Gap=     0.317 Goal=   None    Shift=    0.000
 RMSDP=9.10D-05 MaxDP=2.93D-03 DE=-1.57D-04 OVMax= 3.02D-03

 Cycle   4  Pass 0  IDiag  1:
 E= -249.727914354915     Delta-E=       -0.000129414279 Rises=F Damp=F
 DIIS: error= 1.35D-04 at cycle   4 NSaved=   4.
 NSaved= 4 IEnMin= 4 EnMin= -249.727914354915     IErMin= 4 ErrMin= 1.35D-04
 ErrMax= 1.35D-04  0.00D+00 EMaxC= 1.00D-01 BMatC= 3.89D-06 BMatP= 1.52D-04
 IDIUse=3 WtCom= 9.99D-01 WtEn= 1.35D-03
 Coeff-Com: -0.850D-02 0.157D+00 0.266D+00 0.586D+00
 Coeff-En:   0.000D+00 0.000D+00 0.000D+00 0.100D+01
 Coeff:     -0.849D-02 0.156D+00 0.266D+00 0.587D+00
 Gap=     0.316 Goal=   None    Shift=    0.000
 RMSDP=1.96D-05 MaxDP=3.81D-04 DE=-1.29D-04 OVMax= 4.96D-04

 Cycle   5  Pass 0  IDiag  1:
 E= -249.727917207396     Delta-E=       -0.000002852481 Rises=F Damp=F
 DIIS: error= 5.12D-05 at cycle   5 NSaved=   5.
 NSaved= 5 IEnMin= 5 EnMin= -249.727917207396     IErMin= 5 ErrMin= 5.12D-05
 ErrMax= 5.12D-05  0.00D+00 EMaxC= 1.00D-01 BMatC= 5.53D-07 BMatP= 3.89D-06
 IDIUse=1 WtCom= 1.00D+00 WtEn= 0.00D+00
 Coeff-Com: -0.463D-02 0.399D-01 0.775D-01 0.308D+00 0.580D+00
 Coeff:     -0.463D-02 0.399D-01 0.775D-01 0.308D+00 0.580D+00
 Gap=     0.316 Goal=   None    Shift=    0.000
 RMSDP=5.27D-06 MaxDP=1.53D-04 DE=-2.85D-06 OVMax= 1.50D-04

 Initial convergence to 1.0D-05 achieved.  Increase integral accuracy.
 Cycle   6  Pass 1  IDiag  1:
 E= -249.728004751956     Delta-E=       -0.000087544560 Rises=F Damp=F
 DIIS: error= 1.13D-05 at cycle   1 NSaved=   1.
 NSaved= 1 IEnMin= 1 EnMin= -249.728004751956     IErMin= 1 ErrMin= 1.13D-05
 ErrMax= 1.13D-05  0.00D+00 EMaxC= 1.00D-01 BMatC= 4.22D-08 BMatP= 4.22D-08
 IDIUse=1 WtCom= 1.00D+00 WtEn= 0.00D+00
 Coeff-Com:  0.100D+01
 Coeff:      0.100D+01
 Gap=     0.316 Goal=   None    Shift=    0.000
 RMSDP=5.27D-06 MaxDP=1.53D-04 DE=-8.75D-05 OVMax= 5.87D-05

 Cycle   7  Pass 1  IDiag  1:
 E= -249.728004770050     Delta-E=       -0.000000018094 Rises=F Damp=F
 DIIS: error= 1.61D-05 at cycle   2 NSaved=   2.
 NSaved= 2 IEnMin= 2 EnMin= -249.728004770050     IErMin= 1 ErrMin= 1.13D-05
 ErrMax= 1.61D-05  0.00D+00 EMaxC= 1.00D-01 BMatC= 3.30D-08 BMatP= 4.22D-08
 IDIUse=1 WtCom= 1.00D+00 WtEn= 0.00D+00
 Coeff-Com:  0.461D+00 0.539D+00
 Coeff:      0.461D+00 0.539D+00
 Gap=     0.316 Goal=   None    Shift=    0.000
 RMSDP=1.57D-06 MaxDP=4.57D-05 DE=-1.81D-08 OVMax= 4.47D-05

 Cycle   8  Pass 1  IDiag  1:
 E= -249.728004790811     Delta-E=       -0.000000020761 Rises=F Damp=F
 DIIS: error= 6.40D-06 at cycle   3 NSaved=   3.
 NSaved= 3 IEnMin= 3 EnMin= -249.728004790811     IErMin= 3 ErrMin= 6.40D-06
 ErrMax= 6.40D-06  0.00D+00 EMaxC= 1.00D-01 BMatC= 4.78D-09 BMatP= 3.30D-08
 IDIUse=1 WtCom= 1.00D+00 WtEn= 0.00D+00
 Coeff-Com: -0.774D-02 0.271D+00 0.736D+00
 Coeff:     -0.774D-02 0.271D+00 0.736D+00
 Gap=     0.316 Goal=   None    Shift=    0.000
 RMSDP=4.80D-07 MaxDP=1.40D-05 DE=-2.08D-08 OVMax= 1.46D-05

 Cycle   9  Pass 1  IDiag  1:
 E= -249.728004794185     Delta-E=       -0.000000003374 Rises=F Damp=F
 DIIS: error= 7.53D-07 at cycle   4 NSaved=   4.
 NSaved= 4 IEnMin= 4 EnMin= -249.728004794185     IErMin= 4 ErrMin= 7.53D-07
 ErrMax= 7.53D-07  0.00D+00 EMaxC= 1.00D-01 BMatC= 1.17D-10 BMatP= 4.78D-09
 IDIUse=1 WtCom= 1.00D+00 WtEn= 0.00D+00
 Coeff-Com: -0.116D-01 0.117D+00 0.343D+00 0.551D+00
 Coeff:     -0.116D-01 0.117D+00 0.343D+00 0.551D+00
 Gap=     0.316 Goal=   None    Shift=    0.000
 RMSDP=1.09D-07 MaxDP=2.62D-06 DE=-3.37D-09 OVMax= 3.11D-06

 Cycle  10  Pass 1  IDiag  1:
 E= -249.728004794280     Delta-E=       -0.000000000095 Rises=F Damp=F
 DIIS: error= 3.21D-07 at cycle   5 NSaved=   5.
 NSaved= 5 IEnMin= 5 EnMin= -249.728004794280     IErMin= 5 ErrMin= 3.21D-07
 ErrMax= 3.21D-07  0.00D+00 EMaxC= 1.00D-01 BMatC= 1.25D-11 BMatP= 1.17D-10
 IDIUse=1 WtCom= 1.00D+00 WtEn= 0.00D+00
 Coeff-Com: -0.514D-02 0.367D-01 0.110D+00 0.288D+00 0.570D+00
 Coeff:     -0.514D-02 0.367D-01 0.110D+00 0.288D+00 0.570D+00
 Gap=     0.316 Goal=   None    Shift=    0.000
 RMSDP=2.53D-08 MaxDP=9.45D-07 DE=-9.49D-11 OVMax= 9.20D-07

 Cycle  11  Pass 1  IDiag  1:
 E= -249.728004794289     Delta-E=       -0.000000000009 Rises=F Damp=F
 DIIS: error= 2.96D-08 at cycle   6 NSaved=   6.
 NSaved= 6 IEnMin= 6 EnMin= -249.728004794289     IErMin= 6 ErrMin= 2.96D-08
 ErrMax= 2.96D-08  0.00D+00 EMaxC= 1.00D-01 BMatC= 1.67D-13 BMatP= 1.25D-11
 IDIUse=1 WtCom= 1.00D+00 WtEn= 0.00D+00
 Coeff-Com: -0.624D-03 0.287D-02 0.801D-02 0.462D-01 0.151D+00 0.793D+00
 Coeff:     -0.624D-03 0.287D-02 0.801D-02 0.462D-01 0.151D+00 0.793D+00
 Gap=     0.316 Goal=   None    Shift=    0.000
 RMSDP=4.37D-09 MaxDP=6.56D-08 DE=-9.21D-12 OVMax= 8.73D-08

 SCF Done:  E(RB3LYP) =  -249.728004794     A.U. after   11 cycles
            NFock= 11  Conv=0.44D-08     -V/T= 2.0091
 KE= 2.474679110480D+02 PE=-9.839782983074D+02 EE= 2.858886684659D+02
 Leave Link  502 at Fri Sep 10 20:44:18 2021, MaxMem= 24159191040 cpu:        30.8
 (Enter /public/home/users/caep010/software/Gaussian09/g09/l701.exe)
 Compute integral first derivatives.
 ... and contract with generalized density number  0.
 Leave Link  701 at Fri Sep 10 20:44:19 2021, MaxMem= 24159191040 cpu:        11.0
 (Enter /public/home/users/caep010/software/Gaussian09/g09/l702.exe)
 L702 exits ... SP integral derivatives will be done elsewhere.
 Leave Link  702 at Fri Sep 10 20:44:19 2021, MaxMem= 24159191040 cpu:         0.5
 (Enter /public/home/users/caep010/software/Gaussian09/g09/l703.exe)
 Compute integral first derivatives, UseDBF=F ICtDFT=           0.
 Integral derivatives from FoFJK, PRISM(SPDF).
 Calling FoFJK, ICntrl=      2127 FMM=F ISym2X=0 I1Cent= 0 IOpClX= 0 NMat=1 NMatS=1 NMatT=0.
 FoFJK:  IHMeth= 1 ICntrl=    2127 DoSepK=F KAlg= 0 I1Cent=   0 FoldK=F
 IRaf=         0 NMat=   1 IRICut=       1 DoRegI=T DoRafI=F ISym2E= 0.
 FoFCou: FMM=F IPFlag=           0 FMFlag=      100000 FMFlg1=         800
         NFxFlg=           0 DoJE=F BraDBF=F KetDBF=F FulRan=T
         wScrn=  0.000000 ICntrl=    2127 IOpCl=  0 I1Cent=           0 NGrid=           0
         NMat0=    1 NMatS0=      1 NMatT0=    0 NMatD0=    1 NMtDS0=    0 NMtDT0=    0
 Symmetry not used in FoFCou.
 Leave Link  703 at Fri Sep 10 20:44:19 2021, MaxMem= 24159191040 cpu:        11.2
 (Enter /public/home/users/caep010/software/Gaussian09/g09/l716.exe)
 Dipole        =-5.51844541D-05-3.90047493D-01 2.25346340D-01
 ***** Axes restored to original set *****
 -------------------------------------------------------------------
 Center     Atomic                   Forces (Hartrees/Bohr)
 Number     Number              X              Y              Z
 -------------------------------------------------------------------
      1        6           0.000163659   -0.000247755    0.000205547
      2        6           0.000045249    0.000532014   -0.002926961
      3        6           0.000086377   -0.000291341    0.000195448
      4        7          -0.000415191    0.001016812   -0.001232663
      5        8           0.000687330   -0.001661323    0.001961885
      6        1          -0.000005533    0.000083048   -0.000369909
      7        1          -0.000121802   -0.000198620    0.000092193
      8        1          -0.000197968    0.000121125    0.000146764
      9        1          -0.000024286    0.000216162    0.000166144
     10        1           0.000214094   -0.000014766    0.000131256
     11        1          -0.000002574    0.000085838   -0.000367516
     12        1           0.001595703   -0.000007654    0.000939528
     13        1          -0.000989910   -0.001429615    0.000642494
     14        1          -0.001035148    0.001796075    0.000415790
 -------------------------------------------------------------------
 Cartesian Forces:  Max     0.002926961 RMS     0.000856609
 Leave Link  716 at Fri Sep 10 20:44:19 2021, MaxMem= 24159191040 cpu:         0.6
 (Enter /public/home/users/caep010/software/Gaussian09/g09/l103.exe)

 GradGradGradGradGradGradGradGradGradGradGradGradGradGradGradGradGradGrad
 Berny optimization.
 Using GEDIIS/GDIIS optimizer.
 FormGI is forming the generalized inverse of G from B-inverse, IUseBI=4.
 Internal  Forces:  Max     0.002403647 RMS     0.000543166
 Search for a local minimum.
 Step number   2 out of a maximum of   72
 All quantities printed in internal units (Hartrees-Bohrs-Radians)
 RMS Force = .54317D-03 SwitMx=.10000D-02 MixMth= 2
 Mixed Optimization -- En-DIIS/RFO-DIIS
 Update second derivatives using D2CorX and points    1    2
 DE= -3.84D-03 DEPred=-3.95D-03 R= 9.71D-01
 TightC=F SS=  1.41D+00  RLast= 1.66D-01 DXNew= 5.0454D-01 4.9753D-01
 Trust test= 9.71D-01 RLast= 1.66D-01 DXMaxT set to 4.98D-01
 ITU=  1  0
 Use linear search instead of GDIIS.
     Eigenvalues ---    0.00231   0.00308   0.00351   0.00455   0.02995
     Eigenvalues ---    0.04442   0.04489   0.04516   0.04603   0.05110
     Eigenvalues ---    0.06808   0.07524   0.11983   0.12382   0.12507
     Eigenvalues ---    0.12905   0.14107   0.14524   0.14929   0.16437
     Eigenvalues ---    0.16639   0.19526   0.19534   0.26558   0.27747
     Eigenvalues ---    0.30422   0.30581   0.30759   0.30804   0.31024
     Eigenvalues ---    0.31391   0.31695   0.37183   0.38341   0.40129
     Eigenvalues ---    0.44805
 RFO step:  Lambda=-7.22636907D-05 EMin= 2.31272035D-03
 Quartic linear search produced a step of -0.02300.
 Iteration  1 RMS(Cart)=  0.01022475 RMS(Int)=  0.00006898
 Iteration  2 RMS(Cart)=  0.00007315 RMS(Int)=  0.00000143
 Iteration  3 RMS(Cart)=  0.00000000 RMS(Int)=  0.00000143
 ITry= 1 IFail=0 DXMaxC= 2.40D-02 DCOld= 1.00D+10 DXMaxT= 4.98D-01 DXLimC= 3.00D+00 Rises=F
 Variable       Old X    -DE/DX   Delta X   Delta X   Delta X     New X
                                 (Linear)    (Quad)   (Total)
    R1        2.89868   0.00011   0.00021  -0.00140  -0.00119   2.89749
    R2        2.06433   0.00035   0.00082   0.00009   0.00091   2.06524
    R3        2.06788   0.00025   0.00073  -0.00033   0.00040   2.06827
    R4        2.06944   0.00022   0.00070  -0.00020   0.00050   2.06994
    R5        2.89868   0.00011   0.00021  -0.00140  -0.00119   2.89750
    R6        2.73127   0.00039   0.00087  -0.00059   0.00027   2.73154
    R7        2.72491   0.00240  -0.00144   0.00984   0.00840   2.73331
    R8        2.06944   0.00022   0.00070  -0.00020   0.00050   2.06994
    R9        2.06787   0.00025   0.00073  -0.00033   0.00040   2.06827
   R10        2.06433   0.00035   0.00082   0.00008   0.00091   2.06524
   R11        1.92050   0.00185   0.00132   0.00321   0.00453   1.92503
   R12        1.92049   0.00186   0.00132   0.00322   0.00454   1.92503
   R13        1.82429   0.00212   0.00122   0.00335   0.00457   1.82886
    A1        1.93391   0.00010  -0.00016   0.00178   0.00163   1.93553
    A2        1.91999  -0.00005   0.00007  -0.00044  -0.00038   1.91961
    A3        1.93328   0.00001  -0.00004  -0.00035  -0.00038   1.93290
    A4        1.89795   0.00001  -0.00007   0.00049   0.00043   1.89838
    A5        1.89262  -0.00004   0.00008  -0.00035  -0.00026   1.89236
    A6        1.88494  -0.00004   0.00012  -0.00120  -0.00108   1.88386
    A7        1.94621   0.00030  -0.00066   0.00551   0.00484   1.95105
    A8        1.90263  -0.00004   0.00000   0.00090   0.00089   1.90352
    A9        1.91182  -0.00007   0.00017  -0.00206  -0.00189   1.90994
   A10        1.90263  -0.00004   0.00000   0.00090   0.00089   1.90352
   A11        1.91183  -0.00007   0.00017  -0.00206  -0.00189   1.90994
   A12        1.88775  -0.00009   0.00034  -0.00343  -0.00308   1.88466
   A13        1.93329   0.00001  -0.00003  -0.00036  -0.00039   1.93290
   A14        1.91999  -0.00005   0.00007  -0.00044  -0.00037   1.91961
   A15        1.93390   0.00010  -0.00016   0.00179   0.00163   1.93553
   A16        1.88493  -0.00004   0.00011  -0.00119  -0.00108   1.88386
   A17        1.89263  -0.00004   0.00008  -0.00036  -0.00027   1.89236
   A18        1.89795   0.00001  -0.00007   0.00050   0.00043   1.89838
   A19        1.89700   0.00005   0.00004  -0.00069  -0.00065   1.89635
   A20        1.89700   0.00005   0.00004  -0.00069  -0.00065   1.89635
   A21        1.85037  -0.00002   0.00006  -0.00112  -0.00106   1.84931
   A22        1.88873   0.00008  -0.00013  -0.00101  -0.00114   1.88759
    D1        1.07753  -0.00004   0.00014  -0.01627  -0.01613   1.06141
    D2       -1.02400  -0.00017   0.00055  -0.02145  -0.02091  -1.04491
    D3       -3.08645   0.00001   0.00003  -0.01664  -0.01661  -3.10306
    D4       -3.10641   0.00000  -0.00000  -0.01479  -0.01479  -3.12121
    D5        1.07524  -0.00012   0.00040  -0.01998  -0.01958   1.05566
    D6       -0.98721   0.00006  -0.00011  -0.01517  -0.01528  -1.00249
    D7       -1.02377  -0.00007   0.00016  -0.01678  -0.01662  -1.04039
    D8       -3.12530  -0.00020   0.00057  -0.02197  -0.02140   3.13648
    D9        1.09543  -0.00002   0.00006  -0.01716  -0.01710   1.07833
   D10        1.02378   0.00007  -0.00016   0.01676   0.01659   1.04038
   D11        3.10642  -0.00000   0.00000   0.01477   0.01477   3.12120
   D12       -1.07753   0.00004  -0.00014   0.01626   0.01612  -1.06141
   D13        3.12532   0.00020  -0.00057   0.02195   0.02138  -3.13649
   D14       -1.07523   0.00012  -0.00040   0.01996   0.01956  -1.05567
   D15        1.02400   0.00017  -0.00055   0.02145   0.02090   1.04490
   D16       -1.09542   0.00002  -0.00005   0.01713   0.01708  -1.07834
   D17        0.98722  -0.00006   0.00011   0.01515   0.01526   1.00248
   D18        3.08645  -0.00001  -0.00003   0.01663   0.01660   3.10305
   D19       -3.08070   0.00015  -0.00046   0.00492   0.00446  -3.07624
   D20       -1.07428   0.00018  -0.00035   0.00287   0.00252  -1.07177
   D21        1.07436  -0.00018   0.00035  -0.00295  -0.00260   1.07176
   D22        3.08077  -0.00015   0.00046  -0.00500  -0.00455   3.07623
   D23       -1.00317  -0.00002  -0.00005   0.00098   0.00093  -1.00224
   D24        1.00324   0.00002   0.00005  -0.00107  -0.00101   1.00223
   D25       -1.06999  -0.00014   0.00030  -0.00199  -0.00169  -1.07168
   D26        1.06981   0.00014  -0.00030   0.00218   0.00188   1.07168
   D27        3.14150   0.00000  -0.00000   0.00009   0.00009  -3.14159
         Item               Value     Threshold  Converged?
 Maximum Force            0.002404     0.000450     NO 
 RMS     Force            0.000543     0.000300     NO 
 Maximum Displacement     0.024045     0.001800     NO 
 RMS     Displacement     0.010227     0.001200     NO 
 Predicted change in Energy=-3.696885D-05
 Lowest energy point so far.  Saving SCF results.
 GradGradGradGradGradGradGradGradGradGradGradGradGradGradGradGradGradGrad

 Leave Link  103 at Fri Sep 10 20:44:19 2021, MaxMem= 24159191040 cpu:         1.9
 (Enter /public/home/users/caep010/software/Gaussian09/g09/l202.exe)
                          Input orientation:                          
 ---------------------------------------------------------------------
 Center     Atomic      Atomic             Coordinates (Angstroms)
 Number     Number       Type             X           Y           Z
 ---------------------------------------------------------------------
      1          6           0       -1.291920   -0.182862   -0.551537
      2          6           0        0.056221   -0.139592    0.177584
      3          6           0        0.922158    1.033638   -0.296397
      4          7           0        0.763768   -1.376600   -0.064420
      5          8           0       -0.170319   -0.025946    1.601613
      6          1           0       -1.149189   -0.307915   -1.627812
      7          1           0       -1.893279   -1.017018   -0.176779
      8          1           0       -1.854572    0.741537   -0.382032
      9          1           0        0.413059    1.987463   -0.120731
     10          1           0        1.866599    1.048813    0.256499
     11          1           0        1.140938    0.950359   -1.363908
     12          1           0        1.629461   -1.367175    0.472421
     13          1           0        0.211035   -2.146517    0.308978
     14          1           0       -0.644061    0.801715    1.766420
 ---------------------------------------------------------------------
                    Distance matrix (angstroms):
                    1          2          3          4          5
     1  C    0.000000
     2  C    1.533288   0.000000
     3  C    2.539116   1.533289   0.000000
     4  N    2.426551   1.445468   2.426551   0.000000
     5  O    2.432831   1.446408   2.432832   2.339327   0.000000
     6  H    1.092877   2.177338   2.804088   2.691782   3.386279
[...]
 Maximum Force            0.000046     0.000450     YES
 RMS     Force            0.000007     0.000300     YES
 Maximum Displacement     0.000371     0.001800     YES
 RMS     Displacement     0.000159     0.001200     YES
 Predicted change in Energy=-8.110113D-09
 Optimization completed.
    -- Stationary point found.
                           ----------------------------
                           !   Optimized Parameters   !
                           ! (Angstroms and Degrees)  !
 --------------------------                            --------------------------
 ! Name  Definition              Value          Derivative Info.                !
 --------------------------------------------------------------------------------
 ! R1    R(1,2)                  1.5334         -DE/DX =    0.0                 !
 ! R2    R(1,6)                  1.093          -DE/DX =    0.0                 !
 ! R3    R(1,7)                  1.0946         -DE/DX =    0.0                 !
 ! R4    R(1,8)                  1.0954         -DE/DX =    0.0                 !
 ! R5    R(2,3)                  1.5334         -DE/DX =    0.0                 !
 ! R6    R(2,4)                  1.4454         -DE/DX =    0.0                 !
 ! R7    R(2,5)                  1.4473         -DE/DX =    0.0                 !
 ! R8    R(3,9)                  1.0954         -DE/DX =    0.0                 !
 ! R9    R(3,10)                 1.0946         -DE/DX =    0.0                 !
 ! R10   R(3,11)                 1.093          -DE/DX =    0.0                 !
 ! R11   R(4,12)                 1.0184         -DE/DX =    0.0                 !
 ! R12   R(4,13)                 1.0184         -DE/DX =    0.0                 !
 ! R13   R(5,14)                 0.9676         -DE/DX =    0.0                 !
 ! A1    A(2,1,6)              110.8896         -DE/DX =    0.0                 !
 ! A2    A(2,1,7)              109.9869         -DE/DX =    0.0                 !
 ! A3    A(2,1,8)              110.7556         -DE/DX =    0.0                 !
 ! A4    A(6,1,7)              108.7641         -DE/DX =    0.0                 !
 ! A5    A(6,1,8)              108.4227         -DE/DX =    0.0                 !
 ! A6    A(7,1,8)              107.9415         -DE/DX =    0.0                 !
 ! A7    A(1,2,3)              111.7919         -DE/DX =    0.0                 !
 ! A8    A(1,2,4)              109.073          -DE/DX =    0.0                 !
 ! A9    A(1,2,5)              109.4187         -DE/DX =    0.0                 !
 ! A10   A(3,2,4)              109.073          -DE/DX =    0.0                 !
 ! A11   A(3,2,5)              109.4187         -DE/DX =    0.0                 !
 ! A12   A(4,2,5)              107.9855         -DE/DX =    0.0                 !
 ! A13   A(2,3,9)              110.7556         -DE/DX =    0.0                 !
 ! A14   A(2,3,10)             109.9869         -DE/DX =    0.0                 !
 ! A15   A(2,3,11)             110.8896         -DE/DX =    0.0                 !
 ! A16   A(9,3,10)             107.9415         -DE/DX =    0.0                 !
 ! A17   A(9,3,11)             108.4227         -DE/DX =    0.0                 !
 ! A18   A(10,3,11)            108.7641         -DE/DX =    0.0                 !
 ! A19   A(2,4,12)             108.6815         -DE/DX =    0.0                 !
 ! A20   A(2,4,13)             108.6815         -DE/DX =    0.0                 !
 ! A21   A(12,4,13)            105.9847         -DE/DX =    0.0                 !
 ! A22   A(2,5,14)             108.1399         -DE/DX =    0.0                 !
 ! D1    D(6,1,2,3)             60.8426         -DE/DX =    0.0                 !
 ! D2    D(6,1,2,4)            -59.8611         -DE/DX =    0.0                 !
 ! D3    D(6,1,2,5)           -177.7853         -DE/DX =    0.0                 !
 ! D4    D(7,1,2,3)           -178.8139         -DE/DX =    0.0                 !
 ! D5    D(7,1,2,4)             60.4824         -DE/DX =    0.0                 !
 ! D6    D(7,1,2,5)            -57.4418         -DE/DX =    0.0                 !
 ! D7    D(8,1,2,3)            -59.58           -DE/DX =    0.0                 !
 ! D8    D(8,1,2,4)            179.7163         -DE/DX =    0.0                 !
 ! D9    D(8,1,2,5)             61.7921         -DE/DX =    0.0                 !
 ! D10   D(1,2,3,9)             59.5801         -DE/DX =    0.0                 !
 ! D11   D(1,2,3,10)           178.814          -DE/DX =    0.0                 !
 ! D12   D(1,2,3,11)           -60.8425         -DE/DX =    0.0                 !
 ! D13   D(4,2,3,9)           -179.7163         -DE/DX =    0.0                 !
 ! D14   D(4,2,3,10)           -60.4824         -DE/DX =    0.0                 !
 ! D15   D(4,2,3,11)            59.8611         -DE/DX =    0.0                 !
 ! D16   D(5,2,3,9)            -61.7921         -DE/DX =    0.0                 !
 ! D17   D(5,2,3,10)            57.4418         -DE/DX =    0.0                 !
 ! D18   D(5,2,3,11)           177.7853         -DE/DX =    0.0                 !
 ! D19   D(1,2,4,12)          -176.2775         -DE/DX =    0.0                 !
 ! D20   D(1,2,4,13)           -61.3677         -DE/DX =    0.0                 !
 ! D21   D(3,2,4,12)            61.3677         -DE/DX =    0.0                 !
 ! D22   D(3,2,4,13)           176.2775         -DE/DX =    0.0                 !
 ! D23   D(5,2,4,12)           -57.4549         -DE/DX =    0.0                 !
 ! D24   D(5,2,4,13)            57.4549         -DE/DX =    0.0                 !
 ! D25   D(1,2,5,14)           -61.3977         -DE/DX =    0.0                 !
 ! D26   D(3,2,5,14)            61.3978         -DE/DX =    0.0                 !
 ! D27   D(4,2,5,14)          -180.0            -DE/DX =    0.0                 !
 --------------------------------------------------------------------------------
 GradGradGradGradGradGradGradGradGradGradGradGradGradGradGradGradGradGrad

 Leave Link  103 at Fri Sep 10 20:44:37 2021, MaxMem= 24159191040 cpu:         1.7
 (Enter /public/home/users/caep010/software/Gaussian09/g09/l9999.exe)
 1\1\GINC-B0933\Freq\RB3LYP\6-31G(d,p)\C3H9N1O1\ROOT\10-Sep-2021\0\\#P 
 Geom=AllCheck Guess=TCheck SCRF=Check GenChk RB3LYP/6-31G(d,p) Freq\\F
 rag_401\\0,1\C,-1.2920235142,-0.1828731914,-0.5515067946\C,0.056266613
 6,-0.1396528459,0.1774838301\C,0.9222151073,1.0337173891,-0.2963482349
 \N,0.7637797688,-1.3766474506,-0.0642753495\O,-0.1705439436,-0.0256817
 575,1.6023103187\H,-1.1492657963,-0.308260753,-1.627861569\H,-1.893496
 416,-1.0170044942,-0.176567145\H,-1.8546402608,0.7416904672,-0.3822938
 356\H,0.4130144675,1.9876299165,-0.1209793093\H,1.8666669057,1.0489782
 057,0.2567362343\H,1.1412659508,0.9502490017,-1.3639113354\H,1.6295912
 002,-1.3674071546,0.4719260087\H,0.2112458002,-2.1467023143,0.30848222
 48\H,-0.644175883,0.8018649814,1.7667049567\\Version=ES64L-G09RevE.01\
 State=1-A\HF=-249.7280437\RMSD=1.729e-09\RMSF=1.114e-05\ZeroPoint=0.12
 52618\Thermal=0.1317456\Dipole=-0.2202756,0.387696,0.0629965\DipoleDer
 iv=-0.0716261,0.0046481,-0.1058626,-0.0425815,0.0686518,0.0014918,-0.0
 349547,-0.0025797,0.0153815,0.6599953,-0.0981456,-0.0725944,-0.0930549
 ,0.7554249,0.0555148,-0.0968671,0.0996919,0.962977,-0.0005345,-0.10303
 04,0.0420179,-0.0642954,-0.0239029,0.0757398,0.0116119,0.0060963,0.036
 8447,-0.3753414,0.2034306,0.1043681,0.19784,-0.5830954,-0.1359924,0.13
 10246,-0.184508,-0.508828,-0.5717176,-0.108151,0.0506073,-0.1229082,-0
 .4004032,-0.0057609,0.1209692,-0.133822,-1.0370055,0.0442321,0.0002369
 ,0.0278378,-0.0009831,0.0607364,-0.0191743,0.0003172,-0.0212407,-0.126
 4854,-0.0323166,-0.0756243,0.0130919,-0.1002208,-0.0674169,0.0461931,0
 .0339848,0.0645787,0.0316683,-0.0173778,0.0719287,-0.0072564,0.1056541
 ,-0.1055175,-0.0265559,0.0163072,-0.0499247,0.0378262,-0.0103244,0.098
 8881,0.0276082,0.0594798,-0.1182043,-0.0131675,0.0311407,-0.0391145,0.
 0434594,-0.1108495,-0.028496,-0.0746397,-0.0031859,0.0354999,0.0141441
 ,-0.0989347,0.0019506,0.0072844,0.0468387,-0.0091799,0.0316539,-0.0056
 968,0.0521857,-0.0177857,0.0483844,0.0039193,-0.1205412,0.0901878,-0.0
 107554,-0.0961239,-0.0216507,0.1434814,-0.0127557,-0.2018711,0.0563238
 ,0.158811,0.0945885,-0.0757575,0.0430323,-0.0427948,0.0948207,0.060987
 1,0.0435628,0.1834057,0.203071,0.2542455,0.1300077,0.0162595,0.1343984
 ,0.0877394,-0.0228783,-0.0046752,0.0152233,0.2955366\Polar=44.8931074,
 -0.9531962,46.0191589,0.1237543,0.4735996,41.0516105\PG=C01 [X(C3H9N1O
 1)]\NImag=0\\0.49886382,-0.00555632,0.58513290,-0.05045739,-0.00240582
 ,0.56803318,-0.16340881,-0.01050425,-0.03693993,0.53738433,-0.00338035
 ,-0.08236724,-0.00026949,-0.00640426,0.55291424,-0.04419042,-0.0018136
 8,-0.09025773,0.02423506,-0.02193199,0.43091991,-0.02226229,-0.0257906
 0,0.00562071,-0.11833366,-0.04951953,0.01514425,0.54646740,-0.00564957
 ,-0.00114994,-0.00117947,-0.04296699,-0.13916174,0.02419238,-0.0500205
 5,0.52190117,-0.00801078,-0.01099011,0.00834527,0.01061801,0.01768997,
 -0.07853849,0.02009484,0.02822050,0.58366149,-0.02708827,0.03633954,0.
 00119785,-0.13248510,0.03973746,0.01316679,0.01030375,-0.01678185,-0.0
 0276365,0.63486999,0.00783405,-0.00463752,0.00195360,0.04598920,-0.185
 81655,-0.03347091,0.01416247,-0.04163549,-0.00186122,0.08037314,0.5618
 6164,-0.00902241,0.01353997,0.00366111,-0.01664131,0.02078091,-0.06380
 594,-0.00417164,0.00771624,0.00326705,0.09415801,-0.08707667,0.2879663
 6,0.00677951,-0.00169689,-0.03025036,-0.07296606,0.00555892,0.01695678
 ,-0.00208760,-0.00025669,0.02719395,-0.00561912,0.01602250,0.02809611,
 0.19388270,-0.00061906,0.00322371,-0.00408418,0.01078848,-0.08560475,-
 0.00948046,-0.00455448,0.00452957,0.02758593,0.01890185,-0.01840392,-0
 .04565897,-0.22836706,0.46379347,0.00257333,-0.00454821,-0.04491377,-0
 .00797769,0.03590110,-0.16990415,0.00972297,0.00010747,-0.03735253,0.0
 1436741,-0.02067225,-0.01969199,-0.06364444,0.06158544,0.31973554,-0.0
 5494022,0.00376406,0.03930706,0.00821198,-0.00345308,-0.02638397,0.000
 65738,0.00010262,0.00034524,0.00097687,-0.00017773,0.00079655,-0.00459
 414,-0.00029606,-0.00756771,0.05548872,0.00332200,-0.05183679,-0.03107
 065,0.00042195,-0.00217756,-0.00099736,0.00002877,-0.00014904,-0.00013
 948,0.00039044,-0.00027225,0.00024558,-0.00008774,0.00154538,-0.000286
 47,-0.00397375,0.05105093,0.03571685,-0.03041156,-0.30921261,0.0067328
 6,-0.00181349,-0.01440425,0.00066575,0.00017847,0.00013959,0.00100833,
 0.00016432,0.00162449,-0.00475525,-0.00065368,-0.00286350,-0.03998859,
 0.03381298,0.33469483,-0.12529275,-0.10895299,0.04945352,-0.01761415,-
 0.02500991,0.01278123,-0.00473981,0.00159840,-0.00392835,0.00209705,-0
 .00104899,0.00043942,0.00282683,0.00200817,0.00129803,-0.00244990,-0.0
 0224518,0.00080677,0.13636268,-0.10978287,-0.20389611,0.07083429,-0.00
 003794,-0.00243860,0.00126804,-0.00040228,0.00084287,-0.00092064,0.000
 78199,0.00105410,-0.00024023,0.00126723,0.00069567,-0.00095203,0.00362
 486,0.00406238,-0.00166180,0.12057506,0.21874273,0.05135205,0.07211146
 ,-0.08060029,-0.00941077,-0.01296313,0.00417030,-0.00241904,0.00007078
 ,-0.00142941,0.00096432,-0.00076874,0.00008191,0.00097224,0.00021615,0
 .00186856,0.01663484,0.02542048,-0.00883621,-0.05367374,-0.07857126,0.
 08237665,-0.11558783,0.11107184,0.01947033,-0.01209997,0.02593683,0.00
 886803,0.00129137,0.00136539,0.00035041,-0.00688576,-0.00065981,-0.003
 06073,0.00172413,-0.00130681,0.00139022,-0.00255641,0.00259358,0.00038
 864,0.00999886,-0.01540527,-0.00378866,0.12494206,0.11302607,-0.237222
 01,-0.03581815,-0.00205699,-0.00059010,-0.00165530,-0.00033005,0.00035
 530,0.00021474,0.00034879,0.00138092,0.00063090,-0.00083231,0.00073573
 ,0.00128592,0.00053058,-0.00240531,-0.00004543,0.01310924,-0.01984792,
 -0.00487006,-0.12382958,0.25576165,0.02111032,-0.03618387,-0.05571937,
 -0.00667290,0.01404309,0.00095573,0.00083465,0.00006577,-0.00003030,-0
 .00301349,0.00008342,-0.00069366,0.00075308,0.00005489,0.00137008,0.01
 603189,-0.02791203,-0.00269911,-0.00667656,0.00971367,0.00123206,-0.02
 125063,0.04009904,0.05579891,0.00119695,-0.00006342,-0.00015609,0.0087
 4043,-0.01572016,-0.00345387,-0.10800376,0.10822189,0.02148059,-0.0015
 0934,-0.00375424,0.00057382,0.00048441,0.00050598,-0.00194411,-0.00005
 771,-0.00006188,-0.00007875,0.00022864,0.00018797,0.00004548,-0.000299
 75,-0.00012256,0.00009508,0.11425944,0.00152505,0.00061803,0.00015620,
 0.01595571,-0.01987260,-0.00766926,0.10608512,-0.24489088,-0.03599378,
 -0.00484297,-0.00479490,0.00168918,-0.00011331,0.00250105,-0.00038475,
 0.00000077,0.00001409,0.00009946,-0.00010832,0.00042307,0.00016500,-0.
 00109960,0.00049145,-0.00007450,-0.11661523,0.26691412,-0.00013030,-0.
 00062309,-0.00019861,-0.00546886,0.00858477,-0.00060218,0.02071090,-0.
 03721204,-0.05563452,0.00090860,0.00154138,0.00010573,-0.00061658,-0.0
 0041026,0.00084447,0.00008504,-0.00011874,-0.00000184,-0.00014851,0.00
 008543,-0.00011635,-0.00019443,-0.00012098,0.00025586,-0.02390524,0.04
 014835,0.05532903,-0.00092390,-0.00383030,0.00258685,-0.01865344,0.001
 12050,-0.01184598,-0.24383660,-0.00081336,-0.11596263,0.00117123,0.001
 49555,0.00031312,0.00283407,0.00137645,0.00042996,0.00021551,0.0000972
 4,-0.00008101,-0.00111926,-0.00032634,-0.00071530,0.00041571,0.0000584
 9,0.00010698,-0.01235225,-0.00075215,-0.00723870,0.26433428,-0.0018416
 1,-0.00408266,0.00225160,-0.02370434,-0.00077102,-0.01492452,0.0000407
 9,-0.04835198,0.00010922,-0.00044162,0.00205936,-0.00039201,0.00233851
 ,0.00093501,-0.00130598,0.00027955,-0.00003103,0.00009230,-0.00168070,
 0.00017443,-0.00055981,-0.00023655,0.00022500,0.00016504,0.02435280,0.
 00112817,0.01540149,0.00264883,0.05052350,0.00113469,0.00115616,-0.000
 31978,0.00964445,0.00058351,0.00354200,-0.11797680,-0.00095747,-0.1176
 0050,0.00029449,-0.00078493,0.00000247,-0.00029854,-0.00055532,0.00162
 199,0.00020507,0.00019176,0.00028136,0.00038185,0.00019908,0.00061693,
 -0.00009297,0.00009631,-0.00010535,0.00613007,0.00039751,0.00260708,0.
 12833205,-0.00026179,0.12262420,0.00023362,0.00043356,-0.00000512,-0.0
 0325946,0.00533595,0.01739007,-0.05965530,0.00314960,0.05054951,0.0004
 4196,0.00108988,-0.00073715,-0.00168391,-0.00376028,0.00410765,-0.0006
 5043,-0.00051143,-0.00037897,0.00026226,0.00010679,-0.00026543,-0.0000
 3471,-0.00010117,0.00004024,-0.00369119,0.00021001,0.01512541,0.007571
 10,-0.00248474,-0.02782811,0.06011071,0.00053078,0.00043655,-0.0002473
 0,-0.00179247,0.00489782,0.02352498,0.00404391,-0.05035427,-0.02451174
 ,0.00049856,0.00064511,-0.00055077,-0.00429953,-0.00355067,0.00545883,
 -0.00054103,0.00002544,-0.00024445,0.00029553,-0.00003112,-0.00004687,
 0.00001422,-0.00000705,-0.00013604,0.00457824,-0.00114841,-0.02810954,
 0.00004482,-0.00106145,0.00062019,-0.00328321,0.05041435,-0.00043704,-
 0.00036248,-0.00002224,-0.00021461,-0.00389158,-0.01000819,0.05198339,
 -0.02124622,-0.30598021,-0.00083851,-0.00067047,0.00124203,0.00287310,
 0.00295418,-0.00067767,0.00010716,0.00002606,0.00074477,-0.00001003,0.
 00010843,0.00023470,-0.00004744,0.00010346,-0.00000370,0.00010466,-0.0
 0016656,-0.00282124,0.00392726,-0.00128579,-0.01373337,-0.05701512,0.0
 2424473,0.33070955,-0.00028273,0.00440570,0.00158701,-0.02164352,0.001
 91171,-0.01355545,0.00149689,-0.00100722,0.00077232,-0.30329194,-0.009
 89650,-0.15501481,0.00187363,-0.00249930,-0.00040060,0.00016840,-0.000
 11915,-0.00009854,0.00044217,-0.00007672,0.00012863,-0.00067936,0.0001
 5425,-0.00073258,-0.00013422,-0.00015728,0.00024963,0.00063548,0.00036
 780,-0.00039638,0.00003863,-0.00009618,0.00027455,0.33941314,0.0023274
 3,-0.00585069,-0.00165033,0.03363920,0.00004709,0.02078275,0.00159937,
 0.00130202,0.00092581,-0.01461008,-0.06280622,-0.00071399,-0.00191608,
 0.00117591,0.00022437,-0.00029576,-0.00008323,0.00000101,0.00016218,0.
 00013386,-0.00023366,0.00201839,0.00025361,0.00077477,-0.00056401,0.00
 032831,-0.00035125,-0.00105590,-0.00100542,-0.00040527,-0.00006413,-0.
 00006991,-0.00006245,0.00666261,0.06637681,0.00018078,0.00096876,0.000
 99788,0.01043221,-0.00708298,-0.00304424,-0.00007333,0.00004885,-0.000
 61315,-0.20949658,0.00400736,-0.13104183,0.00054844,0.00067923,0.00193
 025,0.00033329,-0.00011765,0.00036336,-0.00006538,-0.00020096,-0.00005
 711,-0.00064650,-0.00004106,0.00051234,0.00043000,-0.00019677,0.000035
 23,0.00018226,0.00050281,0.00052671,-0.00016130,0.00037122,-0.00036253
 ,0.18199419,-0.00105233,0.12800156,0.00176018,0.00155059,-0.00062310,0
 .01125943,0.01664806,-0.00632447,-0.00113957,0.00280348,0.00045713,-0.
 17355312,-0.15208077,0.06044443,-0.00038702,-0.00030353,-0.00042272,-0
 .00006366,-0.00002546,-0.00004171,-0.00081807,-0.00017442,0.00029860,-
 0.00013815,-0.00048977,0.00008773,0.00093546,0.00089894,-0.00010735,0.
 00019091,0.00026289,0.00020108,-0.00017746,-0.00000081,-0.00004529,-0.
 01878007,-0.02771999,0.01681196,0.18100835,-0.00107562,0.00115815,-0.0
 0016581,-0.02163160,-0.03215702,0.01630333,0.00543414,-0.00476540,-0.0
 0185887,-0.14138923,-0.24975149,0.09484407,-0.00088664,0.00363042,0.00
 047398,0.00006110,0.00006863,-0.00021530,0.00132394,0.00044304,0.00034
 285,-0.00008155,0.00041190,-0.00038436,-0.00107881,-0.00152644,0.00065
 915,0.00005322,0.00033643,-0.00019050,0.00010987,0.00030907,0.00009891
 ,0.00095349,0.00006914,0.00209475,0.15839759,0.28093514,0.00031609,0.0
 0054089,-0.00073257,0.00092841,-0.01268984,-0.00374308,-0.00077049,0.0
 0031571,0.00076943,0.08642354,0.14199860,-0.07383564,-0.00137228,0.000
 02007,0.00173639,-0.00017138,0.00038031,-0.00039878,-0.00063606,0.0000
 8274,0.00053180,-0.00009975,-0.00052591,-0.00004442,0.00034827,0.00048
 908,0.00067758,0.00025571,0.00003050,-0.00000842,-0.00016274,-0.000354
 65,0.00031693,-0.01450759,-0.01841765,0.00291443,-0.07077863,-0.112421
 17,0.07184827,0.00095273,-0.00117051,-0.00079134,-0.00513199,0.0072378
 6,-0.00278806,-0.00015820,0.00025486,-0.00119659,0.00057180,0.00065126
 ,0.00382659,-0.12306744,0.20812565,0.04806770,-0.00040639,0.00017061,0
 .00010362,-0.00018455,-0.00033804,-0.00012321,-0.00009017,0.00053502,-
 0.00071382,0.00020290,-0.00098674,0.00073038,-0.00048284,0.00009839,0.
 00026903,0.00049418,0.00000718,-0.00066208,0.00074348,-0.00018324,-0.0
 0047005,-0.00009719,-0.00018989,0.00022690,0.12665368,-0.00065998,0.00
 047361,0.00169550,0.00230431,-0.00690197,0.00587201,-0.00077706,0.0015
 2780,0.00152968,0.00069399,0.00111721,-0.00481422,0.21326910,-0.375206
 58,-0.07688744,0.00037388,0.00018836,0.00069719,-0.00002643,-0.0003584
 0,-0.00031320,-0.00038108,0.00045683,-0.00030889,0.00013343,-0.0001850
 6,0.00052535,-0.00011704,-0.00007834,-0.00008924,-0.00023070,-0.000505
 47,0.00014979,-0.00060322,0.00012871,0.00001876,0.00023321,0.00083840,
 0.00055131,-0.21421241,0.37850490,-0.00013577,-0.00097842,0.00093954,0
 .02073507,-0.03694085,-0.00527970,0.00063383,-0.00032098,0.00099627,0.
 00362290,-0.00444348,-0.00888210,0.02354372,-0.03225300,-0.05370367,0.
 00026552,0.00056521,0.00056790,-0.00002218,0.00025523,-0.00007355,-0.0
 0128653,0.00064652,-0.00082908,0.00033008,0.00134084,-0.00048025,-0.00
 029057,0.00017694,-0.00005531,-0.00065896,-0.00001858,0.00036117,-0.00
 030039,0.00017821,-0.00016288,0.00004234,0.00041897,-0.00003191,-0.046
 47907,0.07137341,0.06663358\\0.00000722,-0.00000386,0.00000722,-0.0000
 1341,0.00001688,0.00003608,-0.00000179,-0.00000888,0.00000612,0.000002
 11,-0.00000823,0.00002026,0.00000083,0.00000782,-0.00004443,0.00000357
 ,-0.00000416,-0.00001257,-0.00000405,-0.00000590,0.00000245,-0.0000036
 4,0.00000261,-0.00000414,0.00000042,0.00000486,-0.00000367,0.00000664,
 -0.00000004,0.00000369,0.00000380,-0.00000401,-0.00001249,-0.00000628,
 -0.00000103,0.00000280,0.00000369,0.00000449,0.00000390,0.00000089,-0.
 00000054,-0.00000522\\\@


 IF YOU GIVE A BOY AND A PIG EVERYTHING THEY WANT,
 YOU'LL GET A BAD BOY AND A GOOD PIG.
 Job cpu time:       0 days  0 hours  4 minutes 55.0 seconds.
 File lengths (MBytes):  RWF=     26 Int=      0 D2E=      0 Chk=      2 Scr=      1
 Normal termination of Gaussian 09 at Fri Sep 10 20:44:37 2021.
