 Entering Gaussian System, Link 0=g09
 Input=B3LYP6-31Gdp.Frag_637.gjf
 Output=B3LYP6-31Gdp.Frag_637.log
 Initial command:
 /public/home/users/caep010/software/Gaussian09/g09/l1.exe "/public/home/users/caep010/.cache/gau_scr/Gau-38718.inp" -scrdir="/public/home/users/caep010/.cache/gau_scr/"
 Entering Link 1 = /public/home/users/caep010/software/Gaussian09/g09/l1.exe PID=     38719.
  
 Copyright (c) 1988,1990,1992,1993,1995,1998,2003,2009,2015,
            Gaussian, Inc.  All Rights Reserved.
  
 This is part of the Gaussian(R) 09 program.  It is based on
 the Gaussian(R) 03 system (copyright 2003, Gaussian, Inc.),
 the Gaussian(R) 98 system (copyright 1998, Gaussian, Inc.),
 the Gaussian(R) 94 system (copyright 1995, Gaussian, Inc.),
 the Gaussian 92(TM) system (copyright 1992, Gaussian, Inc.),
 the Gaussian 90(TM) system (copyright 1990, Gaussian, Inc.),
 the Gaussian 88(TM) system (copyright 1988, Gaussian, Inc.),
 the Gaussian 86(TM) system (copyright 1986, Carnegie Mellon
 University), and the Gaussian 82(TM) system (copyright 1983,
 Carnegie Mellon University). Gaussian is a federally registered
 trademark of Gaussian, Inc.
  
 This software contains proprietary and confidential information,
 including trade secrets, belonging to Gaussian, Inc.
  
 This software is provided under written license and may be
 used, copied, transmitted, or stored only in accord with that
 written license.
  
 The following legend is applicable only to US Government
 contracts under FAR:
  
                    RESTRICTED RIGHTS LEGEND
  
 Use, reproduction and disclosure by the US Government is
 subject to restrictions as set forth in subparagraphs (a)
 and (c) of the Commercial Computer Software - Restricted
 Rights clause in FAR 52.227-19.
  
 Gaussian, Inc.
 340 Quinnipiac St., Bldg. 40, Wallingford CT 06492
  
  
 ---------------------------------------------------------------
 Warning -- This program may not be used in any manner that
 competes with the business of Gaussian, Inc. or will provide
 assistance to any competitor of Gaussian, Inc.  The licensee
 of this program is prohibited from giving any competitor of
 Gaussian, Inc. access to this program.  By using this program,
 the user acknowledges that Gaussian, Inc. is engaged in the
 business of creating and licensing software in the field of
 computational chemistry and represents and warrants to the
 licensee that it is not a competitor of Gaussian, Inc. and that
 it will not use this program in any manner prohibited above.
 ---------------------------------------------------------------
  

 Cite this work as:
 Gaussian 09, Revision E.01,
 M. J. Frisch, G. W. Trucks, H. B. Schlegel, G. E. Scuseria, 
 M. A. Robb, J. R. Cheeseman, G. Scalmani, V. Barone, B. Mennucci, 
 G. A. Petersson, H. Nakatsuji, M. Caricato, X. Li, H. P. Hratchian, 
 A. F. Izmaylov, J. Bloino, G. Zheng, J. L. Sonnenberg, M. Hada, 
 M. Ehara, K. Toyota, R. Fukuda, J. Hasegawa, M. Ishida, T. Nakajima, 
 Y. Honda, O. Kitao, H. Nakai, T. Vreven, J. A. Montgomery, Jr., 
 J. E. Peralta, F. Ogliaro, M. Bearpark, J. J. Heyd, E. Brothers, 
 K. N. Kudin, V. N. Staroverov, T. Keith, R. Kobayashi, J. Normand, 
 K. Raghavachari, A. Rendell, J. C. Burant, S. S. Iyengar, J. Tomasi, 
 M. Cossi, N. Rega, J. M. Millam, M. Klene, J. E. Knox, J. B. Cross, 
 V. Bakken, C. Adamo, J. Jaramillo, R. Gomperts, R. E. Stratmann, 
 O. Yazyev, A. J. Austin, R. Cammi, C. Pomelli, J. W. Ochterski, 
 R. L. Martin, K. Morokuma, V. G. Zakrzewski, G. A. Voth, 
 P. Salvador, J. J. Dannenberg, S. Dapprich, A. D. Daniels, 
 O. Farkas, J. B. Foresman, J. V. Ortiz, J. Cioslowski, 
 and D. J. Fox, Gaussian, Inc., Wallingford CT, 2013.
 
 ******************************************
 Gaussian 09:  ES64L-G09RevE.01 30-Nov-2015
                 8-Sep-2022 
 ******************************************
 %nproc=32
 Will use up to   32 processors via shared memory.
 %mem=180GB
 %chk=B3LYP6-31Gdp.Frag_637.chk
 ----------------------------
 #P OPT Freq B3LYP/6-31G(d,p)
 ----------------------------
 1/14=-1,18=20,19=15,26=3,38=1/1,3;
 2/9=110,12=2,17=6,18=5,40=1/2;
 3/5=1,6=6,7=101,11=2,16=1,25=1,30=1,71=1,74=-5/1,2,3;
 4//1;
 5/5=2,38=5/2;
 6/7=2,8=2,9=2,10=2,28=1/1;
 7//1,2,3,16;
 1/14=-1,18=20,19=15,26=3/3(2);
 2/9=110/2;
 99//99;
 2/9=110/2;
 3/5=1,6=6,7=101,11=2,16=1,25=1,30=1,71=1,74=-5/1,2,3;
 4/5=5,16=3,69=1/1;
 5/5=2,38=5/2;
 7//1,2,3,16;
 1/14=-1,18=20,19=15,26=3/3(-5);
 2/9=110/2;
 6/7=2,8=2,9=2,10=2,19=2,28=1/1;
 99/9=1/99;
 Leave Link    1 at Thu Sep  8 15:17:34 2022, MaxMem= 24159191040 cpu:         2.7
 (Enter /public/home/users/caep010/software/Gaussian09/g09/l101.exe)
 --------
 Frag_637
 --------
 Symbolic Z-matrix:
 Charge =  0 Multiplicity = 1
 C                     1.54858   1.01756  -0.77844 
 N                     0.83839   0.32474   0.29258 
 C                     1.56097  -0.87123   0.69303 
 C                    -0.61202   0.16255   0.05852 
 C                    -1.24943  -0.58301   1.24926 
 C                    -0.9547   -0.57692  -1.25272 
 N                    -1.14246   1.53202  -0.05487 
 H                     1.74732   0.38061  -1.65978 
 H                     2.51755   1.36113  -0.39942 
 H                     0.96871   1.88293  -1.0977 
 H                     2.60047  -0.59603   0.89898 
 H                     1.58345  -1.66496  -0.07825 
 H                     1.14988  -1.29863   1.60922 
 H                    -2.33855  -0.50878   1.17384 
 H                    -0.99755  -1.6471    1.27744 
 H                    -0.93763  -0.12641   2.19426 
 H                    -0.50058  -1.572    -1.2721 
 H                    -0.60385  -0.0131   -2.11949 
 H                    -2.03776  -0.70848  -1.35179 
 H                    -0.99579   2.00844   0.83152 
 H                    -2.14501   1.49677  -0.21418 
 
 NAtoms=     21 NQM=       21 NQMF=       0 NMMI=      0 NMMIF=      0
                NMic=       0 NMicF=      0.
                    Isotopes and Nuclear Properties:
 (Nuclear quadrupole moments (NQMom) in fm**2, nuclear magnetic moments (NMagM)
  in nuclear magnetons)

  Atom         1           2           3           4           5           6           7           8           9          10
 IAtWgt=          12          14          12          12          12          12          14           1           1           1
 AtmWgt=  12.0000000  14.0030740  12.0000000  12.0000000  12.0000000  12.0000000  14.0030740   1.0078250   1.0078250   1.0078250
 NucSpn=           0           2           0           0           0           0           2           1           1           1
 AtZEff=   0.0000000   0.0000000   0.0000000   0.0000000   0.0000000   0.0000000   0.0000000   0.0000000   0.0000000   0.0000000
 NQMom=    0.0000000   2.0440000   0.0000000   0.0000000   0.0000000   0.0000000   2.0440000   0.0000000   0.0000000   0.0000000
 NMagM=    0.0000000   0.4037610   0.0000000   0.0000000   0.0000000   0.0000000   0.4037610   2.7928460   2.7928460   2.7928460
 AtZNuc=   6.0000000   7.0000000   6.0000000   6.0000000   6.0000000   6.0000000   7.0000000   1.0000000   1.0000000   1.0000000

  Atom        11          12          13          14          15          16          17          18          19          20
 IAtWgt=           1           1           1           1           1           1           1           1           1           1
 AtmWgt=   1.0078250   1.0078250   1.0078250   1.0078250   1.0078250   1.0078250   1.0078250   1.0078250   1.0078250   1.0078250
 NucSpn=           1           1           1           1           1           1           1           1           1           1
 AtZEff=   0.0000000   0.0000000   0.0000000   0.0000000   0.0000000   0.0000000   0.0000000   0.0000000   0.0000000   0.0000000
 NQMom=    0.0000000   0.0000000   0.0000000   0.0000000   0.0000000   0.0000000   0.0000000   0.0000000   0.0000000   0.0000000
 NMagM=    2.7928460   2.7928460   2.7928460   2.7928460   2.7928460   2.7928460   2.7928460   2.7928460   2.7928460   2.7928460
 AtZNuc=   1.0000000   1.0000000   1.0000000   1.0000000   1.0000000   1.0000000   1.0000000   1.0000000   1.0000000   1.0000000

  Atom        21
 IAtWgt=           1
 AtmWgt=   1.0078250
 NucSpn=           1
 AtZEff=   0.0000000
 NQMom=    0.0000000
 NMagM=    2.7928460
 AtZNuc=   1.0000000
 Leave Link  101 at Thu Sep  8 15:17:35 2022, MaxMem= 24159191040 cpu:        10.5
 (Enter /public/home/users/caep010/software/Gaussian09/g09/l103.exe)

 GradGradGradGradGradGradGradGradGradGradGradGradGradGradGradGradGradGrad
 Berny optimization.
 Initialization pass.
                           ----------------------------
                           !    Initial Parameters    !
                           ! (Angstroms and Degrees)  !
 --------------------------                            --------------------------
 ! Name  Definition              Value          Derivative Info.                !
 --------------------------------------------------------------------------------
 ! R1    R(1,2)                  1.4599         estimate D2E/DX2                !
 ! R2    R(1,8)                  1.1054         estimate D2E/DX2                !
 ! R3    R(1,9)                  1.0957         estimate D2E/DX2                !
 ! R4    R(1,10)                 1.0895         estimate D2E/DX2                !
 ! R5    R(2,3)                  1.4535         estimate D2E/DX2                !
 ! R6    R(2,4)                  1.4781         estimate D2E/DX2                !
 ! R7    R(3,11)                 1.0949         estimate D2E/DX2                !
 ! R8    R(3,12)                 1.107          estimate D2E/DX2                !
 ! R9    R(3,13)                 1.0914         estimate D2E/DX2                !
 ! R10   R(4,5)                  1.5427         estimate D2E/DX2                !
 ! R11   R(4,6)                  1.5439         estimate D2E/DX2                !
 ! R12   R(4,7)                  1.473          estimate D2E/DX2                !
 ! R13   R(5,14)                 1.0942         estimate D2E/DX2                !
 ! R14   R(5,15)                 1.0939         estimate D2E/DX2                !
 ! R15   R(5,16)                 1.0949         estimate D2E/DX2                !
 ! R16   R(6,17)                 1.094          estimate D2E/DX2                !
 ! R17   R(6,18)                 1.0919         estimate D2E/DX2                !
 ! R18   R(6,19)                 1.0955         estimate D2E/DX2                !
 ! R19   R(7,20)                 1.0169         estimate D2E/DX2                !
 ! R20   R(7,21)                 1.0157         estimate D2E/DX2                !
 ! A1    A(2,1,8)              113.51           estimate D2E/DX2                !
 ! A2    A(2,1,9)              108.979          estimate D2E/DX2                !
 ! A3    A(2,1,10)             109.4507         estimate D2E/DX2                !
 ! A4    A(8,1,9)              107.3055         estimate D2E/DX2                !
 ! A5    A(8,1,10)             108.6458         estimate D2E/DX2                !
 ! A6    A(9,1,10)             108.8426         estimate D2E/DX2                !
 ! A7    A(1,2,3)              110.5327         estimate D2E/DX2                !
 ! A8    A(1,2,4)              114.4084         estimate D2E/DX2                !
 ! A9    A(3,2,4)              116.1767         estimate D2E/DX2                !
 ! A10   A(2,3,11)             108.481          estimate D2E/DX2                !
 ! A11   A(2,3,12)             114.0865         estimate D2E/DX2                !
 ! A12   A(2,3,13)             111.4847         estimate D2E/DX2                !
 ! A13   A(11,3,12)            106.9783         estimate D2E/DX2                !
 ! A14   A(11,3,13)            107.3463         estimate D2E/DX2                !
 ! A15   A(12,3,13)            108.1649         estimate D2E/DX2                !
 ! A16   A(2,4,5)              109.6475         estimate D2E/DX2                !
 ! A17   A(2,4,6)              113.8814         estimate D2E/DX2                !
 ! A18   A(2,4,7)              105.2801         estimate D2E/DX2                !
 ! A19   A(5,4,6)              109.412          estimate D2E/DX2                !
 ! A20   A(5,4,7)              111.0963         estimate D2E/DX2                !
 ! A21   A(6,4,7)              107.4576         estimate D2E/DX2                !
 ! A22   A(4,5,14)             108.9808         estimate D2E/DX2                !
 ! A23   A(4,5,15)             113.2576         estimate D2E/DX2                !
 ! A24   A(4,5,16)             110.3032         estimate D2E/DX2                !
 ! A25   A(14,5,15)            107.2745         estimate D2E/DX2                !
 ! A26   A(14,5,16)            108.3397         estimate D2E/DX2                !
 ! A27   A(15,5,16)            108.5345         estimate D2E/DX2                !
 ! A28   A(4,6,17)             111.0125         estimate D2E/DX2                !
 ! A29   A(4,6,18)             110.8273         estimate D2E/DX2                !
 ! A30   A(4,6,19)             110.7169         estimate D2E/DX2                !
 ! A31   A(17,6,18)            108.7983         estimate D2E/DX2                !
 ! A32   A(17,6,19)            107.4312         estimate D2E/DX2                !
 ! A33   A(18,6,19)            107.9324         estimate D2E/DX2                !
 ! A34   A(4,7,20)             108.453          estimate D2E/DX2                !
 ! A35   A(4,7,21)             109.5873         estimate D2E/DX2                !
 ! A36   A(20,7,21)            107.1772         estimate D2E/DX2                !
 ! D1    D(8,1,2,3)             55.7148         estimate D2E/DX2                !
 ! D2    D(8,1,2,4)            -77.699          estimate D2E/DX2                !
 ! D3    D(9,1,2,3)            -63.8004         estimate D2E/DX2                !
 ! D4    D(9,1,2,4)            162.7858         estimate D2E/DX2                !
 ! D5    D(10,1,2,3)           177.2748         estimate D2E/DX2                !
 ! D6    D(10,1,2,4)            43.8609         estimate D2E/DX2                !
 ! D7    D(1,2,3,11)            51.3836         estimate D2E/DX2                !
 ! D8    D(1,2,3,12)           -67.738          estimate D2E/DX2                !
 ! D9    D(1,2,3,13)           169.3779         estimate D2E/DX2                !
 ! D10   D(4,2,3,11)          -176.0997         estimate D2E/DX2                !
 ! D11   D(4,2,3,12)            64.7786         estimate D2E/DX2                !
 ! D12   D(4,2,3,13)           -58.1055         estimate D2E/DX2                !
 ! D13   D(1,2,4,5)            179.8272         estimate D2E/DX2                !
 ! D14   D(1,2,4,6)             56.8696         estimate D2E/DX2                !
 ! D15   D(1,2,4,7)            -60.5867         estimate D2E/DX2                !
 ! D16   D(3,2,4,5)             49.1157         estimate D2E/DX2                !
 ! D17   D(3,2,4,6)            -73.8419         estimate D2E/DX2                !
 ! D18   D(3,2,4,7)            168.7018         estimate D2E/DX2                !
 ! D19   D(2,4,5,14)           167.8974         estimate D2E/DX2                !
 ! D20   D(2,4,5,15)           -72.7866         estimate D2E/DX2                !
 ! D21   D(2,4,5,16)            49.0787         estimate D2E/DX2                !
 ! D22   D(6,4,5,14)           -66.5399         estimate D2E/DX2                !
 ! D23   D(6,4,5,15)            52.7761         estimate D2E/DX2                !
 ! D24   D(6,4,5,16)           174.6414         estimate D2E/DX2                !
 ! D25   D(7,4,5,14)            51.9422         estimate D2E/DX2                !
 ! D26   D(7,4,5,15)           171.2582         estimate D2E/DX2                !
 ! D27   D(7,4,5,16)           -66.8766         estimate D2E/DX2                !
 ! D28   D(2,4,6,17)            58.1929         estimate D2E/DX2                !
 ! D29   D(2,4,6,18)           -62.8343         estimate D2E/DX2                !
 ! D30   D(2,4,6,19)           177.4257         estimate D2E/DX2                !
 ! D31   D(5,4,6,17)           -64.8932         estimate D2E/DX2                !
 ! D32   D(5,4,6,18)           174.0796         estimate D2E/DX2                !
 ! D33   D(5,4,6,19)            54.3395         estimate D2E/DX2                !
 ! D34   D(7,4,6,17)           174.3842         estimate D2E/DX2                !
 ! D35   D(7,4,6,18)            53.357          estimate D2E/DX2                !
 ! D36   D(7,4,6,19)           -66.383          estimate D2E/DX2                !
 ! D37   D(2,4,7,20)           -63.0736         estimate D2E/DX2                !
 ! D38   D(2,4,7,21)          -179.7657         estimate D2E/DX2                !
 ! D39   D(5,4,7,20)            55.546          estimate D2E/DX2                !
 ! D40   D(5,4,7,21)           -61.1461         estimate D2E/DX2                !
 ! D41   D(6,4,7,20)           175.2001         estimate D2E/DX2                !
 ! D42   D(6,4,7,21)            58.508          estimate D2E/DX2                !
 --------------------------------------------------------------------------------
 Trust Radius=3.00D-01 FncErr=1.00D-07 GrdErr=1.00D-06
 Number of steps in this run=    108 maximum allowed number of steps=    126.
 GradGradGradGradGradGradGradGradGradGradGradGradGradGradGradGradGradGrad

 Leave Link  103 at Thu Sep  8 15:17:35 2022, MaxMem= 24159191040 cpu:         0.6
 (Enter /public/home/users/caep010/software/Gaussian09/g09/l202.exe)
                          Input orientation:                          
 ---------------------------------------------------------------------
 Center     Atomic      Atomic             Coordinates (Angstroms)
 Number     Number       Type             X           Y           Z
 ---------------------------------------------------------------------
      1          6           0        1.548578    1.017558   -0.778436
      2          7           0        0.838392    0.324738    0.292581
      3          6           0        1.560965   -0.871225    0.693025
      4          6           0       -0.612023    0.162548    0.058518
      5          6           0       -1.249428   -0.583005    1.249259
      6          6           0       -0.954699   -0.576922   -1.252724
      7          7           0       -1.142463    1.532021   -0.054869
      8          1           0        1.747323    0.380607   -1.659778
      9          1           0        2.517549    1.361132   -0.399422
     10          1           0        0.968713    1.882928   -1.097703
     11          1           0        2.600473   -0.596028    0.898982
     12          1           0        1.583448   -1.664959   -0.078248
     13          1           0        1.149876   -1.298631    1.609220
     14          1           0       -2.338548   -0.508778    1.173840
     15          1           0       -0.997549   -1.647103    1.277439
     16          1           0       -0.937627   -0.126408    2.194256
     17          1           0       -0.500576   -1.572000   -1.272100
     18          1           0       -0.603849   -0.013102   -2.119494
     19          1           0       -2.037761   -0.708481   -1.351785
     20          1           0       -0.995788    2.008443    0.831521
     21          1           0       -2.145007    1.496769   -0.214184
 ---------------------------------------------------------------------
                    Distance matrix (angstroms):
                    1          2          3          4          5
     1  C    0.000000
     2  N    1.459946   0.000000
     3  C    2.394338   1.453546   0.000000
     4  C    2.469763   1.478105   2.488607   0.000000
     5  C    3.808174   2.469458   2.879371   1.542724   0.000000
     6  C    3.005613   2.533009   3.193919   1.543891   2.519290
     7  N    2.833712   2.345643   3.693705   1.472983   2.487072
     8  H    1.105427   2.154294   2.671609   2.926876   4.286206
     9  H    1.095719   2.091064   2.663064   3.382386   4.548399
    10  H    1.089514   2.092326   3.338087   2.606776   4.063152
    11  H    2.554188   2.078572   1.094865   3.406163   3.865825
    12  H    2.772612   2.156738   1.106969   2.859822   3.310300
    13  H    3.350313   2.113265   1.091368   2.764780   2.529496
    14  H    4.609862   3.400634   3.945726   2.162293   1.094249
    15  H    4.220166   2.868585   2.736699   2.215679   1.093865
    16  H    4.040640   2.640860   3.008556   2.179654   1.094861
    17  H    3.338944   2.799764   2.933045   2.188977   2.810007
    18  H    2.737451   2.830601   3.651446   2.185099   3.477076
    19  H    4.021165   3.470409   4.142290   2.186407   2.720780
    20  H    3.169797   2.547457   3.853395   2.037679   2.637127
    21  H    3.767040   3.245171   4.490507   2.050500   2.696143
                    6          7          8          9         10
     6  C    0.000000
     7  N    2.432643   0.000000
     8  H    2.895424   3.500336   0.000000
     9  H    4.067024   3.680164   1.772900   0.000000
    10  H    3.126405   2.380694   1.783012   1.777290   0.000000
    11  H    4.155653   4.409988   2.868612   2.350150   3.576956
    12  H    3.000901   4.201407   2.590836   3.183225   3.742284
    13  H    3.625027   4.004573   3.723323   3.602709   4.181216
    14  H    2.794261   2.665559   5.051212   5.436303   4.670989
    15  H    2.747517   3.450054   4.502574   4.921103   4.687068
    16  H    3.476338   2.801947   4.724362   4.569265   4.302157
    17  H    1.093976   3.395382   3.002669   4.298129   3.758424
    18  H    1.091915   2.634423   2.427829   3.819724   2.666822
    19  H    1.095511   2.739233   3.950675   5.093245   3.977291
    20  H    3.321126   1.016946   4.047355   3.778594   2.756252
    21  H    2.606836   1.015735   4.299511   4.668205   3.259598
                   11         12         13         14         15
    11  H    0.000000
    12  H    1.769726   0.000000
    13  H    1.761341   1.780373   0.000000
    14  H    4.947432   4.276275   3.603127   0.000000
    15  H    3.767459   2.915433   2.200669   1.762043   0.000000
    16  H    3.796897   3.726558   2.464557   1.774834   1.776698
    17  H    3.909300   2.403556   3.331775   3.239013   2.598610
    18  H    4.440572   3.417541   4.316416   3.755120   3.790002
    19  H    5.156725   3.955996   4.390542   2.551301   2.979240
    20  H    4.440823   4.579740   4.018137   2.873428   3.682643
    21  H    5.304575   4.890438   4.689917   2.446689   3.664087
                   16         17         18         19         20
    16  H    0.000000
    17  H    3.781055   0.000000
    18  H    4.328127   1.777331   0.000000
    19  H    3.758126   1.764923   1.768907   0.000000
    20  H    2.533381   4.182108   3.598437   3.637885   0.000000
    21  H    3.145322   3.638775   2.878382   2.483700   1.635853
                   21
    21  H    0.000000
 Stoichiometry    C5H14N2
 Framework group  C1[X(C5H14N2)]
 Deg. of freedom    57
 Full point group                 C1      NOp   1
 Largest Abelian subgroup         C1      NOp   1
 Largest concise Abelian subgroup C1      NOp   1
                         Standard orientation:                         
 ---------------------------------------------------------------------
 Center     Atomic      Atomic             Coordinates (Angstroms)
 Number     Number       Type             X           Y           Z
 ---------------------------------------------------------------------
      1          6           0        1.590132   -1.153994   -0.074633
      2          7           0        0.819793    0.044457   -0.393588
      3          6           0        1.534306    1.237421    0.029617
      4          6           0       -0.607629   -0.028721   -0.016884
      5          6           0       -1.312754    1.289628   -0.397348
      6          6           0       -0.844727   -0.324051    1.479834
      7          7           0       -1.153637   -1.162225   -0.782862
      8          1           0        1.861267   -1.232450    0.994151
      9          1           0        2.523977   -1.140345   -0.647648
     10          1           0        1.018302   -2.038069   -0.354744
     11          1           0        2.551793    1.193450   -0.372273
     12          1           0        1.624816    1.344114    1.127709
     13          1           0        1.068253    2.142841   -0.362929
     14          1           0       -2.395148    1.150209   -0.317565
     15          1           0       -1.044192    2.126603    0.253720
     16          1           0       -1.075826    1.562664   -1.430806
     17          1           0       -0.372386    0.435898    2.109242
     18          1           0       -0.444671   -1.303339    1.750445
     19          1           0       -1.915701   -0.321758    1.710384
     20          1           0       -1.077687   -0.947370   -1.773946
     21          1           0       -2.141854   -1.269774   -0.574105
 ---------------------------------------------------------------------
 Rotational constants (GHZ):      3.1475039      2.3197702      1.9300617
 Leave Link  202 at Thu Sep  8 15:17:35 2022, MaxMem= 24159191040 cpu:         0.6
 (Enter /public/home/users/caep010/software/Gaussian09/g09/l301.exe)
 Standard basis: 6-31G(d,p) (6D, 7F)
 Ernie: Thresh=  0.10000D-02 Tol=  0.10000D-05 Strict=F.
 There are   175 symmetry adapted cartesian basis functions of A   symmetry.
 There are   175 symmetry adapted basis functions of A   symmetry.
   175 basis functions,   294 primitive gaussians,   175 cartesian basis functions
    29 alpha electrons       29 beta electrons
       nuclear repulsion energy       353.9107643808 Hartrees.
 IExCor=  402 DFT=T Ex+Corr=B3LYP ExCW=0 ScaHFX=  0.200000
 ScaDFX=  0.800000  0.720000  1.000000  0.810000 ScalE2=  1.000000  1.000000
 IRadAn=      0 IRanWt=     -1 IRanGd=            0 ICorTp=0 IEmpDi=  4
 NAtoms=   21 NActive=   21 NUniq=   21 SFac= 1.00D+00 NAtFMM=   60 NAOKFM=F Big=F
 Integral buffers will be    131072 words long.
 Raffenetti 2 integral format.
 Two-electron integral symmetry is turned on.
 Leave Link  301 at Thu Sep  8 15:17:35 2022, MaxMem= 24159191040 cpu:         2.0
 (Enter /public/home/users/caep010/software/Gaussian09/g09/l302.exe)
 NPDir=0 NMtPBC=     1 NCelOv=     1 NCel=       1 NClECP=     1 NCelD=      1
         NCelK=      1 NCelE2=     1 NClLst=     1 CellRange=     0.0.
 One-electron integrals computed using PRISM.
 NBasis=   175 RedAO= T EigKep=  2.84D-03  NBF=   175
 NBsUse=   175 1.00D-06 EigRej= -1.00D+00 NBFU=   175
 Precomputing XC quadrature grid using
 IXCGrd= 4 IRadAn=           0 IRanWt=          -1 IRanGd=           0 AccXCQ= 0.00D+00.
 Generated NRdTot=       0 NPtTot=           0 NUsed=           0 NTot=          32
 NSgBfM=   175   175   175   175   175 MxSgAt=    21 MxSgA2=    21.
 Leave Link  302 at Thu Sep  8 15:17:35 2022, MaxMem= 24159191040 cpu:        11.9
 (Enter /public/home/users/caep010/software/Gaussian09/g09/l303.exe)
 DipDrv:  MaxL=1.
 Leave Link  303 at Thu Sep  8 15:17:35 2022, MaxMem= 24159191040 cpu:         0.8
 (Enter /public/home/users/caep010/software/Gaussian09/g09/l401.exe)
 ExpMin= 1.61D-01 ExpMax= 4.17D+03 ExpMxC= 6.27D+02 IAcc=1 IRadAn=         1 AccDes= 0.00D+00
 Harris functional with IExCor=  402 and IRadAn=       1 diagonalized for initial guess.
 HarFok:  IExCor=  402 AccDes= 0.00D+00 IRadAn=         1 IDoV= 1 UseB2=F ITyADJ=14
 ICtDFT=  3500011 ScaDFX=  1.000000  1.000000  1.000000  1.000000
 FoFCou: FMM=F IPFlag=           0 FMFlag=      100000 FMFlg1=           0
         NFxFlg=           0 DoJE=T BraDBF=F KetDBF=T FulRan=T
         wScrn=  0.000000 ICntrl=     500 IOpCl=  0 I1Cent=   200000004 NGrid=           0
         NMat0=    1 NMatS0=      1 NMatT0=    0 NMatD0=    1 NMtDS0=    0 NMtDT0=    0
 Petite list used in FoFCou.
 Harris En= -308.518561282368    
 JPrj=0 DoOrth=F DoCkMO=F.
 Leave Link  401 at Thu Sep  8 15:17:36 2022, MaxMem= 24159191040 cpu:        11.2
 (Enter /public/home/users/caep010/software/Gaussian09/g09/l502.exe)
 Closed shell SCF:
 Using DIIS extrapolation, IDIIS=  1040.
 Integral symmetry usage will be decided dynamically.
 Keep R1 ints in memory in canonical form, NReq=121430862.
 IVT=      117362 IEndB=      117362 NGot= 24159191040 MDV= 24040485979
 LenX= 24040485979 LenY= 24040454913
 Requested convergence on RMS density matrix=1.00D-08 within 128 cycles.
 Requested convergence on MAX density matrix=1.00D-06.
 Requested convergence on             energy=1.00D-06.
 No special actions if energy rises.
 FoFCou: FMM=F IPFlag=           0 FMFlag=           0 FMFlg1=           0
         NFxFlg=           0 DoJE=F BraDBF=F KetDBF=F FulRan=T
         wScrn=  0.000000 ICntrl=     600 IOpCl=  0 I1Cent=           0 NGrid=           0
         NMat0=    1 NMatS0=  15400 NMatT0=    0 NMatD0=    1 NMtDS0=    0 NMtDT0=    0
 Symmetry not used in FoFCou.
 Integral accuracy reduced to 1.0D-05 until final iterations.

 Cycle   1  Pass 0  IDiag  1:
 E= -308.190415479887    
 DIIS: error= 3.01D-02 at cycle   1 NSaved=   1.
 NSaved= 1 IEnMin= 1 EnMin= -308.190415479887     IErMin= 1 ErrMin= 3.01D-02
 ErrMax= 3.01D-02  0.00D+00 EMaxC= 1.00D-01 BMatC= 2.71D-01 BMatP= 2.71D-01
 IDIUse=3 WtCom= 6.99D-01 WtEn= 3.01D-01
 Coeff-Com:  0.100D+01
 Coeff-En:   0.100D+01
 Coeff:      0.100D+01
 Gap=     0.223 Goal=   None    Shift=    0.000
 GapD=    0.223 DampG=1.000 DampE=0.500 DampFc=0.5000 IDamp=-1.
 Damping current iteration by 5.00D-01
 RMSDP=6.69D-03 MaxDP=1.53D-01              OVMax= 1.65D-01

 Cycle   2  Pass 0  IDiag  1:
 E= -308.313980486643     Delta-E=       -0.123565006755 Rises=F Damp=T
 DIIS: error= 8.76D-03 at cycle   2 NSaved=   2.
 NSaved= 2 IEnMin= 2 EnMin= -308.313980486643     IErMin= 2 ErrMin= 8.76D-03
 ErrMax= 8.76D-03  0.00D+00 EMaxC= 1.00D-01 BMatC= 1.20D-02 BMatP= 2.71D-01
 IDIUse=3 WtCom= 9.12D-01 WtEn= 8.76D-02
 Coeff-Com:  0.792D-01 0.921D+00
 Coeff-En:   0.133D+00 0.867D+00
 Coeff:      0.839D-01 0.916D+00
 Gap=     0.284 Goal=   None    Shift=    0.000
 RMSDP=1.23D-03 MaxDP=2.12D-02 DE=-1.24D-01 OVMax= 9.85D-02

 Cycle   3  Pass 0  IDiag  1:
 E= -308.467272411763     Delta-E=       -0.153291925120 Rises=F Damp=F
 DIIS: error= 2.86D-03 at cycle   3 NSaved=   3.
 NSaved= 3 IEnMin= 3 EnMin= -308.467272411763     IErMin= 3 ErrMin= 2.86D-03
 ErrMax= 2.86D-03  0.00D+00 EMaxC= 1.00D-01 BMatC= 2.77D-03 BMatP= 1.20D-02
 IDIUse=3 WtCom= 9.71D-01 WtEn= 2.86D-02
 Coeff-Com:  0.628D-02 0.276D+00 0.718D+00
 Coeff-En:   0.000D+00 0.000D+00 0.100D+01
 Coeff:      0.610D-02 0.268D+00 0.726D+00
 Gap=     0.267 Goal=   None    Shift=    0.000
 RMSDP=5.26D-04 MaxDP=1.31D-02 DE=-1.53D-01 OVMax= 1.59D-02

 Cycle   4  Pass 0  IDiag  1:
 E= -308.468518739521     Delta-E=       -0.001246327759 Rises=F Damp=F
 DIIS: error= 1.98D-03 at cycle   4 NSaved=   4.
 NSaved= 4 IEnMin= 4 EnMin= -308.468518739521     IErMin= 4 ErrMin= 1.98D-03
 ErrMax= 1.98D-03  0.00D+00 EMaxC= 1.00D-01 BMatC= 1.44D-03 BMatP= 2.77D-03
 IDIUse=3 WtCom= 9.80D-01 WtEn= 1.98D-02
 Coeff-Com: -0.360D-02 0.519D-01 0.422D+00 0.530D+00
 Coeff-En:   0.000D+00 0.000D+00 0.344D+00 0.656D+00
 Coeff:     -0.353D-02 0.509D-01 0.421D+00 0.532D+00
 Gap=     0.275 Goal=   None    Shift=    0.000
 RMSDP=2.21D-04 MaxDP=7.66D-03 DE=-1.25D-03 OVMax= 8.31D-03

 Cycle   5  Pass 0  IDiag  1:
 E= -308.469732401176     Delta-E=       -0.001213661654 Rises=F Damp=F
 DIIS: error= 2.70D-04 at cycle   5 NSaved=   5.
 NSaved= 5 IEnMin= 5 EnMin= -308.469732401176     IErMin= 5 ErrMin= 2.70D-04
 ErrMax= 2.70D-04  0.00D+00 EMaxC= 1.00D-01 BMatC= 2.39D-05 BMatP= 1.44D-03
 IDIUse=3 WtCom= 9.97D-01 WtEn= 2.70D-03
 Coeff-Com: -0.987D-03 0.302D-02 0.117D+00 0.197D+00 0.684D+00
 Coeff-En:   0.000D+00 0.000D+00 0.000D+00 0.000D+00 0.100D+01
 Coeff:     -0.984D-03 0.301D-02 0.117D+00 0.196D+00 0.685D+00
 Gap=     0.273 Goal=   None    Shift=    0.000
 RMSDP=3.44D-05 MaxDP=1.23D-03 DE=-1.21D-03 OVMax= 1.52D-03

 Cycle   6  Pass 0  IDiag  1:
 E= -308.469749565211     Delta-E=       -0.000017164035 Rises=F Damp=F
 DIIS: error= 1.38D-04 at cycle   6 NSaved=   6.
 NSaved= 6 IEnMin= 6 EnMin= -308.469749565211     IErMin= 6 ErrMin= 1.38D-04
 ErrMax= 1.38D-04  0.00D+00 EMaxC= 1.00D-01 BMatC= 3.06D-06 BMatP= 2.39D-05
 IDIUse=3 WtCom= 9.99D-01 WtEn= 1.38D-03
 Coeff-Com: -0.321D-03-0.199D-03 0.490D-01 0.881D-01 0.377D+00 0.487D+00
 Coeff-En:   0.000D+00 0.000D+00 0.000D+00 0.000D+00 0.000D+00 0.100D+01
 Coeff:     -0.321D-03-0.199D-03 0.490D-01 0.879D-01 0.376D+00 0.487D+00
 Gap=     0.274 Goal=   None    Shift=    0.000
 RMSDP=1.09D-05 MaxDP=3.19D-04 DE=-1.72D-05 OVMax= 4.05D-04

 Cycle   7  Pass 0  IDiag  1:
 E= -308.469752192853     Delta-E=       -0.000002627642 Rises=F Damp=F
 DIIS: error= 1.81D-05 at cycle   7 NSaved=   7.
 NSaved= 7 IEnMin= 7 EnMin= -308.469752192853     IErMin= 7 ErrMin= 1.81D-05
 ErrMax= 1.81D-05  0.00D+00 EMaxC= 1.00D-01 BMatC= 7.88D-08 BMatP= 3.06D-06
 IDIUse=1 WtCom= 1.00D+00 WtEn= 0.00D+00
 Coeff-Com: -0.722D-05-0.381D-03 0.108D-01 0.201D-01 0.974D-01 0.194D+00
 Coeff-Com:  0.678D+00
 Coeff:     -0.722D-05-0.381D-03 0.108D-01 0.201D-01 0.974D-01 0.194D+00
 Coeff:      0.678D+00
 Gap=     0.273 Goal=   None    Shift=    0.000
 RMSDP=2.16D-06 MaxDP=4.72D-05 DE=-2.63D-06 OVMax= 6.46D-05

 Initial convergence to 1.0D-05 achieved.  Increase integral accuracy.
 Cycle   8  Pass 1  IDiag  1:
 E= -308.469823344182     Delta-E=       -0.000071151329 Rises=F Damp=F
 DIIS: error= 2.54D-05 at cycle   1 NSaved=   1.
 NSaved= 1 IEnMin= 1 EnMin= -308.469823344182     IErMin= 1 ErrMin= 2.54D-05
 ErrMax= 2.54D-05  0.00D+00 EMaxC= 1.00D-01 BMatC= 1.37D-07 BMatP= 1.37D-07
 IDIUse=1 WtCom= 1.00D+00 WtEn= 0.00D+00
 Coeff-Com:  0.100D+01
 Coeff:      0.100D+01
 Gap=     0.274 Goal=   None    Shift=    0.000
 RMSDP=2.16D-06 MaxDP=4.72D-05 DE=-7.12D-05 OVMax= 1.36D-04

 Cycle   9  Pass 1  IDiag  1:
 E= -308.469823513690     Delta-E=       -0.000000169507 Rises=F Damp=F
 DIIS: error= 4.60D-06 at cycle   2 NSaved=   2.
 NSaved= 2 IEnMin= 2 EnMin= -308.469823513690     IErMin= 2 ErrMin= 4.60D-06
 ErrMax= 4.60D-06  0.00D+00 EMaxC= 1.00D-01 BMatC= 1.03D-08 BMatP= 1.37D-07
 IDIUse=1 WtCom= 1.00D+00 WtEn= 0.00D+00
 Coeff-Com:  0.832D-01 0.917D+00
 Coeff:      0.832D-01 0.917D+00
 Gap=     0.274 Goal=   None    Shift=    0.000
 RMSDP=1.25D-06 MaxDP=2.56D-05 DE=-1.70D-07 OVMax= 3.60D-05

 Cycle  10  Pass 1  IDiag  1:
 E= -308.469823513495     Delta-E=        0.000000000194 Rises=F Damp=F
 DIIS: error= 4.82D-06 at cycle   3 NSaved=   3.
 NSaved= 3 IEnMin= 2 EnMin= -308.469823513690     IErMin= 2 ErrMin= 4.60D-06
 ErrMax= 4.82D-06  0.00D+00 EMaxC= 1.00D-01 BMatC= 1.16D-08 BMatP= 1.03D-08
 IDIUse=1 WtCom= 1.00D+00 WtEn= 0.00D+00
 Coeff-Com: -0.212D-01 0.521D+00 0.500D+00
 Coeff:     -0.212D-01 0.521D+00 0.500D+00
 Gap=     0.274 Goal=   None    Shift=    0.000
 RMSDP=5.92D-07 MaxDP=1.49D-05 DE= 1.94D-10 OVMax= 1.76D-05

 Cycle  11  Pass 1  IDiag  1:
 E= -308.469823523726     Delta-E=       -0.000000010231 Rises=F Damp=F
 DIIS: error= 8.66D-07 at cycle   4 NSaved=   4.
 NSaved= 4 IEnMin= 4 EnMin= -308.469823523726     IErMin= 4 ErrMin= 8.66D-07
 ErrMax= 8.66D-07  0.00D+00 EMaxC= 1.00D-01 BMatC= 2.11D-10 BMatP= 1.03D-08
 IDIUse=1 WtCom= 1.00D+00 WtEn= 0.00D+00
 Coeff-Com: -0.121D-01 0.211D+00 0.229D+00 0.571D+00
 Coeff:     -0.121D-01 0.211D+00 0.229D+00 0.571D+00
 Gap=     0.274 Goal=   None    Shift=    0.000
 RMSDP=1.03D-07 MaxDP=2.48D-06 DE=-1.02D-08 OVMax= 3.18D-06

 Cycle  12  Pass 1  IDiag  1:
 E= -308.469823523897     Delta-E=       -0.000000000171 Rises=F Damp=F
 DIIS: error= 1.60D-07 at cycle   5 NSaved=   5.
 NSaved= 5 IEnMin= 5 EnMin= -308.469823523897     IErMin= 5 ErrMin= 1.60D-07
 ErrMax= 1.60D-07  0.00D+00 EMaxC= 1.00D-01 BMatC= 1.12D-11 BMatP= 2.11D-10
 IDIUse=1 WtCom= 1.00D+00 WtEn= 0.00D+00
 Coeff-Com: -0.367D-02 0.539D-01 0.614D-01 0.230D+00 0.659D+00
 Coeff:     -0.367D-02 0.539D-01 0.614D-01 0.230D+00 0.659D+00
 Gap=     0.274 Goal=   None    Shift=    0.000
 RMSDP=2.89D-08 MaxDP=9.28D-07 DE=-1.71D-10 OVMax= 1.13D-06

 Cycle  13  Pass 1  IDiag  1:
 E= -308.469823523904     Delta-E=       -0.000000000007 Rises=F Damp=F
 DIIS: error= 7.63D-08 at cycle   6 NSaved=   6.
 NSaved= 6 IEnMin= 6 EnMin= -308.469823523904     IErMin= 6 ErrMin= 7.63D-08
 ErrMax= 7.63D-08  0.00D+00 EMaxC= 1.00D-01 BMatC= 1.84D-12 BMatP= 1.12D-11
 IDIUse=1 WtCom= 1.00D+00 WtEn= 0.00D+00
 Coeff-Com: -0.291D-03-0.192D-03 0.602D-03 0.319D-01 0.316D+00 0.652D+00
 Coeff:     -0.291D-03-0.192D-03 0.602D-03 0.319D-01 0.316D+00 0.652D+00
 Gap=     0.274 Goal=   None    Shift=    0.000
 RMSDP=1.09D-08 MaxDP=3.16D-07 DE=-6.82D-12 OVMax= 4.29D-07

 Cycle  14  Pass 1  IDiag  1:
 E= -308.469823523903     Delta-E=        0.000000000001 Rises=F Damp=F
 DIIS: error= 1.44D-08 at cycle   7 NSaved=   7.
 NSaved= 7 IEnMin= 6 EnMin= -308.469823523904     IErMin= 7 ErrMin= 1.44D-08
 ErrMax= 1.44D-08  0.00D+00 EMaxC= 1.00D-01 BMatC= 9.35D-14 BMatP= 1.84D-12
 IDIUse=1 WtCom= 1.00D+00 WtEn= 0.00D+00
 Coeff-Com: -0.185D-04-0.195D-02-0.191D-02 0.623D-02 0.125D+00 0.310D+00
 Coeff-Com:  0.563D+00
 Coeff:     -0.185D-04-0.195D-02-0.191D-02 0.623D-02 0.125D+00 0.310D+00
 Coeff:      0.563D+00
 Gap=     0.274 Goal=   None    Shift=    0.000
 RMSDP=2.15D-09 MaxDP=7.05D-08 DE= 1.48D-12 OVMax= 8.33D-08

 SCF Done:  E(RB3LYP) =  -308.469823524     A.U. after   14 cycles
            NFock= 14  Conv=0.22D-08     -V/T= 2.0098
 KE= 3.054837065740D+02 PE=-1.422820019541D+03 EE= 4.549557250626D+02
 Leave Link  502 at Thu Sep  8 15:17:41 2022, MaxMem= 24159191040 cpu:        71.0
 (Enter /public/home/users/caep010/software/Gaussian09/g09/l601.exe)
 Copying SCF densities to generalized density rwf, IOpCl= 0 IROHF=0.

 **********************************************************************

            Population analysis using the SCF density.

 **********************************************************************

 Orbital symmetries:
       Occupied  (A) (A) (A) (A) (A) (A) (A) (A) (A) (A) (A) (A)
                 (A) (A) (A) (A) (A) (A) (A) (A) (A) (A) (A) (A)
                 (A) (A) (A) (A) (A)
       Virtual   (A) (A) (A) (A) (A) (A) (A) (A) (A) (A) (A) (A)
                 (A) (A) (A) (A) (A) (A) (A) (A) (A) (A) (A) (A)
                 (A) (A) (A) (A) (A) (A) (A) (A) (A) (A) (A) (A)
                 (A) (A) (A) (A) (A) (A) (A) (A) (A) (A) (A) (A)
                 (A) (A) (A) (A) (A) (A) (A) (A) (A) (A) (A) (A)
                 (A) (A) (A) (A) (A) (A) (A) (A) (A) (A) (A) (A)
                 (A) (A) (A) (A) (A) (A) (A) (A) (A) (A) (A) (A)
                 (A) (A) (A) (A) (A) (A) (A) (A) (A) (A) (A) (A)
                 (A) (A) (A) (A) (A) (A) (A) (A) (A) (A) (A) (A)
                 (A) (A) (A) (A) (A) (A) (A) (A) (A) (A) (A) (A)
                 (A) (A) (A) (A) (A) (A) (A) (A) (A) (A) (A) (A)
                 (A) (A) (A) (A) (A) (A) (A) (A) (A) (A) (A) (A)
                 (A) (A)
 The electronic state is 1-A.
 Alpha  occ. eigenvalues --  -14.31313 -14.30446 -10.24065 -10.19414 -10.18327
 Alpha  occ. eigenvalues --  -10.17140 -10.16752  -0.92664  -0.85364  -0.74006
 Alpha  occ. eigenvalues --   -0.69733  -0.67631  -0.63601  -0.53710  -0.49199
 Alpha  occ. eigenvalues --   -0.46529  -0.45335  -0.43748  -0.41977  -0.39562
 Alpha  occ. eigenvalues --   -0.38974  -0.37873  -0.36914  -0.35901  -0.34889
 Alpha  occ. eigenvalues --   -0.34530  -0.33564  -0.23235  -0.20016
 Alpha virt. eigenvalues --    0.07335   0.11354   0.12552   0.13822   0.14241
 Alpha virt. eigenvalues --    0.15235   0.15739   0.17024   0.18361   0.18987
 Alpha virt. eigenvalues --    0.19606   0.20184   0.20706   0.21968   0.22639
 Alpha virt. eigenvalues --    0.23279   0.24615   0.27191   0.28729   0.30828
 Alpha virt. eigenvalues --    0.50529   0.51835   0.53355   0.53647   0.55543
 Alpha virt. eigenvalues --    0.57859   0.59053   0.59788   0.64394   0.65581
 Alpha virt. eigenvalues --    0.69023   0.72098   0.74316   0.74979   0.77347
 Alpha virt. eigenvalues --    0.78068   0.81533   0.83674   0.85086   0.86344
 Alpha virt. eigenvalues --    0.86710   0.88108   0.88476   0.89783   0.90362
 Alpha virt. eigenvalues --    0.90943   0.92762   0.93953   0.94974   0.95644
 Alpha virt. eigenvalues --    0.97664   0.98893   0.99421   1.01388   1.07699
 Alpha virt. eigenvalues --    1.15070   1.23104   1.27785   1.29985   1.34246
 Alpha virt. eigenvalues --    1.39322   1.45330   1.48964   1.52036   1.54675
 Alpha virt. eigenvalues --    1.55690   1.63033   1.69386   1.74252   1.79595
 Alpha virt. eigenvalues --    1.82274   1.85743   1.86105   1.87859   1.93017
 Alpha virt. eigenvalues --    1.94419   1.96888   1.98377   2.00639   2.00971
 Alpha virt. eigenvalues --    2.01879   2.04846   2.05599   2.05817   2.06675
 Alpha virt. eigenvalues --    2.09784   2.10630   2.12318   2.13299   2.14487
 Alpha virt. eigenvalues --    2.14576   2.15863   2.18152   2.20273   2.21552
 Alpha virt. eigenvalues --    2.23336   2.28981   2.33629   2.36761   2.42818
 Alpha virt. eigenvalues --    2.44261   2.44757   2.49279   2.51853   2.56064
 Alpha virt. eigenvalues --    2.58270   2.59839   2.66918   2.69123   2.69778
 Alpha virt. eigenvalues --    2.72212   2.74329   2.76273   2.76741   2.79082
 Alpha virt. eigenvalues --    2.83996   2.87775   2.88936   2.89372   2.91409
 Alpha virt. eigenvalues --    2.95690   2.97426   2.98536   3.03194   3.12917
 Alpha virt. eigenvalues --    3.17688   3.20331   3.22813   3.24732   3.31231
 Alpha virt. eigenvalues --    3.41683   3.43350   3.43565   3.44122   3.44698
 Alpha virt. eigenvalues --    3.48320   3.49160   3.52765   3.55062   4.07636
 Alpha virt. eigenvalues --    4.09437   4.46732   4.49039   4.53226   4.56269
 Alpha virt. eigenvalues --    4.72283
          Condensed to atoms (all electrons):
               1          2          3          4          5          6
     1  C    4.827683   0.325708  -0.058572  -0.042197   0.005992  -0.006410
     2  N    0.325708   6.889665   0.328419   0.322636  -0.074230  -0.061955
     3  C   -0.058572   0.328419   4.807173  -0.042151  -0.004861  -0.005733
     4  C   -0.042197   0.322636  -0.042151   4.635905   0.387162   0.362003
     5  C    0.005992  -0.074230  -0.004861   0.387162   5.074244  -0.079837
     6  C   -0.006410  -0.061955  -0.005733   0.362003  -0.079837   5.051963
     7  N   -0.020800  -0.080297   0.004429   0.330767  -0.061926  -0.081374
     8  H    0.360628  -0.050385  -0.007881  -0.006969  -0.000193   0.005357
     9  H    0.386472  -0.042220  -0.003983   0.005185  -0.000162  -0.000140
    10  H    0.387777  -0.035148   0.005641  -0.005129   0.000625  -0.003165
    11  H   -0.003995  -0.039375   0.389075   0.005673   0.000264  -0.000259
    12  H   -0.006694  -0.049802   0.357276  -0.007544  -0.001986   0.005848
    13  H    0.005762  -0.037891   0.388885  -0.006353   0.005630  -0.000644
    14  H   -0.000154   0.004328   0.000348  -0.027008   0.367957  -0.002911
    15  H   -0.000186  -0.000577  -0.001752  -0.022987   0.352636  -0.003213
    16  H   -0.000058   0.003470  -0.002077  -0.025698   0.361637   0.006671
    17  H   -0.000374  -0.005006   0.001514  -0.027244  -0.001920   0.375389
    18  H    0.001940  -0.005325   0.000105  -0.024832   0.005781   0.375709
    19  H    0.000076   0.004680   0.000056  -0.021980  -0.004714   0.364118
    20  H    0.000307   0.006017  -0.000181  -0.034025  -0.006983   0.009152
    21  H    0.000370   0.006647  -0.000260  -0.033548  -0.003898  -0.002923
               7          8          9         10         11         12
     1  C   -0.020800   0.360628   0.386472   0.387777  -0.003995  -0.006694
     2  N   -0.080297  -0.050385  -0.042220  -0.035148  -0.039375  -0.049802
     3  C    0.004429  -0.007881  -0.003983   0.005641   0.389075   0.357276
     4  C    0.330767  -0.006969   0.005185  -0.005129   0.005673  -0.007544
     5  C   -0.061926  -0.000193  -0.000162   0.000625   0.000264  -0.001986
     6  C   -0.081374   0.005357  -0.000140  -0.003165  -0.000259   0.005848
     7  N    6.824205  -0.000281   0.000416   0.020362  -0.000109  -0.000246
     8  H   -0.000281   0.701894  -0.049814  -0.037648  -0.002634   0.013756
     9  H    0.000416  -0.049814   0.628821  -0.023985   0.006007  -0.001771
    10  H    0.020362  -0.037648  -0.023985   0.555513   0.000196  -0.000328
    11  H   -0.000109  -0.002634   0.006007   0.000196   0.614648  -0.046422
    12  H   -0.000246   0.013756  -0.001771  -0.000328  -0.046422   0.704750
    13  H    0.000203  -0.000366   0.000195  -0.000254  -0.025420  -0.046937
    14  H   -0.003631   0.000007   0.000003  -0.000012  -0.000009   0.000009
    15  H    0.005702  -0.000014  -0.000001  -0.000031   0.000045   0.000616
    16  H   -0.003660   0.000034  -0.000027  -0.000035  -0.000169   0.000566
    17  H    0.004292   0.000648  -0.000027   0.000121  -0.000096   0.003014
    18  H   -0.000002   0.001296  -0.000082   0.001455  -0.000011   0.000066
    19  H   -0.001720  -0.000246   0.000002   0.000011   0.000005  -0.000343
    20  H    0.320140   0.000194  -0.000185  -0.001400  -0.000034   0.000062
    21  H    0.326232   0.000039  -0.000003  -0.000527   0.000004   0.000019
              13         14         15         16         17         18
     1  C    0.005762  -0.000154  -0.000186  -0.000058  -0.000374   0.001940
     2  N   -0.037891   0.004328  -0.000577   0.003470  -0.005006  -0.005325
     3  C    0.388885   0.000348  -0.001752  -0.002077   0.001514   0.000105
     4  C   -0.006353  -0.027008  -0.022987  -0.025698  -0.027244  -0.024832
     5  C    0.005630   0.367957   0.352636   0.361637  -0.001920   0.005781
     6  C   -0.000644  -0.002911  -0.003213   0.006671   0.375389   0.375709
     7  N    0.000203  -0.003631   0.005702  -0.003660   0.004292  -0.000002
     8  H   -0.000366   0.000007  -0.000014   0.000034   0.000648   0.001296
     9  H    0.000195   0.000003  -0.000001  -0.000027  -0.000027  -0.000082
    10  H   -0.000254  -0.000012  -0.000031  -0.000035   0.000121   0.001455
    11  H   -0.025420  -0.000009   0.000045  -0.000169  -0.000096  -0.000011
    12  H   -0.046937   0.000009   0.000616   0.000566   0.003014   0.000066
    13  H    0.612301  -0.000024  -0.000231  -0.000140  -0.000080  -0.000014
    14  H   -0.000024   0.620801  -0.028482  -0.028608  -0.000016  -0.000088
    15  H   -0.000231  -0.028482   0.624944  -0.030046   0.001422  -0.000084
    16  H   -0.000140  -0.028608  -0.030046   0.606636  -0.000034  -0.000219
    17  H   -0.000080  -0.000016   0.001422  -0.000034   0.606450  -0.028165
    18  H   -0.000014  -0.000088  -0.000084  -0.000219  -0.028165   0.587547
    19  H    0.000020   0.002450   0.000219  -0.000087  -0.031277  -0.031006
    20  H   -0.000073   0.000313   0.000024   0.005429  -0.000271  -0.000092
    21  H   -0.000014   0.004221   0.000067   0.000144  -0.000151  -0.000246
              19         20         21
     1  C    0.000076   0.000307   0.000370
     2  N    0.004680   0.006017   0.006647
     3  C    0.000056  -0.000181  -0.000260
     4  C   -0.021980  -0.034025  -0.033548
     5  C   -0.004714  -0.006983  -0.003898
     6  C    0.364118   0.009152  -0.002923
     7  N   -0.001720   0.320140   0.326232
     8  H   -0.000246   0.000194   0.000039
     9  H    0.000002  -0.000185  -0.000003
    10  H    0.000011  -0.001400  -0.000527
    11  H    0.000005  -0.000034   0.000004
    12  H   -0.000343   0.000062   0.000019
    13  H    0.000020  -0.000073  -0.000014
    14  H    0.002450   0.000313   0.004221
    15  H    0.000219   0.000024   0.000067
    16  H   -0.000087   0.005429   0.000144
    17  H   -0.031277  -0.000271  -0.000151
    18  H   -0.031006  -0.000092  -0.000246
    19  H    0.626933  -0.000231   0.002422
    20  H   -0.000231   0.493575  -0.028496
    21  H    0.002422  -0.028496   0.500719
 Mulliken charges:
               1
     1  C   -0.163274
     2  N   -0.409358
     3  C   -0.155467
     4  C    0.278334
     5  C   -0.321218
     6  C   -0.307645
     7  N   -0.582701
     8  H    0.072579
     9  H    0.095299
    10  H    0.135961
    11  H    0.102616
    12  H    0.076091
    13  H    0.105446
    14  H    0.090505
    15  H    0.101931
    16  H    0.106272
    17  H    0.101811
    18  H    0.116266
    19  H    0.090612
    20  H    0.236757
    21  H    0.229183
 Sum of Mulliken charges =  -0.00000
 Mulliken charges with hydrogens summed into heavy atoms:
               1
     1  C    0.140565
     2  N   -0.409358
     3  C    0.128686
     4  C    0.278334
     5  C   -0.022510
     6  C    0.001044
     7  N   -0.116761
 Electronic spatial extent (au):  <R**2>=            825.2748
 Charge=              0.0000 electrons
 Dipole moment (field-independent basis, Debye):
    X=             -0.8618    Y=              0.8611    Z=              0.1375  Tot=              1.2260
 Quadrupole moment (field-independent basis, Debye-Ang):
   XX=            -42.7366   YY=            -47.9851   ZZ=            -46.1361
   XY=              0.5512   XZ=              1.2011   YZ=             -0.0020
 Traceless Quadrupole moment (field-independent basis, Debye-Ang):
   XX=              2.8827   YY=             -2.3658   ZZ=             -0.5168
   XY=              0.5512   XZ=              1.2011   YZ=             -0.0020
 Octapole moment (field-independent basis, Debye-Ang**2):
  XXX=             -7.3031  YYY=              3.2304  ZZZ=             -7.1881  XYY=              1.8088
  XXY=             -4.4066  XXZ=             -4.1324  XZZ=             -3.6382  YZZ=             -1.9646
  YYZ=             -0.1175  XYZ=             -0.7565
 Hexadecapole moment (field-independent basis, Debye-Ang**3):
 XXXX=           -491.5878 YYYY=           -368.5220 ZZZZ=           -225.2709 XXXY=             16.2214
 XXXZ=             -1.0056 YYYX=              1.3209 YYYZ=             -1.5130 ZZZX=             10.3171
 ZZZY=              6.6526 XXYY=           -146.2372 XXZZ=           -125.2459 YYZZ=            -97.3311
 XXYZ=              3.7248 YYXZ=             -0.6513 ZZXY=              3.0875
 N-N= 3.539107643808D+02 E-N=-1.422820017718D+03  KE= 3.054837065740D+02
 No NMR shielding tensors so no spin-rotation constants.
 Leave Link  601 at Thu Sep  8 15:17:41 2022, MaxMem= 24159191040 cpu:        11.0
 (Enter /public/home/users/caep010/software/Gaussian09/g09/l701.exe)
 Compute integral first derivatives.
 ... and contract with generalized density number  0.
 Leave Link  701 at Thu Sep  8 15:17:41 2022, MaxMem= 24159191040 cpu:        11.2
 (Enter /public/home/users/caep010/software/Gaussian09/g09/l702.exe)
 L702 exits ... SP integral derivatives will be done elsewhere.
 Leave Link  702 at Thu Sep  8 15:17:41 2022, MaxMem= 24159191040 cpu:         0.5
 (Enter /public/home/users/caep010/software/Gaussian09/g09/l703.exe)
 Compute integral first derivatives, UseDBF=F ICtDFT=           0.
 Integral derivatives from FoFJK, PRISM(SPDF).
 Calling FoFJK, ICntrl=      2127 FMM=F ISym2X=0 I1Cent= 0 IOpClX= 0 NMat=1 NMatS=1 NMatT=0.
 FoFJK:  IHMeth= 1 ICntrl=    2127 DoSepK=F KAlg= 0 I1Cent=   0 FoldK=F
 IRaf=         0 NMat=   1 IRICut=       1 DoRegI=T DoRafI=F ISym2E= 0.
 FoFCou: FMM=F IPFlag=           0 FMFlag=      100000 FMFlg1=         800
         NFxFlg=           0 DoJE=F BraDBF=F KetDBF=F FulRan=T
         wScrn=  0.000000 ICntrl=    2127 IOpCl=  0 I1Cent=           0 NGrid=           0
         NMat0=    1 NMatS0=      1 NMatT0=    0 NMatD0=    1 NMtDS0=    0 NMtDT0=    0
 Symmetry not used in FoFCou.
 Leave Link  703 at Thu Sep  8 15:17:42 2022, MaxMem= 24159191040 cpu:        17.9
 (Enter /public/home/users/caep010/software/Gaussian09/g09/l716.exe)
 Dipole        =-3.39050057D-01 3.38763938D-01 5.40925894D-02
 ***** Axes restored to original set *****
 -------------------------------------------------------------------
 Center     Atomic                   Forces (Hartrees/Bohr)
 Number     Number              X              Y              Z
 -------------------------------------------------------------------
      1        6           0.000654764    0.000239438   -0.001078263
      2        7           0.000640152    0.001252131    0.001617287
      3        6           0.000731694   -0.001199819   -0.000171880
      4        6          -0.001122113   -0.000158040   -0.000510285
      5        6          -0.000256965   -0.000057669    0.000166257
      6        6          -0.000187598   -0.000013664   -0.000061435
      7        7           0.000605785   -0.000020268   -0.000881950
      8        1           0.000062603    0.000036987   -0.000285613
      9        1           0.000005681    0.000088915    0.000091286
     10        1          -0.000100299    0.000097718    0.000029718
     11        1          -0.000050092   -0.000032948    0.000159597
     12        1           0.000074995   -0.000270736   -0.000007800
     13        1           0.000077073   -0.000037461    0.000123160
     14        1          -0.000206189   -0.000132969    0.000098328
     15        1          -0.000037059   -0.000187867    0.000104142
     16        1          -0.000001175    0.000107564    0.000163400
     17        1           0.000058936   -0.000180030   -0.000047308
     18        1           0.000073026    0.000078267   -0.000104548
     19        1          -0.000197373   -0.000053918   -0.000134498
     20        1           0.000550165    0.000547850    0.001167211
     21        1          -0.001376011   -0.000103481   -0.000436805
 -------------------------------------------------------------------
 Cartesian Forces:  Max     0.001617287 RMS     0.000498613
 Leave Link  716 at Thu Sep  8 15:17:42 2022, MaxMem= 24159191040 cpu:         0.7
 (Enter /public/home/users/caep010/software/Gaussian09/g09/l103.exe)

 GradGradGradGradGradGradGradGradGradGradGradGradGradGradGradGradGradGrad
 Berny optimization.
 FormGI is forming the generalized inverse of G from B-inverse, IUseBI=4.
 Internal  Forces:  Max     0.002158930 RMS     0.000400702
 Search for a local minimum.
 Step number   1 out of a maximum of  108
 All quantities printed in internal units (Hartrees-Bohrs-Radians)
 RMS Force = .40070D-03 SwitMx=.10000D-02 MixMth= 2
 Mixed Optimization -- En-DIIS/RFO-DIIS
 Second derivative matrix not updated -- first step.
 ITU=  0
     Eigenvalues ---    0.00230   0.00230   0.00659   0.00726   0.00899
     Eigenvalues ---    0.00983   0.02113   0.04464   0.04660   0.05234
     Eigenvalues ---    0.05419   0.05499   0.05556   0.05671   0.06591
     Eigenvalues ---    0.06957   0.07128   0.07596   0.07615   0.15127
     Eigenvalues ---    0.16000   0.16000   0.16000   0.16000   0.16000
     Eigenvalues ---    0.16000   0.16000   0.16000   0.16000   0.16000
     Eigenvalues ---    0.16000   0.16000   0.16000   0.16000   0.16424
     Eigenvalues ---    0.18271   0.19171   0.28177   0.28279   0.32923
     Eigenvalues ---    0.33089   0.34160   0.34183   0.34256   0.34257
     Eigenvalues ---    0.34326   0.34357   0.34370   0.34592   0.34655
     Eigenvalues ---    0.34787   0.34869   0.35386   0.36971   0.37784
     Eigenvalues ---    0.44829   0.45025
 RFO step:  Lambda=-5.89944261D-05 EMin= 2.30000000D-03
 Linear search not attempted -- first point.
 Iteration  1 RMS(Cart)=  0.01072655 RMS(Int)=  0.00004093
 Iteration  2 RMS(Cart)=  0.00005223 RMS(Int)=  0.00000082
 Iteration  3 RMS(Cart)=  0.00000000 RMS(Int)=  0.00000082
 ITry= 1 IFail=0 DXMaxC= 3.28D-02 DCOld= 1.00D+10 DXMaxT= 3.00D-01 DXLimC= 3.00D+00 Rises=F
 Variable       Old X    -DE/DX   Delta X   Delta X   Delta X     New X
                                 (Linear)    (Quad)   (Total)
    R1        2.75890   0.00144   0.00000   0.00389   0.00389   2.76279
    R2        2.08896   0.00021   0.00000   0.00065   0.00065   2.08960
    R3        2.07061   0.00006   0.00000   0.00018   0.00018   2.07079
    R4        2.05888   0.00013   0.00000   0.00037   0.00037   2.05925
    R5        2.74680   0.00169   0.00000   0.00448   0.00448   2.75128
    R6        2.79321   0.00216   0.00000   0.00621   0.00621   2.79942
    R7        2.06899  -0.00002   0.00000  -0.00006  -0.00006   2.06894
    R8        2.09187   0.00019   0.00000   0.00059   0.00059   2.09246
    R9        2.06239   0.00009   0.00000   0.00025   0.00025   2.06264
   R10        2.91533   0.00075   0.00000   0.00266   0.00266   2.91799
   R11        2.91753   0.00044   0.00000   0.00156   0.00156   2.91910
   R12        2.78353   0.00048   0.00000   0.00135   0.00135   2.78488
   R13        2.06783   0.00019   0.00000   0.00055   0.00055   2.06838
   R14        2.06711   0.00018   0.00000   0.00053   0.00053   2.06763
   R15        2.06899   0.00018   0.00000   0.00054   0.00054   2.06952
   R16        2.06731   0.00020   0.00000   0.00057   0.00057   2.06789
   R17        2.06342   0.00014   0.00000   0.00042   0.00042   2.06384
   R18        2.07022   0.00021   0.00000   0.00062   0.00062   2.07083
   R19        1.92175   0.00135   0.00000   0.00300   0.00300   1.92475
   R20        1.91946   0.00144   0.00000   0.00319   0.00319   1.92265
    A1        1.98112   0.00035   0.00000   0.00258   0.00258   1.98370
    A2        1.90204  -0.00009   0.00000  -0.00056  -0.00057   1.90148
    A3        1.91028  -0.00019   0.00000  -0.00154  -0.00155   1.90873
    A4        1.87283  -0.00001   0.00000   0.00065   0.00065   1.87348
    A5        1.89623  -0.00007   0.00000  -0.00043  -0.00043   1.89580
    A6        1.89966   0.00000   0.00000  -0.00076  -0.00076   1.89890
    A7        1.92916   0.00001   0.00000  -0.00101  -0.00101   1.92815
    A8        1.99680  -0.00021   0.00000  -0.00210  -0.00211   1.99470
    A9        2.02767   0.00012   0.00000  -0.00031  -0.00031   2.02735
   A10        1.89335  -0.00001   0.00000  -0.00027  -0.00027   1.89308
   A11        1.99119   0.00031   0.00000   0.00239   0.00239   1.99357
   A12        1.94577   0.00000   0.00000  -0.00022  -0.00022   1.94555
   A13        1.86712  -0.00005   0.00000   0.00019   0.00019   1.86731
   A14        1.87355  -0.00016   0.00000  -0.00189  -0.00189   1.87165
   A15        1.88783  -0.00012   0.00000  -0.00044  -0.00044   1.88740
   A16        1.91371   0.00007   0.00000   0.00110   0.00110   1.91481
   A17        1.98761  -0.00001   0.00000   0.00030   0.00030   1.98791
   A18        1.83749  -0.00002   0.00000  -0.00034  -0.00034   1.83714
   A19        1.90960   0.00001   0.00000   0.00025   0.00025   1.90985
   A20        1.93900  -0.00004   0.00000  -0.00062  -0.00062   1.93838
   A21        1.87549  -0.00002   0.00000  -0.00079  -0.00079   1.87470
   A22        1.90207   0.00022   0.00000   0.00140   0.00140   1.90348
   A23        1.97672   0.00014   0.00000   0.00088   0.00088   1.97760
   A24        1.92515  -0.00005   0.00000  -0.00034  -0.00034   1.92482
   A25        1.87229  -0.00018   0.00000  -0.00107  -0.00107   1.87122
   A26        1.89089  -0.00009   0.00000  -0.00060  -0.00060   1.89028
   A27        1.89428  -0.00005   0.00000  -0.00035  -0.00035   1.89393
   A28        1.93753   0.00004   0.00000   0.00022   0.00022   1.93775
   A29        1.93430  -0.00007   0.00000  -0.00059  -0.00059   1.93371
   A30        1.93237   0.00018   0.00000   0.00132   0.00132   1.93369
   A31        1.89889  -0.00002   0.00000  -0.00046  -0.00046   1.89842
   A32        1.87503  -0.00008   0.00000  -0.00022  -0.00022   1.87481
   A33        1.88378  -0.00005   0.00000  -0.00029  -0.00029   1.88348
   A34        1.89286  -0.00029   0.00000  -0.00111  -0.00111   1.89176
   A35        1.91266   0.00001   0.00000   0.00073   0.00073   1.91339
   A36        1.87059   0.00026   0.00000   0.00313   0.00313   1.87373
    D1        0.97241   0.00004   0.00000  -0.00169  -0.00169   0.97072
    D2       -1.35610   0.00005   0.00000   0.00173   0.00173  -1.35437
    D3       -1.11353  -0.00012   0.00000  -0.00378  -0.00377  -1.11730
    D4        2.84115  -0.00011   0.00000  -0.00035  -0.00035   2.84079
    D5        3.09403   0.00005   0.00000  -0.00161  -0.00161   3.09242
    D6        0.76552   0.00006   0.00000   0.00181   0.00181   0.76733
    D7        0.89681   0.00020   0.00000   0.00469   0.00469   0.90151
    D8       -1.18225   0.00008   0.00000   0.00313   0.00313  -1.17912
    D9        2.95620   0.00001   0.00000   0.00208   0.00208   2.95828
   D10       -3.07352   0.00003   0.00000   0.00029   0.00028  -3.07324
   D11        1.13060  -0.00009   0.00000  -0.00127  -0.00127   1.12933
   D12       -1.01413  -0.00017   0.00000  -0.00233  -0.00233  -1.01646
   D13        3.13858   0.00008   0.00000   0.01155   0.01155  -3.13306
   D14        0.99256   0.00002   0.00000   0.01017   0.01017   1.00273
   D15       -1.05744   0.00006   0.00000   0.01119   0.01119  -1.04625
   D16        0.85723   0.00015   0.00000   0.01557   0.01557   0.87280
   D17       -1.28879   0.00009   0.00000   0.01419   0.01419  -1.27459
   D18        2.94440   0.00013   0.00000   0.01521   0.01521   2.95962
   D19        2.93036   0.00001   0.00000   0.01120   0.01120   2.94157
   D20       -1.27037   0.00002   0.00000   0.01137   0.01137  -1.25899
   D21        0.85658   0.00001   0.00000   0.01129   0.01129   0.86787
   D22       -1.16134   0.00006   0.00000   0.01252   0.01252  -1.14882
   D23        0.92112   0.00006   0.00000   0.01269   0.01269   0.93381
   D24        3.04807   0.00006   0.00000   0.01260   0.01260   3.06067
   D25        0.90656   0.00001   0.00000   0.01132   0.01132   0.91789
   D26        2.98902   0.00002   0.00000   0.01149   0.01149   3.00051
   D27       -1.16722   0.00001   0.00000   0.01141   0.01141  -1.15581
   D28        1.01566   0.00003   0.00000   0.00413   0.00413   1.01978
   D29       -1.09666   0.00007   0.00000   0.00497   0.00497  -1.09170
   D30        3.09666   0.00007   0.00000   0.00485   0.00485   3.10152
   D31       -1.13260  -0.00007   0.00000   0.00229   0.00229  -1.13031
   D32        3.03826  -0.00003   0.00000   0.00313   0.00313   3.04139
   D33        0.94840  -0.00003   0.00000   0.00302   0.00302   0.95142
   D34        3.04358  -0.00001   0.00000   0.00336   0.00336   3.04694
   D35        0.93126   0.00003   0.00000   0.00420   0.00420   0.93546
   D36       -1.15860   0.00003   0.00000   0.00409   0.00409  -1.15451
   D37       -1.10084   0.00007   0.00000   0.00419   0.00419  -1.09665
   D38       -3.13750  -0.00009   0.00000   0.00067   0.00067  -3.13684
   D39        0.96946   0.00013   0.00000   0.00498   0.00498   0.97444
   D40       -1.06720  -0.00003   0.00000   0.00145   0.00145  -1.06575
   D41        3.05782   0.00010   0.00000   0.00443   0.00443   3.06225
   D42        1.02116  -0.00006   0.00000   0.00090   0.00090   1.02206
         Item               Value     Threshold  Converged?
 Maximum Force            0.002159     0.000450     NO 
 RMS     Force            0.000401     0.000300     NO 
 Maximum Displacement     0.032832     0.001800     NO 
 RMS     Displacement     0.010730     0.001200     NO 
 Predicted change in Energy=-2.957518D-05
 Lowest energy point so far.  Saving SCF results.
 GradGradGradGradGradGradGradGradGradGradGradGradGradGradGradGradGradGrad

 Leave Link  103 at Thu Sep  8 15:17:42 2022, MaxMem= 24159191040 cpu:         4.5
 (Enter /public/home/users/caep010/software/Gaussian09/g09/l202.exe)
                          Input orientation:                          
 ---------------------------------------------------------------------
 Center     Atomic      Atomic             Coordinates (Angstroms)
 Number     Number       Type             X           Y           Z
 ---------------------------------------------------------------------
      1          6           0        1.549080    1.024205   -0.773654
      2          7           0        0.840694    0.322896    0.295838
      3          6           0        1.565546   -0.878504    0.684319
      4          6           0       -0.612816    0.161100    0.059948
      5          6           0       -1.255027   -0.578313    1.253758
      6          6           0       -0.955246   -0.583041   -1.249690
      7          7           0       -1.141154    1.531554   -0.060449
      8          1           0        1.747111    0.395380   -1.661397
      9          1           0        2.517975    1.367020   -0.393479
     10          1           0        0.967003    1.891441   -1.084389
     11          1           0        2.604698   -0.604252    0.893148
     12          1           0        1.588897   -1.666425   -0.093309
     13          1           0        1.156268   -1.314332    1.597510
     14          1           0       -2.344439   -0.513078    1.170457
     15          1           0       -0.996474   -1.640677    1.294813
     16          1           0       -0.953537   -0.110335    2.196861
     17          1           0       -0.505772   -1.580653   -1.263436
     18          1           0       -0.598063   -0.024652   -2.117668
     19          1           0       -2.038785   -0.709974   -1.353082
     20          1           0       -0.990642    2.012855    0.824487
     21          1           0       -2.145317    1.497888   -0.220687
 ---------------------------------------------------------------------
                    Distance matrix (angstroms):
                    1          2          3          4          5
     1  C    0.000000
     2  N    1.462004   0.000000
     3  C    2.397136   1.455916   0.000000
     4  C    2.472577   1.481389   2.493167   0.000000
     5  C    3.813329   2.474234   2.893097   1.544134   0.000000
     6  C    3.013552   2.536686   3.190938   1.544719   2.521338
     7  N    2.829032   2.348513   3.699904   1.473696   2.488302
     8  H    1.105769   2.158150   2.675468   2.930387   4.296398
     9  H    1.095816   2.092516   2.666674   3.385512   4.553378
    10  H    1.089710   2.093159   3.340536   2.607569   4.062516
    11  H    2.558209   2.080408   1.094834   3.410628   3.876621
    12  H    2.775599   2.160704   1.107281   2.865463   3.329636
    13  H    3.353427   2.115291   1.091500   2.769595   2.544452
    14  H    4.615440   3.407180   3.957000   2.164778   1.094538
    15  H    4.226109   2.868581   2.741817   2.217766   1.094144
    16  H    4.046508   2.649687   3.037046   2.180864   1.095145
    17  H    3.353742   2.804961   2.928673   2.190093   2.811109
    18  H    2.741659   2.831222   3.641620   2.185573   3.479174
    19  H    4.026896   3.475220   4.143744   2.188335   2.725293
    20  H    3.159378   2.547395   3.861827   2.038693   2.639758
    21  H    3.765464   3.250179   4.498532   2.052881   2.697632
                    6          7          8          9         10
     6  C    0.000000
     7  N    2.433181   0.000000
     8  H    2.903367   3.492277   0.000000
     9  H    4.074199   3.677935   1.773677   0.000000
    10  H    3.137743   2.371139   1.783173   1.777044   0.000000
    11  H    4.155166   4.416155   2.874094   2.355598   3.580668
    12  H    2.997266   4.204917   2.595182   3.186703   3.745318
    13  H    3.619369   4.015725   3.727289   3.606651   4.183944
    14  H    2.791391   2.672740   5.058207   5.442768   4.672439
    15  H    2.755865   3.452639   4.517960   4.924218   4.689532
    16  H    3.478817   2.797579   4.736602   4.576444   4.296765
    17  H    1.094278   3.396575   3.023005   4.311455   3.775787
    18  H    1.092137   2.636071   2.425788   3.823515   2.681140
    19  H    1.095837   2.738812   3.955992   5.098902   3.984259
    20  H    3.322971   1.018536   4.036227   3.769740   2.736955
    21  H    2.608713   1.017425   4.294434   4.668327   3.253829
                   11         12         13         14         15
    11  H    0.000000
    12  H    1.770074   0.000000
    13  H    1.760196   1.780451   0.000000
    14  H    4.957738   4.289340   3.616536   0.000000
    15  H    3.768814   2.934568   2.198278   1.761804   0.000000
    16  H    3.821605   3.759025   2.502021   1.774912   1.776930
    17  H    3.908867   2.400873   3.319385   3.231756   2.605577
    18  H    4.433805   3.402388   4.306216   3.755016   3.796748
    19  H    5.159328   3.957512   4.390855   2.549596   2.993988
    20  H    4.447520   4.586226   4.034472   2.886658   3.683685
    21  H    5.312464   4.896270   4.702648   2.453348   3.669765
                   16         17         18         19         20
    16  H    0.000000
    17  H    3.786289   0.000000
    18  H    4.329995   1.777461   0.000000
    19  H    3.760242   1.765290   1.769163   0.000000
    20  H    2.528383   4.184234   3.600253   3.640632   0.000000
    21  H    3.138672   3.640446   2.882822   2.483611   1.640382
                   21
    21  H    0.000000
 Stoichiometry    C5H14N2
 Framework group  C1[X(C5H14N2)]
 Deg. of freedom    57
 Full point group                 C1      NOp   1
 RotChk:  IX=0 Diff= 1.25D-02
 Largest Abelian subgroup         C1      NOp   1
 Largest concise Abelian subgroup C1      NOp   1
                         Standard orientation:                         
 ---------------------------------------------------------------------
 Center     Atomic      Atomic             Coordinates (Angstroms)
 Number     Number       Type             X           Y           Z
 ---------------------------------------------------------------------
      1          6           0        1.591496   -1.154998   -0.073883
      2          7           0        0.821344    0.045186   -0.396188
      3          6           0        1.537734    1.239341    0.028633
      4          6           0       -0.608677   -0.028241   -0.016501
      5          6           0       -1.320993    1.282891   -0.413852
      6          6           0       -0.844112   -0.306279    1.484639
      7          7           0       -1.151086   -1.174265   -0.767635
      8          1           0        1.863084   -1.234166    0.995088
      9          1           0        2.524778   -1.143722   -0.648053
     10          1           0        1.017840   -2.038291   -0.353486
     11          1           0        2.554457    1.195827   -0.375151
     12          1           0        1.630078    1.347178    1.126774
     13          1           0        1.072333    2.145285   -0.363847
     14          1           0       -2.402712    1.144539   -0.320286
     15          1           0       -1.047415    2.132973    0.218342
     16          1           0       -1.095509    1.536995   -1.454972
     17          1           0       -0.377367    0.465145    2.104718
     18          1           0       -0.436028   -1.279036    1.767436
     19          1           0       -1.915177   -0.309788    1.716300
     20          1           0       -1.072277   -0.972464   -1.762864
     21          1           0       -2.140585   -1.283208   -0.557456
 ---------------------------------------------------------------------
 Rotational constants (GHZ):      3.1428892      2.3134180      1.9252531
 Leave Link  202 at Thu Sep  8 15:17:42 2022, MaxMem= 24159191040 cpu:         0.3
 (Enter /public/home/users/caep010/software/Gaussian09/g09/l301.exe)
 Standard basis: 6-31G(d,p) (6D, 7F)
 Ernie: Thresh=  0.10000D-02 Tol=  0.10000D-05 Strict=F.
 There are   175 symmetry adapted cartesian basis functions of A   symmetry.
 There are   175 symmetry adapted basis functions of A   symmetry.
   175 basis functions,   294 primitive gaussians,   175 cartesian basis functions
    29 alpha electrons       29 beta electrons
       nuclear repulsion energy       353.5368864166 Hartrees.
 IExCor=  402 DFT=T Ex+Corr=B3LYP ExCW=0 ScaHFX=  0.200000
 ScaDFX=  0.800000  0.720000  1.000000  0.810000 ScalE2=  1.000000  1.000000
 IRadAn=      0 IRanWt=     -1 IRanGd=            0 ICorTp=0 IEmpDi=  4
 NAtoms=   21 NActive=   21 NUniq=   21 SFac= 1.00D+00 NAtFMM=   60 NAOKFM=F Big=F
 Integral buffers will be    131072 words long.
 Raffenetti 2 integral format.
 Two-electron integral symmetry is turned on.
 Leave Link  301 at Thu Sep  8 15:17:43 2022, MaxMem= 24159191040 cpu:         1.6
 (Enter /public/home/users/caep010/software/Gaussian09/g09/l302.exe)
 NPDir=0 NMtPBC=     1 NCelOv=     1 NCel=       1 NClECP=     1 NCelD=      1
         NCelK=      1 NCelE2=     1 NClLst=     1 CellRange=     0.0.
 One-electron integrals computed using PRISM.
 NBasis=   175 RedAO= T EigKep=  2.87D-03  NBF=   175
 NBsUse=   175 1.00D-06 EigRej= -1.00D+00 NBFU=   175
 Precomputing XC quadrature grid using
 IXCGrd= 4 IRadAn=           0 IRanWt=          -1 IRanGd=           0 AccXCQ= 0.00D+00.
 Generated NRdTot=       0 NPtTot=           0 NUsed=           0 NTot=          32
 NSgBfM=   175   175   175   175   175 MxSgAt=    21 MxSgA2=    21.
 Leave Link  302 at Thu Sep  8 15:17:43 2022, MaxMem= 24159191040 cpu:        12.0
 (Enter /public/home/users/caep010/software/Gaussian09/g09/l303.exe)
 DipDrv:  MaxL=1.
 Leave Link  303 at Thu Sep  8 15:17:43 2022, MaxMem= 24159191040 cpu:         1.2
 (Enter /public/home/users/caep010/software/Gaussian09/g09/l401.exe)
 Initial guess from the checkpoint file:  "B3LYP6-31Gdp.Frag_637.chk"
 B after Tr=    -0.000000    0.000000    0.000000
         Rot=    0.999990    0.004419   -0.000274   -0.000722 Ang=   0.51 deg.
 Guess basis will be translated and rotated to current coordinates.
 JPrj=2 DoOrth=T DoCkMO=T.
 Generating alternative initial guess.
 ExpMin= 1.61D-01 ExpMax= 4.17D+03 ExpMxC= 6.27D+02 IAcc=1 IRadAn=         1 AccDes= 0.00D+00
 Harris functional with IExCor=  402 and IRadAn=       1 diagonalized for initial guess.
 HarFok:  IExCor=  402 AccDes= 0.00D+00 IRadAn=         1 IDoV= 1 UseB2=F ITyADJ=14
 ICtDFT=  3500011 ScaDFX=  1.000000  1.000000  1.000000  1.000000
 FoFCou: FMM=F IPFlag=           0 FMFlag=      100000 FMFlg1=           0
         NFxFlg=           0 DoJE=T BraDBF=F KetDBF=T FulRan=T
         wScrn=  0.000000 ICntrl=     500 IOpCl=  0 I1Cent=   200000004 NGrid=           0
         NMat0=    1 NMatS0=      1 NMatT0=    0 NMatD0=    1 NMtDS0=    0 NMtDT0=    0
 Petite list used in FoFCou.
 Harris En= -308.518276518483    
 Leave Link  401 at Thu Sep  8 15:17:44 2022, MaxMem= 24159191040 cpu:        13.1
 (Enter /public/home/users/caep010/software/Gaussian09/g09/l502.exe)
 Closed shell SCF:
 Using DIIS extrapolation, IDIIS=  1040.
 Integral symmetry usage will be decided dynamically.
 Keep R1 ints in memory in canonical form, NReq=121430862.
 IVT=      117362 IEndB=      117362 NGot= 24159191040 MDV= 24040485979
 LenX= 24040485979 LenY= 24040454913
 Requested convergence on RMS density matrix=1.00D-08 within 128 cycles.
 Requested convergence on MAX density matrix=1.00D-06.
 Requested convergence on             energy=1.00D-06.
 No special actions if energy rises.
 FoFCou: FMM=F IPFlag=           0 FMFlag=           0 FMFlg1=           0
         NFxFlg=           0 DoJE=F BraDBF=F KetDBF=F FulRan=T
         wScrn=  0.000000 ICntrl=     600 IOpCl=  0 I1Cent=           0 NGrid=           0
         NMat0=    1 NMatS0=  15400 NMatT0=    0 NMatD0=    1 NMtDS0=    0 NMtDT0=    0
 Symmetry not used in FoFCou.
 Integral accuracy reduced to 1.0D-05 until final iterations.

 Cycle   1  Pass 0  IDiag  1:
 E= -308.469636995025    
 DIIS: error= 4.53D-04 at cycle   1 NSaved=   1.
 NSaved= 1 IEnMin= 1 EnMin= -308.469636995025     IErMin= 1 ErrMin= 4.53D-04
 ErrMax= 4.53D-04  0.00D+00 EMaxC= 1.00D-01 BMatC= 7.37D-05 BMatP= 7.37D-05
 IDIUse=3 WtCom= 9.95D-01 WtEn= 4.53D-03
 Coeff-Com:  0.100D+01
 Coeff-En:   0.100D+01
 Coeff:      0.100D+01
 Gap=     1.646 Goal=   None    Shift=    0.000
 RMSDP=7.80D-05 MaxDP=1.35D-03              OVMax= 2.87D-03

 Cycle   2  Pass 0  IDiag  1:
 E= -308.469772170071     Delta-E=       -0.000135175046 Rises=F Damp=F
 DIIS: error= 4.99D-05 at cycle   2 NSaved=   2.
 NSaved= 2 IEnMin= 2 EnMin= -308.469772170071     IErMin= 2 ErrMin= 4.99D-05
 ErrMax= 4.99D-05  0.00D+00 EMaxC= 1.00D-01 BMatC= 1.47D-06 BMatP= 7.37D-05
 IDIUse=1 WtCom= 1.00D+00 WtEn= 0.00D+00
 Coeff-Com: -0.537D-01 0.105D+01
 Coeff:     -0.537D-01 0.105D+01
 Gap=     0.274 Goal=   None    Shift=    0.000
 RMSDP=1.53D-05 MaxDP=3.53D-04 DE=-1.35D-04 OVMax= 4.79D-04

 Cycle   3  Pass 0  IDiag  1:
 E= -308.469772851731     Delta-E=       -0.000000681659 Rises=F Damp=F
 DIIS: error= 6.02D-05 at cycle   3 NSaved=   3.
 NSaved= 3 IEnMin= 3 EnMin= -308.469772851731     IErMin= 2 ErrMin= 4.99D-05
 ErrMax= 6.02D-05  0.00D+00 EMaxC= 1.00D-01 BMatC= 1.53D-06 BMatP= 1.47D-06
 IDIUse=1 WtCom= 1.00D+00 WtEn= 0.00D+00
 Coeff-Com: -0.440D-01 0.562D+00 0.482D+00
 Coeff:     -0.440D-01 0.562D+00 0.482D+00
 Gap=     0.274 Goal=   None    Shift=    0.000
 RMSDP=8.33D-06 MaxDP=2.41D-04 DE=-6.82D-07 OVMax= 2.85D-04

 Initial convergence to 1.0D-05 achieved.  Increase integral accuracy.
 Cycle   4  Pass 1  IDiag  1:
 E= -308.469847345954     Delta-E=       -0.000074494224 Rises=F Damp=F
 DIIS: error= 2.72D-05 at cycle   1 NSaved=   1.
 NSaved= 1 IEnMin= 1 EnMin= -308.469847345954     IErMin= 1 ErrMin= 2.72D-05
 ErrMax= 2.72D-05  0.00D+00 EMaxC= 1.00D-01 BMatC= 1.70D-07 BMatP= 1.70D-07
 IDIUse=1 WtCom= 1.00D+00 WtEn= 0.00D+00
 Coeff-Com:  0.100D+01
 Coeff:      0.100D+01
 Gap=     0.274 Goal=   None    Shift=    0.000
 RMSDP=8.33D-06 MaxDP=2.41D-04 DE=-7.45D-05 OVMax= 1.54D-04

 Cycle   5  Pass 1  IDiag  1:
 E= -308.469847482982     Delta-E=       -0.000000137028 Rises=F Damp=F
 DIIS: error= 1.49D-05 at cycle   2 NSaved=   2.
 NSaved= 2 IEnMin= 2 EnMin= -308.469847482982     IErMin= 2 ErrMin= 1.49D-05
 ErrMax= 1.49D-05  0.00D+00 EMaxC= 1.00D-01 BMatC= 7.85D-08 BMatP= 1.70D-07
 IDIUse=1 WtCom= 1.00D+00 WtEn= 0.00D+00
 Coeff-Com:  0.368D+00 0.632D+00
 Coeff:      0.368D+00 0.632D+00
 Gap=     0.274 Goal=   None    Shift=    0.000
 RMSDP=2.67D-06 MaxDP=7.53D-05 DE=-1.37D-07 OVMax= 9.46D-05

 Cycle   6  Pass 1  IDiag  1:
 E= -308.469847530734     Delta-E=       -0.000000047752 Rises=F Damp=F
 DIIS: error= 8.52D-06 at cycle   3 NSaved=   3.
 NSaved= 3 IEnMin= 3 EnMin= -308.469847530734     IErMin= 3 ErrMin= 8.52D-06
 ErrMax= 8.52D-06  0.00D+00 EMaxC= 1.00D-01 BMatC= 2.57D-08 BMatP= 7.85D-08
 IDIUse=1 WtCom= 1.00D+00 WtEn= 0.00D+00
 Coeff-Com: -0.137D-01 0.361D+00 0.652D+00
 Coeff:     -0.137D-01 0.361D+00 0.652D+00
 Gap=     0.274 Goal=   None    Shift=    0.000
 RMSDP=9.50D-07 MaxDP=2.82D-05 DE=-4.78D-08 OVMax= 3.30D-05

 Cycle   7  Pass 1  IDiag  1:
 E= -308.469847552922     Delta-E=       -0.000000022187 Rises=F Damp=F
 DIIS: error= 9.36D-07 at cycle   4 NSaved=   4.
 NSaved= 4 IEnMin= 4 EnMin= -308.469847552922     IErMin= 4 ErrMin= 9.36D-07
 ErrMax= 9.36D-07  0.00D+00 EMaxC= 1.00D-01 BMatC= 2.82D-10 BMatP= 2.57D-08
 IDIUse=1 WtCom= 1.00D+00 WtEn= 0.00D+00
 Coeff-Com: -0.116D-01 0.137D+00 0.264D+00 0.610D+00
 Coeff:     -0.116D-01 0.137D+00 0.264D+00 0.610D+00
 Gap=     0.274 Goal=   None    Shift=    0.000
 RMSDP=1.17D-07 MaxDP=4.87D-06 DE=-2.22D-08 OVMax= 4.66D-06

 Cycle   8  Pass 1  IDiag  1:
 E= -308.469847553134     Delta-E=       -0.000000000212 Rises=F Damp=F
 DIIS: error= 5.96D-07 at cycle   5 NSaved=   5.
 NSaved= 5 IEnMin= 5 EnMin= -308.469847553134     IErMin= 5 ErrMin= 5.96D-07
 ErrMax= 5.96D-07  0.00D+00 EMaxC= 1.00D-01 BMatC= 3.94D-11 BMatP= 2.82D-10
 IDIUse=1 WtCom= 1.00D+00 WtEn= 0.00D+00
 Coeff-Com: -0.513D-02 0.475D-01 0.946D-01 0.324D+00 0.539D+00
 Coeff:     -0.513D-02 0.475D-01 0.946D-01 0.324D+00 0.539D+00
 Gap=     0.274 Goal=   None    Shift=    0.000
 RMSDP=4.04D-08 MaxDP=1.26D-06 DE=-2.12D-10 OVMax= 1.54D-06

 Cycle   9  Pass 1  IDiag  1:
 E= -308.469847553164     Delta-E=       -0.000000000030 Rises=F Damp=F
 DIIS: error= 8.08D-08 at cycle   6 NSaved=   6.
 NSaved= 6 IEnMin= 6 EnMin= -308.469847553164     IErMin= 6 ErrMin= 8.08D-08
 ErrMax= 8.08D-08  0.00D+00 EMaxC= 1.00D-01 BMatC= 1.63D-12 BMatP= 3.94D-11
 IDIUse=1 WtCom= 1.00D+00 WtEn= 0.00D+00
 Coeff-Com: -0.686D-03 0.276D-02 0.646D-02 0.538D-01 0.205D+00 0.733D+00
 Coeff:     -0.686D-03 0.276D-02 0.646D-02 0.538D-01 0.205D+00 0.733D+00
 Gap=     0.274 Goal=   None    Shift=    0.000
 RMSDP=1.05D-08 MaxDP=3.32D-07 DE=-3.02D-11 OVMax= 4.49D-07

 Cycle  10  Pass 1  IDiag  1:
[...]
 0.00036171,-0.00028225,0.00029385,0.00203355,0.00057860,-0.00132562,0.
 01064034,-0.01392798,0.00435627,-0.00589490,0.01130414,-0.00387453,-0.
 12793427,0.24110864,-0.03850295,0.05590002,-0.07130279,-0.01498052,0.0
 2186824,-0.01030783,0.00338510,0.00195581,-0.00318366,-0.00145963,0.00
 157294,0.00043606,-0.00005142,-0.00020424,-0.00001672,0.00031865,-0.00
 038122,0.00035234,-0.00028097,-0.00084616,-0.00065019,0.01440415,-0.02
 065575,0.00856819,-0.00603264,0.00947225,-0.00345948,0.04301530,-0.070
 18176,0.08000910,0.00049779,-0.00188697,0.00166180,-0.02168186,0.00159
 141,-0.00245594,-0.27955370,-0.06693371,-0.04610519,0.00202204,0.00207
 542,-0.00150573,0.00000993,-0.00001236,-0.00042933,-0.00019729,0.00010
 821,0.00026916,-0.00085358,0.00017678,-0.00055158,0.00001396,-0.000128
 13,-0.00046221,0.00075171,0.00071845,-0.00046713,0.00039023,0.00021216
 ,0.00037672,0.30837633,0.00242371,0.00110759,0.00045060,0.03402298,0.0
 0367587,0.00643799,-0.07515759,-0.06889171,-0.01476520,0.00003879,-0.0
 0445867,0.00263271,-0.00046421,-0.00055444,0.00015879,0.00042808,-0.00
 046073,-0.00027821,0.00165422,0.00009121,0.00048152,-0.00047933,-0.000
 42148,-0.00002043,-0.00055738,-0.00027774,-0.00003821,0.00022999,0.000
 26045,-0.00032283,0.06857616,0.07799517,-0.00173385,-0.00039694,-0.000
 02871,-0.00952664,0.00101265,-0.00186278,-0.04467871,-0.01346436,-0.05
 771116,0.00058387,0.00157326,-0.00122145,0.00071048,0.00030082,0.00025
 369,0.00008272,-0.00027870,0.00022543,-0.00051111,-0.00004274,0.000067
 19,-0.00012584,-0.00008508,-0.00038412,0.00021640,0.00054159,0.0001941
 0,0.00015987,-0.00014523,0.00002328,0.05190194,0.01221170,0.05811353,-
 0.00078012,-0.00167965,0.00076764,-0.00190454,0.02028887,0.01148284,-0
 .05147539,-0.00333916,-0.00156910,0.00284429,0.00156265,0.00219094,0.0
 0001360,0.00025336,0.00004446,-0.00007323,0.00035514,-0.00046379,-0.00
 055848,-0.00015416,-0.00042678,0.00039324,-0.00007737,-0.00072301,0.00
 004975,0.00023745,-0.00044490,0.00005057,0.00003318,0.00003519,0.00052
 782,-0.02089020,-0.02316437,0.05084945,0.00287154,0.00244041,-0.005587
 80,0.01128829,-0.03495503,-0.01318202,-0.00403115,-0.15219135,-0.11117
 571,-0.00571857,-0.00055054,-0.00098987,0.00047997,-0.00004686,0.00041
 961,0.00113594,-0.00043569,0.00019321,0.00101130,0.00013240,0.00055960
 ,-0.00107655,0.00061679,0.00215397,-0.00042944,-0.00005893,0.00013246,
 0.00005037,0.00030968,0.00068271,-0.00131752,-0.00586052,-0.00819049,-
 0.00436129,0.17893922,-0.00071787,0.00149595,0.00368946,0.00455524,0.0
 0496642,0.01145834,-0.00271944,-0.10885104,-0.17484765,-0.00127877,0.0
 0001231,0.00063190,0.00006687,-0.00038487,-0.00015977,0.00050470,-0.00
 048494,-0.00022204,0.00032674,0.00007247,0.00009581,-0.00031296,-0.002
 18166,0.00049509,-0.00018333,-0.00005554,-0.00033165,-0.00000411,-0.00
 016551,0.00004049,0.00002597,-0.00338571,-0.00495182,0.00237339,0.1263
 1993,0.18308950,-0.00207137,0.00182899,-0.00107662,0.00832752,0.008210
 17,-0.01623996,-0.09155782,-0.04171457,0.09301247,0.00079088,-0.000052
 72,-0.00126523,-0.00295455,-0.00003954,-0.00022739,-0.00024752,-0.0000
 9748,0.00012327,0.00022291,-0.00035791,0.00040113,-0.00009883,0.000043
 77,-0.00011382,0.00049080,0.00020035,0.00029958,0.00072511,0.00064465,
 -0.00049990,-0.01012656,-0.01018207,0.02599398,0.00047393,-0.00006510,
 -0.00227867,0.09901715,0.00511426,-0.00349804,0.00150990,-0.01251726,-
 0.01684656,0.02423648,-0.03619908,-0.08654777,0.08039460,-0.00185502,-
 0.00008269,0.00052360,-0.00033098,0.00062473,0.00037396,0.00032867,-0.
 00008240,-0.00008470,0.00005745,0.00026644,-0.00020996,-0.00016369,0.0
 0009444,0.00060661,0.00016209,0.00024559,-0.00027904,-0.00084294,-0.00
 076431,0.00162527,-0.00349763,-0.00322242,0.00691694,0.00913410,0.0097
 9868,-0.01847551,0.04087198,0.09952373,-0.00266307,0.00100628,0.000227
 11,0.00076216,0.00661409,-0.00552297,0.08766031,0.08476403,-0.23729398
 ,0.00192807,0.00097956,-0.00090975,0.00136681,0.00100626,0.00052311,-0
 .00041830,-0.00017455,0.00002800,-0.00036635,-0.00041568,0.00036452,-0
 .00004351,-0.00030186,0.00042072,0.00023531,-0.00009790,0.00016218,0.0
 0057356,0.00038256,-0.00016170,-0.00221754,-0.00351292,0.00695218,0.01
 063000,0.00792372,-0.01922678,-0.09817096,-0.09625757,0.25412773,-0.00
 043768,0.00059023,-0.00065883,-0.00047961,-0.00144313,0.00331160,0.000
 39802,-0.00060643,-0.00036817,-0.01479334,0.00251621,-0.00412708,-0.30
 961557,0.01775274,-0.02085277,-0.00008673,-0.00015263,-0.00071008,0.00
 228772,0.00133162,-0.00151290,-0.00017896,-0.00006439,0.00024993,-0.00
 012411,-0.00013625,0.00029033,0.00000626,-0.00012631,0.00008715,-0.000
 10546,-0.00005972,0.00015211,-0.00004329,0.00010192,0.00009540,0.00005
 144,-0.00016704,0.00034841,0.33563038,-0.00092096,0.00050262,-0.000090
 55,-0.00170400,-0.00213028,0.00330832,0.00097989,-0.00074418,0.0009681
 0,-0.01526402,-0.00133164,-0.00140609,0.01963917,-0.04723215,0.0004307
 2,0.00054016,-0.00016605,-0.00056625,-0.00063704,0.00126828,-0.0010543
 4,-0.00012633,-0.00007648,0.00019702,-0.00021301,-0.00009007,0.0001567
 0,-0.00002810,0.00005706,-0.00004979,0.00007570,0.00024296,-0.00026832
 ,-0.00014003,0.00012349,0.00006970,0.00029512,0.00009428,-0.00080959,-
 0.01980589,0.05050940,0.00140514,0.00013075,0.00094453,0.00150574,0.00
 277051,-0.00388499,-0.00050765,0.00085102,-0.00067057,0.02579660,-0.00
 172787,0.00176417,-0.02307955,0.00092277,-0.04949899,0.00044968,-0.000
 08223,0.00085512,0.00011750,-0.00245767,0.00121461,-0.00000079,-0.0000
 6484,-0.00006816,0.00031311,0.00024893,-0.00039612,0.00001263,-0.00003
 476,0.00000994,-0.00000175,-0.00008002,0.00011672,-0.00002188,-0.00014
 077,0.00011757,-0.00007286,-0.00034872,0.00032733,0.02301488,-0.004185
 07,0.05171864,-0.00006620,0.00014826,0.00019103,0.00013179,0.00032962,
 -0.00017452,-0.00174724,-0.00063923,-0.00015454,0.00391731,-0.01212667
 ,-0.00296348,-0.06287470,0.06224663,-0.00037982,0.00016866,0.00012057,
 -0.00053598,0.00074827,-0.00243916,0.00194070,0.00001581,-0.00001249,0
 .00003122,0.00002464,0.00001565,-0.00003094,0.00005490,0.00003158,-0.0
 0006005,0.00000122,0.00007460,0.00006841,0.00000662,0.00024489,0.00002
 370,-0.00281149,-0.00056136,0.00001159,-0.00684787,0.03204316,-0.00026
 114,0.06731984,-0.00031776,0.00016427,-0.00008140,-0.00048452,0.000317
 80,0.00046407,0.00114198,-0.00067070,0.00165773,0.00626013,-0.01236978
 ,-0.00387994,0.06091340,-0.29699659,0.00649874,0.00006133,0.00030999,-
 0.00106187,-0.00196356,-0.00326444,0.00496367,-0.00004343,0.00000997,0
 .00010141,-0.00012749,0.00000110,-0.00000505,0.00029510,0.00010808,-0.
 00020057,0.00022209,0.00050613,-0.00051399,-0.00022706,0.00019859,0.00
 008747,0.00022912,0.00066725,-0.00134424,0.00032489,-0.00102691,-0.000
 32633,-0.06965234,0.32157600,-0.00007211,0.00001640,-0.00011408,-0.000
 33226,-0.00048718,0.00042798,0.00032797,-0.00001144,0.00077345,-0.0102
 0893,0.02110054,0.00316617,-0.00037245,0.00539684,-0.05068673,-0.00035
 966,0.00020355,0.00101009,0.00195542,0.00680687,-0.00474945,0.00003373
 ,-0.00005430,0.00000081,0.00002388,-0.00005909,0.00003607,-0.00022333,
 -0.00000313,0.00010945,0.00003622,-0.00009864,-0.00010660,0.00015593,-
 0.00019311,-0.00020113,-0.00011305,-0.00013723,0.00014110,-0.00063756,
 0.00280972,-0.00085924,0.00103026,-0.00754140,0.04934682,0.00002783,-0
 .00026301,0.00012597,0.00100626,0.00041606,-0.00045230,-0.00025244,0.0
 0071439,0.00052583,0.00334248,0.00671085,0.01301005,-0.06918115,-0.032
 56023,-0.06602061,-0.00125820,-0.00153161,0.00172306,-0.00063855,0.000
 89611,-0.00047820,0.00013226,0.00002253,-0.00016952,0.00004461,0.00004
 197,-0.00006318,0.00001680,0.00005961,-0.00003841,0.00006594,-0.000002
 71,-0.00011138,0.00006120,-0.00019987,-0.00008199,-0.00040565,0.000389
 74,0.00022622,-0.00739148,-0.01439922,-0.02776562,0.00179387,0.0037145
 6,0.00832079,0.07134177,0.00026615,-0.00013891,0.00005405,0.00083298,0
 .00040418,-0.00064711,-0.00015833,0.00037526,-0.00066034,0.00517653,0.
 00534071,0.01350827,-0.03177062,-0.09865232,-0.09798240,-0.00105254,-0
 .00090663,0.00192543,0.00008020,0.00211851,-0.00027349,0.00005440,0.00
 001145,-0.00005236,0.00003788,0.00003156,-0.00004976,-0.00003622,-0.00
 000851,0.00004170,-0.00001519,0.00000754,0.00016575,-0.00002409,-0.000
 06392,0.00022477,0.00014790,-0.00043724,0.00009108,0.00086800,0.000483
 22,0.00363431,-0.00992931,-0.01171077,-0.02694271,0.03598353,0.1028816
 1,0.00016526,0.00044556,0.00009724,-0.00164797,-0.00021433,0.00240971,
 0.00038224,-0.00017551,-0.00017910,-0.00842676,-0.01383551,-0.02353185
 ,-0.06508340,-0.09691113,-0.24063792,0.00316312,0.00447206,-0.00350185
 ,0.00018949,-0.00069027,0.00216370,-0.00024273,-0.00003551,0.00034088,
 0.00006166,0.00004590,0.00002592,0.00001212,-0.00008900,-0.00001917,0.
 00003637,-0.00003537,0.00011700,-0.00016164,0.00008837,0.00019526,0.00
 026781,-0.00044196,-0.00001738,-0.00002176,-0.00015670,-0.00096517,0.0
 0084683,0.00116381,0.00209901,0.07086850,0.10596489,0.26233879,-0.0000
 1120,-0.00030403,0.00007718,0.00042421,0.00083258,0.00084763,-0.000323
 95,-0.00063837,-0.00087037,0.00247029,-0.00746859,0.00087762,-0.000341
 66,0.00045842,0.00017737,-0.09311225,0.10074161,0.00089935,-0.00034960
 ,-0.00137343,-0.00132501,-0.00006263,-0.00003648,0.00001608,-0.0000140
 5,0.00007558,0.00004625,0.00005370,0.00009464,-0.00003845,0.00002287,0
 .00002467,0.00012954,-0.00078048,0.00015423,-0.00043904,0.00004092,0.0
 0006614,0.00014778,0.00008531,0.00009624,0.00004179,0.00032244,-0.0002
 1617,0.00021216,0.00000877,-0.00020265,0.00006627,0.09815084,0.0000179
 4,-0.00035217,-0.00040766,0.00031260,0.00052159,0.00064188,0.00060228,
 -0.00080784,-0.00036895,0.00649485,-0.01391012,0.00301751,-0.00026860,
 -0.00001652,0.00074519,0.09999365,-0.26776759,-0.00119696,-0.00173416,
 -0.00163715,-0.00441084,-0.00017705,-0.00007970,0.00025752,-0.00011790
 ,0.00008411,0.00004318,0.00016833,0.00024354,-0.00001708,-0.00006999,0
 .00036651,0.00026013,-0.00035544,0.00075434,0.00044958,-0.00000811,0.0
 0011832,0.00008264,-0.00014495,0.00008794,0.00005155,0.00009015,0.0007
 7265,-0.00017740,-0.00016744,0.00022323,-0.00010157,-0.11061399,0.2910
 3710,-0.00043483,0.00004845,0.00045814,0.00093465,0.00151457,0.0016704
 5,-0.00031538,0.00002048,-0.00025926,0.01407839,-0.02374937,0.00270373
 ,0.00015580,-0.00040288,0.00097490,0.00026635,-0.00001193,-0.04968339,
 -0.00195710,-0.00337292,-0.00494599,-0.00011420,-0.00023466,-0.0001788
 2,0.00003727,-0.00007732,-0.00001674,0.00008458,-0.00003766,-0.0001506
 2,-0.00001160,0.00017524,0.00009645,-0.00079491,0.00016448,-0.00023951
 ,-0.00002972,-0.00002487,-0.00011008,-0.00010188,-0.00002814,-0.000106
 26,0.00015285,0.00040696,-0.00077340,-0.00018268,0.00025728,0.00024059
 ,0.00098633,0.00190702,0.05021425,-0.00082412,-0.00052338,-0.00122686,
 0.00018819,0.00018837,0.00102714,-0.00037832,0.00028193,-0.00004004,0.
 00251255,0.00493837,-0.00603833,-0.00002548,-0.00042412,-0.00079763,-0
 .07812029,-0.04686711,0.07153225,-0.00014244,0.00025941,0.00016290,-0.
 00121063,-0.00028844,-0.00007773,0.00000385,0.00009283,0.00007923,0.00
 003231,-0.00017348,-0.00004494,0.00000629,-0.00002300,-0.00005877,0.00
 009388,-0.00006019,-0.00012493,0.00003688,-0.00003375,0.00008410,0.000
 41079,-0.00005817,-0.00031801,-0.00017010,-0.00016244,0.00005363,0.000
 55216,-0.00010338,-0.00035177,0.00491191,0.00703622,-0.01261315,0.0820
 8748,-0.00154045,0.00046532,0.00068072,0.00060451,0.00019533,0.0010393
 0,0.00018530,0.00000986,0.00004481,0.00716762,0.00838734,-0.01283895,-
 0.00068490,-0.00158660,-0.00228247,-0.04677239,-0.12154033,0.11219374,
 0.00001851,0.00131149,0.00012122,-0.00029013,-0.00055621,-0.00062911,0
 .00007943,-0.00023665,-0.00030497,-0.00035168,-0.00045298,-0.00018266,
 0.00002181,0.00004437,0.00008630,-0.00009784,0.00004138,0.00003702,0.0
 0002072,-0.00006877,-0.00005087,-0.00002012,-0.00010724,0.00004088,-0.
 00012885,0.00023244,-0.00019891,0.00019739,0.00067499,-0.00094891,-0.0
 1129696,-0.01347996,0.02245608,0.05309818,0.12838035,0.00029116,0.0002
 9089,-0.00067752,0.00053347,0.00018595,0.00141327,-0.00013786,-0.00006
 454,-0.00014087,0.01143022,0.01650365,-0.02252619,-0.00257179,-0.00422
 898,-0.00421952,0.07053959,0.11010239,-0.21564978,-0.00010824,0.001281
 53,0.00280225,-0.00068038,0.00022438,0.00071466,-0.00001382,0.00001173
 ,0.00059547,-0.00010290,-0.00046054,-0.00018940,-0.00008452,-0.0000166
 3,-0.00000004,0.00007940,0.00003141,-0.00002814,0.00010266,-0.00013177
 ,0.00016950,0.00010716,-0.00010252,0.00023344,-0.00016540,-0.00005905,
 0.00040773,0.00091344,0.00071643,-0.00164880,-0.00115999,-0.00108616,0
 .00138849,-0.07757308,-0.12076148,0.23406440,0.00048984,0.00057470,-0.
 00053152,0.00014246,-0.00129198,-0.00215536,0.00046728,-0.00082026,0.0
 0031409,-0.00786013,0.00105045,0.00145934,0.00002063,0.00016003,0.0008
 6310,-0.30437025,-0.02848766,-0.02217327,0.00043475,0.00023908,0.00034
 934,0.00030505,0.00010183,0.00001148,-0.00004654,-0.00005866,-0.000043
 56,-0.00007646,-0.00001079,0.00007252,-0.00005714,0.00004359,-0.000054
 55,0.00028143,0.00002994,0.00025306,-0.00004248,0.00007895,-0.00010712
 ,0.00085546,0.00000618,-0.00018200,-0.00011579,-0.00003826,-0.00008593
 ,0.00034769,-0.00002421,-0.00001262,-0.01261194,-0.00187258,-0.0007072
 0,-0.00969859,-0.00026318,-0.00112146,0.33059150,0.00045190,0.00045007
 ,-0.00080954,-0.00220063,-0.00146045,-0.00327821,0.00057871,-0.0011229
 1,-0.00013978,-0.01556015,-0.00208072,0.00085792,0.00009990,0.00028518
 ,0.00078951,-0.02868419,-0.05013906,-0.00214535,0.00002372,0.00050182,
 0.00029803,0.00022726,-0.00000433,0.00023414,-0.00002620,0.00000098,-0
 .00005686,-0.00004788,0.00008953,0.00011300,-0.00013366,0.00027842,0.0
 0010442,-0.00033256,0.00055976,0.00025508,-0.00002572,0.00015161,-0.00
 000112,0.00029664,0.00032966,-0.00003291,0.00019310,-0.00006815,-0.000
 00430,0.00003531,-0.00020977,0.00015517,0.03046427,0.00441875,0.002655
 31,-0.01718717,-0.00195193,-0.00249949,0.03125956,0.05058227,0.0013991
 2,0.00062150,-0.00177942,-0.00416112,-0.00371456,-0.00601709,0.0007744
 3,-0.00193641,0.00027807,-0.02785609,-0.00056321,-0.00009389,-0.000563
 36,0.00021293,0.00070436,-0.02132466,-0.00245490,-0.04916170,0.0004611
 5,0.00124889,0.00079452,-0.00018694,0.00053334,0.00079490,-0.00020534,
 0.00005836,0.00047509,-0.00005690,-0.00019556,0.00004393,-0.00015811,0
 .00019477,0.00002995,0.00019775,0.00052288,0.00042854,-0.00003569,0.00
 013576,-0.00008550,0.00064378,-0.00006551,-0.00070947,-0.00003846,0.00
 007855,-0.00012744,0.00023034,0.00002779,0.00048619,0.00005163,0.00036
 619,-0.00099907,0.02599080,0.00135275,0.00322354,0.02429548,0.00397489
 ,0.05147515,-0.00102157,-0.00025572,0.00069493,0.00130293,-0.00094128,
 -0.00007375,-0.00052338,0.00038993,-0.00071637,0.00361721,0.00408691,0
 .01457125,-0.00030463,0.00033035,-0.00017611,-0.00139139,0.00267888,-0
 .00023369,-0.05701934,-0.00344792,-0.04457178,0.00024928,-0.00021401,-
 0.00026016,-0.00007843,0.00009280,0.00000126,0.00010554,0.00029900,0.0
 0056422,-0.00001381,-0.00000388,0.00000592,0.00029278,-0.00053915,-0.0
 0003467,0.00004867,-0.00010269,0.00014175,-0.00030905,-0.00038489,-0.0
 0014345,-0.00011650,0.00038571,-0.00004668,0.00039499,-0.00018529,-0.0
 0016396,0.00075049,0.00097876,0.00063034,-0.00003750,-0.00010326,-0.00
 036301,0.00026350,0.00018807,0.00010701,0.05984436,0.00012303,0.000303
 27,-0.00063554,-0.00182589,0.00235673,0.00088100,0.00015062,-0.0003244
 5,0.00037501,-0.00581861,-0.02228264,-0.03577495,-0.00098952,0.0016192
 0,-0.00135119,0.00349854,-0.00654307,0.00196600,-0.01198771,-0.1120351
 5,-0.13649035,-0.00011879,-0.00017177,0.00033013,-0.00013062,0.0000741
 5,0.00001337,0.00018305,0.00009933,0.00032158,-0.00008430,0.00001738,0
 .00006532,-0.00021377,0.00036612,0.00010202,0.00008774,-0.00005280,0.0
 0006343,-0.00018787,-0.00024384,0.00019647,0.00026872,0.00093770,-0.00
 005008,0.00009696,-0.00042211,0.00133724,-0.00041685,-0.00076810,-0.00
 199942,0.00020844,0.00022094,0.00001533,-0.00015546,0.00015622,0.00027
 290,0.01742150,0.13779706,0.00059324,-0.00041843,-0.00007012,0.0005544
 9,0.00096920,0.00035753,0.00023696,-0.00000802,0.00023118,0.00066678,0
 .00694354,-0.00195998,0.00010774,0.00149604,0.00201557,0.00101964,-0.0
 0127044,0.00118073,-0.07475304,-0.17902901,-0.32789537,-0.00017181,0.0
 0031545,-0.00007162,0.00014493,-0.00009198,0.00004313,0.00006378,-0.00
 023209,-0.00068862,0.00003616,0.00000929,0.00001847,-0.00008666,0.0002
 0405,0.00005856,-0.00003006,0.00008194,-0.00004040,-0.00002696,-0.0000
 5102,-0.00000836,0.00004102,0.00008426,-0.00022271,-0.00043528,-0.0001
 6100,0.00008465,-0.00044416,-0.00034954,0.00001847,-0.00013744,0.00025
 072,0.00046166,-0.00013906,0.00024428,0.00005210,0.06639510,0.17017119
 ,0.33345832,0.00041060,0.00043792,-0.00080341,-0.00208409,0.00437357,-
 0.00094828,-0.00035788,-0.00069757,0.00106913,-0.01398567,-0.00973516,
 0.00138807,0.00097049,-0.00140570,0.00007412,0.00061098,-0.00049363,0.
 00009456,-0.41362705,-0.00173439,-0.08157245,-0.00012745,0.00004320,0.
 00019181,-0.00012332,0.00012137,0.00001741,0.00018322,0.00009559,-0.00
 026912,-0.00009673,0.00030330,-0.00004001,-0.00032304,0.00043045,-0.00
 004930,0.00009005,0.00006808,-0.00012921,0.00068779,0.00000603,-0.0003
 0237,0.00024452,-0.00031528,0.00030198,-0.00000916,0.00005427,0.000052
 95,0.00036601,-0.00016458,-0.00006392,-0.00022883,0.00015631,0.0000853
 5,0.00067973,0.00037970,0.00043519,-0.00605415,-0.00010922,0.00636462,
 0.43277399,-0.00064315,-0.00032443,0.00058575,0.00278196,-0.00655848,0
 .00189670,0.00176412,0.00075585,-0.00035995,0.03650802,0.00104326,0.00
 745590,0.00116984,0.00085800,-0.00016111,0.00071790,0.00092916,-0.0000
 9111,-0.02767988,-0.04996300,-0.02812186,-0.00003293,0.00016063,-0.000
 15099,-0.00004410,0.00008150,-0.00007504,0.00015563,0.00025648,-0.0005
 1144,0.00030127,-0.00044590,0.00014696,0.00002788,-0.00011801,-0.00010
 795,-0.00003729,0.00001791,0.00005267,-0.00086753,-0.00055009,0.000633
 99,-0.00031750,0.00030538,-0.00037498,-0.00015490,-0.00000206,-0.00003
 725,-0.00044085,0.00019107,0.00033330,-0.00019915,0.00001686,0.0000474
 6,-0.00052126,-0.00076695,-0.00067135,-0.02067383,-0.00110418,0.000841
 59,0.00818574,0.05521700,0.00066312,-0.00008019,0.00005977,0.00005620,
 0.00069026,-0.00027011,0.00041421,0.00032282,0.00086305,-0.00431727,0.
 00600022,-0.00382063,-0.00102125,-0.00113158,-0.00019631,0.00070970,-0
 .00063960,0.00006427,-0.03502964,-0.02313147,-0.03453172,0.00020336,-0
 .00027346,0.00004211,0.00015792,-0.00013517,-0.00003678,-0.00043678,-0
 .00036483,0.00053741,0.00010631,-0.00019844,0.00005869,-0.00010050,0.0
 0006335,-0.00009205,-0.00004699,-0.00001373,-0.00007494,0.00071723,0.0
 0089359,-0.00013475,0.00042672,-0.00049284,0.00032207,-0.00014503,0.00
 015742,-0.00009768,-0.00029993,0.00029377,-0.00030235,0.00047262,-0.00
 010520,-0.00039415,-0.00030476,-0.00071419,0.00018725,-0.03632815,0.00
 019056,-0.00702320,0.07410290,0.01866871,0.04484008\\0.00001158,0.0000
 1242,-0.00001000,0.00001545,-0.00000162,0.00000245,0.00001764,0.000001
 46,0.00000072,-0.00001214,0.00000327,-0.00000294,-0.00000670,-0.000002
 71,-0.00000420,-0.00000328,-0.00000957,-0.00000028,-0.00002399,-0.0000
 1936,0.00000436,-0.00000308,0.00000606,0.00000859,-0.00000818,0.000008
 30,0.00000024,-0.00000704,-0.00000154,-0.00000168,0.00000218,0.0000144
 1,0.00000305,0.00000541,0.00001538,0.00000864,0.00000964,0.00001165,0.
 00000119,0.00000061,-0.00000867,-0.00000018,0.00000253,0.00000324,0.00
 000109,0.00000059,-0.00000079,-0.00000385,0.00000769,0.00000096,0.0000
 0446,0.00000160,-0.00000663,0.00000161,0.00000886,-0.00001162,0.000002
 40,-0.00001916,-0.00000977,-0.00001507,-0.00000021,-0.00000486,-0.0000
 0059\\\@


 FLOATING POINT NUMBERS ARE LIKE SANDPILES:
 EVERY TIME THAT YOU MOVE ONE, YOU LOSE A LITTLE SAND 
 AND YOU PICK UP A LITTLE DIRT.
 Job cpu time:       0 days  0 hours 10 minutes 50.3 seconds.
 File lengths (MBytes):  RWF=     71 Int=      0 D2E=      0 Chk=      4 Scr=      1
 Normal termination of Gaussian 09 at Thu Sep  8 15:18:32 2022.
