 Entering Gaussian System, Link 0=g09
 Input=B3LYP6-31Gxx.Frag_112.gjf
 Output=B3LYP6-31Gxx.Frag_112.log
 Initial command:
 /vol2/users/liuj201281/hxd_yi/bin/Gaussian/g09/l1.exe "/vol2/users/liuj201281/HOFBenchmark/IsodesmicSplit/Sample60/Ring26/Running/Gau-396282.inp" -scrdir="/vol2/users/liuj201281/HOFBenchmark/IsodesmicSplit/Sample60/Ring26/Running/"
 Entering Link 1 = /vol2/users/liuj201281/hxd_yi/bin/Gaussian/g09/l1.exe PID=    396283.
  
 Copyright (c) 1988,1990,1992,1993,1995,1998,2003,2009,2013,
            Gaussian, Inc.  All Rights Reserved.
  
 This is part of the Gaussian(R) 09 program.  It is based on
 the Gaussian(R) 03 system (copyright 2003, Gaussian, Inc.),
 the Gaussian(R) 98 system (copyright 1998, Gaussian, Inc.),
 the Gaussian(R) 94 system (copyright 1995, Gaussian, Inc.),
 the Gaussian 92(TM) system (copyright 1992, Gaussian, Inc.),
 the Gaussian 90(TM) system (copyright 1990, Gaussian, Inc.),
 the Gaussian 88(TM) system (copyright 1988, Gaussian, Inc.),
 the Gaussian 86(TM) system (copyright 1986, Carnegie Mellon
 University), and the Gaussian 82(TM) system (copyright 1983,
 Carnegie Mellon University). Gaussian is a federally registered
 trademark of Gaussian, Inc.
  
 This software contains proprietary and confidential information,
 including trade secrets, belonging to Gaussian, Inc.
  
 This software is provided under written license and may be
 used, copied, transmitted, or stored only in accord with that
 written license.
  
 The following legend is applicable only to US Government
 contracts under FAR:
  
                    RESTRICTED RIGHTS LEGEND
  
 Use, reproduction and disclosure by the US Government is
 subject to restrictions as set forth in subparagraphs (a)
 and (c) of the Commercial Computer Software - Restricted
 Rights clause in FAR 52.227-19.
  
 Gaussian, Inc.
 340 Quinnipiac St., Bldg. 40, Wallingford CT 06492
  
  
 ---------------------------------------------------------------
 Warning -- This program may not be used in any manner that
 competes with the business of Gaussian, Inc. or will provide
 assistance to any competitor of Gaussian, Inc.  The licensee
 of this program is prohibited from giving any competitor of
 Gaussian, Inc. access to this program.  By using this program,
 the user acknowledges that Gaussian, Inc. is engaged in the
 business of creating and licensing software in the field of
 computational chemistry and represents and warrants to the
 licensee that it is not a competitor of Gaussian, Inc. and that
 it will not use this program in any manner prohibited above.
 ---------------------------------------------------------------
  

 Cite this work as:
 Gaussian 09, Revision D.01,
 M. J. Frisch, G. W. Trucks, H. B. Schlegel, G. E. Scuseria, 
 M. A. Robb, J. R. Cheeseman, G. Scalmani, V. Barone, B. Mennucci, 
 G. A. Petersson, H. Nakatsuji, M. Caricato, X. Li, H. P. Hratchian, 
 A. F. Izmaylov, J. Bloino, G. Zheng, J. L. Sonnenberg, M. Hada, 
 M. Ehara, K. Toyota, R. Fukuda, J. Hasegawa, M. Ishida, T. Nakajima, 
 Y. Honda, O. Kitao, H. Nakai, T. Vreven, J. A. Montgomery, Jr., 
 J. E. Peralta, F. Ogliaro, M. Bearpark, J. J. Heyd, E. Brothers, 
 K. N. Kudin, V. N. Staroverov, T. Keith, R. Kobayashi, J. Normand, 
 K. Raghavachari, A. Rendell, J. C. Burant, S. S. Iyengar, J. Tomasi, 
 M. Cossi, N. Rega, J. M. Millam, M. Klene, J. E. Knox, J. B. Cross, 
 V. Bakken, C. Adamo, J. Jaramillo, R. Gomperts, R. E. Stratmann, 
 O. Yazyev, A. J. Austin, R. Cammi, C. Pomelli, J. W. Ochterski, 
 R. L. Martin, K. Morokuma, V. G. Zakrzewski, G. A. Voth, 
 P. Salvador, J. J. Dannenberg, S. Dapprich, A. D. Daniels, 
 O. Farkas, J. B. Foresman, J. V. Ortiz, J. Cioslowski, 
 and D. J. Fox, Gaussian, Inc., Wallingford CT, 2013.
 
 ******************************************
 Gaussian 09:  ES64L-G09RevD.01 24-Apr-2013
                22-Jul-2021 
 ******************************************
 %nproc=128
 Will use up to  128 processors via shared memory.
 %mem=128GB
 -------------------------
 #P OPT Freq B3LYP/6-31G**
 -------------------------
 1/14=-1,18=20,19=15,26=3,38=1/1,3;
 2/9=110,12=2,17=6,18=5,40=1/2;
 3/5=1,6=6,7=101,11=2,16=1,25=1,30=1,71=1,74=-5/1,2,3;
 4//1;
 5/5=2,38=5/2;
 6/7=2,8=2,9=2,10=2,28=1/1;
 7//1,2,3,16;
 1/14=-1,18=20,19=15,26=3/3(2);
 2/9=110/2;
 99//99;
 2/9=110/2;
 3/5=1,6=6,7=101,11=2,16=1,25=1,30=1,71=1,74=-5/1,2,3;
 4/5=5,16=3,69=1/1;
 5/5=2,38=5/2;
 7//1,2,3,16;
 1/14=-1,18=20,19=15,26=3/3(-5);
 2/9=110/2;
 6/7=2,8=2,9=2,10=2,19=2,28=1/1;
 99/9=1/99;
 Leave Link    1 at Thu Jul 22 19:37:05 2021, MaxMem= 17179869184 cpu:        11.4
 (Enter /vol2/users/liuj201281/hxd_yi/bin/Gaussian/g09/l101.exe)
 --------
 Frag_112
 --------
 Symbolic Z-matrix:
 Charge =  0 Multiplicity = 1
 C                     2.0827   -0.1054    0.0085 
 C                     0.7024   -0.7026    0.0089 
 C                    -0.4549   -0.0151   -0.002 
 C                    -1.7981   -0.6966    0.0012 
 N                    -0.5399    1.3841   -0.0953 
 H                     2.1138    0.8826    0.4867 
 H                     2.7853   -0.7422    0.557 
 H                     2.4907    0.0187   -1.0047 
 H                     0.6361   -1.7863   -0.0188 
 H                    -2.3741   -0.4296   -0.8928 
 H                    -2.3955   -0.3899    0.8713 
 H                    -1.6899   -1.7822    0.0357 
 H                    -1.3048    1.7857    0.4344 
 H                     0.3251    1.8727    0.0982 
 
 NAtoms=     14 NQM=       14 NQMF=       0 NMMI=      0 NMMIF=      0
                NMic=       0 NMicF=      0.
                    Isotopes and Nuclear Properties:
 (Nuclear quadrupole moments (NQMom) in fm**2, nuclear magnetic moments (NMagM)
  in nuclear magnetons)

  Atom         1           2           3           4           5           6           7           8           9          10
 IAtWgt=          12          12          12          12          14           1           1           1           1           1
 AtmWgt=  12.0000000  12.0000000  12.0000000  12.0000000  14.0030740   1.0078250   1.0078250   1.0078250   1.0078250   1.0078250
 NucSpn=           0           0           0           0           2           1           1           1           1           1
 AtZEff=   0.0000000   0.0000000   0.0000000   0.0000000   0.0000000   0.0000000   0.0000000   0.0000000   0.0000000   0.0000000
 NQMom=    0.0000000   0.0000000   0.0000000   0.0000000   2.0440000   0.0000000   0.0000000   0.0000000   0.0000000   0.0000000
 NMagM=    0.0000000   0.0000000   0.0000000   0.0000000   0.4037610   2.7928460   2.7928460   2.7928460   2.7928460   2.7928460
 AtZNuc=   6.0000000   6.0000000   6.0000000   6.0000000   7.0000000   1.0000000   1.0000000   1.0000000   1.0000000   1.0000000

  Atom        11          12          13          14
 IAtWgt=           1           1           1           1
 AtmWgt=   1.0078250   1.0078250   1.0078250   1.0078250
 NucSpn=           1           1           1           1
 AtZEff=   0.0000000   0.0000000   0.0000000   0.0000000
 NQMom=    0.0000000   0.0000000   0.0000000   0.0000000
 NMagM=    2.7928460   2.7928460   2.7928460   2.7928460
 AtZNuc=   1.0000000   1.0000000   1.0000000   1.0000000
 Leave Link  101 at Thu Jul 22 19:37:05 2021, MaxMem= 17179869184 cpu:        47.8
 (Enter /vol2/users/liuj201281/hxd_yi/bin/Gaussian/g09/l103.exe)

 GradGradGradGradGradGradGradGradGradGradGradGradGradGradGradGradGradGrad
 Berny optimization.
 Initialization pass.
                           ----------------------------
                           !    Initial Parameters    !
                           ! (Angstroms and Degrees)  !
 --------------------------                            --------------------------
 ! Name  Definition              Value          Derivative Info.                !
 --------------------------------------------------------------------------------
 ! R1    R(1,2)                  1.504          estimate D2E/DX2                !
 ! R2    R(1,6)                  1.0981         estimate D2E/DX2                !
 ! R3    R(1,7)                  1.0955         estimate D2E/DX2                !
 ! R4    R(1,8)                  1.0993         estimate D2E/DX2                !
 ! R5    R(2,3)                  1.3461         estimate D2E/DX2                !
 ! R6    R(2,9)                  1.0861         estimate D2E/DX2                !
 ! R7    R(3,4)                  1.5062         estimate D2E/DX2                !
 ! R8    R(3,5)                  1.4049         estimate D2E/DX2                !
 ! R9    R(4,10)                 1.0965         estimate D2E/DX2                !
 ! R10   R(4,11)                 1.0991         estimate D2E/DX2                !
 ! R11   R(4,12)                 1.0915         estimate D2E/DX2                !
 ! R12   R(5,13)                 1.0134         estimate D2E/DX2                !
 ! R13   R(5,14)                 1.0121         estimate D2E/DX2                !
 ! A1    A(2,1,6)              112.5293         estimate D2E/DX2                !
 ! A2    A(2,1,7)              110.9579         estimate D2E/DX2                !
 ! A3    A(2,1,8)              112.6876         estimate D2E/DX2                !
 ! A4    A(6,1,7)              106.6677         estimate D2E/DX2                !
 ! A5    A(6,1,8)              106.8158         estimate D2E/DX2                !
 ! A6    A(7,1,8)              106.8024         estimate D2E/DX2                !
 ! A7    A(1,2,3)              125.8897         estimate D2E/DX2                !
 ! A8    A(1,2,9)              116.8872         estimate D2E/DX2                !
 ! A9    A(3,2,9)              117.1878         estimate D2E/DX2                !
 ! A10   A(2,3,4)              122.383          estimate D2E/DX2                !
 ! A11   A(2,3,5)              124.1391         estimate D2E/DX2                !
 ! A12   A(4,3,5)              113.3795         estimate D2E/DX2                !
 ! A13   A(3,4,10)             110.8887         estimate D2E/DX2                !
 ! A14   A(3,4,11)             111.1086         estimate D2E/DX2                !
 ! A15   A(3,4,12)             111.2031         estimate D2E/DX2                !
 ! A16   A(10,4,11)            106.9763         estimate D2E/DX2                !
 ! A17   A(10,4,12)            108.6644         estimate D2E/DX2                !
 ! A18   A(11,4,12)            107.8417         estimate D2E/DX2                !
 ! A19   A(3,5,13)             113.9319         estimate D2E/DX2                !
 ! A20   A(3,5,14)             114.6068         estimate D2E/DX2                !
 ! A21   A(13,5,14)            110.7223         estimate D2E/DX2                !
 ! D1    D(6,1,2,3)             28.7204         estimate D2E/DX2                !
 ! D2    D(6,1,2,9)           -153.5096         estimate D2E/DX2                !
 ! D3    D(7,1,2,3)            148.1529         estimate D2E/DX2                !
 ! D4    D(7,1,2,9)            -34.0772         estimate D2E/DX2                !
 ! D5    D(8,1,2,3)            -92.1354         estimate D2E/DX2                !
 ! D6    D(8,1,2,9)             85.6345         estimate D2E/DX2                !
 ! D7    D(1,2,3,4)           -179.9161         estimate D2E/DX2                !
 ! D8    D(1,2,3,5)              3.9323         estimate D2E/DX2                !
 ! D9    D(9,2,3,4)              2.3199         estimate D2E/DX2                !
 ! D10   D(9,2,3,5)           -173.8316         estimate D2E/DX2                !
 ! D11   D(2,3,4,10)          -119.7592         estimate D2E/DX2                !
 ! D12   D(2,3,4,11)           121.4036         estimate D2E/DX2                !
 ! D13   D(2,3,4,12)             1.269          estimate D2E/DX2                !
 ! D14   D(5,3,4,10)            56.771          estimate D2E/DX2                !
 ! D15   D(5,3,4,11)           -62.0661         estimate D2E/DX2                !
 ! D16   D(5,3,4,12)           177.7993         estimate D2E/DX2                !
 ! D17   D(2,3,5,13)          -144.9626         estimate D2E/DX2                !
 ! D18   D(2,3,5,14)           -15.9833         estimate D2E/DX2                !
 ! D19   D(4,3,5,13)            38.5777         estimate D2E/DX2                !
 ! D20   D(4,3,5,14)           167.557          estimate D2E/DX2                !
 --------------------------------------------------------------------------------
 Trust Radius=3.00D-01 FncErr=1.00D-07 GrdErr=1.00D-06
 Number of steps in this run=     64 maximum allowed number of steps=    100.
 GradGradGradGradGradGradGradGradGradGradGradGradGradGradGradGradGradGrad

 Leave Link  103 at Thu Jul 22 19:37:05 2021, MaxMem= 17179869184 cpu:         1.7
 (Enter /vol2/users/liuj201281/hxd_yi/bin/Gaussian/g09/l202.exe)
                          Input orientation:                          
 ---------------------------------------------------------------------
 Center     Atomic      Atomic             Coordinates (Angstroms)
 Number     Number       Type             X           Y           Z
 ---------------------------------------------------------------------
      1          6           0        2.082700   -0.105400    0.008500
      2          6           0        0.702400   -0.702600    0.008900
      3          6           0       -0.454900   -0.015100   -0.002000
      4          6           0       -1.798100   -0.696600    0.001200
      5          7           0       -0.539900    1.384100   -0.095300
      6          1           0        2.113800    0.882600    0.486700
      7          1           0        2.785300   -0.742200    0.557000
      8          1           0        2.490700    0.018700   -1.004700
      9          1           0        0.636100   -1.786300   -0.018800
     10          1           0       -2.374100   -0.429600   -0.892800
     11          1           0       -2.395500   -0.389900    0.871300
     12          1           0       -1.689900   -1.782200    0.035700
     13          1           0       -1.304800    1.785700    0.434400
     14          1           0        0.325100    1.872700    0.098200
 ---------------------------------------------------------------------
                    Distance matrix (angstroms):
                    1          2          3          4          5
     1  C    0.000000
     2  C    1.503953   0.000000
     3  C    2.539228   1.346149   0.000000
     4  C    3.925580   2.500519   1.506200   0.000000
     5  N    3.017849   2.430737   1.404881   2.433453   0.000000
     6  H    1.098083   2.175592   2.764582   4.246474   2.762671
     7  H    1.095451   2.154171   3.367499   4.617201   4.000450
     8  H    1.099290   2.178457   3.111769   4.462880   3.446137
     9  H    2.217842   1.086079   2.080316   2.667054   3.382346
    10  H    4.558565   3.217521   2.156076   1.096495   2.699964
    11  H    4.569424   3.230867   2.160800   1.099102   2.743108
    12  H    4.128548   2.624758   2.156221   1.091524   3.371219
    13  H    3.902923   3.225142   2.038543   2.567649   1.013379
    14  H    2.647656   2.604323   2.045050   3.334470   1.012125
                    6          7          8          9         10
     6  H    0.000000
     7  H    1.759497   0.000000
     8  H    1.764271   1.762006   0.000000
     9  H    3.092273   2.457794   2.769398   0.000000
    10  H    4.875052   5.368337   4.886694   3.415526   0.000000
    11  H    4.701166   5.202268   5.249884   3.454390   1.764676
    12  H    4.666122   4.623934   4.669378   2.326642   1.777574
    13  H    3.536262   4.809805   4.427089   4.090436   2.795070
    14  H    2.081028   3.619500   3.056718   3.674056   3.683524
                   11         12         13         14
    11  H    0.000000
    12  H    1.770480   0.000000
    13  H    2.472599   3.610703   0.000000
    14  H    3.621976   4.174018   1.666485   0.000000
 Stoichiometry    C4H9N
 Framework group  C1[X(C4H9N)]
 Deg. of freedom    36
 Full point group                 C1      NOp   1
 Largest Abelian subgroup         C1      NOp   1
 Largest concise Abelian subgroup C1      NOp   1
                         Standard orientation:                         
 ---------------------------------------------------------------------
 Center     Atomic      Atomic             Coordinates (Angstroms)
 Number     Number       Type             X           Y           Z
 ---------------------------------------------------------------------
      1          6           0       -2.082699   -0.105427   -0.008512
      2          6           0       -0.702391   -0.702609   -0.008912
      3          6           0        0.454900   -0.015094    0.001988
      4          6           0        1.798109   -0.696577   -0.001212
      5          7           0        0.539882    1.384107    0.095288
      6          1           0       -2.113811    0.882573   -0.486713
      7          1           0       -2.785290   -0.742236   -0.557013
      8          1           0       -2.490700    0.018668    1.004688
      9          1           0       -0.636077   -1.786308    0.018788
     10          1           0        2.374106   -0.429569    0.892788
     11          1           0        2.395505   -0.389869   -0.871313
     12          1           0        1.689923   -1.782178   -0.035713
     13          1           0        1.304777    1.785717   -0.434413
     14          1           0       -0.325124    1.872696   -0.098213
 ---------------------------------------------------------------------
 Rotational constants (GHZ):      8.8714960      3.5598736      2.6315624
 Leave Link  202 at Thu Jul 22 19:37:05 2021, MaxMem= 17179869184 cpu:         2.6
 (Enter /vol2/users/liuj201281/hxd_yi/bin/Gaussian/g09/l301.exe)
 Standard basis: 6-31G(d,p) (6D, 7F)
 Ernie: Thresh=  0.10000D-02 Tol=  0.10000D-05 Strict=F.
 There are   120 symmetry adapted cartesian basis functions of A   symmetry.
 There are   120 symmetry adapted basis functions of A   symmetry.
   120 basis functions,   203 primitive gaussians,   120 cartesian basis functions
    20 alpha electrons       20 beta electrons
       nuclear repulsion energy       176.2293727185 Hartrees.
 IExCor=  402 DFT=T Ex+Corr=B3LYP ExCW=0 ScaHFX=  0.200000
 ScaDFX=  0.800000  0.720000  1.000000  0.810000 ScalE2=  1.000000  1.000000
 IRadAn=      0 IRanWt=     -1 IRanGd=            0 ICorTp=0 IEmpDi=  4
 NAtoms=   14 NActive=   14 NUniq=   14 SFac= 1.00D+00 NAtFMM=   60 NAOKFM=F Big=F
 Integral buffers will be    131072 words long.
 Raffenetti 2 integral format.
 Two-electron integral symmetry is turned on.
 Leave Link  301 at Thu Jul 22 19:37:05 2021, MaxMem= 17179869184 cpu:         6.1
 (Enter /vol2/users/liuj201281/hxd_yi/bin/Gaussian/g09/l302.exe)
 NPDir=0 NMtPBC=     1 NCelOv=     1 NCel=       1 NClECP=     1 NCelD=      1
         NCelK=      1 NCelE2=     1 NClLst=     1 CellRange=     0.0.
 One-electron integrals computed using PRISM.
 NBasis=   120 RedAO= T EigKep=  2.59D-03  NBF=   120
 NBsUse=   120 1.00D-06 EigRej= -1.00D+00 NBFU=   120
 Precomputing XC quadrature grid using
 IXCGrd= 4 IRadAn=           0 IRanWt=          -1 IRanGd=           0 AccXCQ= 0.00D+00.
 Generated NRdTot=       0 NPtTot=           0 NUsed=           0 NTot=          32
 NSgBfM=   120   120   120   120   120 MxSgAt=    14 MxSgA2=    14.
 Leave Link  302 at Thu Jul 22 19:37:06 2021, MaxMem= 17179869184 cpu:        44.0
 (Enter /vol2/users/liuj201281/hxd_yi/bin/Gaussian/g09/l303.exe)
 DipDrv:  MaxL=1.
 Leave Link  303 at Thu Jul 22 19:37:06 2021, MaxMem= 17179869184 cpu:         3.4
 (Enter /vol2/users/liuj201281/hxd_yi/bin/Gaussian/g09/l401.exe)
 ExpMin= 1.61D-01 ExpMax= 4.17D+03 ExpMxC= 6.27D+02 IAcc=1 IRadAn=         1 AccDes= 0.00D+00
 Harris functional with IExCor=  402 and IRadAn=       1 diagonalized for initial guess.
 HarFok:  IExCor=  402 AccDes= 0.00D+00 IRadAn=         1 IDoV= 1 UseB2=F ITyADJ=14
 ICtDFT=  3500011 ScaDFX=  1.000000  1.000000  1.000000  1.000000
 FoFCou: FMM=F IPFlag=           0 FMFlag=      100000 FMFlg1=           0
         NFxFlg=           0 DoJE=T BraDBF=F KetDBF=T FulRan=T
         wScrn=  0.000000 ICntrl=     500 IOpCl=  0 I1Cent=   200000004 NGrid=           0
         NMat0=    1 NMatS0=      1 NMatT0=    0 NMatD0=    1 NMtDS0=    0 NMtDT0=    0
 Petite list used in FoFCou.
 Harris En= -212.657210600043    
 JPrj=0 DoOrth=F DoCkMO=F.
 Leave Link  401 at Thu Jul 22 19:37:06 2021, MaxMem= 17179869184 cpu:        44.8
 (Enter /vol2/users/liuj201281/hxd_yi/bin/Gaussian/g09/l502.exe)
 Closed shell SCF:
 Using DIIS extrapolation, IDIIS=  1040.
 Integral symmetry usage will be decided dynamically.
 Keep R1 ints in memory in canonical form, NReq=27379539.
 IVT=       78025 IEndB=       78025 NGot= 17179869184 MDV= 17153433730
 LenX= 17153433730 LenY= 17153418889
 Requested convergence on RMS density matrix=1.00D-08 within 128 cycles.
 Requested convergence on MAX density matrix=1.00D-06.
 Requested convergence on             energy=1.00D-06.
 No special actions if energy rises.
 FoFCou: FMM=F IPFlag=           0 FMFlag=           0 FMFlg1=           0
         NFxFlg=           0 DoJE=F BraDBF=F KetDBF=F FulRan=T
         wScrn=  0.000000 ICntrl=     600 IOpCl=  0 I1Cent=           0 NGrid=           0
         NMat0=    1 NMatS0=   7260 NMatT0=    0 NMatD0=    1 NMtDS0=    0 NMtDT0=    0
 Symmetry not used in FoFCou.
 Integral accuracy reduced to 1.0D-05 until final iterations.

 Cycle   1  Pass 0  IDiag  1:
 E= -212.382245660035    
 DIIS: error= 3.05D-02 at cycle   1 NSaved=   1.
 NSaved= 1 IEnMin= 1 EnMin= -212.382245660035     IErMin= 1 ErrMin= 3.05D-02
 ErrMax= 3.05D-02  0.00D+00 EMaxC= 1.00D-01 BMatC= 2.01D-01 BMatP= 2.01D-01
 IDIUse=3 WtCom= 6.95D-01 WtEn= 3.05D-01
 Coeff-Com:  0.100D+01
 Coeff-En:   0.100D+01
 Coeff:      0.100D+01
 Gap=     0.227 Goal=   None    Shift=    0.000
 GapD=    0.227 DampG=1.000 DampE=0.500 DampFc=0.5000 IDamp=-1.
 Damping current iteration by 5.00D-01
 RMSDP=8.54D-03 MaxDP=1.55D-01              OVMax= 2.12D-01

 Cycle   2  Pass 0  IDiag  1:
 E= -212.478902346417     Delta-E=       -0.096656686381 Rises=F Damp=T
 DIIS: error= 9.11D-03 at cycle   2 NSaved=   2.
 NSaved= 2 IEnMin= 2 EnMin= -212.478902346417     IErMin= 2 ErrMin= 9.11D-03
 ErrMax= 9.11D-03  0.00D+00 EMaxC= 1.00D-01 BMatC= 7.76D-03 BMatP= 2.01D-01
 IDIUse=3 WtCom= 9.09D-01 WtEn= 9.11D-02
 Coeff-Com:  0.656D-01 0.934D+00
 Coeff-En:   0.112D+00 0.888D+00
 Coeff:      0.699D-01 0.930D+00
 Gap=     0.263 Goal=   None    Shift=    0.000
 RMSDP=1.65D-03 MaxDP=2.95D-02 DE=-9.67D-02 OVMax= 1.40D-01

 Cycle   3  Pass 0  IDiag  1:
 E= -212.593841566352     Delta-E=       -0.114939219935 Rises=F Damp=F
 DIIS: error= 3.37D-03 at cycle   3 NSaved=   3.
 NSaved= 3 IEnMin= 3 EnMin= -212.593841566352     IErMin= 3 ErrMin= 3.37D-03
 ErrMax= 3.37D-03  0.00D+00 EMaxC= 1.00D-01 BMatC= 2.56D-03 BMatP= 7.76D-03
 IDIUse=3 WtCom= 9.66D-01 WtEn= 3.37D-02
 Coeff-Com:  0.573D-02 0.324D+00 0.670D+00
 Coeff-En:   0.000D+00 0.000D+00 0.100D+01
 Coeff:      0.554D-02 0.313D+00 0.682D+00
 Gap=     0.240 Goal=   None    Shift=    0.000
 RMSDP=7.42D-04 MaxDP=2.35D-02 DE=-1.15D-01 OVMax= 4.91D-02

 Cycle   4  Pass 0  IDiag  1:
 E= -212.594405462781     Delta-E=       -0.000563896429 Rises=F Damp=F
 DIIS: error= 3.00D-03 at cycle   4 NSaved=   4.
 NSaved= 4 IEnMin= 4 EnMin= -212.594405462781     IErMin= 4 ErrMin= 3.00D-03
 ErrMax= 3.00D-03  0.00D+00 EMaxC= 1.00D-01 BMatC= 2.02D-03 BMatP= 2.56D-03
 IDIUse=3 WtCom= 9.70D-01 WtEn= 3.00D-02
 Coeff-Com: -0.464D-02 0.626D-01 0.467D+00 0.475D+00
 Coeff-En:   0.000D+00 0.000D+00 0.452D+00 0.548D+00
 Coeff:     -0.450D-02 0.607D-01 0.467D+00 0.477D+00
 Gap=     0.243 Goal=   None    Shift=    0.000
 RMSDP=3.79D-04 MaxDP=1.17D-02 DE=-5.64D-04 OVMax= 2.52D-02

 Cycle   5  Pass 0  IDiag  1:
 E= -212.596451133215     Delta-E=       -0.002045670434 Rises=F Damp=F
 DIIS: error= 6.28D-04 at cycle   5 NSaved=   5.
 NSaved= 5 IEnMin= 5 EnMin= -212.596451133215     IErMin= 5 ErrMin= 6.28D-04
 ErrMax= 6.28D-04  0.00D+00 EMaxC= 1.00D-01 BMatC= 4.10D-05 BMatP= 2.02D-03
 IDIUse=3 WtCom= 9.94D-01 WtEn= 6.28D-03
 Coeff-Com: -0.155D-02 0.870D-02 0.173D+00 0.216D+00 0.604D+00
 Coeff-En:   0.000D+00 0.000D+00 0.000D+00 0.000D+00 0.100D+01
 Coeff:     -0.154D-02 0.864D-02 0.172D+00 0.214D+00 0.606D+00
 Gap=     0.243 Goal=   None    Shift=    0.000
 RMSDP=6.35D-05 MaxDP=1.87D-03 DE=-2.05D-03 OVMax= 2.89D-03

 Cycle   6  Pass 0  IDiag  1:
 E= -212.596483365086     Delta-E=       -0.000032231871 Rises=F Damp=F
 DIIS: error= 1.74D-04 at cycle   6 NSaved=   6.
 NSaved= 6 IEnMin= 6 EnMin= -212.596483365086     IErMin= 6 ErrMin= 1.74D-04
 ErrMax= 1.74D-04  0.00D+00 EMaxC= 1.00D-01 BMatC= 6.23D-06 BMatP= 4.10D-05
 IDIUse=3 WtCom= 9.98D-01 WtEn= 1.74D-03
 Coeff-Com: -0.431D-03-0.570D-03 0.593D-01 0.816D-01 0.344D+00 0.516D+00
 Coeff-En:   0.000D+00 0.000D+00 0.000D+00 0.000D+00 0.752D-01 0.925D+00
 Coeff:     -0.430D-03-0.569D-03 0.592D-01 0.815D-01 0.343D+00 0.517D+00
 Gap=     0.243 Goal=   None    Shift=    0.000
 RMSDP=1.84D-05 MaxDP=5.36D-04 DE=-3.22D-05 OVMax= 5.75D-04

 Cycle   7  Pass 0  IDiag  1:
 E= -212.596488885219     Delta-E=       -0.000005520133 Rises=F Damp=F
 DIIS: error= 1.48D-05 at cycle   7 NSaved=   7.
 NSaved= 7 IEnMin= 7 EnMin= -212.596488885219     IErMin= 7 ErrMin= 1.48D-05
 ErrMax= 1.48D-05  0.00D+00 EMaxC= 1.00D-01 BMatC= 4.69D-08 BMatP= 6.23D-06
 IDIUse=1 WtCom= 1.00D+00 WtEn= 0.00D+00
 Coeff-Com: -0.211D-04-0.531D-03 0.128D-01 0.176D-01 0.853D-01 0.148D+00
 Coeff-Com:  0.737D+00
 Coeff:     -0.211D-04-0.531D-03 0.128D-01 0.176D-01 0.853D-01 0.148D+00
 Coeff:      0.737D+00
 Gap=     0.243 Goal=   None    Shift=    0.000
 RMSDP=2.26D-06 MaxDP=5.57D-05 DE=-5.52D-06 OVMax= 8.36D-05

 Initial convergence to 1.0D-05 achieved.  Increase integral accuracy.
 Cycle   8  Pass 1  IDiag  1:
 E= -212.596514960581     Delta-E=       -0.000026075361 Rises=F Damp=F
 DIIS: error= 1.23D-05 at cycle   1 NSaved=   1.
 NSaved= 1 IEnMin= 1 EnMin= -212.596514960581     IErMin= 1 ErrMin= 1.23D-05
 ErrMax= 1.23D-05  0.00D+00 EMaxC= 1.00D-01 BMatC= 3.72D-08 BMatP= 3.72D-08
 IDIUse=1 WtCom= 1.00D+00 WtEn= 0.00D+00
 Coeff-Com:  0.100D+01
 Coeff:      0.100D+01
 Gap=     0.243 Goal=   None    Shift=    0.000
 RMSDP=2.26D-06 MaxDP=5.57D-05 DE=-2.61D-05 OVMax= 9.84D-05

 Cycle   9  Pass 1  IDiag  1:
 E= -212.596514984377     Delta-E=       -0.000000023797 Rises=F Damp=F
 DIIS: error= 9.06D-06 at cycle   2 NSaved=   2.
 NSaved= 2 IEnMin= 2 EnMin= -212.596514984377     IErMin= 2 ErrMin= 9.06D-06
 ErrMax= 9.06D-06  0.00D+00 EMaxC= 1.00D-01 BMatC= 2.47D-08 BMatP= 3.72D-08
 IDIUse=1 WtCom= 1.00D+00 WtEn= 0.00D+00
 Coeff-Com:  0.435D+00 0.565D+00
 Coeff:      0.435D+00 0.565D+00
 Gap=     0.243 Goal=   None    Shift=    0.000
 RMSDP=1.77D-06 MaxDP=4.03D-05 DE=-2.38D-08 OVMax= 6.97D-05

 Cycle  10  Pass 1  IDiag  1:
 E= -212.596515005114     Delta-E=       -0.000000020737 Rises=F Damp=F
 DIIS: error= 3.65D-06 at cycle   3 NSaved=   3.
 NSaved= 3 IEnMin= 3 EnMin= -212.596515005114     IErMin= 3 ErrMin= 3.65D-06
 ErrMax= 3.65D-06  0.00D+00 EMaxC= 1.00D-01 BMatC= 3.75D-09 BMatP= 2.47D-08
 IDIUse=1 WtCom= 1.00D+00 WtEn= 0.00D+00
 Coeff-Com:  0.200D-01 0.275D+00 0.705D+00
 Coeff:      0.200D-01 0.275D+00 0.705D+00
 Gap=     0.243 Goal=   None    Shift=    0.000
 RMSDP=6.84D-07 MaxDP=1.83D-05 DE=-2.07D-08 OVMax= 3.95D-05

 Cycle  11  Pass 1  IDiag  1:
 E= -212.596515007840     Delta-E=       -0.000000002726 Rises=F Damp=F
 DIIS: error= 2.58D-06 at cycle   4 NSaved=   4.
 NSaved= 4 IEnMin= 4 EnMin= -212.596515007840     IErMin= 4 ErrMin= 2.58D-06
 ErrMax= 2.58D-06  0.00D+00 EMaxC= 1.00D-01 BMatC= 9.60D-10 BMatP= 3.75D-09
 IDIUse=1 WtCom= 1.00D+00 WtEn= 0.00D+00
 Coeff-Com: -0.187D-01 0.140D+00 0.459D+00 0.420D+00
 Coeff:     -0.187D-01 0.140D+00 0.459D+00 0.420D+00
 Gap=     0.243 Goal=   None    Shift=    0.000
 RMSDP=2.58D-07 MaxDP=8.49D-06 DE=-2.73D-09 OVMax= 1.68D-05

 Cycle  12  Pass 1  IDiag  1:
 E= -212.596515008788     Delta-E=       -0.000000000948 Rises=F Damp=F
 DIIS: error= 2.12D-07 at cycle   5 NSaved=   5.
 NSaved= 5 IEnMin= 5 EnMin= -212.596515008788     IErMin= 5 ErrMin= 2.12D-07
 ErrMax= 2.12D-07  0.00D+00 EMaxC= 1.00D-01 BMatC= 1.12D-11 BMatP= 9.60D-10
 IDIUse=1 WtCom= 1.00D+00 WtEn= 0.00D+00
 Coeff-Com: -0.808D-02 0.514D-01 0.173D+00 0.192D+00 0.592D+00
 Coeff:     -0.808D-02 0.514D-01 0.173D+00 0.192D+00 0.592D+00
 Gap=     0.243 Goal=   None    Shift=    0.000
 RMSDP=3.15D-08 MaxDP=8.36D-07 DE=-9.48D-10 OVMax= 1.36D-06

 Cycle  13  Pass 1  IDiag  1:
 E= -212.596515008797     Delta-E=       -0.000000000010 Rises=F Damp=F
 DIIS: error= 8.19D-08 at cycle   6 NSaved=   6.
 NSaved= 6 IEnMin= 6 EnMin= -212.596515008797     IErMin= 6 ErrMin= 8.19D-08
 ErrMax= 8.19D-08  0.00D+00 EMaxC= 1.00D-01 BMatC= 1.54D-12 BMatP= 1.12D-11
 IDIUse=1 WtCom= 1.00D+00 WtEn= 0.00D+00
 Coeff-Com: -0.200D-02 0.975D-02 0.343D-01 0.541D-01 0.305D+00 0.598D+00
 Coeff:     -0.200D-02 0.975D-02 0.343D-01 0.541D-01 0.305D+00 0.598D+00
 Gap=     0.243 Goal=   None    Shift=    0.000
 RMSDP=9.86D-09 MaxDP=2.65D-07 DE=-9.61D-12 OVMax= 3.35D-07

 SCF Done:  E(RB3LYP) =  -212.596515009     A.U. after   13 cycles
            NFock= 13  Conv=0.99D-08     -V/T= 2.0101
 KE= 2.104810294316D+02 PE=-8.448777953451D+02 EE= 2.455708781862D+02
 Leave Link  502 at Thu Jul 22 19:37:08 2021, MaxMem= 17179869184 cpu:       154.8
 (Enter /vol2/users/liuj201281/hxd_yi/bin/Gaussian/g09/l601.exe)
 Copying SCF densities to generalized density rwf, IOpCl= 0 IROHF=0.

 **********************************************************************

            Population analysis using the SCF density.

 **********************************************************************

 Orbital symmetries:
       Occupied  (A) (A) (A) (A) (A) (A) (A) (A) (A) (A) (A) (A)
                 (A) (A) (A) (A) (A) (A) (A) (A)
       Virtual   (A) (A) (A) (A) (A) (A) (A) (A) (A) (A) (A) (A)
                 (A) (A) (A) (A) (A) (A) (A) (A) (A) (A) (A) (A)
                 (A) (A) (A) (A) (A) (A) (A) (A) (A) (A) (A) (A)
                 (A) (A) (A) (A) (A) (A) (A) (A) (A) (A) (A) (A)
                 (A) (A) (A) (A) (A) (A) (A) (A) (A) (A) (A) (A)
                 (A) (A) (A) (A) (A) (A) (A) (A) (A) (A) (A) (A)
                 (A) (A) (A) (A) (A) (A) (A) (A) (A) (A) (A) (A)
                 (A) (A) (A) (A) (A) (A) (A) (A) (A) (A) (A) (A)
                 (A) (A) (A) (A)
 The electronic state is 1-A.
 Alpha  occ. eigenvalues --  -14.32745 -10.20753 -10.17783 -10.17323 -10.15492
 Alpha  occ. eigenvalues --   -0.89942  -0.75784  -0.71950  -0.63403  -0.53745
 Alpha  occ. eigenvalues --   -0.50367  -0.44222  -0.42157  -0.40874  -0.39375
 Alpha  occ. eigenvalues --   -0.37963  -0.35344  -0.33881  -0.30184  -0.18893
 Alpha virt. eigenvalues --    0.05418   0.07838   0.11327   0.13459   0.15137
 Alpha virt. eigenvalues --    0.15930   0.18399   0.18742   0.20926   0.22630
 Alpha virt. eigenvalues --    0.24965   0.25696   0.35940   0.44825   0.51802
 Alpha virt. eigenvalues --    0.52549   0.54230   0.57547   0.58494   0.59688
 Alpha virt. eigenvalues --    0.65743   0.67489   0.69937   0.72701   0.73272
 Alpha virt. eigenvalues --    0.77718   0.79013   0.83008   0.85522   0.86250
 Alpha virt. eigenvalues --    0.87807   0.88600   0.89284   0.90258   0.93392
 Alpha virt. eigenvalues --    0.94645   0.97630   1.01575   1.14300   1.17523
 Alpha virt. eigenvalues --    1.21445   1.30247   1.33487   1.40469   1.41374
 Alpha virt. eigenvalues --    1.44315   1.65041   1.68106   1.73744   1.79519
 Alpha virt. eigenvalues --    1.80946   1.82912   1.86659   1.93317   1.97666
 Alpha virt. eigenvalues --    2.04815   2.05398   2.06090   2.07684   2.09487
 Alpha virt. eigenvalues --    2.11159   2.11910   2.16035   2.18755   2.21119
 Alpha virt. eigenvalues --    2.28853   2.33229   2.34548   2.38085   2.44364
 Alpha virt. eigenvalues --    2.47080   2.48366   2.55469   2.56606   2.60831
 Alpha virt. eigenvalues --    2.61996   2.68561   2.73897   2.77157   2.81880
 Alpha virt. eigenvalues --    2.85757   2.86465   2.91678   2.98432   3.06617
 Alpha virt. eigenvalues --    3.11487   3.19489   3.20979   3.33469   3.41183
 Alpha virt. eigenvalues --    3.42516   3.44098   3.45517   3.50097   3.59325
 Alpha virt. eigenvalues --    4.04068   4.20175   4.35109   4.50426   4.66001
          Condensed to atoms (all electrons):
               1          2          3          4          5          6
     1  C    4.956716   0.358630  -0.030867   0.006737  -0.016605   0.370358
     2  C    0.358630   4.932985   0.697308  -0.044058  -0.070518  -0.036347
     3  C   -0.030867   0.697308   4.528916   0.380344   0.334844  -0.009853
     4  C    0.006737  -0.044058   0.380344   5.012206  -0.083795  -0.000017
     5  N   -0.016605  -0.070518   0.334844  -0.083795   6.778377   0.002214
     6  H    0.370358  -0.036347  -0.009853  -0.000017   0.002214   0.640775
     7  H    0.375966  -0.024958   0.001901  -0.000166   0.000370  -0.028003
     8  H    0.383919  -0.036296  -0.003576  -0.000164   0.001068  -0.038549
     9  H   -0.057666   0.372492  -0.023992  -0.015311   0.005633   0.004927
    10  H   -0.000164  -0.001783  -0.034685   0.372058   0.003789  -0.000020
    11  H   -0.000199  -0.000952  -0.030163   0.362787  -0.002021   0.000035
    12  H    0.000079  -0.004063  -0.028045   0.379203   0.004072   0.000008
    13  H   -0.000137   0.006101  -0.033782  -0.010127   0.337231   0.000317
    14  H    0.005393  -0.012412  -0.026073   0.006950   0.338582   0.008361
               7          8          9         10         11         12
     1  C    0.375966   0.383919  -0.057666  -0.000164  -0.000199   0.000079
     2  C   -0.024958  -0.036296   0.372492  -0.001783  -0.000952  -0.004063
     3  C    0.001901  -0.003576  -0.023992  -0.034685  -0.030163  -0.028045
     4  C   -0.000166  -0.000164  -0.015311   0.372058   0.362787   0.379203
     5  N    0.000370   0.001068   0.005633   0.003789  -0.002021   0.004072
     6  H   -0.028003  -0.038549   0.004927  -0.000020   0.000035   0.000008
     7  H    0.609074  -0.036823  -0.004437  -0.000003   0.000011  -0.000013
     8  H   -0.036823   0.613533   0.001408   0.000041  -0.000010   0.000002
     9  H   -0.004437   0.001408   0.645201   0.000211   0.000450   0.005953
    10  H   -0.000003   0.000041   0.000211   0.605373  -0.041514  -0.025572
    11  H    0.000011  -0.000010   0.000450  -0.041514   0.631735  -0.028560
    12  H   -0.000013   0.000002   0.005953  -0.025572  -0.028560   0.582041
    13  H    0.000011  -0.000069  -0.000160  -0.001203   0.006590  -0.000153
    14  H   -0.000269  -0.000652   0.000014  -0.000098  -0.000036  -0.000233
              13         14
     1  C   -0.000137   0.005393
     2  C    0.006101  -0.012412
     3  C   -0.033782  -0.026073
     4  C   -0.010127   0.006950
     5  N    0.337231   0.338582
     6  H    0.000317   0.008361
     7  H    0.000011  -0.000269
     8  H   -0.000069  -0.000652
     9  H   -0.000160   0.000014
    10  H   -0.001203  -0.000098
    11  H    0.006590  -0.000036
    12  H   -0.000153  -0.000233
    13  H    0.482389  -0.032929
    14  H   -0.032929   0.464151
 Mulliken charges:
               1
     1  C   -0.352159
     2  C   -0.136129
     3  C    0.277724
     4  C   -0.366647
     5  N   -0.633239
     6  H    0.085796
     7  H    0.107337
     8  H    0.116168
     9  H    0.065277
    10  H    0.123569
    11  H    0.101849
    12  H    0.115281
    13  H    0.245922
    14  H    0.249250
 Sum of Mulliken charges =   0.00000
 Mulliken charges with hydrogens summed into heavy atoms:
               1
     1  C   -0.042858
     2  C   -0.070852
     3  C    0.277724
     4  C   -0.025947
     5  N   -0.138067
 Electronic spatial extent (au):  <R**2>=            512.6484
 Charge=              0.0000 electrons
 Dipole moment (field-independent basis, Debye):
    X=              0.3877    Y=              0.7337    Z=             -0.9992  Tot=              1.2989
 Quadrupole moment (field-independent basis, Debye-Ang):
   XX=            -30.1217   YY=            -29.5877   ZZ=            -34.2302
   XY=             -0.1366   XZ=             -1.0953   YZ=             -2.2158
 Traceless Quadrupole moment (field-independent basis, Debye-Ang):
   XX=              1.1915   YY=              1.7255   ZZ=             -2.9170
   XY=             -0.1366   XZ=             -1.0953   YZ=             -2.2158
 Octapole moment (field-independent basis, Debye-Ang**2):
  XXX=              4.2045  YYY=              7.4478  ZZZ=             -0.2155  XYY=              0.5928
  XXY=              2.9382  XXZ=             -1.1903  XZZ=              0.9109  YZZ=              1.2464
  YYZ=             -4.4164  XYZ=             -2.3012
 Hexadecapole moment (field-independent basis, Debye-Ang**3):
 XXXX=           -456.1001 YYYY=           -167.3019 ZZZZ=            -49.4793 XXXY=              9.6059
 XXXZ=             -1.1060 YYYX=              1.5686 YYYZ=             -8.2038 ZZZX=             -1.8658
 ZZZY=             -1.8965 XXYY=           -102.0848 XXZZ=            -81.1302 YYZZ=            -42.2111
 XXYZ=             -1.9533 YYXZ=             -3.0137 ZZXY=              0.2707
 N-N= 1.762293727185D+02 E-N=-8.448777887717D+02  KE= 2.104810294316D+02
 No NMR shielding tensors so no spin-rotation constants.
 Leave Link  601 at Thu Jul 22 19:37:08 2021, MaxMem= 17179869184 cpu:        34.7
 (Enter /vol2/users/liuj201281/hxd_yi/bin/Gaussian/g09/l701.exe)
 Compute integral first derivatives.
 ... and contract with generalized density number  0.
 Leave Link  701 at Thu Jul 22 19:37:09 2021, MaxMem= 17179869184 cpu:        51.6
 (Enter /vol2/users/liuj201281/hxd_yi/bin/Gaussian/g09/l702.exe)
 L702 exits ... SP integral derivatives will be done elsewhere.
 Leave Link  702 at Thu Jul 22 19:37:09 2021, MaxMem= 17179869184 cpu:         2.4
 (Enter /vol2/users/liuj201281/hxd_yi/bin/Gaussian/g09/l703.exe)
 Compute integral first derivatives, UseDBF=F ICtDFT=           0.
 Integral derivatives from FoFJK, PRISM(SPDF).
 Calling FoFJK, ICntrl=      2127 FMM=F ISym2X=0 I1Cent= 0 IOpClX= 0 NMat=1 NMatS=1 NMatT=0.
 FoFJK:  IHMeth= 1 ICntrl=    2127 DoSepK=F KAlg= 0 I1Cent=   0 FoldK=F
 IRaf=         0 NMat=   1 IRICut=       1 DoRegI=T DoRafI=F ISym2E= 0.
 FoFCou: FMM=F IPFlag=           0 FMFlag=      100000 FMFlg1=         800
         NFxFlg=           0 DoJE=F BraDBF=F KetDBF=F FulRan=T
         wScrn=  0.000000 ICntrl=    2127 IOpCl=  0 I1Cent=           0 NGrid=           0
         NMat0=    1 NMatS0=      1 NMatT0=    0 NMatD0=    1 NMtDS0=    0 NMtDT0=    0
 Symmetry not used in FoFCou.
 Leave Link  703 at Thu Jul 22 19:37:09 2021, MaxMem= 17179869184 cpu:        67.7
 (Enter /vol2/users/liuj201281/hxd_yi/bin/Gaussian/g09/l716.exe)
 Dipole        = 1.52532784D-01 2.88673075D-01-3.93127576D-01
 ***** Axes restored to original set *****
 -------------------------------------------------------------------
 Center     Atomic                   Forces (Hartrees/Bohr)
 Number     Number              X              Y              Z
 -------------------------------------------------------------------
      1        6           0.000082198    0.000016419   -0.000003650
      2        6          -0.000070372   -0.000007765    0.000057038
      3        6          -0.000025240   -0.000006563   -0.000042658
      4        6           0.000020429    0.000054608    0.000014400
      5        7          -0.000089429   -0.000023958    0.000027450
      6        1          -0.000001767   -0.000029848   -0.000012840
      7        1          -0.000039029    0.000027588   -0.000006847
      8        1           0.000018605    0.000021500    0.000009619
      9        1           0.000013722   -0.000006494   -0.000006012
     10        1           0.000003037   -0.000010374    0.000012111
     11        1           0.000008725   -0.000014050   -0.000024500
     12        1           0.000008416   -0.000012411   -0.000002729
     13        1           0.000029282   -0.000020895   -0.000026036
     14        1           0.000041425    0.000012243    0.000004656
 -------------------------------------------------------------------
 Cartesian Forces:  Max     0.000089429 RMS     0.000031062
 Leave Link  716 at Thu Jul 22 19:37:10 2021, MaxMem= 17179869184 cpu:         3.6
 (Enter /vol2/users/liuj201281/hxd_yi/bin/Gaussian/g09/l103.exe)

 GradGradGradGradGradGradGradGradGradGradGradGradGradGradGradGradGradGrad
 Berny optimization.
 FormGI is forming the generalized inverse of G from B-inverse, IUseBI=4.
 Internal  Forces:  Max     0.000063318 RMS     0.000019075
 Search for a local minimum.
 Step number   1 out of a maximum of   64
 All quantities printed in internal units (Hartrees-Bohrs-Radians)
 RMS Force = .19075D-04 SwitMx=.10000D-02 MixMth= 2
 Mixed Optimization -- En-DIIS/RFO-DIIS
 Second derivative matrix not updated -- first step.
 ITU=  0
     Eigenvalues ---    0.00684   0.00714   0.01553   0.01627   0.01642
     Eigenvalues ---    0.02801   0.04571   0.06887   0.07103   0.07127
     Eigenvalues ---    0.07224   0.15993   0.16000   0.16000   0.16000
     Eigenvalues ---    0.16000   0.16000   0.16000   0.16000   0.16000
     Eigenvalues ---    0.22002   0.24952   0.24975   0.31735   0.31966
     Eigenvalues ---    0.33761   0.33782   0.33895   0.34073   0.34190
     Eigenvalues ---    0.34637   0.35270   0.44821   0.45411   0.45619
     Eigenvalues ---    0.55849
 RFO step:  Lambda=-9.16703488D-08 EMin= 6.83932051D-03
 Linear search not attempted -- first point.
 Iteration  1 RMS(Cart)=  0.00018538 RMS(Int)=  0.00000003
 Iteration  2 RMS(Cart)=  0.00000003 RMS(Int)=  0.00000001
 ITry= 1 IFail=0 DXMaxC= 6.78D-04 DCOld= 1.00D+10 DXMaxT= 3.00D-01 DXLimC= 3.00D+00 Rises=F
 Variable       Old X    -DE/DX   Delta X   Delta X   Delta X     New X
                                 (Linear)    (Quad)   (Total)
    R1        2.84206   0.00006   0.00000   0.00020   0.00020   2.84226
    R2        2.07508  -0.00004   0.00000  -0.00011  -0.00011   2.07497
    R3        2.07010  -0.00004   0.00000  -0.00013  -0.00013   2.06997
    R4        2.07736   0.00000   0.00000   0.00001   0.00001   2.07737
    R5        2.54385   0.00000   0.00000   0.00000   0.00000   2.54385
    R6        2.05239   0.00001   0.00000   0.00002   0.00002   2.05241
    R7        2.84631  -0.00005   0.00000  -0.00014  -0.00014   2.84616
    R8        2.65484  -0.00003   0.00000  -0.00007  -0.00007   2.65477
    R9        2.07208  -0.00001   0.00000  -0.00004  -0.00004   2.07203
   R10        2.07700  -0.00002   0.00000  -0.00007  -0.00007   2.07693
   R11        2.06268   0.00001   0.00000   0.00003   0.00003   2.06271
   R12        1.91501  -0.00004   0.00000  -0.00010  -0.00010   1.91491
   R13        1.91264   0.00004   0.00000   0.00010   0.00010   1.91274
    A1        1.96401  -0.00001   0.00000  -0.00006  -0.00006   1.96394
    A2        1.93658  -0.00002   0.00000  -0.00016  -0.00016   1.93642
    A3        1.96677   0.00004   0.00000   0.00030   0.00030   1.96707
    A4        1.86170   0.00000   0.00000  -0.00008  -0.00008   1.86163
    A5        1.86429  -0.00002   0.00000  -0.00007  -0.00007   1.86421
    A6        1.86405   0.00000   0.00000   0.00007   0.00007   1.86412
    A7        2.19719   0.00001   0.00000   0.00004   0.00004   2.19723
    A8        2.04007  -0.00002   0.00000  -0.00010  -0.00010   2.03997
    A9        2.04531   0.00001   0.00000   0.00005   0.00005   2.04536
   A10        2.13599   0.00001   0.00000   0.00003   0.00003   2.13602
   A11        2.16664   0.00000   0.00000   0.00002   0.00002   2.16666
   A12        1.97884  -0.00001   0.00000  -0.00002  -0.00002   1.97882
   A13        1.93537   0.00001   0.00000   0.00007   0.00007   1.93545
   A14        1.93921   0.00001   0.00000   0.00005   0.00005   1.93926
   A15        1.94086  -0.00001   0.00000  -0.00007  -0.00007   1.94079
   A16        1.86709  -0.00001   0.00000  -0.00003  -0.00003   1.86706
   A17        1.89655   0.00000   0.00000  -0.00001  -0.00001   1.89654
   A18        1.88219   0.00000   0.00000  -0.00001  -0.00001   1.88218
   A19        1.98849   0.00000   0.00000   0.00002   0.00002   1.98850
   A20        2.00027  -0.00002   0.00000  -0.00010  -0.00010   2.00017
   A21        1.93247   0.00001   0.00000   0.00005   0.00005   1.93252
    D1        0.50127   0.00001   0.00000   0.00022   0.00022   0.50149
    D2       -2.67925   0.00001   0.00000  -0.00002  -0.00002  -2.67927
    D3        2.58576  -0.00001   0.00000  -0.00003  -0.00003   2.58573
    D4       -0.59476  -0.00001   0.00000  -0.00027  -0.00027  -0.59503
    D5       -1.60807   0.00000   0.00000   0.00015   0.00015  -1.60792
    D6        1.49460   0.00000   0.00000  -0.00010  -0.00010   1.49451
    D7       -3.14013   0.00000   0.00000   0.00021   0.00021  -3.13992
    D8        0.06863   0.00000   0.00000  -0.00032  -0.00032   0.06831
    D9        0.04049   0.00001   0.00000   0.00046   0.00046   0.04095
   D10       -3.03393   0.00000   0.00000  -0.00008  -0.00008  -3.03401
   D11       -2.09019   0.00000   0.00000  -0.00041  -0.00041  -2.09060
   D12        2.11889  -0.00001   0.00000  -0.00045  -0.00045   2.11845
   D13        0.02215   0.00000   0.00000  -0.00042  -0.00042   0.02173
   D14        0.99084   0.00000   0.00000   0.00008   0.00008   0.99092
   D15       -1.08326   0.00000   0.00000   0.00003   0.00003  -1.08322
   D16        3.10318   0.00000   0.00000   0.00006   0.00006   3.10324
   D17       -2.53008   0.00001   0.00000   0.00038   0.00038  -2.52970
   D18       -0.27896   0.00001   0.00000   0.00037   0.00037  -0.27859
   D19        0.67331   0.00000   0.00000  -0.00011  -0.00011   0.67319
   D20        2.92442   0.00000   0.00000  -0.00012  -0.00012   2.92430
         Item               Value     Threshold  Converged?
 Maximum Force            0.000063     0.000450     YES
 RMS     Force            0.000019     0.000300     YES
 Maximum Displacement     0.000678     0.001800     YES
 RMS     Displacement     0.000185     0.001200     YES
 Predicted change in Energy=-4.583465D-08
 Optimization completed.
    -- Stationary point found.
                           ----------------------------
                           !   Optimized Parameters   !
                           ! (Angstroms and Degrees)  !
 --------------------------                            --------------------------
 ! Name  Definition              Value          Derivative Info.                !
 --------------------------------------------------------------------------------
 ! R1    R(1,2)                  1.504          -DE/DX =    0.0001              !
 ! R2    R(1,6)                  1.0981         -DE/DX =    0.0                 !
 ! R3    R(1,7)                  1.0955         -DE/DX =    0.0                 !
 ! R4    R(1,8)                  1.0993         -DE/DX =    0.0                 !
 ! R5    R(2,3)                  1.3461         -DE/DX =    0.0                 !
 ! R6    R(2,9)                  1.0861         -DE/DX =    0.0                 !
 ! R7    R(3,4)                  1.5062         -DE/DX =    0.0                 !
 ! R8    R(3,5)                  1.4049         -DE/DX =    0.0                 !
 ! R9    R(4,10)                 1.0965         -DE/DX =    0.0                 !
 ! R10   R(4,11)                 1.0991         -DE/DX =    0.0                 !
 ! R11   R(4,12)                 1.0915         -DE/DX =    0.0                 !
 ! R12   R(5,13)                 1.0134         -DE/DX =    0.0                 !
 ! R13   R(5,14)                 1.0121         -DE/DX =    0.0                 !
 ! A1    A(2,1,6)              112.5293         -DE/DX =    0.0                 !
 ! A2    A(2,1,7)              110.9579         -DE/DX =    0.0                 !
 ! A3    A(2,1,8)              112.6876         -DE/DX =    0.0                 !
 ! A4    A(6,1,7)              106.6677         -DE/DX =    0.0                 !
 ! A5    A(6,1,8)              106.8158         -DE/DX =    0.0                 !
 ! A6    A(7,1,8)              106.8024         -DE/DX =    0.0                 !
 ! A7    A(1,2,3)              125.8897         -DE/DX =    0.0                 !
 ! A8    A(1,2,9)              116.8872         -DE/DX =    0.0                 !
 ! A9    A(3,2,9)              117.1878         -DE/DX =    0.0                 !
 ! A10   A(2,3,4)              122.383          -DE/DX =    0.0                 !
 ! A11   A(2,3,5)              124.1391         -DE/DX =    0.0                 !
 ! A12   A(4,3,5)              113.3795         -DE/DX =    0.0                 !
 ! A13   A(3,4,10)             110.8887         -DE/DX =    0.0                 !
 ! A14   A(3,4,11)             111.1086         -DE/DX =    0.0                 !
 ! A15   A(3,4,12)             111.2031         -DE/DX =    0.0                 !
 ! A16   A(10,4,11)            106.9763         -DE/DX =    0.0                 !
 ! A17   A(10,4,12)            108.6644         -DE/DX =    0.0                 !
 ! A18   A(11,4,12)            107.8417         -DE/DX =    0.0                 !
 ! A19   A(3,5,13)             113.9319         -DE/DX =    0.0                 !
 ! A20   A(3,5,14)             114.6068         -DE/DX =    0.0                 !
 ! A21   A(13,5,14)            110.7223         -DE/DX =    0.0                 !
 ! D1    D(6,1,2,3)             28.7204         -DE/DX =    0.0                 !
 ! D2    D(6,1,2,9)           -153.5096         -DE/DX =    0.0                 !
 ! D3    D(7,1,2,3)            148.1529         -DE/DX =    0.0                 !
 ! D4    D(7,1,2,9)            -34.0772         -DE/DX =    0.0                 !
 ! D5    D(8,1,2,3)            -92.1354         -DE/DX =    0.0                 !
 ! D6    D(8,1,2,9)             85.6345         -DE/DX =    0.0                 !
 ! D7    D(1,2,3,4)           -179.9161         -DE/DX =    0.0                 !
 ! D8    D(1,2,3,5)              3.9323         -DE/DX =    0.0                 !
 ! D9    D(9,2,3,4)              2.3199         -DE/DX =    0.0                 !
 ! D10   D(9,2,3,5)           -173.8316         -DE/DX =    0.0                 !
 ! D11   D(2,3,4,10)          -119.7592         -DE/DX =    0.0                 !
 ! D12   D(2,3,4,11)           121.4036         -DE/DX =    0.0                 !
 ! D13   D(2,3,4,12)             1.269          -DE/DX =    0.0                 !
 ! D14   D(5,3,4,10)            56.771          -DE/DX =    0.0                 !
 ! D15   D(5,3,4,11)           -62.0661         -DE/DX =    0.0                 !
 ! D16   D(5,3,4,12)           177.7993         -DE/DX =    0.0                 !
 ! D17   D(2,3,5,13)          -144.9626         -DE/DX =    0.0                 !
 ! D18   D(2,3,5,14)           -15.9833         -DE/DX =    0.0                 !
 ! D19   D(4,3,5,13)            38.5777         -DE/DX =    0.0                 !
 ! D20   D(4,3,5,14)           167.557          -DE/DX =    0.0                 !
 --------------------------------------------------------------------------------
 Lowest energy point so far.  Saving SCF results.
 GradGradGradGradGradGradGradGradGradGradGradGradGradGradGradGradGradGrad

 Largest change from initial coordinates is atom    7       0.000 Angstoms.
 Leave Link  103 at Thu Jul 22 19:37:10 2021, MaxMem= 17179869184 cpu:        15.2
 (Enter /vol2/users/liuj201281/hxd_yi/bin/Gaussian/g09/l202.exe)
                          Input orientation:                          
 ---------------------------------------------------------------------
 Center     Atomic      Atomic             Coordinates (Angstroms)
 Number     Number       Type             X           Y           Z
 ---------------------------------------------------------------------
      1          6           0        2.082700   -0.105400    0.008500
      2          6           0        0.702400   -0.702600    0.008900
      3          6           0       -0.454900   -0.015100   -0.002000
      4          6           0       -1.798100   -0.696600    0.001200
      5          7           0       -0.539900    1.384100   -0.095300
      6          1           0        2.113800    0.882600    0.486700
      7          1           0        2.785300   -0.742200    0.557000
      8          1           0        2.490700    0.018700   -1.004700
      9          1           0        0.636100   -1.786300   -0.018800
     10          1           0       -2.374100   -0.429600   -0.892800
     11          1           0       -2.395500   -0.389900    0.871300
     12          1           0       -1.689900   -1.782200    0.035700
     13          1           0       -1.304800    1.785700    0.434400
     14          1           0        0.325100    1.872700    0.098200
 ---------------------------------------------------------------------
                    Distance matrix (angstroms):
                    1          2          3          4          5
     1  C    0.000000
     2  C    1.503953   0.000000
     3  C    2.539228   1.346149   0.000000
     4  C    3.925580   2.500519   1.506200   0.000000
     5  N    3.017849   2.430737   1.404881   2.433453   0.000000
     6  H    1.098083   2.175592   2.764582   4.246474   2.762671
     7  H    1.095451   2.154171   3.367499   4.617201   4.000450
     8  H    1.099290   2.178457   3.111769   4.462880   3.446137
     9  H    2.217842   1.086079   2.080316   2.667054   3.382346
    10  H    4.558565   3.217521   2.156076   1.096495   2.699964
    11  H    4.569424   3.230867   2.160800   1.099102   2.743108
    12  H    4.128548   2.624758   2.156221   1.091524   3.371219
    13  H    3.902923   3.225142   2.038543   2.567649   1.013379
    14  H    2.647656   2.604323   2.045050   3.334470   1.012125
                    6          7          8          9         10
     6  H    0.000000
     7  H    1.759497   0.000000
     8  H    1.764271   1.762006   0.000000
     9  H    3.092273   2.457794   2.769398   0.000000
    10  H    4.875052   5.368337   4.886694   3.415526   0.000000
    11  H    4.701166   5.202268   5.249884   3.454390   1.764676
    12  H    4.666122   4.623934   4.669378   2.326642   1.777574
    13  H    3.536262   4.809805   4.427089   4.090436   2.795070
    14  H    2.081028   3.619500   3.056718   3.674056   3.683524
                   11         12         13         14
    11  H    0.000000
    12  H    1.770480   0.000000
    13  H    2.472599   3.610703   0.000000
    14  H    3.621976   4.174018   1.666485   0.000000
 Stoichiometry    C4H9N
 Framework group  C1[X(C4H9N)]
 Deg. of freedom    36
 Full point group                 C1      NOp   1
 RotChk:  IX=0 Diff= 1.57D-16
 Largest Abelian subgroup         C1      NOp   1
 Largest concise Abelian subgroup C1      NOp   1
                         Standard orientation:                         
 ---------------------------------------------------------------------
 Center     Atomic      Atomic             Coordinates (Angstroms)
 Number     Number       Type             X           Y           Z
 ---------------------------------------------------------------------
      1          6           0       -2.082699   -0.105427   -0.008512
      2          6           0       -0.702391   -0.702609   -0.008912
      3          6           0        0.454900   -0.015094    0.001988
      4          6           0        1.798109   -0.696577   -0.001212
      5          7           0        0.539882    1.384107    0.095288
      6          1           0       -2.113811    0.882573   -0.486713
      7          1           0       -2.785290   -0.742236   -0.557013
      8          1           0       -2.490700    0.018668    1.004688
      9          1           0       -0.636077   -1.786308    0.018788
     10          1           0        2.374106   -0.429569    0.892788
     11          1           0        2.395505   -0.389869   -0.871313
     12          1           0        1.689923   -1.782178   -0.035713
     13          1           0        1.304777    1.785717   -0.434413
     14          1           0       -0.325124    1.872696   -0.098213
 ---------------------------------------------------------------------
 Rotational constants (GHZ):      8.8714960      3.5598736      2.6315624
 Leave Link  202 at Thu Jul 22 19:37:10 2021, MaxMem= 17179869184 cpu:         1.4
 (Enter /vol2/users/liuj201281/hxd_yi/bin/Gaussian/g09/l9999.exe)
 1\1\GINC-FN1\FOpt\RB3LYP\6-31G(d,p)\C4H9N1\LIUJ201281\22-Jul-2021\0\\#
 P OPT Freq B3LYP/6-31G**\\Frag_112\\0,1\C,2.0827,-0.1054,0.0085\C,0.70
 24,-0.7026,0.0089\C,-0.4549,-0.0151,-0.002\C,-1.7981,-0.6966,0.0012\N,
 -0.5399,1.3841,-0.0953\H,2.1138,0.8826,0.4867\H,2.7853,-0.7422,0.557\H
 ,2.4907,0.0187,-1.0047\H,0.6361,-1.7863,-0.0188\H,-2.3741,-0.4296,-0.8
 928\H,-2.3955,-0.3899,0.8713\H,-1.6899,-1.7822,0.0357\H,-1.3048,1.7857
 ,0.4344\H,0.3251,1.8727,0.0982\\Version=ES64L-G09RevD.01\State=1-A\HF=
 -212.596515\RMSD=9.861e-09\RMSF=3.106e-05\Dipole=-0.1525365,0.2886711,
 0.3931276\Quadrupole=0.885822,1.2828589,-2.168681,0.1015196,-0.8143674
 ,1.6473732\PG=C01 [X(C4H9N1)]\\@


 ...THE PHYSICISTS HAVE MADE THEIR UNIVERSE, AND IF YOU DO NOT LIKE
 IT, YOU MUST MAKE YOUR OWN.
                               -- E. R. HARRISON IN "COSMOLOGY" (1980)
 Leave Link 9999 at Thu Jul 22 19:37:10 2021, MaxMem= 17179869184 cpu:         4.8
 Job cpu time:       0 days  0 hours  8 minutes 32.7 seconds.
 File lengths (MBytes):  RWF=      8 Int=      0 D2E=      0 Chk=      2 Scr=      1
 Normal termination of Gaussian 09 at Thu Jul 22 19:37:10 2021.
 (Enter /vol2/users/liuj201281/hxd_yi/bin/Gaussian/g09/l1.exe)
 Link1:  Proceeding to internal job step number  2.
 ----------------------------------------------------------------------
 #P Geom=AllCheck Guess=TCheck SCRF=Check GenChk RB3LYP/6-31G(d,p) Freq
 ----------------------------------------------------------------------
 1/10=4,29=7,30=1,38=1,40=1/1,3;
 2/12=2,40=1/2;
 3/5=1,6=6,7=101,11=2,14=-4,16=1,25=1,30=1,70=2,71=2,74=-5,116=1,140=1/1,2,3;
 4/5=101/1;
 5/5=2,98=1/2;
 8/6=4,10=90,11=11/1;
 11/6=1,8=1,9=11,15=111,16=1/1,2,10;
 10/6=1/2;
 6/7=2,8=2,9=2,10=2,18=1,28=1/1;
 7/8=1,10=1,25=1/1,2,3,16;
 1/10=4,30=1/3;
 99//99;
 Leave Link    1 at Thu Jul 22 19:37:10 2021, MaxMem= 17179869184 cpu:         4.6
 (Enter /vol2/users/liuj201281/hxd_yi/bin/Gaussian/g09/l101.exe)
 Structure from the checkpoint file:  "/vol2/users/liuj201281/HOFBenchmark/IsodesmicSplit/Sample60/Ring26/Running/Gau-396283.chk"
 --------
 Frag_112
 --------
 Charge =  0 Multiplicity = 1
 Redundant internal coordinates found in file.
 C,0,2.0827,-0.1054,0.0085
 C,0,0.7024,-0.7026,0.0089
 C,0,-0.4549,-0.0151,-0.002
 C,0,-1.7981,-0.6966,0.0012
 N,0,-0.5399,1.3841,-0.0953
 H,0,2.1138,0.8826,0.4867
 H,0,2.7853,-0.7422,0.557
 H,0,2.4907,0.0187,-1.0047
 H,0,0.6361,-1.7863,-0.0188
 H,0,-2.3741,-0.4296,-0.8928
 H,0,-2.3955,-0.3899,0.8713
 H,0,-1.6899,-1.7822,0.0357
 H,0,-1.3048,1.7857,0.4344
 H,0,0.3251,1.8727,0.0982
 Recover connectivity data from disk.
 NAtoms=     14 NQM=       14 NQMF=       0 NMMI=      0 NMMIF=      0
                NMic=       0 NMicF=      0.
                    Isotopes and Nuclear Properties:
 (Nuclear quadrupole moments (NQMom) in fm**2, nuclear magnetic moments (NMagM)
  in nuclear magnetons)

  Atom         1           2           3           4           5           6           7           8           9          10
 IAtWgt=          12          12          12          12          14           1           1           1           1           1
 AtmWgt=  12.0000000  12.0000000  12.0000000  12.0000000  14.0030740   1.0078250   1.0078250   1.0078250   1.0078250   1.0078250
 NucSpn=           0           0           0           0           2           1           1           1           1           1
 AtZEff=  -3.6000000  -3.6000000  -3.6000000  -3.6000000  -4.5500000  -1.0000000  -1.0000000  -1.0000000  -1.0000000  -1.0000000
 NQMom=    0.0000000   0.0000000   0.0000000   0.0000000   2.0440000   0.0000000   0.0000000   0.0000000   0.0000000   0.0000000
 NMagM=    0.0000000   0.0000000   0.0000000   0.0000000   0.4037610   2.7928460   2.7928460   2.7928460   2.7928460   2.7928460
 AtZNuc=   6.0000000   6.0000000   6.0000000   6.0000000   7.0000000   1.0000000   1.0000000   1.0000000   1.0000000   1.0000000

  Atom        11          12          13          14
 IAtWgt=           1           1           1           1
 AtmWgt=   1.0078250   1.0078250   1.0078250   1.0078250
 NucSpn=           1           1           1           1
 AtZEff=  -1.0000000  -1.0000000  -1.0000000  -1.0000000
 NQMom=    0.0000000   0.0000000   0.0000000   0.0000000
 NMagM=    2.7928460   2.7928460   2.7928460   2.7928460
 AtZNuc=   1.0000000   1.0000000   1.0000000   1.0000000
 Leave Link  101 at Thu Jul 22 19:37:10 2021, MaxMem= 17179869184 cpu:        48.5
 (Enter /vol2/users/liuj201281/hxd_yi/bin/Gaussian/g09/l103.exe)

 GradGradGradGradGradGradGradGradGradGradGradGradGradGradGradGradGradGrad
 Berny optimization.
 Initialization pass.
                           ----------------------------
                           !    Initial Parameters    !
                           ! (Angstroms and Degrees)  !
 --------------------------                            --------------------------
 ! Name  Definition              Value          Derivative Info.                !
 --------------------------------------------------------------------------------
 ! R1    R(1,2)                  1.504          calculate D2E/DX2 analytically  !
 ! R2    R(1,6)                  1.0981         calculate D2E/DX2 analytically  !
 ! R3    R(1,7)                  1.0955         calculate D2E/DX2 analytically  !
 ! R4    R(1,8)                  1.0993         calculate D2E/DX2 analytically  !
 ! R5    R(2,3)                  1.3461         calculate D2E/DX2 analytically  !
 ! R6    R(2,9)                  1.0861         calculate D2E/DX2 analytically  !
 ! R7    R(3,4)                  1.5062         calculate D2E/DX2 analytically  !
 ! R8    R(3,5)                  1.4049         calculate D2E/DX2 analytically  !
 ! R9    R(4,10)                 1.0965         calculate D2E/DX2 analytically  !
 ! R10   R(4,11)                 1.0991         calculate D2E/DX2 analytically  !
 ! R11   R(4,12)                 1.0915         calculate D2E/DX2 analytically  !
 ! R12   R(5,13)                 1.0134         calculate D2E/DX2 analytically  !
 ! R13   R(5,14)                 1.0121         calculate D2E/DX2 analytically  !
 ! A1    A(2,1,6)              112.5293         calculate D2E/DX2 analytically  !
 ! A2    A(2,1,7)              110.9579         calculate D2E/DX2 analytically  !
 ! A3    A(2,1,8)              112.6876         calculate D2E/DX2 analytically  !
 ! A4    A(6,1,7)              106.6677         calculate D2E/DX2 analytically  !
 ! A5    A(6,1,8)              106.8158         calculate D2E/DX2 analytically  !
 ! A6    A(7,1,8)              106.8024         calculate D2E/DX2 analytically  !
 ! A7    A(1,2,3)              125.8897         calculate D2E/DX2 analytically  !
 ! A8    A(1,2,9)              116.8872         calculate D2E/DX2 analytically  !
 ! A9    A(3,2,9)              117.1878         calculate D2E/DX2 analytically  !
 ! A10   A(2,3,4)              122.383          calculate D2E/DX2 analytically  !
 ! A11   A(2,3,5)              124.1391         calculate D2E/DX2 analytically  !
 ! A12   A(4,3,5)              113.3795         calculate D2E/DX2 analytically  !
 ! A13   A(3,4,10)             110.8887         calculate D2E/DX2 analytically  !
 ! A14   A(3,4,11)             111.1086         calculate D2E/DX2 analytically  !
 ! A15   A(3,4,12)             111.2031         calculate D2E/DX2 analytically  !
 ! A16   A(10,4,11)            106.9763         calculate D2E/DX2 analytically  !
 ! A17   A(10,4,12)            108.6644         calculate D2E/DX2 analytically  !
 ! A18   A(11,4,12)            107.8417         calculate D2E/DX2 analytically  !
 ! A19   A(3,5,13)             113.9319         calculate D2E/DX2 analytically  !
 ! A20   A(3,5,14)             114.6068         calculate D2E/DX2 analytically  !
 ! A21   A(13,5,14)            110.7223         calculate D2E/DX2 analytically  !
 ! D1    D(6,1,2,3)             28.7204         calculate D2E/DX2 analytically  !
 ! D2    D(6,1,2,9)           -153.5096         calculate D2E/DX2 analytically  !
 ! D3    D(7,1,2,3)            148.1529         calculate D2E/DX2 analytically  !
 ! D4    D(7,1,2,9)            -34.0772         calculate D2E/DX2 analytically  !
 ! D5    D(8,1,2,3)            -92.1354         calculate D2E/DX2 analytically  !
 ! D6    D(8,1,2,9)             85.6345         calculate D2E/DX2 analytically  !
 ! D7    D(1,2,3,4)           -179.9161         calculate D2E/DX2 analytically  !
 ! D8    D(1,2,3,5)              3.9323         calculate D2E/DX2 analytically  !
 ! D9    D(9,2,3,4)              2.3199         calculate D2E/DX2 analytically  !
 ! D10   D(9,2,3,5)           -173.8316         calculate D2E/DX2 analytically  !
 ! D11   D(2,3,4,10)          -119.7592         calculate D2E/DX2 analytically  !
 ! D12   D(2,3,4,11)           121.4036         calculate D2E/DX2 analytically  !
 ! D13   D(2,3,4,12)             1.269          calculate D2E/DX2 analytically  !
 ! D14   D(5,3,4,10)            56.771          calculate D2E/DX2 analytically  !
 ! D15   D(5,3,4,11)           -62.0661         calculate D2E/DX2 analytically  !
 ! D16   D(5,3,4,12)           177.7993         calculate D2E/DX2 analytically  !
 ! D17   D(2,3,5,13)          -144.9626         calculate D2E/DX2 analytically  !
 ! D18   D(2,3,5,14)           -15.9833         calculate D2E/DX2 analytically  !
 ! D19   D(4,3,5,13)            38.5777         calculate D2E/DX2 analytically  !
 ! D20   D(4,3,5,14)           167.557          calculate D2E/DX2 analytically  !
 --------------------------------------------------------------------------------
 Trust Radius=3.00D-01 FncErr=1.00D-07 GrdErr=1.00D-07
 Number of steps in this run=      2 maximum allowed number of steps=      2.
 GradGradGradGradGradGradGradGradGradGradGradGradGradGradGradGradGradGrad

 Leave Link  103 at Thu Jul 22 19:37:11 2021, MaxMem= 17179869184 cpu:         1.4
 (Enter /vol2/users/liuj201281/hxd_yi/bin/Gaussian/g09/l202.exe)
                          Input orientation:                          
 ---------------------------------------------------------------------
 Center     Atomic      Atomic             Coordinates (Angstroms)
 Number     Number       Type             X           Y           Z
 ---------------------------------------------------------------------
      1          6           0        2.082700   -0.105400    0.008500
      2          6           0        0.702400   -0.702600    0.008900
      3          6           0       -0.454900   -0.015100   -0.002000
      4          6           0       -1.798100   -0.696600    0.001200
      5          7           0       -0.539900    1.384100   -0.095300
      6          1           0        2.113800    0.882600    0.486700
      7          1           0        2.785300   -0.742200    0.557000
      8          1           0        2.490700    0.018700   -1.004700
      9          1           0        0.636100   -1.786300   -0.018800
     10          1           0       -2.374100   -0.429600   -0.892800
     11          1           0       -2.395500   -0.389900    0.871300
     12          1           0       -1.689900   -1.782200    0.035700
     13          1           0       -1.304800    1.785700    0.434400
     14          1           0        0.325100    1.872700    0.098200
 ---------------------------------------------------------------------
                    Distance matrix (angstroms):
                    1          2          3          4          5
     1  C    0.000000
     2  C    1.503953   0.000000
     3  C    2.539228   1.346149   0.000000
     4  C    3.925580   2.500519   1.506200   0.000000
     5  N    3.017849   2.430737   1.404881   2.433453   0.000000
     6  H    1.098083   2.175592   2.764582   4.246474   2.762671
     7  H    1.095451   2.154171   3.367499   4.617201   4.000450
     8  H    1.099290   2.178457   3.111769   4.462880   3.446137
     9  H    2.217842   1.086079   2.080316   2.667054   3.382346
    10  H    4.558565   3.217521   2.156076   1.096495   2.699964
    11  H    4.569424   3.230867   2.160800   1.099102   2.743108
    12  H    4.128548   2.624758   2.156221   1.091524   3.371219
    13  H    3.902923   3.225142   2.038543   2.567649   1.013379
    14  H    2.647656   2.604323   2.045050   3.334470   1.012125
                    6          7          8          9         10
     6  H    0.000000
     7  H    1.759497   0.000000
     8  H    1.764271   1.762006   0.000000
     9  H    3.092273   2.457794   2.769398   0.000000
    10  H    4.875052   5.368337   4.886694   3.415526   0.000000
    11  H    4.701166   5.202268   5.249884   3.454390   1.764676
    12  H    4.666122   4.623934   4.669378   2.326642   1.777574
    13  H    3.536262   4.809805   4.427089   4.090436   2.795070
    14  H    2.081028   3.619500   3.056718   3.674056   3.683524
                   11         12         13         14
    11  H    0.000000
    12  H    1.770480   0.000000
    13  H    2.472599   3.610703   0.000000
    14  H    3.621976   4.174018   1.666485   0.000000
 Stoichiometry    C4H9N
 Framework group  C1[X(C4H9N)]
 Deg. of freedom    36
 Full point group                 C1      NOp   1
 RotChk:  IX=0 Diff= 1.01D-15
 Largest Abelian subgroup         C1      NOp   1
 Largest concise Abelian subgroup C1      NOp   1
                         Standard orientation:                         
 ---------------------------------------------------------------------
 Center     Atomic      Atomic             Coordinates (Angstroms)
 Number     Number       Type             X           Y           Z
 ---------------------------------------------------------------------
      1          6           0       -2.082699   -0.105427   -0.008512
      2          6           0       -0.702391   -0.702609   -0.008912
      3          6           0        0.454900   -0.015094    0.001988
      4          6           0        1.798109   -0.696577   -0.001212
      5          7           0        0.539882    1.384107    0.095288
      6          1           0       -2.113811    0.882573   -0.486713
      7          1           0       -2.785290   -0.742236   -0.557013
      8          1           0       -2.490700    0.018668    1.004688
      9          1           0       -0.636077   -1.786308    0.018788
     10          1           0        2.374106   -0.429569    0.892788
     11          1           0        2.395505   -0.389869   -0.871313
     12          1           0        1.689923   -1.782178   -0.035713
     13          1           0        1.304777    1.785717   -0.434413
     14          1           0       -0.325124    1.872696   -0.098213
 ---------------------------------------------------------------------
 Rotational constants (GHZ):      8.8714960      3.5598736      2.6315624
 Leave Link  202 at Thu Jul 22 19:37:11 2021, MaxMem= 17179869184 cpu:         1.4
 (Enter /vol2/users/liuj201281/hxd_yi/bin/Gaussian/g09/l301.exe)
 Standard basis: 6-31G(d,p) (6D, 7F)
 Ernie: Thresh=  0.10000D-02 Tol=  0.10000D-05 Strict=F.
 There are   120 symmetry adapted cartesian basis functions of A   symmetry.
 There are   120 symmetry adapted basis functions of A   symmetry.
   120 basis functions,   203 primitive gaussians,   120 cartesian basis functions
    20 alpha electrons       20 beta electrons
       nuclear repulsion energy       176.2293727185 Hartrees.
 IExCor=  402 DFT=T Ex+Corr=B3LYP ExCW=0 ScaHFX=  0.200000
 ScaDFX=  0.800000  0.720000  1.000000  0.810000 ScalE2=  1.000000  1.000000
 IRadAn=      0 IRanWt=     -1 IRanGd=            0 ICorTp=0 IEmpDi=  4
 NAtoms=   14 NActive=   14 NUniq=   14 SFac= 1.00D+00 NAtFMM=   60 NAOKFM=F Big=F
 Integral buffers will be    131072 words long.
 Raffenetti 2 integral format.
 Two-electron integral symmetry is turned on.
 Leave Link  301 at Thu Jul 22 19:37:11 2021, MaxMem= 17179869184 cpu:         5.7
 (Enter /vol2/users/liuj201281/hxd_yi/bin/Gaussian/g09/l302.exe)
 NPDir=0 NMtPBC=     1 NCelOv=     1 NCel=       1 NClECP=     1 NCelD=      1
         NCelK=      1 NCelE2=     1 NClLst=     1 CellRange=     0.0.
 One-electron integrals computed using PRISM.
 NBasis=   120 RedAO= T EigKep=  2.59D-03  NBF=   120
 NBsUse=   120 1.00D-06 EigRej= -1.00D+00 NBFU=   120
 Precomputing XC quadrature grid using
 IXCGrd= 4 IRadAn=           0 IRanWt=          -1 IRanGd=           0 AccXCQ= 0.00D+00.
 Generated NRdTot=       0 NPtTot=           0 NUsed=           0 NTot=          32
 NSgBfM=   120   120   120   120   120 MxSgAt=    14 MxSgA2=    14.
 Leave Link  302 at Thu Jul 22 19:37:11 2021, MaxMem= 17179869184 cpu:        47.8
 (Enter /vol2/users/liuj201281/hxd_yi/bin/Gaussian/g09/l303.exe)
 DipDrv:  MaxL=1.
 Leave Link  303 at Thu Jul 22 19:37:12 2021, MaxMem= 17179869184 cpu:         4.0
 (Enter /vol2/users/liuj201281/hxd_yi/bin/Gaussian/g09/l401.exe)
 Initial guess from the checkpoint file:  "/vol2/users/liuj201281/HOFBenchmark/IsodesmicSplit/Sample60/Ring26/Running/Gau-396283.chk"
 B after Tr=     0.000000    0.000000    0.000000
         Rot=    1.000000    0.000000    0.000000    0.000000 Ang=   0.00 deg.
 Guess basis will be translated and rotated to current coordinates.
 JPrj=2 DoOrth=T DoCkMO=T.
 Leave Link  401 at Thu Jul 22 19:37:12 2021, MaxMem= 17179869184 cpu:        15.8
 (Enter /vol2/users/liuj201281/hxd_yi/bin/Gaussian/g09/l502.exe)
 Closed shell SCF:
 Using DIIS extrapolation, IDIIS=  1040.
 Integral symmetry usage will be decided dynamically.
 Keep R1 ints in memory in canonical form, NReq=27379539.
 IVT=       78025 IEndB=       78025 NGot= 17179869184 MDV= 17153433730
 LenX= 17153433730 LenY= 17153418889
 Requested convergence on RMS density matrix=1.00D-08 within 128 cycles.
 Requested convergence on MAX density matrix=1.00D-06.
 Requested convergence on             energy=1.00D-06.
 No special actions if energy rises.
 FoFCou: FMM=F IPFlag=           0 FMFlag=           0 FMFlg1=           0
         NFxFlg=           0 DoJE=F BraDBF=F KetDBF=F FulRan=T
         wScrn=  0.000000 ICntrl=     600 IOpCl=  0 I1Cent=           0 NGrid=           0
         NMat0=    1 NMatS0=   7260 NMatT0=    0 NMatD0=    1 NMtDS0=    0 NMtDT0=    0
 Symmetry not used in FoFCou.

 Cycle   1  Pass 1  IDiag  1:
 E= -212.596515008803    
 DIIS: error= 1.57D-08 at cycle   1 NSaved=   1.
 NSaved= 1 IEnMin= 1 EnMin= -212.596515008803     IErMin= 1 ErrMin= 1.57D-08
 ErrMax= 1.57D-08  0.00D+00 EMaxC= 1.00D-01 BMatC= 4.90D-14 BMatP= 4.90D-14
 IDIUse=1 WtCom= 1.00D+00 WtEn= 0.00D+00
 Coeff-Com:  0.100D+01
 Coeff:      0.100D+01
 Gap=     0.243 Goal=   None    Shift=    0.000
 RMSDP=4.97D-09 MaxDP=9.94D-08              OVMax= 2.21D-07

 SCF Done:  E(RB3LYP) =  -212.596515009     A.U. after    1 cycles
            NFock=  1  Conv=0.50D-08     -V/T= 2.0101
 KE= 2.104810296536D+02 PE=-8.448777889938D+02 EE= 2.455708716128D+02
 Leave Link  502 at Thu Jul 22 19:37:13 2021, MaxMem= 17179869184 cpu:        75.4
 (Enter /vol2/users/liuj201281/hxd_yi/bin/Gaussian/g09/l801.exe)
 DoSCS=F DFT=T ScalE2(SS,OS)=  1.000000  1.000000
 Range of M.O.s used for correlation:     1   120
 NBasis=   120 NAE=    20 NBE=    20 NFC=     0 NFV=     0
 NROrb=    120 NOA=    20 NOB=    20 NVA=   100 NVB=   100
 Leave Link  801 at Thu Jul 22 19:37:13 2021, MaxMem= 17179869184 cpu:         3.2
 (Enter /vol2/users/liuj201281/hxd_yi/bin/Gaussian/g09/l1101.exe)
 Using compressed storage, NAtomX=    14.
 Will process     15 centers per pass.
 Leave Link 1101 at Thu Jul 22 19:37:14 2021, MaxMem= 17179869184 cpu:        55.5
 (Enter /vol2/users/liuj201281/hxd_yi/bin/Gaussian/g09/l1102.exe)
 Symmetrizing basis deriv contribution to polar:
 IMax=3 JMax=2 DiffMx= 0.00D+00
 Leave Link 1102 at Thu Jul 22 19:37:14 2021, MaxMem= 17179869184 cpu:         3.3
 (Enter /vol2/users/liuj201281/hxd_yi/bin/Gaussian/g09/l1110.exe)
 Forming Gx(P) for the SCF density, NAtomX=    14.
 Integral derivatives from FoFJK, PRISM(SPDF).
 Do as many integral derivatives as possible in FoFJK.
 G2DrvN: MDV=   17179868968.
 G2DrvN: will do    15 centers at a time, making    1 passes.
 Calling FoFCou, ICntrl=  3107 FMM=F I1Cent=   0 AccDes= 0.00D+00.
 FoFJK:  IHMeth= 1 ICntrl=    3107 DoSepK=F KAlg= 0 I1Cent=   0 FoldK=F
 IRaf=         0 NMat=   1 IRICut=       1 DoRegI=T DoRafI=F ISym2E= 0.
 FoFCou: FMM=F IPFlag=           0 FMFlag=      100000 FMFlg1=           0
         NFxFlg=           0 DoJE=F BraDBF=F KetDBF=F FulRan=T
         wScrn=  0.000000 ICntrl=    3107 IOpCl=  0 I1Cent=           0 NGrid=           0
         NMat0=    1 NMatS0=      1 NMatT0=    0 NMatD0=    1 NMtDS0=    0 NMtDT0=    0
 Symmetry not used in FoFCou.
 End of G2Drv F.D. properties file   721 does not exist.
 End of G2Drv F.D. properties file   722 does not exist.
 End of G2Drv F.D. properties file   788 does not exist.
 Leave Link 1110 at Thu Jul 22 19:37:16 2021, MaxMem= 17179869184 cpu:       250.9
 (Enter /vol2/users/liuj201281/hxd_yi/bin/Gaussian/g09/l1002.exe)
 Minotr:  Closed shell wavefunction.
          IDoAtm=11111111111111
          Direct CPHF calculation.
          Differentiating once with respect to electric field.
                with respect to dipole field.
          Differentiating once with respect to nuclear coordinates.
          Requested convergence is 1.0D-08 RMS, and 1.0D-07 maximum.
          Secondary convergence is 1.0D-12 RMS, and 1.0D-12 maximum.
          NewPWx=T KeepS1=F KeepF1=F KeepIn=T MapXYZ=F SortEE=F KeepMc=T.
          MDV=   17179868920 using IRadAn=       2.
 Generate precomputed XC quadrature information.
 Keep R1 ints in memory in canonical form, NReq=27304311.
 FoFCou: FMM=F IPFlag=           0 FMFlag=           0 FMFlg1=           0
         NFxFlg=           0 DoJE=F BraDBF=F KetDBF=F FulRan=T
         wScrn=  0.000000 ICntrl=     600 IOpCl=  0 I1Cent=           0 NGrid=           0
         NMat0=    1 NMatS0=   7260 NMatT0=    0 NMatD0=    1 NMtDS0=    0 NMtDT0=    0
 Symmetry not used in FoFCou.
          Solving linear equations simultaneously, MaxMat=       0.
          There are    45 degrees of freedom in the 1st order CPHF.  IDoFFX=6 NUNeed=     3.
     42 vectors produced by pass  0 Test12= 4.44D-15 2.22D-09 XBig12= 5.90D+01 5.71D+00.
 AX will form    42 AO Fock derivatives at one time.
     42 vectors produced by pass  1 Test12= 4.44D-15 2.22D-09 XBig12= 7.65D+00 6.53D-01.
     42 vectors produced by pass  2 Test12= 4.44D-15 2.22D-09 XBig12= 5.58D-02 4.47D-02.
     42 vectors produced by pass  3 Test12= 4.44D-15 2.22D-09 XBig12= 1.13D-04 1.89D-03.
     42 vectors produced by pass  4 Test12= 4.44D-15 2.22D-09 XBig12= 9.14D-08 5.23D-05.
     18 vectors produced by pass  5 Test12= 4.44D-15 2.22D-09 XBig12= 4.03D-11 7.64D-07.
      3 vectors produced by pass  6 Test12= 4.44D-15 2.22D-09 XBig12= 1.94D-14 2.14D-08.
 InvSVY:  IOpt=1 It=  1 EMax= 2.96D-15
 Solved reduced A of dimension   231 with    45 vectors.
 FullF1:  Do perturbations    1 to     3.
 Isotropic polarizability for W=    0.000000       51.39 Bohr**3.
 End of Minotr F.D. properties file   721 does not exist.
 End of Minotr F.D. properties file   722 does not exist.
 End of Minotr F.D. properties file   788 does not exist.
 Leave Link 1002 at Thu Jul 22 19:37:18 2021, MaxMem= 17179869184 cpu:       318.2
 (Enter /vol2/users/liuj201281/hxd_yi/bin/Gaussian/g09/l601.exe)
 Copying SCF densities to generalized density rwf, IOpCl= 0 IROHF=0.

 **********************************************************************

            Population analysis using the SCF density.

 **********************************************************************

 Orbital symmetries:
       Occupied  (A) (A) (A) (A) (A) (A) (A) (A) (A) (A) (A) (A)
[...]
   D12        2.11889  -0.00001   0.00000  -0.00096  -0.00096   2.11793
   D13        0.02215   0.00000   0.00000  -0.00091  -0.00091   0.02123
   D14        0.99084   0.00000   0.00000  -0.00040  -0.00040   0.99044
   D15       -1.08326   0.00000   0.00000  -0.00045  -0.00045  -1.08371
   D16        3.10318   0.00000   0.00000  -0.00040  -0.00040   3.10278
   D17       -2.53008   0.00001   0.00000   0.00051   0.00051  -2.52956
   D18       -0.27896   0.00001   0.00000   0.00063   0.00063  -0.27833
   D19        0.67331   0.00000   0.00000  -0.00001  -0.00001   0.67330
   D20        2.92442   0.00000   0.00000   0.00010   0.00010   2.92453
         Item               Value     Threshold  Converged?
 Maximum Force            0.000063     0.000450     YES
 RMS     Force            0.000019     0.000300     YES
 Maximum Displacement     0.001075     0.001800     YES
 RMS     Displacement     0.000384     0.001200     YES
 Predicted change in Energy=-5.261837D-08
 Optimization completed.
    -- Stationary point found.
                           ----------------------------
                           !   Optimized Parameters   !
                           ! (Angstroms and Degrees)  !
 --------------------------                            --------------------------
 ! Name  Definition              Value          Derivative Info.                !
 --------------------------------------------------------------------------------
 ! R1    R(1,2)                  1.504          -DE/DX =    0.0001              !
 ! R2    R(1,6)                  1.0981         -DE/DX =    0.0                 !
 ! R3    R(1,7)                  1.0955         -DE/DX =    0.0                 !
 ! R4    R(1,8)                  1.0993         -DE/DX =    0.0                 !
 ! R5    R(2,3)                  1.3461         -DE/DX =    0.0                 !
 ! R6    R(2,9)                  1.0861         -DE/DX =    0.0                 !
 ! R7    R(3,4)                  1.5062         -DE/DX =    0.0                 !
 ! R8    R(3,5)                  1.4049         -DE/DX =    0.0                 !
 ! R9    R(4,10)                 1.0965         -DE/DX =    0.0                 !
 ! R10   R(4,11)                 1.0991         -DE/DX =    0.0                 !
 ! R11   R(4,12)                 1.0915         -DE/DX =    0.0                 !
 ! R12   R(5,13)                 1.0134         -DE/DX =    0.0                 !
 ! R13   R(5,14)                 1.0121         -DE/DX =    0.0                 !
 ! A1    A(2,1,6)              112.5293         -DE/DX =    0.0                 !
 ! A2    A(2,1,7)              110.9579         -DE/DX =    0.0                 !
 ! A3    A(2,1,8)              112.6876         -DE/DX =    0.0                 !
 ! A4    A(6,1,7)              106.6677         -DE/DX =    0.0                 !
 ! A5    A(6,1,8)              106.8158         -DE/DX =    0.0                 !
 ! A6    A(7,1,8)              106.8024         -DE/DX =    0.0                 !
 ! A7    A(1,2,3)              125.8897         -DE/DX =    0.0                 !
 ! A8    A(1,2,9)              116.8872         -DE/DX =    0.0                 !
 ! A9    A(3,2,9)              117.1878         -DE/DX =    0.0                 !
 ! A10   A(2,3,4)              122.383          -DE/DX =    0.0                 !
 ! A11   A(2,3,5)              124.1391         -DE/DX =    0.0                 !
 ! A12   A(4,3,5)              113.3795         -DE/DX =    0.0                 !
 ! A13   A(3,4,10)             110.8887         -DE/DX =    0.0                 !
 ! A14   A(3,4,11)             111.1086         -DE/DX =    0.0                 !
 ! A15   A(3,4,12)             111.2031         -DE/DX =    0.0                 !
 ! A16   A(10,4,11)            106.9763         -DE/DX =    0.0                 !
 ! A17   A(10,4,12)            108.6644         -DE/DX =    0.0                 !
 ! A18   A(11,4,12)            107.8417         -DE/DX =    0.0                 !
 ! A19   A(3,5,13)             113.9319         -DE/DX =    0.0                 !
 ! A20   A(3,5,14)             114.6068         -DE/DX =    0.0                 !
 ! A21   A(13,5,14)            110.7223         -DE/DX =    0.0                 !
 ! D1    D(6,1,2,3)             28.7204         -DE/DX =    0.0                 !
 ! D2    D(6,1,2,9)           -153.5096         -DE/DX =    0.0                 !
 ! D3    D(7,1,2,3)            148.1529         -DE/DX =    0.0                 !
 ! D4    D(7,1,2,9)            -34.0772         -DE/DX =    0.0                 !
 ! D5    D(8,1,2,3)            -92.1354         -DE/DX =    0.0                 !
 ! D6    D(8,1,2,9)             85.6345         -DE/DX =    0.0                 !
 ! D7    D(1,2,3,4)           -179.9161         -DE/DX =    0.0                 !
 ! D8    D(1,2,3,5)              3.9323         -DE/DX =    0.0                 !
 ! D9    D(9,2,3,4)              2.3199         -DE/DX =    0.0                 !
 ! D10   D(9,2,3,5)           -173.8316         -DE/DX =    0.0                 !
 ! D11   D(2,3,4,10)          -119.7592         -DE/DX =    0.0                 !
 ! D12   D(2,3,4,11)           121.4036         -DE/DX =    0.0                 !
 ! D13   D(2,3,4,12)             1.269          -DE/DX =    0.0                 !
 ! D14   D(5,3,4,10)            56.771          -DE/DX =    0.0                 !
 ! D15   D(5,3,4,11)           -62.0661         -DE/DX =    0.0                 !
 ! D16   D(5,3,4,12)           177.7993         -DE/DX =    0.0                 !
 ! D17   D(2,3,5,13)          -144.9626         -DE/DX =    0.0                 !
 ! D18   D(2,3,5,14)           -15.9833         -DE/DX =    0.0                 !
 ! D19   D(4,3,5,13)            38.5777         -DE/DX =    0.0                 !
 ! D20   D(4,3,5,14)           167.557          -DE/DX =    0.0                 !
 --------------------------------------------------------------------------------
 GradGradGradGradGradGradGradGradGradGradGradGradGradGradGradGradGradGrad

 Leave Link  103 at Thu Jul 22 19:37:23 2021, MaxMem= 17179869184 cpu:        14.8
 (Enter /vol2/users/liuj201281/hxd_yi/bin/Gaussian/g09/l9999.exe)
 1\1\GINC-FN1\Freq\RB3LYP\6-31G(d,p)\C4H9N1\LIUJ201281\22-Jul-2021\0\\#
 P Geom=AllCheck Guess=TCheck SCRF=Check GenChk RB3LYP/6-31G(d,p) Freq\
 \Frag_112\\0,1\C,2.0827,-0.1054,0.0085\C,0.7024,-0.7026,0.0089\C,-0.45
 49,-0.0151,-0.002\C,-1.7981,-0.6966,0.0012\N,-0.5399,1.3841,-0.0953\H,
 2.1138,0.8826,0.4867\H,2.7853,-0.7422,0.557\H,2.4907,0.0187,-1.0047\H,
 0.6361,-1.7863,-0.0188\H,-2.3741,-0.4296,-0.8928\H,-2.3955,-0.3899,0.8
 713\H,-1.6899,-1.7822,0.0357\H,-1.3048,1.7857,0.4344\H,0.3251,1.8727,0
 .0982\\Version=ES64L-G09RevD.01\State=1-A\HF=-212.596515\RMSD=4.970e-0
 9\RMSF=3.109e-05\ZeroPoint=0.1255282\Thermal=0.1321931\Dipole=-0.15253
 84,0.2886725,0.393128\DipoleDeriv=0.1334724,-0.048228,-0.0172343,0.015
 6695,0.0799328,0.0056049,0.0637372,-0.0187727,0.1990271,-0.1667316,0.1
 737072,-0.0132618,0.1843913,-0.1510188,0.0139555,-0.0575763,0.0398426,
 -0.3111874,0.3917968,-0.1223319,0.0411098,-0.4839795,0.9573537,-0.0623
 79,0.1148143,-0.04103,0.020068,0.0883262,-0.0821915,-0.0040916,0.00652
 96,0.0054037,-0.0015453,-0.0466133,0.0215164,0.1592601,-0.3243698,0.05
 39488,-0.0842862,0.4010594,-0.9645259,0.1213735,-0.280603,0.369027,-0.
 4440715,0.0075442,0.0208321,0.0174046,-0.0634958,-0.1474718,-0.0965255
 ,-0.0256989,-0.076856,0.0092681,-0.0982078,0.0653806,-0.057425,0.08222
 76,-0.005834,0.0712229,-0.0922284,0.0643019,0.0105322,-0.1076617,0.003
 3132,0.0639672,-0.080109,0.0656734,0.0194172,0.1169062,0.0157762,-0.12
 72977,-0.0116795,-0.0429252,-0.0064321,-0.0403567,-0.1268163,-0.007841
 7,-0.0022184,-0.0317535,0.1205088,-0.0822319,0.0095717,-0.0721563,0.01
 91188,0.0511077,0.0596476,-0.1114472,0.0351288,-0.0642038,-0.0896053,0
 .011997,0.0775418,0.0373797,0.0261293,-0.0786125,0.1269827,-0.0557414,
 -0.0778717,0.0433587,0.0458823,-0.0025528,-0.0234998,-0.113835,0.00385
 88,0.0009558,0.0074506,0.0712593,0.1509782,-0.0127506,0.0775773,-0.003
 7361,0.1707824,-0.0146854,0.2008753,-0.1807435,0.1875838,0.0650112,-0.
 0762057,-0.0201605,-0.051199,0.1531188,-0.0334909,-0.0078858,-0.148146
 3,0.2471246\Polar=68.273591,-6.0018075,52.5893165,-0.9550831,0.5972109
 ,33.3123806\PG=C01 [X(C4H9N1)]\NImag=0\\0.50076423,-0.02896052,0.55045
 471,0.00500915,-0.00120633,0.52974015,-0.19642566,-0.04706562,-0.00100
 482,0.72877733,-0.05144603,-0.11320113,-0.00396605,-0.10981512,0.69423
 708,0.00103361,0.00102430,-0.06523909,-0.00135881,0.00569155,0.1191850
 9,-0.03250158,0.01031894,-0.00062334,-0.40810025,0.16926338,0.00276179
 ,0.77935578,-0.00454443,0.01522606,0.00537892,0.16931916,-0.20631645,-
 0.00476894,-0.12816524,0.65754514,-0.00028760,-0.00117083,0.00133774,0
 .00145492,-0.00135362,-0.05370571,-0.00869562,-0.00000121,0.17584308,0
 .00021496,0.00204730,-0.00031176,-0.03157143,-0.01067891,-0.00067339,-
 0.18837860,-0.05396620,0.00100430,0.49970651,0.00249663,-0.00213159,-0
 .00032181,0.01012676,0.01146057,0.00008200,-0.04848038,-0.11357642,0.0
 0013869,-0.03121812,0.59053284,0.00024845,-0.00060562,0.01228973,-0.00
 087795,0.00071832,0.00535996,0.00059856,-0.00073863,-0.07448949,0.0041
 8954,-0.00516994,0.53621804,0.00242443,0.00062228,-0.00120712,0.002818
 45,0.04203093,-0.00364082,-0.12249163,0.00870816,0.00868810,-0.0008817
 1,-0.03844252,0.00236517,0.74207138,-0.00615149,-0.00230355,-0.0016390
 3,0.01702861,-0.04308613,0.00513065,0.01072573,-0.28823917,0.02844817,
 -0.00466669,-0.02814058,0.00184758,0.03508140,0.60881838,0.00212021,0.
 00000853,-0.00340413,-0.00461783,0.00557857,0.00965056,0.01188105,-0.0
 1887534,-0.04674366,0.00040594,0.00008076,0.00256786,-0.11470813,0.138
 87101,0.17977482,-0.04867611,-0.00352184,-0.00243547,0.00161111,-0.028
 29877,-0.01256907,0.00150017,-0.00232955,0.00000357,0.00011282,0.00019
 777,0.00081871,-0.00048730,0.00165174,-0.00053503,0.05264262,-0.001077
 51,-0.25087851,-0.09983491,-0.00427597,-0.01169919,-0.00262535,0.00274
 834,-0.00393418,0.00154547,-0.00005070,0.00013152,-0.00002873,0.001325
 84,0.00258185,-0.00030073,0.00378853,0.27605360,-0.00208398,-0.1009774
 4,-0.09559434,-0.00040020,0.00270891,0.00054575,0.00047596,-0.00213996
 ,0.00113269,0.00006534,0.00025310,-0.00014405,-0.00034338,0.00115448,-
 0.00134599,0.00114875,0.11093288,0.09946007,-0.14954772,0.09821763,-0.
 08392951,-0.02262323,0.01896874,-0.01329607,-0.00249172,-0.00460855,-0
 .00164666,-0.00050927,0.00088213,0.00156959,-0.00001972,0.00006834,-0.
 00068079,0.00015988,-0.00046200,0.00114100,0.16642128,0.09836953,-0.14
 044615,0.07813120,-0.01028107,0.00973737,-0.00864692,-0.00226513,-0.00
 202217,-0.00004898,-0.00012361,0.00045024,0.00082126,0.00052434,0.0000
 0436,-0.00038439,0.01757787,-0.01665150,0.01562517,-0.10525505,0.14939
 578,-0.08438373,0.07794524,-0.11336816,0.00181424,-0.00124416,0.001173
 49,0.00036220,-0.00126279,0.00001016,0.00016379,0.00014827,0.00012725,
 0.00067238,0.00016828,-0.00007710,0.01064496,-0.00910058,0.00801978,0.
 09099022,-0.08670467,0.11962965,-0.07455449,-0.00839376,0.08540507,-0.
 01839487,-0.00214202,0.02616189,0.00150126,-0.00651624,0.00122867,-0.0
 0024711,0.00050802,-0.00282292,0.00003622,0.00240868,-0.00058365,-0.00
 058561,0.00084529,0.00025913,0.00769368,0.00135183,-0.01960637,0.08547
 897,-0.00858803,-0.04907149,0.02660287,-0.00723132,-0.00042700,0.01081
 714,0.00174521,-0.00273813,0.00052593,0.00003816,0.00012724,-0.0010214
 9,-0.00057712,0.00222503,0.00011611,0.01059072,0.00275419,-0.02904806,
 -0.00718653,-0.00232740,0.01972077,0.01217386,0.04952924,0.07991334,0.
 02330499,-0.26486123,0.00356708,0.00099270,0.00704332,-0.00186908,0.00
 149193,0.00066444,0.00016906,-0.00005249,-0.00026822,0.00072690,-0.000
 70439,0.00030241,0.00392864,0.00105620,-0.01326733,0.00501209,0.001110
 90,-0.01599598,-0.09159199,-0.02729969,0.28763989,-0.00098948,-0.02765
 895,-0.00251418,-0.05482236,-0.01999897,-0.00043270,0.00321131,0.02774
 506,0.00016125,0.00027589,0.00206922,0.00007420,-0.00483562,0.00180198
 ,0.00050525,-0.00477923,-0.00250690,0.00068385,0.00142852,0.00045164,-
 0.00025955,-0.00043484,-0.00031334,0.00053520,0.06213324,0.00086297,-0
 .00822566,-0.00105748,-0.01411623,-0.33480926,-0.00643930,-0.00380399,
 -0.01733168,0.00010396,-0.00180109,0.00015263,0.00020551,0.00306998,0.
 00150738,-0.00120957,-0.00171679,0.00033294,0.00063138,-0.00021090,0.0
 0097309,-0.00011042,-0.00044762,-0.00034297,-0.00002488,0.01765243,0.3
 5632746,-0.00051587,0.00087341,0.00120718,0.00059825,-0.00682761,-0.02
 523453,-0.00114539,0.00032600,-0.00055654,-0.00000507,0.00008130,-0.00
 741265,-0.00083437,-0.00211943,0.00967819,-0.00044339,-0.00166202,0.00
 014496,0.00061616,-0.00038319,0.00044620,0.00010207,-0.00026320,-0.000
 49931,0.00145649,0.00752307,0.02052833,-0.00043325,0.00028331,0.002849
 69,-0.00142161,-0.00340442,-0.00045571,-0.02061838,0.00941119,-0.02540
 482,-0.11359153,0.03297909,-0.11077302,0.00236145,0.00088879,0.0013771
 1,0.00008893,-0.00010446,-0.00011853,0.00004232,0.00006250,-0.00004676
 ,-0.00093559,-0.00028765,-0.00006124,-0.00005087,0.00002615,-0.0013666
 9,0.12710870,-0.00018868,0.00011582,0.00060258,-0.00029297,-0.00097542
 ,0.00004955,-0.00678339,0.00425924,-0.01346016,0.03232914,-0.06577093,
 0.05291292,0.00025462,0.00048144,0.00067666,-0.00003361,0.00005815,-0.
 00005155,0.00000070,-0.00000750,-0.00000384,-0.00020713,0.00005203,-0.
 00001557,-0.00004210,0.00032013,0.00020045,-0.03551479,0.06474007,0.00
 013671,0.00006625,-0.00008692,0.00070013,-0.00058329,0.00011687,-0.000
 25399,-0.00016414,0.00361031,-0.11005636,0.05339757,-0.22232288,0.0005
 4827,-0.00014389,0.00055507,-0.00005146,-0.00008387,-0.00005255,-0.000
 04023,-0.00002936,-0.00003462,-0.00002379,-0.00002222,-0.00004969,0.00
 009446,-0.00007119,0.00009679,0.12102097,-0.05874453,0.24021479,-0.000
 60072,0.00072383,-0.00218619,-0.00114570,-0.00393729,0.00033801,-0.021
 51524,0.01089197,0.02416374,-0.11626681,0.03793346,0.10825550,0.001426
 45,0.00124868,-0.00075583,-0.00029365,-0.00016336,-0.00006316,-0.00065
 703,-0.00032646,-0.00011577,0.00027635,0.00008517,0.00007187,-0.000036
 82,-0.00007070,0.00124311,0.00972019,-0.00551850,-0.01323891,0.1306436
 4,-0.00029453,0.00062276,-0.00038694,-0.00045349,-0.00118844,-0.000254
 29,-0.00700587,0.00406829,0.01339939,0.03651957,-0.06982462,-0.0566602
 3,-0.00065717,0.00145471,0.00025591,0.00011367,0.00003572,0.00002551,-
 0.00019133,-0.00011505,-0.00003606,0.00006041,-0.00002153,-0.00000019,
 -0.00009303,0.00038653,-0.00015238,-0.00485892,0.00215800,0.00697681,-
 0.04052205,0.07010898,-0.00012594,-0.00003557,-0.00035493,-0.00080030,
 0.00075099,0.00013811,0.00022964,-0.00004115,0.00317853,0.10687039,-0.
 05821650,-0.20749580,-0.00013788,0.00054931,0.00022310,0.00008985,0.00
 003639,0.00004023,-0.00000839,0.00005835,0.00004133,0.00011893,0.00004
 849,-0.00002455,-0.00012096,0.00004102,0.00015358,0.01461573,-0.008813
 48,-0.02216850,-0.11922689,0.06399995,0.22464352,0.00027318,0.00021352
 ,0.00007496,0.00031335,-0.00084738,-0.00003014,0.00663630,-0.03008216,
 0.00100603,-0.05164590,0.03258562,-0.00151090,-0.00608139,-0.00216209,
 0.00003273,0.00016584,0.00005262,-0.00000352,0.00002319,0.00000384,-0.
 00003251,0.00004464,-0.00000291,-0.00002404,-0.00083143,0.00056799,0.0
 0018028,-0.00210624,0.01607853,0.00148200,-0.00219587,0.01682379,-0.00
 201757,0.05581701,-0.00021254,0.00040683,0.00002259,0.00198889,0.00074
 253,-0.00006207,0.00462865,-0.01491500,0.00071546,0.02774384,-0.318133
 51,0.00843420,-0.00412138,0.00003404,-0.00055033,0.00015305,0.00017140
 ,0.00003240,-0.00007468,-0.00000714,0.00000333,-0.00002147,-0.00003433
 ,-0.00000983,-0.00025495,0.00108295,0.00004315,0.00049035,-0.00557325,
 -0.00024594,0.00077696,-0.00740809,0.00052029,-0.03138912,0.34378353,0
 .00003757,-0.00007741,-0.00012175,-0.00006433,0.00018494,-0.00060397,-
 0.00010574,-0.00028848,-0.00250884,-0.00127629,0.00847862,-0.04720993,
 0.00067559,0.00004196,0.00109814,-0.00004749,-0.00003040,-0.00001078,-
 0.00001244,0.00000245,0.00000502,0.00004839,0.00003806,-0.00001606,0.0
 0005951,-0.00006505,0.00057948,-0.00176417,0.02702014,0.00071436,0.001
 98941,-0.02658280,0.00152542,0.00087832,-0.00934868,0.04583724,-0.0006
 2644,-0.00054811,-0.00035445,0.00252437,-0.00219899,0.00150951,-0.0020
 0669,0.00619284,-0.00082388,0.00128666,-0.00178731,-0.00140422,-0.2715
 9360,0.09617921,0.15093480,0.00002028,0.00066578,0.00036180,0.00010802
 ,0.00012399,0.00005669,0.00016588,0.00032256,-0.00002107,0.00004716,0.
 00012501,0.00006925,-0.00004567,-0.00028053,-0.00034154,0.00052620,0.0
 0034390,0.00058817,-0.00042166,0.00007590,-0.00040034,0.28936652,-0.00
 054454,-0.00025556,-0.00095799,-0.00362613,-0.00517843,-0.00073637,0.0
 3386630,-0.01663161,-0.02040278,0.00109815,0.00143520,-0.00073002,0.09
 817570,-0.11191962,-0.08193020,-0.00003915,0.00046323,0.00012019,0.000
 05928,0.00019478,0.00007288,0.00019485,0.00005187,0.00005239,0.0013288
 7,-0.00083197,0.00183027,-0.00022120,-0.00011680,-0.00011259,-0.001299
 19,-0.00048138,0.00089195,0.00005171,0.00061093,0.00059955,-0.11445021
 ,0.12415666,-0.00088129,0.00029745,-0.00086726,0.00010080,-0.00089329,
 0.00145607,-0.00646604,0.01070377,-0.00420018,-0.00048623,0.00020599,0
 .00096413,0.18850914,-0.10429900,-0.12274666,0.00056962,0.00002192,0.0
 0041358,0.00009484,0.00035508,0.00020128,0.00029823,0.00029270,-0.0003
 3006,-0.00049497,0.00052412,0.00170490,-0.00045844,-0.00056341,-0.0007
 7469,0.00014796,-0.00028803,-0.00013767,-0.00011661,0.00031440,-0.0003
 4074,-0.16939475,0.08946468,0.12442131,0.00067865,0.00372199,0.0012279
 7,-0.00153951,0.00250485,0.00065189,0.00589927,-0.00205599,-0.00085197
 ,0.00149552,0.00014965,-0.00073069,-0.34474741,-0.15410287,-0.04537583
 ,-0.00147973,-0.00078550,-0.00112306,-0.00002819,-0.00021421,-0.000259
 77,-0.00004448,-0.00076878,-0.00035676,-0.00031547,-0.00013723,0.00004
 516,-0.00011843,0.00019871,0.00002376,0.00011901,0.00021506,-0.0000747
 6,0.00000898,0.00021650,-0.00001801,-0.01935103,-0.01459444,-0.0114222
 5,0.35942282,0.00027917,-0.00031254,-0.00136764,-0.00130548,0.00070388
 ,0.00073805,-0.03679256,-0.01539392,-0.00843949,0.00272915,-0.00671259
 ,0.00001487,-0.14599505,-0.14341815,-0.04233698,0.00186636,0.00058079,
 0.00073298,-0.00020776,0.00082128,0.00040376,0.00018531,0.00022326,0.0
 0009793,-0.00018097,0.00045844,0.00053020,0.00025006,0.00025902,-0.000
 23961,0.00017749,0.00020411,0.00020995,-0.00189395,-0.00076089,0.00002
 708,0.01523598,0.00850271,0.00386361,0.16565226,0.15484458,-0.00022064
 ,0.00055303,-0.00067698,0.00088884,-0.00175796,0.00011410,0.00285001,0
 .01038001,-0.00357253,-0.00005925,0.00089443,0.00181605,-0.08131384,-0
 .06730570,-0.02953262,-0.00112219,0.00007372,0.00065799,0.00019019,0.0
 0009311,-0.00017832,0.00100636,-0.00050742,-0.00033763,0.00025215,-0.0
 0005117,-0.00083657,0.00058587,0.00019025,0.00018164,-0.00062284,-0.00
 029666,0.00023763,0.00008099,0.00013103,0.00105239,0.01922004,0.011838
 06,0.00023599,0.05826431,0.04576527,0.03083886\\-0.00008226,-0.0000164
 5,0.00000361,0.00007042,0.00000773,-0.00005704,0.00002536,0.00000652,0
 .00004268,-0.00002044,-0.00005470,-0.00001440,0.00008947,0.00002402,-0
 .00002750,0.00000177,0.00002986,0.00001285,0.00003903,-0.00002758,0.00
 000685,-0.00001862,-0.00002150,-0.00000958,-0.00001373,0.00000655,0.00
 000601,-0.00000306,0.00001039,-0.00001215,-0.00000875,0.00001407,0.000
 02454,-0.00000842,0.00001244,0.00000273,-0.00002932,0.00002091,0.00002
 607,-0.00004145,-0.00001226,-0.00000466\\\@


 THE TRULY SUCCESSFUL PERFORMANCE OF RESEARCHES IN
 INORGANIC CHEMISTRY IS POSSIBLE ONLY TO ONE WHO IS NOT
 ONLY A THEORETICAL CHEMIST, BUT ALSO AN ACCOMPLISHED
 ANALYST AND, MOREOVER, NOT MERELY A PRACTICALLY TRAINED,
 MECHANICAL WORKER, BUT A THINKING CREATIVE ARTIST.
   --  CLEMENS WINKLER, BER. 33, 1697(1900)
 Job cpu time:       0 days  0 hours 20 minutes 44.0 seconds.
 File lengths (MBytes):  RWF=     25 Int=      0 D2E=      0 Chk=      2 Scr=      1
 Normal termination of Gaussian 09 at Thu Jul 22 19:37:23 2021.
