 Entering Gaussian System, Link 0=g09
 Input=B3LYP6-31Gdp.Frag_578.gjf
 Output=B3LYP6-31Gdp.Frag_578.log
 Initial command:
 /public/home/users/caep010/software/Gaussian09/g09/l1.exe "/public/home/users/caep010/.cache/gau_scr/Gau-45974.inp" -scrdir="/public/home/users/caep010/.cache/gau_scr/"
 Entering Link 1 = /public/home/users/caep010/software/Gaussian09/g09/l1.exe PID=     45975.
  
 Copyright (c) 1988,1990,1992,1993,1995,1998,2003,2009,2015,
            Gaussian, Inc.  All Rights Reserved.
  
 This is part of the Gaussian(R) 09 program.  It is based on
 the Gaussian(R) 03 system (copyright 2003, Gaussian, Inc.),
 the Gaussian(R) 98 system (copyright 1998, Gaussian, Inc.),
 the Gaussian(R) 94 system (copyright 1995, Gaussian, Inc.),
 the Gaussian 92(TM) system (copyright 1992, Gaussian, Inc.),
 the Gaussian 90(TM) system (copyright 1990, Gaussian, Inc.),
 the Gaussian 88(TM) system (copyright 1988, Gaussian, Inc.),
 the Gaussian 86(TM) system (copyright 1986, Carnegie Mellon
 University), and the Gaussian 82(TM) system (copyright 1983,
 Carnegie Mellon University). Gaussian is a federally registered
 trademark of Gaussian, Inc.
  
 This software contains proprietary and confidential information,
 including trade secrets, belonging to Gaussian, Inc.
  
 This software is provided under written license and may be
 used, copied, transmitted, or stored only in accord with that
 written license.
  
 The following legend is applicable only to US Government
 contracts under FAR:
  
                    RESTRICTED RIGHTS LEGEND
  
 Use, reproduction and disclosure by the US Government is
 subject to restrictions as set forth in subparagraphs (a)
 and (c) of the Commercial Computer Software - Restricted
 Rights clause in FAR 52.227-19.
  
 Gaussian, Inc.
 340 Quinnipiac St., Bldg. 40, Wallingford CT 06492
  
  
 ---------------------------------------------------------------
 Warning -- This program may not be used in any manner that
 competes with the business of Gaussian, Inc. or will provide
 assistance to any competitor of Gaussian, Inc.  The licensee
 of this program is prohibited from giving any competitor of
 Gaussian, Inc. access to this program.  By using this program,
 the user acknowledges that Gaussian, Inc. is engaged in the
 business of creating and licensing software in the field of
 computational chemistry and represents and warrants to the
 licensee that it is not a competitor of Gaussian, Inc. and that
 it will not use this program in any manner prohibited above.
 ---------------------------------------------------------------
  

 Cite this work as:
 Gaussian 09, Revision E.01,
 M. J. Frisch, G. W. Trucks, H. B. Schlegel, G. E. Scuseria, 
 M. A. Robb, J. R. Cheeseman, G. Scalmani, V. Barone, B. Mennucci, 
 G. A. Petersson, H. Nakatsuji, M. Caricato, X. Li, H. P. Hratchian, 
 A. F. Izmaylov, J. Bloino, G. Zheng, J. L. Sonnenberg, M. Hada, 
 M. Ehara, K. Toyota, R. Fukuda, J. Hasegawa, M. Ishida, T. Nakajima, 
 Y. Honda, O. Kitao, H. Nakai, T. Vreven, J. A. Montgomery, Jr., 
 J. E. Peralta, F. Ogliaro, M. Bearpark, J. J. Heyd, E. Brothers, 
 K. N. Kudin, V. N. Staroverov, T. Keith, R. Kobayashi, J. Normand, 
 K. Raghavachari, A. Rendell, J. C. Burant, S. S. Iyengar, J. Tomasi, 
 M. Cossi, N. Rega, J. M. Millam, M. Klene, J. E. Knox, J. B. Cross, 
 V. Bakken, C. Adamo, J. Jaramillo, R. Gomperts, R. E. Stratmann, 
 O. Yazyev, A. J. Austin, R. Cammi, C. Pomelli, J. W. Ochterski, 
 R. L. Martin, K. Morokuma, V. G. Zakrzewski, G. A. Voth, 
 P. Salvador, J. J. Dannenberg, S. Dapprich, A. D. Daniels, 
 O. Farkas, J. B. Foresman, J. V. Ortiz, J. Cioslowski, 
 and D. J. Fox, Gaussian, Inc., Wallingford CT, 2013.
 
 ******************************************
 Gaussian 09:  ES64L-G09RevE.01 30-Nov-2015
                 8-Sep-2022 
 ******************************************
 %nproc=32
 Will use up to   32 processors via shared memory.
 %mem=180GB
 %chk=B3LYP6-31Gdp.Frag_578.chk
 ----------------------------
 #P OPT Freq B3LYP/6-31G(d,p)
 ----------------------------
 1/14=-1,18=20,19=15,26=3,38=1/1,3;
 2/9=110,12=2,17=6,18=5,40=1/2;
 3/5=1,6=6,7=101,11=2,16=1,25=1,30=1,71=1,74=-5/1,2,3;
 4//1;
 5/5=2,38=5/2;
 6/7=2,8=2,9=2,10=2,28=1/1;
 7//1,2,3,16;
 1/14=-1,18=20,19=15,26=3/3(2);
 2/9=110/2;
 99//99;
 2/9=110/2;
 3/5=1,6=6,7=101,11=2,16=1,25=1,30=1,71=1,74=-5/1,2,3;
 4/5=5,16=3,69=1/1;
 5/5=2,38=5/2;
 7//1,2,3,16;
 1/14=-1,18=20,19=15,26=3/3(-5);
 2/9=110/2;
 6/7=2,8=2,9=2,10=2,19=2,28=1/1;
 99/9=1/99;
 Leave Link    1 at Thu Sep  8 15:13:31 2022, MaxMem= 24159191040 cpu:         2.3
 (Enter /public/home/users/caep010/software/Gaussian09/g09/l101.exe)
 --------
 Frag_578
 --------
 Symbolic Z-matrix:
 Charge =  0 Multiplicity = 1
 O                    -1.29698   1.02079   0.24839 
 C                    -0.627     0.05681  -0.5399 
 C                     0.57128  -0.57938   0.16054 
 O                     1.44417   0.36105   0.75483 
 H                    -1.3841    0.6692    1.14042 
 H                    -0.29229   0.59033  -1.43981 
 H                    -1.30187  -0.74768  -0.87889 
 H                     1.09067  -1.23418  -0.5599 
 H                     0.22491  -1.22228   0.98103 
 H                     1.57111   1.08534   0.13338 
 
 NAtoms=     10 NQM=       10 NQMF=       0 NMMI=      0 NMMIF=      0
                NMic=       0 NMicF=      0.
                    Isotopes and Nuclear Properties:
 (Nuclear quadrupole moments (NQMom) in fm**2, nuclear magnetic moments (NMagM)
  in nuclear magnetons)

  Atom         1           2           3           4           5           6           7           8           9          10
 IAtWgt=          16          12          12          16           1           1           1           1           1           1
 AtmWgt=  15.9949146  12.0000000  12.0000000  15.9949146   1.0078250   1.0078250   1.0078250   1.0078250   1.0078250   1.0078250
 NucSpn=           0           0           0           0           1           1           1           1           1           1
 AtZEff=   0.0000000   0.0000000   0.0000000   0.0000000   0.0000000   0.0000000   0.0000000   0.0000000   0.0000000   0.0000000
 NQMom=    0.0000000   0.0000000   0.0000000   0.0000000   0.0000000   0.0000000   0.0000000   0.0000000   0.0000000   0.0000000
 NMagM=    0.0000000   0.0000000   0.0000000   0.0000000   2.7928460   2.7928460   2.7928460   2.7928460   2.7928460   2.7928460
 AtZNuc=   8.0000000   6.0000000   6.0000000   8.0000000   1.0000000   1.0000000   1.0000000   1.0000000   1.0000000   1.0000000
 Leave Link  101 at Thu Sep  8 15:13:31 2022, MaxMem= 24159191040 cpu:        10.5
 (Enter /public/home/users/caep010/software/Gaussian09/g09/l103.exe)

 GradGradGradGradGradGradGradGradGradGradGradGradGradGradGradGradGradGrad
 Berny optimization.
 Initialization pass.
                           ----------------------------
                           !    Initial Parameters    !
                           ! (Angstroms and Degrees)  !
 --------------------------                            --------------------------
 ! Name  Definition              Value          Derivative Info.                !
 --------------------------------------------------------------------------------
 ! R1    R(1,2)                  1.414          estimate D2E/DX2                !
 ! R2    R(1,5)                  0.9628         estimate D2E/DX2                !
 ! R3    R(2,3)                  1.5268         estimate D2E/DX2                !
 ! R4    R(2,6)                  1.0984         estimate D2E/DX2                !
 ! R5    R(2,7)                  1.1034         estimate D2E/DX2                !
 ! R6    R(3,4)                  1.414          estimate D2E/DX2                !
 ! R7    R(3,8)                  1.1034         estimate D2E/DX2                !
 ! R8    R(3,9)                  1.0984         estimate D2E/DX2                !
 ! R9    R(4,10)                 0.9628         estimate D2E/DX2                !
 ! A1    A(2,1,5)              108.0855         estimate D2E/DX2                !
 ! A2    A(1,2,3)              113.5882         estimate D2E/DX2                !
 ! A3    A(1,2,6)              105.6634         estimate D2E/DX2                !
 ! A4    A(1,2,7)              112.2409         estimate D2E/DX2                !
 ! A5    A(3,2,6)              109.8208         estimate D2E/DX2                !
 ! A6    A(3,2,7)              108.4906         estimate D2E/DX2                !
 ! A7    A(6,2,7)              106.7861         estimate D2E/DX2                !
 ! A8    A(2,3,4)              113.5881         estimate D2E/DX2                !
 ! A9    A(2,3,8)              108.4909         estimate D2E/DX2                !
 ! A10   A(2,3,9)              109.8208         estimate D2E/DX2                !
 ! A11   A(4,3,8)              112.2411         estimate D2E/DX2                !
 ! A12   A(4,3,9)              105.663          estimate D2E/DX2                !
 ! A13   A(8,3,9)              106.7861         estimate D2E/DX2                !
 ! A14   A(3,4,10)             108.0855         estimate D2E/DX2                !
 ! D1    D(5,1,2,3)            -43.6442         estimate D2E/DX2                !
 ! D2    D(5,1,2,6)           -164.0884         estimate D2E/DX2                !
 ! D3    D(5,1,2,7)             79.8901         estimate D2E/DX2                !
 ! D4    D(1,2,3,4)            -48.6088         estimate D2E/DX2                !
 ! D5    D(1,2,3,8)           -174.1661         estimate D2E/DX2                !
 ! D6    D(1,2,3,9)             69.4596         estimate D2E/DX2                !
 ! D7    D(6,2,3,4)             69.4602         estimate D2E/DX2                !
 ! D8    D(6,2,3,8)            -56.0972         estimate D2E/DX2                !
 ! D9    D(6,2,3,9)           -172.4715         estimate D2E/DX2                !
 ! D10   D(7,2,3,4)           -174.1657         estimate D2E/DX2                !
 ! D11   D(7,2,3,8)             60.2769         estimate D2E/DX2                !
 ! D12   D(7,2,3,9)            -56.0973         estimate D2E/DX2                !
 ! D13   D(2,3,4,10)           -43.6523         estimate D2E/DX2                !
 ! D14   D(8,3,4,10)            79.8825         estimate D2E/DX2                !
 ! D15   D(9,3,4,10)          -164.0961         estimate D2E/DX2                !
 --------------------------------------------------------------------------------
 Trust Radius=3.00D-01 FncErr=1.00D-07 GrdErr=1.00D-06
 Number of steps in this run=     48 maximum allowed number of steps=    100.
 GradGradGradGradGradGradGradGradGradGradGradGradGradGradGradGradGradGrad

 Leave Link  103 at Thu Sep  8 15:13:31 2022, MaxMem= 24159191040 cpu:         0.4
 (Enter /public/home/users/caep010/software/Gaussian09/g09/l202.exe)
                          Input orientation:                          
 ---------------------------------------------------------------------
 Center     Atomic      Atomic             Coordinates (Angstroms)
 Number     Number       Type             X           Y           Z
 ---------------------------------------------------------------------
      1          8           0       -1.296980    1.020786    0.248389
      2          6           0       -0.626999    0.056813   -0.539897
      3          6           0        0.571281   -0.579375    0.160540
      4          8           0        1.444170    0.361047    0.754833
      5          1           0       -1.384103    0.669201    1.140416
      6          1           0       -0.292288    0.590328   -1.439805
      7          1           0       -1.301872   -0.747677   -0.878889
      8          1           0        1.090667   -1.234184   -0.559900
      9          1           0        0.224913   -1.222281    0.981032
     10          1           0        1.571111    1.085342    0.133383
 ---------------------------------------------------------------------
                    Distance matrix (angstroms):
                    1          2          3          4          5
     1  O    0.000000
     2  C    1.414041   0.000000
     3  C    2.461429   1.526834   0.000000
     4  O    2.864550   2.461427   1.414041   0.000000
     5  H    0.962764   1.942081   2.518457   2.871021   0.000000
     6  H    2.011144   1.098410   2.162189   2.807898   2.802824
     7  H    2.097198   1.103437   2.148823   3.382168   2.468177
     8  H    3.382171   2.148825   1.103436   2.097200   3.555058
     9  H    2.807895   2.162189   1.098411   2.011139   2.488381
    10  H    2.871122   2.518505   1.942081   0.962765   3.149695
                    6          7          8          9         10
     6  H    0.000000
     7  H    1.767525   0.000000
     8  H    2.452680   2.462252   0.000000
     9  H    3.068143   2.452678   1.767525   0.000000
    10  H    2.488416   3.555093   2.468131   2.802835   0.000000
 Stoichiometry    C2H6O2
 Framework group  C1[X(C2H6O2)]
 Deg. of freedom    24
 Full point group                 C1      NOp   1
 Largest Abelian subgroup         C1      NOp   1
 Largest concise Abelian subgroup C1      NOp   1
                         Standard orientation:                         
 ---------------------------------------------------------------------
 Center     Atomic      Atomic             Coordinates (Angstroms)
 Number     Number       Type             X           Y           Z
 ---------------------------------------------------------------------
      1          8           0       -1.430909   -0.599412   -0.062609
      2          6           0       -0.720261    0.581628    0.253045
      3          6           0        0.720256    0.581626   -0.253050
      4          8           0        1.430902   -0.599413    0.062612
      5          1           0       -1.235459   -0.830595   -0.976540
      6          1           0       -0.729876    0.649476    1.349315
      7          1           0       -1.224594    1.486629   -0.126684
      8          1           0        1.224590    1.486632    0.126664
      9          1           0        0.729870    0.649458   -1.349322
     10          1           0        1.235551   -0.830519    0.976584
 ---------------------------------------------------------------------
 Rotational constants (GHZ):     15.0950030      5.4689151      4.5394512
 Leave Link  202 at Thu Sep  8 15:13:31 2022, MaxMem= 24159191040 cpu:         1.9
 (Enter /public/home/users/caep010/software/Gaussian09/g09/l301.exe)
 Standard basis: 6-31G(d,p) (6D, 7F)
 Ernie: Thresh=  0.10000D-02 Tol=  0.10000D-05 Strict=F.
 There are    90 symmetry adapted cartesian basis functions of A   symmetry.
 There are    90 symmetry adapted basis functions of A   symmetry.
    90 basis functions,   154 primitive gaussians,    90 cartesian basis functions
    17 alpha electrons       17 beta electrons
       nuclear repulsion energy       132.7085394548 Hartrees.
 IExCor=  402 DFT=T Ex+Corr=B3LYP ExCW=0 ScaHFX=  0.200000
 ScaDFX=  0.800000  0.720000  1.000000  0.810000 ScalE2=  1.000000  1.000000
 IRadAn=      0 IRanWt=     -1 IRanGd=            0 ICorTp=0 IEmpDi=  4
 NAtoms=   10 NActive=   10 NUniq=   10 SFac= 1.00D+00 NAtFMM=   60 NAOKFM=F Big=F
 Integral buffers will be    131072 words long.
 Raffenetti 2 integral format.
 Two-electron integral symmetry is turned on.
 Leave Link  301 at Thu Sep  8 15:13:31 2022, MaxMem= 24159191040 cpu:         2.0
 (Enter /public/home/users/caep010/software/Gaussian09/g09/l302.exe)
 NPDir=0 NMtPBC=     1 NCelOv=     1 NCel=       1 NClECP=     1 NCelD=      1
         NCelK=      1 NCelE2=     1 NClLst=     1 CellRange=     0.0.
 One-electron integrals computed using PRISM.
 NBasis=    90 RedAO= T EigKep=  4.92D-03  NBF=    90
 NBsUse=    90 1.00D-06 EigRej= -1.00D+00 NBFU=    90
 Precomputing XC quadrature grid using
 IXCGrd= 4 IRadAn=           0 IRanWt=          -1 IRanGd=           0 AccXCQ= 0.00D+00.
 Generated NRdTot=       0 NPtTot=           0 NUsed=           0 NTot=          32
 NSgBfM=    90    90    90    90    90 MxSgAt=    10 MxSgA2=    10.
 Leave Link  302 at Thu Sep  8 15:13:32 2022, MaxMem= 24159191040 cpu:        12.9
 (Enter /public/home/users/caep010/software/Gaussian09/g09/l303.exe)
 DipDrv:  MaxL=1.
 Leave Link  303 at Thu Sep  8 15:13:32 2022, MaxMem= 24159191040 cpu:         0.9
 (Enter /public/home/users/caep010/software/Gaussian09/g09/l401.exe)
 ExpMin= 1.61D-01 ExpMax= 5.48D+03 ExpMxC= 8.25D+02 IAcc=1 IRadAn=         1 AccDes= 0.00D+00
 Harris functional with IExCor=  402 and IRadAn=       1 diagonalized for initial guess.
 HarFok:  IExCor=  402 AccDes= 0.00D+00 IRadAn=         1 IDoV= 1 UseB2=F ITyADJ=14
 ICtDFT=  3500011 ScaDFX=  1.000000  1.000000  1.000000  1.000000
 FoFCou: FMM=F IPFlag=           0 FMFlag=      100000 FMFlg1=           0
         NFxFlg=           0 DoJE=T BraDBF=F KetDBF=T FulRan=T
         wScrn=  0.000000 ICntrl=     500 IOpCl=  0 I1Cent=   200000004 NGrid=           0
         NMat0=    1 NMatS0=      1 NMatT0=    0 NMatD0=    1 NMtDS0=    0 NMtDT0=    0
 Petite list used in FoFCou.
 Harris En= -230.286945245867    
 JPrj=0 DoOrth=F DoCkMO=F.
 Leave Link  401 at Thu Sep  8 15:13:32 2022, MaxMem= 24159191040 cpu:         9.9
 (Enter /public/home/users/caep010/software/Gaussian09/g09/l502.exe)
 Closed shell SCF:
 Using DIIS extrapolation, IDIIS=  1040.
 Integral symmetry usage will be decided dynamically.
 Keep R1 ints in memory in canonical form, NReq=9343712.
 IVT=       46414 IEndB=       46414 NGot= 24159191040 MDV= 24150758067
 LenX= 24150758067 LenY= 24150749526
 Requested convergence on RMS density matrix=1.00D-08 within 128 cycles.
 Requested convergence on MAX density matrix=1.00D-06.
 Requested convergence on             energy=1.00D-06.
 No special actions if energy rises.
 FoFCou: FMM=F IPFlag=           0 FMFlag=           0 FMFlg1=           0
         NFxFlg=           0 DoJE=F BraDBF=F KetDBF=F FulRan=T
         wScrn=  0.000000 ICntrl=     600 IOpCl=  0 I1Cent=           0 NGrid=           0
         NMat0=    1 NMatS0=   4095 NMatT0=    0 NMatD0=    1 NMtDS0=    0 NMtDT0=    0
 Symmetry not used in FoFCou.
 Integral accuracy reduced to 1.0D-05 until final iterations.

 Cycle   1  Pass 0  IDiag  1:
 E= -230.127607248283    
 DIIS: error= 2.72D-02 at cycle   1 NSaved=   1.
 NSaved= 1 IEnMin= 1 EnMin= -230.127607248283     IErMin= 1 ErrMin= 2.72D-02
 ErrMax= 2.72D-02  0.00D+00 EMaxC= 1.00D-01 BMatC= 1.47D-01 BMatP= 1.47D-01
 IDIUse=3 WtCom= 7.28D-01 WtEn= 2.72D-01
 Coeff-Com:  0.100D+01
 Coeff-En:   0.100D+01
 Coeff:      0.100D+01
 Gap=     0.288 Goal=   None    Shift=    0.000
 GapD=    0.288 DampG=1.000 DampE=0.500 DampFc=0.5000 IDamp=-1.
 Damping current iteration by 5.00D-01
 RMSDP=8.86D-03 MaxDP=1.39D-01              OVMax= 1.51D-01

 Cycle   2  Pass 0  IDiag  1:
 E= -230.177367260742     Delta-E=       -0.049760012458 Rises=F Damp=T
 DIIS: error= 7.95D-03 at cycle   2 NSaved=   2.
 NSaved= 2 IEnMin= 2 EnMin= -230.177367260742     IErMin= 2 ErrMin= 7.95D-03
 ErrMax= 7.95D-03  0.00D+00 EMaxC= 1.00D-01 BMatC= 1.02D-02 BMatP= 1.47D-01
 IDIUse=3 WtCom= 9.20D-01 WtEn= 7.95D-02
 Coeff-Com:  0.137D+00 0.863D+00
 Coeff-En:   0.204D+00 0.796D+00
 Coeff:      0.142D+00 0.858D+00
 Gap=     0.353 Goal=   None    Shift=    0.000
 RMSDP=1.52D-03 MaxDP=1.43D-02 DE=-4.98D-02 OVMax= 9.53D-02

 Cycle   3  Pass 0  IDiag  1:
 E= -230.250152566760     Delta-E=       -0.072785306018 Rises=F Damp=F
 DIIS: error= 3.76D-03 at cycle   3 NSaved=   3.
 NSaved= 3 IEnMin= 3 EnMin= -230.250152566760     IErMin= 3 ErrMin= 3.76D-03
 ErrMax= 3.76D-03  0.00D+00 EMaxC= 1.00D-01 BMatC= 2.81D-03 BMatP= 1.02D-02
 IDIUse=3 WtCom= 9.62D-01 WtEn= 3.76D-02
 Coeff-Com:  0.214D-01 0.328D+00 0.651D+00
 Coeff-En:   0.000D+00 0.000D+00 0.100D+01
 Coeff:      0.206D-01 0.316D+00 0.664D+00
 Gap=     0.336 Goal=   None    Shift=    0.000
 RMSDP=6.94D-04 MaxDP=1.05D-02 DE=-7.28D-02 OVMax= 1.54D-02

 Cycle   4  Pass 0  IDiag  1:
 E= -230.252002061341     Delta-E=       -0.001849494582 Rises=F Damp=F
 DIIS: error= 2.08D-03 at cycle   4 NSaved=   4.
 NSaved= 4 IEnMin= 4 EnMin= -230.252002061341     IErMin= 4 ErrMin= 2.08D-03
 ErrMax= 2.08D-03  0.00D+00 EMaxC= 1.00D-01 BMatC= 6.84D-04 BMatP= 2.81D-03
 IDIUse=3 WtCom= 9.79D-01 WtEn= 2.08D-02
 Coeff-Com:  0.218D-02 0.691D-01 0.345D+00 0.583D+00
 Coeff-En:   0.000D+00 0.000D+00 0.184D+00 0.816D+00
 Coeff:      0.213D-02 0.676D-01 0.342D+00 0.588D+00
 Gap=     0.334 Goal=   None    Shift=    0.000
 RMSDP=2.53D-04 MaxDP=4.32D-03 DE=-1.85D-03 OVMax= 5.64D-03

 Cycle   5  Pass 0  IDiag  1:
 E= -230.252590808544     Delta-E=       -0.000588747203 Rises=F Damp=F
 DIIS: error= 3.80D-04 at cycle   5 NSaved=   5.
 NSaved= 5 IEnMin= 5 EnMin= -230.252590808544     IErMin= 5 ErrMin= 3.80D-04
 ErrMax= 3.80D-04  0.00D+00 EMaxC= 1.00D-01 BMatC= 1.43D-05 BMatP= 6.84D-04
 IDIUse=3 WtCom= 9.96D-01 WtEn= 3.80D-03
 Coeff-Com:  0.251D-05-0.114D-03 0.723D-01 0.199D+00 0.728D+00
 Coeff-En:   0.000D+00 0.000D+00 0.000D+00 0.000D+00 0.100D+01
 Coeff:      0.250D-05-0.114D-03 0.720D-01 0.199D+00 0.729D+00
 Gap=     0.335 Goal=   None    Shift=    0.000
 RMSDP=3.82D-05 MaxDP=5.41D-04 DE=-5.89D-04 OVMax= 7.84D-04

 Cycle   6  Pass 0  IDiag  1:
 E= -230.252603320838     Delta-E=       -0.000012512293 Rises=F Damp=F
 DIIS: error= 2.14D-05 at cycle   6 NSaved=   6.
 NSaved= 6 IEnMin= 6 EnMin= -230.252603320838     IErMin= 6 ErrMin= 2.14D-05
 ErrMax= 2.14D-05  0.00D+00 EMaxC= 1.00D-01 BMatC= 5.41D-08 BMatP= 1.43D-05
 IDIUse=1 WtCom= 1.00D+00 WtEn= 0.00D+00
 Coeff-Com:  0.505D-04-0.789D-03 0.111D-01 0.345D-01 0.149D+00 0.807D+00
 Coeff:      0.505D-04-0.789D-03 0.111D-01 0.345D-01 0.149D+00 0.807D+00
 Gap=     0.335 Goal=   None    Shift=    0.000
 RMSDP=2.95D-06 MaxDP=2.78D-05 DE=-1.25D-05 OVMax= 5.56D-05

 Initial convergence to 1.0D-05 achieved.  Increase integral accuracy.
 Cycle   7  Pass 1  IDiag  1:
 E= -230.252577571513     Delta-E=        0.000025749325 Rises=F Damp=F
 DIIS: error= 8.15D-06 at cycle   1 NSaved=   1.
 NSaved= 1 IEnMin= 1 EnMin= -230.252577571513     IErMin= 1 ErrMin= 8.15D-06
 ErrMax= 8.15D-06  0.00D+00 EMaxC= 1.00D-01 BMatC= 5.24D-09 BMatP= 5.24D-09
 IDIUse=1 WtCom= 1.00D+00 WtEn= 0.00D+00
 Coeff-Com:  0.100D+01
 Coeff:      0.100D+01
 Gap=     0.335 Goal=   None    Shift=    0.000
 RMSDP=2.95D-06 MaxDP=2.78D-05 DE= 2.57D-05 OVMax= 3.02D-05

 Cycle   8  Pass 1  IDiag  1:
 E= -230.252577577041     Delta-E=       -0.000000005529 Rises=F Damp=F
 DIIS: error= 1.78D-06 at cycle   2 NSaved=   2.
 NSaved= 2 IEnMin= 2 EnMin= -230.252577577041     IErMin= 2 ErrMin= 1.78D-06
 ErrMax= 1.78D-06  0.00D+00 EMaxC= 1.00D-01 BMatC= 5.51D-10 BMatP= 5.24D-09
 IDIUse=1 WtCom= 1.00D+00 WtEn= 0.00D+00
 Coeff-Com:  0.159D+00 0.841D+00
 Coeff:      0.159D+00 0.841D+00
 Gap=     0.335 Goal=   None    Shift=    0.000
 RMSDP=4.44D-07 MaxDP=7.16D-06 DE=-5.53D-09 OVMax= 8.53D-06

 Cycle   9  Pass 1  IDiag  1:
 E= -230.252577577358     Delta-E=       -0.000000000316 Rises=F Damp=F
 DIIS: error= 1.25D-06 at cycle   3 NSaved=   3.
 NSaved= 3 IEnMin= 3 EnMin= -230.252577577358     IErMin= 3 ErrMin= 1.25D-06
 ErrMax= 1.25D-06  0.00D+00 EMaxC= 1.00D-01 BMatC= 2.39D-10 BMatP= 5.51D-10
 IDIUse=1 WtCom= 1.00D+00 WtEn= 0.00D+00
 Coeff-Com:  0.204D-02 0.391D+00 0.607D+00
 Coeff:      0.204D-02 0.391D+00 0.607D+00
 Gap=     0.335 Goal=   None    Shift=    0.000
 RMSDP=1.89D-07 MaxDP=3.26D-06 DE=-3.16D-10 OVMax= 3.54D-06

 Cycle  10  Pass 1  IDiag  1:
 E= -230.252577577571     Delta-E=       -0.000000000213 Rises=F Damp=F
 DIIS: error= 2.20D-07 at cycle   4 NSaved=   4.
 NSaved= 4 IEnMin= 4 EnMin= -230.252577577571     IErMin= 4 ErrMin= 2.20D-07
 ErrMax= 2.20D-07  0.00D+00 EMaxC= 1.00D-01 BMatC= 9.94D-12 BMatP= 2.39D-10
 IDIUse=1 WtCom= 1.00D+00 WtEn= 0.00D+00
 Coeff-Com: -0.823D-02 0.113D+00 0.249D+00 0.646D+00
 Coeff:     -0.823D-02 0.113D+00 0.249D+00 0.646D+00
 Gap=     0.335 Goal=   None    Shift=    0.000
 RMSDP=2.95D-08 MaxDP=5.18D-07 DE=-2.13D-10 OVMax= 5.54D-07

 Cycle  11  Pass 1  IDiag  1:
 E= -230.252577577581     Delta-E=       -0.000000000010 Rises=F Damp=F
 DIIS: error= 6.02D-08 at cycle   5 NSaved=   5.
 NSaved= 5 IEnMin= 5 EnMin= -230.252577577581     IErMin= 5 ErrMin= 6.02D-08
 ErrMax= 6.02D-08  0.00D+00 EMaxC= 1.00D-01 BMatC= 5.25D-13 BMatP= 9.94D-12
 IDIUse=1 WtCom= 1.00D+00 WtEn= 0.00D+00
 Coeff-Com: -0.409D-02 0.473D-01 0.110D+00 0.325D+00 0.522D+00
 Coeff:     -0.409D-02 0.473D-01 0.110D+00 0.325D+00 0.522D+00
 Gap=     0.335 Goal=   None    Shift=    0.000
 RMSDP=7.05D-09 MaxDP=1.22D-07 DE=-9.55D-12 OVMax= 1.47D-07

 SCF Done:  E(RB3LYP) =  -230.252577578     A.U. after   11 cycles
            NFock= 11  Conv=0.71D-08     -V/T= 2.0086
 KE= 2.282950421381D+02 PE=-8.052081351029D+02 EE= 2.139519759325D+02
 Leave Link  502 at Thu Sep  8 15:13:33 2022, MaxMem= 24159191040 cpu:        20.5
 (Enter /public/home/users/caep010/software/Gaussian09/g09/l601.exe)
 Copying SCF densities to generalized density rwf, IOpCl= 0 IROHF=0.

 **********************************************************************

            Population analysis using the SCF density.

 **********************************************************************

 Orbital symmetries:
       Occupied  (A) (A) (A) (A) (A) (A) (A) (A) (A) (A) (A) (A)
                 (A) (A) (A) (A) (A)
       Virtual   (A) (A) (A) (A) (A) (A) (A) (A) (A) (A) (A) (A)
                 (A) (A) (A) (A) (A) (A) (A) (A) (A) (A) (A) (A)
                 (A) (A) (A) (A) (A) (A) (A) (A) (A) (A) (A) (A)
                 (A) (A) (A) (A) (A) (A) (A) (A) (A) (A) (A) (A)
                 (A) (A) (A) (A) (A) (A) (A) (A) (A) (A) (A) (A)
                 (A) (A) (A) (A) (A) (A) (A) (A) (A) (A) (A) (A)
                 (A)
 The electronic state is 1-A.
 Alpha  occ. eigenvalues --  -19.14521 -19.14521 -10.23594 -10.23572  -1.03094
 Alpha  occ. eigenvalues --   -1.00921  -0.73770  -0.63302  -0.51906  -0.47892
 Alpha  occ. eigenvalues --   -0.46198  -0.45076  -0.39742  -0.35158  -0.32514
 Alpha  occ. eigenvalues --   -0.27700  -0.26468
 Alpha virt. eigenvalues --    0.06990   0.09542   0.12262   0.13607   0.15919
 Alpha virt. eigenvalues --    0.17478   0.19674   0.23004   0.26744   0.52494
 Alpha virt. eigenvalues --    0.53565   0.57933   0.59754   0.63179   0.66506
 Alpha virt. eigenvalues --    0.76454   0.77673   0.82137   0.84036   0.84382
 Alpha virt. eigenvalues --    0.89972   0.93911   0.95513   0.98495   1.01451
 Alpha virt. eigenvalues --    1.01529   1.09220   1.14792   1.24030   1.37961
 Alpha virt. eigenvalues --    1.38184   1.47278   1.49502   1.59340   1.59499
 Alpha virt. eigenvalues --    1.65124   1.80446   1.81548   1.85219   1.90244
 Alpha virt. eigenvalues --    1.95606   2.00852   2.04515   2.10754   2.11433
 Alpha virt. eigenvalues --    2.16990   2.22876   2.34915   2.35424   2.36956
 Alpha virt. eigenvalues --    2.46746   2.49233   2.51661   2.60796   2.61355
 Alpha virt. eigenvalues --    2.70699   2.72331   2.79197   2.79392   2.85405
 Alpha virt. eigenvalues --    2.85956   2.93398   3.03389   3.21734   3.27945
 Alpha virt. eigenvalues --    3.38280   3.40234   3.47706   3.56321   3.82197
 Alpha virt. eigenvalues --    3.93337   4.33671   4.57423
          Condensed to atoms (all electrons):
               1          2          3          4          5          6
     1  O    8.094896   0.269710  -0.043937   0.000780   0.290715  -0.047229
     2  C    0.269710   4.783985   0.349754  -0.043940  -0.042504   0.383075
     3  C   -0.043937   0.349754   4.783992   0.269703  -0.005159  -0.035561
     4  O    0.000780  -0.043940   0.269703   8.094902   0.001893  -0.004237
     5  H    0.290715  -0.042504  -0.005159   0.001893   0.436586   0.007744
     6  H   -0.047229   0.383075  -0.035561  -0.004237   0.007744   0.641797
     7  H   -0.038089   0.347861  -0.044414   0.003869  -0.001991  -0.049940
     8  H    0.003869  -0.044416   0.347863  -0.038087   0.000324  -0.006693
     9  H   -0.004237  -0.035563   0.383078  -0.047228   0.004434   0.006310
    10  H    0.001892  -0.005159  -0.042502   0.290713   0.000135   0.004434
               7          8          9         10
     1  O   -0.038089   0.003869  -0.004237   0.001892
     2  C    0.347861  -0.044416  -0.035563  -0.005159
     3  C   -0.044414   0.347863   0.383078  -0.042502
     4  O    0.003869  -0.038087  -0.047228   0.290713
     5  H   -0.001991   0.000324   0.004434   0.000135
     6  H   -0.049940  -0.006693   0.006310   0.004434
     7  H    0.699201   0.006818  -0.006693   0.000324
     8  H    0.006818   0.699196  -0.049936  -0.001993
     9  H   -0.006693  -0.049936   0.641790   0.007745
    10  H    0.000324  -0.001993   0.007745   0.436588
 Mulliken charges:
               1
     1  O   -0.528369
     2  C    0.037196
     3  C    0.037183
     4  O   -0.528367
     5  H    0.307823
     6  H    0.100299
     7  H    0.083053
     8  H    0.083055
     9  H    0.100302
    10  H    0.307823
 Sum of Mulliken charges =  -0.00000
 Mulliken charges with hydrogens summed into heavy atoms:
               1
     1  O   -0.220545
     2  C    0.220548
     3  C    0.220541
     4  O   -0.220544
 Electronic spatial extent (au):  <R**2>=            302.3576
 Charge=             -0.0000 electrons
 Dipole moment (field-independent basis, Debye):
    X=              0.0002    Y=              1.3414    Z=              0.0001  Tot=              1.3414
 Quadrupole moment (field-independent basis, Debye-Ang):
   XX=            -30.1801   YY=            -24.6156   ZZ=            -20.6267
   XY=              0.0000   XZ=              3.1196   YZ=              0.0001
 Traceless Quadrupole moment (field-independent basis, Debye-Ang):
   XX=             -5.0393   YY=              0.5252   ZZ=              4.5141
   XY=              0.0000   XZ=              3.1196   YZ=              0.0001
 Octapole moment (field-independent basis, Debye-Ang**2):
  XXX=              0.0009  YYY=             -5.4083  ZZZ=              0.0002  XYY=             -0.0001
  XXY=              1.8435  XXZ=              0.0006  XZZ=              0.0005  YZZ=             -4.5005
  YYZ=             -0.0002  XYZ=             -3.7799
 Hexadecapole moment (field-independent basis, Debye-Ang**3):
 XXXX=           -238.3639 YYYY=            -93.3930 ZZZZ=            -41.4616 XXXY=             -0.0005
 XXXZ=              7.7013 YYYX=              0.0004 YYYZ=              0.0003 ZZZX=              6.1488
 ZZZY=             -0.0000 XXYY=            -51.3522 XXZZ=            -38.1259 YYZZ=            -21.2626
 XXYZ=             -0.0002 YYXZ=              5.0803 ZZXY=             -0.0002
 N-N= 1.327085394548D+02 E-N=-8.052081369124D+02  KE= 2.282950421381D+02
 No NMR shielding tensors so no spin-rotation constants.
 Leave Link  601 at Thu Sep  8 15:13:33 2022, MaxMem= 24159191040 cpu:        11.7
 (Enter /public/home/users/caep010/software/Gaussian09/g09/l701.exe)
 Compute integral first derivatives.
 ... and contract with generalized density number  0.
 Leave Link  701 at Thu Sep  8 15:13:34 2022, MaxMem= 24159191040 cpu:        10.2
 (Enter /public/home/users/caep010/software/Gaussian09/g09/l702.exe)
 L702 exits ... SP integral derivatives will be done elsewhere.
 Leave Link  702 at Thu Sep  8 15:13:34 2022, MaxMem= 24159191040 cpu:         0.5
 (Enter /public/home/users/caep010/software/Gaussian09/g09/l703.exe)
 Compute integral first derivatives, UseDBF=F ICtDFT=           0.
 Integral derivatives from FoFJK, PRISM(SPDF).
 Calling FoFJK, ICntrl=      2127 FMM=F ISym2X=0 I1Cent= 0 IOpClX= 0 NMat=1 NMatS=1 NMatT=0.
 FoFJK:  IHMeth= 1 ICntrl=    2127 DoSepK=F KAlg= 0 I1Cent=   0 FoldK=F
 IRaf=         0 NMat=   1 IRICut=       1 DoRegI=T DoRafI=F ISym2E= 0.
 FoFCou: FMM=F IPFlag=           0 FMFlag=      100000 FMFlg1=         800
         NFxFlg=           0 DoJE=F BraDBF=F KetDBF=F FulRan=T
         wScrn=  0.000000 ICntrl=    2127 IOpCl=  0 I1Cent=           0 NGrid=           0
         NMat0=    1 NMatS0=      1 NMatT0=    0 NMatD0=    1 NMtDS0=    0 NMtDT0=    0
 Symmetry not used in FoFCou.
 Leave Link  703 at Thu Sep  8 15:13:34 2022, MaxMem= 24159191040 cpu:         8.3
 (Enter /public/home/users/caep010/software/Gaussian09/g09/l716.exe)
 Dipole        = 7.23402321D-05 5.27756921D-01 2.17129415D-05
 ***** Axes restored to original set *****
 -------------------------------------------------------------------
 Center     Atomic                   Forces (Hartrees/Bohr)
 Number     Number              X              Y              Z
 -------------------------------------------------------------------
      1        8          -0.000270328    0.002727327   -0.002354644
      2        6           0.000538504   -0.000963202   -0.000958851
      3        6          -0.000761329   -0.001119522   -0.000551997
      4        8           0.000407622   -0.001440161    0.003287646
      5        1          -0.000469180   -0.001402906    0.003428688
      6        1          -0.000138386   -0.000149546    0.000015933
      7        1          -0.000030876   -0.000121822   -0.000200809
      8        1          -0.000006326   -0.000230627   -0.000055288
      9        1           0.000117424   -0.000048554   -0.000160692
     10        1           0.000612876    0.002749014   -0.002449985
 -------------------------------------------------------------------
 Cartesian Forces:  Max     0.003428688 RMS     0.001395884
 Leave Link  716 at Thu Sep  8 15:13:34 2022, MaxMem= 24159191040 cpu:         0.7
 (Enter /public/home/users/caep010/software/Gaussian09/g09/l103.exe)

 GradGradGradGradGradGradGradGradGradGradGradGradGradGradGradGradGradGrad
 Berny optimization.
 FormGI is forming the generalized inverse of G from B-inverse, IUseBI=4.
 Internal  Forces:  Max     0.003725282 RMS     0.000959995
 Search for a local minimum.
 Step number   1 out of a maximum of   48
 All quantities printed in internal units (Hartrees-Bohrs-Radians)
 RMS Force = .95999D-03 SwitMx=.10000D-02 MixMth= 2
 Mixed Optimization -- En-DIIS/RFO-DIIS
 Second derivative matrix not updated -- first step.
 ITU=  0
     Eigenvalues ---    0.00411   0.01506   0.01506   0.04710   0.04710
     Eigenvalues ---    0.05916   0.05916   0.11769   0.11769   0.14067
     Eigenvalues ---    0.14067   0.16000   0.16000   0.22030   0.22030
     Eigenvalues ---    0.29718   0.33305   0.33305   0.33858   0.33859
     Eigenvalues ---    0.43370   0.43371   0.54883   0.54883
 RFO step:  Lambda=-7.17864632D-05 EMin= 4.10984813D-03
 Linear search not attempted -- first point.
 Iteration  1 RMS(Cart)=  0.00282183 RMS(Int)=  0.00000865
 Iteration  2 RMS(Cart)=  0.00000858 RMS(Int)=  0.00000023
 Iteration  3 RMS(Cart)=  0.00000000 RMS(Int)=  0.00000023
 ITry= 1 IFail=0 DXMaxC= 8.28D-03 DCOld= 1.00D+10 DXMaxT= 3.00D-01 DXLimC= 3.00D+00 Rises=F
 Variable       Old X    -DE/DX   Delta X   Delta X   Delta X     New X
                                 (Linear)    (Quad)   (Total)
    R1        2.67215   0.00185   0.00000   0.00427   0.00427   2.67642
    R2        1.81936   0.00373   0.00000   0.00679   0.00679   1.82615
    R3        2.88530   0.00037   0.00000   0.00123   0.00123   2.88653
    R4        2.07569  -0.00012   0.00000  -0.00037  -0.00037   2.07533
    R5        2.08519   0.00017   0.00000   0.00050   0.00050   2.08570
    R6        2.67215   0.00185   0.00000   0.00427   0.00427   2.67642
    R7        2.08519   0.00017   0.00000   0.00051   0.00051   2.08570
    R8        2.07570  -0.00013   0.00000  -0.00037  -0.00037   2.07533
    R9        1.81936   0.00372   0.00000   0.00678   0.00678   1.82615
    A1        1.88645   0.00004   0.00000   0.00026   0.00026   1.88671
    A2        1.98249  -0.00013   0.00000  -0.00029  -0.00029   1.98220
    A3        1.84417   0.00002   0.00000  -0.00023  -0.00023   1.84394
    A4        1.95897   0.00011   0.00000   0.00148   0.00148   1.96045
    A5        1.91673   0.00004   0.00000  -0.00025  -0.00025   1.91648
    A6        1.89352   0.00007   0.00000   0.00070   0.00069   1.89421
    A7        1.86377  -0.00012   0.00000  -0.00156  -0.00156   1.86221
    A8        1.98249  -0.00013   0.00000  -0.00029  -0.00029   1.98220
    A9        1.89352   0.00007   0.00000   0.00069   0.00069   1.89422
   A10        1.91673   0.00004   0.00000  -0.00025  -0.00025   1.91648
   A11        1.95898   0.00011   0.00000   0.00148   0.00148   1.96046
   A12        1.84417   0.00002   0.00000  -0.00023  -0.00023   1.84393
   A13        1.86377  -0.00012   0.00000  -0.00156  -0.00156   1.86221
   A14        1.88645   0.00004   0.00000   0.00026   0.00026   1.88671
    D1       -0.76174  -0.00011   0.00000  -0.00620  -0.00621  -0.76794
    D2       -2.86388  -0.00010   0.00000  -0.00557  -0.00557  -2.86945
    D3        1.39434  -0.00003   0.00000  -0.00432  -0.00432   1.39003
    D4       -0.84838   0.00010   0.00000   0.00446   0.00446  -0.84393
    D5       -3.03977  -0.00001   0.00000   0.00219   0.00219  -3.03759
    D6        1.21230   0.00008   0.00000   0.00380   0.00380   1.21610
    D7        1.21231   0.00008   0.00000   0.00380   0.00380   1.21611
    D8       -0.97908  -0.00004   0.00000   0.00153   0.00153  -0.97755
    D9       -3.01020   0.00005   0.00000   0.00315   0.00315  -3.00704
   D10       -3.03976  -0.00001   0.00000   0.00219   0.00219  -3.03758
   D11        1.05203  -0.00012   0.00000  -0.00008  -0.00008   1.05195
   D12       -0.97908  -0.00004   0.00000   0.00153   0.00153  -0.97755
   D13       -0.76188  -0.00011   0.00000  -0.00620  -0.00620  -0.76808
   D14        1.39421  -0.00003   0.00000  -0.00432  -0.00432   1.38990
   D15       -2.86402  -0.00010   0.00000  -0.00557  -0.00557  -2.86958
         Item               Value     Threshold  Converged?
 Maximum Force            0.003725     0.000450     NO 
 RMS     Force            0.000960     0.000300     NO 
 Maximum Displacement     0.008281     0.001800     NO 
 RMS     Displacement     0.002825     0.001200     NO 
 Predicted change in Energy=-3.590761D-05
 Lowest energy point so far.  Saving SCF results.
 GradGradGradGradGradGradGradGradGradGradGradGradGradGradGradGradGradGrad

 Leave Link  103 at Thu Sep  8 15:13:34 2022, MaxMem= 24159191040 cpu:         1.6
 (Enter /public/home/users/caep010/software/Gaussian09/g09/l202.exe)
                          Input orientation:                          
 ---------------------------------------------------------------------
 Center     Atomic      Atomic             Coordinates (Angstroms)
 Number     Number       Type             X           Y           Z
 ---------------------------------------------------------------------
      1          8           0       -1.296549    1.023454    0.248656
      2          6           0       -0.627511    0.056117   -0.540364
      3          6           0        0.571642   -0.580095    0.159979
      4          8           0        1.444144    0.362159    0.757310
      5          1           0       -1.388152    0.669915    1.143341
      6          1           0       -0.293203    0.588213   -1.441024
      7          1           0       -1.302927   -0.748187   -0.879585
      8          1           0        1.091565   -1.235140   -0.560269
      9          1           0        0.225400   -1.224192    0.979327
     10          1           0        1.575493    1.087756    0.132730
 ---------------------------------------------------------------------
                    Distance matrix (angstroms):
                    1          2          3          4          5
     1  O    0.000000
     2  C    1.416300   0.000000
     3  C    2.463610   1.527486   0.000000
     4  O    2.864863   2.463610   1.416301   0.000000
     5  H    0.966355   1.946840   2.523949   2.875002   0.000000
     6  H    2.012748   1.098215   2.162432   2.811076   2.807941
     7  H    2.100400   1.103703   2.150106   3.385069   2.471944
     8  H    3.385070   2.150108   1.103703   2.100402   3.560972
     9  H    2.811072   2.162431   1.098215   2.012744   2.493610
    10  H    2.875100   2.523997   1.946840   0.966356   3.158974
                    6          7          8          9         10
     6  H    0.000000
     7  H    1.766556   0.000000
     8  H    2.453147   2.464281   0.000000
     9  H    3.067876   2.453144   1.766556   0.000000
    10  H    2.493646   3.561007   2.471897   2.807950   0.000000
 Stoichiometry    C2H6O2
 Framework group  C1[X(C2H6O2)]
 Deg. of freedom    24
 Full point group                 C1      NOp   1
 RotChk:  IX=0 Diff= 5.87D-04
 Largest Abelian subgroup         C1      NOp   1
 Largest concise Abelian subgroup C1      NOp   1
                         Standard orientation:                         
 ---------------------------------------------------------------------
 Center     Atomic      Atomic             Coordinates (Angstroms)
 Number     Number       Type             X           Y           Z
 ---------------------------------------------------------------------
      1          8           0       -1.431098   -0.601050   -0.061849
      2          6           0       -0.720771    0.583213    0.252576
      3          6           0        0.720766    0.583212   -0.252582
      4          8           0        1.431093   -0.601050    0.061852
      5          1           0       -1.238438   -0.831828   -0.980254
      6          1           0       -0.731021    0.652679    1.348544
      7          1           0       -1.225555    1.488245   -0.127257
      8          1           0        1.225550    1.488248    0.127238
      9          1           0        0.731014    0.652662   -1.348550
     10          1           0        1.238529   -0.831752    0.980296
 ---------------------------------------------------------------------
 Rotational constants (GHZ):     15.0363491      5.4653659      4.5318350
 Leave Link  202 at Thu Sep  8 15:13:35 2022, MaxMem= 24159191040 cpu:         1.0
 (Enter /public/home/users/caep010/software/Gaussian09/g09/l301.exe)
 Standard basis: 6-31G(d,p) (6D, 7F)
 Ernie: Thresh=  0.10000D-02 Tol=  0.10000D-05 Strict=F.
 There are    90 symmetry adapted cartesian basis functions of A   symmetry.
 There are    90 symmetry adapted basis functions of A   symmetry.
    90 basis functions,   154 primitive gaussians,    90 cartesian basis functions
    17 alpha electrons       17 beta electrons
       nuclear repulsion energy       132.5554401602 Hartrees.
 IExCor=  402 DFT=T Ex+Corr=B3LYP ExCW=0 ScaHFX=  0.200000
 ScaDFX=  0.800000  0.720000  1.000000  0.810000 ScalE2=  1.000000  1.000000
 IRadAn=      0 IRanWt=     -1 IRanGd=            0 ICorTp=0 IEmpDi=  4
 NAtoms=   10 NActive=   10 NUniq=   10 SFac= 1.00D+00 NAtFMM=   60 NAOKFM=F Big=F
 Integral buffers will be    131072 words long.
 Raffenetti 2 integral format.
 Two-electron integral symmetry is turned on.
 Leave Link  301 at Thu Sep  8 15:13:35 2022, MaxMem= 24159191040 cpu:         1.7
 (Enter /public/home/users/caep010/software/Gaussian09/g09/l302.exe)
 NPDir=0 NMtPBC=     1 NCelOv=     1 NCel=       1 NClECP=     1 NCelD=      1
         NCelK=      1 NCelE2=     1 NClLst=     1 CellRange=     0.0.
 One-electron integrals computed using PRISM.
 NBasis=    90 RedAO= T EigKep=  4.95D-03  NBF=    90
 NBsUse=    90 1.00D-06 EigRej= -1.00D+00 NBFU=    90
 Precomputing XC quadrature grid using
 IXCGrd= 4 IRadAn=           0 IRanWt=          -1 IRanGd=           0 AccXCQ= 0.00D+00.
 Generated NRdTot=       0 NPtTot=           0 NUsed=           0 NTot=          32
 NSgBfM=    90    90    90    90    90 MxSgAt=    10 MxSgA2=    10.
 Leave Link  302 at Thu Sep  8 15:13:35 2022, MaxMem= 24159191040 cpu:        10.7
 (Enter /public/home/users/caep010/software/Gaussian09/g09/l303.exe)
 DipDrv:  MaxL=1.
 Leave Link  303 at Thu Sep  8 15:13:35 2022, MaxMem= 24159191040 cpu:         0.7
 (Enter /public/home/users/caep010/software/Gaussian09/g09/l401.exe)
 Initial guess from the checkpoint file:  "B3LYP6-31Gdp.Frag_578.chk"
 B after Tr=     0.000000    0.000000   -0.000000
         Rot=    1.000000   -0.000000   -0.000031   -0.000000 Ang=  -0.00 deg.
 Guess basis will be translated and rotated to current coordinates.
 JPrj=2 DoOrth=T DoCkMO=T.
 Leave Link  401 at Thu Sep  8 15:13:35 2022, MaxMem= 24159191040 cpu:         3.3
 (Enter /public/home/users/caep010/software/Gaussian09/g09/l502.exe)
 Closed shell SCF:
 Using DIIS extrapolation, IDIIS=  1040.
 Integral symmetry usage will be decided dynamically.
 Keep R1 ints in memory in canonical form, NReq=9343712.
 IVT=       46414 IEndB=       46414 NGot= 24159191040 MDV= 24150758067
 LenX= 24150758067 LenY= 24150749526
 Requested convergence on RMS density matrix=1.00D-08 within 128 cycles.
 Requested convergence on MAX density matrix=1.00D-06.
 Requested convergence on             energy=1.00D-06.
 No special actions if energy rises.
 FoFCou: FMM=F IPFlag=           0 FMFlag=           0 FMFlg1=           0
         NFxFlg=           0 DoJE=F BraDBF=F KetDBF=F FulRan=T
         wScrn=  0.000000 ICntrl=     600 IOpCl=  0 I1Cent=           0 NGrid=           0
         NMat0=    1 NMatS0=   4095 NMatT0=    0 NMatD0=    1 NMtDS0=    0 NMtDT0=    0
 Symmetry not used in FoFCou.

 Cycle   1  Pass 1  IDiag  1:
 E= -230.252598481415    
 DIIS: error= 3.58D-04 at cycle   1 NSaved=   1.
 NSaved= 1 IEnMin= 1 EnMin= -230.252598481415     IErMin= 1 ErrMin= 3.58D-04
 ErrMax= 3.58D-04  0.00D+00 EMaxC= 1.00D-01 BMatC= 1.34D-05 BMatP= 1.34D-05
 IDIUse=3 WtCom= 9.96D-01 WtEn= 3.58D-03
 Coeff-Com:  0.100D+01
 Coeff-En:   0.100D+01
 Coeff:      0.100D+01
 Gap=     1.593 Goal=   None    Shift=    0.000
 RMSDP=6.37D-05 MaxDP=8.95D-04              OVMax= 1.12D-03

 Cycle   2  Pass 1  IDiag  1:
 E= -230.252613637185     Delta-E=       -0.000015155770 Rises=F Damp=F
 DIIS: error= 1.33D-04 at cycle   2 NSaved=   2.
 NSaved= 2 IEnMin= 2 EnMin= -230.252613637185     IErMin= 2 ErrMin= 1.33D-04
 ErrMax= 1.33D-04  0.00D+00 EMaxC= 1.00D-01 BMatC= 2.65D-06 BMatP= 1.34D-05
 IDIUse=3 WtCom= 9.99D-01 WtEn= 1.33D-03
 Coeff-Com:  0.209D+00 0.791D+00
 Coeff-En:   0.000D+00 0.100D+01
 Coeff:      0.208D+00 0.792D+00
 Gap=     0.334 Goal=   None    Shift=    0.000
 RMSDP=2.56D-05 MaxDP=4.75D-04 DE=-1.52D-05 OVMax= 5.48D-04

 Cycle   3  Pass 1  IDiag  1:
 E= -230.252613936139     Delta-E=       -0.000000298955 Rises=F Damp=F
 DIIS: error= 1.05D-04 at cycle   3 NSaved=   3.
 NSaved= 3 IEnMin= 3 EnMin= -230.252613936139     IErMin= 3 ErrMin= 1.05D-04
 ErrMax= 1.05D-04  0.00D+00 EMaxC= 1.00D-01 BMatC= 2.28D-06 BMatP= 2.65D-06
 IDIUse=3 WtCom= 9.99D-01 WtEn= 1.05D-03
 Coeff-Com: -0.122D-01 0.483D+00 0.529D+00
 Coeff-En:   0.000D+00 0.463D+00 0.537D+00
 Coeff:     -0.122D-01 0.483D+00 0.529D+00
 Gap=     0.334 Goal=   None    Shift=    0.000
 RMSDP=1.35D-05 MaxDP=2.32D-04 DE=-2.99D-07 OVMax= 2.43D-04

 Cycle   4  Pass 1  IDiag  1:
 E= -230.252615543746     Delta-E=       -0.000001607607 Rises=F Damp=F
 DIIS: error= 1.70D-05 at cycle   4 NSaved=   4.
 NSaved= 4 IEnMin= 4 EnMin= -230.252615543746     IErMin= 4 ErrMin= 1.70D-05
 ErrMax= 1.70D-05  0.00D+00 EMaxC= 1.00D-01 BMatC= 3.31D-08 BMatP= 2.28D-06
 IDIUse=1 WtCom= 1.00D+00 WtEn= 0.00D+00
 Coeff-Com: -0.120D-01 0.164D+00 0.218D+00 0.630D+00
 Coeff:     -0.120D-01 0.164D+00 0.218D+00 0.630D+00
 Gap=     0.334 Goal=   None    Shift=    0.000
 RMSDP=1.93D-06 MaxDP=3.39D-05 DE=-1.61D-06 OVMax= 4.35D-05

 Cycle   5  Pass 1  IDiag  1:
 E= -230.252615569043     Delta-E=       -0.000000025297 Rises=F Damp=F
 DIIS: error= 4.45D-06 at cycle   5 NSaved=   5.
 NSaved= 5 IEnMin= 5 EnMin= -230.252615569043     IErMin= 5 ErrMin= 4.45D-06
 ErrMax= 4.45D-06  0.00D+00 EMaxC= 1.00D-01 BMatC= 3.01D-09 BMatP= 3.31D-08
 IDIUse=1 WtCom= 1.00D+00 WtEn= 0.00D+00
 Coeff-Com: -0.398D-02 0.352D-01 0.580D-01 0.288D+00 0.622D+00
 Coeff:     -0.398D-02 0.352D-01 0.580D-01 0.288D+00 0.622D+00
 Gap=     0.334 Goal=   None    Shift=    0.000
 RMSDP=6.39D-07 MaxDP=1.03D-05 DE=-2.53D-08 OVMax= 1.23D-05

 Cycle   6  Pass 1  IDiag  1:
 E= -230.252615572020     Delta-E=       -0.000000002976 Rises=F Damp=F
 DIIS: error= 4.51D-07 at cycle   6 NSaved=   6.
 NSaved= 6 IEnMin= 6 EnMin= -230.252615572020     IErMin= 6 ErrMin= 4.51D-07
 ErrMax= 4.51D-07  0.00D+00 EMaxC= 1.00D-01 BMatC= 4.96D-11 BMatP= 3.01D-09
 IDIUse=1 WtCom= 1.00D+00 WtEn= 0.00D+00
 Coeff-Com: -0.974D-04-0.383D-02-0.164D-02 0.204D-01 0.139D+00 0.846D+00
 Coeff:     -0.974D-04-0.383D-02-0.164D-02 0.204D-01 0.139D+00 0.846D+00
 Gap=     0.334 Goal=   None    Shift=    0.000
 RMSDP=9.28D-08 MaxDP=1.16D-06 DE=-2.98D-09 OVMax= 1.78D-06

 Cycle   7  Pass 1  IDiag  1:
 E= -230.252615572069     Delta-E=       -0.000000000050 Rises=F Damp=F
 DIIS: error= 6.65D-08 at cycle   7 NSaved=   7.
 NSaved= 7 IEnMin= 7 EnMin= -230.252615572069     IErMin= 7 ErrMin= 6.65D-08
 ErrMax= 6.65D-08  0.00D+00 EMaxC= 1.00D-01 BMatC= 5.05D-13 BMatP= 4.96D-11
 IDIUse=1 WtCom= 1.00D+00 WtEn= 0.00D+00
 Coeff-Com:  0.499D-04-0.135D-02-0.142D-02-0.216D-02 0.131D-01 0.139D+00
 Coeff-Com:  0.852D+00
 Coeff:      0.499D-04-0.135D-02-0.142D-02-0.216D-02 0.131D-01 0.139D+00
 Coeff:      0.852D+00
 Gap=     0.334 Goal=   None    Shift=    0.000
 RMSDP=1.24D-08 MaxDP=1.47D-07 DE=-4.96D-11 OVMax= 2.52D-07

 Cycle   8  Pass 1  IDiag  1:
 E= -230.252615572070     Delta-E=       -0.000000000001 Rises=F Damp=F
 DIIS: error= 1.14D-08 at cycle   8 NSaved=   8.
 NSaved= 8 IEnMin= 8 EnMin= -230.252615572070     IErMin= 8 ErrMin= 1.14D-08
 ErrMax= 1.14D-08  0.00D+00 EMaxC= 1.00D-01 BMatC= 1.77D-14 BMatP= 5.05D-13
 IDIUse=1 WtCom= 1.00D+00 WtEn= 0.00D+00
 Coeff-Com:  0.117D-04-0.802D-04-0.141D-03-0.892D-03-0.173D-02-0.298D-02
 Coeff-Com:  0.148D+00 0.858D+00
 Coeff:      0.117D-04-0.802D-04-0.141D-03-0.892D-03-0.173D-02-0.298D-02
 Coeff:      0.148D+00 0.858D+00
 Gap=     0.334 Goal=   None    Shift=    0.000
 RMSDP=2.50D-09 MaxDP=2.70D-08 DE=-1.25D-12 OVMax= 5.46D-08

 SCF Done:  E(RB3LYP) =  -230.252615572     A.U. after    8 cycles
            NFock=  8  Conv=0.25D-08     -V/T= 2.0087
 KE= 2.282719799671D+02 PE=-8.048951053677D+02 EE= 2.138150696683D+02
 Leave Link  502 at Thu Sep  8 15:13:36 2022, MaxMem= 24159191040 cpu:        18.5
 (Enter /public/home/users/caep010/software/Gaussian09/g09/l701.exe)
 Compute integral first derivatives.
 ... and contract with generalized density number  0.
 Leave Link  701 at Thu Sep  8 15:13:37 2022, MaxMem= 24159191040 cpu:        17.3
 (Enter /public/home/users/caep010/software/Gaussian09/g09/l702.exe)
 L702 exits ... SP integral derivatives will be done elsewhere.
 Leave Link  702 at Thu Sep  8 15:13:37 2022, MaxMem= 24159191040 cpu:         0.5
 (Enter /public/home/users/caep010/software/Gaussian09/g09/l703.exe)
 Compute integral first derivatives, UseDBF=F ICtDFT=           0.
 Integral derivatives from FoFJK, PRISM(SPDF).
 Calling FoFJK, ICntrl=      2127 FMM=F ISym2X=0 I1Cent= 0 IOpClX= 0 NMat=1 NMatS=1 NMatT=0.
 FoFJK:  IHMeth= 1 ICntrl=    2127 DoSepK=F KAlg= 0 I1Cent=   0 FoldK=F
 IRaf=         0 NMat=   1 IRICut=       1 DoRegI=T DoRafI=F ISym2E= 0.
 FoFCou: FMM=F IPFlag=           0 FMFlag=      100000 FMFlg1=         800
         NFxFlg=           0 DoJE=F BraDBF=F KetDBF=F FulRan=T
         wScrn=  0.000000 ICntrl=    2127 IOpCl=  0 I1Cent=           0 NGrid=           0
         NMat0=    1 NMatS0=      1 NMatT0=    0 NMatD0=    1 NMtDS0=    0 NMtDT0=    0
 Symmetry not used in FoFCou.
 Leave Link  703 at Thu Sep  8 15:13:37 2022, MaxMem= 24159191040 cpu:        12.2
 (Enter /public/home/users/caep010/software/Gaussian09/g09/l716.exe)
 Dipole        = 6.96821293D-05 5.33503486D-01 2.00587576D-05
 ***** Axes restored to original set *****
 -------------------------------------------------------------------
 Center     Atomic                   Forces (Hartrees/Bohr)
 Number     Number              X              Y              Z
 -------------------------------------------------------------------
      1        8          -0.000064920    0.000462041   -0.000086686
      2        6           0.000348398   -0.000354505   -0.000161602
      3        6          -0.000408658   -0.000210736   -0.000248705
      4        8           0.000119307    0.000047868    0.000456766
      5        1          -0.000014378   -0.000262244    0.000055607
      6        1          -0.000135379    0.000087224    0.000064776
      7        1          -0.000039809    0.000061569    0.000122331
      8        1           0.000060097    0.000128373    0.000015600
      9        1           0.000151977    0.000068614    0.000048307
     10        1          -0.000016636   -0.000028204   -0.000266394
 -------------------------------------------------------------------
 Cartesian Forces:  Max     0.000462041 RMS     0.000203459
 Leave Link  716 at Thu Sep  8 15:13:37 2022, MaxMem= 24159191040 cpu:         0.5
 (Enter /public/home/users/caep010/software/Gaussian09/g09/l103.exe)

 GradGradGradGradGradGradGradGradGradGradGradGradGradGradGradGradGradGrad
 Berny optimization.
 Using GEDIIS/GDIIS optimizer.
 FormGI is forming the generalized inverse of G from B-inverse, IUseBI=4.
 Internal  Forces:  Max     0.000354986 RMS     0.000113283
 Search for a local minimum.
 Step number   2 out of a maximum of   48
 All quantities printed in internal units (Hartrees-Bohrs-Radians)
 RMS Force = .11328D-03 SwitMx=.10000D-02 MixMth= 2
 Mixed Optimization -- En-DIIS/RFO-DIIS
 Swapping is turned off.
 Update second derivatives using D2CorX and points    1    2
 DE= -3.80D-05 DEPred=-3.59D-05 R= 1.06D+00
 TightC=F SS=  1.41D+00  RLast= 1.98D-02 DXNew= 5.0454D-01 5.9310D-02
 Trust test= 1.06D+00 RLast= 1.98D-02 DXMaxT set to 3.00D-01
 ITU=  1  0
     Eigenvalues ---    0.00411   0.01422   0.01506   0.04706   0.04731
     Eigenvalues ---    0.05917   0.06025   0.11705   0.11768   0.14056
     Eigenvalues ---    0.14068   0.15947   0.16000   0.22027   0.22039
     Eigenvalues ---    0.29795   0.33305   0.33348   0.33815   0.33859
     Eigenvalues ---    0.42481   0.43370   0.54883   0.54913
 En-DIIS/RFO-DIIS IScMMF=        0 using points:     2    1
 RFO step:  Lambda=-1.41175984D-06.
 NNeg= 0 NP= 2 Switch=  2.50D-03 Rises=F DC=  3.80D-05 SmlDif=  1.00D-05
 RMS Error=  0.3671226265D-03 NUsed= 2 EDIIS=F
 DidBck=F Rises=F RFO-DIIS coefs:    1.06399   -0.06399
 Iteration  1 RMS(Cart)=  0.00186726 RMS(Int)=  0.00000564
 Iteration  2 RMS(Cart)=  0.00000490 RMS(Int)=  0.00000034
 Iteration  3 RMS(Cart)=  0.00000000 RMS(Int)=  0.00000034
 ITry= 1 IFail=0 DXMaxC= 5.19D-03 DCOld= 1.00D+10 DXMaxT= 3.00D-01 DXLimC= 3.00D+00 Rises=F
 Variable       Old X    -DE/DX   Delta X   Delta X   Delta X     New X
                                 (Linear)    (Quad)   (Total)
    R1        2.67642   0.00016   0.00027   0.00040   0.00067   2.67709
    R2        1.82615   0.00014   0.00043   0.00030   0.00073   1.82688
    R3        2.88653  -0.00007   0.00008  -0.00024  -0.00016   2.88637
    R4        2.07533  -0.00005  -0.00002  -0.00016  -0.00018   2.07515
    R5        2.08570  -0.00006   0.00003  -0.00019  -0.00016   2.08554
    R6        2.67642   0.00016   0.00027   0.00040   0.00067   2.67709
    R7        2.08570  -0.00006   0.00003  -0.00019  -0.00016   2.08554
    R8        2.07533  -0.00005  -0.00002  -0.00016  -0.00018   2.07515
    R9        1.82615   0.00014   0.00043   0.00030   0.00073   1.82688
    A1        1.88671  -0.00035   0.00002  -0.00236  -0.00234   1.88437
    A2        1.98220  -0.00001  -0.00002  -0.00025  -0.00027   1.98193
    A3        1.84394  -0.00010  -0.00001  -0.00103  -0.00105   1.84289
    A4        1.96045  -0.00007   0.00009  -0.00094  -0.00085   1.95961
    A5        1.91648   0.00012  -0.00002   0.00120   0.00118   1.91767
    A6        1.89421   0.00004   0.00004   0.00044   0.00048   1.89470
    A7        1.86221   0.00001  -0.00010   0.00067   0.00057   1.86277
    A8        1.98220  -0.00001  -0.00002  -0.00025  -0.00027   1.98193
    A9        1.89422   0.00004   0.00004   0.00044   0.00048   1.89470
   A10        1.91648   0.00012  -0.00002   0.00120   0.00118   1.91767
   A11        1.96046  -0.00007   0.00009  -0.00094  -0.00085   1.95961
   A12        1.84393  -0.00010  -0.00001  -0.00103  -0.00105   1.84289
   A13        1.86221   0.00001  -0.00010   0.00067   0.00057   1.86277
   A14        1.88671  -0.00035   0.00002  -0.00236  -0.00234   1.88437
    D1       -0.76794  -0.00003  -0.00040  -0.00404  -0.00443  -0.77238
    D2       -2.86945  -0.00012  -0.00036  -0.00469  -0.00504  -2.87449
    D3        1.39003  -0.00003  -0.00028  -0.00439  -0.00467   1.38536
    D4       -0.84393  -0.00000   0.00029   0.00008   0.00037  -0.84356
    D5       -3.03759   0.00005   0.00014   0.00115   0.00129  -3.03629
    D6        1.21610  -0.00005   0.00024  -0.00056  -0.00032   1.21579
    D7        1.21611  -0.00005   0.00024  -0.00056  -0.00032   1.21579
    D8       -0.97755   0.00000   0.00010   0.00051   0.00061  -0.97694
    D9       -3.00704  -0.00010   0.00020  -0.00120  -0.00100  -3.00804
   D10       -3.03758   0.00005   0.00014   0.00115   0.00129  -3.03629
   D11        1.05195   0.00011  -0.00001   0.00223   0.00222   1.05417
   D12       -0.97755   0.00000   0.00010   0.00051   0.00061  -0.97694
   D13       -0.76808  -0.00003  -0.00040  -0.00403  -0.00443  -0.77251
   D14        1.38990  -0.00003  -0.00028  -0.00439  -0.00466   1.38523
   D15       -2.86958  -0.00012  -0.00036  -0.00468  -0.00504  -2.87462
         Item               Value     Threshold  Converged?
 Maximum Force            0.000355     0.000450     YES
 RMS     Force            0.000113     0.000300     YES
 Maximum Displacement     0.005194     0.001800     NO 
 RMS     Displacement     0.001868     0.001200     NO 
 Predicted change in Energy=-2.561352D-06
 Lowest energy point so far.  Saving SCF results.
 GradGradGradGradGradGradGradGradGradGradGradGradGradGradGradGradGradGrad

 Leave Link  103 at Thu Sep  8 15:13:37 2022, MaxMem= 24159191040 cpu:         0.9
 (Enter /public/home/users/caep010/software/Gaussian09/g09/l202.exe)
                          Input orientation:                          
 ---------------------------------------------------------------------
 Center     Atomic      Atomic             Coordinates (Angstroms)
 Number     Number       Type             X           Y           Z
 ---------------------------------------------------------------------
      1          8           0       -1.296117    1.024335    0.248806
      2          6           0       -0.627271    0.056467   -0.540364
      3          6           0        0.571454   -0.579957    0.160334
      4          8           0        1.443856    0.362624    0.758137
      5          1           0       -1.390475    0.667167    1.142182
      6          1           0       -0.293755    0.589191   -1.440831
      7          1           0       -1.303611   -0.747220   -0.878933
      8          1           0        1.092439   -1.234330   -0.559631
      9          1           0        0.226098   -1.223793    0.980134
     10          1           0        1.577282    1.085516    0.130268
 ---------------------------------------------------------------------
                    Distance matrix (angstroms):
                    1          2          3          4          5
     1  O    0.000000
     2  C    1.416655   0.000000
     3  C    2.463616   1.527402   0.000000
     4  O    2.864391   2.463616   1.416656   0.000000
     5  H    0.966744   1.945866   2.523591   2.876399   0.000000
     6  H    2.012202   1.098121   2.163151   2.811776   2.807282
     7  H    2.100061   1.103621   2.150331   3.385311   2.468388
     8  H    3.385312   2.150333   1.103620   2.100064   3.560438
     9  H    2.811772   2.163150   1.098120   2.012197   2.493050
    10  H    2.876494   2.523637   1.945867   0.966744   3.163317
                    6          7          8          9         10
     6  H    0.000000
     7  H    1.766787   0.000000
     8  H    2.454236   2.465824   0.000000
     9  H    3.068914   2.454233   1.766786   0.000000
    10  H    2.493085   3.560471   2.468343   2.807291   0.000000
 Stoichiometry    C2H6O2
 Framework group  C1[X(C2H6O2)]
 Deg. of freedom    24
 Full point group                 C1      NOp   1
 RotChk:  IX=0 Diff= 2.92D-04
 Largest Abelian subgroup         C1      NOp   1
 Largest concise Abelian subgroup C1      NOp   1
                         Standard orientation:                         
 ---------------------------------------------------------------------
 Center     Atomic      Atomic             Coordinates (Angstroms)
 Number     Number       Type             X           Y           Z
 ---------------------------------------------------------------------
      1          8           0       -1.430870   -0.601452   -0.061655
      2          6           0       -0.720686    0.583343    0.252691
      3          6           0        0.720681    0.583341   -0.252697
      4          8           0        1.430865   -0.601452    0.061657
      5          1           0       -1.239974   -0.828300   -0.981813
      6          1           0       -0.732027    0.652258    1.348588
      7          1           0       -1.226282    1.487576   -0.127723
      8          1           0        1.226277    1.487579    0.127704
      9          1           0        0.732021    0.652241   -1.348594
     10          1           0        1.240063   -0.828227    0.981854
 ---------------------------------------------------------------------
 Rotational constants (GHZ):     15.0323558      5.4655023      4.5321480
 Leave Link  202 at Thu Sep  8 15:13:37 2022, MaxMem= 24159191040 cpu:         0.2
 (Enter /public/home/users/caep010/software/Gaussian09/g09/l301.exe)
 Standard basis: 6-31G(d,p) (6D, 7F)
 Ernie: Thresh=  0.10000D-02 Tol=  0.10000D-05 Strict=F.
 There are    90 symmetry adapted cartesian basis functions of A   symmetry.
 There are    90 symmetry adapted basis functions of A   symmetry.
    90 basis functions,   154 primitive gaussians,    90 cartesian basis functions
    17 alpha electrons       17 beta electrons
       nuclear repulsion energy       132.5467357737 Hartrees.
 IExCor=  402 DFT=T Ex+Corr=B3LYP ExCW=0 ScaHFX=  0.200000
 ScaDFX=  0.800000  0.720000  1.000000  0.810000 ScalE2=  1.000000  1.000000
 IRadAn=      0 IRanWt=     -1 IRanGd=            0 ICorTp=0 IEmpDi=  4
 NAtoms=   10 NActive=   10 NUniq=   10 SFac= 1.00D+00 NAtFMM=   60 NAOKFM=F Big=F
 Integral buffers will be    131072 words long.
 Raffenetti 2 integral format.
 Two-electron integral symmetry is turned on.
 Leave Link  301 at Thu Sep  8 15:13:38 2022, MaxMem= 24159191040 cpu:         1.8
 (Enter /public/home/users/caep010/software/Gaussian09/g09/l302.exe)
 NPDir=0 NMtPBC=     1 NCelOv=     1 NCel=       1 NClECP=     1 NCelD=      1
         NCelK=      1 NCelE2=     1 NClLst=     1 CellRange=     0.0.
 One-electron integrals computed using PRISM.
 NBasis=    90 RedAO= T EigKep=  4.95D-03  NBF=    90
 NBsUse=    90 1.00D-06 EigRej= -1.00D+00 NBFU=    90
 Precomputing XC quadrature grid using
 IXCGrd= 4 IRadAn=           0 IRanWt=          -1 IRanGd=           0 AccXCQ= 0.00D+00.
 Generated NRdTot=       0 NPtTot=           0 NUsed=           0 NTot=          32
 NSgBfM=    90    90    90    90    90 MxSgAt=    10 MxSgA2=    10.
 Leave Link  302 at Thu Sep  8 15:13:38 2022, MaxMem= 24159191040 cpu:        10.7
 (Enter /public/home/users/caep010/software/Gaussian09/g09/l303.exe)
 DipDrv:  MaxL=1.
 Leave Link  303 at Thu Sep  8 15:13:38 2022, MaxMem= 24159191040 cpu:         0.6
 (Enter /public/home/users/caep010/software/Gaussian09/g09/l401.exe)
 Initial guess from the checkpoint file:  "B3LYP6-31Gdp.Frag_578.chk"
 B after Tr=    -0.000000   -0.000000    0.000000
         Rot=    1.000000   -0.000000   -0.000010    0.000000 Ang=  -0.00 deg.
 Guess basis will be translated and rotated to current coordinates.
 JPrj=2 DoOrth=T DoCkMO=T.
 Leave Link  401 at Thu Sep  8 15:13:38 2022, MaxMem= 24159191040 cpu:         3.3
 (Enter /public/home/users/caep010/software/Gaussian09/g09/l502.exe)
 Closed shell SCF:
 Using DIIS extrapolation, IDIIS=  1040.
 Integral symmetry usage will be decided dynamically.
 Keep R1 ints in memory in canonical form, NReq=9343712.
 IVT=       46414 IEndB=       46414 NGot= 24159191040 MDV= 24150758067
 LenX= 24150758067 LenY= 24150749526
 Requested convergence on RMS density matrix=1.00D-08 within 128 cycles.
 Requested convergence on MAX density matrix=1.00D-06.
 Requested convergence on             energy=1.00D-06.
 No special actions if energy rises.
 FoFCou: FMM=F IPFlag=           0 FMFlag=           0 FMFlg1=           0
         NFxFlg=           0 DoJE=F BraDBF=F KetDBF=F FulRan=T
         wScrn=  0.000000 ICntrl=     600 IOpCl=  0 I1Cent=           0 NGrid=           0
         NMat0=    1 NMatS0=   4095 NMatT0=    0 NMatD0=    1 NMtDS0=    0 NMtDT0=    0
 Symmetry not used in FoFCou.

 Cycle   1  Pass 1  IDiag  1:
 E= -230.252612949527    
 DIIS: error= 2.24D-04 at cycle   1 NSaved=   1.
 NSaved= 1 IEnMin= 1 EnMin= -230.252612949527     IErMin= 1 ErrMin= 2.24D-04
 ErrMax= 2.24D-04  0.00D+00 EMaxC= 1.00D-01 BMatC= 4.23D-06 BMatP= 4.23D-06
 IDIUse=3 WtCom= 9.98D-01 WtEn= 2.24D-03
 Coeff-Com:  0.100D+01
 Coeff-En:   0.100D+01
 Coeff:      0.100D+01
 Gap=     1.593 Goal=   None    Shift=    0.000
 RMSDP=4.10D-05 MaxDP=6.98D-04              OVMax= 8.96D-04

 Cycle   2  Pass 1  IDiag  1:
 E= -230.252618549867     Delta-E=       -0.000005600340 Rises=F Damp=F
 DIIS: error= 2.84D-05 at cycle   2 NSaved=   2.
 NSaved= 2 IEnMin= 2 EnMin= -230.252618549867     IErMin= 2 ErrMin= 2.84D-05
 ErrMax= 2.84D-05  0.00D+00 EMaxC= 1.00D-01 BMatC= 1.83D-07 BMatP= 4.23D-06
 IDIUse=1 WtCom= 1.00D+00 WtEn= 0.00D+00
 Coeff-Com:  0.567D-02 0.994D+00
 Coeff:      0.567D-02 0.994D+00
 Gap=     0.334 Goal=   None    Shift=    0.000
 RMSDP=8.17D-06 MaxDP=1.50D-04 DE=-5.60D-06 OVMax= 1.83D-04

 Cycle   3  Pass 1  IDiag  1:
 E= -230.252618446992     Delta-E=        0.000000102874 Rises=F Damp=F
 DIIS: error= 4.38D-05 at cycle   3 NSaved=   3.
 NSaved= 3 IEnMin= 2 EnMin= -230.252618549867     IErMin= 2 ErrMin= 2.84D-05
 ErrMax= 4.38D-05  0.00D+00 EMaxC= 1.00D-01 BMatC= 3.64D-07 BMatP= 1.83D-07
 IDIUse=1 WtCom= 1.00D+00 WtEn= 0.00D+00
 Coeff-Com: -0.346D-01 0.611D+00 0.424D+00
 Coeff:     -0.346D-01 0.611D+00 0.424D+00
 Gap=     0.334 Goal=   None    Shift=    0.000
 RMSDP=4.93D-06 MaxDP=8.71D-05 DE= 1.03D-07 OVMax= 9.26D-05

 Cycle   4  Pass 1  IDiag  1:
 E= -230.252618709711     Delta-E=       -0.000000262719 Rises=F Damp=F
 DIIS: error= 2.15D-06 at cycle   4 NSaved=   4.
 NSaved= 4 IEnMin= 4 EnMin= -230.252618709711     IErMin= 4 ErrMin= 2.15D-06
 ErrMax= 2.15D-06  0.00D+00 EMaxC= 1.00D-01 BMatC= 7.26D-10 BMatP= 1.83D-07
 IDIUse=1 WtCom= 1.00D+00 WtEn= 0.00D+00
 Coeff-Com: -0.319D-02 0.333D-01 0.570D-01 0.913D+00
 Coeff:     -0.319D-02 0.333D-01 0.570D-01 0.913D+00
 Gap=     0.334 Goal=   None    Shift=    0.000
 RMSDP=4.21D-07 MaxDP=5.28D-06 DE=-2.63D-07 OVMax= 1.05D-05

 Cycle   5  Pass 1  IDiag  1:
 E= -230.252618710432     Delta-E=       -0.000000000721 Rises=F Damp=F
 DIIS: error= 3.76D-07 at cycle   5 NSaved=   5.
 NSaved= 5 IEnMin= 5 EnMin= -230.252618710432     IErMin= 5 ErrMin= 3.76D-07
 ErrMax= 3.76D-07  0.00D+00 EMaxC= 1.00D-01 BMatC= 1.91D-11 BMatP= 7.26D-10
 IDIUse=1 WtCom= 1.00D+00 WtEn= 0.00D+00
 Coeff-Com:  0.434D-03-0.145D-01-0.409D-02 0.160D+00 0.858D+00
 Coeff:      0.434D-03-0.145D-01-0.409D-02 0.160D+00 0.858D+00
 Gap=     0.334 Goal=   None    Shift=    0.000
 RMSDP=7.59D-08 MaxDP=9.20D-07 DE=-7.21D-10 OVMax= 1.89D-06

 Cycle   6  Pass 1  IDiag  1:
 E= -230.252618710451     Delta-E=       -0.000000000019 Rises=F Damp=F
 DIIS: error= 6.23D-08 at cycle   6 NSaved=   6.
 NSaved= 6 IEnMin= 6 EnMin= -230.252618710451     IErMin= 6 ErrMin= 6.23D-08
 ErrMax= 6.23D-08  0.00D+00 EMaxC= 1.00D-01 BMatC= 5.91D-13 BMatP= 1.91D-11
 IDIUse=1 WtCom= 1.00D+00 WtEn= 0.00D+00
 Coeff-Com:  0.175D-03-0.441D-02-0.209D-02 0.204D-01 0.196D+00 0.790D+00
 Coeff:      0.175D-03-0.441D-02-0.209D-02 0.204D-01 0.196D+00 0.790D+00
 Gap=     0.334 Goal=   None    Shift=    0.000
 RMSDP=1.40D-08 MaxDP=1.68D-07 DE=-1.93D-11 OVMax= 3.17D-07

 Cycle   7  Pass 1  IDiag  1:
 E= -230.252618710453     Delta-E=       -0.000000000001 Rises=F Damp=F
 DIIS: error= 2.96D-08 at cycle   7 NSaved=   7.
 NSaved= 7 IEnMin= 7 EnMin= -230.252618710453     IErMin= 7 ErrMin= 2.96D-08
 ErrMax= 2.96D-08  0.00D+00 EMaxC= 1.00D-01 BMatC= 1.23D-13 BMatP= 5.91D-13
 IDIUse=1 WtCom= 1.00D+00 WtEn= 0.00D+00
 Coeff-Com:  0.480D-04-0.904D-03-0.597D-03-0.241D-02 0.234D-01 0.333D+00
 Coeff-Com:  0.648D+00
 Coeff:      0.480D-04-0.904D-03-0.597D-03-0.241D-02 0.234D-01 0.333D+00
 Coeff:      0.648D+00
 Gap=     0.334 Goal=   None    Shift=    0.000
 RMSDP=4.64D-09 MaxDP=7.08D-08 DE=-1.31D-12 OVMax= 8.79D-08

 SCF Done:  E(RB3LYP) =  -230.252618710     A.U. after    7 cycles
            NFock=  7  Conv=0.46D-08     -V/T= 2.0087
 KE= 2.282711958865D+02 PE=-8.048784103362D+02 EE= 2.138078599655D+02
 Leave Link  502 at Thu Sep  8 15:13:39 2022, MaxMem= 24159191040 cpu:        18.2
 (Enter /public/home/users/caep010/software/Gaussian09/g09/l701.exe)
 Compute integral first derivatives.
 ... and contract with generalized density number  0.
 Leave Link  701 at Thu Sep  8 15:13:39 2022, MaxMem= 24159191040 cpu:        10.3
 (Enter /public/home/users/caep010/software/Gaussian09/g09/l702.exe)
 L702 exits ... SP integral derivatives will be done elsewhere.
 Leave Link  702 at Thu Sep  8 15:13:39 2022, MaxMem= 24159191040 cpu:         0.5
 (Enter /public/home/users/caep010/software/Gaussian09/g09/l703.exe)
 Compute integral first derivatives, UseDBF=F ICtDFT=           0.
 Integral derivatives from FoFJK, PRISM(SPDF).
 Calling FoFJK, ICntrl=      2127 FMM=F ISym2X=0 I1Cent= 0 IOpClX= 0 NMat=1 NMatS=1 NMatT=0.
 FoFJK:  IHMeth= 1 ICntrl=    2127 DoSepK=F KAlg= 0 I1Cent=   0 FoldK=F
 IRaf=         0 NMat=   1 IRICut=       1 DoRegI=T DoRafI=F ISym2E= 0.
 FoFCou: FMM=F IPFlag=           0 FMFlag=      100000 FMFlg1=         800
         NFxFlg=           0 DoJE=F BraDBF=F KetDBF=F FulRan=T
         wScrn=  0.000000 ICntrl=    2127 IOpCl=  0 I1Cent=           0 NGrid=           0
         NMat0=    1 NMatS0=      1 NMatT0=    0 NMatD0=    1 NMtDS0=    0 NMtDT0=    0
 Symmetry not used in FoFCou.
 Leave Link  703 at Thu Sep  8 15:13:40 2022, MaxMem= 24159191040 cpu:         8.6
 (Enter /public/home/users/caep010/software/Gaussian09/g09/l716.exe)
 Dipole        = 6.74824379D-05 5.39033315D-01 1.89433982D-05
 ***** Axes restored to original set *****
 -------------------------------------------------------------------
 Center     Atomic                   Forces (Hartrees/Bohr)
 Number     Number              X              Y              Z
 -------------------------------------------------------------------
      1        8           0.000015838    0.000022419    0.000304234
      2        6           0.000079195   -0.000130358   -0.000067193
      3        6          -0.000102812   -0.000091512   -0.000093953
      4        8           0.000018235    0.000295957   -0.000073073
      5        1          -0.000071996    0.000058571   -0.000191180
      6        1          -0.000017563   -0.000014858    0.000002130
      7        1           0.000010145   -0.000000970    0.000039482
      8        1          -0.000006175    0.000038392   -0.000012272
      9        1           0.000015407   -0.000004913   -0.000016416
     10        1           0.000059726   -0.000172728    0.000108240
 -------------------------------------------------------------------
 Cartesian Forces:  Max     0.000304234 RMS     0.000105956
 Leave Link  716 at Thu Sep  8 15:13:40 2022, MaxMem= 24159191040 cpu:         0.6
 (Enter /public/home/users/caep010/software/Gaussian09/g09/l103.exe)

 GradGradGradGradGradGradGradGradGradGradGradGradGradGradGradGradGradGrad
 Berny optimization.
 Using GEDIIS/GDIIS optimizer.
 FormGI is forming the generalized inverse of G from B-inverse, IUseBI=4.
 Internal  Forces:  Max     0.000197240 RMS     0.000062894
 Search for a local minimum.
 Step number   3 out of a maximum of   48
 All quantities printed in internal units (Hartrees-Bohrs-Radians)
 RMS Force = .62894D-04 SwitMx=.10000D-02 MixMth= 2
 Mixed Optimization -- En-DIIS/RFO-DIIS
 Swapping is turned off.
 Update second derivatives using D2CorX and points    1    2    3
 DE= -3.14D-06 DEPred=-2.56D-06 R= 1.23D+00
 TightC=F SS=  1.41D+00  RLast= 1.28D-02 DXNew= 5.0454D-01 3.8512D-02
 Trust test= 1.23D+00 RLast= 1.28D-02 DXMaxT set to 3.00D-01
 ITU=  1  1  0
     Eigenvalues ---    0.00411   0.00806   0.01506   0.04708   0.04731
     Eigenvalues ---    0.05910   0.06088   0.11771   0.12004   0.14067
     Eigenvalues ---    0.14130   0.16000   0.19432   0.22027   0.22057
     Eigenvalues ---    0.29728   0.33265   0.33305   0.33786   0.33859
     Eigenvalues ---    0.41183   0.43370   0.54883   0.64110
 En-DIIS/RFO-DIIS IScMMF=        0 using points:     3    2    1
 RFO step:  Lambda=-3.53902586D-07.
 NNeg= 0 NP= 3 Switch=  2.50D-03 Rises=F DC=  3.80D-05 SmlDif=  1.00D-05
 RMS Error=  0.2371355881D-03 NUsed= 3 EDIIS=F
 DidBck=F Rises=F RFO-DIIS coefs:    1.24372   -0.21785   -0.02587
 Iteration  1 RMS(Cart)=  0.00230992 RMS(Int)=  0.00000667
 Iteration  2 RMS(Cart)=  0.00000593 RMS(Int)=  0.00000011
 Iteration  3 RMS(Cart)=  0.00000000 RMS(Int)=  0.00000011
 ITry= 1 IFail=0 DXMaxC= 8.75D-03 DCOld= 1.00D+10 DXMaxT= 3.00D-01 DXLimC= 3.00D+00 Rises=F
 Variable       Old X    -DE/DX   Delta X   Delta X   Delta X     New X
                                 (Linear)    (Quad)   (Total)
    R1        2.67709   0.00014   0.00027   0.00052   0.00079   2.67788
    R2        1.82688  -0.00020   0.00035  -0.00029   0.00006   1.82695
    R3        2.88637  -0.00007  -0.00001  -0.00030  -0.00031   2.88606
    R4        2.07515  -0.00001  -0.00005  -0.00006  -0.00011   2.07503
    R5        2.08554  -0.00002  -0.00003  -0.00008  -0.00011   2.08544
    R6        2.67709   0.00014   0.00027   0.00052   0.00079   2.67788
    R7        2.08554  -0.00002  -0.00003  -0.00008  -0.00011   2.08543
    R8        2.07515  -0.00001  -0.00005  -0.00006  -0.00011   2.07503
    R9        1.82688  -0.00020   0.00035  -0.00029   0.00006   1.82695
    A1        1.88437   0.00006  -0.00056   0.00019  -0.00037   1.88400
    A2        1.98193   0.00001  -0.00007   0.00002  -0.00005   1.98188
    A3        1.84289   0.00001  -0.00026  -0.00001  -0.00028   1.84262
    A4        1.95961  -0.00001  -0.00017  -0.00017  -0.00034   1.95926
    A5        1.91767  -0.00002   0.00028  -0.00003   0.00025   1.91791
    A6        1.89470   0.00000   0.00014   0.00008   0.00022   1.89491
    A7        1.86277   0.00001   0.00010   0.00012   0.00022   1.86300
    A8        1.98193   0.00001  -0.00007   0.00002  -0.00005   1.98188
    A9        1.89470   0.00000   0.00014   0.00008   0.00022   1.89492
   A10        1.91767  -0.00002   0.00028  -0.00003   0.00025   1.91791
   A11        1.95961  -0.00001  -0.00017  -0.00017  -0.00034   1.95927
   A12        1.84289   0.00001  -0.00026  -0.00001  -0.00028   1.84261
   A13        1.86277   0.00001   0.00010   0.00012   0.00022   1.86300
   A14        1.88437   0.00006  -0.00056   0.00019  -0.00037   1.88399
    D1       -0.77238  -0.00006  -0.00124  -0.00473  -0.00597  -0.77834
    D2       -2.87449  -0.00005  -0.00137  -0.00469  -0.00606  -2.88056
    D3        1.38536  -0.00005  -0.00125  -0.00474  -0.00599   1.37937
    D4       -0.84356  -0.00001   0.00020  -0.00020   0.00000  -0.84356
    D5       -3.03629  -0.00000   0.00037  -0.00006   0.00032  -3.03598
    D6        1.21579  -0.00000   0.00002  -0.00023  -0.00021   1.21558
    D7        1.21579  -0.00000   0.00002  -0.00023  -0.00021   1.21558
    D8       -0.97694   0.00000   0.00019  -0.00008   0.00011  -0.97683
    D9       -3.00804   0.00000  -0.00016  -0.00026  -0.00042  -3.00846
   D10       -3.03629  -0.00000   0.00037  -0.00006   0.00032  -3.03597
   D11        1.05417   0.00000   0.00054   0.00009   0.00063   1.05480
   D12       -0.97694   0.00000   0.00019  -0.00008   0.00011  -0.97683
   D13       -0.77251  -0.00006  -0.00124  -0.00472  -0.00596  -0.77847
   D14        1.38523  -0.00005  -0.00125  -0.00474  -0.00598   1.37925
   D15       -2.87462  -0.00005  -0.00137  -0.00468  -0.00606  -2.88068
         Item               Value     Threshold  Converged?
 Maximum Force            0.000197     0.000450     YES
 RMS     Force            0.000063     0.000300     YES
 Maximum Displacement     0.008751     0.001800     NO 
 RMS     Displacement     0.002310     0.001200     NO 
 Predicted change in Energy=-1.067057D-06
 Lowest energy point so far.  Saving SCF results.
 GradGradGradGradGradGradGradGradGradGradGradGradGradGradGradGradGradGrad

 Leave Link  103 at Thu Sep  8 15:13:40 2022, MaxMem= 24159191040 cpu:         0.8
 (Enter /public/home/users/caep010/software/Gaussian09/g09/l202.exe)
                          Input orientation:                          
 ---------------------------------------------------------------------
 Center     Atomic      Atomic             Coordinates (Angstroms)
 Number     Number       Type             X           Y           Z
 ---------------------------------------------------------------------
      1          8           0       -1.296216    1.024814    0.249505
      2          6           0       -0.627227    0.056726   -0.540025
      3          6           0        0.571481   -0.579554    0.160475
      4          8           0        1.444091    0.363413    0.758357
      5          1           0       -1.395106    0.665097    1.141404
      6          1           0       -0.294083    0.589706   -1.440404
      7          1           0       -1.303819   -0.746788   -0.878321
      8          1           0        1.092765   -1.233653   -0.559437
      9          1           0        0.226536   -1.223281    0.980453
     10          1           0        1.581477    1.083521    0.128095
 ---------------------------------------------------------------------
                    Distance matrix (angstroms):
                    1          2          3          4          5
     1  O    0.000000
     2  C    1.417073   0.000000
     3  C    2.463781   1.527238   0.000000
     4  O    2.864553   2.463780   1.417074   0.000000
     5  H    0.966778   1.946011   2.525638   2.880761   0.000000
     6  H    2.012307   1.098060   2.163142   2.811940   2.807787
     7  H    2.100148   1.103565   2.150306   3.385598   2.465978
     8  H    3.385600   2.150309   1.103565   2.100150   3.561968
     9  H    2.811937   2.163141   1.098059   2.012303   2.494314
    10  H    2.880851   2.525682   1.946011   0.966778   3.172053
                    6          7          8          9         10
     6  H    0.000000
     7  H    1.766839   0.000000
     8  H    2.454402   2.466240   0.000000
     9  H    3.068959   2.454399   1.766839   0.000000
    10  H    2.494347   3.561999   2.465935   2.807795   0.000000
 Stoichiometry    C2H6O2
 Framework group  C1[X(C2H6O2)]
 Deg. of freedom    24
 Full point group                 C1      NOp   1
 RotChk:  IX=0 Diff= 7.65D-04
 Largest Abelian subgroup         C1      NOp   1
 Largest concise Abelian subgroup C1      NOp   1
                         Standard orientation:                         
 ---------------------------------------------------------------------
 Center     Atomic      Atomic             Coordinates (Angstroms)
 Number     Number       Type             X           Y           Z
 ---------------------------------------------------------------------
      1          8           0       -1.430971   -0.601793   -0.061204
      2          6           0       -0.720502    0.583376    0.252967
      3          6           0        0.720497    0.583375   -0.252973
      4          8           0        1.430965   -0.601793    0.061207
      5          1           0       -1.244516   -0.825333   -0.983118
      6          1           0       -0.731648    0.652065    1.348820
[...]
     30 -0.445302D-02 -0.995122D-03 -0.561869D-03  0.116533D-02  0.113406D-01
     31 -0.465137D-02 -0.803595D-02  0.961872D-02  0.397600D-02 -0.110121D-01
     32 -0.536120D-02  0.509560D-02 -0.275812D-02 -0.827713D-02 -0.141630D-02
     33  0.516195D-02  0.187595D-02 -0.521613D-02  0.345251D-02  0.123212D-01
     34  0.496359D-02 -0.516488D-02  0.496446D-02  0.626317D-02 -0.100315D-01
     35  0.425376D-02  0.796667D-02 -0.741238D-02 -0.598996D-02 -0.435725D-03
     36 -0.141855D-02 -0.271186D-02 -0.195143D-01  0.228742D-01  0.902069D-02
     37  0.596910D-03  0.198219D-01  0.228478D-01  0.525623D-02 -0.212570D-01
     38  0.117031D-02 -0.147970D-01 -0.395756D-02 -0.267090D-01  0.127177D-01
               21            22            23            24            25 
     21  0.637289D-01
     22 -0.548464D-02  0.278323D-01
     23  0.120021D-01 -0.187515D-02  0.186649D+00
     24  0.434556D-03 -0.141859D-02  0.562056D-03  0.147854D-01
     25  0.582467D-03  0.117029D-02 -0.762180D-03 -0.691793D-02  0.214501D-01
     26 -0.170876D-02  0.596889D-03  0.214512D-03 -0.635965D-02 -0.136733D-01
     27 -0.122117D-01  0.877575D-03 -0.299901D-02 -0.450865D-02  0.191635D-02
     28  0.897249D-03  0.516189D-02  0.259421D-03 -0.231771D-02  0.123100D-02
     29  0.110457D-01 -0.445300D-02  0.369680D-02 -0.418215D-02  0.246692D-02
     30 -0.111818D-01 -0.306085D-04 -0.304908D-02  0.575882D-04 -0.100248D-02
     31  0.192715D-02  0.425371D-02  0.209356D-03  0.224852D-02 -0.168783D-02
     32  0.120756D-01 -0.536118D-02  0.364674D-02  0.384083D-03 -0.451908D-03
     33 -0.132561D-01  0.679227D-03 -0.387144D-02  0.847141D-03 -0.924346D-03
     34 -0.147157D-03  0.496354D-02 -0.613005D-03  0.303808D-02 -0.160970D-02
     35  0.100013D-01 -0.465135D-02  0.282438D-02  0.117364D-02 -0.373774D-03
     36 -0.744934D-02 -0.621758D-03 -0.580227D-03  0.313336D-02 -0.981942D-03
     37 -0.159084D-01 -0.137179D-01 -0.287327D-02 -0.800537D-03 -0.304938D-03
     38  0.197099D-01  0.142570D-01  0.210678D-02 -0.982005D-03  0.102546D-02
               26            27            28            29            30 
     26  0.229002D-01
     27  0.273883D-02  0.187104D-01
     28  0.198750D-02  0.473610D-02  0.172561D-01
     29  0.334445D-02  0.523896D-02  0.528184D-02  0.186369D-01
     30 -0.106601D-02  0.523895D-02 -0.847313D-02 -0.876054D-02  0.186368D-01
     31 -0.181734D-02 -0.873533D-02  0.404691D-02 -0.871766D-02  0.492476D-02
     32 -0.460395D-03 -0.823247D-02 -0.792739D-02  0.463737D-02  0.463735D-02
     33 -0.160246D-02  0.473608D-02 -0.871939D-02 -0.847315D-02  0.528181D-02
     34 -0.235379D-02 -0.923820D-02  0.380065D-02 -0.843027D-02 -0.843027D-02
     35 -0.996846D-03 -0.873534D-02 -0.817365D-02  0.492477D-02 -0.871768D-02
     36 -0.800567D-03 -0.450870D-02  0.847256D-03  0.577230D-04 -0.418227D-02
     37  0.160697D-02  0.273873D-02 -0.160239D-02 -0.106594D-02  0.334432D-02
     38 -0.304984D-03  0.191623D-02 -0.924283D-03 -0.100234D-02  0.246676D-02
               31            32            33            34            35 
     31  0.177070D-01
     32  0.494243D-02  0.175072D-01
     33 -0.817366D-02 -0.792742D-02  0.172562D-01
     34  0.460858D-02 -0.762234D-02  0.380068D-02  0.168395D-01
     35 -0.815599D-02  0.494243D-02  0.404693D-02  0.460861D-02  0.177070D-01
     36  0.117368D-02  0.384147D-03 -0.231777D-02  0.303818D-02  0.224865D-02
     37 -0.996809D-03 -0.460351D-03  0.198743D-02 -0.235370D-02 -0.181724D-02
     38 -0.373759D-03 -0.451814D-03  0.123089D-02 -0.160963D-02 -0.168768D-02
               36            37            38 
     36  0.147858D-01
     37 -0.635942D-02  0.229002D-01
     38 -0.691764D-02 -0.136731D-01  0.214505D-01
 Leave Link  716 at Thu Sep  8 15:13:57 2022, MaxMem= 24159191040 cpu:         1.4
 (Enter /public/home/users/caep010/software/Gaussian09/g09/l103.exe)

 GradGradGradGradGradGradGradGradGradGradGradGradGradGradGradGradGradGrad
 Berny optimization.
 Red2BG is reusing G-inverse.
 Internal  Forces:  Max     0.000018652 RMS     0.000006612
 Search for a local minimum.
 Step number   1 out of a maximum of    2
 All quantities printed in internal units (Hartrees-Bohrs-Radians)
 Second derivative matrix not updated -- analytic derivatives used.
 ITU=  0
     Eigenvalues ---    0.00102   0.00121   0.00350   0.04922   0.05066
     Eigenvalues ---    0.05403   0.06059   0.10203   0.10749   0.12198
     Eigenvalues ---    0.13599   0.16966   0.17299   0.21289   0.25088
     Eigenvalues ---    0.28873   0.31298   0.31302   0.32520   0.32897
     Eigenvalues ---    0.38870   0.39479   0.52268   0.52311
 Angle between quadratic step and forces=  75.13 degrees.
 Linear search not attempted -- first point.
 Iteration  1 RMS(Cart)=  0.00014007 RMS(Int)=  0.00000003
 Iteration  2 RMS(Cart)=  0.00000003 RMS(Int)=  0.00000000
 ITry= 1 IFail=0 DXMaxC= 3.89D-04 DCOld= 1.00D+10 DXMaxT= 3.00D-01 DXLimC= 3.00D+00 Rises=F
 Variable       Old X    -DE/DX   Delta X   Delta X   Delta X     New X
                                 (Linear)    (Quad)   (Total)
    R1        2.67697  -0.00001   0.00000  -0.00006  -0.00006   2.67691
    R2        1.82648   0.00002   0.00000   0.00003   0.00003   1.82651
    R3        2.88627  -0.00000   0.00000  -0.00001  -0.00001   2.88626
    R4        2.07494   0.00001   0.00000   0.00002   0.00002   2.07496
    R5        2.08571   0.00000   0.00000   0.00001   0.00001   2.08572
    R6        2.67697  -0.00001   0.00000  -0.00006  -0.00006   2.67691
    R7        2.08570   0.00000   0.00000   0.00001   0.00001   2.08572
    R8        2.07494   0.00001   0.00000   0.00002   0.00002   2.07496
    R9        1.82648   0.00002   0.00000   0.00003   0.00003   1.82651
    A1        1.88457   0.00001   0.00000   0.00005   0.00005   1.88462
    A2        1.98374  -0.00000   0.00000   0.00001   0.00001   1.98376
    A3        1.84205   0.00000   0.00000   0.00007   0.00007   1.84212
    A4        1.95967   0.00000   0.00000   0.00003   0.00003   1.95970
    A5        1.91752   0.00000   0.00000  -0.00001  -0.00001   1.91751
    A6        1.89386  -0.00001   0.00000  -0.00008  -0.00008   1.89377
    A7        1.86262   0.00000   0.00000  -0.00002  -0.00002   1.86260
    A8        1.98374  -0.00000   0.00000   0.00001   0.00001   1.98376
    A9        1.89386  -0.00001   0.00000  -0.00009  -0.00009   1.89377
   A10        1.91752   0.00000   0.00000  -0.00001  -0.00001   1.91751
   A11        1.95967   0.00000   0.00000   0.00003   0.00003   1.95970
   A12        1.84205   0.00000   0.00000   0.00007   0.00007   1.84212
   A13        1.86262   0.00000   0.00000  -0.00002  -0.00002   1.86260
   A14        1.88457   0.00001   0.00000   0.00005   0.00005   1.88462
    D1       -0.80758   0.00000   0.00000   0.00044   0.00044  -0.80714
    D2       -2.91000   0.00000   0.00000   0.00039   0.00039  -2.90961
    D3        1.35049  -0.00000   0.00000   0.00036   0.00036   1.35085
    D4       -0.85580  -0.00001   0.00000  -0.00025  -0.00025  -0.85605
    D5       -3.04928  -0.00000   0.00000  -0.00023  -0.00023  -3.04951
    D6        1.20354  -0.00000   0.00000  -0.00015  -0.00015   1.20339
    D7        1.20354  -0.00000   0.00000  -0.00015  -0.00015   1.20339
    D8       -0.98993   0.00000   0.00000  -0.00013  -0.00013  -0.99006
    D9       -3.02030   0.00001   0.00000  -0.00005  -0.00005  -3.02035
   D10       -3.04927  -0.00000   0.00000  -0.00023  -0.00023  -3.04951
   D11        1.04044  -0.00000   0.00000  -0.00021  -0.00021   1.04023
   D12       -0.98993   0.00000   0.00000  -0.00013  -0.00013  -0.99006
   D13       -0.80765   0.00000   0.00000   0.00050   0.00050  -0.80715
   D14        1.35043  -0.00000   0.00000   0.00042   0.00042   1.35085
   D15       -2.91007   0.00000   0.00000   0.00045   0.00045  -2.90962
         Item               Value     Threshold  Converged?
 Maximum Force            0.000019     0.000450     YES
 RMS     Force            0.000007     0.000300     YES
 Maximum Displacement     0.000389     0.001800     YES
 RMS     Displacement     0.000140     0.001200     YES
 Predicted change in Energy=-6.302603D-09
 Optimization completed.
    -- Stationary point found.
                           ----------------------------
                           !   Optimized Parameters   !
                           ! (Angstroms and Degrees)  !
 --------------------------                            --------------------------
 ! Name  Definition              Value          Derivative Info.                !
 --------------------------------------------------------------------------------
 ! R1    R(1,2)                  1.4166         -DE/DX =    0.0                 !
 ! R2    R(1,5)                  0.9665         -DE/DX =    0.0                 !
 ! R3    R(2,3)                  1.5273         -DE/DX =    0.0                 !
 ! R4    R(2,6)                  1.098          -DE/DX =    0.0                 !
 ! R5    R(2,7)                  1.1037         -DE/DX =    0.0                 !
 ! R6    R(3,4)                  1.4166         -DE/DX =    0.0                 !
 ! R7    R(3,8)                  1.1037         -DE/DX =    0.0                 !
 ! R8    R(3,9)                  1.098          -DE/DX =    0.0                 !
 ! R9    R(4,10)                 0.9665         -DE/DX =    0.0                 !
 ! A1    A(2,1,5)              107.9779         -DE/DX =    0.0                 !
 ! A2    A(1,2,3)              113.6601         -DE/DX =    0.0                 !
 ! A3    A(1,2,6)              105.5417         -DE/DX =    0.0                 !
 ! A4    A(1,2,7)              112.2809         -DE/DX =    0.0                 !
 ! A5    A(3,2,6)              109.8658         -DE/DX =    0.0                 !
 ! A6    A(3,2,7)              108.5101         -DE/DX =    0.0                 !
 ! A7    A(6,2,7)              106.7205         -DE/DX =    0.0                 !
 ! A8    A(2,3,4)              113.66           -DE/DX =    0.0                 !
 ! A9    A(2,3,8)              108.5102         -DE/DX =    0.0                 !
 ! A10   A(2,3,9)              109.8658         -DE/DX =    0.0                 !
 ! A11   A(4,3,8)              112.281          -DE/DX =    0.0                 !
 ! A12   A(4,3,9)              105.5416         -DE/DX =    0.0                 !
 ! A13   A(8,3,9)              106.7205         -DE/DX =    0.0                 !
 ! A14   A(3,4,10)             107.9779         -DE/DX =    0.0                 !
 ! D1    D(5,1,2,3)            -46.2712         -DE/DX =    0.0                 !
 ! D2    D(5,1,2,6)           -166.731          -DE/DX =    0.0                 !
 ! D3    D(5,1,2,7)             77.3774         -DE/DX =    0.0                 !
 ! D4    D(1,2,3,4)            -49.0339         -DE/DX =    0.0                 !
 ! D5    D(1,2,3,8)           -174.7107         -DE/DX =    0.0                 !
 ! D6    D(1,2,3,9)             68.9578         -DE/DX =    0.0                 !
 ! D7    D(6,2,3,4)             68.958          -DE/DX =    0.0                 !
 ! D8    D(6,2,3,8)            -56.7188         -DE/DX =    0.0                 !
 ! D9    D(6,2,3,9)           -173.0503         -DE/DX =    0.0                 !
 ! D10   D(7,2,3,4)           -174.7105         -DE/DX =    0.0                 !
 ! D11   D(7,2,3,8)             59.6127         -DE/DX =    0.0                 !
 ! D12   D(7,2,3,9)            -56.7189         -DE/DX =    0.0                 !
 ! D13   D(2,3,4,10)           -46.2749         -DE/DX =    0.0                 !
 ! D14   D(8,3,4,10)            77.3738         -DE/DX =    0.0                 !
 ! D15   D(9,3,4,10)          -166.7346         -DE/DX =    0.0                 !
 --------------------------------------------------------------------------------
 GradGradGradGradGradGradGradGradGradGradGradGradGradGradGradGradGradGrad

 Leave Link  103 at Thu Sep  8 15:13:58 2022, MaxMem= 24159191040 cpu:         5.8
 (Enter /public/home/users/caep010/software/Gaussian09/g09/l9999.exe)
 1\1\GINC-B0854\Freq\RB3LYP\6-31G(d,p)\C2H6O2\ROOT\08-Sep-2022\0\\#P Ge
 om=AllCheck Guess=TCheck SCRF=Check GenChk RB3LYP/6-31G(d,p) Freq\\Fra
 g_578\\0,1\O,-1.3024183947,1.0226130741,0.2543925219\C,-0.6273084313,0
 .0605985338,-0.5364823005\C,0.5724594505,-0.5750639822,0.163006241\O,1
 .450406074,0.366498803,0.7541056461\H,-1.4263848692,0.6491472444,1.137
 1952233\H,-0.2940857522,0.5987989014,-1.4336621741\H,-1.2993955962,-0.
 7444881763,-0.8804372066\H,1.0885083991,-1.234357085,-0.5561574366\H,0
 .2284822906,-1.2141897746,0.9869153919\H,1.6096368293,1.0704424614,0.1
 112260936\\Version=ES64L-G09RevE.01\State=1-A\HF=-230.2526235\RMSD=7.9
 84e-10\RMSF=1.124e-05\ZeroPoint=0.0849177\Thermal=0.0903824\Dipole=-0.
 0480874,-0.4516202,-0.3278684\DipoleDeriv=-0.6878683,0.1978339,0.09338
 54,0.169116,-0.5885804,-0.2734271,0.0850912,-0.2906418,-0.4727451,0.43
 51914,-0.1660239,-0.1720026,-0.0823118,0.5501616,0.2407839,-0.1336261,
 0.188676,0.4751973,0.5079735,0.2513248,0.119716,0.1835138,0.552509,0.1
 366221,0.059443,0.1910607,0.4000724,-0.759418,-0.1608519,-0.1612827,-0
 .1457182,-0.6084543,-0.2338979,-0.1342865,-0.218673,-0.3813234,0.36610
 91,-0.0038554,0.002939,-0.008582,0.2111911,0.118313,0.0200146,0.073842
 6,0.158089,-0.0164428,-0.0231833,0.0765577,-0.0035531,-0.0449781,0.091
 2507,0.056806,0.0596107,-0.104148,-0.1051678,-0.0875261,-0.0522339,-0.
 0710395,-0.1503383,-0.1113988,-0.0281263,-0.0710586,-0.0256761,-0.0781
 688,0.0616494,0.0536048,0.0377631,-0.1071896,-0.103164,0.0396885,-0.14
 45908,-0.0958199,-0.0253396,-0.0593933,0.0465513,-0.0501139,-0.0380882
 ,0.0613732,0.0264809,0.0972569,-0.1021356,0.3631314,-0.0099743,-0.0072
 349,-0.0290746,0.223767,0.0735447,0.0085146,0.1145173,0.1484895\Polar=
 28.9400512,0.5893459,30.4699659,-0.5584453,0.1832084,30.4955396\PG=C01
  [X(C2H6O2)]\NImag=0\\0.12588649,-0.08439706,0.30223113,-0.12982816,-0
 .08643018,0.58918810,-0.09753276,0.04952796,0.05833136,0.49542997,0.05
 868527,-0.15688438,-0.07451022,0.06322003,0.54948140,0.03447580,-0.027
 23576,-0.14058698,-0.01856884,-0.03053697,0.57186374,-0.02109183,0.015
 15476,-0.00080536,-0.13422985,0.03837586,-0.03406313,0.48281329,0.0270
 8429,-0.02265509,0.00194836,0.02787961,-0.10213107,0.02372386,0.004120
 44,0.55148483,0.02262890,-0.02263606,0.00420137,-0.04019169,0.03772578
 ,-0.11316733,-0.06077530,-0.02249977,0.58247762,0.00219470,-0.00193426
 ,-0.00054990,-0.02908147,-0.02933409,-0.01779714,-0.12448973,-0.060008
 61,-0.05487838,0.18032163,0.00209291,0.00611207,0.00417680,-0.00098869
 ,0.00004892,-0.00114908,-0.08439219,-0.15340743,-0.05461542,0.17965883
 ,0.46452368,0.00225976,0.00310730,0.00362234,-0.01697471,-0.02332389,-
 0.01051270,-0.03252724,-0.01226432,-0.11710706,0.03965593,-0.17678182,
 0.37246175,-0.01667709,-0.00002263,0.04637663,-0.00639364,-0.00835061,
 0.02302884,0.00042698,0.00047149,0.00305049,0.00099435,-0.00139174,-0.
 00152733,0.02311202,-0.01601794,-0.11465033,0.20123185,0.00788820,0.00
 533315,-0.03365983,0.00186691,0.00344574,-0.00114017,0.00002450,-0.001
 48275,-0.00031570,0.00515884,0.11094529,0.06884303,0.15418643,-0.42339
 085,0.00359549,0.01317290,-0.02575405,-0.00086363,0.00056801,0.0047156
 2,0.00007835,-0.00017688,-0.00031175,-0.07230766,-0.16406806,0.4452226
 2,-0.00570006,-0.00150019,0.02081476,-0.07339647,-0.04069054,0.0562882
 1,0.00761640,0.01558393,-0.02366710,0.00263055,0.00125387,0.00169222,-
 0.00211996,0.00196302,0.00105839,0.07933430,0.01094308,0.01072370,-0.0
 2721977,-0.04423360,-0.11946112,0.11033124,-0.00560571,-0.00939864,0.0
 1166211,0.00063540,0.00180569,-0.00145439,0.00385172,-0.00188061,-0.00
 464799,0.03710284,0.12849868,0.01123159,0.00144130,-0.02513617,0.05785
 768,0.10238405,-0.20978515,0.00515811,0.01048990,-0.01197819,0.0002104
 8,-0.00096137,0.00156563,0.00351953,-0.00240471,-0.00071906,-0.0712146
 8,-0.10795786,0.23790110,0.01513866,0.01906089,0.00863611,-0.15374505,
 -0.10917598,-0.04295100,-0.01327573,-0.02325479,-0.00449499,-0.0059214
 0,0.00213134,-0.00469558,0.00056813,0.00013081,-0.00064788,-0.00536005
 ,-0.00637806,-0.00284018,0.15990123,-0.00107941,-0.02430807,-0.0190155
 2,-0.10930250,-0.16673371,-0.04338952,0.00647544,0.01040596,0.00468946
 ,0.00357819,0.00069214,0.00256711,0.00004628,-0.00041402,0.00103924,-0
 .01351288,-0.01087662,-0.00329386,0.11497993,0.19077414,-0.00489161,-0
 .02375238,-0.00959308,-0.04171108,-0.04100664,-0.07117965,-0.01188187,
 -0.01168750,-0.00353925,-0.00420870,0.00055533,-0.00106431,-0.00129128
 ,-0.00108805,0.00028389,0.01695787,0.01810054,0.00834531,0.04642882,0.
 05864418,0.07675492,-0.00559881,0.00483457,-0.00277929,-0.00890747,0.0
 1318199,0.02167426,-0.11612801,0.06992167,0.07994248,0.01071053,-0.020
 94406,-0.02091025,0.00074268,-0.00044331,-0.00126661,0.00127724,-0.000
 02960,-0.00066762,0.00029456,-0.00131192,-0.00036151,0.12070054,0.0037
 1732,-0.00104197,0.00087387,0.00914759,-0.00729105,-0.01081741,0.06903
 089,-0.12541652,-0.08029818,-0.00231234,-0.02131741,-0.02156616,-0.000
 31722,-0.00035440,0.00024506,-0.00102637,0.00007616,-0.00033650,0.0008
 3774,0.00028623,0.00091177,-0.07148201,0.14352832,-0.00372011,0.002933
 98,0.00034726,-0.00633329,0.00933109,0.00978951,0.08010356,-0.08283047
 ,-0.15011461,-0.00530364,-0.01705054,-0.00815588,-0.00062309,0.0002347
 0,-0.00024709,0.00062194,-0.00023664,0.00082549,0.00099461,-0.00100738
 ,0.00024564,-0.08076829,0.10103196,0.16320173,0.00212387,-0.00228364,-
 0.00073215,0.00787232,0.01663926,-0.02297480,-0.07241585,-0.03770147,0
 .05846668,-0.01040530,-0.02322255,0.01220395,-0.00021875,-0.00031080,0
 .00138923,-0.00395375,0.00317945,-0.00240791,0.00139030,-0.00041869,0.
 00097577,-0.00380512,-0.00859743,0.01545000,0.08285864,-0.00064085,0.0
 0125092,-0.00050682,-0.00401365,-0.00710210,0.01263632,-0.03886659,-0.
 12740473,0.10464161,-0.01521322,-0.02425212,0.01457349,0.00051167,-0.0
 0101493,-0.00039514,0.00203287,0.00008461,0.00124070,0.00047457,0.0005
 5453,-0.00070889,0.00569056,0.01156396,-0.01324645,0.05469504,0.148327
 54,-0.00066120,-0.00084956,0.00262711,0.00583541,0.00766709,-0.0145309
 1,0.06338276,0.11189785,-0.20282273,-0.00638654,-0.01108590,0.01454463
 ,-0.00057956,0.00101540,0.00026253,-0.00326704,0.00099019,0.00005212,-
 0.00033806,-0.00033163,0.00023408,0.00573972,0.01129231,-0.01565005,-0
 .06092402,-0.11684387,0.21454860,0.00125684,0.00155960,0.00053598,-0.0
 0001558,-0.00255121,0.00088780,-0.00922566,-0.02409655,0.01991892,-0.0
 2695385,-0.05419771,0.02082325,-0.00043471,-0.00026023,0.00012129,-0.0
 0032821,0.00053448,-0.00084699,0.00100936,0.00054555,-0.00001642,0.000
 71386,0.00100183,-0.00042170,-0.00344636,-0.00467041,-0.00280147,0.037
 42433,-0.00038761,-0.00077796,-0.00054837,0.00087504,0.00473997,0.0000
 9714,-0.00615982,-0.02492304,0.02247064,-0.07509439,-0.27272278,0.2154
 5838,0.00004220,0.00007287,0.00007643,-0.00120655,0.00042815,-0.000601
 64,0.00119355,-0.00038057,0.00003164,0.00058212,-0.00003331,0.00083974
 ,-0.00197917,-0.00200768,-0.00375188,0.08213463,0.29560436,-0.00033802
 ,-0.00076506,-0.00127909,-0.00184033,-0.00090318,0.00386351,-0.0077278
 9,-0.01934593,0.00733455,0.04917954,0.25708887,-0.25504265,0.00035343,
 0.00019457,-0.00006186,0.00071545,0.00043258,-0.00107108,-0.00009186,0
 .00009791,-0.00048754,-0.00060291,-0.00133671,-0.00024200,-0.00144675,
 -0.00139095,0.00073460,-0.03820066,-0.23407209,0.24625157\\-0.00000675
 ,0.00001586,0.00001599,0.00000552,-0.00002403,-0.00000590,-0.00000937,
 -0.00001208,-0.00002032,0.00001035,0.00001899,0.00000934,0.00000084,0.
 00000585,-0.00002323,0.00000271,0.00000179,0.00000573,-0.00000294,0.00
 000796,-0.00000271,0.00000372,-0.00000055,0.00000805,-0.00000181,0.000
 00632,0.00000016,-0.00000227,-0.00002010,0.00001287\\\@


 IT'S WHAT YOU LEARN AFTER YOU KNOW IT ALL
 THAT COUNTS.
 Job cpu time:       0 days  0 hours  3 minutes  7.9 seconds.
 File lengths (MBytes):  RWF=     13 Int=      0 D2E=      0 Chk=      2 Scr=      1
 Normal termination of Gaussian 09 at Thu Sep  8 15:13:58 2022.
