 Entering Gaussian System, Link 0=g09
 Input=B3LYP6-31Gxx.Frag_55.gjf
 Output=B3LYP6-31Gxx.Frag_55.log
 Initial command:
 /vol2/users/liuj201281/hxd_yi/bin/Gaussian/g09/l1.exe "/vol2/users/liuj201281/HOFBenchmark/IsodesmicSplit/Sample60/Ring26/Running/Gau-490147.inp" -scrdir="/vol2/users/liuj201281/HOFBenchmark/IsodesmicSplit/Sample60/Ring26/Running/"
 Entering Link 1 = /vol2/users/liuj201281/hxd_yi/bin/Gaussian/g09/l1.exe PID=    490148.
  
 Copyright (c) 1988,1990,1992,1993,1995,1998,2003,2009,2013,
            Gaussian, Inc.  All Rights Reserved.
  
 This is part of the Gaussian(R) 09 program.  It is based on
 the Gaussian(R) 03 system (copyright 2003, Gaussian, Inc.),
 the Gaussian(R) 98 system (copyright 1998, Gaussian, Inc.),
 the Gaussian(R) 94 system (copyright 1995, Gaussian, Inc.),
 the Gaussian 92(TM) system (copyright 1992, Gaussian, Inc.),
 the Gaussian 90(TM) system (copyright 1990, Gaussian, Inc.),
 the Gaussian 88(TM) system (copyright 1988, Gaussian, Inc.),
 the Gaussian 86(TM) system (copyright 1986, Carnegie Mellon
 University), and the Gaussian 82(TM) system (copyright 1983,
 Carnegie Mellon University). Gaussian is a federally registered
 trademark of Gaussian, Inc.
  
 This software contains proprietary and confidential information,
 including trade secrets, belonging to Gaussian, Inc.
  
 This software is provided under written license and may be
 used, copied, transmitted, or stored only in accord with that
 written license.
  
 The following legend is applicable only to US Government
 contracts under FAR:
  
                    RESTRICTED RIGHTS LEGEND
  
 Use, reproduction and disclosure by the US Government is
 subject to restrictions as set forth in subparagraphs (a)
 and (c) of the Commercial Computer Software - Restricted
 Rights clause in FAR 52.227-19.
  
 Gaussian, Inc.
 340 Quinnipiac St., Bldg. 40, Wallingford CT 06492
  
  
 ---------------------------------------------------------------
 Warning -- This program may not be used in any manner that
 competes with the business of Gaussian, Inc. or will provide
 assistance to any competitor of Gaussian, Inc.  The licensee
 of this program is prohibited from giving any competitor of
 Gaussian, Inc. access to this program.  By using this program,
 the user acknowledges that Gaussian, Inc. is engaged in the
 business of creating and licensing software in the field of
 computational chemistry and represents and warrants to the
 licensee that it is not a competitor of Gaussian, Inc. and that
 it will not use this program in any manner prohibited above.
 ---------------------------------------------------------------
  

 Cite this work as:
 Gaussian 09, Revision D.01,
 M. J. Frisch, G. W. Trucks, H. B. Schlegel, G. E. Scuseria, 
 M. A. Robb, J. R. Cheeseman, G. Scalmani, V. Barone, B. Mennucci, 
 G. A. Petersson, H. Nakatsuji, M. Caricato, X. Li, H. P. Hratchian, 
 A. F. Izmaylov, J. Bloino, G. Zheng, J. L. Sonnenberg, M. Hada, 
 M. Ehara, K. Toyota, R. Fukuda, J. Hasegawa, M. Ishida, T. Nakajima, 
 Y. Honda, O. Kitao, H. Nakai, T. Vreven, J. A. Montgomery, Jr., 
 J. E. Peralta, F. Ogliaro, M. Bearpark, J. J. Heyd, E. Brothers, 
 K. N. Kudin, V. N. Staroverov, T. Keith, R. Kobayashi, J. Normand, 
 K. Raghavachari, A. Rendell, J. C. Burant, S. S. Iyengar, J. Tomasi, 
 M. Cossi, N. Rega, J. M. Millam, M. Klene, J. E. Knox, J. B. Cross, 
 V. Bakken, C. Adamo, J. Jaramillo, R. Gomperts, R. E. Stratmann, 
 O. Yazyev, A. J. Austin, R. Cammi, C. Pomelli, J. W. Ochterski, 
 R. L. Martin, K. Morokuma, V. G. Zakrzewski, G. A. Voth, 
 P. Salvador, J. J. Dannenberg, S. Dapprich, A. D. Daniels, 
 O. Farkas, J. B. Foresman, J. V. Ortiz, J. Cioslowski, 
 and D. J. Fox, Gaussian, Inc., Wallingford CT, 2013.
 
 ******************************************
 Gaussian 09:  ES64L-G09RevD.01 24-Apr-2013
                23-Jul-2021 
 ******************************************
 %nproc=128
 Will use up to  128 processors via shared memory.
 %mem=128GB
 -------------------------
 #P OPT Freq B3LYP/6-31G**
 -------------------------
 1/14=-1,18=20,19=15,26=3,38=1/1,3;
 2/9=110,12=2,17=6,18=5,40=1/2;
 3/5=1,6=6,7=101,11=2,16=1,25=1,30=1,71=1,74=-5/1,2,3;
 4//1;
 5/5=2,38=5/2;
 6/7=2,8=2,9=2,10=2,28=1/1;
 7//1,2,3,16;
 1/14=-1,18=20,19=15,26=3/3(2);
 2/9=110/2;
 99//99;
 2/9=110/2;
 3/5=1,6=6,7=101,11=2,16=1,25=1,30=1,71=1,74=-5/1,2,3;
 4/5=5,16=3,69=1/1;
 5/5=2,38=5/2;
 7//1,2,3,16;
 1/14=-1,18=20,19=15,26=3/3(-5);
 2/9=110/2;
 6/7=2,8=2,9=2,10=2,19=2,28=1/1;
 99/9=1/99;
 Leave Link    1 at Fri Jul 23 04:53:46 2021, MaxMem= 17179869184 cpu:        10.7
 (Enter /vol2/users/liuj201281/hxd_yi/bin/Gaussian/g09/l101.exe)
 -------
 Frag_55
 -------
 Symbolic Z-matrix:
 Charge =  0 Multiplicity = 1
 C                     0.        1.4594    0. 
 C                     0.        0.123    -0.0006 
 C                     1.2775   -0.6787    0.0001 
 C                    -1.2775   -0.6787    0.0001 
 H                    -0.9246    2.0299    0.0005 
 H                     0.9246    2.0299    0.0005 
 H                     1.3307   -1.3337    0.8796 
 H                     2.1618   -0.0361   -0.0005 
 H                     1.3305   -1.3351   -0.8784 
 H                    -1.3307   -1.3337    0.8796 
 H                    -2.1618   -0.0361   -0.0005 
 H                    -1.3305   -1.3351   -0.8784 
 
 NAtoms=     12 NQM=       12 NQMF=       0 NMMI=      0 NMMIF=      0
                NMic=       0 NMicF=      0.
                    Isotopes and Nuclear Properties:
 (Nuclear quadrupole moments (NQMom) in fm**2, nuclear magnetic moments (NMagM)
  in nuclear magnetons)

  Atom         1           2           3           4           5           6           7           8           9          10
 IAtWgt=          12          12          12          12           1           1           1           1           1           1
 AtmWgt=  12.0000000  12.0000000  12.0000000  12.0000000   1.0078250   1.0078250   1.0078250   1.0078250   1.0078250   1.0078250
 NucSpn=           0           0           0           0           1           1           1           1           1           1
 AtZEff=   0.0000000   0.0000000   0.0000000   0.0000000   0.0000000   0.0000000   0.0000000   0.0000000   0.0000000   0.0000000
 NQMom=    0.0000000   0.0000000   0.0000000   0.0000000   0.0000000   0.0000000   0.0000000   0.0000000   0.0000000   0.0000000
 NMagM=    0.0000000   0.0000000   0.0000000   0.0000000   2.7928460   2.7928460   2.7928460   2.7928460   2.7928460   2.7928460
 AtZNuc=   6.0000000   6.0000000   6.0000000   6.0000000   1.0000000   1.0000000   1.0000000   1.0000000   1.0000000   1.0000000

  Atom        11          12
 IAtWgt=           1           1
 AtmWgt=   1.0078250   1.0078250
 NucSpn=           1           1
 AtZEff=   0.0000000   0.0000000
 NQMom=    0.0000000   0.0000000
 NMagM=    2.7928460   2.7928460
 AtZNuc=   1.0000000   1.0000000
 Leave Link  101 at Fri Jul 23 04:53:46 2021, MaxMem= 17179869184 cpu:        57.3
 (Enter /vol2/users/liuj201281/hxd_yi/bin/Gaussian/g09/l103.exe)

 GradGradGradGradGradGradGradGradGradGradGradGradGradGradGradGradGradGrad
 Berny optimization.
 Initialization pass.
                           ----------------------------
                           !    Initial Parameters    !
                           ! (Angstroms and Degrees)  !
 --------------------------                            --------------------------
 ! Name  Definition              Value          Derivative Info.                !
 --------------------------------------------------------------------------------
 ! R1    R(1,2)                  1.3364         estimate D2E/DX2                !
 ! R2    R(1,5)                  1.0864         estimate D2E/DX2                !
 ! R3    R(1,6)                  1.0864         estimate D2E/DX2                !
 ! R4    R(2,3)                  1.5082         estimate D2E/DX2                !
 ! R5    R(2,4)                  1.5082         estimate D2E/DX2                !
 ! R6    R(3,7)                  1.0979         estimate D2E/DX2                !
 ! R7    R(3,8)                  1.0931         estimate D2E/DX2                !
 ! R8    R(3,9)                  1.0979         estimate D2E/DX2                !
 ! R9    R(4,10)                 1.0979         estimate D2E/DX2                !
 ! R10   R(4,11)                 1.0931         estimate D2E/DX2                !
 ! R11   R(4,12)                 1.0979         estimate D2E/DX2                !
 ! A1    A(2,1,5)              121.6756         estimate D2E/DX2                !
 ! A2    A(2,1,6)              121.6756         estimate D2E/DX2                !
 ! A3    A(5,1,6)              116.6489         estimate D2E/DX2                !
 ! A4    A(1,2,3)              122.1105         estimate D2E/DX2                !
 ! A5    A(1,2,4)              122.1105         estimate D2E/DX2                !
 ! A6    A(3,2,4)              115.779          estimate D2E/DX2                !
 ! A7    A(2,3,7)              111.0104         estimate D2E/DX2                !
 ! A8    A(2,3,8)              111.8845         estimate D2E/DX2                !
 ! A9    A(2,3,9)              110.9964         estimate D2E/DX2                !
 ! A10   A(7,3,8)              108.1769         estimate D2E/DX2                !
 ! A11   A(7,3,9)              106.3774         estimate D2E/DX2                !
 ! A12   A(8,3,9)              108.1776         estimate D2E/DX2                !
 ! A13   A(2,4,10)             111.0104         estimate D2E/DX2                !
 ! A14   A(2,4,11)             111.8845         estimate D2E/DX2                !
 ! A15   A(2,4,12)             110.9964         estimate D2E/DX2                !
 ! A16   A(10,4,11)            108.1769         estimate D2E/DX2                !
 ! A17   A(10,4,12)            106.3774         estimate D2E/DX2                !
 ! A18   A(11,4,12)            108.1776         estimate D2E/DX2                !
 ! D1    D(5,1,2,3)           -179.9374         estimate D2E/DX2                !
 ! D2    D(5,1,2,4)             -0.0324         estimate D2E/DX2                !
 ! D3    D(6,1,2,3)              0.0324         estimate D2E/DX2                !
 ! D4    D(6,1,2,4)            179.9374         estimate D2E/DX2                !
 ! D5    D(1,2,3,7)            120.8655         estimate D2E/DX2                !
 ! D6    D(1,2,3,8)             -0.0916         estimate D2E/DX2                !
 ! D7    D(1,2,3,9)           -121.0398         estimate D2E/DX2                !
 ! D8    D(4,2,3,7)            -59.0451         estimate D2E/DX2                !
 ! D9    D(4,2,3,8)            179.9978         estimate D2E/DX2                !
 ! D10   D(4,2,3,9)             59.0496         estimate D2E/DX2                !
 ! D11   D(1,2,4,10)          -120.8655         estimate D2E/DX2                !
 ! D12   D(1,2,4,11)             0.0916         estimate D2E/DX2                !
 ! D13   D(1,2,4,12)           121.0398         estimate D2E/DX2                !
 ! D14   D(3,2,4,10)            59.0451         estimate D2E/DX2                !
 ! D15   D(3,2,4,11)          -179.9978         estimate D2E/DX2                !
 ! D16   D(3,2,4,12)           -59.0496         estimate D2E/DX2                !
 --------------------------------------------------------------------------------
 Trust Radius=3.00D-01 FncErr=1.00D-07 GrdErr=1.00D-06
 Number of steps in this run=     55 maximum allowed number of steps=    100.
 GradGradGradGradGradGradGradGradGradGradGradGradGradGradGradGradGradGrad

 Leave Link  103 at Fri Jul 23 04:53:46 2021, MaxMem= 17179869184 cpu:         2.0
 (Enter /vol2/users/liuj201281/hxd_yi/bin/Gaussian/g09/l202.exe)
                          Input orientation:                          
 ---------------------------------------------------------------------
 Center     Atomic      Atomic             Coordinates (Angstroms)
 Number     Number       Type             X           Y           Z
 ---------------------------------------------------------------------
      1          6           0        0.000000    1.459400    0.000000
      2          6           0        0.000000    0.123000   -0.000600
      3          6           0        1.277500   -0.678700    0.000100
      4          6           0       -1.277500   -0.678700    0.000100
      5          1           0       -0.924600    2.029900    0.000500
      6          1           0        0.924600    2.029900    0.000500
      7          1           0        1.330700   -1.333700    0.879600
      8          1           0        2.161800   -0.036100   -0.000500
      9          1           0        1.330500   -1.335100   -0.878400
     10          1           0       -1.330700   -1.333700    0.879600
     11          1           0       -2.161800   -0.036100   -0.000500
     12          1           0       -1.330500   -1.335100   -0.878400
 ---------------------------------------------------------------------
                    Distance matrix (angstroms):
                    1          2          3          4          5
     1  C    0.000000
     2  C    1.336400   0.000000
     3  C    2.490678   1.508221   0.000000
     4  C    2.490678   1.508221   2.555000   0.000000
     5  H    1.086442   2.119234   3.490811   2.731493   0.000000
     6  H    1.086442   2.119234   2.731493   3.490811   1.849200
     7  H    3.216499   2.160437   1.097896   2.829355   4.144032
     8  H    2.628669   2.167647   1.093125   3.498817   3.714057
     9  H    3.217304   2.160282   1.097922   2.829185   4.145017
    10  H    3.216499   2.160437   2.829355   1.097896   3.500220
    11  H    2.628669   2.167647   3.498817   1.093125   2.408116
    12  H    3.217304   2.160282   2.829185   1.097922   3.501492
                    6          7          8          9         10
     6  H    0.000000
     7  H    3.500220   0.000000
     8  H    2.408116   1.774562   0.000000
     9  H    3.501492   1.758001   1.774590   0.000000
    10  H    4.144032   2.661400   3.828302   3.189444   0.000000
    11  H    3.714057   3.828302   4.323600   3.828089   1.774562
    12  H    4.145017   3.189444   3.828089   2.661000   1.758001
                   11         12
    11  H    0.000000
    12  H    1.774590   0.000000
 Stoichiometry    C4H8
 Framework group  CS[SG(C2),X(C2H8)]
 Deg. of freedom    16
 Full point group                 CS      NOp   2
 Largest Abelian subgroup         CS      NOp   2
 Largest concise Abelian subgroup CS      NOp   2
                         Standard orientation:                         
 ---------------------------------------------------------------------
 Center     Atomic      Atomic             Coordinates (Angstroms)
 Number     Number       Type             X           Y           Z
 ---------------------------------------------------------------------
      1          6           0       -0.001274    1.459399    0.000000
      2          6           0        0.000493    0.123000    0.000000
      3          6           0        0.000493   -0.678700    1.277500
      4          6           0        0.000493   -0.678700   -1.277500
      5          1           0       -0.002272    2.029899   -0.924600
      6          1           0       -0.002272    2.029899    0.924600
      7          1           0       -0.878435   -1.334468    1.330700
      8          1           0        0.000532   -0.036100    2.161800
      9          1           0        0.879565   -1.334333    1.330500
     10          1           0       -0.878435   -1.334468   -1.330700
     11          1           0        0.000532   -0.036100   -2.161800
     12          1           0        0.879565   -1.334333   -1.330500
 ---------------------------------------------------------------------
 Rotational constants (GHZ):      9.1282931      8.3446338      4.6070086
 Leave Link  202 at Fri Jul 23 04:53:47 2021, MaxMem= 17179869184 cpu:         2.1
 (Enter /vol2/users/liuj201281/hxd_yi/bin/Gaussian/g09/l301.exe)
 Standard basis: 6-31G(d,p) (6D, 7F)
 Ernie: Thresh=  0.10000D-02 Tol=  0.10000D-05 Strict=F.
 There are    57 symmetry adapted cartesian basis functions of A'  symmetry.
 There are    43 symmetry adapted cartesian basis functions of A"  symmetry.
 There are    57 symmetry adapted basis functions of A'  symmetry.
 There are    43 symmetry adapted basis functions of A"  symmetry.
   100 basis functions,   168 primitive gaussians,   100 cartesian basis functions
    16 alpha electrons       16 beta electrons
       nuclear repulsion energy       119.4339490084 Hartrees.
 IExCor=  402 DFT=T Ex+Corr=B3LYP ExCW=0 ScaHFX=  0.200000
 ScaDFX=  0.800000  0.720000  1.000000  0.810000 ScalE2=  1.000000  1.000000
 IRadAn=      0 IRanWt=     -1 IRanGd=            0 ICorTp=0 IEmpDi=  4
 NAtoms=   12 NActive=   12 NUniq=    7 SFac= 2.94D+00 NAtFMM=   60 NAOKFM=F Big=F
 Integral buffers will be    131072 words long.
 Raffenetti 2 integral format.
 Two-electron integral symmetry is turned on.
 Leave Link  301 at Fri Jul 23 04:53:47 2021, MaxMem= 17179869184 cpu:         8.0
 (Enter /vol2/users/liuj201281/hxd_yi/bin/Gaussian/g09/l302.exe)
 NPDir=0 NMtPBC=     1 NCelOv=     1 NCel=       1 NClECP=     1 NCelD=      1
         NCelK=      1 NCelE2=     1 NClLst=     1 CellRange=     0.0.
 One-electron integrals computed using PRISM.
 One-electron integral symmetry used in STVInt
 NBasis=   100 RedAO= T EigKep=  3.74D-03  NBF=    57    43
 NBsUse=   100 1.00D-06 EigRej= -1.00D+00 NBFU=    57    43
 Precomputing XC quadrature grid using
 IXCGrd= 4 IRadAn=           0 IRanWt=          -1 IRanGd=           0 AccXCQ= 0.00D+00.
 Generated NRdTot=       0 NPtTot=           0 NUsed=           0 NTot=          32
 NSgBfM=   100   100   100   100   100 MxSgAt=    12 MxSgA2=    12.
 Leave Link  302 at Fri Jul 23 04:53:47 2021, MaxMem= 17179869184 cpu:        45.5
 (Enter /vol2/users/liuj201281/hxd_yi/bin/Gaussian/g09/l303.exe)
 DipDrv:  MaxL=1.
 Leave Link  303 at Fri Jul 23 04:53:47 2021, MaxMem= 17179869184 cpu:         4.0
 (Enter /vol2/users/liuj201281/hxd_yi/bin/Gaussian/g09/l401.exe)
 ExpMin= 1.61D-01 ExpMax= 3.05D+03 ExpMxC= 4.57D+02 IAcc=1 IRadAn=         1 AccDes= 0.00D+00
 Harris functional with IExCor=  402 and IRadAn=       1 diagonalized for initial guess.
 HarFok:  IExCor=  402 AccDes= 0.00D+00 IRadAn=         1 IDoV= 1 UseB2=F ITyADJ=14
 ICtDFT=  3500011 ScaDFX=  1.000000  1.000000  1.000000  1.000000
 FoFCou: FMM=F IPFlag=           0 FMFlag=      100000 FMFlg1=           0
         NFxFlg=           0 DoJE=T BraDBF=F KetDBF=T FulRan=T
         wScrn=  0.000000 ICntrl=     500 IOpCl=  0 I1Cent=   200000004 NGrid=           0
         NMat0=    1 NMatS0=      1 NMatT0=    0 NMatD0=    1 NMtDS0=    0 NMtDT0=    0
 Petite list used in FoFCou.
 Harris En= -157.304406089252    
 JPrj=0 DoOrth=F DoCkMO=F.
 Initial guess orbital symmetries:
       Occupied  (A") (A') (A') (A') (A') (A") (A') (A') (A") (A')
                 (A') (A") (A') (A") (A") (A')
       Virtual   (A') (A') (A") (A') (A") (A') (A') (A") (A') (A")
                 (A") (A') (A') (A") (A') (A') (A") (A') (A') (A')
                 (A") (A') (A") (A') (A") (A') (A") (A") (A') (A')
                 (A") (A') (A') (A") (A') (A") (A') (A") (A") (A")
                 (A') (A') (A") (A') (A") (A') (A') (A") (A') (A')
                 (A") (A") (A") (A') (A') (A") (A') (A") (A') (A")
                 (A') (A') (A") (A') (A") (A') (A") (A") (A') (A')
                 (A") (A') (A') (A") (A') (A') (A") (A") (A') (A")
                 (A') (A') (A") (A')
 The electronic state of the initial guess is 1-A'.
 Leave Link  401 at Fri Jul 23 04:53:48 2021, MaxMem= 17179869184 cpu:        41.8
 (Enter /vol2/users/liuj201281/hxd_yi/bin/Gaussian/g09/l502.exe)
 Closed shell SCF:
 Using DIIS extrapolation, IDIIS=  1040.
 Integral symmetry usage will be decided dynamically.
 Keep R1 ints in memory in symmetry-blocked form, NReq=19210739.
 IVT=       62258 IEndB=       62258 NGot= 17179869184 MDV= 17173412321
 LenX= 17173412321 LenY= 17173401880
 Requested convergence on RMS density matrix=1.00D-08 within 128 cycles.
 Requested convergence on MAX density matrix=1.00D-06.
 Requested convergence on             energy=1.00D-06.
 No special actions if energy rises.
 FoFCou: FMM=F IPFlag=           0 FMFlag=           0 FMFlg1=           0
         NFxFlg=           0 DoJE=F BraDBF=F KetDBF=F FulRan=T
         wScrn=  0.000000 ICntrl=     600 IOpCl=  0 I1Cent=           0 NGrid=           0
         NMat0=    1 NMatS0=   5050 NMatT0=    0 NMatD0=    1 NMtDS0=    0 NMtDT0=    0
 Petite list used in FoFCou.
 Integral accuracy reduced to 1.0D-05 until final iterations.

 Cycle   1  Pass 0  IDiag  1:
 E= -157.056209839329    
 DIIS: error= 4.26D-02 at cycle   1 NSaved=   1.
 NSaved= 1 IEnMin= 1 EnMin= -157.056209839329     IErMin= 1 ErrMin= 4.26D-02
 ErrMax= 4.26D-02  0.00D+00 EMaxC= 1.00D-01 BMatC= 1.62D-01 BMatP= 1.62D-01
 IDIUse=3 WtCom= 5.74D-01 WtEn= 4.26D-01
 Coeff-Com:  0.100D+01
 Coeff-En:   0.100D+01
 Coeff:      0.100D+01
 Gap=     0.263 Goal=   None    Shift=    0.000
 GapD=    0.263 DampG=1.000 DampE=0.500 DampFc=0.5000 IDamp=-1.
 Damping current iteration by 5.00D-01
 RMSDP=8.99D-03 MaxDP=1.31D-01              OVMax= 1.75D-01

 Cycle   2  Pass 0  IDiag  1:
 E= -157.142419368464     Delta-E=       -0.086209529135 Rises=F Damp=T
 DIIS: error= 1.05D-02 at cycle   2 NSaved=   2.
 NSaved= 2 IEnMin= 2 EnMin= -157.142419368464     IErMin= 2 ErrMin= 1.05D-02
 ErrMax= 1.05D-02  0.00D+00 EMaxC= 1.00D-01 BMatC= 4.91D-03 BMatP= 1.62D-01
 IDIUse=3 WtCom= 8.95D-01 WtEn= 1.05D-01
 Coeff-Com:  0.386D-01 0.961D+00
 Coeff-En:   0.600D-01 0.940D+00
 Coeff:      0.409D-01 0.959D+00
 Gap=     0.273 Goal=   None    Shift=    0.000
 RMSDP=1.59D-03 MaxDP=1.90D-02 DE=-8.62D-02 OVMax= 9.58D-02

 Cycle   3  Pass 0  IDiag  1:
 E= -157.238566879467     Delta-E=       -0.096147511003 Rises=F Damp=F
 DIIS: error= 1.91D-03 at cycle   3 NSaved=   3.
 NSaved= 3 IEnMin= 3 EnMin= -157.238566879467     IErMin= 3 ErrMin= 1.91D-03
 ErrMax= 1.91D-03  0.00D+00 EMaxC= 1.00D-01 BMatC= 2.10D-04 BMatP= 4.91D-03
 IDIUse=3 WtCom= 9.81D-01 WtEn= 1.91D-02
 Coeff-Com: -0.729D-02 0.100D+00 0.907D+00
 Coeff-En:   0.000D+00 0.000D+00 0.100D+01
 Coeff:     -0.715D-02 0.981D-01 0.909D+00
 Gap=     0.270 Goal=   None    Shift=    0.000
 RMSDP=3.16D-04 MaxDP=4.87D-03 DE=-9.61D-02 OVMax= 8.04D-03

 Cycle   4  Pass 0  IDiag  1:
 E= -157.238610035662     Delta-E=       -0.000043156194 Rises=F Damp=F
 DIIS: error= 2.08D-03 at cycle   4 NSaved=   4.
 NSaved= 4 IEnMin= 4 EnMin= -157.238610035662     IErMin= 3 ErrMin= 1.91D-03
 ErrMax= 2.08D-03  0.00D+00 EMaxC= 1.00D-01 BMatC= 1.82D-04 BMatP= 2.10D-04
 IDIUse=3 WtCom= 9.79D-01 WtEn= 2.08D-02
 Coeff-Com: -0.427D-02 0.328D-01 0.502D+00 0.470D+00
 Coeff-En:   0.000D+00 0.000D+00 0.444D+00 0.556D+00
 Coeff:     -0.418D-02 0.321D-01 0.501D+00 0.471D+00
 Gap=     0.270 Goal=   None    Shift=    0.000
 RMSDP=1.50D-04 MaxDP=4.63D-03 DE=-4.32D-05 OVMax= 8.83D-03

 Cycle   5  Pass 0  IDiag  1:
 E= -157.238773601198     Delta-E=       -0.000163565537 Rises=F Damp=F
 DIIS: error= 5.96D-04 at cycle   5 NSaved=   5.
 NSaved= 5 IEnMin= 5 EnMin= -157.238773601198     IErMin= 5 ErrMin= 5.96D-04
 ErrMax= 5.96D-04  0.00D+00 EMaxC= 1.00D-01 BMatC= 1.94D-05 BMatP= 1.82D-04
 IDIUse=3 WtCom= 9.94D-01 WtEn= 5.96D-03
 Coeff-Com: -0.753D-03 0.186D-02 0.151D+00 0.274D+00 0.574D+00
 Coeff-En:   0.000D+00 0.000D+00 0.000D+00 0.828D-01 0.917D+00
 Coeff:     -0.748D-03 0.185D-02 0.151D+00 0.273D+00 0.576D+00
 Gap=     0.270 Goal=   None    Shift=    0.000
 RMSDP=4.51D-05 MaxDP=1.31D-03 DE=-1.64D-04 OVMax= 2.88D-03

 Cycle   6  Pass 0  IDiag  1:
 E= -157.238793109404     Delta-E=       -0.000019508206 Rises=F Damp=F
 DIIS: error= 8.88D-05 at cycle   6 NSaved=   6.
 NSaved= 6 IEnMin= 6 EnMin= -157.238793109404     IErMin= 6 ErrMin= 8.88D-05
 ErrMax= 8.88D-05  0.00D+00 EMaxC= 1.00D-01 BMatC= 7.58D-07 BMatP= 1.94D-05
 IDIUse=1 WtCom= 1.00D+00 WtEn= 0.00D+00
 Coeff-Com: -0.159D-03-0.563D-03 0.601D-01 0.122D+00 0.296D+00 0.523D+00
 Coeff:     -0.159D-03-0.563D-03 0.601D-01 0.122D+00 0.296D+00 0.523D+00
 Gap=     0.270 Goal=   None    Shift=    0.000
 RMSDP=8.70D-06 MaxDP=2.04D-04 DE=-1.95D-05 OVMax= 3.35D-04

 Initial convergence to 1.0D-05 achieved.  Increase integral accuracy.
 Cycle   7  Pass 1  IDiag  1:
 E= -157.238836858236     Delta-E=       -0.000043748831 Rises=F Damp=F
 DIIS: error= 1.24D-05 at cycle   1 NSaved=   1.
 NSaved= 1 IEnMin= 1 EnMin= -157.238836858236     IErMin= 1 ErrMin= 1.24D-05
 ErrMax= 1.24D-05  0.00D+00 EMaxC= 1.00D-01 BMatC= 1.80D-08 BMatP= 1.80D-08
 IDIUse=1 WtCom= 1.00D+00 WtEn= 0.00D+00
 Coeff-Com:  0.100D+01
 Coeff:      0.100D+01
 Gap=     0.270 Goal=   None    Shift=    0.000
 RMSDP=8.70D-06 MaxDP=2.04D-04 DE=-4.37D-05 OVMax= 5.87D-05

 Cycle   8  Pass 1  IDiag  1:
 E= -157.238836870788     Delta-E=       -0.000000012552 Rises=F Damp=F
 DIIS: error= 1.25D-05 at cycle   2 NSaved=   2.
 NSaved= 2 IEnMin= 2 EnMin= -157.238836870788     IErMin= 1 ErrMin= 1.24D-05
 ErrMax= 1.25D-05  0.00D+00 EMaxC= 1.00D-01 BMatC= 1.14D-08 BMatP= 1.80D-08
 IDIUse=1 WtCom= 1.00D+00 WtEn= 0.00D+00
 Coeff-Com:  0.431D+00 0.569D+00
 Coeff:      0.431D+00 0.569D+00
 Gap=     0.270 Goal=   None    Shift=    0.000
 RMSDP=1.41D-06 MaxDP=3.64D-05 DE=-1.26D-08 OVMax= 5.99D-05

 Cycle   9  Pass 1  IDiag  1:
 E= -157.238836880908     Delta-E=       -0.000000010120 Rises=F Damp=F
 DIIS: error= 4.70D-06 at cycle   3 NSaved=   3.
 NSaved= 3 IEnMin= 3 EnMin= -157.238836880908     IErMin= 3 ErrMin= 4.70D-06
 ErrMax= 4.70D-06  0.00D+00 EMaxC= 1.00D-01 BMatC= 1.67D-09 BMatP= 1.14D-08
 IDIUse=1 WtCom= 1.00D+00 WtEn= 0.00D+00
 Coeff-Com:  0.354D-01 0.274D+00 0.691D+00
 Coeff:      0.354D-01 0.274D+00 0.691D+00
 Gap=     0.270 Goal=   None    Shift=    0.000
 RMSDP=5.22D-07 MaxDP=1.46D-05 DE=-1.01D-08 OVMax= 3.20D-05

 Cycle  10  Pass 1  IDiag  1:
 E= -157.238836882160     Delta-E=       -0.000000001253 Rises=F Damp=F
 DIIS: error= 3.31D-06 at cycle   4 NSaved=   4.
 NSaved= 4 IEnMin= 4 EnMin= -157.238836882160     IErMin= 4 ErrMin= 3.31D-06
 ErrMax= 3.31D-06  0.00D+00 EMaxC= 1.00D-01 BMatC= 5.33D-10 BMatP= 1.67D-09
 IDIUse=1 WtCom= 1.00D+00 WtEn= 0.00D+00
 Coeff-Com: -0.127D-01 0.129D+00 0.453D+00 0.431D+00
 Coeff:     -0.127D-01 0.129D+00 0.453D+00 0.431D+00
 Gap=     0.270 Goal=   None    Shift=    0.000
 RMSDP=2.14D-07 MaxDP=6.53D-06 DE=-1.25D-09 OVMax= 1.23D-05

 Cycle  11  Pass 1  IDiag  1:
 E= -157.238836882707     Delta-E=       -0.000000000546 Rises=F Damp=F
 DIIS: error= 2.06D-07 at cycle   5 NSaved=   5.
 NSaved= 5 IEnMin= 5 EnMin= -157.238836882707     IErMin= 5 ErrMin= 2.06D-07
 ErrMax= 2.06D-07  0.00D+00 EMaxC= 1.00D-01 BMatC= 3.21D-12 BMatP= 5.33D-10
 IDIUse=1 WtCom= 1.00D+00 WtEn= 0.00D+00
 Coeff-Com: -0.647D-02 0.289D-01 0.116D+00 0.136D+00 0.725D+00
 Coeff:     -0.647D-02 0.289D-01 0.116D+00 0.136D+00 0.725D+00
 Gap=     0.270 Goal=   None    Shift=    0.000
 RMSDP=2.01D-08 MaxDP=3.09D-07 DE=-5.46D-10 OVMax= 4.19D-07

 Cycle  12  Pass 1  IDiag  1:
 E= -157.238836882708     Delta-E=       -0.000000000002 Rises=F Damp=F
 DIIS: error= 2.06D-08 at cycle   6 NSaved=   6.
 NSaved= 6 IEnMin= 6 EnMin= -157.238836882708     IErMin= 6 ErrMin= 2.06D-08
 ErrMax= 2.06D-08  0.00D+00 EMaxC= 1.00D-01 BMatC= 6.64D-14 BMatP= 3.21D-12
 IDIUse=1 WtCom= 1.00D+00 WtEn= 0.00D+00
 Coeff-Com: -0.803D-03 0.211D-02 0.761D-02 0.132D-01 0.142D+00 0.836D+00
 Coeff:     -0.803D-03 0.211D-02 0.761D-02 0.132D-01 0.142D+00 0.836D+00
 Gap=     0.270 Goal=   None    Shift=    0.000
 RMSDP=3.43D-09 MaxDP=5.59D-08 DE=-1.59D-12 OVMax= 8.49D-08

 SCF Done:  E(RB3LYP) =  -157.238836883     A.U. after   12 cycles
            NFock= 12  Conv=0.34D-08     -V/T= 2.0104
 KE= 1.556251162761D+02 PE=-6.018241028305D+02 EE= 1.695262006633D+02
 Leave Link  502 at Fri Jul 23 04:53:49 2021, MaxMem= 17179869184 cpu:       127.5
 (Enter /vol2/users/liuj201281/hxd_yi/bin/Gaussian/g09/l601.exe)
 Copying SCF densities to generalized density rwf, IOpCl= 0 IROHF=0.

 **********************************************************************

            Population analysis using the SCF density.

 **********************************************************************

 Orbital symmetries:
       Occupied  (A') (A") (A') (A') (A') (A") (A') (A') (A") (A')
                 (A') (A") (A") (A') (A") (A')
       Virtual   (A') (A') (A') (A") (A") (A') (A') (A") (A") (A')
                 (A") (A') (A') (A") (A') (A') (A") (A') (A') (A')
                 (A') (A") (A") (A') (A") (A') (A") (A") (A') (A')
                 (A") (A') (A') (A") (A') (A") (A') (A") (A") (A")
                 (A') (A') (A") (A') (A") (A') (A') (A") (A') (A')
                 (A") (A") (A") (A') (A') (A") (A') (A') (A") (A")
                 (A') (A') (A") (A') (A") (A') (A") (A") (A') (A')
                 (A") (A') (A') (A") (A') (A') (A") (A") (A') (A")
                 (A') (A') (A") (A')
 The electronic state is 1-A'.
 Alpha  occ. eigenvalues --  -10.19183 -10.17827 -10.17826 -10.16578  -0.80004
 Alpha  occ. eigenvalues --   -0.68915  -0.67433  -0.51962  -0.44719  -0.43873
 Alpha  occ. eigenvalues --   -0.42678  -0.38235  -0.36699  -0.36048  -0.33437
 Alpha  occ. eigenvalues --   -0.23957
 Alpha virt. eigenvalues --    0.03063   0.09679   0.13947   0.15151   0.15663
 Alpha virt. eigenvalues --    0.17497   0.17639   0.18689   0.22014   0.22762
 Alpha virt. eigenvalues --    0.31198   0.37825   0.50862   0.52414   0.52536
 Alpha virt. eigenvalues --    0.56142   0.57588   0.62600   0.66422   0.68571
 Alpha virt. eigenvalues --    0.72644   0.73265   0.76708   0.81543   0.83218
 Alpha virt. eigenvalues --    0.84814   0.87359   0.88444   0.90949   0.92553
 Alpha virt. eigenvalues --    0.95414   0.95578   1.14236   1.22698   1.23634
 Alpha virt. eigenvalues --    1.31305   1.31953   1.43990   1.47836   1.70434
 Alpha virt. eigenvalues --    1.72953   1.77717   1.80543   1.83085   1.85026
 Alpha virt. eigenvalues --    1.96019   2.01298   2.04427   2.04877   2.07257
 Alpha virt. eigenvalues --    2.08710   2.11275   2.12532   2.15982   2.16490
 Alpha virt. eigenvalues --    2.28697   2.30072   2.38181   2.38559   2.48127
 Alpha virt. eigenvalues --    2.50465   2.55651   2.62003   2.65628   2.68012
 Alpha virt. eigenvalues --    2.71813   2.78727   2.83313   2.89179   2.90207
 Alpha virt. eigenvalues --    2.96775   3.04010   3.16719   3.21462   3.35518
 Alpha virt. eigenvalues --    3.40724   3.42866   3.44825   3.50892   3.60834
 Alpha virt. eigenvalues --    4.16578   4.34945   4.49557   4.62860
          Condensed to atoms (all electrons):
               1          2          3          4          5          6
     1  C    4.947824   0.702561  -0.048290  -0.048290   0.369865   0.369865
     2  C    0.702561   4.584685   0.390041   0.390041  -0.024973  -0.024973
     3  C   -0.048290   0.390041   4.982723  -0.078220   0.006665  -0.014151
     4  C   -0.048290   0.390041  -0.078220   4.982723  -0.014151   0.006665
     5  H    0.369865  -0.024973   0.006665  -0.014151   0.618641  -0.047442
     6  H    0.369865  -0.024973  -0.014151   0.006665  -0.047442   0.618641
     7  H    0.000013  -0.033168   0.373417  -0.002164  -0.000208   0.000207
     8  H   -0.007245  -0.025779   0.374523   0.005010  -0.000014   0.006372
     9  H    0.000053  -0.033177   0.373349  -0.002178  -0.000208   0.000207
    10  H    0.000013  -0.033168  -0.002164   0.373417   0.000207  -0.000208
    11  H   -0.007245  -0.025779   0.005010   0.374523   0.006372  -0.000014
    12  H    0.000053  -0.033177  -0.002178   0.373349   0.000207  -0.000208
               7          8          9         10         11         12
     1  C    0.000013  -0.007245   0.000053   0.000013  -0.007245   0.000053
     2  C   -0.033168  -0.025779  -0.033177  -0.033168  -0.025779  -0.033177
     3  C    0.373417   0.374523   0.373349  -0.002164   0.005010  -0.002178
     4  C   -0.002164   0.005010  -0.002178   0.373417   0.374523   0.373349
     5  H   -0.000208  -0.000014  -0.000208   0.000207   0.006372   0.000207
     6  H    0.000207   0.006372   0.000207  -0.000208  -0.000014  -0.000208
     7  H    0.614172  -0.029102  -0.038221   0.004421  -0.000046  -0.000851
     8  H   -0.029102   0.596784  -0.029107  -0.000046  -0.000199  -0.000046
     9  H   -0.038221  -0.029107   0.614291  -0.000851  -0.000046   0.004429
    10  H    0.004421  -0.000046  -0.000851   0.614172  -0.029102  -0.038221
    11  H   -0.000046  -0.000199  -0.000046  -0.029102   0.596784  -0.029107
    12  H   -0.000851  -0.000046   0.004429  -0.038221  -0.029107   0.614291
 Mulliken charges:
               1
     1  C   -0.279178
     2  C    0.166866
     3  C   -0.360725
     4  C   -0.360725
     5  H    0.085039
     6  H    0.085039
     7  H    0.111531
     8  H    0.108850
     9  H    0.111461
    10  H    0.111531
    11  H    0.108850
    12  H    0.111461
 Sum of Mulliken charges =   0.00000
 Mulliken charges with hydrogens summed into heavy atoms:
               1
     1  C   -0.109099
     2  C    0.166866
     3  C   -0.028883
     4  C   -0.028883
 Electronic spatial extent (au):  <R**2>=            325.0174
 Charge=              0.0000 electrons
 Dipole moment (field-independent basis, Debye):
    X=             -0.0008    Y=             -0.5258    Z=              0.0000  Tot=              0.5258
 Quadrupole moment (field-independent basis, Debye-Ang):
   XX=            -27.6406   YY=            -25.8835   ZZ=            -25.4282
   XY=             -0.0025   XZ=              0.0000   YZ=              0.0000
 Traceless Quadrupole moment (field-independent basis, Debye-Ang):
   XX=             -1.3232   YY=              0.4340   ZZ=              0.8892
   XY=             -0.0025   XZ=              0.0000   YZ=              0.0000
 Octapole moment (field-independent basis, Debye-Ang**2):
  XXX=              0.0028  YYY=              0.5987  ZZZ=              0.0000  XYY=             -0.0095
  XXY=             -2.9974  XXZ=              0.0000  XZZ=             -0.0035  YZZ=              1.9238
  YYZ=              0.0000  XYZ=              0.0000
 Hexadecapole moment (field-independent basis, Debye-Ang**3):
 XXXX=            -42.2343 YYYY=           -191.0335 ZZZZ=           -208.8141 XXXY=              0.0693
 XXXZ=              0.0000 YYYX=              0.0517 YYYZ=              0.0000 ZZZX=              0.0000
 ZZZY=              0.0000 XXYY=            -39.4935 XXZZ=            -42.9448 YYZZ=            -65.1158
 XXYZ=              0.0000 YYXZ=              0.0000 ZZXY=              0.0215
 N-N= 1.194339490084D+02 E-N=-6.018241005840D+02  KE= 1.556251162761D+02
 Symmetry A'   KE= 1.124157329521D+02
 Symmetry A"   KE= 4.320938332403D+01
 No NMR shielding tensors so no spin-rotation constants.
 Leave Link  601 at Fri Jul 23 04:53:49 2021, MaxMem= 17179869184 cpu:        35.9
 (Enter /vol2/users/liuj201281/hxd_yi/bin/Gaussian/g09/l701.exe)
 Compute integral first derivatives.
 ... and contract with generalized density number  0.
 Leave Link  701 at Fri Jul 23 04:53:50 2021, MaxMem= 17179869184 cpu:        53.5
 (Enter /vol2/users/liuj201281/hxd_yi/bin/Gaussian/g09/l702.exe)
 L702 exits ... SP integral derivatives will be done elsewhere.
 Leave Link  702 at Fri Jul 23 04:53:56 2021, MaxMem= 17179869184 cpu:         2.6
 (Enter /vol2/users/liuj201281/hxd_yi/bin/Gaussian/g09/l703.exe)
 Compute integral first derivatives, UseDBF=F ICtDFT=           0.
 Integral derivatives from FoFJK, PRISM(SPDF).
 Calling FoFJK, ICntrl=      2127 FMM=F ISym2X=1 I1Cent= 0 IOpClX= 0 NMat=1 NMatS=1 NMatT=0.
 FoFJK:  IHMeth= 1 ICntrl=    2127 DoSepK=F KAlg= 0 I1Cent=   0 FoldK=F
 IRaf=         0 NMat=   1 IRICut=       1 DoRegI=T DoRafI=F ISym2E= 1.
 FoFCou: FMM=F IPFlag=           0 FMFlag=      100000 FMFlg1=         800
         NFxFlg=           0 DoJE=F BraDBF=F KetDBF=F FulRan=T
         wScrn=  0.000000 ICntrl=    2127 IOpCl=  0 I1Cent=           0 NGrid=           0
         NMat0=    1 NMatS0=      1 NMatT0=    0 NMatD0=    1 NMtDS0=    0 NMtDT0=    0
 Petite list used in FoFCou.
 Leave Link  703 at Fri Jul 23 04:53:57 2021, MaxMem= 17179869184 cpu:       110.4
 (Enter /vol2/users/liuj201281/hxd_yi/bin/Gaussian/g09/l716.exe)
 Dipole        =-3.29096771D-04-2.06864564D-01-1.77635684D-15
 ***** Axes restored to original set *****
 -------------------------------------------------------------------
 Center     Atomic                   Forces (Hartrees/Bohr)
 Number     Number              X              Y              Z
 -------------------------------------------------------------------
      1        6           0.000000000   -0.000030338   -0.000002369
      2        6           0.000000000    0.000037487    0.000164485
      3        6          -0.000007874   -0.000062321   -0.000079937
      4        6           0.000007874   -0.000062321   -0.000079937
      5        1          -0.000019927   -0.000000626   -0.000018070
      6        1           0.000019927   -0.000000626   -0.000018070
      7        1          -0.000008307    0.000043404   -0.000002812
      8        1          -0.000006470   -0.000023762    0.000000521
      9        1           0.000022012    0.000039729    0.000019241
     10        1           0.000008307    0.000043404   -0.000002812
     11        1           0.000006470   -0.000023762    0.000000521
     12        1          -0.000022012    0.000039729    0.000019241
 -------------------------------------------------------------------
 Cartesian Forces:  Max     0.000164485 RMS     0.000041335
 Leave Link  716 at Fri Jul 23 04:53:57 2021, MaxMem= 17179869184 cpu:         4.2
 (Enter /vol2/users/liuj201281/hxd_yi/bin/Gaussian/g09/l103.exe)

 GradGradGradGradGradGradGradGradGradGradGradGradGradGradGradGradGradGrad
 Berny optimization.
 FormGI is forming the generalized inverse of G from B-inverse, IUseBI=4.
 Internal  Forces:  Max     0.000038117 RMS     0.000020596
 Search for a local minimum.
 Step number   1 out of a maximum of   55
 All quantities printed in internal units (Hartrees-Bohrs-Radians)
 RMS Force = .20596D-04 SwitMx=.10000D-02 MixMth= 2
 Mixed Optimization -- En-DIIS/RFO-DIIS
 Second derivative matrix not updated -- first step.
 ITU=  0
     Eigenvalues ---    0.00657   0.00657   0.01279   0.02930   0.02930
     Eigenvalues ---    0.07008   0.07008   0.07217   0.07217   0.16000
     Eigenvalues ---    0.16000   0.16000   0.16000   0.16000   0.16000
     Eigenvalues ---    0.16000   0.16000   0.25000   0.25000   0.31530
     Eigenvalues ---    0.31530   0.33913   0.33913   0.33916   0.33916
     Eigenvalues ---    0.34454   0.34454   0.35227   0.35227   0.58019
 RFO step:  Lambda=-3.55691349D-07 EMin= 6.57203556D-03
 Linear search not attempted -- first point.
 Iteration  1 RMS(Cart)=  0.00044484 RMS(Int)=  0.00000030
 Iteration  2 RMS(Cart)=  0.00000041 RMS(Int)=  0.00000018
 ITry= 1 IFail=0 DXMaxC= 1.99D-03 DCOld= 1.00D+10 DXMaxT= 3.00D-01 DXLimC= 3.00D+00 Rises=F
 ClnCor:  largest displacement from symmetrization is 1.66D-11 for atom     6.
 Variable       Old X    -DE/DX   Delta X   Delta X   Delta X     New X
                                 (Linear)    (Quad)   (Total)
    R1        2.52543  -0.00003   0.00000  -0.00005  -0.00005   2.52538
    R2        2.05308   0.00002   0.00000   0.00005   0.00005   2.05312
    R3        2.05308   0.00002   0.00000   0.00005   0.00005   2.05312
    R4        2.85012   0.00000   0.00000   0.00000   0.00000   2.85013
    R5        2.85012   0.00000   0.00000   0.00000   0.00000   2.85013
    R6        2.07472  -0.00003   0.00000  -0.00008  -0.00008   2.07464
    R7        2.06571  -0.00002   0.00000  -0.00006  -0.00006   2.06565
    R8        2.07477  -0.00004   0.00000  -0.00011  -0.00011   2.07466
    R9        2.07472  -0.00003   0.00000  -0.00008  -0.00008   2.07464
   R10        2.06571  -0.00002   0.00000  -0.00006  -0.00006   2.06565
   R11        2.07477  -0.00004   0.00000  -0.00011  -0.00011   2.07466
    A1        2.12364  -0.00001   0.00000  -0.00005  -0.00005   2.12359
    A2        2.12364  -0.00001   0.00000  -0.00005  -0.00005   2.12359
    A3        2.03591   0.00002   0.00000   0.00009   0.00009   2.03600
    A4        2.13123   0.00000   0.00000   0.00002   0.00002   2.13125
    A5        2.13123   0.00000   0.00000   0.00002   0.00002   2.13125
    A6        2.02072  -0.00001   0.00000  -0.00004  -0.00004   2.02069
    A7        1.93750  -0.00004   0.00000  -0.00022  -0.00022   1.93728
    A8        1.95275   0.00002   0.00000   0.00004   0.00004   1.95280
    A9        1.93725   0.00002   0.00000   0.00021   0.00021   1.93746
   A10        1.88804  -0.00001   0.00000  -0.00014  -0.00014   1.88791
   A11        1.85664   0.00002   0.00000   0.00026   0.00026   1.85690
   A12        1.88806  -0.00002   0.00000  -0.00015  -0.00015   1.88790
   A13        1.93750  -0.00004   0.00000  -0.00022  -0.00022   1.93728
   A14        1.95275   0.00002   0.00000   0.00004   0.00004   1.95280
   A15        1.93725   0.00002   0.00000   0.00021   0.00021   1.93746
   A16        1.88804  -0.00001   0.00000  -0.00014  -0.00014   1.88791
   A17        1.85664   0.00002   0.00000   0.00026   0.00026   1.85690
   A18        1.88806  -0.00002   0.00000  -0.00015  -0.00015   1.88790
    D1       -3.14050  -0.00003   0.00000  -0.00166  -0.00166   3.14103
    D2       -0.00057   0.00000   0.00000   0.00057   0.00057   0.00000
    D3        0.00057   0.00000   0.00000  -0.00057  -0.00057   0.00000
    D4        3.14050   0.00003   0.00000   0.00166   0.00166  -3.14103
    D5        2.10950   0.00000   0.00000   0.00099   0.00099   2.11049
    D6       -0.00160   0.00002   0.00000   0.00128   0.00128  -0.00031
    D7       -2.11254   0.00002   0.00000   0.00131   0.00131  -2.11124
    D8       -1.03053  -0.00003   0.00000  -0.00111  -0.00111  -1.03164
    D9        3.14155  -0.00001   0.00000  -0.00081  -0.00081   3.14074
   D10        1.03061   0.00000   0.00000  -0.00079  -0.00079   1.02982
   D11       -2.10950   0.00000   0.00000  -0.00099  -0.00099  -2.11049
   D12        0.00160  -0.00002   0.00000  -0.00128  -0.00128   0.00031
   D13        2.11254  -0.00002   0.00000  -0.00131  -0.00131   2.11124
   D14        1.03053   0.00003   0.00000   0.00111   0.00111   1.03164
   D15       -3.14155   0.00001   0.00000   0.00081   0.00081  -3.14074
   D16       -1.03061   0.00000   0.00000   0.00079   0.00079  -1.02982
         Item               Value     Threshold  Converged?
 Maximum Force            0.000038     0.000450     YES
 RMS     Force            0.000021     0.000300     YES
 Maximum Displacement     0.001988     0.001800     NO 
 RMS     Displacement     0.000445     0.001200     YES
 Predicted change in Energy=-1.778419D-07
 Lowest energy point so far.  Saving SCF results.
 GradGradGradGradGradGradGradGradGradGradGradGradGradGradGradGradGradGrad

 Leave Link  103 at Fri Jul 23 04:53:57 2021, MaxMem= 17179869184 cpu:        13.8
 (Enter /vol2/users/liuj201281/hxd_yi/bin/Gaussian/g09/l202.exe)
                          Input orientation:                          
 ---------------------------------------------------------------------
 Center     Atomic      Atomic             Coordinates (Angstroms)
 Number     Number       Type             X           Y           Z
 ---------------------------------------------------------------------
      1          6           0        0.000000    1.459363    0.000296
      2          6           0        0.000000    0.122991    0.000452
      3          6           0        1.277486   -0.678734    0.000183
      4          6           0       -1.277486   -0.678734    0.000183
      5          1           0       -0.924648    2.029833   -0.000029
      6          1           0        0.924648    2.029833   -0.000029
      7          1           0        1.330976   -1.333867    0.879511
      8          1           0        2.161802   -0.036207   -0.000462
      9          1           0        1.330303   -1.334701   -0.878577
     10          1           0       -1.330976   -1.333867    0.879511
     11          1           0       -2.161802   -0.036207   -0.000462
     12          1           0       -1.330303   -1.334701   -0.878577
 ---------------------------------------------------------------------
                    Distance matrix (angstroms):
                    1          2          3          4          5
     1  C    0.000000
     2  C    1.336371   0.000000
     3  C    2.490669   1.508222   0.000000
     4  C    2.490669   1.508222   2.554972   0.000000
     5  H    1.086467   2.119202   3.490806   2.731452   0.000000
     6  H    1.086467   2.119202   2.731452   3.490806   1.849296
     7  H    3.216621   2.160250   1.097851   2.829574   4.144382
     8  H    2.628710   2.167656   1.093095   3.498792   3.714121
     9  H    3.216973   2.160386   1.097862   2.828971   4.144483
    10  H    3.216621   2.160250   2.829574   1.097851   3.500452
    11  H    2.628710   2.167656   3.498792   1.093095   2.408126
    12  H    3.216973   2.160386   2.828971   1.097862   3.500927
                    6          7          8          9         10
     6  H    0.000000
     7  H    3.500452   0.000000
     8  H    2.408126   1.774414   0.000000
     9  H    3.500927   1.758089   1.774419   0.000000
    10  H    4.144382   2.661952   3.828547   3.189558   0.000000
    11  H    3.714121   3.828547   4.323604   3.827789   1.774414
    12  H    4.144483   3.189558   3.827789   2.660606   1.758089
                   11         12
    11  H    0.000000
    12  H    1.774419   0.000000
 Stoichiometry    C4H8
 Framework group  CS[SG(C2),X(C2H8)]
 Deg. of freedom    16
 Full point group                 CS      NOp   2
 RotChk:  IX=0 Diff= 1.71D-03
 Largest Abelian subgroup         CS      NOp   2
 Largest concise Abelian subgroup CS      NOp   2
                         Standard orientation:                         
 ---------------------------------------------------------------------
 Center     Atomic      Atomic             Coordinates (Angstroms)
 Number     Number       Type             X           Y           Z
 ---------------------------------------------------------------------
      1          6           0        0.000430    1.459381    0.000000
      2          6           0       -0.000174    0.123009    0.000000
      3          6           0       -0.000174   -0.678716    1.277486
      4          6           0       -0.000174   -0.678716   -1.277486
      5          1           0        0.000947    2.029850   -0.924648
      6          1           0        0.000947    2.029850    0.924648
      7          1           0       -0.879722   -1.333554    1.330976
      8          1           0        0.000687   -0.036189    2.161802
      9          1           0        0.878366   -1.334978    1.330303
     10          1           0       -0.879722   -1.333554   -1.330976
     11          1           0        0.000687   -0.036189   -2.161802
     12          1           0        0.878366   -1.334978   -1.330303
 ---------------------------------------------------------------------
 Rotational constants (GHZ):      9.1285611      8.3446246      4.6070999
 Leave Link  202 at Fri Jul 23 04:53:58 2021, MaxMem= 17179869184 cpu:         1.7
 (Enter /vol2/users/liuj201281/hxd_yi/bin/Gaussian/g09/l301.exe)
 Standard basis: 6-31G(d,p) (6D, 7F)
 Ernie: Thresh=  0.10000D-02 Tol=  0.10000D-05 Strict=F.
 There are    57 symmetry adapted cartesian basis functions of A'  symmetry.
 There are    43 symmetry adapted cartesian basis functions of A"  symmetry.
 There are    57 symmetry adapted basis functions of A'  symmetry.
 There are    43 symmetry adapted basis functions of A"  symmetry.
   100 basis functions,   168 primitive gaussians,   100 cartesian basis functions
    16 alpha electrons       16 beta electrons
       nuclear repulsion energy       119.4352991087 Hartrees.
 IExCor=  402 DFT=T Ex+Corr=B3LYP ExCW=0 ScaHFX=  0.200000
 ScaDFX=  0.800000  0.720000  1.000000  0.810000 ScalE2=  1.000000  1.000000
 IRadAn=      0 IRanWt=     -1 IRanGd=            0 ICorTp=0 IEmpDi=  4
 NAtoms=   12 NActive=   12 NUniq=    7 SFac= 2.94D+00 NAtFMM=   60 NAOKFM=F Big=F
 Integral buffers will be    131072 words long.
 Raffenetti 2 integral format.
 Two-electron integral symmetry is turned on.
 Leave Link  301 at Fri Jul 23 04:53:58 2021, MaxMem= 17179869184 cpu:         6.1
 (Enter /vol2/users/liuj201281/hxd_yi/bin/Gaussian/g09/l302.exe)
 NPDir=0 NMtPBC=     1 NCelOv=     1 NCel=       1 NClECP=     1 NCelD=      1
         NCelK=      1 NCelE2=     1 NClLst=     1 CellRange=     0.0.
 One-electron integrals computed using PRISM.
 One-electron integral symmetry used in STVInt
 NBasis=   100 RedAO= T EigKep=  3.74D-03  NBF=    57    43
 NBsUse=   100 1.00D-06 EigRej= -1.00D+00 NBFU=    57    43
 Precomputing XC quadrature grid using
 IXCGrd= 4 IRadAn=           0 IRanWt=          -1 IRanGd=           0 AccXCQ= 0.00D+00.
 Generated NRdTot=       0 NPtTot=           0 NUsed=           0 NTot=          32
 NSgBfM=   100   100   100   100   100 MxSgAt=    12 MxSgA2=    12.
 Leave Link  302 at Fri Jul 23 04:53:58 2021, MaxMem= 17179869184 cpu:        45.6
 (Enter /vol2/users/liuj201281/hxd_yi/bin/Gaussian/g09/l303.exe)
 DipDrv:  MaxL=1.
 Leave Link  303 at Fri Jul 23 04:53:58 2021, MaxMem= 17179869184 cpu:         3.9
 (Enter /vol2/users/liuj201281/hxd_yi/bin/Gaussian/g09/l401.exe)
 Initial guess from the checkpoint file:  "/vol2/users/liuj201281/HOFBenchmark/IsodesmicSplit/Sample60/Ring26/Running/Gau-490148.chk"
 B after Tr=     0.000000    0.000000    0.000000
         Rot=    1.000000    0.000000    0.000000    0.000574 Ang=   0.07 deg.
 Guess basis will be translated and rotated to current coordinates.
 JPrj=2 DoOrth=T DoCkMO=T.
 Initial guess orbital symmetries:
       Occupied  (A') (A") (A') (A') (A') (A") (A') (A') (A") (A')
                 (A') (A") (A") (A') (A") (A')
       Virtual   (A') (A') (A') (A') (A') (A') (A') (A') (A') (A')
                 (A') (A') (A') (A') (A') (A') (A') (A') (A') (A')
                 (A') (A') (A') (A') (A') (A') (A') (A') (A') (A')
                 (A') (A') (A') (A') (A') (A') (A') (A') (A') (A')
                 (A') (A') (A') (A') (A') (A') (A') (A") (A") (A")
                 (A") (A") (A") (A") (A") (A") (A") (A") (A") (A")
                 (A") (A") (A") (A") (A") (A") (A") (A") (A") (A")
                 (A") (A") (A") (A") (A") (A") (A") (A") (A") (A")
                 (A") (A") (A") (A")
 The electronic state of the initial guess is 1-A'.
 Leave Link  401 at Fri Jul 23 04:53:58 2021, MaxMem= 17179869184 cpu:        12.5
 (Enter /vol2/users/liuj201281/hxd_yi/bin/Gaussian/g09/l502.exe)
 Closed shell SCF:
 Using DIIS extrapolation, IDIIS=  1040.
 Integral symmetry usage will be decided dynamically.
 Keep R1 ints in memory in symmetry-blocked form, NReq=19210739.
 IVT=       62258 IEndB=       62258 NGot= 17179869184 MDV= 17173412321
 LenX= 17173412321 LenY= 17173401880
 Requested convergence on RMS density matrix=1.00D-08 within 128 cycles.
 Requested convergence on MAX density matrix=1.00D-06.
 Requested convergence on             energy=1.00D-06.
 No special actions if energy rises.
 FoFCou: FMM=F IPFlag=           0 FMFlag=           0 FMFlg1=           0
         NFxFlg=           0 DoJE=F BraDBF=F KetDBF=F FulRan=T
         wScrn=  0.000000 ICntrl=     600 IOpCl=  0 I1Cent=           0 NGrid=           0
         NMat0=    1 NMatS0=   5050 NMatT0=    0 NMatD0=    1 NMtDS0=    0 NMtDT0=    0
 Petite list used in FoFCou.

 Cycle   1  Pass 1  IDiag  1:
 E= -157.238836539240    
 DIIS: error= 5.39D-05 at cycle   1 NSaved=   1.
 NSaved= 1 IEnMin= 1 EnMin= -157.238836539240     IErMin= 1 ErrMin= 5.39D-05
 ErrMax= 5.39D-05  0.00D+00 EMaxC= 1.00D-01 BMatC= 2.23D-07 BMatP= 2.23D-07
 IDIUse=1 WtCom= 1.00D+00 WtEn= 0.00D+00
 Coeff-Com:  0.100D+01
 Coeff:      0.100D+01
 Gap=     1.214 Goal=   None    Shift=    0.000
 RMSDP=8.80D-06 MaxDP=1.95D-04              OVMax= 2.63D-04

 Cycle   2  Pass 1  IDiag  1:
 E= -157.238836983435     Delta-E=       -0.000000444194 Rises=F Damp=F
 DIIS: error= 5.46D-06 at cycle   2 NSaved=   2.
 NSaved= 2 IEnMin= 2 EnMin= -157.238836983435     IErMin= 2 ErrMin= 5.46D-06
 ErrMax= 5.46D-06  0.00D+00 EMaxC= 1.00D-01 BMatC= 2.83D-09 BMatP= 2.23D-07
 IDIUse=1 WtCom= 1.00D+00 WtEn= 0.00D+00
 Coeff-Com: -0.678D-01 0.107D+01
 Coeff:     -0.678D-01 0.107D+01
 Gap=     0.270 Goal=   None    Shift=    0.000
 RMSDP=1.33D-06 MaxDP=2.63D-05 DE=-4.44D-07 OVMax= 3.87D-05

 Cycle   3  Pass 1  IDiag  1:
 E= -157.238836987621     Delta-E=       -0.000000004186 Rises=F Damp=F
 DIIS: error= 3.71D-06 at cycle   3 NSaved=   3.
 NSaved= 3 IEnMin= 3 EnMin= -157.238836987621     IErMin= 3 ErrMin= 3.71D-06
 ErrMax= 3.71D-06  0.00D+00 EMaxC= 1.00D-01 BMatC= 1.72D-09 BMatP= 2.83D-09
 IDIUse=1 WtCom= 1.00D+00 WtEn= 0.00D+00
 Coeff-Com: -0.400D-01 0.519D+00 0.521D+00
 Coeff:     -0.400D-01 0.519D+00 0.521D+00
 Gap=     0.270 Goal=   None    Shift=    0.000
 RMSDP=4.91D-07 MaxDP=1.01D-05 DE=-4.19D-09 OVMax= 2.41D-05

 Cycle   4  Pass 1  IDiag  1:
 E= -157.238836989178     Delta-E=       -0.000000001557 Rises=F Damp=F
 DIIS: error= 2.40D-06 at cycle   4 NSaved=   4.
 NSaved= 4 IEnMin= 4 EnMin= -157.238836989178     IErMin= 4 ErrMin= 2.40D-06
 ErrMax= 2.40D-06  0.00D+00 EMaxC= 1.00D-01 BMatC= 2.60D-10 BMatP= 1.72D-09
 IDIUse=1 WtCom= 1.00D+00 WtEn= 0.00D+00
 Coeff-Com: -0.146D-01 0.167D+00 0.299D+00 0.548D+00
 Coeff:     -0.146D-01 0.167D+00 0.299D+00 0.548D+00
 Gap=     0.270 Goal=   None    Shift=    0.000
 RMSDP=1.72D-07 MaxDP=5.04D-06 DE=-1.56D-09 OVMax= 1.10D-05

 Cycle   5  Pass 1  IDiag  1:
 E= -157.238836989427     Delta-E=       -0.000000000249 Rises=F Damp=F
 DIIS: error= 6.85D-07 at cycle   5 NSaved=   5.
 NSaved= 5 IEnMin= 5 EnMin= -157.238836989427     IErMin= 5 ErrMin= 6.85D-07
 ErrMax= 6.85D-07  0.00D+00 EMaxC= 1.00D-01 BMatC= 2.85D-11 BMatP= 2.60D-10
 IDIUse=1 WtCom= 1.00D+00 WtEn= 0.00D+00
 Coeff-Com: -0.270D-02 0.225D-01 0.971D-01 0.300D+00 0.583D+00
 Coeff:     -0.270D-02 0.225D-01 0.971D-01 0.300D+00 0.583D+00
 Gap=     0.270 Goal=   None    Shift=    0.000
 RMSDP=4.85D-08 MaxDP=1.37D-06 DE=-2.49D-10 OVMax= 2.82D-06

 Cycle   6  Pass 1  IDiag  1:
 E= -157.238836989457     Delta-E=       -0.000000000030 Rises=F Damp=F
 DIIS: error= 9.26D-08 at cycle   6 NSaved=   6.
 NSaved= 6 IEnMin= 6 EnMin= -157.238836989457     IErMin= 6 ErrMin= 9.26D-08
 ErrMax= 9.26D-08  0.00D+00 EMaxC= 1.00D-01 BMatC= 9.51D-13 BMatP= 2.85D-11
 IDIUse=1 WtCom= 1.00D+00 WtEn= 0.00D+00
 Coeff-Com:  0.874D-03-0.131D-01-0.317D-02 0.350D-01 0.194D+00 0.787D+00
 Coeff:      0.874D-03-0.131D-01-0.317D-02 0.350D-01 0.194D+00 0.787D+00
 Gap=     0.270 Goal=   None    Shift=    0.000
 RMSDP=1.18D-08 MaxDP=2.80D-07 DE=-3.01D-11 OVMax= 3.71D-07

 Cycle   7  Pass 1  IDiag  1:
 E= -157.238836989456     Delta-E=        0.000000000001 Rises=F Damp=F
 DIIS: error= 1.10D-08 at cycle   7 NSaved=   7.
 NSaved= 7 IEnMin= 6 EnMin= -157.238836989457     IErMin= 7 ErrMin= 1.10D-08
 ErrMax= 1.10D-08  0.00D+00 EMaxC= 1.00D-01 BMatC= 1.47D-14 BMatP= 9.51D-13
 IDIUse=1 WtCom= 1.00D+00 WtEn= 0.00D+00
 Coeff-Com:  0.248D-03-0.348D-02-0.255D-02 0.281D-02 0.360D-01 0.198D+00
 Coeff-Com:  0.769D+00
 Coeff:      0.248D-03-0.348D-02-0.255D-02 0.281D-02 0.360D-01 0.198D+00
 Coeff:      0.769D+00
 Gap=     0.270 Goal=   None    Shift=    0.000
 RMSDP=2.45D-09 MaxDP=3.26D-08 DE= 1.48D-12 OVMax= 4.44D-08

 SCF Done:  E(RB3LYP) =  -157.238836989     A.U. after    7 cycles
            NFock=  7  Conv=0.24D-08     -V/T= 2.0104
 KE= 1.556254835409D+02 PE=-6.018271243097D+02 EE= 1.695275046707D+02
 Leave Link  502 at Fri Jul 23 04:53:59 2021, MaxMem= 17179869184 cpu:       101.6
 (Enter /vol2/users/liuj201281/hxd_yi/bin/Gaussian/g09/l701.exe)
 Compute integral first derivatives.
 ... and contract with generalized density number  0.
 Leave Link  701 at Fri Jul 23 04:54:00 2021, MaxMem= 17179869184 cpu:        54.0
 (Enter /vol2/users/liuj201281/hxd_yi/bin/Gaussian/g09/l702.exe)
 L702 exits ... SP integral derivatives will be done elsewhere.
 Leave Link  702 at Fri Jul 23 04:54:00 2021, MaxMem= 17179869184 cpu:         2.9
 (Enter /vol2/users/liuj201281/hxd_yi/bin/Gaussian/g09/l703.exe)
 Compute integral first derivatives, UseDBF=F ICtDFT=           0.
 Integral derivatives from FoFJK, PRISM(SPDF).
 Calling FoFJK, ICntrl=      2127 FMM=F ISym2X=1 I1Cent= 0 IOpClX= 0 NMat=1 NMatS=1 NMatT=0.
 FoFJK:  IHMeth= 1 ICntrl=    2127 DoSepK=F KAlg= 0 I1Cent=   0 FoldK=F
 IRaf=         0 NMat=   1 IRICut=       1 DoRegI=T DoRafI=F ISym2E= 1.
 FoFCou: FMM=F IPFlag=           0 FMFlag=      100000 FMFlg1=         800
         NFxFlg=           0 DoJE=F BraDBF=F KetDBF=F FulRan=T
         wScrn=  0.000000 ICntrl=    2127 IOpCl=  0 I1Cent=           0 NGrid=           0
         NMat0=    1 NMatS0=      1 NMatT0=    0 NMatD0=    1 NMtDS0=    0 NMtDT0=    0
 Petite list used in FoFCou.
 Leave Link  703 at Fri Jul 23 04:54:00 2021, MaxMem= 17179869184 cpu:        83.7
 (Enter /vol2/users/liuj201281/hxd_yi/bin/Gaussian/g09/l716.exe)
 Dipole        = 1.06544099D-04-2.06857795D-01-8.88178420D-16
 ***** Axes restored to original set *****
 -------------------------------------------------------------------
 Center     Atomic                   Forces (Hartrees/Bohr)
 Number     Number              X              Y              Z
 -------------------------------------------------------------------
      1        6           0.000000000    0.000007932   -0.000024541
      2        6           0.000000000    0.000009191   -0.000074503
      3        6          -0.000006693   -0.000019913    0.000026193
      4        6           0.000006693   -0.000019913    0.000026193
      5        1          -0.000000423   -0.000002473    0.000014641
      6        1           0.000000423   -0.000002473    0.000014641
      7        1           0.000009961   -0.000002964    0.000002931
      8        1           0.000005271    0.000001722    0.000004449
      9        1          -0.000007586    0.000015068    0.000001308
     10        1          -0.000009961   -0.000002964    0.000002931
     11        1          -0.000005271    0.000001722    0.000004449
     12        1           0.000007586    0.000015068    0.000001308
 -------------------------------------------------------------------
 Cartesian Forces:  Max     0.000074503 RMS     0.000016586
 Leave Link  716 at Fri Jul 23 04:54:01 2021, MaxMem= 17179869184 cpu:         3.3
 (Enter /vol2/users/liuj201281/hxd_yi/bin/Gaussian/g09/l103.exe)

 GradGradGradGradGradGradGradGradGradGradGradGradGradGradGradGradGradGrad
 Berny optimization.
 Using GEDIIS/GDIIS optimizer.
 FormGI is forming the generalized inverse of G from B-inverse, IUseBI=4.
 Internal  Forces:  Max     0.000019583 RMS     0.000008786
 Search for a local minimum.
 Step number   2 out of a maximum of   55
 All quantities printed in internal units (Hartrees-Bohrs-Radians)
 RMS Force = .87855D-05 SwitMx=.10000D-02 MixMth= 2
 Mixed Optimization -- En-DIIS/RFO-DIIS
 Swapping is turned off.
 Update second derivatives using D2CorX and points    1    2
 DE= -1.07D-07 DEPred=-1.78D-07 R= 6.00D-01
 Trust test= 6.00D-01 RLast= 4.50D-03 DXMaxT set to 3.00D-01
 ITU=  0  0
     Eigenvalues ---    0.00640   0.00657   0.01609   0.02930   0.03379
     Eigenvalues ---    0.06904   0.07009   0.07089   0.07217   0.15697
     Eigenvalues ---    0.16000   0.16000   0.16000   0.16000   0.16000
     Eigenvalues ---    0.16000   0.16949   0.24963   0.25000   0.31530
     Eigenvalues ---    0.31530   0.33306   0.33913   0.33916   0.33994
     Eigenvalues ---    0.34454   0.34516   0.35212   0.35227   0.57983
 En-DIIS/RFO-DIIS IScMMF=        0 using points:     2    1
 RFO step:  Lambda=-1.27744029D-08.
 NNeg= 0 NP= 2 Switch=  2.50D-03 Rises=F DC=  1.07D-07 SmlDif=  1.00D-05
 RMS Error=  0.3692930941D-04 NUsed= 2 EDIIS=F
 DidBck=T Rises=F RFO-DIIS coefs:    0.71579    0.28421
 Iteration  1 RMS(Cart)=  0.00020228 RMS(Int)=  0.00000005
 Iteration  2 RMS(Cart)=  0.00000006 RMS(Int)=  0.00000004
 ITry= 1 IFail=0 DXMaxC= 6.30D-04 DCOld= 1.00D+10 DXMaxT= 3.00D-01 DXLimC= 3.00D+00 Rises=F
 ClnCor:  largest displacement from symmetrization is 8.79D-12 for atom     6.
 Variable       Old X    -DE/DX   Delta X   Delta X   Delta X     New X
                                 (Linear)    (Quad)   (Total)
    R1        2.52538   0.00000   0.00002  -0.00002   0.00000   2.52538
    R2        2.05312   0.00000  -0.00001   0.00001   0.00000   2.05313
    R3        2.05312   0.00000  -0.00001   0.00001   0.00000   2.05313
    R4        2.85013   0.00000   0.00000   0.00001   0.00001   2.85014
    R5        2.85013   0.00000   0.00000   0.00001   0.00001   2.85014
    R6        2.07464   0.00000   0.00002  -0.00002   0.00000   2.07464
    R7        2.06565   0.00001   0.00002  -0.00001   0.00001   2.06566
    R8        2.07466  -0.00001   0.00003  -0.00006  -0.00003   2.07463
    R9        2.07464   0.00000   0.00002  -0.00002   0.00000   2.07464
   R10        2.06565   0.00001   0.00002  -0.00001   0.00001   2.06566
   R11        2.07466  -0.00001   0.00003  -0.00006  -0.00003   2.07463
    A1        2.12359   0.00000   0.00001  -0.00002  -0.00001   2.12358
    A2        2.12359   0.00000   0.00001  -0.00002  -0.00001   2.12358
    A3        2.03600   0.00000  -0.00003   0.00005   0.00002   2.03602
    A4        2.13125   0.00000  -0.00001   0.00002   0.00001   2.13126
    A5        2.13125   0.00000  -0.00001   0.00002   0.00001   2.13126
    A6        2.02069  -0.00001   0.00001  -0.00004  -0.00003   2.02066
    A7        1.93728   0.00002   0.00006   0.00001   0.00007   1.93735
    A8        1.95280   0.00000  -0.00001   0.00001   0.00000   1.95280
    A9        1.93746  -0.00002  -0.00006  -0.00002  -0.00008   1.93738
   A10        1.88791  -0.00001   0.00004  -0.00008  -0.00004   1.88787
   A11        1.85690   0.00000  -0.00007   0.00013   0.00005   1.85695
   A12        1.88790   0.00000   0.00004  -0.00006  -0.00001   1.88789
   A13        1.93728   0.00002   0.00006   0.00001   0.00007   1.93735
   A14        1.95280   0.00000  -0.00001   0.00001   0.00000   1.95280
   A15        1.93746  -0.00002  -0.00006  -0.00002  -0.00008   1.93738
   A16        1.88791  -0.00001   0.00004  -0.00008  -0.00004   1.88787
   A17        1.85690   0.00000  -0.00007   0.00013   0.00005   1.85695
   A18        1.88790   0.00000   0.00004  -0.00006  -0.00001   1.88789
    D1        3.14103   0.00002   0.00047   0.00012   0.00059  -3.14157
    D2        0.00000   0.00001  -0.00016   0.00014  -0.00003  -0.00002
    D3        0.00000  -0.00001   0.00016  -0.00014   0.00003   0.00002
    D4       -3.14103  -0.00002  -0.00047  -0.00012  -0.00059   3.14157
    D5        2.11049   0.00000  -0.00028   0.00024  -0.00004   2.11045
    D6       -0.00031  -0.00001  -0.00037   0.00032  -0.00004  -0.00036
    D7       -2.11124   0.00000  -0.00037   0.00040   0.00003  -2.11121
    D8       -1.03164   0.00001   0.00031   0.00023   0.00054  -1.03110
    D9        3.14074   0.00001   0.00023   0.00031   0.00054   3.14128
   D10        1.02982   0.00001   0.00022   0.00038   0.00061   1.03043
   D11       -2.11049   0.00000   0.00028  -0.00024   0.00004  -2.11045
   D12        0.00031   0.00001   0.00037  -0.00032   0.00004   0.00036
   D13        2.11124   0.00000   0.00037  -0.00040  -0.00003   2.11121
   D14        1.03164  -0.00001  -0.00031  -0.00023  -0.00054   1.03110
   D15       -3.14074  -0.00001  -0.00023  -0.00031  -0.00054  -3.14128
   D16       -1.02982  -0.00001  -0.00022  -0.00038  -0.00061  -1.03043
         Item               Value     Threshold  Converged?
 Maximum Force            0.000020     0.000450     YES
 RMS     Force            0.000009     0.000300     YES
 Maximum Displacement     0.000630     0.001800     YES
 RMS     Displacement     0.000202     0.001200     YES
 Predicted change in Energy=-3.068482D-08
 Optimization completed.
    -- Stationary point found.
                           ----------------------------
                           !   Optimized Parameters   !
                           ! (Angstroms and Degrees)  !
 --------------------------                            --------------------------
 ! Name  Definition              Value          Derivative Info.                !
 --------------------------------------------------------------------------------
 ! R1    R(1,2)                  1.3364         -DE/DX =    0.0                 !
 ! R2    R(1,5)                  1.0865         -DE/DX =    0.0                 !
 ! R3    R(1,6)                  1.0865         -DE/DX =    0.0                 !
 ! R4    R(2,3)                  1.5082         -DE/DX =    0.0                 !
 ! R5    R(2,4)                  1.5082         -DE/DX =    0.0                 !
 ! R6    R(3,7)                  1.0979         -DE/DX =    0.0                 !
 ! R7    R(3,8)                  1.0931         -DE/DX =    0.0                 !
 ! R8    R(3,9)                  1.0979         -DE/DX =    0.0                 !
 ! R9    R(4,10)                 1.0979         -DE/DX =    0.0                 !
 ! R10   R(4,11)                 1.0931         -DE/DX =    0.0                 !
 ! R11   R(4,12)                 1.0979         -DE/DX =    0.0                 !
 ! A1    A(2,1,5)              121.6729         -DE/DX =    0.0                 !
 ! A2    A(2,1,6)              121.6729         -DE/DX =    0.0                 !
 ! A3    A(5,1,6)              116.6542         -DE/DX =    0.0                 !
 ! A4    A(1,2,3)              122.1116         -DE/DX =    0.0                 !
 ! A5    A(1,2,4)              122.1116         -DE/DX =    0.0                 !
 ! A6    A(3,2,4)              115.7768         -DE/DX =    0.0                 !
 ! A7    A(2,3,7)              110.998          -DE/DX =    0.0                 !
 ! A8    A(2,3,8)              111.887          -DE/DX =    0.0                 !
 ! A9    A(2,3,9)              111.0082         -DE/DX =    0.0                 !
 ! A10   A(7,3,8)              108.1692         -DE/DX =    0.0                 !
 ! A11   A(7,3,9)              106.3923         -DE/DX =    0.0                 !
 ! A12   A(8,3,9)              108.1688         -DE/DX =    0.0                 !
 ! A13   A(2,4,10)             110.998          -DE/DX =    0.0                 !
 ! A14   A(2,4,11)             111.887          -DE/DX =    0.0                 !
 ! A15   A(2,4,12)             111.0082         -DE/DX =    0.0                 !
 ! A16   A(10,4,11)            108.1692         -DE/DX =    0.0                 !
 ! A17   A(10,4,12)            106.3923         -DE/DX =    0.0                 !
 ! A18   A(11,4,12)            108.1688         -DE/DX =    0.0                 !
 ! D1    D(5,1,2,3)           -180.0323         -DE/DX =    0.0                 !
 ! D2    D(5,1,2,4)              0.0003         -DE/DX =    0.0                 !
 ! D3    D(6,1,2,3)             -0.0003         -DE/DX =    0.0                 !
 ! D4    D(6,1,2,4)            180.0323         -DE/DX =    0.0                 !
 ! D5    D(1,2,3,7)            120.9222         -DE/DX =    0.0                 !
 ! D6    D(1,2,3,8)             -0.018          -DE/DX =    0.0                 !
 ! D7    D(1,2,3,9)           -120.9649         -DE/DX =    0.0                 !
 ! D8    D(4,2,3,7)            -59.1084         -DE/DX =    0.0                 !
 ! D9    D(4,2,3,8)            179.9514         -DE/DX =    0.0                 !
 ! D10   D(4,2,3,9)             59.0044         -DE/DX =    0.0                 !
 ! D11   D(1,2,4,10)          -120.9222         -DE/DX =    0.0                 !
 ! D12   D(1,2,4,11)             0.018          -DE/DX =    0.0                 !
 ! D13   D(1,2,4,12)           120.9649         -DE/DX =    0.0                 !
 ! D14   D(3,2,4,10)            59.1084         -DE/DX =    0.0                 !
 ! D15   D(3,2,4,11)          -179.9514         -DE/DX =    0.0                 !
 ! D16   D(3,2,4,12)           -59.0044         -DE/DX =    0.0                 !
 --------------------------------------------------------------------------------
 Lowest energy point so far.  Saving SCF results.
 GradGradGradGradGradGradGradGradGradGradGradGradGradGradGradGradGradGrad

 Largest change from initial coordinates is atom    6       0.001 Angstoms.
 Leave Link  103 at Fri Jul 23 04:54:01 2021, MaxMem= 17179869184 cpu:        10.0
 (Enter /vol2/users/liuj201281/hxd_yi/bin/Gaussian/g09/l202.exe)
                          Input orientation:                          
 ---------------------------------------------------------------------
 Center     Atomic      Atomic             Coordinates (Angstroms)
 Number     Number       Type             X           Y           Z
 ---------------------------------------------------------------------
      1          6           0        0.000000    1.459363    0.000296
      2          6           0        0.000000    0.122991    0.000452
      3          6           0        1.277486   -0.678734    0.000183
      4          6           0       -1.277486   -0.678734    0.000183
      5          1           0       -0.924648    2.029833   -0.000029
      6          1           0        0.924648    2.029833   -0.000029
      7          1           0        1.330976   -1.333867    0.879511
      8          1           0        2.161802   -0.036207   -0.000462
      9          1           0        1.330303   -1.334701   -0.878577
     10          1           0       -1.330976   -1.333867    0.879511
     11          1           0       -2.161802   -0.036207   -0.000462
     12          1           0       -1.330303   -1.334701   -0.878577
 ---------------------------------------------------------------------
                    Distance matrix (angstroms):
                    1          2          3          4          5
     1  C    0.000000
     2  C    1.336371   0.000000
     3  C    2.490669   1.508222   0.000000
     4  C    2.490669   1.508222   2.554972   0.000000
     5  H    1.086467   2.119202   3.490806   2.731452   0.000000
     6  H    1.086467   2.119202   2.731452   3.490806   1.849296
     7  H    3.216621   2.160250   1.097851   2.829574   4.144382
     8  H    2.628710   2.167656   1.093095   3.498792   3.714121
     9  H    3.216973   2.160386   1.097862   2.828971   4.144483
    10  H    3.216621   2.160250   2.829574   1.097851   3.500452
    11  H    2.628710   2.167656   3.498792   1.093095   2.408126
    12  H    3.216973   2.160386   2.828971   1.097862   3.500927
                    6          7          8          9         10
     6  H    0.000000
     7  H    3.500452   0.000000
     8  H    2.408126   1.774414   0.000000
     9  H    3.500927   1.758089   1.774419   0.000000
    10  H    4.144382   2.661952   3.828547   3.189558   0.000000
    11  H    3.714121   3.828547   4.323604   3.827789   1.774414
    12  H    4.144483   3.189558   3.827789   2.660606   1.758089
                   11         12
    11  H    0.000000
    12  H    1.774419   0.000000
 Stoichiometry    C4H8
 Framework group  CS[SG(C2),X(C2H8)]
 Deg. of freedom    16
 Full point group                 CS      NOp   2
 RotChk:  IX=0 Diff= 1.08D-15
 Largest Abelian subgroup         CS      NOp   2
 Largest concise Abelian subgroup CS      NOp   2
                         Standard orientation:                         
 ---------------------------------------------------------------------
 Center     Atomic      Atomic             Coordinates (Angstroms)
 Number     Number       Type             X           Y           Z
 ---------------------------------------------------------------------
      1          6           0        0.000430    1.459381    0.000000
      2          6           0       -0.000174    0.123009    0.000000
      3          6           0       -0.000174   -0.678716    1.277486
      4          6           0       -0.000174   -0.678716   -1.277486
      5          1           0        0.000947    2.029850   -0.924648
      6          1           0        0.000947    2.029850    0.924648
      7          1           0       -0.879722   -1.333554    1.330976
      8          1           0        0.000687   -0.036189    2.161802
      9          1           0        0.878366   -1.334978    1.330303
     10          1           0       -0.879722   -1.333554   -1.330976
     11          1           0        0.000687   -0.036189   -2.161802
     12          1           0        0.878366   -1.334978   -1.330303
 ---------------------------------------------------------------------
 Rotational constants (GHZ):      9.1285611      8.3446246      4.6070999
 Leave Link  202 at Fri Jul 23 04:54:01 2021, MaxMem= 17179869184 cpu:         1.6
 (Enter /vol2/users/liuj201281/hxd_yi/bin/Gaussian/g09/l601.exe)
 Copying SCF densities to generalized density rwf, IOpCl= 0 IROHF=0.

 **********************************************************************

            Population analysis using the SCF density.

 **********************************************************************

 Orbital symmetries:
       Occupied  (A') (A") (A') (A') (A') (A") (A') (A') (A") (A')
                 (A') (A") (A") (A') (A") (A')
       Virtual   (A') (A') (A') (A") (A") (A') (A') (A") (A") (A')
                 (A") (A') (A') (A") (A') (A') (A") (A') (A') (A')
                 (A') (A") (A") (A') (A") (A') (A") (A") (A') (A')
                 (A") (A') (A') (A") (A') (A") (A') (A") (A") (A")
                 (A') (A') (A") (A') (A") (A') (A') (A") (A') (A')
                 (A") (A") (A") (A') (A') (A") (A') (A') (A") (A")
                 (A') (A') (A") (A') (A") (A') (A") (A") (A') (A')
                 (A") (A') (A') (A") (A') (A') (A") (A") (A') (A")
                 (A') (A') (A") (A')
 The electronic state is 1-A'.
 Alpha  occ. eigenvalues --  -10.19183 -10.17825 -10.17824 -10.16578  -0.80004
 Alpha  occ. eigenvalues --   -0.68916  -0.67434  -0.51962  -0.44718  -0.43872
 Alpha  occ. eigenvalues --   -0.42681  -0.38238  -0.36698  -0.36046  -0.33437
 Alpha  occ. eigenvalues --   -0.23957
 Alpha virt. eigenvalues --    0.03064   0.09681   0.13947   0.15151   0.15663
 Alpha virt. eigenvalues --    0.17496   0.17641   0.18692   0.22014   0.22763
 Alpha virt. eigenvalues --    0.31198   0.37825   0.50861   0.52414   0.52537
 Alpha virt. eigenvalues --    0.56142   0.57588   0.62598   0.66423   0.68572
 Alpha virt. eigenvalues --    0.72645   0.73268   0.76708   0.81545   0.83216
 Alpha virt. eigenvalues --    0.84819   0.87358   0.88448   0.90951   0.92555
 Alpha virt. eigenvalues --    0.95417   0.95578   1.14237   1.22700   1.23634
 Alpha virt. eigenvalues --    1.31304   1.31952   1.43999   1.47835   1.70429
 Alpha virt. eigenvalues --    1.72951   1.77718   1.80544   1.83084   1.85028
 Alpha virt. eigenvalues --    1.96023   2.01300   2.04435   2.04880   2.07261
 Alpha virt. eigenvalues --    2.08705   2.11269   2.12542   2.15990   2.16493
 Alpha virt. eigenvalues --    2.28697   2.30071   2.38186   2.38558   2.48133
 Alpha virt. eigenvalues --    2.50467   2.55649   2.62008   2.65630   2.68017
 Alpha virt. eigenvalues --    2.71816   2.78730   2.83326   2.89174   2.90222
 Alpha virt. eigenvalues --    2.96783   3.04005   3.16732   3.21468   3.35521
 Alpha virt. eigenvalues --    3.40731   3.42875   3.44832   3.50902   3.60827
 Alpha virt. eigenvalues --    4.16580   4.34946   4.49560   4.62860
          Condensed to atoms (all electrons):
               1          2          3          4          5          6
     1  C    4.947815   0.702574  -0.048292  -0.048292   0.369861   0.369861
     2  C    0.702574   4.584689   0.390045   0.390045  -0.024975  -0.024975
     3  C   -0.048292   0.390045   4.982702  -0.078225   0.006666  -0.014152
     4  C   -0.048292   0.390045  -0.078225   4.982702  -0.014152   0.006666
     5  H    0.369861  -0.024975   0.006666  -0.014152   0.618645  -0.047434
     6  H    0.369861  -0.024975  -0.014152   0.006666  -0.047434   0.618645
     7  H    0.000031  -0.033185   0.373388  -0.002161  -0.000208   0.000207
     8  H   -0.007245  -0.025777   0.374524   0.005010  -0.000014   0.006371
     9  H    0.000034  -0.033160   0.373402  -0.002180  -0.000208   0.000206
    10  H    0.000031  -0.033185  -0.002161   0.373388   0.000207  -0.000208
    11  H   -0.007245  -0.025777   0.005010   0.374524   0.006371  -0.000014
    12  H    0.000034  -0.033160  -0.002180   0.373402   0.000206  -0.000208
               7          8          9         10         11         12
     1  C    0.000031  -0.007245   0.000034   0.000031  -0.007245   0.000034
     2  C   -0.033185  -0.025777  -0.033160  -0.033185  -0.025777  -0.033160
     3  C    0.373388   0.374524   0.373402  -0.002161   0.005010  -0.002180
     4  C   -0.002161   0.005010  -0.002180   0.373388   0.374524   0.373402
     5  H   -0.000208  -0.000014  -0.000208   0.000207   0.006371   0.000206
     6  H    0.000207   0.006371   0.000206  -0.000208  -0.000014  -0.000208
     7  H    0.614214  -0.029114  -0.038203   0.004418  -0.000046  -0.000851
     8  H   -0.029114   0.596809  -0.029117  -0.000046  -0.000199  -0.000046
     9  H   -0.038203  -0.029117   0.614194  -0.000851  -0.000046   0.004429
    10  H    0.004418  -0.000046  -0.000851   0.614214  -0.029114  -0.038203
    11  H   -0.000046  -0.000199  -0.000046  -0.029114   0.596809  -0.029117
    12  H   -0.000851  -0.000046   0.004429  -0.038203  -0.029117   0.614194
 Mulliken charges:
               1
     1  C   -0.279170
     2  C    0.166842
     3  C   -0.360726
     4  C   -0.360726
     5  H    0.085036
     6  H    0.085036
     7  H    0.111511
     8  H    0.108845
     9  H    0.111498
    10  H    0.111511
    11  H    0.108845
    12  H    0.111498
 Sum of Mulliken charges =   0.00000
 Mulliken charges with hydrogens summed into heavy atoms:
               1
     1  C   -0.109098
     2  C    0.166842
     3  C   -0.028872
     4  C   -0.028872
 Electronic spatial extent (au):  <R**2>=            325.0120
 Charge=              0.0000 electrons
 Dipole moment (field-independent basis, Debye):
    X=              0.0003    Y=             -0.5258    Z=              0.0000  Tot=              0.5258
 Quadrupole moment (field-independent basis, Debye-Ang):
   XX=            -27.6395   YY=            -25.8846   ZZ=            -25.4276
   XY=              0.0015   XZ=              0.0000   YZ=              0.0000
 Traceless Quadrupole moment (field-independent basis, Debye-Ang):
   XX=             -1.3223   YY=              0.4327   ZZ=              0.8896
   XY=              0.0015   XZ=              0.0000   YZ=              0.0000
 Octapole moment (field-independent basis, Debye-Ang**2):
  XXX=             -0.0038  YYY=              0.5993  ZZZ=              0.0000  XYY=              0.0059
  XXY=             -2.9983  XXZ=              0.0000  XZZ=              0.0025  YZZ=              1.9226
  YYZ=              0.0000  XYZ=              0.0000
 Hexadecapole moment (field-independent basis, Debye-Ang**3):
 XXXX=            -42.2324 YYYY=           -191.0322 ZZZZ=           -208.8104 XXXY=             -0.0223
 XXXZ=              0.0000 YYYX=             -0.0220 YYYZ=              0.0000 ZZZX=              0.0000
 ZZZY=              0.0000 XXYY=            -39.4917 XXZZ=            -42.9422 YYZZ=            -65.1143
 XXYZ=              0.0000 YYXZ=              0.0000 ZZXY=             -0.0043
 N-N= 1.194352991087D+02 E-N=-6.018271255994D+02  KE= 1.556254835409D+02
 Symmetry A'   KE= 1.124159807629D+02
 Symmetry A"   KE= 4.320950277806D+01
 No NMR shielding tensors so no spin-rotation constants.
 Leave Link  601 at Fri Jul 23 04:54:01 2021, MaxMem= 17179869184 cpu:        44.2
 (Enter /vol2/users/liuj201281/hxd_yi/bin/Gaussian/g09/l9999.exe)
 1\1\GINC-FN8\FOpt\RB3LYP\6-31G(d,p)\C4H8\LIUJ201281\23-Jul-2021\0\\#P 
[...]
 Berny optimization.
 Red2BG is reusing G-inverse.
 Internal  Forces:  Max     0.000019583 RMS     0.000008785
 Search for a local minimum.
 Step number   1 out of a maximum of    2
 All quantities printed in internal units (Hartrees-Bohrs-Radians)
 Second derivative matrix not updated -- analytic derivatives used.
 ITU=  0
     Eigenvalues ---    0.00211   0.00287   0.01621   0.03086   0.03706
     Eigenvalues ---    0.05742   0.05793   0.05907   0.06033   0.10740
     Eigenvalues ---    0.12202   0.12513   0.12600   0.13763   0.14249
     Eigenvalues ---    0.14382   0.14598   0.18451   0.20754   0.31593
     Eigenvalues ---    0.31761   0.32848   0.32959   0.33811   0.33837
     Eigenvalues ---    0.34528   0.34708   0.36094   0.36159   0.63300
 Angle between quadratic step and forces=  61.11 degrees.
 Linear search not attempted -- first point.
 Iteration  1 RMS(Cart)=  0.00038232 RMS(Int)=  0.00000009
 Iteration  2 RMS(Cart)=  0.00000012 RMS(Int)=  0.00000002
 ITry= 1 IFail=0 DXMaxC= 1.16D-03 DCOld= 1.00D+10 DXMaxT= 3.00D-01 DXLimC= 3.00D+00 Rises=F
 ClnCor:  largest displacement from symmetrization is 1.47D-10 for atom    11.
 Variable       Old X    -DE/DX   Delta X   Delta X   Delta X     New X
                                 (Linear)    (Quad)   (Total)
    R1        2.52538   0.00000   0.00000   0.00000   0.00000   2.52538
    R2        2.05312   0.00000   0.00000   0.00000   0.00000   2.05312
    R3        2.05312   0.00000   0.00000   0.00000   0.00000   2.05312
    R4        2.85013   0.00000   0.00000   0.00002   0.00002   2.85015
    R5        2.85013   0.00000   0.00000   0.00002   0.00002   2.85015
    R6        2.07464   0.00000   0.00000   0.00000   0.00000   2.07464
    R7        2.06565   0.00001   0.00000   0.00002   0.00002   2.06567
    R8        2.07466  -0.00001   0.00000  -0.00002  -0.00002   2.07464
    R9        2.07464   0.00000   0.00000   0.00000   0.00000   2.07464
   R10        2.06565   0.00001   0.00000   0.00002   0.00002   2.06567
   R11        2.07466  -0.00001   0.00000  -0.00002  -0.00002   2.07464
    A1        2.12359   0.00000   0.00000  -0.00002  -0.00002   2.12358
    A2        2.12359   0.00000   0.00000  -0.00002  -0.00002   2.12358
    A3        2.03600   0.00000   0.00000   0.00003   0.00003   2.03603
    A4        2.13125   0.00000   0.00000   0.00003   0.00003   2.13128
    A5        2.13125   0.00000   0.00000   0.00003   0.00003   2.13128
    A6        2.02069  -0.00001   0.00000  -0.00005  -0.00005   2.02063
    A7        1.93728   0.00002   0.00000   0.00009   0.00009   1.93737
    A8        1.95280   0.00000   0.00000   0.00000   0.00000   1.95280
    A9        1.93746  -0.00002   0.00000  -0.00010  -0.00010   1.93736
   A10        1.88791  -0.00001   0.00000  -0.00003  -0.00003   1.88788
   A11        1.85690   0.00000   0.00000   0.00007   0.00007   1.85697
   A12        1.88790   0.00000   0.00000  -0.00003  -0.00003   1.88788
   A13        1.93728   0.00002   0.00000   0.00009   0.00009   1.93737
   A14        1.95280   0.00000   0.00000   0.00000   0.00000   1.95280
   A15        1.93746  -0.00002   0.00000  -0.00010  -0.00010   1.93736
   A16        1.88791  -0.00001   0.00000  -0.00003  -0.00003   1.88788
   A17        1.85690   0.00000   0.00000   0.00007   0.00007   1.85697
   A18        1.88790   0.00000   0.00000  -0.00003  -0.00003   1.88788
    D1        3.14103   0.00002   0.00000   0.00056   0.00056   3.14159
    D2        0.00000   0.00001   0.00000   0.00000   0.00000   0.00000
    D3        0.00000  -0.00001   0.00000   0.00000   0.00000   0.00000
    D4       -3.14103  -0.00002   0.00000  -0.00056  -0.00056  -3.14159
    D5        2.11049   0.00000   0.00000   0.00033   0.00033   2.11082
    D6       -0.00031  -0.00001   0.00000   0.00031   0.00031   0.00000
    D7       -2.11124   0.00000   0.00000   0.00041   0.00041  -2.11082
    D8       -1.03164   0.00001   0.00000   0.00086   0.00086  -1.03078
    D9        3.14074   0.00001   0.00000   0.00084   0.00084   3.14158
   D10        1.02982   0.00001   0.00000   0.00094   0.00094   1.03076
   D11       -2.11049   0.00000   0.00000  -0.00033  -0.00033  -2.11082
   D12        0.00031   0.00001   0.00000  -0.00031  -0.00031   0.00000
   D13        2.11124   0.00000   0.00000  -0.00041  -0.00041   2.11082
   D14        1.03164  -0.00001   0.00000  -0.00086  -0.00086   1.03078
   D15       -3.14074  -0.00001   0.00000  -0.00084  -0.00084  -3.14158
   D16       -1.02982  -0.00001   0.00000  -0.00094  -0.00094  -1.03076
         Item               Value     Threshold  Converged?
 Maximum Force            0.000020     0.000450     YES
 RMS     Force            0.000009     0.000300     YES
 Maximum Displacement     0.001160     0.001800     YES
 RMS     Displacement     0.000382     0.001200     YES
 Predicted change in Energy=-3.516823D-08
 Optimization completed.
    -- Stationary point found.
                           ----------------------------
                           !   Optimized Parameters   !
                           ! (Angstroms and Degrees)  !
 --------------------------                            --------------------------
 ! Name  Definition              Value          Derivative Info.                !
 --------------------------------------------------------------------------------
 ! R1    R(1,2)                  1.3364         -DE/DX =    0.0                 !
 ! R2    R(1,5)                  1.0865         -DE/DX =    0.0                 !
 ! R3    R(1,6)                  1.0865         -DE/DX =    0.0                 !
 ! R4    R(2,3)                  1.5082         -DE/DX =    0.0                 !
 ! R5    R(2,4)                  1.5082         -DE/DX =    0.0                 !
 ! R6    R(3,7)                  1.0979         -DE/DX =    0.0                 !
 ! R7    R(3,8)                  1.0931         -DE/DX =    0.0                 !
 ! R8    R(3,9)                  1.0979         -DE/DX =    0.0                 !
 ! R9    R(4,10)                 1.0979         -DE/DX =    0.0                 !
 ! R10   R(4,11)                 1.0931         -DE/DX =    0.0                 !
 ! R11   R(4,12)                 1.0979         -DE/DX =    0.0                 !
 ! A1    A(2,1,5)              121.6729         -DE/DX =    0.0                 !
 ! A2    A(2,1,6)              121.6729         -DE/DX =    0.0                 !
 ! A3    A(5,1,6)              116.6542         -DE/DX =    0.0                 !
 ! A4    A(1,2,3)              122.1116         -DE/DX =    0.0                 !
 ! A5    A(1,2,4)              122.1116         -DE/DX =    0.0                 !
 ! A6    A(3,2,4)              115.7768         -DE/DX =    0.0                 !
 ! A7    A(2,3,7)              110.998          -DE/DX =    0.0                 !
 ! A8    A(2,3,8)              111.887          -DE/DX =    0.0                 !
 ! A9    A(2,3,9)              111.0082         -DE/DX =    0.0                 !
 ! A10   A(7,3,8)              108.1692         -DE/DX =    0.0                 !
 ! A11   A(7,3,9)              106.3923         -DE/DX =    0.0                 !
 ! A12   A(8,3,9)              108.1688         -DE/DX =    0.0                 !
 ! A13   A(2,4,10)             110.998          -DE/DX =    0.0                 !
 ! A14   A(2,4,11)             111.887          -DE/DX =    0.0                 !
 ! A15   A(2,4,12)             111.0082         -DE/DX =    0.0                 !
 ! A16   A(10,4,11)            108.1692         -DE/DX =    0.0                 !
 ! A17   A(10,4,12)            106.3923         -DE/DX =    0.0                 !
 ! A18   A(11,4,12)            108.1688         -DE/DX =    0.0                 !
 ! D1    D(5,1,2,3)            179.9677         -DE/DX =    0.0                 !
 ! D2    D(5,1,2,4)              0.0003         -DE/DX =    0.0                 !
 ! D3    D(6,1,2,3)             -0.0003         -DE/DX =    0.0                 !
 ! D4    D(6,1,2,4)           -179.9677         -DE/DX =    0.0                 !
 ! D5    D(1,2,3,7)            120.9222         -DE/DX =    0.0                 !
 ! D6    D(1,2,3,8)             -0.018          -DE/DX =    0.0                 !
 ! D7    D(1,2,3,9)           -120.9649         -DE/DX =    0.0                 !
 ! D8    D(4,2,3,7)            -59.1084         -DE/DX =    0.0                 !
 ! D9    D(4,2,3,8)            179.9514         -DE/DX =    0.0                 !
 ! D10   D(4,2,3,9)             59.0044         -DE/DX =    0.0                 !
 ! D11   D(1,2,4,10)          -120.9222         -DE/DX =    0.0                 !
 ! D12   D(1,2,4,11)             0.018          -DE/DX =    0.0                 !
 ! D13   D(1,2,4,12)           120.9649         -DE/DX =    0.0                 !
 ! D14   D(3,2,4,10)            59.1084         -DE/DX =    0.0                 !
 ! D15   D(3,2,4,11)          -179.9514         -DE/DX =    0.0                 !
 ! D16   D(3,2,4,12)           -59.0044         -DE/DX =    0.0                 !
 --------------------------------------------------------------------------------
 GradGradGradGradGradGradGradGradGradGradGradGradGradGradGradGradGradGrad

 Leave Link  103 at Fri Jul 23 04:54:25 2021, MaxMem= 17179869184 cpu:        11.2
 (Enter /vol2/users/liuj201281/hxd_yi/bin/Gaussian/g09/l9999.exe)
 1\1\GINC-FN8\Freq\RB3LYP\6-31G(d,p)\C4H8\LIUJ201281\23-Jul-2021\0\\#P 
 Geom=AllCheck Guess=TCheck SCRF=Check GenChk RB3LYP/6-31G(d,p) Freq\\F
 rag_55\\0,1\C,0.,1.4593627874,0.0002958395\C,0.,0.1229914895,0.0004521
 201\C,1.2774859103,-0.6787343726,0.0001830944\C,-1.2774859103,-0.67873
 43726,0.0001830944\H,-0.9246480903,2.0298325213,-0.0000291908\H,0.9246
 480903,2.0298325213,-0.0000291908\H,1.3309759613,-1.3338668136,0.87951
 12965\H,2.1618022417,-0.0362070655,-0.0004622289\H,1.3303029498,-1.334
 701408,-0.8785769512\H,-1.3309759613,-1.3338668136,0.8795112965\H,-2.1
 618022417,-0.0362070655,-0.0004622289\H,-1.3303029498,-1.334701408,-0.
 8785769512\\Version=ES64L-G09RevD.01\State=1-A'\HF=-157.238837\RMSD=1.
 496e-09\RMSF=1.658e-05\ZeroPoint=0.1080973\Thermal=0.1134039\Dipole=0.
 ,-0.2068575,-0.0001761\DipoleDeriv=0.0292032,0.,0.,0.,-0.1690247,-0.00
 01075,0.,-0.0004836,-0.3218188,0.265612,0.,0.,0.,0.2884618,0.0000458,0
 .,0.0001756,-0.0942067,-0.0103618,-0.0024399,-0.0000158,0.0177742,0.04
 08574,-0.0000394,0.0000339,0.0000576,0.1420794,-0.0103618,0.0024399,0.
 0000158,-0.0177742,0.0408574,-0.0000394,-0.0000339,0.0000576,0.1420795
 ,-0.0913275,0.0899572,-0.0000175,0.0523464,0.0005932,0.0000268,-0.0000
 76,0.0001621,0.1349239,-0.0913275,-0.0899572,0.0000175,-0.0523464,0.00
 05932,0.0000268,0.000076,0.0001621,0.1349239,0.0295415,0.0409243,0.021
 1931,0.0366997,-0.0418083,0.0980265,-0.0182567,0.1202069,-0.068818,-0.
 1048061,-0.0457442,0.0000717,-0.1078251,-0.0174304,0.0000812,0.0001055
 ,0.0000273,0.0684441,0.0295463,0.0407702,-0.0212982,0.0365784,-0.04193
 03,-0.0980643,0.0181463,-0.1202999,-0.0686168,0.0295415,-0.0409243,-0.
 0211931,-0.0366997,-0.0418083,0.0980265,0.0182567,0.1202069,-0.068818,
 -0.1048061,0.0457442,-0.0000717,0.1078251,-0.0174304,0.0000812,-0.0001
 055,0.0000273,0.0684441,0.0295463,-0.0407702,0.0212982,-0.0365784,-0.0
 419303,-0.0980643,-0.0181463,-0.1202999,-0.0686168\Polar=44.0426997,0.
 ,56.0203225,0.,-0.0027342,29.1335375\PG=CS [SG(C2),X(C2H8)]\NImag=0\\0
 .65160591,0.,0.85567248,0.,-0.00017253,0.10230063,-0.10971555,0.,0.,0.
 51319167,0.,-0.55205746,0.00007072,0.,0.85172583,0.,0.00004613,-0.0515
 5951,0.,-0.00004589,0.18859464,-0.00099259,0.00793450,0.00000119,-0.17
 935704,0.05538376,0.00000504,0.52799148,0.03230729,-0.02292385,0.00000
 050,0.05094946,-0.11841460,-0.00000714,0.05294716,0.54821286,-0.000000
 81,0.00000520,0.00763157,0.00003241,-0.00001941,-0.07633621,-0.0000156
 3,-0.00000516,0.53271406,-0.00099259,-0.00793450,-0.00000119,-0.179357
 04,-0.05538376,-0.00000504,-0.02990310,-0.01368085,0.00000207,0.527991
 48,-0.03230729,-0.02292385,0.00000050,-0.05094946,-0.11841460,-0.00000
 714,0.01368085,0.01155716,-0.00000717,-0.05294716,0.54821286,0.0000008
 1,0.00000520,0.00763157,-0.00003241,-0.00001941,-0.07633621,-0.0000020
 7,-0.00000717,0.00300158,0.00001563,-0.00000516,0.53271406,-0.26489934
 ,0.12537555,-0.00006687,0.00079434,-0.00201550,0.00000064,0.00110085,-
 0.00046792,-0.00000164,0.00095292,-0.00141281,0.00000150,0.27624237,0.
 12065723,-0.13094818,0.00005331,0.02911640,-0.01281535,0.00000457,-0.0
 0218923,-0.00395007,0.00000398,0.00223613,0.00115311,-0.00000183,-0.13
 582063,0.13753761,-0.00008002,0.00006053,-0.03247638,-0.00000777,-0.00
 000162,0.00328270,0.00000663,0.00000052,0.01321061,0.00000368,0.000000
 35,-0.00786387,0.00007308,-0.00005557,0.02276028,-0.26489934,-0.125375
 55,0.00006687,0.00079434,0.00201550,-0.00000064,0.00095292,0.00141281,
 -0.00000150,0.00110085,0.00046792,0.00000164,-0.01584359,-0.01385041,0
 .00000583,0.27624237,-0.12065723,-0.13094818,0.00005331,-0.02911640,-0
 .01281535,0.00000457,-0.00223613,0.00115311,-0.00000183,0.00218923,-0.
 00395007,0.00000398,0.01385041,0.00975350,-0.00000388,0.13582063,0.137
 53761,0.00008002,0.00006053,-0.03247638,0.00000777,-0.00000162,0.00328
 270,-0.00000368,0.00000035,-0.00786387,-0.00000663,0.00000052,0.013210
 61,-0.00000583,-0.00000388,0.00132135,-0.00007308,-0.00005557,0.022760
 28,-0.00328091,0.00041922,0.00023148,-0.00047978,0.01808246,-0.0240276
 8,-0.04941591,0.00471909,-0.00920408,0.00133189,0.00025509,-0.00022109
 ,0.00009894,0.00078969,0.00188290,0.00013770,0.00017903,-0.00062038,0.
 05034057,0.00287204,0.00057708,0.00016853,0.00252455,-0.01518806,0.013
 82463,0.00292317,-0.13420756,0.12416981,-0.00104888,0.00013837,-0.0003
 2662,0.00033631,-0.00062629,-0.00178262,0.00008743,0.00015338,0.001142
 30,-0.00878906,0.14702798,-0.00023783,-0.00095460,0.00006100,-0.000395
 28,-0.00037095,0.00300637,-0.00759553,0.12303702,-0.21272336,0.0002139
 5,0.00004599,0.00012062,0.00004071,-0.00006656,-0.00036653,0.00000371,
 -0.00008226,0.00017264,0.00855143,-0.13573014,0.23085229,0.00151260,-0
 .00184272,-0.00000095,-0.02223577,-0.01866616,0.00001234,-0.22022642,-
 0.12735430,0.00012951,-0.00340451,0.00494546,0.00000053,0.00057150,-0.
 00001541,-0.00000131,0.00060693,0.00135463,0.00000074,0.00197199,0.001
 71882,0.00052491,0.24001289,0.00137541,0.00091050,-0.00000056,0.014908
 53,0.01177719,-0.00001131,-0.13049291,-0.14550327,0.00009210,0.0028903
 8,-0.00176082,0.00000002,-0.00017949,0.00028768,-0.00000070,-0.0001726
 4,-0.00007307,0.00000107,-0.01409167,-0.01094596,-0.00172223,0.1388713
 2,0.15567668,-0.00000017,-0.00000055,-0.00064639,-0.00000164,0.0000045
 2,-0.00146490,0.00013218,0.00009106,-0.04837510,-0.00000179,-0.0000019
 2,0.00099629,-0.00000034,-0.00000027,-0.00019326,0.00000014,-0.0000004
 0,0.00034515,0.02199976,0.01525262,0.00108183,-0.00014016,-0.00010417,
 0.04607914,-0.00328493,0.00042063,-0.00022969,-0.00045981,0.01809414,0
 .02401080,-0.04940990,0.00462730,0.00906491,0.00133233,0.00025948,0.00
 022580,0.00009984,0.00078976,-0.00188309,0.00013755,0.00017985,0.00061
 957,-0.00047032,-0.00103131,-0.00053384,0.00195267,-0.01410899,-0.0219
 8654,0.05033616,0.00287280,0.00057694,-0.00017088,0.00250557,-0.015193
 37,-0.01381087,0.00283777,-0.13444060,-0.12423849,-0.00105256,0.000139
 29,0.00032756,0.00033598,-0.00062565,0.00178079,0.00008711,0.00015334,
 -0.00114119,-0.00101604,0.01226655,0.01609478,0.00170487,-0.01095760,-
 0.01524228,-0.00868183,0.14727491,0.00023859,0.00095261,0.00005965,0.0
 0039099,0.00037504,0.00299447,0.00746721,-0.12310837,-0.21249725,-0.00
 021682,-0.00004568,0.00012106,-0.00004127,0.00006686,-0.00036553,-0.00
 000387,0.00008205,0.00017284,0.00051580,-0.01612643,-0.02253294,-0.000
 52680,0.00174441,0.00111278,-0.00839618,0.13580670,0.23060566,-0.00328
 091,-0.00041922,-0.00023148,-0.00047978,-0.01808245,0.02402768,0.00133
 189,-0.00025509,0.00022109,-0.04941591,-0.00471909,0.00920408,0.000137
 70,-0.00017903,0.00062038,0.00009894,-0.00078969,-0.00188290,-0.000533
 27,0.00050192,-0.00048182,0.00037296,0.00005888,-0.00038963,-0.0000738
 5,-0.00001301,-0.00002040,0.05034057,-0.00287204,0.00057708,0.00016853
 ,-0.00252455,-0.01518806,0.01382463,0.00104888,0.00013837,-0.00032662,
 -0.00292317,-0.13420756,0.12416981,-0.00008743,0.00015338,0.00114230,-
 0.00033631,-0.00062629,-0.00178262,-0.00050192,0.00065811,-0.00015496,
 0.00008239,-0.00004756,-0.00036680,0.00001260,0.00019396,-0.00007035,0
 .00878906,0.14702798,0.00023783,-0.00095460,0.00006100,0.00039528,-0.0
 0037095,0.00300637,-0.00021395,0.00004599,0.00012062,0.00759553,0.1230
 3702,-0.21272336,-0.00000371,-0.00008226,0.00017264,-0.00004071,-0.000
 06656,-0.00036653,0.00048182,-0.00015496,0.00023706,0.00011171,-0.0001
 6638,0.00023602,-0.00002131,0.00007027,-0.00014500,-0.00855143,-0.1357
 3014,0.23085229,0.00151260,0.00184272,0.00000095,-0.02223577,0.0186661
 6,-0.00001234,-0.00340451,-0.00494546,-0.00000053,-0.22022642,0.127354
 30,-0.00012951,0.00060693,-0.00135463,-0.00000074,0.00057150,0.0000154
 1,0.00000131,0.00037296,-0.00008239,-0.00011171,-0.00150866,0.00088207
 ,-0.00000037,0.00037383,-0.00008318,0.00011087,0.00197199,-0.00171882,
 -0.00052491,0.24001289,-0.00137541,0.00091050,-0.00000056,-0.01490853,
 0.01177719,-0.00001131,-0.00289038,-0.00176082,0.00000002,0.13049291,-
 0.14550327,0.00009210,0.00017264,-0.00007307,0.00000107,0.00017949,0.0
 0028768,-0.00000070,-0.00005888,-0.00004756,-0.00016638,-0.00088207,0.
 00068323,0.00000065,-0.00005911,-0.00004698,0.00016710,0.01409167,-0.0
 1094596,-0.00172223,-0.13887132,0.15567668,0.00000017,-0.00000055,-0.0
 0064639,0.00000164,0.00000452,-0.00146490,0.00000179,-0.00000192,0.000
 99629,-0.00013218,0.00009106,-0.04837510,-0.00000014,-0.00000040,0.000
 34515,0.00000034,-0.00000027,-0.00019326,0.00038963,-0.00036680,0.0002
 3602,0.00000037,0.00000065,0.00059212,-0.00038856,0.00036752,0.0002363
 2,-0.02199976,0.01525262,0.00108183,0.00014016,-0.00010417,0.04607914,
 -0.00328493,-0.00042063,0.00022969,-0.00045981,-0.01809413,-0.02401080
 ,0.00133233,-0.00025948,-0.00022580,-0.04940990,-0.00462730,-0.0090649
 1,0.00013755,-0.00017985,-0.00061957,0.00009984,-0.00078976,0.00188309
 ,-0.00007385,-0.00001260,0.00002131,0.00037383,0.00005911,0.00038856,-
 0.00053357,0.00050251,0.00048187,-0.00047032,0.00103131,0.00053384,0.0
 0195267,0.01410899,0.02198654,0.05033616,-0.00287280,0.00057694,-0.000
 17088,-0.00250557,-0.01519337,-0.01381087,0.00105256,0.00013929,0.0003
 2756,-0.00283777,-0.13444060,-0.12423849,-0.00008711,0.00015334,-0.001
 14119,-0.00033598,-0.00062565,0.00178079,0.00001301,0.00019396,0.00007
 027,0.00008318,-0.00004698,0.00036752,-0.00050251,0.00065921,0.0001560
 8,0.00101604,0.01226655,0.01609478,-0.00170487,-0.01095760,-0.01524228
 ,0.00868183,0.14727491,-0.00023859,0.00095261,0.00005965,-0.00039099,0
 .00037504,0.00299447,0.00021682,-0.00004568,0.00012106,-0.00746721,-0.
 12310837,-0.21249725,0.00000387,0.00008205,0.00017284,0.00004127,0.000
 06686,-0.00036553,0.00002040,-0.00007035,-0.00014500,-0.00011087,0.000
 16710,0.00023632,-0.00048187,0.00015608,0.00023794,-0.00051580,-0.0161
 2643,-0.02253294,0.00052680,0.00174441,0.00111278,0.00839618,0.1358067
 0,0.23060566\\0.,-0.00000788,0.00002454,0.,-0.00000925,0.00007450,0.00
 000671,0.00001990,-0.00002619,-0.00000671,0.00001990,-0.00002619,0.000
 00041,0.00000248,-0.00001464,-0.00000041,0.00000248,-0.00001464,-0.000
 00996,0.00000297,-0.00000294,-0.00000527,-0.00000172,-0.00000445,0.000
 00758,-0.00001507,-0.00000131,0.00000996,0.00000297,-0.00000294,0.0000
 0527,-0.00000172,-0.00000445,-0.00000758,-0.00001507,-0.00000131\\\@


 SLITHERY-DITHERY
 FRIEDRICH A. KEKULE
 DREAMT ON A BUS OF THINGS
 FREUD WOULD THINK KEEN.
 MOST OF THE TIME THEY WERE
 HERPETOLOGICAL
 BITING THEIR TAILS IN THE
 SHAPE OF BENZENE.
 Job cpu time:       0 days  0 hours 17 minutes 48.8 seconds.
 File lengths (MBytes):  RWF=     12 Int=      0 D2E=      0 Chk=      2 Scr=      1
 Normal termination of Gaussian 09 at Fri Jul 23 04:54:25 2021.
