 Entering Gaussian System, Link 0=g09
 Input=B3LYP6-31Gdp.Frag_731.gjf
 Output=B3LYP6-31Gdp.Frag_731.log
 Initial command:
 /public/home/users/caep010/software/Gaussian09/g09/l1.exe "/public/home/users/caep010/.cache/gau_scr/Gau-57059.inp" -scrdir="/public/home/users/caep010/.cache/gau_scr/"
 Entering Link 1 = /public/home/users/caep010/software/Gaussian09/g09/l1.exe PID=     57064.
  
 Copyright (c) 1988,1990,1992,1993,1995,1998,2003,2009,2015,
            Gaussian, Inc.  All Rights Reserved.
  
 This is part of the Gaussian(R) 09 program.  It is based on
 the Gaussian(R) 03 system (copyright 2003, Gaussian, Inc.),
 the Gaussian(R) 98 system (copyright 1998, Gaussian, Inc.),
 the Gaussian(R) 94 system (copyright 1995, Gaussian, Inc.),
 the Gaussian 92(TM) system (copyright 1992, Gaussian, Inc.),
 the Gaussian 90(TM) system (copyright 1990, Gaussian, Inc.),
 the Gaussian 88(TM) system (copyright 1988, Gaussian, Inc.),
 the Gaussian 86(TM) system (copyright 1986, Carnegie Mellon
 University), and the Gaussian 82(TM) system (copyright 1983,
 Carnegie Mellon University). Gaussian is a federally registered
 trademark of Gaussian, Inc.
  
 This software contains proprietary and confidential information,
 including trade secrets, belonging to Gaussian, Inc.
  
 This software is provided under written license and may be
 used, copied, transmitted, or stored only in accord with that
 written license.
  
 The following legend is applicable only to US Government
 contracts under FAR:
  
                    RESTRICTED RIGHTS LEGEND
  
 Use, reproduction and disclosure by the US Government is
 subject to restrictions as set forth in subparagraphs (a)
 and (c) of the Commercial Computer Software - Restricted
 Rights clause in FAR 52.227-19.
  
 Gaussian, Inc.
 340 Quinnipiac St., Bldg. 40, Wallingford CT 06492
  
  
 ---------------------------------------------------------------
 Warning -- This program may not be used in any manner that
 competes with the business of Gaussian, Inc. or will provide
 assistance to any competitor of Gaussian, Inc.  The licensee
 of this program is prohibited from giving any competitor of
 Gaussian, Inc. access to this program.  By using this program,
 the user acknowledges that Gaussian, Inc. is engaged in the
 business of creating and licensing software in the field of
 computational chemistry and represents and warrants to the
 licensee that it is not a competitor of Gaussian, Inc. and that
 it will not use this program in any manner prohibited above.
 ---------------------------------------------------------------
  

 Cite this work as:
 Gaussian 09, Revision E.01,
 M. J. Frisch, G. W. Trucks, H. B. Schlegel, G. E. Scuseria, 
 M. A. Robb, J. R. Cheeseman, G. Scalmani, V. Barone, B. Mennucci, 
 G. A. Petersson, H. Nakatsuji, M. Caricato, X. Li, H. P. Hratchian, 
 A. F. Izmaylov, J. Bloino, G. Zheng, J. L. Sonnenberg, M. Hada, 
 M. Ehara, K. Toyota, R. Fukuda, J. Hasegawa, M. Ishida, T. Nakajima, 
 Y. Honda, O. Kitao, H. Nakai, T. Vreven, J. A. Montgomery, Jr., 
 J. E. Peralta, F. Ogliaro, M. Bearpark, J. J. Heyd, E. Brothers, 
 K. N. Kudin, V. N. Staroverov, T. Keith, R. Kobayashi, J. Normand, 
 K. Raghavachari, A. Rendell, J. C. Burant, S. S. Iyengar, J. Tomasi, 
 M. Cossi, N. Rega, J. M. Millam, M. Klene, J. E. Knox, J. B. Cross, 
 V. Bakken, C. Adamo, J. Jaramillo, R. Gomperts, R. E. Stratmann, 
 O. Yazyev, A. J. Austin, R. Cammi, C. Pomelli, J. W. Ochterski, 
 R. L. Martin, K. Morokuma, V. G. Zakrzewski, G. A. Voth, 
 P. Salvador, J. J. Dannenberg, S. Dapprich, A. D. Daniels, 
 O. Farkas, J. B. Foresman, J. V. Ortiz, J. Cioslowski, 
 and D. J. Fox, Gaussian, Inc., Wallingford CT, 2013.
 
 ******************************************
 Gaussian 09:  ES64L-G09RevE.01 30-Nov-2015
                 8-Sep-2022 
 ******************************************
 %nproc=32
 Will use up to   32 processors via shared memory.
 %mem=180GB
 %chk=B3LYP6-31Gdp.Frag_731.chk
 ----------------------------
 #P OPT Freq B3LYP/6-31G(d,p)
 ----------------------------
 1/14=-1,18=20,19=15,26=3,38=1/1,3;
 2/9=110,12=2,17=6,18=5,40=1/2;
 3/5=1,6=6,7=101,11=2,16=1,25=1,30=1,71=1,74=-5/1,2,3;
 4//1;
 5/5=2,38=5/2;
 6/7=2,8=2,9=2,10=2,28=1/1;
 7//1,2,3,16;
 1/14=-1,18=20,19=15,26=3/3(2);
 2/9=110/2;
 99//99;
 2/9=110/2;
 3/5=1,6=6,7=101,11=2,16=1,25=1,30=1,71=1,74=-5/1,2,3;
 4/5=5,16=3,69=1/1;
 5/5=2,38=5/2;
 7//1,2,3,16;
 1/14=-1,18=20,19=15,26=3/3(-5);
 2/9=110/2;
 6/7=2,8=2,9=2,10=2,19=2,28=1/1;
 99/9=1/99;
 Leave Link    1 at Thu Sep  8 15:14:31 2022, MaxMem= 24159191040 cpu:         2.6
 (Enter /public/home/users/caep010/software/Gaussian09/g09/l101.exe)
 --------
 Frag_731
 --------
 Symbolic Z-matrix:
 Charge =  0 Multiplicity = 1
 N                     1.27437  -1.46089  -0.03486 
 C                     0.69272  -0.39967  -0.41183 
 C                    -0.47579   0.13597   0.36496 
 N                    -0.99915  -0.43965   1.3746 
 N                    -0.997     1.308    -0.1531 
 H                     2.04436  -1.70695  -0.65832 
 H                     0.98495   0.17897  -1.30001 
 H                    -0.50524  -1.31868   1.53896 
 H                    -1.66368   1.76418   0.45315 
 H                    -0.35544   1.93872  -0.60855 
 
 NAtoms=     10 NQM=       10 NQMF=       0 NMMI=      0 NMMIF=      0
                NMic=       0 NMicF=      0.
                    Isotopes and Nuclear Properties:
 (Nuclear quadrupole moments (NQMom) in fm**2, nuclear magnetic moments (NMagM)
  in nuclear magnetons)

  Atom         1           2           3           4           5           6           7           8           9          10
 IAtWgt=          14          12          12          14          14           1           1           1           1           1
 AtmWgt=  14.0030740  12.0000000  12.0000000  14.0030740  14.0030740   1.0078250   1.0078250   1.0078250   1.0078250   1.0078250
 NucSpn=           2           0           0           2           2           1           1           1           1           1
 AtZEff=   0.0000000   0.0000000   0.0000000   0.0000000   0.0000000   0.0000000   0.0000000   0.0000000   0.0000000   0.0000000
 NQMom=    2.0440000   0.0000000   0.0000000   2.0440000   2.0440000   0.0000000   0.0000000   0.0000000   0.0000000   0.0000000
 NMagM=    0.4037610   0.0000000   0.0000000   0.4037610   0.4037610   2.7928460   2.7928460   2.7928460   2.7928460   2.7928460
 AtZNuc=   7.0000000   6.0000000   6.0000000   7.0000000   7.0000000   1.0000000   1.0000000   1.0000000   1.0000000   1.0000000
 Leave Link  101 at Thu Sep  8 15:14:31 2022, MaxMem= 24159191040 cpu:         9.9
 (Enter /public/home/users/caep010/software/Gaussian09/g09/l103.exe)

 GradGradGradGradGradGradGradGradGradGradGradGradGradGradGradGradGradGrad
 Berny optimization.
 Initialization pass.
                           ----------------------------
                           !    Initial Parameters    !
                           ! (Angstroms and Degrees)  !
 --------------------------                            --------------------------
 ! Name  Definition              Value          Derivative Info.                !
 --------------------------------------------------------------------------------
 ! R1    R(1,2)                  1.2675         estimate D2E/DX2                !
 ! R2    R(1,6)                  1.0209         estimate D2E/DX2                !
 ! R3    R(2,3)                  1.5019         estimate D2E/DX2                !
 ! R4    R(2,7)                  1.0996         estimate D2E/DX2                !
 ! R5    R(3,4)                  1.2746         estimate D2E/DX2                !
 ! R6    R(3,5)                  1.3834         estimate D2E/DX2                !
 ! R7    R(4,8)                  1.0216         estimate D2E/DX2                !
 ! R8    R(5,9)                  1.01           estimate D2E/DX2                !
 ! R9    R(5,10)                 1.0084         estimate D2E/DX2                !
 ! A1    A(2,1,6)              111.4875         estimate D2E/DX2                !
 ! A2    A(1,2,3)              120.1194         estimate D2E/DX2                !
 ! A3    A(1,2,7)              123.9766         estimate D2E/DX2                !
 ! A4    A(3,2,7)              115.9033         estimate D2E/DX2                !
 ! A5    A(2,3,4)              124.6163         estimate D2E/DX2                !
 ! A6    A(2,3,5)              113.6788         estimate D2E/DX2                !
 ! A7    A(4,3,5)              121.6381         estimate D2E/DX2                !
 ! A8    A(3,4,8)              108.5125         estimate D2E/DX2                !
 ! A9    A(3,5,9)              113.9897         estimate D2E/DX2                !
 ! A10   A(3,5,10)             117.345          estimate D2E/DX2                !
 ! A11   A(9,5,10)             114.1148         estimate D2E/DX2                !
 ! D1    D(6,1,2,3)            179.6986         estimate D2E/DX2                !
 ! D2    D(6,1,2,7)              0.0197         estimate D2E/DX2                !
 ! D3    D(1,2,3,4)             -3.7616         estimate D2E/DX2                !
 ! D4    D(1,2,3,5)            179.1786         estimate D2E/DX2                !
 ! D5    D(7,2,3,4)            175.9425         estimate D2E/DX2                !
 ! D6    D(7,2,3,5)             -1.1173         estimate D2E/DX2                !
 ! D7    D(2,3,4,8)             -1.3178         estimate D2E/DX2                !
 ! D8    D(5,3,4,8)            175.5193         estimate D2E/DX2                !
 ! D9    D(2,3,5,9)           -169.1697         estimate D2E/DX2                !
 ! D10   D(2,3,5,10)           -31.9821         estimate D2E/DX2                !
 ! D11   D(4,3,5,9)             13.6723         estimate D2E/DX2                !
 ! D12   D(4,3,5,10)           150.8599         estimate D2E/DX2                !
 --------------------------------------------------------------------------------
 Trust Radius=3.00D-01 FncErr=1.00D-07 GrdErr=1.00D-06
 Number of steps in this run=     42 maximum allowed number of steps=    100.
 GradGradGradGradGradGradGradGradGradGradGradGradGradGradGradGradGradGrad

 Leave Link  103 at Thu Sep  8 15:14:31 2022, MaxMem= 24159191040 cpu:         0.4
 (Enter /public/home/users/caep010/software/Gaussian09/g09/l202.exe)
                          Input orientation:                          
 ---------------------------------------------------------------------
 Center     Atomic      Atomic             Coordinates (Angstroms)
 Number     Number       Type             X           Y           Z
 ---------------------------------------------------------------------
      1          7           0        1.274369   -1.460887   -0.034861
      2          6           0        0.692716   -0.399673   -0.411827
      3          6           0       -0.475787    0.135973    0.364957
      4          7           0       -0.999151   -0.439654    1.374596
      5          7           0       -0.997001    1.308000   -0.153100
      6          1           0        2.044360   -1.706953   -0.658324
      7          1           0        0.984951    0.178973   -1.300006
      8          1           0       -0.505244   -1.318675    1.538956
      9          1           0       -1.663677    1.764180    0.453154
     10          1           0       -0.355436    1.938717   -0.608546
 ---------------------------------------------------------------------
                    Distance matrix (angstroms):
                    1          2          3          4          5
     1  N    0.000000
     2  C    1.267517   0.000000
     3  C    2.402678   1.501902   0.000000
     4  N    2.863281   2.460756   1.274609   0.000000
     5  N    3.583272   2.416243   1.383363   2.321240   0.000000
     6  H    1.020853   1.896492   3.285517   3.873212   4.312200
     7  H    2.091290   1.099588   2.215334   3.387160   2.553082
     8  H    2.379947   2.466825   1.869530   1.021585   3.162957
     9  H    4.389912   3.314067   2.017404   2.479422   1.010000
    10  H    3.813487   2.570095   2.052335   3.162889   1.008385
                    6          7          8          9         10
     6  H    0.000000
     7  H    2.256285   0.000000
     8  H    3.388109   3.538833   0.000000
     9  H    5.199393   3.549885   3.467698   0.000000
    10  H    4.364906   2.317640   3.904460   1.693861   0.000000
 Stoichiometry    C2H5N3
 Framework group  C1[X(C2H5N3)]
 Deg. of freedom    24
 Full point group                 C1      NOp   1
 Largest Abelian subgroup         C1      NOp   1
 Largest concise Abelian subgroup C1      NOp   1
                         Standard orientation:                         
 ---------------------------------------------------------------------
 Center     Atomic      Atomic             Coordinates (Angstroms)
 Number     Number       Type             X           Y           Z
 ---------------------------------------------------------------------
      1          7           0       -1.916927    0.051038    0.032292
      2          6           0       -0.830332   -0.598639   -0.029585
      3          6           0        0.484250    0.127297   -0.005066
      4          7           0        0.610931    1.395536    0.007084
      5          7           0        1.583078   -0.711214   -0.061369
      6          1           0       -2.726368   -0.570210    0.000733
      7          1           0       -0.772836   -1.693940   -0.107716
      8          1           0       -0.320089    1.814835   -0.024939
      9          1           0        2.461614   -0.250075    0.127382
     10          1           0        1.494589   -1.620075    0.366396
 ---------------------------------------------------------------------
 Rotational constants (GHZ):     10.4668097      4.2234130      3.0173909
 Leave Link  202 at Thu Sep  8 15:14:31 2022, MaxMem= 24159191040 cpu:         0.5
 (Enter /public/home/users/caep010/software/Gaussian09/g09/l301.exe)
 Standard basis: 6-31G(d,p) (6D, 7F)
 Ernie: Thresh=  0.10000D-02 Tol=  0.10000D-05 Strict=F.
 There are   100 symmetry adapted cartesian basis functions of A   symmetry.
 There are   100 symmetry adapted basis functions of A   symmetry.
   100 basis functions,   175 primitive gaussians,   100 cartesian basis functions
    19 alpha electrons       19 beta electrons
       nuclear repulsion energy       163.6023926197 Hartrees.
 IExCor=  402 DFT=T Ex+Corr=B3LYP ExCW=0 ScaHFX=  0.200000
 ScaDFX=  0.800000  0.720000  1.000000  0.810000 ScalE2=  1.000000  1.000000
 IRadAn=      0 IRanWt=     -1 IRanGd=            0 ICorTp=0 IEmpDi=  4
 NAtoms=   10 NActive=   10 NUniq=   10 SFac= 1.00D+00 NAtFMM=   60 NAOKFM=F Big=F
 Integral buffers will be    131072 words long.
 Raffenetti 2 integral format.
 Two-electron integral symmetry is turned on.
 Leave Link  301 at Thu Sep  8 15:14:31 2022, MaxMem= 24159191040 cpu:         2.3
 (Enter /public/home/users/caep010/software/Gaussian09/g09/l302.exe)
 NPDir=0 NMtPBC=     1 NCelOv=     1 NCel=       1 NClECP=     1 NCelD=      1
         NCelK=      1 NCelE2=     1 NClLst=     1 CellRange=     0.0.
 One-electron integrals computed using PRISM.
 NBasis=   100 RedAO= T EigKep=  2.00D-03  NBF=   100
 NBsUse=   100 1.00D-06 EigRej= -1.00D+00 NBFU=   100
 Precomputing XC quadrature grid using
 IXCGrd= 4 IRadAn=           0 IRanWt=          -1 IRanGd=           0 AccXCQ= 0.00D+00.
 Generated NRdTot=       0 NPtTot=           0 NUsed=           0 NTot=          32
 NSgBfM=   100   100   100   100   100 MxSgAt=    10 MxSgA2=    10.
 Leave Link  302 at Thu Sep  8 15:14:32 2022, MaxMem= 24159191040 cpu:        10.8
 (Enter /public/home/users/caep010/software/Gaussian09/g09/l303.exe)
 DipDrv:  MaxL=1.
 Leave Link  303 at Thu Sep  8 15:14:32 2022, MaxMem= 24159191040 cpu:         0.7
 (Enter /public/home/users/caep010/software/Gaussian09/g09/l401.exe)
 ExpMin= 1.61D-01 ExpMax= 4.17D+03 ExpMxC= 6.27D+02 IAcc=1 IRadAn=         1 AccDes= 0.00D+00
 Harris functional with IExCor=  402 and IRadAn=       1 diagonalized for initial guess.
 HarFok:  IExCor=  402 AccDes= 0.00D+00 IRadAn=         1 IDoV= 1 UseB2=F ITyADJ=14
 ICtDFT=  3500011 ScaDFX=  1.000000  1.000000  1.000000  1.000000
 FoFCou: FMM=F IPFlag=           0 FMFlag=      100000 FMFlg1=           0
         NFxFlg=           0 DoJE=T BraDBF=F KetDBF=T FulRan=T
         wScrn=  0.000000 ICntrl=     500 IOpCl=  0 I1Cent=   200000004 NGrid=           0
         NMat0=    1 NMatS0=      1 NMatT0=    0 NMatD0=    1 NMtDS0=    0 NMtDT0=    0
 Petite list used in FoFCou.
 Harris En= -243.454877827895    
 JPrj=0 DoOrth=F DoCkMO=F.
 Leave Link  401 at Thu Sep  8 15:14:32 2022, MaxMem= 24159191040 cpu:         9.7
 (Enter /public/home/users/caep010/software/Gaussian09/g09/l502.exe)
 Closed shell SCF:
 Using DIIS extrapolation, IDIIS=  1040.
 Integral symmetry usage will be decided dynamically.
 Keep R1 ints in memory in canonical form, NReq=13729312.
 IVT=       52505 IEndB=       52505 NGot= 24159191040 MDV= 24146384761
 LenX= 24146384761 LenY= 24146374320
 Requested convergence on RMS density matrix=1.00D-08 within 128 cycles.
 Requested convergence on MAX density matrix=1.00D-06.
 Requested convergence on             energy=1.00D-06.
 No special actions if energy rises.
 FoFCou: FMM=F IPFlag=           0 FMFlag=           0 FMFlg1=           0
         NFxFlg=           0 DoJE=F BraDBF=F KetDBF=F FulRan=T
         wScrn=  0.000000 ICntrl=     600 IOpCl=  0 I1Cent=           0 NGrid=           0
         NMat0=    1 NMatS0=   5050 NMatT0=    0 NMatD0=    1 NMtDS0=    0 NMtDT0=    0
 Symmetry not used in FoFCou.
 Integral accuracy reduced to 1.0D-05 until final iterations.

 Cycle   1  Pass 0  IDiag  1:
 E= -243.303814092757    
 DIIS: error= 3.41D-02 at cycle   1 NSaved=   1.
 NSaved= 1 IEnMin= 1 EnMin= -243.303814092757     IErMin= 1 ErrMin= 3.41D-02
 ErrMax= 3.41D-02  0.00D+00 EMaxC= 1.00D-01 BMatC= 1.71D-01 BMatP= 1.71D-01
 IDIUse=3 WtCom= 6.59D-01 WtEn= 3.41D-01
 Coeff-Com:  0.100D+01
 Coeff-En:   0.100D+01
 Coeff:      0.100D+01
 Gap=     0.137 Goal=   None    Shift=    0.000
 GapD=    0.137 DampG=1.000 DampE=0.500 DampFc=0.5000 IDamp=-1.
 Damping current iteration by 5.00D-01
 RMSDP=1.11D-02 MaxDP=2.04D-01              OVMax= 2.94D-01

 Cycle   2  Pass 0  IDiag  1:
 E= -243.346268624232     Delta-E=       -0.042454531475 Rises=F Damp=T
 DIIS: error= 1.24D-02 at cycle   2 NSaved=   2.
 NSaved= 2 IEnMin= 2 EnMin= -243.346268624232     IErMin= 2 ErrMin= 1.24D-02
 ErrMax= 1.24D-02  0.00D+00 EMaxC= 1.00D-01 BMatC= 2.33D-02 BMatP= 1.71D-01
 IDIUse=3 WtCom= 8.76D-01 WtEn= 1.24D-01
 Coeff-Com:  0.207D+00 0.793D+00
 Coeff-En:   0.344D+00 0.656D+00
 Coeff:      0.224D+00 0.776D+00
 Gap=     0.222 Goal=   None    Shift=    0.000
 RMSDP=3.06D-03 MaxDP=4.61D-02 DE=-4.25D-02 OVMax= 2.19D-01

 Cycle   3  Pass 0  IDiag  1:
 E= -243.436335191133     Delta-E=       -0.090066566902 Rises=F Damp=F
 DIIS: error= 1.18D-02 at cycle   3 NSaved=   3.
 NSaved= 3 IEnMin= 3 EnMin= -243.436335191133     IErMin= 3 ErrMin= 1.18D-02
 ErrMax= 1.18D-02  0.00D+00 EMaxC= 1.00D-01 BMatC= 2.01D-02 BMatP= 2.33D-02
 IDIUse=3 WtCom= 8.82D-01 WtEn= 1.18D-01
 Coeff-Com:  0.777D-01 0.478D+00 0.444D+00
 Coeff-En:   0.000D+00 0.000D+00 0.100D+01
 Coeff:      0.685D-01 0.422D+00 0.510D+00
 Gap=     0.192 Goal=   None    Shift=    0.000
 RMSDP=1.82D-03 MaxDP=3.60D-02 DE=-9.01D-02 OVMax= 8.29D-02

 Cycle   4  Pass 0  IDiag  1:
 E= -243.452389067832     Delta-E=       -0.016053876699 Rises=F Damp=F
 DIIS: error= 5.54D-03 at cycle   4 NSaved=   4.
 NSaved= 4 IEnMin= 4 EnMin= -243.452389067832     IErMin= 4 ErrMin= 5.54D-03
 ErrMax= 5.54D-03  0.00D+00 EMaxC= 1.00D-01 BMatC= 3.83D-03 BMatP= 2.01D-02
 IDIUse=3 WtCom= 9.45D-01 WtEn= 5.54D-02
 Coeff-Com:  0.124D-01 0.502D-01 0.305D+00 0.633D+00
 Coeff-En:   0.000D+00 0.000D+00 0.187D+00 0.813D+00
 Coeff:      0.117D-01 0.475D-01 0.298D+00 0.643D+00
 Gap=     0.187 Goal=   None    Shift=    0.000
 RMSDP=5.82D-04 MaxDP=1.45D-02 DE=-1.61D-02 OVMax= 2.91D-02

 Cycle   5  Pass 0  IDiag  1:
 E= -243.455648400671     Delta-E=       -0.003259332839 Rises=F Damp=F
 DIIS: error= 9.26D-04 at cycle   5 NSaved=   5.
 NSaved= 5 IEnMin= 5 EnMin= -243.455648400671     IErMin= 5 ErrMin= 9.26D-04
 ErrMax= 9.26D-04  0.00D+00 EMaxC= 1.00D-01 BMatC= 1.93D-04 BMatP= 3.83D-03
 IDIUse=3 WtCom= 9.91D-01 WtEn= 9.26D-03
 Coeff-Com:  0.299D-02-0.339D-02 0.141D+00 0.364D+00 0.496D+00
 Coeff-En:   0.000D+00 0.000D+00 0.000D+00 0.000D+00 0.100D+01
 Coeff:      0.297D-02-0.336D-02 0.140D+00 0.360D+00 0.500D+00
 Gap=     0.189 Goal=   None    Shift=    0.000
 RMSDP=1.45D-04 MaxDP=3.22D-03 DE=-3.26D-03 OVMax= 5.98D-03

 Cycle   6  Pass 0  IDiag  1:
 E= -243.455817416002     Delta-E=       -0.000169015331 Rises=F Damp=F
 DIIS: error= 2.27D-04 at cycle   6 NSaved=   6.
 NSaved= 6 IEnMin= 6 EnMin= -243.455817416002     IErMin= 6 ErrMin= 2.27D-04
 ErrMax= 2.27D-04  0.00D+00 EMaxC= 1.00D-01 BMatC= 9.49D-06 BMatP= 1.93D-04
 IDIUse=3 WtCom= 9.98D-01 WtEn= 2.27D-03
 Coeff-Com:  0.115D-02-0.378D-02 0.549D-01 0.141D+00 0.259D+00 0.548D+00
 Coeff-En:   0.000D+00 0.000D+00 0.000D+00 0.000D+00 0.000D+00 0.100D+01
 Coeff:      0.115D-02-0.378D-02 0.548D-01 0.140D+00 0.259D+00 0.549D+00
 Gap=     0.190 Goal=   None    Shift=    0.000
 RMSDP=3.96D-05 MaxDP=9.36D-04 DE=-1.69D-04 OVMax= 1.61D-03

 Cycle   7  Pass 0  IDiag  1:
 E= -243.455824249602     Delta-E=       -0.000006833600 Rises=F Damp=F
 DIIS: error= 1.35D-04 at cycle   7 NSaved=   7.
 NSaved= 7 IEnMin= 7 EnMin= -243.455824249602     IErMin= 7 ErrMin= 1.35D-04
 ErrMax= 1.35D-04  0.00D+00 EMaxC= 1.00D-01 BMatC= 2.45D-06 BMatP= 9.49D-06
 IDIUse=3 WtCom= 9.99D-01 WtEn= 1.35D-03
 Coeff-Com:  0.416D-03-0.241D-02 0.159D-01 0.391D-01 0.105D+00 0.372D+00
 Coeff-Com:  0.470D+00
 Coeff-En:   0.000D+00 0.000D+00 0.000D+00 0.000D+00 0.000D+00 0.182D+00
 Coeff-En:   0.818D+00
 Coeff:      0.415D-03-0.240D-02 0.159D-01 0.391D-01 0.105D+00 0.371D+00
 Coeff:      0.471D+00
 Gap=     0.189 Goal=   None    Shift=    0.000
 RMSDP=1.50D-05 MaxDP=4.03D-04 DE=-6.83D-06 OVMax= 6.66D-04

 Cycle   8  Pass 0  IDiag  1:
 E= -243.455826418375     Delta-E=       -0.000002168774 Rises=F Damp=F
 DIIS: error= 1.07D-05 at cycle   8 NSaved=   8.
 NSaved= 8 IEnMin= 8 EnMin= -243.455826418375     IErMin= 8 ErrMin= 1.07D-05
 ErrMax= 1.07D-05  0.00D+00 EMaxC= 1.00D-01 BMatC= 3.52D-08 BMatP= 2.45D-06
 IDIUse=1 WtCom= 1.00D+00 WtEn= 0.00D+00
 Coeff-Com:  0.892D-04-0.506D-03 0.107D-02 0.165D-02 0.140D-01 0.583D-01
 Coeff-Com:  0.136D+00 0.789D+00
 Coeff:      0.892D-04-0.506D-03 0.107D-02 0.165D-02 0.140D-01 0.583D-01
 Coeff:      0.136D+00 0.789D+00
 Gap=     0.189 Goal=   None    Shift=    0.000
 RMSDP=2.11D-06 MaxDP=3.25D-05 DE=-2.17D-06 OVMax= 6.37D-05

 Initial convergence to 1.0D-05 achieved.  Increase integral accuracy.
 Cycle   9  Pass 1  IDiag  1:
 E= -243.455843556001     Delta-E=       -0.000017137626 Rises=F Damp=F
 DIIS: error= 5.36D-06 at cycle   1 NSaved=   1.
 NSaved= 1 IEnMin= 1 EnMin= -243.455843556001     IErMin= 1 ErrMin= 5.36D-06
 ErrMax= 5.36D-06  0.00D+00 EMaxC= 1.00D-01 BMatC= 8.12D-09 BMatP= 8.12D-09
 IDIUse=1 WtCom= 1.00D+00 WtEn= 0.00D+00
 Coeff-Com:  0.100D+01
 Coeff:      0.100D+01
 Gap=     0.189 Goal=   None    Shift=    0.000
 RMSDP=2.11D-06 MaxDP=3.25D-05 DE=-1.71D-05 OVMax= 6.05D-05

 Cycle  10  Pass 1  IDiag  1:
 E= -243.455843556757     Delta-E=       -0.000000000756 Rises=F Damp=F
 DIIS: error= 5.48D-06 at cycle   2 NSaved=   2.
 NSaved= 2 IEnMin= 2 EnMin= -243.455843556757     IErMin= 1 ErrMin= 5.36D-06
 ErrMax= 5.48D-06  0.00D+00 EMaxC= 1.00D-01 BMatC= 8.82D-09 BMatP= 8.12D-09
 IDIUse=1 WtCom= 1.00D+00 WtEn= 0.00D+00
 Coeff-Com:  0.512D+00 0.488D+00
 Coeff:      0.512D+00 0.488D+00
 Gap=     0.189 Goal=   None    Shift=    0.000
 RMSDP=1.28D-06 MaxDP=2.69D-05 DE=-7.56D-10 OVMax= 5.76D-05

 Cycle  11  Pass 1  IDiag  1:
 E= -243.455843563602     Delta-E=       -0.000000006845 Rises=F Damp=F
 DIIS: error= 2.87D-06 at cycle   3 NSaved=   3.
 NSaved= 3 IEnMin= 3 EnMin= -243.455843563602     IErMin= 3 ErrMin= 2.87D-06
 ErrMax= 2.87D-06  0.00D+00 EMaxC= 1.00D-01 BMatC= 1.91D-09 BMatP= 8.12D-09
 IDIUse=1 WtCom= 1.00D+00 WtEn= 0.00D+00
 Coeff-Com:  0.138D+00 0.313D+00 0.549D+00
 Coeff:      0.138D+00 0.313D+00 0.549D+00
 Gap=     0.189 Goal=   None    Shift=    0.000
 RMSDP=4.85D-07 MaxDP=1.27D-05 DE=-6.84D-09 OVMax= 2.34D-05

 Cycle  12  Pass 1  IDiag  1:
 E= -243.455843565001     Delta-E=       -0.000000001399 Rises=F Damp=F
 DIIS: error= 1.15D-06 at cycle   4 NSaved=   4.
 NSaved= 4 IEnMin= 4 EnMin= -243.455843565001     IErMin= 4 ErrMin= 1.15D-06
 ErrMax= 1.15D-06  0.00D+00 EMaxC= 1.00D-01 BMatC= 3.16D-10 BMatP= 1.91D-09
 IDIUse=1 WtCom= 1.00D+00 WtEn= 0.00D+00
 Coeff-Com: -0.117D-01 0.117D+00 0.348D+00 0.547D+00
 Coeff:     -0.117D-01 0.117D+00 0.348D+00 0.547D+00
 Gap=     0.189 Goal=   None    Shift=    0.000
 RMSDP=1.54D-07 MaxDP=4.28D-06 DE=-1.40D-09 OVMax= 6.12D-06

 Cycle  13  Pass 1  IDiag  1:
 E= -243.455843565281     Delta-E=       -0.000000000280 Rises=F Damp=F
 DIIS: error= 2.06D-07 at cycle   5 NSaved=   5.
 NSaved= 5 IEnMin= 5 EnMin= -243.455843565281     IErMin= 5 ErrMin= 2.06D-07
 ErrMax= 2.06D-07  0.00D+00 EMaxC= 1.00D-01 BMatC= 4.94D-12 BMatP= 3.16D-10
 IDIUse=1 WtCom= 1.00D+00 WtEn= 0.00D+00
 Coeff-Com: -0.706D-02 0.469D-01 0.129D+00 0.243D+00 0.588D+00
 Coeff:     -0.706D-02 0.469D-01 0.129D+00 0.243D+00 0.588D+00
 Gap=     0.189 Goal=   None    Shift=    0.000
 RMSDP=2.65D-08 MaxDP=4.26D-07 DE=-2.80D-10 OVMax= 6.99D-07

 Cycle  14  Pass 1  IDiag  1:
 E= -243.455843565288     Delta-E=       -0.000000000007 Rises=F Damp=F
 DIIS: error= 6.70D-08 at cycle   6 NSaved=   6.
 NSaved= 6 IEnMin= 6 EnMin= -243.455843565288     IErMin= 6 ErrMin= 6.70D-08
 ErrMax= 6.70D-08  0.00D+00 EMaxC= 1.00D-01 BMatC= 5.76D-13 BMatP= 4.94D-12
 IDIUse=1 WtCom= 1.00D+00 WtEn= 0.00D+00
 Coeff-Com: -0.272D-02 0.148D-01 0.340D-01 0.797D-01 0.307D+00 0.567D+00
 Coeff:     -0.272D-02 0.148D-01 0.340D-01 0.797D-01 0.307D+00 0.567D+00
 Gap=     0.189 Goal=   None    Shift=    0.000
 RMSDP=7.68D-09 MaxDP=1.72D-07 DE=-6.99D-12 OVMax= 1.87D-07

 SCF Done:  E(RB3LYP) =  -243.455843565     A.U. after   14 cycles
            NFock= 14  Conv=0.77D-08     -V/T= 2.0092
 KE= 2.412392701494D+02 PE=-8.941509129254D+02 EE= 2.458534065910D+02
 Leave Link  502 at Thu Sep  8 15:14:33 2022, MaxMem= 24159191040 cpu:        31.5
 (Enter /public/home/users/caep010/software/Gaussian09/g09/l601.exe)
 Copying SCF densities to generalized density rwf, IOpCl= 0 IROHF=0.

 **********************************************************************

            Population analysis using the SCF density.

 **********************************************************************

 Orbital symmetries:
       Occupied  (A) (A) (A) (A) (A) (A) (A) (A) (A) (A) (A) (A)
                 (A) (A) (A) (A) (A) (A) (A)
       Virtual   (A) (A) (A) (A) (A) (A) (A) (A) (A) (A) (A) (A)
                 (A) (A) (A) (A) (A) (A) (A) (A) (A) (A) (A) (A)
                 (A) (A) (A) (A) (A) (A) (A) (A) (A) (A) (A) (A)
                 (A) (A) (A) (A) (A) (A) (A) (A) (A) (A) (A) (A)
                 (A) (A) (A) (A) (A) (A) (A) (A) (A) (A) (A) (A)
                 (A) (A) (A) (A) (A) (A) (A) (A) (A) (A) (A) (A)
                 (A) (A) (A) (A) (A) (A) (A) (A) (A)
 The electronic state is 1-A.
 Alpha  occ. eigenvalues --  -14.34883 -14.34423 -14.29204 -10.25660 -10.25207
 Alpha  occ. eigenvalues --   -0.95408  -0.91245  -0.84636  -0.67266  -0.57168
 Alpha  occ. eigenvalues --   -0.52957  -0.51240  -0.44620  -0.43874  -0.39426
 Alpha  occ. eigenvalues --   -0.32401  -0.28928  -0.25767  -0.23896
 Alpha virt. eigenvalues --   -0.04951   0.06796   0.08378   0.10197   0.14031
 Alpha virt. eigenvalues --    0.14594   0.19062   0.25541   0.31962   0.37917
 Alpha virt. eigenvalues --    0.41555   0.53084   0.54193   0.59238   0.60556
 Alpha virt. eigenvalues --    0.62434   0.63221   0.68494   0.72963   0.73276
 Alpha virt. eigenvalues --    0.73493   0.77639   0.80350   0.82298   0.84157
 Alpha virt. eigenvalues --    0.85390   0.85844   0.91090   0.97272   1.00867
 Alpha virt. eigenvalues --    1.03005   1.07732   1.14991   1.25670   1.30023
 Alpha virt. eigenvalues --    1.34667   1.36168   1.40096   1.52274   1.56035
 Alpha virt. eigenvalues --    1.61489   1.67992   1.73969   1.78902   1.85048
 Alpha virt. eigenvalues --    1.88398   1.94650   1.96693   2.03188   2.13348
 Alpha virt. eigenvalues --    2.13814   2.22996   2.24231   2.31734   2.34160
 Alpha virt. eigenvalues --    2.37843   2.40306   2.43019   2.44065   2.48307
 Alpha virt. eigenvalues --    2.55053   2.60169   2.64085   2.66429   2.67714
 Alpha virt. eigenvalues --    2.72637   2.76242   2.92068   2.95105   3.08506
 Alpha virt. eigenvalues --    3.11805   3.26812   3.32941   3.38481   3.52951
 Alpha virt. eigenvalues --    3.56601   3.90226   4.01452   4.06785   4.14623
 Alpha virt. eigenvalues --    4.51109
          Condensed to atoms (all electrons):
               1          2          3          4          5          6
     1  N    6.714782   0.563908  -0.068172  -0.014580   0.002353   0.309338
     2  C    0.563908   4.929091   0.286315  -0.084587  -0.086729  -0.044284
     3  C   -0.068172   0.286315   4.583125   0.632918   0.291046   0.010322
     4  N   -0.014580  -0.084587   0.632918   6.781365  -0.089139   0.000158
     5  N    0.002353  -0.086729   0.291046  -0.089139   6.814666  -0.000223
     6  H    0.309338  -0.044284   0.010322   0.000158  -0.000223   0.499160
     7  H   -0.054206   0.341179  -0.067124   0.005336   0.003535  -0.019453
     8  H    0.021161  -0.021533  -0.066238   0.333802   0.008850  -0.000700
     9  H   -0.000118   0.008384  -0.014584   0.003058   0.328769   0.000006
    10  H   -0.000026  -0.003046  -0.029007   0.004189   0.339609  -0.000040
               7          8          9         10
     1  N   -0.054206   0.021161  -0.000118  -0.000026
     2  C    0.341179  -0.021533   0.008384  -0.003046
     3  C   -0.067124  -0.066238  -0.014584  -0.029007
     4  N    0.005336   0.333802   0.003058   0.004189
     5  N    0.003535   0.008850   0.328769   0.339609
     6  H   -0.019453  -0.000700   0.000006  -0.000040
     7  H    0.704573   0.001335  -0.000543   0.004288
     8  H    0.001335   0.475868  -0.000552  -0.000272
     9  H   -0.000543  -0.000552   0.428186  -0.027536
    10  H    0.004288  -0.000272  -0.027536   0.454846
 Mulliken charges:
               1
     1  N   -0.474441
     2  C    0.111301
     3  C    0.441399
     4  N   -0.572520
     5  N   -0.612737
     6  H    0.245715
     7  H    0.081080
     8  H    0.248279
     9  H    0.274929
    10  H    0.256994
 Sum of Mulliken charges =  -0.00000
 Mulliken charges with hydrogens summed into heavy atoms:
               1
     1  N   -0.228725
     2  C    0.192381
     3  C    0.441399
     4  N   -0.324241
     5  N   -0.080814
 Electronic spatial extent (au):  <R**2>=            408.7337
 Charge=             -0.0000 electrons
 Dipole moment (field-independent basis, Debye):
    X=             -0.4495    Y=             -3.8376    Z=              0.7724  Tot=              3.9403
 Quadrupole moment (field-independent basis, Debye-Ang):
   XX=            -25.1305   YY=            -29.2548   ZZ=            -31.0770
   XY=             -0.7066   XZ=              2.0818   YZ=             -1.4616
 Traceless Quadrupole moment (field-independent basis, Debye-Ang):
   XX=              3.3569   YY=             -0.7674   ZZ=             -2.5896
   XY=             -0.7066   XZ=              2.0818   YZ=             -1.4616
 Octapole moment (field-independent basis, Debye-Ang**2):
  XXX=              3.0544  YYY=             -9.6975  ZZZ=              0.7537  XYY=             -4.4394
  XXY=            -12.7379  XXZ=              3.1501  XZZ=             -0.6495  YZZ=             -0.4601
  YYZ=              1.7350  XYZ=             -2.1876
 Hexadecapole moment (field-independent basis, Debye-Ang**3):
 XXXX=           -253.7197 YYYY=           -150.0289 ZZZZ=            -29.1484 XXXY=             12.9944
 XXXZ=              8.6918 YYYX=            -17.8179 YYYZ=             -3.9360 ZZZX=              1.5472
 ZZZY=             -1.2497 XXYY=            -82.1387 XXZZ=            -62.9590 YYZZ=            -32.4010
 XXYZ=             -4.0447 YYXZ=              3.4888 ZZXY=             -0.4251
 N-N= 1.636023926197D+02 E-N=-8.941509115729D+02  KE= 2.412392701494D+02
 No NMR shielding tensors so no spin-rotation constants.
 Leave Link  601 at Thu Sep  8 15:14:34 2022, MaxMem= 24159191040 cpu:        14.9
 (Enter /public/home/users/caep010/software/Gaussian09/g09/l701.exe)
 Compute integral first derivatives.
 ... and contract with generalized density number  0.
 Leave Link  701 at Thu Sep  8 15:14:34 2022, MaxMem= 24159191040 cpu:        10.4
 (Enter /public/home/users/caep010/software/Gaussian09/g09/l702.exe)
 L702 exits ... SP integral derivatives will be done elsewhere.
 Leave Link  702 at Thu Sep  8 15:14:34 2022, MaxMem= 24159191040 cpu:         0.6
 (Enter /public/home/users/caep010/software/Gaussian09/g09/l703.exe)
 Compute integral first derivatives, UseDBF=F ICtDFT=           0.
 Integral derivatives from FoFJK, PRISM(SPDF).
 Calling FoFJK, ICntrl=      2127 FMM=F ISym2X=0 I1Cent= 0 IOpClX= 0 NMat=1 NMatS=1 NMatT=0.
 FoFJK:  IHMeth= 1 ICntrl=    2127 DoSepK=F KAlg= 0 I1Cent=   0 FoldK=F
 IRaf=         0 NMat=   1 IRICut=       1 DoRegI=T DoRafI=F ISym2E= 0.
 FoFCou: FMM=F IPFlag=           0 FMFlag=      100000 FMFlg1=         800
         NFxFlg=           0 DoJE=F BraDBF=F KetDBF=F FulRan=T
         wScrn=  0.000000 ICntrl=    2127 IOpCl=  0 I1Cent=           0 NGrid=           0
         NMat0=    1 NMatS0=      1 NMatT0=    0 NMatD0=    1 NMtDS0=    0 NMtDT0=    0
 Symmetry not used in FoFCou.
 Leave Link  703 at Thu Sep  8 15:14:35 2022, MaxMem= 24159191040 cpu:         8.8
 (Enter /public/home/users/caep010/software/Gaussian09/g09/l716.exe)
 Dipole        =-1.76852509D-01-1.50982206D+00 3.03884995D-01
 ***** Axes restored to original set *****
 -------------------------------------------------------------------
 Center     Atomic                   Forces (Hartrees/Bohr)
 Number     Number              X              Y              Z
 -------------------------------------------------------------------
      1        7           0.000520958   -0.003881874    0.003338303
      2        6          -0.000428985    0.003317151   -0.003150965
      3        6           0.001723508    0.000481932   -0.001884013
      4        7          -0.002921082   -0.000611107    0.003766552
      5        7          -0.000591658    0.000294400   -0.000583018
      6        1           0.000897721   -0.000018499   -0.001035865
      7        1           0.000186130    0.000312148   -0.000591789
      8        1           0.000732544   -0.001172182    0.000081029
      9        1          -0.001055893    0.000177946    0.000697205
     10        1           0.000936759    0.001100086   -0.000637440
 -------------------------------------------------------------------
 Cartesian Forces:  Max     0.003881874 RMS     0.001699295
 Leave Link  716 at Thu Sep  8 15:14:35 2022, MaxMem= 24159191040 cpu:         0.7
 (Enter /public/home/users/caep010/software/Gaussian09/g09/l103.exe)

 GradGradGradGradGradGradGradGradGradGradGradGradGradGradGradGradGradGrad
 Berny optimization.
 FormGI is forming the generalized inverse of G from B-inverse, IUseBI=4.
 Internal  Forces:  Max     0.004751592 RMS     0.001398414
 Search for a local minimum.
 Step number   1 out of a maximum of   42
 All quantities printed in internal units (Hartrees-Bohrs-Radians)
 RMS Force = .13984D-02 SwitMx=.10000D-02 MixMth= 1
 Mixed Optimization -- RFO/linear search
 Second derivative matrix not updated -- first step.
 ITU=  0
     Eigenvalues ---    0.00741   0.01742   0.01783   0.01912   0.03350
     Eigenvalues ---    0.03444   0.03999   0.16000   0.16000   0.16000
     Eigenvalues ---    0.16000   0.16000   0.22000   0.24974   0.24990
     Eigenvalues ---    0.32179   0.33728   0.44086   0.44202   0.45972
     Eigenvalues ---    0.46244   0.48493   0.74768   0.77086
 RFO step:  Lambda=-1.25780869D-04 EMin= 7.40789107D-03
 Linear search not attempted -- first point.
 Iteration  1 RMS(Cart)=  0.00783242 RMS(Int)=  0.00003721
 Iteration  2 RMS(Cart)=  0.00003893 RMS(Int)=  0.00000130
 Iteration  3 RMS(Cart)=  0.00000000 RMS(Int)=  0.00000130
 ITry= 1 IFail=0 DXMaxC= 2.18D-02 DCOld= 1.00D+10 DXMaxT= 3.00D-01 DXLimC= 3.00D+00 Rises=F
 Variable       Old X    -DE/DX   Delta X   Delta X   Delta X     New X
                                 (Linear)    (Quad)   (Total)
    R1        2.39526   0.00460   0.00000   0.00597   0.00597   2.40123
    R2        1.92913   0.00132   0.00000   0.00297   0.00297   1.93211
    R3        2.83818   0.00176   0.00000   0.00546   0.00546   2.84364
    R4        2.07792   0.00069   0.00000   0.00205   0.00205   2.07997
    R5        2.40866   0.00475   0.00000   0.00635   0.00635   2.41502
    R6        2.61418   0.00179   0.00000   0.00370   0.00370   2.61788
    R7        1.93052   0.00138   0.00000   0.00312   0.00312   1.93364
    R8        1.90862   0.00120   0.00000   0.00260   0.00260   1.91123
    R9        1.90557   0.00157   0.00000   0.00340   0.00340   1.90897
    A1        1.94582  -0.00075   0.00000  -0.00471  -0.00471   1.94112
    A2        2.09648  -0.00138   0.00000  -0.00625  -0.00625   2.09023
    A3        2.16380   0.00065   0.00000   0.00286   0.00286   2.16666
    A4        2.02289   0.00073   0.00000   0.00339   0.00339   2.02628
    A5        2.17496   0.00013   0.00000   0.00048   0.00048   2.17544
    A6        1.98407   0.00046   0.00000   0.00178   0.00178   1.98585
    A7        2.12299  -0.00059   0.00000  -0.00241  -0.00241   2.12057
    A8        1.89390  -0.00030   0.00000  -0.00184  -0.00184   1.89206
    A9        1.98950  -0.00032   0.00000  -0.00130  -0.00130   1.98820
   A10        2.04806   0.00030   0.00000   0.00258   0.00258   2.05063
   A11        1.99168   0.00013   0.00000   0.00175   0.00175   1.99343
    D1        3.13633  -0.00002   0.00000  -0.00049  -0.00049   3.13585
    D2        0.00034  -0.00003   0.00000  -0.00083  -0.00083  -0.00048
    D3       -0.06565  -0.00010   0.00000  -0.00967  -0.00967  -0.07533
    D4        3.12726  -0.00002   0.00000  -0.00632  -0.00631   3.12094
    D5        3.07078  -0.00009   0.00000  -0.00936  -0.00936   3.06142
    D6       -0.01950  -0.00002   0.00000  -0.00600  -0.00600  -0.02550
    D7       -0.02300  -0.00001   0.00000   0.00075   0.00075  -0.02225
    D8        3.06339  -0.00006   0.00000  -0.00273  -0.00273   3.06066
    D9       -2.95257  -0.00033   0.00000  -0.01512  -0.01512  -2.96769
   D10       -0.55819  -0.00015   0.00000  -0.01069  -0.01069  -0.56888
   D11        0.23863  -0.00028   0.00000  -0.01196  -0.01197   0.22666
   D12        2.63300  -0.00010   0.00000  -0.00754  -0.00754   2.62546
         Item               Value     Threshold  Converged?
 Maximum Force            0.004752     0.000450     NO 
 RMS     Force            0.001398     0.000300     NO 
 Maximum Displacement     0.021759     0.001800     NO 
 RMS     Displacement     0.007827     0.001200     NO 
 Predicted change in Energy=-6.295944D-05
 Lowest energy point so far.  Saving SCF results.
 GradGradGradGradGradGradGradGradGradGradGradGradGradGradGradGradGradGrad

 Leave Link  103 at Thu Sep  8 15:14:35 2022, MaxMem= 24159191040 cpu:         1.4
 (Enter /public/home/users/caep010/software/Gaussian09/g09/l202.exe)
                          Input orientation:                          
 ---------------------------------------------------------------------
 Center     Atomic      Atomic             Coordinates (Angstroms)
 Number     Number       Type             X           Y           Z
 ---------------------------------------------------------------------
      1          7           0        1.276796   -1.461695   -0.029450
      2          6           0        0.694841   -0.400495   -0.416484
      3          6           0       -0.473266    0.138133    0.364414
      4          7           0       -0.998893   -0.439066    1.376229
      5          7           0       -0.996628    1.312288   -0.151886
      6          1           0        2.045510   -1.711557   -0.655553
      7          1           0        0.984960    0.172191   -1.310545
      8          1           0       -0.505384   -1.320760    1.537723
      9          1           0       -1.672163    1.760731    0.452627
     10          1           0       -0.355672    1.950231   -0.602076
 ---------------------------------------------------------------------
                    Distance matrix (angstroms):
                    1          2          3          4          5
     1  N    0.000000
     2  C    1.270674   0.000000
     3  C    2.403600   1.504791   0.000000
     4  N    2.863645   2.466585   1.277971   0.000000
     5  N    3.588653   2.421716   1.385321   2.324303   0.000000
     6  H    1.022427   1.897457   3.287235   3.875017   4.318787
     7  H    2.096653   1.100674   2.221052   3.395300   2.563007
     8  H    2.377406   2.471104   1.872446   1.023238   3.166867
     9  H    4.394631   3.320988   2.019396   2.479000   1.011377
    10  H    3.825453   2.581460   2.057093   3.167990   1.010182
                    6          7          8          9         10
     6  H    0.000000
     7  H    2.258824   0.000000
     8  H    3.386775   3.544385   0.000000
     9  H    5.206336   3.562659   3.469062   0.000000
    10  H    4.379181   2.336803   3.911590   1.697486   0.000000
 Stoichiometry    C2H5N3
 Framework group  C1[X(C2H5N3)]
 Deg. of freedom    24
 Full point group                 C1      NOp   1
 RotChk:  IX=0 Diff= 2.08D-03
 Largest Abelian subgroup         C1      NOp   1
 Largest concise Abelian subgroup C1      NOp   1
                         Standard orientation:                         
 ---------------------------------------------------------------------
 Center     Atomic      Atomic             Coordinates (Angstroms)
 Number     Number       Type             X           Y           Z
 ---------------------------------------------------------------------
      1          7           0       -1.918339    0.052457    0.035383
      2          6           0       -0.832145   -0.603409   -0.032684
      3          6           0        0.483811    0.125872   -0.004330
      4          7           0        0.609549    1.397597    0.006450
      5          7           0        1.587069   -0.710122   -0.059566
      6          1           0       -2.729021   -0.569549   -0.000138
      7          1           0       -0.776613   -1.699348   -0.118233
      8          1           0       -0.324058    1.814894   -0.028996
      9          1           0        2.465637   -0.241857    0.118567
     10          1           0        1.506106   -1.618444    0.375017
 ---------------------------------------------------------------------
 Rotational constants (GHZ):     10.4358332      4.2111926      3.0088999
 Leave Link  202 at Thu Sep  8 15:14:35 2022, MaxMem= 24159191040 cpu:         0.5
 (Enter /public/home/users/caep010/software/Gaussian09/g09/l301.exe)
 Standard basis: 6-31G(d,p) (6D, 7F)
 Ernie: Thresh=  0.10000D-02 Tol=  0.10000D-05 Strict=F.
 There are   100 symmetry adapted cartesian basis functions of A   symmetry.
 There are   100 symmetry adapted basis functions of A   symmetry.
   100 basis functions,   175 primitive gaussians,   100 cartesian basis functions
    19 alpha electrons       19 beta electrons
       nuclear repulsion energy       163.3209541686 Hartrees.
 IExCor=  402 DFT=T Ex+Corr=B3LYP ExCW=0 ScaHFX=  0.200000
 ScaDFX=  0.800000  0.720000  1.000000  0.810000 ScalE2=  1.000000  1.000000
 IRadAn=      0 IRanWt=     -1 IRanGd=            0 ICorTp=0 IEmpDi=  4
 NAtoms=   10 NActive=   10 NUniq=   10 SFac= 1.00D+00 NAtFMM=   60 NAOKFM=F Big=F
 Integral buffers will be    131072 words long.
 Raffenetti 2 integral format.
 Two-electron integral symmetry is turned on.
 Leave Link  301 at Thu Sep  8 15:14:35 2022, MaxMem= 24159191040 cpu:         1.6
 (Enter /public/home/users/caep010/software/Gaussian09/g09/l302.exe)
 NPDir=0 NMtPBC=     1 NCelOv=     1 NCel=       1 NClECP=     1 NCelD=      1
         NCelK=      1 NCelE2=     1 NClLst=     1 CellRange=     0.0.
 One-electron integrals computed using PRISM.
 NBasis=   100 RedAO= T EigKep=  2.04D-03  NBF=   100
 NBsUse=   100 1.00D-06 EigRej= -1.00D+00 NBFU=   100
 Precomputing XC quadrature grid using
 IXCGrd= 4 IRadAn=           0 IRanWt=          -1 IRanGd=           0 AccXCQ= 0.00D+00.
 Generated NRdTot=       0 NPtTot=           0 NUsed=           0 NTot=          32
 NSgBfM=   100   100   100   100   100 MxSgAt=    10 MxSgA2=    10.
 Leave Link  302 at Thu Sep  8 15:14:36 2022, MaxMem= 24159191040 cpu:        11.3
 (Enter /public/home/users/caep010/software/Gaussian09/g09/l303.exe)
 DipDrv:  MaxL=1.
 Leave Link  303 at Thu Sep  8 15:14:36 2022, MaxMem= 24159191040 cpu:         1.6
 (Enter /public/home/users/caep010/software/Gaussian09/g09/l401.exe)
 Initial guess from the checkpoint file:  "B3LYP6-31Gdp.Frag_731.chk"
 B after Tr=     0.000000   -0.000000   -0.000000
         Rot=    1.000000    0.000108   -0.000052   -0.000482 Ang=   0.06 deg.
 Guess basis will be translated and rotated to current coordinates.
 JPrj=2 DoOrth=T DoCkMO=T.
 Generating alternative initial guess.
 ExpMin= 1.61D-01 ExpMax= 4.17D+03 ExpMxC= 6.27D+02 IAcc=1 IRadAn=         1 AccDes= 0.00D+00
 Harris functional with IExCor=  402 and IRadAn=       1 diagonalized for initial guess.
 HarFok:  IExCor=  402 AccDes= 0.00D+00 IRadAn=         1 IDoV= 1 UseB2=F ITyADJ=14
 ICtDFT=  3500011 ScaDFX=  1.000000  1.000000  1.000000  1.000000
 FoFCou: FMM=F IPFlag=           0 FMFlag=      100000 FMFlg1=           0
         NFxFlg=           0 DoJE=T BraDBF=F KetDBF=T FulRan=T
         wScrn=  0.000000 ICntrl=     500 IOpCl=  0 I1Cent=   200000004 NGrid=           0
         NMat0=    1 NMatS0=      1 NMatT0=    0 NMatD0=    1 NMtDS0=    0 NMtDT0=    0
 Petite list used in FoFCou.
 Harris En= -243.454079136793    
 Leave Link  401 at Thu Sep  8 15:14:36 2022, MaxMem= 24159191040 cpu:        13.1
 (Enter /public/home/users/caep010/software/Gaussian09/g09/l502.exe)
 Closed shell SCF:
 Using DIIS extrapolation, IDIIS=  1040.
 Integral symmetry usage will be decided dynamically.
 Keep R1 ints in memory in canonical form, NReq=13729312.
 IVT=       52505 IEndB=       52505 NGot= 24159191040 MDV= 24146384761
 LenX= 24146384761 LenY= 24146374320
 Requested convergence on RMS density matrix=1.00D-08 within 128 cycles.
 Requested convergence on MAX density matrix=1.00D-06.
 Requested convergence on             energy=1.00D-06.
 No special actions if energy rises.
 FoFCou: FMM=F IPFlag=           0 FMFlag=           0 FMFlg1=           0
         NFxFlg=           0 DoJE=F BraDBF=F KetDBF=F FulRan=T
         wScrn=  0.000000 ICntrl=     600 IOpCl=  0 I1Cent=           0 NGrid=           0
         NMat0=    1 NMatS0=   5050 NMatT0=    0 NMatD0=    1 NMtDS0=    0 NMtDT0=    0
 Symmetry not used in FoFCou.
 Integral accuracy reduced to 1.0D-05 until final iterations.

 Cycle   1  Pass 0  IDiag  1:
 E= -243.455822537030    
 DIIS: error= 4.32D-04 at cycle   1 NSaved=   1.
 NSaved= 1 IEnMin= 1 EnMin= -243.455822537030     IErMin= 1 ErrMin= 4.32D-04
 ErrMax= 4.32D-04  0.00D+00 EMaxC= 1.00D-01 BMatC= 4.36D-05 BMatP= 4.36D-05
 IDIUse=3 WtCom= 9.96D-01 WtEn= 4.32D-03
 Coeff-Com:  0.100D+01
 Coeff-En:   0.100D+01
 Coeff:      0.100D+01
 Gap=     1.908 Goal=   None    Shift=    0.000
 RMSDP=1.37D-04 MaxDP=1.59D-03              OVMax= 3.23D-03

 Cycle   2  Pass 0  IDiag  1:
 E= -243.455893323132     Delta-E=       -0.000070786102 Rises=F Damp=F
 DIIS: error= 1.12D-04 at cycle   2 NSaved=   2.
 NSaved= 2 IEnMin= 2 EnMin= -243.455893323132     IErMin= 2 ErrMin= 1.12D-04
 ErrMax= 1.12D-04  0.00D+00 EMaxC= 1.00D-01 BMatC= 2.85D-06 BMatP= 4.36D-05
 IDIUse=3 WtCom= 9.99D-01 WtEn= 1.12D-03
 Coeff-Com:  0.568D-01 0.943D+00
 Coeff-En:   0.000D+00 0.100D+01
 Coeff:      0.568D-01 0.943D+00
 Gap=     0.188 Goal=   None    Shift=    0.000
 RMSDP=3.65D-05 MaxDP=5.52D-04 DE=-7.08D-05 OVMax= 7.93D-04

 Cycle   3  Pass 0  IDiag  1:
 E= -243.455894269712     Delta-E=       -0.000000946580 Rises=F Damp=F
 DIIS: error= 1.12D-04 at cycle   3 NSaved=   3.
 NSaved= 3 IEnMin= 3 EnMin= -243.455894269712     IErMin= 2 ErrMin= 1.12D-04
 ErrMax= 1.12D-04  0.00D+00 EMaxC= 1.00D-01 BMatC= 2.40D-06 BMatP= 2.85D-06
 IDIUse=3 WtCom= 9.99D-01 WtEn= 1.12D-03
 Coeff-Com: -0.318D-01 0.484D+00 0.547D+00
 Coeff-En:   0.000D+00 0.391D+00 0.609D+00
 Coeff:     -0.318D-01 0.484D+00 0.548D+00
 Gap=     0.188 Goal=   None    Shift=    0.000
 RMSDP=1.83D-05 MaxDP=3.74D-04 DE=-9.47D-07 OVMax= 4.99D-04

 Cycle   4  Pass 0  IDiag  1:
 E= -243.455896230594     Delta-E=       -0.000001960882 Rises=F Damp=F
 DIIS: error= 4.45D-05 at cycle   4 NSaved=   4.
 NSaved= 4 IEnMin= 4 EnMin= -243.455896230594     IErMin= 4 ErrMin= 4.45D-05
 ErrMax= 4.45D-05  0.00D+00 EMaxC= 1.00D-01 BMatC= 2.61D-07 BMatP= 2.40D-06
 IDIUse=1 WtCom= 1.00D+00 WtEn= 0.00D+00
 Coeff-Com: -0.214D-01 0.246D+00 0.338D+00 0.438D+00
 Coeff:     -0.214D-01 0.246D+00 0.338D+00 0.438D+00
 Gap=     0.188 Goal=   None    Shift=    0.000
 RMSDP=5.72D-06 MaxDP=1.41D-04 DE=-1.96D-06 OVMax= 2.41D-04

 Initial convergence to 1.0D-05 achieved.  Increase integral accuracy.
 Cycle   5  Pass 1  IDiag  1:
 E= -243.455912385831     Delta-E=       -0.000016155237 Rises=F Damp=F
 DIIS: error= 1.26D-05 at cycle   1 NSaved=   1.
 NSaved= 1 IEnMin= 1 EnMin= -243.455912385831     IErMin= 1 ErrMin= 1.26D-05
 ErrMax= 1.26D-05  0.00D+00 EMaxC= 1.00D-01 BMatC= 2.84D-08 BMatP= 2.84D-08
 IDIUse=1 WtCom= 1.00D+00 WtEn= 0.00D+00
 Coeff-Com:  0.100D+01
 Coeff:      0.100D+01
 Gap=     0.188 Goal=   None    Shift=    0.000
 RMSDP=5.72D-06 MaxDP=1.41D-04 DE=-1.62D-05 OVMax= 1.67D-04

 Cycle   6  Pass 1  IDiag  1:
 E= -243.455912322505     Delta-E=        0.000000063326 Rises=F Damp=F
 DIIS: error= 2.82D-05 at cycle   2 NSaved=   2.
 NSaved= 2 IEnMin= 1 EnMin= -243.455912385831     IErMin= 1 ErrMin= 1.26D-05
 ErrMax= 2.82D-05  0.00D+00 EMaxC= 1.00D-01 BMatC= 1.02D-07 BMatP= 2.84D-08
 IDIUse=1 WtCom= 1.00D+00 WtEn= 0.00D+00
 Coeff-Com:  0.663D+00 0.337D+00
 Coeff:      0.663D+00 0.337D+00
 Gap=     0.188 Goal=   None    Shift=    0.000
 RMSDP=2.87D-06 MaxDP=6.70D-05 DE= 6.33D-08 OVMax= 1.17D-04

 Cycle   7  Pass 1  IDiag  1:
 E= -243.455912414656     Delta-E=       -0.000000092151 Rises=F Damp=F
 DIIS: error= 2.64D-06 at cycle   3 NSaved=   3.
 NSaved= 3 IEnMin= 3 EnMin= -243.455912414656     IErMin= 3 ErrMin= 2.64D-06
 ErrMax= 2.64D-06  0.00D+00 EMaxC= 1.00D-01 BMatC= 1.47D-09 BMatP= 2.84D-08
 IDIUse=1 WtCom= 1.00D+00 WtEn= 0.00D+00
 Coeff-Com:  0.184D+00 0.142D+00 0.674D+00
 Coeff:      0.184D+00 0.142D+00 0.674D+00
 Gap=     0.188 Goal=   None    Shift=    0.000
 RMSDP=6.24D-07 MaxDP=1.11D-05 DE=-9.22D-08 OVMax= 1.92D-05

 Cycle   8  Pass 1  IDiag  1:
 E= -243.455912415831     Delta-E=       -0.000000001175 Rises=F Damp=F
 DIIS: error= 1.08D-06 at cycle   4 NSaved=   4.
 NSaved= 4 IEnMin= 4 EnMin= -243.455912415831     IErMin= 4 ErrMin= 1.08D-06
 ErrMax= 1.08D-06  0.00D+00 EMaxC= 1.00D-01 BMatC= 2.71D-10 BMatP= 1.47D-09
 IDIUse=1 WtCom= 1.00D+00 WtEn= 0.00D+00
 Coeff-Com: -0.264D-02 0.229D-01 0.343D+00 0.637D+00
 Coeff:     -0.264D-02 0.229D-01 0.343D+00 0.637D+00
 Gap=     0.188 Goal=   None    Shift=    0.000
 RMSDP=2.33D-07 MaxDP=5.31D-06 DE=-1.17D-09 OVMax= 9.10D-06

 Cycle   9  Pass 1  IDiag  1:
 E= -243.455912416052     Delta-E=       -0.000000000220 Rises=F Damp=F
 DIIS: error= 5.42D-07 at cycle   5 NSaved=   5.
 NSaved= 5 IEnMin= 5 EnMin= -243.455912416052     IErMin= 5 ErrMin= 5.42D-07
 ErrMax= 5.42D-07  0.00D+00 EMaxC= 1.00D-01 BMatC= 5.82D-11 BMatP= 2.71D-10
 IDIUse=1 WtCom= 1.00D+00 WtEn= 0.00D+00
 Coeff-Com: -0.153D-01 0.456D-02 0.184D+00 0.409D+00 0.418D+00
 Coeff:     -0.153D-01 0.456D-02 0.184D+00 0.409D+00 0.418D+00
 Gap=     0.188 Goal=   None    Shift=    0.000
 RMSDP=8.07D-08 MaxDP=1.93D-06 DE=-2.20D-10 OVMax= 3.90D-06

 Cycle  10  Pass 1  IDiag  1:
 E= -243.455912416097     Delta-E=       -0.000000000046 Rises=F Damp=F
 DIIS: error= 1.13D-07 at cycle   6 NSaved=   6.
 NSaved= 6 IEnMin= 6 EnMin= -243.455912416097     IErMin= 6 ErrMin= 1.13D-07
 ErrMax= 1.13D-07  0.00D+00 EMaxC= 1.00D-01 BMatC= 2.97D-12 BMatP= 5.82D-11
 IDIUse=1 WtCom= 1.00D+00 WtEn= 0.00D+00
 Coeff-Com: -0.439D-02-0.162D-02 0.238D-01 0.619D-01 0.201D+00 0.719D+00
 Coeff:     -0.439D-02-0.162D-02 0.238D-01 0.619D-01 0.201D+00 0.719D+00
 Gap=     0.188 Goal=   None    Shift=    0.000
 RMSDP=2.16D-08 MaxDP=4.00D-07 DE=-4.58D-11 OVMax= 9.46D-07

 Cycle  11  Pass 1  IDiag  1:
 E= -243.455912416107     Delta-E=       -0.000000000009 Rises=F Damp=F
 DIIS: error= 2.01D-08 at cycle   7 NSaved=   7.
 NSaved= 7 IEnMin= 7 EnMin= -243.455912416107     IErMin= 7 ErrMin= 2.01D-08
 ErrMax= 2.01D-08  0.00D+00 EMaxC= 1.00D-01 BMatC= 1.18D-13 BMatP= 2.97D-12
 IDIUse=1 WtCom= 1.00D+00 WtEn= 0.00D+00
 Coeff-Com: -0.140D-03-0.934D-03-0.999D-02-0.174D-01 0.236D-01 0.230D+00
 Coeff-Com:  0.775D+00
 Coeff:     -0.140D-03-0.934D-03-0.999D-02-0.174D-01 0.236D-01 0.230D+00
 Coeff:      0.775D+00
 Gap=     0.188 Goal=   None    Shift=    0.000
 RMSDP=5.27D-09 MaxDP=7.54D-08 DE=-9.21D-12 OVMax= 2.33D-07

 SCF Done:  E(RB3LYP) =  -243.455912416     A.U. after   11 cycles
            NFock= 11  Conv=0.53D-08     -V/T= 2.0094
 KE= 2.411971556872D+02 PE=-8.935623717685D+02 EE= 2.455883494966D+02
 Leave Link  502 at Thu Sep  8 15:14:37 2022, MaxMem= 24159191040 cpu:        23.4
 (Enter /public/home/users/caep010/software/Gaussian09/g09/l701.exe)
 Compute integral first derivatives.
 ... and contract with generalized density number  0.
 Leave Link  701 at Thu Sep  8 15:14:38 2022, MaxMem= 24159191040 cpu:        11.1
 (Enter /public/home/users/caep010/software/Gaussian09/g09/l702.exe)
 L702 exits ... SP integral derivatives will be done elsewhere.
 Leave Link  702 at Thu Sep  8 15:14:38 2022, MaxMem= 24159191040 cpu:         0.5
 (Enter /public/home/users/caep010/software/Gaussian09/g09/l703.exe)
 Compute integral first derivatives, UseDBF=F ICtDFT=           0.
 Integral derivatives from FoFJK, PRISM(SPDF).
 Calling FoFJK, ICntrl=      2127 FMM=F ISym2X=0 I1Cent= 0 IOpClX= 0 NMat=1 NMatS=1 NMatT=0.
 FoFJK:  IHMeth= 1 ICntrl=    2127 DoSepK=F KAlg= 0 I1Cent=   0 FoldK=F
 IRaf=         0 NMat=   1 IRICut=       1 DoRegI=T DoRafI=F ISym2E= 0.
 FoFCou: FMM=F IPFlag=           0 FMFlag=      100000 FMFlg1=         800
         NFxFlg=           0 DoJE=F BraDBF=F KetDBF=F FulRan=T
         wScrn=  0.000000 ICntrl=    2127 IOpCl=  0 I1Cent=           0 NGrid=           0
         NMat0=    1 NMatS0=      1 NMatT0=    0 NMatD0=    1 NMtDS0=    0 NMtDT0=    0
 Symmetry not used in FoFCou.
 Leave Link  703 at Thu Sep  8 15:14:38 2022, MaxMem= 24159191040 cpu:         9.1
 (Enter /public/home/users/caep010/software/Gaussian09/g09/l716.exe)
 Dipole        =-1.73215623D-01-1.51245051D+00 2.94902780D-01
 ***** Axes restored to original set *****
 -------------------------------------------------------------------
 Center     Atomic                   Forces (Hartrees/Bohr)
 Number     Number              X              Y              Z
 -------------------------------------------------------------------
      1        7          -0.000035151   -0.000473711    0.000609876
      2        6          -0.000214514    0.000782791   -0.000543833
      3        6           0.000288607   -0.000144808   -0.000221212
      4        7          -0.000338019    0.000303765    0.000298668
      5        7           0.000074813   -0.000056502   -0.000190407
      6        1           0.000121175    0.000039388   -0.000263432
      7        1          -0.000071620   -0.000216651    0.000215497
      8        1           0.000164650   -0.000057607   -0.000165378
      9        1          -0.000003875   -0.000194483    0.000064326
     10        1           0.000013934    0.000017819    0.000195896
 -------------------------------------------------------------------
 Cartesian Forces:  Max     0.000782791 RMS     0.000281003
 Leave Link  716 at Thu Sep  8 15:14:38 2022, MaxMem= 24159191040 cpu:         0.5
 (Enter /public/home/users/caep010/software/Gaussian09/g09/l103.exe)

 GradGradGradGradGradGradGradGradGradGradGradGradGradGradGradGradGradGrad
 Berny optimization.
 Using GEDIIS/GDIIS optimizer.
 FormGI is forming the generalized inverse of G from B-inverse, IUseBI=4.
 Internal  Forces:  Max     0.000505854 RMS     0.000188057
 Search for a local minimum.
 Step number   2 out of a maximum of   42
 All quantities printed in internal units (Hartrees-Bohrs-Radians)
 RMS Force = .18806D-03 SwitMx=.10000D-02 MixMth= 2
 Mixed Optimization -- En-DIIS/RFO-DIIS
 Update second derivatives using D2CorX and points    1    2
 DE= -6.89D-05 DEPred=-6.30D-05 R= 1.09D+00
 TightC=F SS=  1.41D+00  RLast= 3.28D-02 DXNew= 5.0454D-01 9.8331D-02
 Trust test= 1.09D+00 RLast= 3.28D-02 DXMaxT set to 3.00D-01
 ITU=  1  0
 Use linear search instead of GDIIS.
     Eigenvalues ---    0.00729   0.01732   0.01769   0.01790   0.03349
     Eigenvalues ---    0.03442   0.04032   0.15096   0.16000   0.16000
     Eigenvalues ---    0.16000   0.16069   0.21571   0.24752   0.24982
     Eigenvalues ---    0.32723   0.34338   0.43696   0.44155   0.46038
     Eigenvalues ---    0.46592   0.49917   0.75249   0.76604
 RFO step:  Lambda=-8.40055795D-06 EMin= 7.28797458D-03
 Quartic linear search produced a step of  0.11084.
 Iteration  1 RMS(Cart)=  0.00440730 RMS(Int)=  0.00001552
 Iteration  2 RMS(Cart)=  0.00001405 RMS(Int)=  0.00000134
 Iteration  3 RMS(Cart)=  0.00000000 RMS(Int)=  0.00000134
 ITry= 1 IFail=0 DXMaxC= 1.21D-02 DCOld= 1.00D+10 DXMaxT= 3.00D-01 DXLimC= 3.00D+00 Rises=F
 Variable       Old X    -DE/DX   Delta X   Delta X   Delta X     New X
                                 (Linear)    (Quad)   (Total)
    R1        2.40123   0.00051   0.00066   0.00046   0.00112   2.40235
    R2        1.93211   0.00024   0.00033   0.00048   0.00081   1.93292
    R3        2.84364  -0.00021   0.00061  -0.00097  -0.00036   2.84328
    R4        2.07997  -0.00031   0.00023  -0.00110  -0.00087   2.07910
    R5        2.41502   0.00007   0.00070  -0.00019   0.00052   2.41553
    R6        2.61788  -0.00026   0.00041  -0.00075  -0.00034   2.61753
    R7        1.93364   0.00010   0.00035   0.00012   0.00047   1.93411
    R8        1.91123  -0.00004   0.00029  -0.00022   0.00006   1.91129
    R9        1.90897  -0.00007   0.00038  -0.00032   0.00006   1.90903
    A1        1.94112  -0.00030  -0.00052  -0.00191  -0.00243   1.93868
    A2        2.09023  -0.00021  -0.00069  -0.00080  -0.00149   2.08874
    A3        2.16666   0.00006   0.00032   0.00005   0.00037   2.16703
    A4        2.02628   0.00016   0.00038   0.00074   0.00111   2.02739
    A5        2.17544   0.00008   0.00005   0.00034   0.00040   2.17584
    A6        1.98585   0.00014   0.00020   0.00057   0.00076   1.98661
    A7        2.12057  -0.00022  -0.00027  -0.00089  -0.00115   2.11942
    A8        1.89206  -0.00042  -0.00020  -0.00283  -0.00304   1.88902
    A9        1.98820  -0.00028  -0.00014  -0.00253  -0.00268   1.98552
   A10        2.05063   0.00001   0.00029  -0.00069  -0.00041   2.05022
   A11        1.99343   0.00011   0.00019  -0.00023  -0.00004   1.99339
    D1        3.13585  -0.00006  -0.00005  -0.00271  -0.00276   3.13308
    D2       -0.00048  -0.00002  -0.00009   0.00011   0.00002  -0.00046
    D3       -0.07533  -0.00001  -0.00107  -0.00278  -0.00385  -0.07918
    D4        3.12094  -0.00001  -0.00070  -0.00323  -0.00392   3.11702
    D5        3.06142  -0.00005  -0.00104  -0.00539  -0.00642   3.05499
    D6       -0.02550  -0.00005  -0.00067  -0.00583  -0.00649  -0.03200
    D7       -0.02225  -0.00003   0.00008  -0.00088  -0.00079  -0.02305
    D8        3.06066  -0.00001  -0.00030  -0.00036  -0.00066   3.06000
    D9       -2.96769  -0.00003  -0.00168  -0.00361  -0.00529  -2.97297
   D10       -0.56888  -0.00018  -0.00118  -0.00801  -0.00920  -0.57808
   D11        0.22666  -0.00004  -0.00133  -0.00408  -0.00540   0.22126
   D12        2.62546  -0.00019  -0.00084  -0.00848  -0.00932   2.61615
         Item               Value     Threshold  Converged?
 Maximum Force            0.000506     0.000450     NO 
 RMS     Force            0.000188     0.000300     YES
 Maximum Displacement     0.012145     0.001800     NO 
 RMS     Displacement     0.004407     0.001200     NO 
 Predicted change in Energy=-4.809930D-06
 Lowest energy point so far.  Saving SCF results.
 GradGradGradGradGradGradGradGradGradGradGradGradGradGradGradGradGradGrad

 Leave Link  103 at Thu Sep  8 15:14:38 2022, MaxMem= 24159191040 cpu:         2.5
 (Enter /public/home/users/caep010/software/Gaussian09/g09/l202.exe)
                          Input orientation:                          
 ---------------------------------------------------------------------
 Center     Atomic      Atomic             Coordinates (Angstroms)
 Number     Number       Type             X           Y           Z
 ---------------------------------------------------------------------
      1          7           0        1.278243   -1.460270   -0.025924
      2          6           0        0.695026   -0.400666   -0.417358
      3          6           0       -0.472599    0.138774    0.363328
      4          7           0       -0.998849   -0.437498    1.375692
      5          7           0       -0.996047    1.312877   -0.152518
      6          1           0        2.044880   -1.711884   -0.654568
      7          1           0        0.982147    0.166967   -1.315034
      8          1           0       -0.504521   -1.319426    1.534962
      9          1           0       -1.674551    1.756793    0.452068
     10          1           0       -0.353629    1.954334   -0.595649
 ---------------------------------------------------------------------
                    Distance matrix (angstroms):
                    1          2          3          4          5
     1  N    0.000000
     2  C    1.271268   0.000000
     3  C    2.402896   1.504598   0.000000
     4  N    2.862821   2.466901   1.278245   0.000000
     5  N    3.588699   2.422003   1.385140   2.323628   0.000000
     6  H    1.022856   1.896752   3.286145   3.874313   4.318387
     7  H    2.096993   1.100213   2.221257   3.395546   2.564723
     8  H    2.373700   2.468722   1.870854   1.023487   3.165155
     9  H    4.392831   3.320456   2.017560   2.474786   1.011412
    10  H    3.827154   2.584084   2.056707   3.165968   1.010213
                    6          7          8          9         10
     6  H    0.000000
     7  H    2.257366   0.000000
     8  H    3.383417   3.541473   0.000000
     9  H    5.204856   3.564862   3.464788   0.000000
    10  H    4.381492   2.344460   3.908935   1.697518   0.000000
 Stoichiometry    C2H5N3
 Framework group  C1[X(C2H5N3)]
 Deg. of freedom    24
 Full point group                 C1      NOp   1
 RotChk:  IX=0 Diff= 1.08D-03
 Largest Abelian subgroup         C1      NOp   1
 Largest concise Abelian subgroup C1      NOp   1
                         Standard orientation:                         
 ---------------------------------------------------------------------
 Center     Atomic      Atomic             Coordinates (Angstroms)
 Number     Number       Type             X           Y           Z
 ---------------------------------------------------------------------
      1          7           0       -1.918034    0.053423    0.037503
      2          6           0       -0.832358   -0.604077   -0.034074
      3          6           0        0.483422    0.125085   -0.004713
      4          7           0        0.609708    1.397030    0.006142
      5          7           0        1.587200   -0.709987   -0.058928
      6          1           0       -2.728519   -0.569307   -0.001938
      7          1           0       -0.778164   -1.699118   -0.125816
      8          1           0       -0.325157    1.811979   -0.030885
      9          1           0        2.464441   -0.237772    0.115473
     10          1           0        1.508901   -1.615092    0.382871
 ---------------------------------------------------------------------
 Rotational constants (GHZ):     10.4425056      4.2110487      3.0097126
 Leave Link  202 at Thu Sep  8 15:14:38 2022, MaxMem= 24159191040 cpu:         0.2
 (Enter /public/home/users/caep010/software/Gaussian09/g09/l301.exe)
 Standard basis: 6-31G(d,p) (6D, 7F)
 Ernie: Thresh=  0.10000D-02 Tol=  0.10000D-05 Strict=F.
 There are   100 symmetry adapted cartesian basis functions of A   symmetry.
 There are   100 symmetry adapted basis functions of A   symmetry.
   100 basis functions,   175 primitive gaussians,   100 cartesian basis functions
    19 alpha electrons       19 beta electrons
       nuclear repulsion energy       163.3267185104 Hartrees.
 IExCor=  402 DFT=T Ex+Corr=B3LYP ExCW=0 ScaHFX=  0.200000
 ScaDFX=  0.800000  0.720000  1.000000  0.810000 ScalE2=  1.000000  1.000000
 IRadAn=      0 IRanWt=     -1 IRanGd=            0 ICorTp=0 IEmpDi=  4
 NAtoms=   10 NActive=   10 NUniq=   10 SFac= 1.00D+00 NAtFMM=   60 NAOKFM=F Big=F
 Integral buffers will be    131072 words long.
 Raffenetti 2 integral format.
 Two-electron integral symmetry is turned on.
 Leave Link  301 at Thu Sep  8 15:14:38 2022, MaxMem= 24159191040 cpu:         1.6
 (Enter /public/home/users/caep010/software/Gaussian09/g09/l302.exe)
 NPDir=0 NMtPBC=     1 NCelOv=     1 NCel=       1 NClECP=     1 NCelD=      1
         NCelK=      1 NCelE2=     1 NClLst=     1 CellRange=     0.0.
 One-electron integrals computed using PRISM.
 NBasis=   100 RedAO= T EigKep=  2.04D-03  NBF=   100
 NBsUse=   100 1.00D-06 EigRej= -1.00D+00 NBFU=   100
 Precomputing XC quadrature grid using
 IXCGrd= 4 IRadAn=           0 IRanWt=          -1 IRanGd=           0 AccXCQ= 0.00D+00.
 Generated NRdTot=       0 NPtTot=           0 NUsed=           0 NTot=          32
 NSgBfM=   100   100   100   100   100 MxSgAt=    10 MxSgA2=    10.
 Leave Link  302 at Thu Sep  8 15:14:39 2022, MaxMem= 24159191040 cpu:        10.4
 (Enter /public/home/users/caep010/software/Gaussian09/g09/l303.exe)
 DipDrv:  MaxL=1.
 Leave Link  303 at Thu Sep  8 15:14:39 2022, MaxMem= 24159191040 cpu:         0.6
 (Enter /public/home/users/caep010/software/Gaussian09/g09/l401.exe)
 Initial guess from the checkpoint file:  "B3LYP6-31Gdp.Frag_731.chk"
 B after Tr=    -0.000000    0.000000   -0.000000
         Rot=    1.000000    0.000074   -0.000018   -0.000025 Ang=   0.01 deg.
 Guess basis will be translated and rotated to current coordinates.
 JPrj=2 DoOrth=T DoCkMO=T.
 Leave Link  401 at Thu Sep  8 15:14:39 2022, MaxMem= 24159191040 cpu:         2.5
 (Enter /public/home/users/caep010/software/Gaussian09/g09/l502.exe)
 Closed shell SCF:
 Using DIIS extrapolation, IDIIS=  1040.
 Integral symmetry usage will be decided dynamically.
 Keep R1 ints in memory in canonical form, NReq=13729312.
 IVT=       52505 IEndB=       52505 NGot= 24159191040 MDV= 24146384761
 LenX= 24146384761 LenY= 24146374320
 Requested convergence on RMS density matrix=1.00D-08 within 128 cycles.
 Requested convergence on MAX density matrix=1.00D-06.
 Requested convergence on             energy=1.00D-06.
 No special actions if energy rises.
 FoFCou: FMM=F IPFlag=           0 FMFlag=           0 FMFlg1=           0
         NFxFlg=           0 DoJE=F BraDBF=F KetDBF=F FulRan=T
         wScrn=  0.000000 ICntrl=     600 IOpCl=  0 I1Cent=           0 NGrid=           0
         NMat0=    1 NMatS0=   5050 NMatT0=    0 NMatD0=    1 NMtDS0=    0 NMtDT0=    0
 Symmetry not used in FoFCou.

 Cycle   1  Pass 1  IDiag  1:
 E= -243.455895909600    
 DIIS: error= 2.99D-04 at cycle   1 NSaved=   1.
 NSaved= 1 IEnMin= 1 EnMin= -243.455895909600     IErMin= 1 ErrMin= 2.99D-04
 ErrMax= 2.99D-04  0.00D+00 EMaxC= 1.00D-01 BMatC= 1.19D-05 BMatP= 1.19D-05
 IDIUse=3 WtCom= 9.97D-01 WtEn= 2.99D-03
 Coeff-Com:  0.100D+01
 Coeff-En:   0.100D+01
 Coeff:      0.100D+01
 Gap=     1.912 Goal=   None    Shift=    0.000
 RMSDP=6.81D-05 MaxDP=1.20D-03              OVMax= 2.02D-03

 Cycle   2  Pass 1  IDiag  1:
 E= -243.455917326800     Delta-E=       -0.000021417200 Rises=F Damp=F
 DIIS: error= 4.10D-05 at cycle   2 NSaved=   2.
 NSaved= 2 IEnMin= 2 EnMin= -243.455917326800     IErMin= 2 ErrMin= 4.10D-05
 ErrMax= 4.10D-05  0.00D+00 EMaxC= 1.00D-01 BMatC= 4.24D-07 BMatP= 1.19D-05
 IDIUse=1 WtCom= 1.00D+00 WtEn= 0.00D+00
 Coeff-Com: -0.358D-01 0.104D+01
 Coeff:     -0.358D-01 0.104D+01
 Gap=     0.188 Goal=   None    Shift=    0.000
 RMSDP=1.66D-05 MaxDP=3.23D-04 DE=-2.14D-05 OVMax= 5.29D-04

 Cycle   3  Pass 1  IDiag  1:
 E= -243.455916632489     Delta-E=        0.000000694311 Rises=F Damp=F
 DIIS: error= 1.00D-04 at cycle   3 NSaved=   3.
 NSaved= 3 IEnMin= 2 EnMin= -243.455917326800     IErMin= 2 ErrMin= 4.10D-05
 ErrMax= 1.00D-04  0.00D+00 EMaxC= 1.00D-01 BMatC= 1.45D-06 BMatP= 4.24D-07
 IDIUse=3 WtCom= 5.00D-01 WtEn= 5.00D-01
 Coeff-Com: -0.545D-01 0.709D+00 0.346D+00
 Coeff-En:   0.000D+00 0.697D+00 0.303D+00
 Coeff:     -0.272D-01 0.703D+00 0.325D+00
 Gap=     0.188 Goal=   None    Shift=    0.000
 RMSDP=1.07D-05 MaxDP=2.18D-04 DE= 6.94D-07 OVMax= 4.09D-04

 Cycle   4  Pass 1  IDiag  1:
 E= -243.455917928343     Delta-E=       -0.000001295853 Rises=F Damp=F
 DIIS: error= 7.18D-06 at cycle   4 NSaved=   4.
 NSaved= 4 IEnMin= 4 EnMin= -243.455917928343     IErMin= 4 ErrMin= 7.18D-06
 ErrMax= 7.18D-06  0.00D+00 EMaxC= 1.00D-01 BMatC= 7.30D-09 BMatP= 4.24D-07
 IDIUse=1 WtCom= 1.00D+00 WtEn= 0.00D+00
 Coeff-Com: -0.813D-02 0.469D-01 0.709D-01 0.890D+00
 Coeff:     -0.813D-02 0.469D-01 0.709D-01 0.890D+00
 Gap=     0.188 Goal=   None    Shift=    0.000
 RMSDP=1.87D-06 MaxDP=2.59D-05 DE=-1.30D-06 OVMax= 7.43D-05

 Cycle   5  Pass 1  IDiag  1:
 E= -243.455917937521     Delta-E=       -0.000000009178 Rises=F Damp=F
 DIIS: error= 3.61D-06 at cycle   5 NSaved=   5.
 NSaved= 5 IEnMin= 5 EnMin= -243.455917937521     IErMin= 5 ErrMin= 3.61D-06
 ErrMax= 3.61D-06  0.00D+00 EMaxC= 1.00D-01 BMatC= 2.49D-09 BMatP= 7.30D-09
 IDIUse=1 WtCom= 1.00D+00 WtEn= 0.00D+00
 Coeff-Com: -0.757D-03-0.211D-01 0.135D-01 0.468D+00 0.540D+00
 Coeff:     -0.757D-03-0.211D-01 0.135D-01 0.468D+00 0.540D+00
 Gap=     0.188 Goal=   None    Shift=    0.000
 RMSDP=7.32D-07 MaxDP=1.60D-05 DE=-9.18D-09 OVMax= 3.02D-05

 Cycle   6  Pass 1  IDiag  1:
 E= -243.455917939468     Delta-E=       -0.000000001947 Rises=F Damp=F
 DIIS: error= 1.98D-06 at cycle   6 NSaved=   6.
 NSaved= 6 IEnMin= 6 EnMin= -243.455917939468     IErMin= 6 ErrMin= 1.98D-06
 ErrMax= 1.98D-06  0.00D+00 EMaxC= 1.00D-01 BMatC= 7.23D-10 BMatP= 2.49D-09
 IDIUse=1 WtCom= 1.00D+00 WtEn= 0.00D+00
 Coeff-Com:  0.127D-02-0.273D-01-0.788D-02 0.135D+00 0.370D+00 0.529D+00
 Coeff:      0.127D-02-0.273D-01-0.788D-02 0.135D+00 0.370D+00 0.529D+00
 Gap=     0.188 Goal=   None    Shift=    0.000
 RMSDP=2.84D-07 MaxDP=5.79D-06 DE=-1.95D-09 OVMax= 1.06D-05

 Cycle   7  Pass 1  IDiag  1:
 E= -243.455917940130     Delta-E=       -0.000000000662 Rises=F Damp=F
 DIIS: error= 3.49D-07 at cycle   7 NSaved=   7.
 NSaved= 7 IEnMin= 7 EnMin= -243.455917940130     IErMin= 7 ErrMin= 3.49D-07
 ErrMax= 3.49D-07  0.00D+00 EMaxC= 1.00D-01 BMatC= 4.06D-11 BMatP= 7.23D-10
 IDIUse=1 WtCom= 1.00D+00 WtEn= 0.00D+00
 Coeff-Com:  0.786D-03-0.134D-01-0.606D-02 0.253D-01 0.147D+00 0.276D+00
 Coeff-Com:  0.571D+00
 Coeff:      0.786D-03-0.134D-01-0.606D-02 0.253D-01 0.147D+00 0.276D+00
 Coeff:      0.571D+00
 Gap=     0.188 Goal=   None    Shift=    0.000
 RMSDP=6.86D-08 MaxDP=1.24D-06 DE=-6.62D-10 OVMax= 2.11D-06

 Cycle   8  Pass 1  IDiag  1:
 E= -243.455917940171     Delta-E=       -0.000000000042 Rises=F Damp=F
 DIIS: error= 1.17D-07 at cycle   8 NSaved=   8.
 NSaved= 8 IEnMin= 8 EnMin= -243.455917940171     IErMin= 8 ErrMin= 1.17D-07
 ErrMax= 1.17D-07  0.00D+00 EMaxC= 1.00D-01 BMatC= 2.27D-12 BMatP= 4.06D-11
 IDIUse=1 WtCom= 1.00D+00 WtEn= 0.00D+00
 Coeff-Com:  0.150D-03-0.189D-02-0.133D-02-0.597D-02 0.122D-01 0.391D-01
 Coeff-Com:  0.217D+00 0.741D+00
 Coeff:      0.150D-03-0.189D-02-0.133D-02-0.597D-02 0.122D-01 0.391D-01
 Coeff:      0.217D+00 0.741D+00
 Gap=     0.188 Goal=   None    Shift=    0.000
 RMSDP=1.89D-08 MaxDP=4.74D-07 DE=-4.16D-11 OVMax= 6.81D-07

 Cycle   9  Pass 1  IDiag  1:
 E= -243.455917940169     Delta-E=        0.000000000002 Rises=F Damp=F
 DIIS: error= 4.86D-08 at cycle   9 NSaved=   9.
 NSaved= 9 IEnMin= 8 EnMin= -243.455917940171     IErMin= 9 ErrMin= 4.86D-08
 ErrMax= 4.86D-08  0.00D+00 EMaxC= 1.00D-01 BMatC= 4.23D-13 BMatP= 2.27D-12
 IDIUse=1 WtCom= 1.00D+00 WtEn= 0.00D+00
 Coeff-Com:  0.952D-05 0.226D-03-0.131D-03-0.471D-02-0.633D-02-0.295D-02
 Coeff-Com:  0.612D-01 0.378D+00 0.575D+00
 Coeff:      0.952D-05 0.226D-03-0.131D-03-0.471D-02-0.633D-02-0.295D-02
 Coeff:      0.612D-01 0.378D+00 0.575D+00
 Gap=     0.188 Goal=   None    Shift=    0.000
 RMSDP=5.57D-09 MaxDP=1.69D-07 DE= 2.33D-12 OVMax= 1.66D-07

 SCF Done:  E(RB3LYP) =  -243.455917940     A.U. after    9 cycles
            NFock=  9  Conv=0.56D-08     -V/T= 2.0094
 KE= 2.411968965894D+02 PE=-8.935731406780D+02 EE= 2.455936076379D+02
 Leave Link  502 at Thu Sep  8 15:14:40 2022, MaxMem= 24159191040 cpu:        22.1
 (Enter /public/home/users/caep010/software/Gaussian09/g09/l701.exe)
 Compute integral first derivatives.
 ... and contract with generalized density number  0.
 Leave Link  701 at Thu Sep  8 15:14:40 2022, MaxMem= 24159191040 cpu:        10.9
 (Enter /public/home/users/caep010/software/Gaussian09/g09/l702.exe)
 L702 exits ... SP integral derivatives will be done elsewhere.
 Leave Link  702 at Thu Sep  8 15:14:40 2022, MaxMem= 24159191040 cpu:         0.6
 (Enter /public/home/users/caep010/software/Gaussian09/g09/l703.exe)
 Compute integral first derivatives, UseDBF=F ICtDFT=           0.
 Integral derivatives from FoFJK, PRISM(SPDF).
 Calling FoFJK, ICntrl=      2127 FMM=F ISym2X=0 I1Cent= 0 IOpClX= 0 NMat=1 NMatS=1 NMatT=0.
 FoFJK:  IHMeth= 1 ICntrl=    2127 DoSepK=F KAlg= 0 I1Cent=   0 FoldK=F
 IRaf=         0 NMat=   1 IRICut=       1 DoRegI=T DoRafI=F ISym2E= 0.
 FoFCou: FMM=F IPFlag=           0 FMFlag=      100000 FMFlg1=         800
         NFxFlg=           0 DoJE=F BraDBF=F KetDBF=F FulRan=T
         wScrn=  0.000000 ICntrl=    2127 IOpCl=  0 I1Cent=           0 NGrid=           0
         NMat0=    1 NMatS0=      1 NMatT0=    0 NMatD0=    1 NMtDS0=    0 NMtDT0=    0
 Symmetry not used in FoFCou.
 Leave Link  703 at Thu Sep  8 15:14:41 2022, MaxMem= 24159191040 cpu:         8.9
 (Enter /public/home/users/caep010/software/Gaussian09/g09/l716.exe)
 Dipole        =-1.73562039D-01-1.51121705D+00 2.91704500D-01
 ***** Axes restored to original set *****
 -------------------------------------------------------------------
 Center     Atomic                   Forces (Hartrees/Bohr)
 Number     Number              X              Y              Z
 -------------------------------------------------------------------
      1        7           0.000078835    0.000068668   -0.000103976
      2        6          -0.000270911   -0.000054819    0.000014925
      3        6           0.000155807    0.000068365    0.000081038
      4        7           0.000131245   -0.000027958   -0.000078373
      5        7          -0.000049292    0.000036787   -0.000305845
      6        1          -0.000000041   -0.000015213    0.000048659
      7        1          -0.000009602   -0.000055461    0.000108043
      8        1          -0.000056285   -0.000048505    0.000069003
      9        1           0.000022628   -0.000023006    0.000031420
     10        1          -0.000002383    0.000051142    0.000135105
 -------------------------------------------------------------------
 Cartesian Forces:  Max     0.000305845 RMS     0.000100991
 Leave Link  716 at Thu Sep  8 15:14:41 2022, MaxMem= 24159191040 cpu:         0.8
 (Enter /public/home/users/caep010/software/Gaussian09/g09/l103.exe)

 GradGradGradGradGradGradGradGradGradGradGradGradGradGradGradGradGradGrad
 Berny optimization.
 Using GEDIIS/GDIIS optimizer.
 FormGI is forming the generalized inverse of G from B-inverse, IUseBI=4.
 Internal  Forces:  Max     0.000184946 RMS     0.000071827
 Search for a local minimum.
 Step number   3 out of a maximum of   42
 All quantities printed in internal units (Hartrees-Bohrs-Radians)
 RMS Force = .71827D-04 SwitMx=.10000D-02 MixMth= 2
 Mixed Optimization -- En-DIIS/RFO-DIIS
 Swapping is turned off.
 Update second derivatives using D2CorX and points    1    2    3
 DE= -5.52D-06 DEPred=-4.81D-06 R= 1.15D+00
 TightC=F SS=  1.41D+00  RLast= 1.96D-02 DXNew= 5.0454D-01 5.8672D-02
 Trust test= 1.15D+00 RLast= 1.96D-02 DXMaxT set to 3.00D-01
 ITU=  1  1  0
     Eigenvalues ---    0.00641   0.01283   0.01771   0.01905   0.03337
     Eigenvalues ---    0.03481   0.03852   0.15414   0.16000   0.16000
     Eigenvalues ---    0.16031   0.18322   0.23008   0.24901   0.25555
     Eigenvalues ---    0.32896   0.33702   0.43947   0.44283   0.46039
     Eigenvalues ---    0.46736   0.50587   0.76391   0.77074
 En-DIIS/RFO-DIIS IScMMF=        0 using points:     3    2
 RFO step:  Lambda=-5.21683344D-07.
 NNeg= 0 NP= 2 Switch=  2.50D-03 Rises=F DC=  5.52D-06 SmlDif=  1.00D-05
 RMS Error=  0.3008675459D-03 NUsed= 2 EDIIS=F
 DidBck=F Rises=F RFO-DIIS coefs:    1.16286   -0.16286
 Iteration  1 RMS(Cart)=  0.00305570 RMS(Int)=  0.00000766
 Iteration  2 RMS(Cart)=  0.00000836 RMS(Int)=  0.00000160
 Iteration  3 RMS(Cart)=  0.00000000 RMS(Int)=  0.00000160
 ITry= 1 IFail=0 DXMaxC= 8.21D-03 DCOld= 1.00D+10 DXMaxT= 3.00D-01 DXLimC= 3.00D+00 Rises=F
 Variable       Old X    -DE/DX   Delta X   Delta X   Delta X     New X
                                 (Linear)    (Quad)   (Total)
    R1        2.40235  -0.00003   0.00018   0.00024   0.00042   2.40277
    R2        1.93292  -0.00003   0.00013   0.00010   0.00023   1.93315
    R3        2.84328  -0.00017  -0.00006  -0.00049  -0.00055   2.84273
    R4        2.07910  -0.00012  -0.00014  -0.00043  -0.00057   2.07853
    R5        2.41553  -0.00000   0.00008   0.00022   0.00031   2.41584
    R6        2.61753   0.00012  -0.00006   0.00035   0.00029   2.61783
    R7        1.93411   0.00003   0.00008   0.00020   0.00028   1.93439
    R8        1.91129  -0.00001   0.00001   0.00007   0.00008   1.91137
    R9        1.90903  -0.00003   0.00001   0.00003   0.00004   1.90906
    A1        1.93868   0.00007  -0.00040   0.00016  -0.00024   1.93845
    A2        2.08874   0.00010  -0.00024   0.00022  -0.00002   2.08872
    A3        2.16703  -0.00006   0.00006  -0.00021  -0.00015   2.16688
    A4        2.02739  -0.00004   0.00018   0.00001   0.00019   2.02758
    A5        2.17584  -0.00004   0.00006  -0.00018  -0.00012   2.17572
    A6        1.98661   0.00000   0.00012   0.00010   0.00023   1.98684
    A7        2.11942   0.00004  -0.00019  -0.00002  -0.00021   2.11921
    A8        1.88902   0.00018  -0.00049   0.00098   0.00049   1.88951
    A9        1.98552  -0.00009  -0.00044  -0.00153  -0.00197   1.98354
   A10        2.05022   0.00001  -0.00007  -0.00049  -0.00056   2.04967
   A11        1.99339  -0.00001  -0.00001  -0.00083  -0.00085   1.99254
    D1        3.13308   0.00005  -0.00045   0.00250   0.00205   3.13513
    D2       -0.00046  -0.00001   0.00000  -0.00153  -0.00153  -0.00199
    D3       -0.07918  -0.00006  -0.00063  -0.00590  -0.00652  -0.08570
    D4        3.11702  -0.00003  -0.00064  -0.00378  -0.00442   3.11260
    D5        3.05499   0.00000  -0.00105  -0.00218  -0.00323   3.05176
    D6       -0.03200   0.00003  -0.00106  -0.00007  -0.00113  -0.03312
    D7       -0.02305  -0.00000  -0.00013   0.00045   0.00032  -0.02272
[...]
     30  0.132681D-01  0.788100D-03  0.588235D-02  0.731656D-02 -0.335151D-04
     31 -0.117559D-01  0.127933D-03 -0.542934D-02 -0.620826D-02 -0.263258D-03
     32  0.132134D-01  0.117709D-02  0.518535D-02  0.625017D-02 -0.727115D-04
               11            12            13            14            15 
     11  0.150931D+00
     12 -0.836886D-01  0.116087D+00
     13 -0.672358D-01 -0.323989D-01  0.996294D-01
     14 -0.627547D-04 -0.892148D-02  0.898453D-02  0.155738D+00
     15  0.791431D-02 -0.555700D-03 -0.736132D-02 -0.710000D-01  0.159407D+00
     16 -0.784790D-02  0.947403D-02 -0.162399D-02 -0.847122D-01 -0.883642D-01
     17 -0.524934D-02  0.371323D-02  0.153459D-02 -0.783876D-02 -0.904714D-02
     18  0.329229D-02 -0.117642D-02 -0.211270D-02  0.122728D-02  0.204172D-01
     19 -0.106588D-02 -0.720782D-03  0.178376D-02 -0.688134D-02 -0.103398D-01
     20 -0.163040D-02  0.180520D-02 -0.173404D-03  0.267869D-02 -0.629430D-02
     21  0.306322D-03 -0.970215D-04 -0.980398D-04 -0.929145D-03  0.570369D-03
     22 -0.627466D-03  0.106763D-03  0.455480D-03 -0.101852D-02  0.108123D-02
     23 -0.458706D-03  0.396484D-03 -0.253707D-04 -0.132969D-02 -0.509560D-03
     24 -0.297669D-03  0.113209D-03  0.102460D-03  0.178461D-02  0.773815D-03
     25  0.248603D-03  0.820291D-03 -0.993768D-03 -0.131490D-02 -0.959618D-03
     26  0.409640D-03  0.537015D-03 -0.865938D-03  0.179940D-02  0.323757D-03
     27 -0.179113D-03 -0.394973D-04  0.223594D-03  0.231188D-02 -0.302022D-02
     28  0.152694D-03 -0.102866D-03 -0.509910D-04  0.212891D-03  0.317359D-02
     29 -0.415455D-04  0.128300D-03 -0.933368D-04  0.420873D-02 -0.261986D-02
     30  0.325515D-04  0.795940D-03 -0.832369D-03  0.194743D-02 -0.336446D-03
     31 -0.146173D-03  0.509294D-03 -0.364255D-03 -0.151119D-02 -0.164958D-02
     32 -0.720755D-04  0.117693D-02 -0.110329D-02 -0.377249D-02  0.633832D-03
               16            17            18            19            20 
     16  0.173041D+00
     17  0.168795D-01  0.199058D+00
     18 -0.216172D-01  0.535339D-03  0.104337D+00
     19  0.172087D-01  0.377609D-02 -0.407624D-01  0.105559D+00
     20  0.357354D-02 -0.278902D-02 -0.439834D-01 -0.454198D-01  0.680666D-01
     21  0.261730D-03 -0.355609D-03  0.550333D-03 -0.347937D-03  0.206674D-03
     22 -0.109371D-03 -0.891678D-04 -0.803656D-05  0.161402D-03 -0.404147D-04
     23  0.218978D-02  0.656529D-03 -0.370637D-03  0.165104D-03 -0.420467D-03
     24 -0.287233D-02  0.224265D-03 -0.261401D-03 -0.148294D-03  0.332404D-03
     25  0.257859D-02  0.422302D-03  0.145679D-03 -0.313283D-03 -0.184208D-03
     26 -0.248352D-02 -0.996313D-05  0.254916D-03 -0.626682D-03  0.568663D-03
     27  0.521509D-03  0.180394D-02 -0.683971D-03  0.101198D-02 -0.315104D-03
     28 -0.285851D-02  0.139678D-02  0.551266D-03  0.430390D-03 -0.142429D-02
     29 -0.128569D-02 -0.313788D-03 -0.560864D-02 -0.888843D-04 -0.223352D-02
     30 -0.135804D-02  0.241135D-03  0.103452D-02  0.959634D-03  0.187928D-02
     31  0.282150D-02  0.130080D-03 -0.627199D-02  0.444312D-03 -0.148995D-02
     32  0.274915D-02  0.685003D-03  0.371170D-03  0.149283D-02  0.262284D-02
               21            22            23            24            25 
     21  0.354394D-01
     22  0.156207D-01  0.272373D-01
     23 -0.109161D-01  0.468710D-02  0.120068D-01
     24 -0.899080D-02  0.561581D-02  0.492561D-02  0.112982D-01
     25  0.735490D-02 -0.602342D-02 -0.237623D-02 -0.854030D-02  0.996423D-02
     26  0.928023D-02 -0.509472D-02 -0.945746D-02 -0.216769D-02  0.380016D-02
     27  0.131483D-02  0.426232D-03 -0.139367D-02  0.234143D-02 -0.575330D-03
     28 -0.743706D-03 -0.536298D-03  0.610303D-02 -0.436309D-02  0.591153D-02
     29 -0.181092D-02 -0.638010D-03  0.354682D-02 -0.244482D-02  0.246635D-02
     30 -0.121743D-02 -0.523282D-03  0.260686D-02 -0.239451D-02  0.197304D-02
     31  0.883191D-04  0.291811D-03 -0.315359D-02  0.353271D-02 -0.333780D-02
     32  0.681808D-03  0.406539D-03 -0.409354D-02  0.358302D-02 -0.383111D-02
               26            27            28            29            30 
     26  0.110899D-01
     27  0.315977D-02  0.229988D-01
     28 -0.455459D-02  0.188938D-01  0.303061D-01
     29 -0.352529D-02 -0.274418D-02  0.365681D-02  0.115263D-01
     30 -0.302833D-02 -0.289322D-02  0.251018D-02  0.983441D-03  0.643293D-02
     31  0.334850D-02  0.785130D-03 -0.653246D-02  0.555031D-02 -0.395519D-02
     32  0.384546D-02  0.636094D-03 -0.767909D-02 -0.499258D-02  0.149430D-02
               31            32 
     31  0.121450D-01
     32  0.263951D-02  0.912639D-02
 Leave Link  716 at Thu Sep  8 15:14:57 2022, MaxMem= 24159191040 cpu:         3.1
 (Enter /public/home/users/caep010/software/Gaussian09/g09/l103.exe)

 GradGradGradGradGradGradGradGradGradGradGradGradGradGradGradGradGradGrad
 Berny optimization.
 Red2BG is reusing G-inverse.
 Internal  Forces:  Max     0.000084598 RMS     0.000026706
 Search for a local minimum.
 Step number   1 out of a maximum of    2
 All quantities printed in internal units (Hartrees-Bohrs-Radians)
 Second derivative matrix not updated -- analytic derivatives used.
 ITU=  0
     Eigenvalues ---    0.00387   0.00729   0.01843   0.02927   0.03755
     Eigenvalues ---    0.04950   0.05285   0.12364   0.13064   0.13618
     Eigenvalues ---    0.16923   0.18531   0.20005   0.21775   0.23540
     Eigenvalues ---    0.32648   0.34252   0.42993   0.43468   0.43956
     Eigenvalues ---    0.46944   0.47505   0.73479   0.76150
 Angle between quadratic step and forces=  65.07 degrees.
 Linear search not attempted -- first point.
 Iteration  1 RMS(Cart)=  0.00051164 RMS(Int)=  0.00000035
 Iteration  2 RMS(Cart)=  0.00000036 RMS(Int)=  0.00000020
 ITry= 1 IFail=0 DXMaxC= 1.37D-03 DCOld= 1.00D+10 DXMaxT= 3.00D-01 DXLimC= 3.00D+00 Rises=F
 Variable       Old X    -DE/DX   Delta X   Delta X   Delta X     New X
                                 (Linear)    (Quad)   (Total)
    R1        2.40248  -0.00005   0.00000  -0.00011  -0.00011   2.40237
    R2        1.93287  -0.00001   0.00000  -0.00003  -0.00003   1.93284
    R3        2.84229   0.00004   0.00000   0.00022   0.00022   2.84251
    R4        2.07856   0.00004   0.00000   0.00012   0.00012   2.07869
    R5        2.41544  -0.00002   0.00000  -0.00011  -0.00011   2.41533
    R6        2.61858   0.00008   0.00000   0.00033   0.00033   2.61891
    R7        1.93413   0.00001   0.00000   0.00002   0.00002   1.93415
    R8        1.91160   0.00002   0.00000   0.00008   0.00008   1.91167
    R9        1.90929   0.00004   0.00000   0.00014   0.00014   1.90943
    A1        1.93875   0.00002   0.00000   0.00019   0.00019   1.93895
    A2        2.08932  -0.00001   0.00000  -0.00007  -0.00007   2.08925
    A3        2.16677   0.00003   0.00000   0.00020   0.00020   2.16697
    A4        2.02708  -0.00001   0.00000  -0.00013  -0.00013   2.02695
    A5        2.17584   0.00001   0.00000   0.00005   0.00005   2.17589
    A6        1.98680  -0.00004   0.00000  -0.00022  -0.00022   1.98659
    A7        2.11912   0.00003   0.00000   0.00016   0.00016   2.11928
    A8        1.88995   0.00003   0.00000   0.00014   0.00014   1.89009
    A9        1.98185   0.00002   0.00000  -0.00014  -0.00014   1.98171
   A10        2.04801  -0.00002   0.00000  -0.00065  -0.00065   2.04736
   A11        1.99057  -0.00002   0.00000  -0.00063  -0.00063   1.98994
    D1        3.13326   0.00000   0.00000   0.00010   0.00010   3.13336
    D2       -0.00132   0.00000   0.00000   0.00015   0.00015  -0.00117
    D3       -0.08631   0.00000   0.00000   0.00098   0.00098  -0.08533
    D4        3.11198   0.00001   0.00000   0.00113   0.00113   3.11311
    D5        3.04882   0.00000   0.00000   0.00093   0.00093   3.04975
    D6       -0.03608   0.00000   0.00000   0.00109   0.00109  -0.03499
    D7       -0.02303   0.00000   0.00000   0.00001   0.00001  -0.02302
    D8        3.05779  -0.00001   0.00000  -0.00017  -0.00017   3.05762
    D9       -2.97784   0.00002   0.00000   0.00134   0.00134  -2.97649
   D10       -0.59472  -0.00001   0.00000  -0.00062  -0.00062  -0.59534
   D11        0.21840   0.00003   0.00000   0.00150   0.00150   0.21989
   D12        2.60152  -0.00000   0.00000  -0.00047  -0.00047   2.60105
         Item               Value     Threshold  Converged?
 Maximum Force            0.000085     0.000450     YES
 RMS     Force            0.000027     0.000300     YES
 Maximum Displacement     0.001372     0.001800     YES
 RMS     Displacement     0.000512     0.001200     YES
 Predicted change in Energy=-1.020347D-07
 Optimization completed.
    -- Stationary point found.
                           ----------------------------
                           !   Optimized Parameters   !
                           ! (Angstroms and Degrees)  !
 --------------------------                            --------------------------
 ! Name  Definition              Value          Derivative Info.                !
 --------------------------------------------------------------------------------
 ! R1    R(1,2)                  1.2713         -DE/DX =   -0.0001              !
 ! R2    R(1,6)                  1.0228         -DE/DX =    0.0                 !
 ! R3    R(2,3)                  1.5041         -DE/DX =    0.0                 !
 ! R4    R(2,7)                  1.0999         -DE/DX =    0.0                 !
 ! R5    R(3,4)                  1.2782         -DE/DX =    0.0                 !
 ! R6    R(3,5)                  1.3857         -DE/DX =    0.0001              !
 ! R7    R(4,8)                  1.0235         -DE/DX =    0.0                 !
 ! R8    R(5,9)                  1.0116         -DE/DX =    0.0                 !
 ! R9    R(5,10)                 1.0104         -DE/DX =    0.0                 !
 ! A1    A(2,1,6)              111.0824         -DE/DX =    0.0                 !
 ! A2    A(1,2,3)              119.7089         -DE/DX =    0.0                 !
 ! A3    A(1,2,7)              124.1466         -DE/DX =    0.0                 !
 ! A4    A(3,2,7)              116.1433         -DE/DX =    0.0                 !
 ! A5    A(2,3,4)              124.6666         -DE/DX =    0.0                 !
 ! A6    A(2,3,5)              113.8355         -DE/DX =    0.0                 !
 ! A7    A(4,3,5)              121.4167         -DE/DX =    0.0                 !
 ! A8    A(3,4,8)              108.2864         -DE/DX =    0.0                 !
 ! A9    A(3,5,9)              113.5517         -DE/DX =    0.0                 !
 ! A10   A(3,5,10)             117.3421         -DE/DX =    0.0                 !
 ! A11   A(9,5,10)             114.0513         -DE/DX =    0.0                 !
 ! D1    D(6,1,2,3)            179.5228         -DE/DX =    0.0                 !
 ! D2    D(6,1,2,7)             -0.0756         -DE/DX =    0.0                 !
 ! D3    D(1,2,3,4)             -4.9453         -DE/DX =    0.0                 !
 ! D4    D(1,2,3,5)            178.3033         -DE/DX =    0.0                 !
 ! D5    D(7,2,3,4)            174.6844         -DE/DX =    0.0                 !
 ! D6    D(7,2,3,5)             -2.0671         -DE/DX =    0.0                 !
 ! D7    D(2,3,4,8)             -1.3192         -DE/DX =    0.0                 !
 ! D8    D(5,3,4,8)            175.1986         -DE/DX =    0.0                 !
 ! D9    D(2,3,5,9)           -170.6174         -DE/DX =    0.0                 !
 ! D10   D(2,3,5,10)           -34.0747         -DE/DX =    0.0                 !
 ! D11   D(4,3,5,9)             12.5133         -DE/DX =    0.0                 !
 ! D12   D(4,3,5,10)           149.056          -DE/DX =    0.0                 !
 --------------------------------------------------------------------------------
 GradGradGradGradGradGradGradGradGradGradGradGradGradGradGradGradGradGrad

 Leave Link  103 at Thu Sep  8 15:14:57 2022, MaxMem= 24159191040 cpu:         0.7
 (Enter /public/home/users/caep010/software/Gaussian09/g09/l9999.exe)
 1\1\GINC-B1334\Freq\RB3LYP\6-31G(d,p)\C2H5N3\ROOT\08-Sep-2022\0\\#P Ge
 om=AllCheck Guess=TCheck SCRF=Check GenChk RB3LYP/6-31G(d,p) Freq\\Fra
 g_731\\0,1\N,1.2811070119,-1.4581906102,-0.0237457442\C,0.6938845431,-
 0.4020751564,-0.4188305762\C,-0.4719139232,0.1392384698,0.3622775767\N
 ,-0.9983496017,-0.4359143331,1.3751169338\N,-0.9959015154,1.3131168759
 ,-0.1550100683\H,2.046200786,-1.711315836,-0.6536211444\H,0.9771413709
 ,0.1615624674,-1.3198963196\H,-0.5058735918,-1.3187747291,1.5350201968
 \H,-1.67624655,1.7533712603,0.4504551774\H,-0.3499485299,1.9589825914,
 -0.5867670319\\Version=ES64L-G09RevE.01\State=1-A\HF=-243.4559205\RMSD
 =2.330e-09\RMSF=3.867e-05\ZeroPoint=0.0807219\Thermal=0.0860494\Dipole
 =0.826472,0.8137782,-1.0135714\DipoleDeriv=-0.4610479,0.0823327,-0.030
 0947,0.195157,-0.5866979,-0.0503786,-0.1691024,0.0941242,-0.3275354,0.
 3615521,-0.1102867,-0.1578923,-0.1143136,0.3143743,-0.1118378,-0.12338
 6,-0.1045208,0.396342,0.3107399,-0.2582785,0.0628787,-0.3192959,1.0571
 454,-0.406691,0.0657376,-0.4470945,0.5369859,-0.5369853,-0.2058185,0.2
 144399,0.0304098,-0.6113863,0.0654424,0.0061175,0.2990493,-0.7605113,-
 0.432027,0.4186552,-0.4037165,0.1062472,-0.7980505,0.2467399,-0.198232
 4,0.2614173,-0.6865823,0.1089556,0.0579308,0.0958758,-0.0217594,0.2578
 479,0.0063781,0.1758785,-0.0863521,0.125377,0.025724,0.015779,0.079561
 7,0.014096,-0.0329081,0.1330229,0.0880539,0.1238171,-0.1017204,0.21983
 19,0.1122992,-0.0578074,0.0887972,0.0975867,0.0144032,-0.0188602,-0.04
 2102,0.288366,0.2575944,-0.033513,0.0882745,0.0235046,0.1556647,0.0405
 088,0.1152658,-0.0358905,0.2012081,0.1456623,-0.0791001,0.1084803,-0.0
 02843,0.146424,0.0624121,0.0585278,-0.0624481,0.3280704\Polar=37.91646
 55,-11.9515784,45.120797,-10.2521511,-10.1155086,36.6852577\PG=C01 [X(
 C2H5N3)]\NImag=0\\0.46039685,-0.33156797,0.54910177,-0.12755293,-0.114
 09931,0.32044777,-0.20053920,0.20588754,-0.03318891,0.45654985,0.24323
 048,-0.45887268,0.13430809,-0.26139157,0.69166485,-0.07206073,0.178280
 27,-0.14597000,-0.09061934,-0.24545581,0.49681347,-0.03209068,0.025367
 87,-0.00019688,-0.13507579,0.01772890,0.05417213,0.46432395,0.02615625
 ,-0.02227978,-0.01682381,0.03183368,-0.09752312,-0.01953632,-0.0860240
 2,0.61458947,-0.00122980,-0.01412730,0.00959017,0.03675668,0.00104565,
 -0.11701453,-0.22817578,-0.27138343,0.61438609,0.00102910,-0.00078686,
 0.00142986,-0.00838414,-0.00493125,0.03844401,-0.17036943,-0.04832637,
 0.16033795,0.28740931,0.00691010,-0.00324519,-0.00136377,0.00147661,0.
 01731213,0.00558510,-0.08199230,-0.20065851,0.20307559,-0.08953071,0.5
 3586339,-0.00458961,0.00575770,0.00096488,0.03445344,0.01050163,-0.019
 86327,0.18597253,0.16904381,-0.37816214,-0.17792264,-0.28593294,0.4667
 4149,-0.00320208,0.00169232,0.00443935,-0.01393987,0.03075623,-0.01175
 634,-0.13733911,0.07718577,0.00669595,0.01978236,-0.01530524,-0.002985
 51,0.55227906,0.00127832,0.00207166,-0.00202148,0.01461609,-0.01921349
 ,0.00674515,0.10195024,-0.25362633,0.09366367,0.00183184,-0.03689546,0
 .03642785,-0.07366727,0.66510674,0.00342890,-0.00252868,0.00002828,0.0
 0776706,-0.01393274,0.00735699,0.00759213,0.05946344,-0.10327931,-0.01
 270697,0.05633722,-0.03063186,-0.32649864,-0.13805454,0.39099956,-0.24
 411734,0.08034970,0.16101479,-0.01680747,0.00138055,0.02120867,0.00730
 391,0.00974788,0.00306611,-0.00025267,-0.00103059,-0.00140943,-0.00137
 030,0.00035434,0.00064844,0.25772302,0.04584217,-0.05261069,-0.0352551
 1,0.03830275,-0.01848974,-0.02263039,0.00598141,0.00175426,0.00973630,
 -0.00164178,0.00023221,-0.00084913,0.00083711,-0.00026626,-0.00108371,
 -0.08545849,0.07159155,0.19616526,-0.07535584,-0.18499695,-0.01603550,
 0.01998833,0.00114924,0.00633566,0.00637634,0.00457039,-0.00033597,-0.
 00167575,-0.00020475,0.00001144,-0.00046472,0.00021420,-0.17840319,0.0
 5571505,0.17893684,0.01832985,0.02213563,-0.00855773,-0.07908258,-0.02
 926979,0.06401093,0.00214214,-0.01321681,0.01901958,-0.00549953,0.0021
 5009,0.00337195,-0.00045162,0.00025198,-0.00154260,-0.00250743,-0.0048
 9023,-0.00615310,0.06640768,0.00660397,-0.01490432,0.03870932,-0.02954
 123,-0.10948357,0.09304580,0.00543090,0.00667326,-0.00493351,0.0020207
 6,0.00001373,-0.00267574,-0.00023561,0.00062888,-0.00095145,-0.0055797
 2,-0.00168630,-0.00440016,0.02060821,0.11883951,0.00748023,0.01978244,
 0.00162602,0.06432165,0.09390353,-0.22046471,0.00076830,0.01564797,-0.
 00907983,0.00379141,-0.00284630,-0.00168846,0.00012682,-0.00086515,0.0
 0181064,-0.00557673,-0.00481794,-0.00072909,-0.07080439,-0.11918647,0.
 22804236,0.00003416,-0.00236200,0.00178791,-0.00427685,-0.00279919,-0.
 00239556,0.00169483,-0.02101504,0.00842665,-0.12213140,0.17948607,-0.0
 3780719,0.00645389,0.00074326,0.00723897,0.00040719,0.00093175,-0.0011
 1539,0.00069795,0.00077693,-0.00053618,0.11755254,-0.00013035,0.000379
 63,-0.00134344,-0.00154465,-0.00224832,-0.00324747,0.01505318,-0.02718
 500,0.00145662,0.14192439,-0.30963343,0.06819126,-0.00047181,0.0027425
 3,0.00454281,0.00004066,0.00019343,-0.00007261,0.00089461,-0.00002040,
 0.00029303,-0.15633289,0.33392083,-0.00084733,0.00093384,-0.00091341,-
 0.00393322,-0.00143271,-0.00387547,-0.01648449,0.03759008,-0.01754990,
 -0.01020028,0.02749908,-0.03912037,0.00898508,0.00386271,0.00091457,-0
 .00026229,-0.00073309,0.00101958,0.00000065,0.00041430,0.00104043,0.02
 357503,-0.07133982,0.05838668,-0.00020025,0.00001367,0.00047388,0.0018
 9479,0.00400893,0.00020314,-0.01136924,0.01387343,0.00751638,-0.000330
 39,-0.00440320,0.00160294,-0.20620141,0.10615545,0.16693862,-0.0003496
 4,-0.00006098,-0.00041184,0.00008817,-0.00037572,-0.00010059,-0.001283
 66,-0.00104019,-0.00057717,0.22957256,0.00145944,-0.00035480,-0.000981
 50,0.00134056,-0.00313857,0.00512920,0.02300442,-0.01034175,-0.0259538
 2,-0.00261892,0.00281238,-0.00099493,0.12661265,-0.13933644,-0.0885618
 3,0.00015614,-0.00060307,-0.00010364,-0.00003823,0.00020446,-0.0004125
 6,-0.00067002,0.00067028,0.00041410,-0.13016116,0.13674301,-0.00051056
 ,0.00043515,0.00037558,0.00147531,0.00345034,0.00067362,-0.01423937,0.
 00875334,0.01078626,-0.00166707,-0.00237773,-0.00071264,0.19809591,-0.
 09651719,-0.18383603,-0.00050214,-0.00005776,-0.00014238,-0.00037534,0
 .00011958,0.00004733,0.00043184,-0.00022447,-0.00036989,-0.18465714,0.
 09645537,0.18141957,0.00035960,-0.00072992,0.00035064,-0.00033874,0.00
 128672,-0.00120690,0.01077943,0.00978523,-0.01241372,-0.00125320,0.002
 23918,-0.00068649,-0.21601093,-0.15351425,0.14713408,-0.00002928,0.000
 15628,-0.00005737,-0.00012463,0.00029151,0.00052947,0.00085135,0.00160
 704,-0.00025597,-0.01182094,-0.01908488,0.00194856,0.21758734,0.000217
 58,0.00071440,-0.00112898,-0.00097978,-0.00000749,0.00208447,-0.026500
 61,-0.01140250,0.00742024,0.00205890,-0.00580126,0.00053048,-0.1474041
 5,-0.22121182,0.12476947,0.00003952,-0.00011537,-0.00000699,0.00137454
 ,-0.00026525,-0.00149857,0.00124113,0.00118045,0.00279151,0.01198978,0
 .01334451,-0.01003663,0.15796309,0.22356431,-0.00028343,0.00092173,-0.
 00115233,-0.00099717,-0.00237632,0.00119466,0.00425577,0.01086858,-0.0
 1424719,-0.00117029,0.00169950,0.00267712,0.12288594,0.09722371,-0.083
 57704,0.00021576,-0.00002422,0.00018294,0.00103003,-0.00014167,-0.0006
 0468,0.00039392,0.00174407,0.00046779,0.00901178,0.01500962,-0.0082414
 1,-0.13534231,-0.12492500,0.10330014\\0.00003125,-0.00004242,0.0000308
 5,-0.00007269,0.00007256,-0.00001690,0.00001560,0.00004234,-0.00010394
 ,-0.00002348,-0.00000107,0.00003198,0.00007767,0.00000245,0.00006276,0
 .00000552,0.00000839,-0.00001448,0.00000461,-0.00002983,0.00002885,0.0
 0000640,0.00001199,-0.00001251,-0.00001346,-0.00003861,-0.00001240,-0.
 00003143,-0.00002578,0.00000579\\\@


 HERE WE GO......
 SLIDING DOWN THE RAZOR BLADE OF LIFE......
                                 TOM LEHRER
 Job cpu time:       0 days  0 hours  3 minutes 22.6 seconds.
 File lengths (MBytes):  RWF=     15 Int=      0 D2E=      0 Chk=      2 Scr=      1
 Normal termination of Gaussian 09 at Thu Sep  8 15:14:57 2022.
