 Entering Gaussian System, Link 0=g09
 Input=B3LYP6-31Gdp.Frag_802.gjf
 Output=B3LYP6-31Gdp.Frag_802.log
 Initial command:
 /public/home/users/caep010/software/Gaussian09/g09/l1.exe "/public/home/users/caep010/.cache/gau_scr/Gau-28918.inp" -scrdir="/public/home/users/caep010/.cache/gau_scr/"
 Entering Link 1 = /public/home/users/caep010/software/Gaussian09/g09/l1.exe PID=     28919.
  
 Copyright (c) 1988,1990,1992,1993,1995,1998,2003,2009,2015,
            Gaussian, Inc.  All Rights Reserved.
  
 This is part of the Gaussian(R) 09 program.  It is based on
 the Gaussian(R) 03 system (copyright 2003, Gaussian, Inc.),
 the Gaussian(R) 98 system (copyright 1998, Gaussian, Inc.),
 the Gaussian(R) 94 system (copyright 1995, Gaussian, Inc.),
 the Gaussian 92(TM) system (copyright 1992, Gaussian, Inc.),
 the Gaussian 90(TM) system (copyright 1990, Gaussian, Inc.),
 the Gaussian 88(TM) system (copyright 1988, Gaussian, Inc.),
 the Gaussian 86(TM) system (copyright 1986, Carnegie Mellon
 University), and the Gaussian 82(TM) system (copyright 1983,
 Carnegie Mellon University). Gaussian is a federally registered
 trademark of Gaussian, Inc.
  
 This software contains proprietary and confidential information,
 including trade secrets, belonging to Gaussian, Inc.
  
 This software is provided under written license and may be
 used, copied, transmitted, or stored only in accord with that
 written license.
  
 The following legend is applicable only to US Government
 contracts under FAR:
  
                    RESTRICTED RIGHTS LEGEND
  
 Use, reproduction and disclosure by the US Government is
 subject to restrictions as set forth in subparagraphs (a)
 and (c) of the Commercial Computer Software - Restricted
 Rights clause in FAR 52.227-19.
  
 Gaussian, Inc.
 340 Quinnipiac St., Bldg. 40, Wallingford CT 06492
  
  
 ---------------------------------------------------------------
 Warning -- This program may not be used in any manner that
 competes with the business of Gaussian, Inc. or will provide
 assistance to any competitor of Gaussian, Inc.  The licensee
 of this program is prohibited from giving any competitor of
 Gaussian, Inc. access to this program.  By using this program,
 the user acknowledges that Gaussian, Inc. is engaged in the
 business of creating and licensing software in the field of
 computational chemistry and represents and warrants to the
 licensee that it is not a competitor of Gaussian, Inc. and that
 it will not use this program in any manner prohibited above.
 ---------------------------------------------------------------
  

 Cite this work as:
 Gaussian 09, Revision E.01,
 M. J. Frisch, G. W. Trucks, H. B. Schlegel, G. E. Scuseria, 
 M. A. Robb, J. R. Cheeseman, G. Scalmani, V. Barone, B. Mennucci, 
 G. A. Petersson, H. Nakatsuji, M. Caricato, X. Li, H. P. Hratchian, 
 A. F. Izmaylov, J. Bloino, G. Zheng, J. L. Sonnenberg, M. Hada, 
 M. Ehara, K. Toyota, R. Fukuda, J. Hasegawa, M. Ishida, T. Nakajima, 
 Y. Honda, O. Kitao, H. Nakai, T. Vreven, J. A. Montgomery, Jr., 
 J. E. Peralta, F. Ogliaro, M. Bearpark, J. J. Heyd, E. Brothers, 
 K. N. Kudin, V. N. Staroverov, T. Keith, R. Kobayashi, J. Normand, 
 K. Raghavachari, A. Rendell, J. C. Burant, S. S. Iyengar, J. Tomasi, 
 M. Cossi, N. Rega, J. M. Millam, M. Klene, J. E. Knox, J. B. Cross, 
 V. Bakken, C. Adamo, J. Jaramillo, R. Gomperts, R. E. Stratmann, 
 O. Yazyev, A. J. Austin, R. Cammi, C. Pomelli, J. W. Ochterski, 
 R. L. Martin, K. Morokuma, V. G. Zakrzewski, G. A. Voth, 
 P. Salvador, J. J. Dannenberg, S. Dapprich, A. D. Daniels, 
 O. Farkas, J. B. Foresman, J. V. Ortiz, J. Cioslowski, 
 and D. J. Fox, Gaussian, Inc., Wallingford CT, 2013.
 
 ******************************************
 Gaussian 09:  ES64L-G09RevE.01 30-Nov-2015
                 8-Sep-2022 
 ******************************************
 %nproc=32
 Will use up to   32 processors via shared memory.
 %mem=180GB
 %chk=B3LYP6-31Gdp.Frag_802.chk
 ----------------------------
 #P OPT Freq B3LYP/6-31G(d,p)
 ----------------------------
 1/14=-1,18=20,19=15,26=3,38=1/1,3;
 2/9=110,12=2,17=6,18=5,40=1/2;
 3/5=1,6=6,7=101,11=2,16=1,25=1,30=1,71=1,74=-5/1,2,3;
 4//1;
 5/5=2,38=5/2;
 6/7=2,8=2,9=2,10=2,28=1/1;
 7//1,2,3,16;
 1/14=-1,18=20,19=15,26=3/3(2);
 2/9=110/2;
 99//99;
 2/9=110/2;
 3/5=1,6=6,7=101,11=2,16=1,25=1,30=1,71=1,74=-5/1,2,3;
 4/5=5,16=3,69=1/1;
 5/5=2,38=5/2;
 7//1,2,3,16;
 1/14=-1,18=20,19=15,26=3/3(-5);
 2/9=110/2;
 6/7=2,8=2,9=2,10=2,19=2,28=1/1;
 99/9=1/99;
 Leave Link    1 at Thu Sep  8 15:16:16 2022, MaxMem= 24159191040 cpu:         2.1
 (Enter /public/home/users/caep010/software/Gaussian09/g09/l101.exe)
 --------
 Frag_802
 --------
 Symbolic Z-matrix:
 Charge =  0 Multiplicity = 1
 C                     2.06214   0.20572  -0.13735 
 C                     0.87142   0.32087  -0.01916 
 C                    -0.56808   0.51135   0.1322 
 N                    -1.28633  -0.63985   0.00073 
 O                    -1.06491   1.59722   0.35373 
 H                     3.11653   0.11934  -0.23944 
 H                    -0.8429   -1.52261  -0.18267 
 H                    -2.28787  -0.59194   0.09197 
 
 NAtoms=      8 NQM=        8 NQMF=       0 NMMI=      0 NMMIF=      0
                NMic=       0 NMicF=      0.
                    Isotopes and Nuclear Properties:
 (Nuclear quadrupole moments (NQMom) in fm**2, nuclear magnetic moments (NMagM)
  in nuclear magnetons)

  Atom         1           2           3           4           5           6           7           8
 IAtWgt=          12          12          12          14          16           1           1           1
 AtmWgt=  12.0000000  12.0000000  12.0000000  14.0030740  15.9949146   1.0078250   1.0078250   1.0078250
 NucSpn=           0           0           0           2           0           1           1           1
 AtZEff=   0.0000000   0.0000000   0.0000000   0.0000000   0.0000000   0.0000000   0.0000000   0.0000000
 NQMom=    0.0000000   0.0000000   0.0000000   2.0440000   0.0000000   0.0000000   0.0000000   0.0000000
 NMagM=    0.0000000   0.0000000   0.0000000   0.4037610   0.0000000   2.7928460   2.7928460   2.7928460
 AtZNuc=   6.0000000   6.0000000   6.0000000   7.0000000   8.0000000   1.0000000   1.0000000   1.0000000
 Leave Link  101 at Thu Sep  8 15:16:17 2022, MaxMem= 24159191040 cpu:        10.5
 (Enter /public/home/users/caep010/software/Gaussian09/g09/l103.exe)

 GradGradGradGradGradGradGradGradGradGradGradGradGradGradGradGradGradGrad
 Berny optimization.
 Initialization pass.
                           ----------------------------
                           !    Initial Parameters    !
                           ! (Angstroms and Degrees)  !
 --------------------------                            --------------------------
 ! Name  Definition              Value          Derivative Info.                !
 --------------------------------------------------------------------------------
 ! R1    R(1,2)                  1.2021         estimate D2E/DX2                !
 ! R2    R(1,6)                  1.0628         estimate D2E/DX2                !
 ! R3    R(2,3)                  1.4599         estimate D2E/DX2                !
 ! R4    R(3,4)                  1.3632         estimate D2E/DX2                !
 ! R5    R(3,5)                  1.2145         estimate D2E/DX2                !
 ! R6    R(4,7)                  1.0048         estimate D2E/DX2                !
 ! R7    R(4,8)                  1.0068         estimate D2E/DX2                !
 ! A1    A(2,3,4)              113.536          estimate D2E/DX2                !
 ! A2    A(2,3,5)              122.6103         estimate D2E/DX2                !
 ! A3    A(4,3,5)              123.8537         estimate D2E/DX2                !
 ! A4    A(3,4,7)              121.8036         estimate D2E/DX2                !
 ! A5    A(3,4,8)              118.371          estimate D2E/DX2                !
 ! A6    A(7,4,8)              119.8254         estimate D2E/DX2                !
 ! A7    L(2,1,6,7,-1)         180.8463         estimate D2E/DX2                !
 ! A8    L(1,2,3,7,-1)         182.0275         estimate D2E/DX2                !
 ! A9    L(2,1,6,7,-2)         179.9971         estimate D2E/DX2                !
 ! A10   L(1,2,3,7,-2)         180.0016         estimate D2E/DX2                !
 ! D1    D(2,3,4,7)              0.0069         estimate D2E/DX2                !
 ! D2    D(2,3,4,8)           -179.999          estimate D2E/DX2                !
 ! D3    D(5,3,4,7)            179.9991         estimate D2E/DX2                !
 ! D4    D(5,3,4,8)             -0.0068         estimate D2E/DX2                !
 --------------------------------------------------------------------------------
 Trust Radius=3.00D-01 FncErr=1.00D-07 GrdErr=1.00D-06
 Number of steps in this run=     31 maximum allowed number of steps=    100.
 GradGradGradGradGradGradGradGradGradGradGradGradGradGradGradGradGradGrad

 Leave Link  103 at Thu Sep  8 15:16:17 2022, MaxMem= 24159191040 cpu:         0.6
 (Enter /public/home/users/caep010/software/Gaussian09/g09/l202.exe)
                          Input orientation:                          
 ---------------------------------------------------------------------
 Center     Atomic      Atomic             Coordinates (Angstroms)
 Number     Number       Type             X           Y           Z
 ---------------------------------------------------------------------
      1          6           0        2.062137    0.205719   -0.137346
      2          6           0        0.871415    0.320868   -0.019161
      3          6           0       -0.568079    0.511346    0.132196
      4          7           0       -1.286325   -0.639847    0.000726
      5          8           0       -1.064910    1.597221    0.353733
      6          1           0        3.116532    0.119341   -0.239443
      7          1           0       -0.842898   -1.522611   -0.182670
      8          1           0       -2.287873   -0.591937    0.091965
 ---------------------------------------------------------------------
                    Distance matrix (angstroms):
                    1          2          3          4          5
     1  C    0.000000
     2  C    1.202101   0.000000
     3  C    2.661597   1.459909   0.000000
     4  N    3.456334   2.362035   1.363234   0.000000
     5  O    3.457725   2.348932   1.214514   2.275546   0.000000
     6  H    1.062842   2.264881   3.723995   4.474282   4.474421
     7  H    3.380593   2.522701   2.076451   1.004756   3.173385
     8  H    4.428479   3.290389   2.043659   1.006836   2.521225
                    6          7          8
     6  H    0.000000
     7  H    4.286760   0.000000
     8  H    5.461075   1.740555   0.000000
 Stoichiometry    C3H3NO
 Framework group  C1[X(C3H3NO)]
 Deg. of freedom    18
 Full point group                 C1      NOp   1
 Largest Abelian subgroup         C1      NOp   1
 Largest concise Abelian subgroup C1      NOp   1
                         Standard orientation:                         
 ---------------------------------------------------------------------
 Center     Atomic      Atomic             Coordinates (Angstroms)
 Number     Number       Type             X           Y           Z
 ---------------------------------------------------------------------
      1          6           0        2.168193    0.067932    0.000012
      2          6           0        0.968402   -0.006549   -0.000029
      3          6           0       -0.484589   -0.148497   -0.000048
      4          7           0       -1.147904    1.042478    0.000021
      5          8           0       -1.036544   -1.230342    0.000020
      6          1           0        3.229851    0.118109    0.000079
      7          1           0       -0.659552    1.920570   -0.000024
      8          1           0       -2.154655    1.029393    0.000029
 ---------------------------------------------------------------------
 Rotational constants (GHZ):     11.4089979      4.1468757      3.0414040
 Leave Link  202 at Thu Sep  8 15:16:17 2022, MaxMem= 24159191040 cpu:         1.4
 (Enter /public/home/users/caep010/software/Gaussian09/g09/l301.exe)
 Standard basis: 6-31G(d,p) (6D, 7F)
 Ernie: Thresh=  0.10000D-02 Tol=  0.10000D-05 Strict=F.
 There are    90 symmetry adapted cartesian basis functions of A   symmetry.
 There are    90 symmetry adapted basis functions of A   symmetry.
    90 basis functions,   161 primitive gaussians,    90 cartesian basis functions
    18 alpha electrons       18 beta electrons
       nuclear repulsion energy       145.1754889139 Hartrees.
 IExCor=  402 DFT=T Ex+Corr=B3LYP ExCW=0 ScaHFX=  0.200000
 ScaDFX=  0.800000  0.720000  1.000000  0.810000 ScalE2=  1.000000  1.000000
 IRadAn=      0 IRanWt=     -1 IRanGd=            0 ICorTp=0 IEmpDi=  4
 NAtoms=    8 NActive=    8 NUniq=    8 SFac= 1.00D+00 NAtFMM=   60 NAOKFM=F Big=F
 Integral buffers will be    131072 words long.
 Raffenetti 2 integral format.
 Two-electron integral symmetry is turned on.
 Leave Link  301 at Thu Sep  8 15:16:17 2022, MaxMem= 24159191040 cpu:         1.8
 (Enter /public/home/users/caep010/software/Gaussian09/g09/l302.exe)
 NPDir=0 NMtPBC=     1 NCelOv=     1 NCel=       1 NClECP=     1 NCelD=      1
         NCelK=      1 NCelE2=     1 NClLst=     1 CellRange=     0.0.
 One-electron integrals computed using PRISM.
 NBasis=    90 RedAO= T EigKep=  4.27D-04  NBF=    90
 NBsUse=    90 1.00D-06 EigRej= -1.00D+00 NBFU=    90
 Precomputing XC quadrature grid using
 IXCGrd= 4 IRadAn=           0 IRanWt=          -1 IRanGd=           0 AccXCQ= 0.00D+00.
 Generated NRdTot=       0 NPtTot=           0 NUsed=           0 NTot=          32
 NSgBfM=    90    90    90    90    90 MxSgAt=     8 MxSgA2=     8.
 Leave Link  302 at Thu Sep  8 15:16:17 2022, MaxMem= 24159191040 cpu:        11.0
 (Enter /public/home/users/caep010/software/Gaussian09/g09/l303.exe)
 DipDrv:  MaxL=1.
 Leave Link  303 at Thu Sep  8 15:16:17 2022, MaxMem= 24159191040 cpu:         0.7
 (Enter /public/home/users/caep010/software/Gaussian09/g09/l401.exe)
 ExpMin= 1.61D-01 ExpMax= 5.48D+03 ExpMxC= 8.25D+02 IAcc=1 IRadAn=         1 AccDes= 0.00D+00
 Harris functional with IExCor=  402 and IRadAn=       1 diagonalized for initial guess.
 HarFok:  IExCor=  402 AccDes= 0.00D+00 IRadAn=         1 IDoV= 1 UseB2=F ITyADJ=14
 ICtDFT=  3500011 ScaDFX=  1.000000  1.000000  1.000000  1.000000
 FoFCou: FMM=F IPFlag=           0 FMFlag=      100000 FMFlg1=           0
         NFxFlg=           0 DoJE=T BraDBF=F KetDBF=T FulRan=T
         wScrn=  0.000000 ICntrl=     500 IOpCl=  0 I1Cent=   200000004 NGrid=           0
         NMat0=    1 NMatS0=      1 NMatT0=    0 NMatD0=    1 NMtDS0=    0 NMtDT0=    0
 Petite list used in FoFCou.
 Harris En= -246.082883679783    
 JPrj=0 DoOrth=F DoCkMO=F.
 Leave Link  401 at Thu Sep  8 15:16:18 2022, MaxMem= 24159191040 cpu:         9.1
 (Enter /public/home/users/caep010/software/Gaussian09/g09/l502.exe)
 Closed shell SCF:
 Using DIIS extrapolation, IDIIS=  1040.
 Integral symmetry usage will be decided dynamically.
 Keep R1 ints in memory in canonical form, NReq=9343545.
 IVT=       46405 IEndB=       46405 NGot= 24159191040 MDV= 24150758076
 LenX= 24150758076 LenY= 24150749535
 Requested convergence on RMS density matrix=1.00D-08 within 128 cycles.
 Requested convergence on MAX density matrix=1.00D-06.
 Requested convergence on             energy=1.00D-06.
 No special actions if energy rises.
 FoFCou: FMM=F IPFlag=           0 FMFlag=           0 FMFlg1=           0
         NFxFlg=           0 DoJE=F BraDBF=F KetDBF=F FulRan=T
         wScrn=  0.000000 ICntrl=     600 IOpCl=  0 I1Cent=           0 NGrid=           0
         NMat0=    1 NMatS0=   4095 NMatT0=    0 NMatD0=    1 NMtDS0=    0 NMtDT0=    0
 Symmetry not used in FoFCou.
 Integral accuracy reduced to 1.0D-05 until final iterations.

 Cycle   1  Pass 0  IDiag  1:
 E= -245.876876311501    
 DIIS: error= 3.29D-02 at cycle   1 NSaved=   1.
 NSaved= 1 IEnMin= 1 EnMin= -245.876876311501     IErMin= 1 ErrMin= 3.29D-02
 ErrMax= 3.29D-02  0.00D+00 EMaxC= 1.00D-01 BMatC= 1.85D-01 BMatP= 1.85D-01
 IDIUse=3 WtCom= 6.71D-01 WtEn= 3.29D-01
 Coeff-Com:  0.100D+01
 Coeff-En:   0.100D+01
 Coeff:      0.100D+01
 Gap=     0.233 Goal=   None    Shift=    0.000
 GapD=    0.233 DampG=1.000 DampE=0.500 DampFc=0.5000 IDamp=-1.
 Damping current iteration by 5.00D-01
 RMSDP=1.49D-02 MaxDP=2.24D-01              OVMax= 2.94D-01

 Cycle   2  Pass 0  IDiag  1:
 E= -245.915983780848     Delta-E=       -0.039107469347 Rises=F Damp=T
 DIIS: error= 1.61D-02 at cycle   2 NSaved=   2.
 NSaved= 2 IEnMin= 2 EnMin= -245.915983780848     IErMin= 2 ErrMin= 1.61D-02
 ErrMax= 1.61D-02  0.00D+00 EMaxC= 1.00D-01 BMatC= 3.41D-02 BMatP= 1.85D-01
 IDIUse=3 WtCom= 8.39D-01 WtEn= 1.61D-01
 Coeff-Com:  0.236D+00 0.764D+00
 Coeff-En:   0.363D+00 0.637D+00
 Coeff:      0.257D+00 0.743D+00
 Gap=     0.242 Goal=   None    Shift=    0.000
 RMSDP=4.87D-03 MaxDP=9.43D-02 DE=-3.91D-02 OVMax= 2.09D-01

 Cycle   3  Pass 0  IDiag  1:
 E= -246.006297479073     Delta-E=       -0.090313698225 Rises=F Damp=F
 DIIS: error= 2.06D-02 at cycle   3 NSaved=   3.
 NSaved= 3 IEnMin= 3 EnMin= -246.006297479073     IErMin= 2 ErrMin= 1.61D-02
 ErrMax= 2.06D-02  0.00D+00 EMaxC= 1.00D-01 BMatC= 3.49D-02 BMatP= 3.41D-02
 IDIUse=3 WtCom= 7.94D-01 WtEn= 2.06D-01
 Coeff-Com:  0.799D-01 0.490D+00 0.430D+00
 Coeff-En:   0.000D+00 0.000D+00 0.100D+01
 Coeff:      0.635D-01 0.389D+00 0.547D+00
 Gap=     0.270 Goal=   None    Shift=    0.000
 RMSDP=2.92D-03 MaxDP=5.63D-02 DE=-9.03D-02 OVMax= 1.13D-01

 Cycle   4  Pass 0  IDiag  1:
 E= -246.028467408983     Delta-E=       -0.022169929911 Rises=F Damp=F
 DIIS: error= 1.06D-02 at cycle   4 NSaved=   4.
 NSaved= 4 IEnMin= 4 EnMin= -246.028467408983     IErMin= 4 ErrMin= 1.06D-02
 ErrMax= 1.06D-02  0.00D+00 EMaxC= 1.00D-01 BMatC= 1.05D-02 BMatP= 3.41D-02
 IDIUse=3 WtCom= 8.94D-01 WtEn= 1.06D-01
 Coeff-Com:  0.299D-01 0.910D-01 0.348D+00 0.531D+00
 Coeff-En:   0.000D+00 0.000D+00 0.261D+00 0.739D+00
 Coeff:      0.268D-01 0.813D-01 0.339D+00 0.553D+00
 Gap=     0.236 Goal=   None    Shift=    0.000
 RMSDP=1.22D-03 MaxDP=2.29D-02 DE=-2.22D-02 OVMax= 4.67D-02

 Cycle   5  Pass 0  IDiag  1:
 E= -246.036677409466     Delta-E=       -0.008210000483 Rises=F Damp=F
 DIIS: error= 1.63D-03 at cycle   5 NSaved=   5.
 NSaved= 5 IEnMin= 5 EnMin= -246.036677409466     IErMin= 5 ErrMin= 1.63D-03
 ErrMax= 1.63D-03  0.00D+00 EMaxC= 1.00D-01 BMatC= 2.98D-04 BMatP= 1.05D-02
 IDIUse=3 WtCom= 9.84D-01 WtEn= 1.63D-02
 Coeff-Com:  0.490D-02-0.126D-01 0.120D+00 0.297D+00 0.591D+00
 Coeff-En:   0.000D+00 0.000D+00 0.000D+00 0.000D+00 0.100D+01
 Coeff:      0.482D-02-0.124D-01 0.118D+00 0.292D+00 0.598D+00
 Gap=     0.236 Goal=   None    Shift=    0.000
 RMSDP=2.13D-04 MaxDP=4.81D-03 DE=-8.21D-03 OVMax= 7.87D-03

 Cycle   6  Pass 0  IDiag  1:
 E= -246.036951218025     Delta-E=       -0.000273808559 Rises=F Damp=F
 DIIS: error= 3.10D-04 at cycle   6 NSaved=   6.
 NSaved= 6 IEnMin= 6 EnMin= -246.036951218025     IErMin= 6 ErrMin= 3.10D-04
 ErrMax= 3.10D-04  0.00D+00 EMaxC= 1.00D-01 BMatC= 8.18D-06 BMatP= 2.98D-04
 IDIUse=3 WtCom= 9.97D-01 WtEn= 3.10D-03
 Coeff-Com:  0.103D-02-0.611D-02 0.316D-01 0.783D-01 0.230D+00 0.665D+00
 Coeff-En:   0.000D+00 0.000D+00 0.000D+00 0.000D+00 0.000D+00 0.100D+01
 Coeff:      0.103D-02-0.609D-02 0.315D-01 0.781D-01 0.230D+00 0.666D+00
 Gap=     0.236 Goal=   None    Shift=    0.000
 RMSDP=3.74D-05 MaxDP=7.25D-04 DE=-2.74D-04 OVMax= 1.49D-03

 Cycle   7  Pass 0  IDiag  1:
 E= -246.036956217110     Delta-E=       -0.000004999085 Rises=F Damp=F
 DIIS: error= 1.42D-04 at cycle   7 NSaved=   7.
 NSaved= 7 IEnMin= 7 EnMin= -246.036956217110     IErMin= 7 ErrMin= 1.42D-04
 ErrMax= 1.42D-04  0.00D+00 EMaxC= 1.00D-01 BMatC= 2.80D-06 BMatP= 8.18D-06
 IDIUse=3 WtCom= 9.99D-01 WtEn= 1.42D-03
 Coeff-Com:  0.188D-03-0.228D-02 0.815D-02 0.183D-01 0.932D-01 0.465D+00
 Coeff-Com:  0.417D+00
 Coeff-En:   0.000D+00 0.000D+00 0.000D+00 0.000D+00 0.000D+00 0.242D+00
 Coeff-En:   0.758D+00
 Coeff:      0.188D-03-0.227D-02 0.814D-02 0.183D-01 0.931D-01 0.465D+00
 Coeff:      0.418D+00
 Gap=     0.236 Goal=   None    Shift=    0.000
 RMSDP=2.03D-05 MaxDP=3.80D-04 DE=-5.00D-06 OVMax= 8.10D-04

 Cycle   8  Pass 0  IDiag  1:
 E= -246.036958890227     Delta-E=       -0.000002673117 Rises=F Damp=F
 DIIS: error= 4.60D-05 at cycle   8 NSaved=   8.
 NSaved= 8 IEnMin= 8 EnMin= -246.036958890227     IErMin= 8 ErrMin= 4.60D-05
 ErrMax= 4.60D-05  0.00D+00 EMaxC= 1.00D-01 BMatC= 2.44D-07 BMatP= 2.80D-06
 IDIUse=1 WtCom= 1.00D+00 WtEn= 0.00D+00
 Coeff-Com: -0.124D-04-0.709D-03 0.111D-02 0.137D-02 0.303D-01 0.208D+00
 Coeff-Com:  0.266D+00 0.495D+00
 Coeff:     -0.124D-04-0.709D-03 0.111D-02 0.137D-02 0.303D-01 0.208D+00
 Coeff:      0.266D+00 0.495D+00
 Gap=     0.236 Goal=   None    Shift=    0.000
 RMSDP=4.98D-06 MaxDP=1.13D-04 DE=-2.67D-06 OVMax= 1.83D-04

 Initial convergence to 1.0D-05 achieved.  Increase integral accuracy.
 Cycle   9  Pass 1  IDiag  1:
 E= -246.036949383321     Delta-E=        0.000009506907 Rises=F Damp=F
 DIIS: error= 4.76D-06 at cycle   1 NSaved=   1.
 NSaved= 1 IEnMin= 1 EnMin= -246.036949383321     IErMin= 1 ErrMin= 4.76D-06
 ErrMax= 4.76D-06  0.00D+00 EMaxC= 1.00D-01 BMatC= 6.17D-09 BMatP= 6.17D-09
 IDIUse=1 WtCom= 1.00D+00 WtEn= 0.00D+00
 Coeff-Com:  0.100D+01
 Coeff:      0.100D+01
 Gap=     0.236 Goal=   None    Shift=    0.000
 RMSDP=4.98D-06 MaxDP=1.13D-04 DE= 9.51D-06 OVMax= 4.39D-05

 Cycle  10  Pass 1  IDiag  1:
 E= -246.036949384914     Delta-E=       -0.000000001593 Rises=F Damp=F
 DIIS: error= 7.95D-06 at cycle   2 NSaved=   2.
 NSaved= 2 IEnMin= 2 EnMin= -246.036949384914     IErMin= 1 ErrMin= 4.76D-06
 ErrMax= 7.95D-06  0.00D+00 EMaxC= 1.00D-01 BMatC= 5.70D-09 BMatP= 6.17D-09
 IDIUse=1 WtCom= 1.00D+00 WtEn= 0.00D+00
 Coeff-Com:  0.487D+00 0.513D+00
 Coeff:      0.487D+00 0.513D+00
 Gap=     0.236 Goal=   None    Shift=    0.000
 RMSDP=1.05D-06 MaxDP=2.32D-05 DE=-1.59D-09 OVMax= 3.76D-05

 Cycle  11  Pass 1  IDiag  1:
 E= -246.036949388457     Delta-E=       -0.000000003543 Rises=F Damp=F
 DIIS: error= 4.73D-06 at cycle   3 NSaved=   3.
 NSaved= 3 IEnMin= 3 EnMin= -246.036949388457     IErMin= 3 ErrMin= 4.73D-06
 ErrMax= 4.73D-06  0.00D+00 EMaxC= 1.00D-01 BMatC= 1.81D-09 BMatP= 5.70D-09
 IDIUse=1 WtCom= 1.00D+00 WtEn= 0.00D+00
 Coeff-Com:  0.138D+00 0.346D+00 0.516D+00
 Coeff:      0.138D+00 0.346D+00 0.516D+00
 Gap=     0.236 Goal=   None    Shift=    0.000
 RMSDP=5.07D-07 MaxDP=1.08D-05 DE=-3.54D-09 OVMax= 2.24D-05

 Cycle  12  Pass 1  IDiag  1:
 E= -246.036949389912     Delta-E=       -0.000000001455 Rises=F Damp=F
 DIIS: error= 1.48D-06 at cycle   4 NSaved=   4.
 NSaved= 4 IEnMin= 4 EnMin= -246.036949389912     IErMin= 4 ErrMin= 1.48D-06
 ErrMax= 1.48D-06  0.00D+00 EMaxC= 1.00D-01 BMatC= 3.25D-10 BMatP= 1.81D-09
 IDIUse=1 WtCom= 1.00D+00 WtEn= 0.00D+00
 Coeff-Com: -0.127D-01 0.120D+00 0.349D+00 0.543D+00
 Coeff:     -0.127D-01 0.120D+00 0.349D+00 0.543D+00
 Gap=     0.236 Goal=   None    Shift=    0.000
 RMSDP=1.94D-07 MaxDP=3.62D-06 DE=-1.45D-09 OVMax= 7.72D-06

 Cycle  13  Pass 1  IDiag  1:
 E= -246.036949390239     Delta-E=       -0.000000000328 Rises=F Damp=F
 DIIS: error= 1.95D-07 at cycle   5 NSaved=   5.
 NSaved= 5 IEnMin= 5 EnMin= -246.036949390239     IErMin= 5 ErrMin= 1.95D-07
 ErrMax= 1.95D-07  0.00D+00 EMaxC= 1.00D-01 BMatC= 4.39D-12 BMatP= 3.25D-10
 IDIUse=1 WtCom= 1.00D+00 WtEn= 0.00D+00
 Coeff-Com: -0.704D-02 0.473D-01 0.140D+00 0.250D+00 0.569D+00
 Coeff:     -0.704D-02 0.473D-01 0.140D+00 0.250D+00 0.569D+00
 Gap=     0.236 Goal=   None    Shift=    0.000
 RMSDP=2.74D-08 MaxDP=7.18D-07 DE=-3.28D-10 OVMax= 1.06D-06

 Cycle  14  Pass 1  IDiag  1:
 E= -246.036949390245     Delta-E=       -0.000000000006 Rises=F Damp=F
 DIIS: error= 7.42D-08 at cycle   6 NSaved=   6.
 NSaved= 6 IEnMin= 6 EnMin= -246.036949390245     IErMin= 6 ErrMin= 7.42D-08
 ErrMax= 7.42D-08  0.00D+00 EMaxC= 1.00D-01 BMatC= 7.40D-13 BMatP= 4.39D-12
 IDIUse=1 WtCom= 1.00D+00 WtEn= 0.00D+00
 Coeff-Com: -0.290D-02 0.111D-01 0.323D-01 0.736D-01 0.327D+00 0.559D+00
 Coeff:     -0.290D-02 0.111D-01 0.323D-01 0.736D-01 0.327D+00 0.559D+00
 Gap=     0.236 Goal=   None    Shift=    0.000
 RMSDP=1.05D-08 MaxDP=2.19D-07 DE=-5.74D-12 OVMax= 3.34D-07

 Cycle  15  Pass 1  IDiag  1:
 E= -246.036949390245     Delta-E=        0.000000000000 Rises=F Damp=F
 DIIS: error= 3.44D-08 at cycle   7 NSaved=   7.
 NSaved= 7 IEnMin= 6 EnMin= -246.036949390245     IErMin= 7 ErrMin= 3.44D-08
 ErrMax= 3.44D-08  0.00D+00 EMaxC= 1.00D-01 BMatC= 9.47D-14 BMatP= 7.40D-13
 IDIUse=1 WtCom= 1.00D+00 WtEn= 0.00D+00
 Coeff-Com: -0.972D-03 0.287D-02 0.730D-02 0.230D-01 0.157D+00 0.323D+00
 Coeff-Com:  0.488D+00
 Coeff:     -0.972D-03 0.287D-02 0.730D-02 0.230D-01 0.157D+00 0.323D+00
 Coeff:      0.488D+00
 Gap=     0.236 Goal=   None    Shift=    0.000
 RMSDP=4.63D-09 MaxDP=1.11D-07 DE= 2.84D-13 OVMax= 1.68D-07

 SCF Done:  E(RB3LYP) =  -246.036949390     A.U. after   15 cycles
            NFock= 15  Conv=0.46D-08     -V/T= 2.0089
 KE= 2.438604152788D+02 PE=-8.647662765157D+02 EE= 2.296934229327D+02
 Leave Link  502 at Thu Sep  8 15:16:19 2022, MaxMem= 24159191040 cpu:        22.4
 (Enter /public/home/users/caep010/software/Gaussian09/g09/l601.exe)
 Copying SCF densities to generalized density rwf, IOpCl= 0 IROHF=0.

 **********************************************************************

            Population analysis using the SCF density.

 **********************************************************************

 Orbital symmetries:
       Occupied  (A) (A) (A) (A) (A) (A) (A) (A) (A) (A) (A) (A)
                 (A) (A) (A) (A) (A) (A)
       Virtual   (A) (A) (A) (A) (A) (A) (A) (A) (A) (A) (A) (A)
                 (A) (A) (A) (A) (A) (A) (A) (A) (A) (A) (A) (A)
                 (A) (A) (A) (A) (A) (A) (A) (A) (A) (A) (A) (A)
                 (A) (A) (A) (A) (A) (A) (A) (A) (A) (A) (A) (A)
                 (A) (A) (A) (A) (A) (A) (A) (A) (A) (A) (A) (A)
                 (A) (A) (A) (A) (A) (A) (A) (A) (A) (A) (A) (A)
 The electronic state is 1-A.
 Alpha  occ. eigenvalues --  -19.12320 -14.36803 -10.31387 -10.20790 -10.20318
 Alpha  occ. eigenvalues --   -1.04603  -0.91699  -0.77056  -0.65953  -0.57155
 Alpha  occ. eigenvalues --   -0.53913  -0.50360  -0.42485  -0.42358  -0.30302
 Alpha  occ. eigenvalues --   -0.29427  -0.27776  -0.26339
 Alpha virt. eigenvalues --   -0.02734   0.03370   0.08342   0.11014   0.12910
 Alpha virt. eigenvalues --    0.13084   0.23672   0.31803   0.37118   0.43616
 Alpha virt. eigenvalues --    0.50666   0.52143   0.52699   0.59734   0.62347
 Alpha virt. eigenvalues --    0.63971   0.66191   0.71130   0.72863   0.74369
 Alpha virt. eigenvalues --    0.74640   0.83439   0.84142   0.86768   0.91364
 Alpha virt. eigenvalues --    1.03489   1.06946   1.07856   1.16553   1.26528
 Alpha virt. eigenvalues --    1.27614   1.34300   1.35625   1.44115   1.51134
 Alpha virt. eigenvalues --    1.53704   1.54850   1.56637   1.69476   1.79025
 Alpha virt. eigenvalues --    1.82325   1.83694   1.90268   1.92296   1.95313
 Alpha virt. eigenvalues --    2.00309   2.07256   2.07347   2.08074   2.15453
 Alpha virt. eigenvalues --    2.28426   2.30094   2.37538   2.44233   2.54443
 Alpha virt. eigenvalues --    2.60117   2.61898   2.70730   2.81098   2.90026
 Alpha virt. eigenvalues --    2.98016   2.99327   3.07076   3.16621   3.39908
 Alpha virt. eigenvalues --    3.57551   3.72701   3.93095   4.11326   4.31124
 Alpha virt. eigenvalues --    4.64571   5.10009
          Condensed to atoms (all electrons):
               1          2          3          4          5          6
     1  C    5.461880   0.814434  -0.196708  -0.005129  -0.011548   0.353542
     2  C    0.814434   4.901331   0.211824  -0.144617  -0.094593   0.008982
     3  C   -0.196708   0.211824   4.611947   0.296080   0.647456   0.001447
     4  N   -0.005129  -0.144617   0.296080   6.893592  -0.095304  -0.000066
     5  O   -0.011548  -0.094593   0.647456  -0.095304   8.007579  -0.000091
     6  H    0.353542   0.008982   0.001447  -0.000066  -0.000091   0.463595
     7  H    0.001552   0.006377  -0.013351   0.328000   0.003479   0.000028
     8  H   -0.000051   0.007581  -0.011745   0.323179   0.006074   0.000002
               7          8
     1  C    0.001552  -0.000051
     2  C    0.006377   0.007581
     3  C   -0.013351  -0.011745
     4  N    0.328000   0.323179
     5  O    0.003479   0.006074
     6  H    0.000028   0.000002
     7  H    0.416452  -0.020906
     8  H   -0.020906   0.411766
 Mulliken charges:
               1
     1  C   -0.417973
     2  C    0.288681
     3  C    0.453050
     4  N   -0.595735
     5  O   -0.463054
     6  H    0.172561
     7  H    0.278370
     8  H    0.284100
 Sum of Mulliken charges =  -0.00000
 Mulliken charges with hydrogens summed into heavy atoms:
               1
     1  C   -0.245412
     2  C    0.288681
     3  C    0.453050
     4  N   -0.033266
     5  O   -0.463054
 Electronic spatial extent (au):  <R**2>=            390.5185
 Charge=             -0.0000 electrons
 Dipole moment (field-independent basis, Debye):
    X=              0.8583    Y=              3.7110    Z=             -0.0001  Tot=              3.8090
 Quadrupole moment (field-independent basis, Debye-Ang):
   XX=            -20.1348   YY=            -28.2564   ZZ=            -29.1603
   XY=             -4.1235   XZ=              0.0004   YZ=             -0.0001
 Traceless Quadrupole moment (field-independent basis, Debye-Ang):
   XX=              5.7157   YY=             -2.4059   ZZ=             -3.3098
   XY=             -4.1235   XZ=              0.0004   YZ=             -0.0001
 Octapole moment (field-independent basis, Debye-Ang**2):
  XXX=              8.2987  YYY=             11.6050  ZZZ=              0.0001  XYY=             -3.9442
  XXY=              7.7595  XXZ=              0.0011  XZZ=             -3.3171  YZZ=             -1.6047
  YYZ=             -0.0001  XYZ=              0.0000
 Hexadecapole moment (field-independent basis, Debye-Ang**3):
 XXXX=           -221.8997 YYYY=           -113.8103 ZZZZ=            -26.4844 XXXY=            -10.8287
 XXXZ=              0.0030 YYYX=             -9.4506 YYYZ=             -0.0004 ZZZX=              0.0002
 ZZZY=             -0.0002 XXYY=            -79.8624 XXZZ=            -65.3523 YYZZ=            -26.7331
 XXYZ=              0.0003 YYXZ=              0.0001 ZZXY=              1.4344
 N-N= 1.451754889139D+02 E-N=-8.647662764827D+02  KE= 2.438604152788D+02
 No NMR shielding tensors so no spin-rotation constants.
 Leave Link  601 at Thu Sep  8 15:16:19 2022, MaxMem= 24159191040 cpu:        10.3
 (Enter /public/home/users/caep010/software/Gaussian09/g09/l701.exe)
 Compute integral first derivatives.
 ... and contract with generalized density number  0.
 Leave Link  701 at Thu Sep  8 15:16:19 2022, MaxMem= 24159191040 cpu:        10.7
 (Enter /public/home/users/caep010/software/Gaussian09/g09/l702.exe)
 L702 exits ... SP integral derivatives will be done elsewhere.
 Leave Link  702 at Thu Sep  8 15:16:19 2022, MaxMem= 24159191040 cpu:         0.5
 (Enter /public/home/users/caep010/software/Gaussian09/g09/l703.exe)
 Compute integral first derivatives, UseDBF=F ICtDFT=           0.
 Integral derivatives from FoFJK, PRISM(SPDF).
 Calling FoFJK, ICntrl=      2127 FMM=F ISym2X=0 I1Cent= 0 IOpClX= 0 NMat=1 NMatS=1 NMatT=0.
 FoFJK:  IHMeth= 1 ICntrl=    2127 DoSepK=F KAlg= 0 I1Cent=   0 FoldK=F
 IRaf=         0 NMat=   1 IRICut=       1 DoRegI=T DoRafI=F ISym2E= 0.
 FoFCou: FMM=F IPFlag=           0 FMFlag=      100000 FMFlg1=         800
         NFxFlg=           0 DoJE=F BraDBF=F KetDBF=F FulRan=T
         wScrn=  0.000000 ICntrl=    2127 IOpCl=  0 I1Cent=           0 NGrid=           0
         NMat0=    1 NMatS0=      1 NMatT0=    0 NMatD0=    1 NMtDS0=    0 NMtDT0=    0
 Symmetry not used in FoFCou.
 Leave Link  703 at Thu Sep  8 15:16:20 2022, MaxMem= 24159191040 cpu:        12.5
 (Enter /public/home/users/caep010/software/Gaussian09/g09/l716.exe)
 Dipole        = 3.37690423D-01 1.46003638D+00-4.43711058D-05
 ***** Axes restored to original set *****
 -------------------------------------------------------------------
 Center     Atomic                   Forces (Hartrees/Bohr)
 Number     Number              X              Y              Z
 -------------------------------------------------------------------
      1        6           0.010134570   -0.001049965   -0.001018344
      2        6          -0.009592204    0.001228558    0.001006611
      3        6           0.002905362   -0.007850991   -0.001561442
      4        7          -0.000689806   -0.001024660   -0.000108231
      5        8          -0.004539446    0.010379762    0.002107501
      6        1           0.002645652   -0.000195744   -0.000251887
      7        1           0.000724493   -0.001797715   -0.000357796
      8        1          -0.001588622    0.000310754    0.000183587
 -------------------------------------------------------------------
 Cartesian Forces:  Max     0.010379762 RMS     0.004182624
 Leave Link  716 at Thu Sep  8 15:16:20 2022, MaxMem= 24159191040 cpu:         0.8
 (Enter /public/home/users/caep010/software/Gaussian09/g09/l103.exe)

 GradGradGradGradGradGradGradGradGradGradGradGradGradGradGradGradGradGrad
 Berny optimization.
 FormGI is forming the generalized inverse of G from B-inverse, IUseBI=4.
 Internal  Forces:  Max     0.012903112 RMS     0.003979953
 Search for a local minimum.
 Step number   1 out of a maximum of   31
 All quantities printed in internal units (Hartrees-Bohrs-Radians)
 RMS Force = .39800D-02 SwitMx=.10000D-02 MixMth= 1
 Mixed Optimization -- RFO/linear search
 Second derivative matrix not updated -- first step.
 ITU=  0
     Eigenvalues ---    0.00594   0.00594   0.01296   0.01296   0.02178
     Eigenvalues ---    0.02178   0.02178   0.16000   0.16000   0.25000
     Eigenvalues ---    0.25000   0.36976   0.38150   0.46506   0.46862
     Eigenvalues ---    0.52299   0.97856   1.03775
 RFO step:  Lambda=-3.77308232D-04 EMin= 5.94074258D-03
 Linear search not attempted -- first point.
 Iteration  1 RMS(Cart)=  0.01059823 RMS(Int)=  0.00001997
 Iteration  2 RMS(Cart)=  0.00002827 RMS(Int)=  0.00000002
 Iteration  3 RMS(Cart)=  0.00000000 RMS(Int)=  0.00000002
 ITry= 1 IFail=0 DXMaxC= 2.68D-02 DCOld= 1.00D+10 DXMaxT= 3.00D-01 DXLimC= 3.00D+00 Rises=F
 Variable       Old X    -DE/DX   Delta X   Delta X   Delta X     New X
                                 (Linear)    (Quad)   (Total)
    R1        2.27164   0.01290   0.00000   0.01243   0.01243   2.28407
    R2        2.00848   0.00266   0.00000   0.00698   0.00698   2.01546
    R3        2.75883   0.00317   0.00000   0.00857   0.00857   2.76740
    R4        2.57614   0.00297   0.00000   0.00567   0.00567   2.58181
    R5        2.29510   0.01152   0.00000   0.01177   0.01177   2.30687
    R6        1.89871   0.00197   0.00000   0.00419   0.00419   1.90290
    R7        1.90264   0.00161   0.00000   0.00346   0.00346   1.90611
    A1        1.98158   0.00063   0.00000   0.00250   0.00250   1.98407
    A2        2.13995  -0.00053   0.00000  -0.00212  -0.00212   2.13783
    A3        2.16166  -0.00009   0.00000  -0.00038  -0.00038   2.16128
    A4        2.12587   0.00035   0.00000   0.00219   0.00219   2.12806
    A5        2.06596  -0.00040   0.00000  -0.00250  -0.00250   2.06347
    A6        2.09135   0.00005   0.00000   0.00031   0.00031   2.09165
    A7        3.15636   0.00005   0.00000   0.00718   0.00718   3.16355
    A8        3.17698   0.00003   0.00000   0.00208   0.00208   3.17906
    A9        3.14154   0.00000   0.00000   0.00015   0.00015   3.14169
   A10        3.14162  -0.00000   0.00000  -0.00008  -0.00008   3.14154
    D1        0.00012  -0.00001   0.00000  -0.00026  -0.00026  -0.00014
    D2       -3.14158  -0.00001   0.00000  -0.00029  -0.00029   3.14132
    D3        3.14158   0.00001   0.00000   0.00032   0.00032  -3.14129
    D4       -0.00012   0.00001   0.00000   0.00030   0.00030   0.00018
         Item               Value     Threshold  Converged?
 Maximum Force            0.012903     0.000450     NO 
 RMS     Force            0.003980     0.000300     NO 
 Maximum Displacement     0.026811     0.001800     NO 
 RMS     Displacement     0.010609     0.001200     NO 
 Predicted change in Energy=-1.887589D-04
 Lowest energy point so far.  Saving SCF results.
 GradGradGradGradGradGradGradGradGradGradGradGradGradGradGradGradGradGrad

 Leave Link  103 at Thu Sep  8 15:16:20 2022, MaxMem= 24159191040 cpu:         1.4
 (Enter /public/home/users/caep010/software/Gaussian09/g09/l202.exe)
                          Input orientation:                          
 ---------------------------------------------------------------------
 Center     Atomic      Atomic             Coordinates (Angstroms)
 Number     Number       Type             X           Y           Z
 ---------------------------------------------------------------------
      1          6           0        2.071746    0.204889   -0.138309
      2          6           0        0.874223    0.318223   -0.019999
      3          6           0       -0.569748    0.509312    0.131754
      4          7           0       -1.292448   -0.642703    0.000741
      5          8           0       -1.066740    1.601776    0.354759
      6          1           0        3.130720    0.127895   -0.239017
      7          1           0       -0.852275   -1.529522   -0.183089
      8          1           0       -2.295478   -0.589770    0.093160
 ---------------------------------------------------------------------
                    Distance matrix (angstroms):
                    1          2          3          4          5
     1  C    0.000000
     2  C    1.208678   0.000000
     3  C    2.672657   1.464444   0.000000
     4  N    3.472110   2.370290   1.366235   0.000000
     5  O    3.470519   2.356967   1.220742   2.283410   0.000000
     6  H    1.066535   2.275076   3.738504   4.496190   4.488159
     7  H    3.400012   2.534078   2.082256   1.006973   3.184385
     8  H    4.444964   3.299130   2.046366   1.008668   2.526085
                    6          7          8
     6  H    0.000000
     7  H    4.314441   0.000000
     8  H    5.483521   1.744214   0.000000
 Stoichiometry    C3H3NO
 Framework group  C1[X(C3H3NO)]
 Deg. of freedom    18
 Full point group                 C1      NOp   1
 RotChk:  IX=2 Diff= 1.41D-03
 Largest Abelian subgroup         C1      NOp   1
 Largest concise Abelian subgroup C1      NOp   1
                         Standard orientation:                         
 ---------------------------------------------------------------------
 Center     Atomic      Atomic             Coordinates (Angstroms)
 Number     Number       Type             X           Y           Z
 ---------------------------------------------------------------------
      1          6           0        2.177666    0.070241   -0.000042
      2          6           0        0.971230   -0.003339    0.000076
      3          6           0       -0.486133   -0.147185    0.000165
      4          7           0       -1.155079    1.044078   -0.000019
      5          8           0       -1.037524   -1.236304   -0.000070
      6          1           0        3.243392    0.111780   -0.000204
      7          1           0       -0.670663    1.926878   -0.000077
      8          1           0       -2.163565    1.024921   -0.000213
 ---------------------------------------------------------------------
 Rotational constants (GHZ):     11.3341558      4.1135893      3.0181792
 Leave Link  202 at Thu Sep  8 15:16:20 2022, MaxMem= 24159191040 cpu:         0.2
 (Enter /public/home/users/caep010/software/Gaussian09/g09/l301.exe)
 Standard basis: 6-31G(d,p) (6D, 7F)
 Ernie: Thresh=  0.10000D-02 Tol=  0.10000D-05 Strict=F.
 There are    90 symmetry adapted cartesian basis functions of A   symmetry.
 There are    90 symmetry adapted basis functions of A   symmetry.
    90 basis functions,   161 primitive gaussians,    90 cartesian basis functions
    18 alpha electrons       18 beta electrons
       nuclear repulsion energy       144.6320476085 Hartrees.
 IExCor=  402 DFT=T Ex+Corr=B3LYP ExCW=0 ScaHFX=  0.200000
 ScaDFX=  0.800000  0.720000  1.000000  0.810000 ScalE2=  1.000000  1.000000
 IRadAn=      0 IRanWt=     -1 IRanGd=            0 ICorTp=0 IEmpDi=  4
 NAtoms=    8 NActive=    8 NUniq=    8 SFac= 1.00D+00 NAtFMM=   60 NAOKFM=F Big=F
 Integral buffers will be    131072 words long.
 Raffenetti 2 integral format.
 Two-electron integral symmetry is turned on.
 Leave Link  301 at Thu Sep  8 15:16:20 2022, MaxMem= 24159191040 cpu:         1.6
 (Enter /public/home/users/caep010/software/Gaussian09/g09/l302.exe)
 NPDir=0 NMtPBC=     1 NCelOv=     1 NCel=       1 NClECP=     1 NCelD=      1
         NCelK=      1 NCelE2=     1 NClLst=     1 CellRange=     0.0.
 One-electron integrals computed using PRISM.
 NBasis=    90 RedAO= T EigKep=  4.47D-04  NBF=    90
 NBsUse=    90 1.00D-06 EigRej= -1.00D+00 NBFU=    90
 Precomputing XC quadrature grid using
 IXCGrd= 4 IRadAn=           0 IRanWt=          -1 IRanGd=           0 AccXCQ= 0.00D+00.
 Generated NRdTot=       0 NPtTot=           0 NUsed=           0 NTot=          32
 NSgBfM=    90    90    90    90    90 MxSgAt=     8 MxSgA2=     8.
 Leave Link  302 at Thu Sep  8 15:16:21 2022, MaxMem= 24159191040 cpu:        15.0
 (Enter /public/home/users/caep010/software/Gaussian09/g09/l303.exe)
 DipDrv:  MaxL=1.
 Leave Link  303 at Thu Sep  8 15:16:21 2022, MaxMem= 24159191040 cpu:         1.1
 (Enter /public/home/users/caep010/software/Gaussian09/g09/l401.exe)
 Initial guess from the checkpoint file:  "B3LYP6-31Gdp.Frag_802.chk"
 B after Tr=    -0.000000    0.000000   -0.000000
         Rot=    1.000000    0.000000    0.000000   -0.000711 Ang=   0.08 deg.
 Guess basis will be translated and rotated to current coordinates.
 JPrj=2 DoOrth=T DoCkMO=T.
 Generating alternative initial guess.
 ExpMin= 1.61D-01 ExpMax= 5.48D+03 ExpMxC= 8.25D+02 IAcc=1 IRadAn=         1 AccDes= 0.00D+00
 Harris functional with IExCor=  402 and IRadAn=       1 diagonalized for initial guess.
 HarFok:  IExCor=  402 AccDes= 0.00D+00 IRadAn=         1 IDoV= 1 UseB2=F ITyADJ=14
 ICtDFT=  3500011 ScaDFX=  1.000000  1.000000  1.000000  1.000000
 FoFCou: FMM=F IPFlag=           0 FMFlag=      100000 FMFlg1=           0
         NFxFlg=           0 DoJE=T BraDBF=F KetDBF=T FulRan=T
         wScrn=  0.000000 ICntrl=     500 IOpCl=  0 I1Cent=   200000004 NGrid=           0
         NMat0=    1 NMatS0=      1 NMatT0=    0 NMatD0=    1 NMtDS0=    0 NMtDT0=    0
 Petite list used in FoFCou.
 Harris En= -246.081005129229    
 Leave Link  401 at Thu Sep  8 15:16:21 2022, MaxMem= 24159191040 cpu:        11.1
 (Enter /public/home/users/caep010/software/Gaussian09/g09/l502.exe)
 Closed shell SCF:
 Using DIIS extrapolation, IDIIS=  1040.
 Integral symmetry usage will be decided dynamically.
 Keep R1 ints in memory in canonical form, NReq=9343545.
 IVT=       46405 IEndB=       46405 NGot= 24159191040 MDV= 24150758076
 LenX= 24150758076 LenY= 24150749535
 Requested convergence on RMS density matrix=1.00D-08 within 128 cycles.
 Requested convergence on MAX density matrix=1.00D-06.
 Requested convergence on             energy=1.00D-06.
 No special actions if energy rises.
 FoFCou: FMM=F IPFlag=           0 FMFlag=           0 FMFlg1=           0
         NFxFlg=           0 DoJE=F BraDBF=F KetDBF=F FulRan=T
         wScrn=  0.000000 ICntrl=     600 IOpCl=  0 I1Cent=           0 NGrid=           0
         NMat0=    1 NMatS0=   4095 NMatT0=    0 NMatD0=    1 NMtDS0=    0 NMtDT0=    0
 Symmetry not used in FoFCou.
 Integral accuracy reduced to 1.0D-05 until final iterations.

 Cycle   1  Pass 0  IDiag  1:
 E= -246.037072594387    
 DIIS: error= 5.50D-04 at cycle   1 NSaved=   1.
 NSaved= 1 IEnMin= 1 EnMin= -246.037072594387     IErMin= 1 ErrMin= 5.50D-04
 ErrMax= 5.50D-04  0.00D+00 EMaxC= 1.00D-01 BMatC= 4.94D-05 BMatP= 4.94D-05
 IDIUse=3 WtCom= 9.94D-01 WtEn= 5.50D-03
 Coeff-Com:  0.100D+01
 Coeff-En:   0.100D+01
 Coeff:      0.100D+01
 Gap=     1.898 Goal=   None    Shift=    0.000
 RMSDP=4.14D-04 MaxDP=1.07D-02              OVMax= 2.07D-03

 Cycle   2  Pass 0  IDiag  1:
 E= -246.037127058453     Delta-E=       -0.000054464066 Rises=F Damp=F
 DIIS: error= 2.69D-04 at cycle   2 NSaved=   2.
 NSaved= 2 IEnMin= 2 EnMin= -246.037127058453     IErMin= 2 ErrMin= 2.69D-04
 ErrMax= 2.69D-04  0.00D+00 EMaxC= 1.00D-01 BMatC= 9.44D-06 BMatP= 4.94D-05
 IDIUse=3 WtCom= 9.97D-01 WtEn= 2.69D-03
 Coeff-Com:  0.248D+00 0.752D+00
 Coeff-En:   0.000D+00 0.100D+01
 Coeff:      0.248D+00 0.752D+00
 Gap=     0.234 Goal=   None    Shift=    0.000
 RMSDP=5.77D-05 MaxDP=1.04D-03 DE=-5.45D-05 OVMax= 1.55D-03

 Cycle   3  Pass 0  IDiag  1:
 E= -246.037133086031     Delta-E=       -0.000006027578 Rises=F Damp=F
 DIIS: error= 1.84D-04 at cycle   3 NSaved=   3.
 NSaved= 3 IEnMin= 3 EnMin= -246.037133086031     IErMin= 3 ErrMin= 1.84D-04
 ErrMax= 1.84D-04  0.00D+00 EMaxC= 1.00D-01 BMatC= 3.64D-06 BMatP= 9.44D-06
 IDIUse=3 WtCom= 9.98D-01 WtEn= 1.84D-03
 Coeff-Com:  0.402D-01 0.379D+00 0.581D+00
 Coeff-En:   0.000D+00 0.236D+00 0.764D+00
 Coeff:      0.402D-01 0.379D+00 0.581D+00
 Gap=     0.234 Goal=   None    Shift=    0.000
 RMSDP=2.84D-05 MaxDP=6.63D-04 DE=-6.03D-06 OVMax= 1.19D-03

 Cycle   4  Pass 0  IDiag  1:
 E= -246.037134625447     Delta-E=       -0.000001539416 Rises=F Damp=F
 DIIS: error= 1.46D-04 at cycle   4 NSaved=   4.
 NSaved= 4 IEnMin= 4 EnMin= -246.037134625447     IErMin= 4 ErrMin= 1.46D-04
 ErrMax= 1.46D-04  0.00D+00 EMaxC= 1.00D-01 BMatC= 2.09D-06 BMatP= 3.64D-06
 IDIUse=3 WtCom= 9.99D-01 WtEn= 1.46D-03
 Coeff-Com: -0.824D-02 0.172D+00 0.442D+00 0.394D+00
 Coeff-En:   0.000D+00 0.000D+00 0.384D+00 0.616D+00
 Coeff:     -0.822D-02 0.172D+00 0.442D+00 0.395D+00
 Gap=     0.234 Goal=   None    Shift=    0.000
 RMSDP=1.35D-05 MaxDP=3.13D-04 DE=-1.54D-06 OVMax= 5.61D-04

 Cycle   5  Pass 0  IDiag  1:
 E= -246.037136679234     Delta-E=       -0.000002053786 Rises=F Damp=F
 DIIS: error= 1.32D-05 at cycle   5 NSaved=   5.
 NSaved= 5 IEnMin= 5 EnMin= -246.037136679234     IErMin= 5 ErrMin= 1.32D-05
 ErrMax= 1.32D-05  0.00D+00 EMaxC= 1.00D-01 BMatC= 1.42D-08 BMatP= 2.09D-06
 IDIUse=1 WtCom= 1.00D+00 WtEn= 0.00D+00
 Coeff-Com: -0.413D-02 0.261D-01 0.894D-01 0.131D+00 0.758D+00
 Coeff:     -0.413D-02 0.261D-01 0.894D-01 0.131D+00 0.758D+00
 Gap=     0.234 Goal=   None    Shift=    0.000
 RMSDP=2.05D-06 MaxDP=3.12D-05 DE=-2.05D-06 OVMax= 4.33D-05

 Initial convergence to 1.0D-05 achieved.  Increase integral accuracy.
 Cycle   6  Pass 1  IDiag  1:
 E= -246.037127889683     Delta-E=        0.000008789550 Rises=F Damp=F
 DIIS: error= 5.65D-06 at cycle   1 NSaved=   1.
 NSaved= 1 IEnMin= 1 EnMin= -246.037127889683     IErMin= 1 ErrMin= 5.65D-06
 ErrMax= 5.65D-06  0.00D+00 EMaxC= 1.00D-01 BMatC= 4.73D-09 BMatP= 4.73D-09
 IDIUse=1 WtCom= 1.00D+00 WtEn= 0.00D+00
 Coeff-Com:  0.100D+01
 Coeff:      0.100D+01
 Gap=     0.234 Goal=   None    Shift=    0.000
 RMSDP=2.05D-06 MaxDP=3.12D-05 DE= 8.79D-06 OVMax= 3.94D-05

 Cycle   7  Pass 1  IDiag  1:
 E= -246.037127890739     Delta-E=       -0.000000001056 Rises=F Damp=F
 DIIS: error= 7.69D-06 at cycle   2 NSaved=   2.
 NSaved= 2 IEnMin= 2 EnMin= -246.037127890739     IErMin= 1 ErrMin= 5.65D-06
 ErrMax= 7.69D-06  0.00D+00 EMaxC= 1.00D-01 BMatC= 5.10D-09 BMatP= 4.73D-09
 IDIUse=1 WtCom= 1.00D+00 WtEn= 0.00D+00
 Coeff-Com:  0.512D+00 0.488D+00
 Coeff:      0.512D+00 0.488D+00
 Gap=     0.234 Goal=   None    Shift=    0.000
 RMSDP=1.12D-06 MaxDP=2.29D-05 DE=-1.06D-09 OVMax= 4.40D-05

 Cycle   8  Pass 1  IDiag  1:
 E= -246.037127893851     Delta-E=       -0.000000003112 Rises=F Damp=F
 DIIS: error= 4.25D-06 at cycle   3 NSaved=   3.
 NSaved= 3 IEnMin= 3 EnMin= -246.037127893851     IErMin= 3 ErrMin= 4.25D-06
 ErrMax= 4.25D-06  0.00D+00 EMaxC= 1.00D-01 BMatC= 1.48D-09 BMatP= 4.73D-09
 IDIUse=1 WtCom= 1.00D+00 WtEn= 0.00D+00
 Coeff-Com:  0.720D-01 0.339D+00 0.589D+00
 Coeff:      0.720D-01 0.339D+00 0.589D+00
 Gap=     0.234 Goal=   None    Shift=    0.000
 RMSDP=5.91D-07 MaxDP=1.14D-05 DE=-3.11D-09 OVMax= 1.91D-05

 Cycle   9  Pass 1  IDiag  1:
 E= -246.037127894855     Delta-E=       -0.000000001004 Rises=F Damp=F
 DIIS: error= 1.17D-06 at cycle   4 NSaved=   4.
 NSaved= 4 IEnMin= 4 EnMin= -246.037127894855     IErMin= 4 ErrMin= 1.17D-06
 ErrMax= 1.17D-06  0.00D+00 EMaxC= 1.00D-01 BMatC= 2.30D-10 BMatP= 1.48D-09
 IDIUse=1 WtCom= 1.00D+00 WtEn= 0.00D+00
 Coeff-Com: -0.133D-01 0.164D+00 0.384D+00 0.465D+00
 Coeff:     -0.133D-01 0.164D+00 0.384D+00 0.465D+00
 Gap=     0.234 Goal=   None    Shift=    0.000
 RMSDP=1.57D-07 MaxDP=3.26D-06 DE=-1.00D-09 OVMax= 3.34D-06

 Cycle  10  Pass 1  IDiag  1:
 E= -246.037127895045     Delta-E=       -0.000000000190 Rises=F Damp=F
 DIIS: error= 1.73D-07 at cycle   5 NSaved=   5.
 NSaved= 5 IEnMin= 5 EnMin= -246.037127895045     IErMin= 5 ErrMin= 1.73D-07
 ErrMax= 1.73D-07  0.00D+00 EMaxC= 1.00D-01 BMatC= 3.42D-12 BMatP= 2.30D-10
 IDIUse=1 WtCom= 1.00D+00 WtEn= 0.00D+00
 Coeff-Com: -0.783D-02 0.712D-01 0.173D+00 0.228D+00 0.536D+00
 Coeff:     -0.783D-02 0.712D-01 0.173D+00 0.228D+00 0.536D+00
 Gap=     0.234 Goal=   None    Shift=    0.000
 RMSDP=2.35D-08 MaxDP=4.02D-07 DE=-1.90D-10 OVMax= 7.13D-07

 Cycle  11  Pass 1  IDiag  1:
 E= -246.037127895045     Delta-E=       -0.000000000001 Rises=F Damp=F
 DIIS: error= 7.65D-08 at cycle   6 NSaved=   6.
 NSaved= 6 IEnMin= 6 EnMin= -246.037127895045     IErMin= 6 ErrMin= 7.65D-08
 ErrMax= 7.65D-08  0.00D+00 EMaxC= 1.00D-01 BMatC= 5.46D-13 BMatP= 3.42D-12
 IDIUse=1 WtCom= 1.00D+00 WtEn= 0.00D+00
 Coeff-Com: -0.319D-02 0.216D-01 0.541D-01 0.760D-01 0.300D+00 0.551D+00
 Coeff:     -0.319D-02 0.216D-01 0.541D-01 0.760D-01 0.300D+00 0.551D+00
 Gap=     0.234 Goal=   None    Shift=    0.000
 RMSDP=9.82D-09 MaxDP=2.35D-07 DE=-6.82D-13 OVMax= 4.55D-07

 SCF Done:  E(RB3LYP) =  -246.037127895     A.U. after   11 cycles
            NFock= 11  Conv=0.98D-08     -V/T= 2.0093
 KE= 2.437748146097D+02 PE=-8.636128859793D+02 EE= 2.291688958662D+02
 Leave Link  502 at Thu Sep  8 15:16:22 2022, MaxMem= 24159191040 cpu:        23.5
 (Enter /public/home/users/caep010/software/Gaussian09/g09/l701.exe)
 Compute integral first derivatives.
 ... and contract with generalized density number  0.
 Leave Link  701 at Thu Sep  8 15:16:23 2022, MaxMem= 24159191040 cpu:        10.7
 (Enter /public/home/users/caep010/software/Gaussian09/g09/l702.exe)
 L702 exits ... SP integral derivatives will be done elsewhere.
 Leave Link  702 at Thu Sep  8 15:16:23 2022, MaxMem= 24159191040 cpu:         0.5
 (Enter /public/home/users/caep010/software/Gaussian09/g09/l703.exe)
 Compute integral first derivatives, UseDBF=F ICtDFT=           0.
 Integral derivatives from FoFJK, PRISM(SPDF).
 Calling FoFJK, ICntrl=      2127 FMM=F ISym2X=0 I1Cent= 0 IOpClX= 0 NMat=1 NMatS=1 NMatT=0.
 FoFJK:  IHMeth= 1 ICntrl=    2127 DoSepK=F KAlg= 0 I1Cent=   0 FoldK=F
 IRaf=         0 NMat=   1 IRICut=       1 DoRegI=T DoRafI=F ISym2E= 0.
 FoFCou: FMM=F IPFlag=           0 FMFlag=      100000 FMFlg1=         800
         NFxFlg=           0 DoJE=F BraDBF=F KetDBF=F FulRan=T
         wScrn=  0.000000 ICntrl=    2127 IOpCl=  0 I1Cent=           0 NGrid=           0
         NMat0=    1 NMatS0=      1 NMatT0=    0 NMatD0=    1 NMtDS0=    0 NMtDT0=    0
 Symmetry not used in FoFCou.
 Leave Link  703 at Thu Sep  8 15:16:23 2022, MaxMem= 24159191040 cpu:         8.5
 (Enter /public/home/users/caep010/software/Gaussian09/g09/l716.exe)
 Dipole        = 3.35492105D-01 1.46543939D+00-5.99305157D-05
 ***** Axes restored to original set *****
 -------------------------------------------------------------------
 Center     Atomic                   Forces (Hartrees/Bohr)
 Number     Number              X              Y              Z
 -------------------------------------------------------------------
      1        6          -0.000801559    0.000319554    0.000121217
      2        6           0.000313087    0.000207494   -0.000009444
      3        6           0.000574818   -0.002021566   -0.000322515
      4        7           0.000322690    0.000654790    0.000066450
      5        8          -0.000315276    0.000726243    0.000121984
      6        1          -0.000192989   -0.000161656   -0.000011717
      7        1           0.000040472    0.000102647    0.000010734
      8        1           0.000058759    0.000172494    0.000023292
 -------------------------------------------------------------------
 Cartesian Forces:  Max     0.002021566 RMS     0.000528764
 Leave Link  716 at Thu Sep  8 15:16:23 2022, MaxMem= 24159191040 cpu:         0.5
 (Enter /public/home/users/caep010/software/Gaussian09/g09/l103.exe)

 GradGradGradGradGradGradGradGradGradGradGradGradGradGradGradGradGradGrad
 Berny optimization.
 Using GEDIIS/GDIIS optimizer.
 FormGI is forming the generalized inverse of G from B-inverse, IUseBI=4.
 Internal  Forces:  Max     0.001016174 RMS     0.000419346
 Search for a local minimum.
 Step number   2 out of a maximum of   31
 All quantities printed in internal units (Hartrees-Bohrs-Radians)
 RMS Force = .41935D-03 SwitMx=.10000D-02 MixMth= 2
 Mixed Optimization -- En-DIIS/RFO-DIIS
 Update second derivatives using D2CorX and points    1    2
 DE= -1.79D-04 DEPred=-1.89D-04 R= 9.46D-01
 TightC=F SS=  1.41D+00  RLast= 2.36D-02 DXNew= 5.0454D-01 7.0689D-02
 Trust test= 9.46D-01 RLast= 2.36D-02 DXMaxT set to 3.00D-01
 ITU=  1  0
 Use linear search instead of GDIIS.
     Eigenvalues ---    0.00594   0.00602   0.01296   0.01299   0.02178
     Eigenvalues ---    0.02178   0.02178   0.15940   0.16011   0.24790
     Eigenvalues ---    0.25004   0.37580   0.38610   0.46495   0.46858
     Eigenvalues ---    0.53812   0.91810   1.09227
 RFO step:  Lambda=-2.77252224D-05 EMin= 5.94073650D-03
 Quartic linear search produced a step of -0.04635.
 Iteration  1 RMS(Cart)=  0.02547775 RMS(Int)=  0.00079777
 Iteration  2 RMS(Cart)=  0.00079436 RMS(Int)=  0.00000024
 Iteration  3 RMS(Cart)=  0.00000015 RMS(Int)=  0.00000022
 ITry= 1 IFail=0 DXMaxC= 8.33D-02 DCOld= 1.00D+10 DXMaxT= 3.00D-01 DXLimC= 3.00D+00 Rises=F
 Variable       Old X    -DE/DX   Delta X   Delta X   Delta X     New X
                                 (Linear)    (Quad)   (Total)
    R1        2.28407  -0.00101  -0.00058   0.00055  -0.00002   2.28405
    R2        2.01546  -0.00018  -0.00032   0.00038   0.00005   2.01551
    R3        2.76740  -0.00073  -0.00040  -0.00087  -0.00127   2.76613
    R4        2.58181  -0.00102  -0.00026  -0.00118  -0.00144   2.58037
    R5        2.30687   0.00080  -0.00055   0.00218   0.00164   2.30851
    R6        1.90290  -0.00007  -0.00019   0.00035   0.00015   1.90305
    R7        1.90611  -0.00005  -0.00016   0.00031   0.00015   1.90626
    A1        1.98407   0.00036  -0.00012   0.00167   0.00156   1.98563
    A2        2.13783  -0.00020   0.00010  -0.00100  -0.00090   2.13694
    A3        2.16128  -0.00017   0.00002  -0.00067  -0.00066   2.16062
    A4        2.12806   0.00001  -0.00010   0.00030   0.00020   2.12827
    A5        2.06347  -0.00017   0.00012  -0.00132  -0.00120   2.06226
    A6        2.09165   0.00016  -0.00001   0.00102   0.00100   2.09266
    A7        3.16355  -0.00036  -0.00033  -0.05663  -0.05696   3.10659
    A8        3.17906  -0.00020  -0.00010  -0.01488  -0.01497   3.16409
    A9        3.14169  -0.00000  -0.00001  -0.00017  -0.00017   3.14152
   A10        3.14154   0.00000   0.00000   0.00001   0.00002   3.14156
    D1       -0.00014   0.00002   0.00001   0.00086   0.00088   0.00073
    D2        3.14132   0.00002   0.00001   0.00098   0.00099  -3.14087
    D3       -3.14129  -0.00002  -0.00001  -0.00106  -0.00107   3.14082
    D4        0.00018  -0.00002  -0.00001  -0.00095  -0.00096  -0.00078
         Item               Value     Threshold  Converged?
 Maximum Force            0.001016     0.000450     NO 
 RMS     Force            0.000419     0.000300     NO 
 Maximum Displacement     0.083281     0.001800     NO 
 RMS     Displacement     0.025612     0.001200     NO 
 Predicted change in Energy=-1.410213D-05
 Lowest energy point so far.  Saving SCF results.
 GradGradGradGradGradGradGradGradGradGradGradGradGradGradGradGradGradGrad

 Leave Link  103 at Thu Sep  8 15:16:23 2022, MaxMem= 24159191040 cpu:         0.6
 (Enter /public/home/users/caep010/software/Gaussian09/g09/l202.exe)
                          Input orientation:                          
 ---------------------------------------------------------------------
 Center     Atomic      Atomic             Coordinates (Angstroms)
 Number     Number       Type             X           Y           Z
 ---------------------------------------------------------------------
      1          6           0        2.069374    0.223835   -0.134964
      2          6           0        0.872334    0.341054   -0.015694
      3          6           0       -0.573321    0.515298    0.133823
      4          7           0       -1.283992   -0.642965    0.000082
      5          8           0       -1.082677    1.603201    0.355972
      6          1           0        3.120868    0.083825   -0.245943
      7          1           0       -0.834877   -1.525386   -0.183726
      8          1           0       -2.287712   -0.598762    0.090449
 ---------------------------------------------------------------------
                    Distance matrix (angstroms):
                    1          2          3          4          5
     1  C    0.000000
     2  C    1.208665   0.000000
     3  C    2.672271   1.463774   0.000000
     4  N    3.466215   2.370292   1.365471   0.000000
     5  O    3.475499   2.356526   1.221608   2.283078   0.000000
     6  H    1.066564   2.274882   3.738639   4.471190   4.510055
     7  H    3.390698   2.535035   2.081739   1.007053   3.184452
     8  H    4.439783   3.298546   2.045029   1.008749   2.524134
                    6          7          8
     6  H    0.000000
     7  H    4.270990   0.000000
     8  H    5.461851   1.744859   0.000000
 Stoichiometry    C3H3NO
 Framework group  C1[X(C3H3NO)]
 Deg. of freedom    18
 Full point group                 C1      NOp   1
 RotChk:  IX=0 Diff= 1.10D-03
 Largest Abelian subgroup         C1      NOp   1
 Largest concise Abelian subgroup C1      NOp   1
                         Standard orientation:                         
 ---------------------------------------------------------------------
 Center     Atomic      Atomic             Coordinates (Angstroms)
 Number     Number       Type             X           Y           Z
 ---------------------------------------------------------------------
      1          6           0        2.177541    0.056338    0.000121
      2          6           0        0.971309   -0.020321   -0.000148
      3          6           0       -0.487059   -0.145998   -0.000526
      4          7           0       -1.142657    1.051793    0.000090
      5          8           0       -1.051362   -1.229460    0.000204
      6          1           0        3.238938    0.161194    0.000422
      7          1           0       -0.648816    1.929447    0.000114
      8          1           0       -2.151362    1.042379    0.000518
 ---------------------------------------------------------------------
 Rotational constants (GHZ):     11.3333222      4.1154713      3.0191332
 Leave Link  202 at Thu Sep  8 15:16:23 2022, MaxMem= 24159191040 cpu:         0.2
 (Enter /public/home/users/caep010/software/Gaussian09/g09/l301.exe)
 Standard basis: 6-31G(d,p) (6D, 7F)
 Ernie: Thresh=  0.10000D-02 Tol=  0.10000D-05 Strict=F.
 There are    90 symmetry adapted cartesian basis functions of A   symmetry.
 There are    90 symmetry adapted basis functions of A   symmetry.
    90 basis functions,   161 primitive gaussians,    90 cartesian basis functions
    18 alpha electrons       18 beta electrons
       nuclear repulsion energy       144.6445575896 Hartrees.
 IExCor=  402 DFT=T Ex+Corr=B3LYP ExCW=0 ScaHFX=  0.200000
 ScaDFX=  0.800000  0.720000  1.000000  0.810000 ScalE2=  1.000000  1.000000
 IRadAn=      0 IRanWt=     -1 IRanGd=            0 ICorTp=0 IEmpDi=  4
 NAtoms=    8 NActive=    8 NUniq=    8 SFac= 1.00D+00 NAtFMM=   60 NAOKFM=F Big=F
 Integral buffers will be    131072 words long.
 Raffenetti 2 integral format.
 Two-electron integral symmetry is turned on.
 Leave Link  301 at Thu Sep  8 15:16:23 2022, MaxMem= 24159191040 cpu:         1.8
 (Enter /public/home/users/caep010/software/Gaussian09/g09/l302.exe)
 NPDir=0 NMtPBC=     1 NCelOv=     1 NCel=       1 NClECP=     1 NCelD=      1
         NCelK=      1 NCelE2=     1 NClLst=     1 CellRange=     0.0.
 One-electron integrals computed using PRISM.
 NBasis=    90 RedAO= T EigKep=  4.49D-04  NBF=    90
 NBsUse=    90 1.00D-06 EigRej= -1.00D+00 NBFU=    90
 Precomputing XC quadrature grid using
 IXCGrd= 4 IRadAn=           0 IRanWt=          -1 IRanGd=           0 AccXCQ= 0.00D+00.
 Generated NRdTot=       0 NPtTot=           0 NUsed=           0 NTot=          32
 NSgBfM=    90    90    90    90    90 MxSgAt=     8 MxSgA2=     8.
 Leave Link  302 at Thu Sep  8 15:16:24 2022, MaxMem= 24159191040 cpu:        10.5
 (Enter /public/home/users/caep010/software/Gaussian09/g09/l303.exe)
 DipDrv:  MaxL=1.
 Leave Link  303 at Thu Sep  8 15:16:24 2022, MaxMem= 24159191040 cpu:         0.6
 (Enter /public/home/users/caep010/software/Gaussian09/g09/l401.exe)
 Initial guess from the checkpoint file:  "B3LYP6-31Gdp.Frag_802.chk"
 B after Tr=     0.000000   -0.000000   -0.000000
         Rot=    0.999995    0.000001    0.000000    0.003009 Ang=   0.34 deg.
 Guess basis will be translated and rotated to current coordinates.
 JPrj=2 DoOrth=T DoCkMO=T.
 Generating alternative initial guess.
 ExpMin= 1.61D-01 ExpMax= 5.48D+03 ExpMxC= 8.25D+02 IAcc=1 IRadAn=         1 AccDes= 0.00D+00
 Harris functional with IExCor=  402 and IRadAn=       1 diagonalized for initial guess.
 HarFok:  IExCor=  402 AccDes= 0.00D+00 IRadAn=         1 IDoV= 1 UseB2=F ITyADJ=14
 ICtDFT=  3500011 ScaDFX=  1.000000  1.000000  1.000000  1.000000
 FoFCou: FMM=F IPFlag=           0 FMFlag=      100000 FMFlg1=           0
         NFxFlg=           0 DoJE=T BraDBF=F KetDBF=T FulRan=T
         wScrn=  0.000000 ICntrl=     500 IOpCl=  0 I1Cent=   200000004 NGrid=           0
         NMat0=    1 NMatS0=      1 NMatT0=    0 NMatD0=    1 NMtDS0=    0 NMtDT0=    0
 Petite list used in FoFCou.
 Harris En= -246.081022276429    
 Leave Link  401 at Thu Sep  8 15:16:24 2022, MaxMem= 24159191040 cpu:        12.4
 (Enter /public/home/users/caep010/software/Gaussian09/g09/l502.exe)
 Closed shell SCF:
 Using DIIS extrapolation, IDIIS=  1040.
 Integral symmetry usage will be decided dynamically.
 Keep R1 ints in memory in canonical form, NReq=9343545.
 IVT=       46405 IEndB=       46405 NGot= 24159191040 MDV= 24150758076
 LenX= 24150758076 LenY= 24150749535
 Requested convergence on RMS density matrix=1.00D-08 within 128 cycles.
 Requested convergence on MAX density matrix=1.00D-06.
 Requested convergence on             energy=1.00D-06.
 No special actions if energy rises.
 FoFCou: FMM=F IPFlag=           0 FMFlag=           0 FMFlg1=           0
         NFxFlg=           0 DoJE=F BraDBF=F KetDBF=F FulRan=T
         wScrn=  0.000000 ICntrl=     600 IOpCl=  0 I1Cent=           0 NGrid=           0
         NMat0=    1 NMatS0=   4095 NMatT0=    0 NMatD0=    1 NMtDS0=    0 NMtDT0=    0
 Symmetry not used in FoFCou.
 Integral accuracy reduced to 1.0D-05 until final iterations.

 Cycle   1  Pass 0  IDiag  1:
 E= -246.036663509552    
 DIIS: error= 1.73D-03 at cycle   1 NSaved=   1.
 NSaved= 1 IEnMin= 1 EnMin= -246.036663509552     IErMin= 1 ErrMin= 1.73D-03
 ErrMax= 1.73D-03  0.00D+00 EMaxC= 1.00D-01 BMatC= 2.30D-04 BMatP= 2.30D-04
 IDIUse=3 WtCom= 9.83D-01 WtEn= 1.73D-02
 Coeff-Com:  0.100D+01
 Coeff-En:   0.100D+01
 Coeff:      0.100D+01
 Gap=     1.904 Goal=   None    Shift=    0.000
 GapD=    1.904 DampG=2.000 DampE=1.000 DampFc=2.0000 IDamp=-1.
 RMSDP=7.01D-04 MaxDP=1.30D-02              OVMax= 8.16D-03

 Cycle   2  Pass 0  IDiag  1:
 E= -246.037035652690     Delta-E=       -0.000372143138 Rises=F Damp=F
 DIIS: error= 2.42D-04 at cycle   2 NSaved=   2.
 NSaved= 2 IEnMin= 2 EnMin= -246.037035652690     IErMin= 2 ErrMin= 2.42D-04
 ErrMax= 2.42D-04  0.00D+00 EMaxC= 1.00D-01 BMatC= 7.55D-06 BMatP= 2.30D-04
 IDIUse=3 WtCom= 9.98D-01 WtEn= 2.42D-03
 Coeff-Com: -0.108D-01 0.101D+01
 Coeff-En:   0.000D+00 0.100D+01
 Coeff:     -0.108D-01 0.101D+01
 Gap=     0.234 Goal=   None    Shift=    0.000
 RMSDP=8.67D-05 MaxDP=1.77D-03 DE=-3.72D-04 OVMax= 2.66D-03

 Cycle   3  Pass 0  IDiag  1:
 E= -246.037021114178     Delta-E=        0.000014538512 Rises=F Damp=F
 DIIS: error= 5.57D-04 at cycle   3 NSaved=   3.
 NSaved= 3 IEnMin= 2 EnMin= -246.037035652690     IErMin= 2 ErrMin= 2.42D-04
 ErrMax= 5.57D-04  0.00D+00 EMaxC= 1.00D-01 BMatC= 2.84D-05 BMatP= 7.55D-06
 IDIUse=3 WtCom= 2.98D-01 WtEn= 7.02D-01
 Coeff-Com: -0.386D-01 0.699D+00 0.339D+00
 Coeff-En:   0.000D+00 0.722D+00 0.278D+00
 Coeff:     -0.115D-01 0.715D+00 0.296D+00
 Gap=     0.233 Goal=   None    Shift=    0.000
 RMSDP=5.80D-05 MaxDP=1.24D-03 DE= 1.45D-05 OVMax= 2.01D-03

 Cycle   4  Pass 0  IDiag  1:
 E= -246.037044409059     Delta-E=       -0.000023294881 Rises=F Damp=F
 DIIS: error= 3.78D-05 at cycle   4 NSaved=   4.
 NSaved= 4 IEnMin= 4 EnMin= -246.037044409059     IErMin= 4 ErrMin= 3.78D-05
 ErrMax= 3.78D-05  0.00D+00 EMaxC= 1.00D-01 BMatC= 9.53D-08 BMatP= 7.55D-06
 IDIUse=1 WtCom= 1.00D+00 WtEn= 0.00D+00
 Coeff-Com: -0.131D-01 0.143D+00 0.561D-01 0.814D+00
 Coeff:     -0.131D-01 0.143D+00 0.561D-01 0.814D+00
 Gap=     0.233 Goal=   None    Shift=    0.000
 RMSDP=4.58D-06 MaxDP=6.32D-05 DE=-2.33D-05 OVMax= 1.46D-04

 Initial convergence to 1.0D-05 achieved.  Increase integral accuracy.
 Cycle   5  Pass 1  IDiag  1:
 E= -246.037038561085     Delta-E=        0.000005847974 Rises=F Damp=F
 DIIS: error= 1.66D-05 at cycle   1 NSaved=   1.
 NSaved= 1 IEnMin= 1 EnMin= -246.037038561085     IErMin= 1 ErrMin= 1.66D-05
 ErrMax= 1.66D-05  0.00D+00 EMaxC= 1.00D-01 BMatC= 2.73D-08 BMatP= 2.73D-08
 IDIUse=1 WtCom= 1.00D+00 WtEn= 0.00D+00
 Coeff-Com:  0.100D+01
 Coeff:      0.100D+01
 Gap=     0.233 Goal=   None    Shift=    0.000
 RMSDP=4.58D-06 MaxDP=6.32D-05 DE= 5.85D-06 OVMax= 8.91D-05

 Cycle   6  Pass 1  IDiag  1:
 E= -246.037038529085     Delta-E=        0.000000032000 Rises=F Damp=F
 DIIS: error= 3.07D-05 at cycle   2 NSaved=   2.
 NSaved= 2 IEnMin= 1 EnMin= -246.037038561085     IErMin= 1 ErrMin= 1.66D-05
 ErrMax= 3.07D-05  0.00D+00 EMaxC= 1.00D-01 BMatC= 6.50D-08 BMatP= 2.73D-08
 IDIUse=1 WtCom= 1.00D+00 WtEn= 0.00D+00
 Coeff-Com:  0.613D+00 0.387D+00
 Coeff:      0.613D+00 0.387D+00
 Gap=     0.233 Goal=   None    Shift=    0.000
 RMSDP=2.41D-06 MaxDP=4.53D-05 DE= 3.20D-08 OVMax= 8.27D-05

 Cycle   7  Pass 1  IDiag  1:
 E= -246.037038581246     Delta-E=       -0.000000052161 Rises=F Damp=F
 DIIS: error= 6.15D-06 at cycle   3 NSaved=   3.
 NSaved= 3 IEnMin= 3 EnMin= -246.037038581246     IErMin= 3 ErrMin= 6.15D-06
 ErrMax= 6.15D-06  0.00D+00 EMaxC= 1.00D-01 BMatC= 4.12D-09 BMatP= 2.73D-08
 IDIUse=1 WtCom= 1.00D+00 WtEn= 0.00D+00
 Coeff-Com:  0.299D+00 0.246D+00 0.455D+00
 Coeff:      0.299D+00 0.246D+00 0.455D+00
 Gap=     0.233 Goal=   None    Shift=    0.000
 RMSDP=7.48D-07 MaxDP=1.72D-05 DE=-5.22D-08 OVMax= 3.41D-05

 Cycle   8  Pass 1  IDiag  1:
 E= -246.037038585041     Delta-E=       -0.000000003795 Rises=F Damp=F
 DIIS: error= 2.09D-06 at cycle   4 NSaved=   4.
 NSaved= 4 IEnMin= 4 EnMin= -246.037038585041     IErMin= 4 ErrMin= 2.09D-06
 ErrMax= 2.09D-06  0.00D+00 EMaxC= 1.00D-01 BMatC= 5.08D-10 BMatP= 4.12D-09
 IDIUse=1 WtCom= 1.00D+00 WtEn= 0.00D+00
 Coeff-Com:  0.231D-01 0.544D-01 0.284D+00 0.639D+00
 Coeff:      0.231D-01 0.544D-01 0.284D+00 0.639D+00
 Gap=     0.233 Goal=   None    Shift=    0.000
 RMSDP=2.39D-07 MaxDP=5.00D-06 DE=-3.79D-09 OVMax= 8.79D-06

 Cycle   9  Pass 1  IDiag  1:
 E= -246.037038585500     Delta-E=       -0.000000000459 Rises=F Damp=F
 DIIS: error= 4.14D-07 at cycle   5 NSaved=   5.
 NSaved= 5 IEnMin= 5 EnMin= -246.037038585500     IErMin= 5 ErrMin= 4.14D-07
 ErrMax= 4.14D-07  0.00D+00 EMaxC= 1.00D-01 BMatC= 2.36D-11 BMatP= 5.08D-10
 IDIUse=1 WtCom= 1.00D+00 WtEn= 0.00D+00
 Coeff-Com: -0.102D-01 0.719D-02 0.998D-01 0.294D+00 0.609D+00
 Coeff:     -0.102D-01 0.719D-02 0.998D-01 0.294D+00 0.609D+00
 Gap=     0.233 Goal=   None    Shift=    0.000
 RMSDP=7.01D-08 MaxDP=1.06D-06 DE=-4.59D-10 OVMax= 1.77D-06

 Cycle  10  Pass 1  IDiag  1:
 E= -246.037038585525     Delta-E=       -0.000000000025 Rises=F Damp=F
 DIIS: error= 1.42D-07 at cycle   6 NSaved=   6.
 NSaved= 6 IEnMin= 6 EnMin= -246.037038585525     IErMin= 6 ErrMin= 1.42D-07
 ErrMax= 1.42D-07  0.00D+00 EMaxC= 1.00D-01 BMatC= 1.58D-12 BMatP= 2.36D-11
 IDIUse=1 WtCom= 1.00D+00 WtEn= 0.00D+00
 Coeff-Com: -0.569D-02 0.205D-02 0.445D-01 0.130D+00 0.312D+00 0.517D+00
 Coeff:     -0.569D-02 0.205D-02 0.445D-01 0.130D+00 0.312D+00 0.517D+00
 Gap=     0.233 Goal=   None    Shift=    0.000
 RMSDP=2.03D-08 MaxDP=4.41D-07 DE=-2.52D-11 OVMax= 7.29D-07

 Cycle  11  Pass 1  IDiag  1:
 E= -246.037038585522     Delta-E=        0.000000000003 Rises=F Damp=F
 DIIS: error= 7.79D-08 at cycle   7 NSaved=   7.
 NSaved= 7 IEnMin= 6 EnMin= -246.037038585525     IErMin= 7 ErrMin= 7.79D-08
 ErrMax= 7.79D-08  0.00D+00 EMaxC= 1.00D-01 BMatC= 5.37D-13 BMatP= 1.58D-12
 IDIUse=1 WtCom= 1.00D+00 WtEn= 0.00D+00
 Coeff-Com: -0.180D-02-0.156D-03 0.105D-01 0.279D-01 0.927D-01 0.378D+00
 Coeff-Com:  0.493D+00
 Coeff:     -0.180D-02-0.156D-03 0.105D-01 0.279D-01 0.927D-01 0.378D+00
 Coeff:      0.493D+00
 Gap=     0.233 Goal=   None    Shift=    0.000
 RMSDP=9.32D-09 MaxDP=1.74D-07 DE= 2.96D-12 OVMax= 2.93D-07

 SCF Done:  E(RB3LYP) =  -246.037038586     A.U. after   11 cycles
            NFock= 11  Conv=0.93D-08     -V/T= 2.0093
 KE= 2.437746842830D+02 PE=-8.636382767952D+02 EE= 2.291819963371D+02
 Leave Link  502 at Thu Sep  8 15:16:25 2022, MaxMem= 24159191040 cpu:        19.3
 (Enter /public/home/users/caep010/software/Gaussian09/g09/l701.exe)
 Compute integral first derivatives.
 ... and contract with generalized density number  0.
 Leave Link  701 at Thu Sep  8 15:16:26 2022, MaxMem= 24159191040 cpu:        10.3
 (Enter /public/home/users/caep010/software/Gaussian09/g09/l702.exe)
 L702 exits ... SP integral derivatives will be done elsewhere.
 Leave Link  702 at Thu Sep  8 15:16:26 2022, MaxMem= 24159191040 cpu:         0.5
 (Enter /public/home/users/caep010/software/Gaussian09/g09/l703.exe)
 Compute integral first derivatives, UseDBF=F ICtDFT=           0.
 Integral derivatives from FoFJK, PRISM(SPDF).
 Calling FoFJK, ICntrl=      2127 FMM=F ISym2X=0 I1Cent= 0 IOpClX= 0 NMat=1 NMatS=1 NMatT=0.
 FoFJK:  IHMeth= 1 ICntrl=    2127 DoSepK=F KAlg= 0 I1Cent=   0 FoldK=F
 IRaf=         0 NMat=   1 IRICut=       1 DoRegI=T DoRafI=F ISym2E= 0.
 FoFCou: FMM=F IPFlag=           0 FMFlag=      100000 FMFlg1=         800
         NFxFlg=           0 DoJE=F BraDBF=F KetDBF=F FulRan=T
         wScrn=  0.000000 ICntrl=    2127 IOpCl=  0 I1Cent=           0 NGrid=           0
         NMat0=    1 NMatS0=      1 NMatT0=    0 NMatD0=    1 NMtDS0=    0 NMtDT0=    0
 Symmetry not used in FoFCou.
 Leave Link  703 at Thu Sep  8 15:16:26 2022, MaxMem= 24159191040 cpu:        12.4
 (Enter /public/home/users/caep010/software/Gaussian09/g09/l716.exe)
 Dipole        = 3.52297875D-01 1.49535139D+00-1.04070593D-04
 ***** Axes restored to original set *****
 -------------------------------------------------------------------
 Center     Atomic                   Forces (Hartrees/Bohr)
 Number     Number              X              Y              Z
 -------------------------------------------------------------------
      1        6          -0.001077272   -0.001812789   -0.000212220
      2        6           0.000442126   -0.000747384   -0.000095332
      3        6           0.000476952    0.000887621   -0.000100488
      4        7           0.000341067    0.000059169    0.000032792
      5        8          -0.000249485   -0.000161856    0.000077154
      6        1          -0.000004016    0.001517990    0.000250167
      7        1          -0.000074870    0.000140638    0.000039115
      8        1           0.000145500    0.000116613    0.000008813
 -------------------------------------------------------------------
 Cartesian Forces:  Max     0.001812789 RMS     0.000609792
 Leave Link  716 at Thu Sep  8 15:16:26 2022, MaxMem= 24159191040 cpu:         0.6
 (Enter /public/home/users/caep010/software/Gaussian09/g09/l103.exe)

 GradGradGradGradGradGradGradGradGradGradGradGradGradGradGradGradGradGrad
 Berny optimization.
 Using GEDIIS/GDIIS optimizer.
 FormGI is forming the generalized inverse of G from B-inverse, IUseBI=4.
 Internal  Forces:  Max     0.003070922 RMS     0.000880510
 Search for a local minimum.
 Step number   3 out of a maximum of   31
 All quantities printed in internal units (Hartrees-Bohrs-Radians)
 RMS Force = .88051D-03 SwitMx=.10000D-02 MixMth= 2
 Mixed Optimization -- En-DIIS/RFO-DIIS
 Swapping is turned off.
 Update second derivatives using D2CorX and points    1    2    3
 DE=  8.93D-05 DEPred=-1.41D-05 R=-6.33D+00
 Trust test=-6.33D+00 RLast= 5.90D-02 DXMaxT set to 1.50D-01
 ITU= -1  1  0
     Eigenvalues ---    0.00594   0.01045   0.01296   0.02173   0.02178
     Eigenvalues ---    0.02178   0.07473   0.14438   0.16011   0.21614
     Eigenvalues ---    0.25128   0.32110   0.37664   0.42675   0.46655
     Eigenvalues ---    0.52965   0.54011   1.04651
 En-DIIS/RFO-DIIS IScMMF=        0 using points:     3    2
 RFO step:  Lambda=-5.33787749D-05.
 NNeg= 0 NP= 2 Switch=  2.50D-03 Rises=F DC= -8.93D-05 SmlDif=  1.00D-05
 RMS Error=  0.2984806206D-02 NUsed= 2 EDIIS=F
 DidBck=T Rises=F RFO-DIIS coefs:    0.12046    0.87954
 Iteration  1 RMS(Cart)=  0.02410381 RMS(Int)=  0.00065509
 Iteration  2 RMS(Cart)=  0.00064810 RMS(Int)=  0.00000017
 Iteration  3 RMS(Cart)=  0.00000006 RMS(Int)=  0.00000017
 ITry= 1 IFail=0 DXMaxC= 7.79D-02 DCOld= 1.00D+10 DXMaxT= 1.50D-01 DXLimC= 3.00D+00 Rises=F
 Variable       Old X    -DE/DX   Delta X   Delta X   Delta X     New X
                                 (Linear)    (Quad)   (Total)
    R1        2.28405  -0.00105   0.00002  -0.00082  -0.00080   2.28325
    R2        2.01551  -0.00023  -0.00005  -0.00040  -0.00045   2.01507
    R3        2.76613  -0.00050   0.00111  -0.00170  -0.00059   2.76554
    R4        2.58037  -0.00049   0.00127  -0.00166  -0.00039   2.57998
    R5        2.30851  -0.00003  -0.00144   0.00075  -0.00069   2.30782
    R6        1.90305  -0.00016  -0.00013  -0.00014  -0.00027   1.90279
    R7        1.90626  -0.00014  -0.00013  -0.00009  -0.00022   1.90604
    A1        1.98563  -0.00038  -0.00137   0.00107  -0.00030   1.98533
    A2        2.13694   0.00053   0.00079  -0.00046   0.00033   2.13726
    A3        2.16062  -0.00015   0.00058  -0.00061  -0.00003   2.16059
    A4        2.12827   0.00008  -0.00018   0.00010  -0.00007   2.12819
    A5        2.06226  -0.00016   0.00106  -0.00100   0.00006   2.06232
    A6        2.09266   0.00008  -0.00088   0.00090   0.00002   2.09267
    A7        3.10659   0.00307   0.05010  -0.00084   0.04926   3.15585
    A8        3.16409   0.00216   0.01317   0.00259   0.01576   3.17985
    A9        3.14152  -0.00000   0.00015  -0.00020  -0.00005   3.14147
   A10        3.14156   0.00001  -0.00002   0.00009   0.00007   3.14163
    D1        0.00073  -0.00007  -0.00077   0.00048  -0.00029   0.00044
    D2       -3.14087  -0.00008  -0.00087   0.00054  -0.00033  -3.14120
    D3        3.14082   0.00008   0.00095  -0.00059   0.00036   3.14118
    D4       -0.00078   0.00007   0.00084  -0.00052   0.00032  -0.00046
         Item               Value     Threshold  Converged?
 Maximum Force            0.003071     0.000450     NO 
 RMS     Force            0.000881     0.000300     NO 
 Maximum Displacement     0.077900     0.001800     NO 
 RMS     Displacement     0.024092     0.001200     NO 
 Predicted change in Energy=-9.358187D-05
 GradGradGradGradGradGradGradGradGradGradGradGradGradGradGradGradGradGrad

 Leave Link  103 at Thu Sep  8 15:16:26 2022, MaxMem= 24159191040 cpu:         0.9
 (Enter /public/home/users/caep010/software/Gaussian09/g09/l202.exe)
                          Input orientation:                          
 ---------------------------------------------------------------------
 Center     Atomic      Atomic             Coordinates (Angstroms)
 Number     Number       Type             X           Y           Z
 ---------------------------------------------------------------------
      1          6           0        2.071228    0.208007   -0.137721
      2          6           0        0.873906    0.318950   -0.019554
      3          6           0       -0.569322    0.508225    0.132066
      4          7           0       -1.291667   -0.642825    0.000713
      5          8           0       -1.067228    1.600970    0.354414
      6          1           0        3.129419    0.125048   -0.239727
      7          1           0       -0.851726   -1.529701   -0.183059
      8          1           0       -2.294612   -0.588575    0.092870
 ---------------------------------------------------------------------
                    Distance matrix (angstroms):
                    1          2          3          4          5
     1  C    0.000000
     2  C    1.208244   0.000000
     3  C    2.671221   1.463462   0.000000
     4  N    3.471620   2.369626   1.365266   0.000000
     5  O    3.468782   2.356146   1.221245   2.282562   0.000000
     6  H    1.066328   2.274514   3.737076   4.493711   4.488117
     7  H    3.400786   2.534177   2.081393   1.006911   3.183774
     8  H    4.443904   3.297840   2.044782   1.008630   2.523684
                    6          7          8
     6  H    0.000000
     7  H    4.311719   0.000000
     8  H    5.480875   1.744642   0.000000
 Stoichiometry    C3H3NO
 Framework group  C1[X(C3H3NO)]
 Deg. of freedom    18
 Full point group                 C1      NOp   1
 RotChk:  IX=0 Diff= 2.15D-03
 Largest Abelian subgroup         C1      NOp   1
 Largest concise Abelian subgroup C1      NOp   1
                         Standard orientation:                         
 ---------------------------------------------------------------------
 Center     Atomic      Atomic             Coordinates (Angstroms)
 Number     Number       Type             X           Y           Z
 ---------------------------------------------------------------------
      1          6           0        2.176981    0.068950    0.000073
      2          6           0        0.970891   -0.003164   -0.000113
      3          6           0       -0.485551   -0.146327   -0.000302
      4          7           0       -1.155039    1.043520    0.000061
      5          8           0       -1.036987   -1.235987    0.000120
      6          1           0        3.242207    0.117415    0.000311
      7          1           0       -0.671520    1.926741    0.000047
      8          1           0       -2.163447    1.022346    0.000305
 ---------------------------------------------------------------------
 Rotational constants (GHZ):     11.3436052      4.1162143      3.0202623
 Leave Link  202 at Thu Sep  8 15:16:26 2022, MaxMem= 24159191040 cpu:         0.2
 (Enter /public/home/users/caep010/software/Gaussian09/g09/l301.exe)
 Standard basis: 6-31G(d,p) (6D, 7F)
 Ernie: Thresh=  0.10000D-02 Tol=  0.10000D-05 Strict=F.
 There are    90 symmetry adapted cartesian basis functions of A   symmetry.
 There are    90 symmetry adapted basis functions of A   symmetry.
    90 basis functions,   161 primitive gaussians,    90 cartesian basis functions
[...]
     11  0.154633D-02 -0.109248D-02 -0.516200D-03 -0.146048D-01  0.768682D-02
     12  0.524350D-03 -0.453096D-03  0.112422D-02  0.215836D-02  0.251641D-02
     13 -0.322951D-02  0.122721D-03  0.340552D-03 -0.335219D-01  0.467252D-01
     14 -0.263453D-02  0.133041D-02  0.337547D-03  0.510276D-01 -0.168639D-01
     15 -0.114658D-03  0.108361D-03  0.657286D-03  0.128738D-01 -0.991121D-02
     16 -0.414277D+00  0.315634D-01  0.376800D-01  0.540885D-02 -0.676950D-03
     17  0.298598D-01 -0.225433D-01 -0.258100D-02  0.498131D-03  0.335518D-03
     18  0.373774D-01 -0.272031D-02 -0.254009D-01 -0.129209D-03 -0.343179D-03
     19 -0.685038D-03  0.152393D-03  0.485538D-04 -0.124547D-02  0.413927D-03
     20  0.103532D-03  0.170869D-03  0.869088D-04  0.500999D-04  0.708536D-03
     21  0.402591D-04  0.837370D-04 -0.394949D-03  0.784791D-04  0.151143D-03
     22  0.227932D-03 -0.813339D-04 -0.487627D-04 -0.231242D-02 -0.341174D-02
     23 -0.593635D-03  0.525512D-03  0.168750D-03 -0.371931D-02 -0.431314D-02
     24 -0.133218D-03  0.125031D-03 -0.160083D-03  0.658300D-04 -0.140916D-02
                6             7             8             9            10 
      6  0.729937D-01
      7  0.144186D-01  0.652869D+00
      8  0.172776D-02 -0.996722D-01  0.904590D+00
      9 -0.713217D-01 -0.548737D-01  0.126470D+00  0.218177D+00
     10 -0.110856D-02 -0.213667D+00 -0.105338D+00 -0.352191D-02  0.835107D+00
     11  0.876263D-03 -0.101100D+00 -0.273541D+00 -0.294066D-01 -0.472760D-01
     12  0.995530D-02 -0.282022D-02 -0.290579D-01 -0.504334D-01 -0.761538D-01
     13  0.121631D-01 -0.209265D+00  0.228894D+00  0.491282D-01  0.369638D-01
     14 -0.102692D-01  0.204544D+00 -0.570317D+00 -0.991524D-01  0.900434D-02
     15  0.166518D-01  0.450865D-01 -0.101169D+00 -0.959151D-01  0.125706D-03
     16 -0.339024D-03 -0.332520D-03 -0.113377D-03  0.575456D-03  0.453194D-03
     17 -0.439296D-03  0.157397D-02  0.691563D-02 -0.120046D-03  0.111403D-02
     18  0.268578D-02  0.860922D-03  0.184073D-04  0.679081D-02  0.110149D-03
     19  0.139725D-03  0.181553D-01 -0.139272D-01 -0.465585D-02 -0.154333D+00
     20  0.182107D-03  0.200368D-01 -0.152936D-01 -0.255066D-02  0.153259D+00
     21 -0.389606D-03  0.986146D-03  0.267508D-03 -0.100046D-01  0.386097D-01
     22  0.115974D-03 -0.165741D-01  0.287631D-02  0.191507D-02 -0.457298D+00
     23 -0.138577D-02 -0.328362D-01  0.127310D-01  0.474224D-02  0.226844D-01
     24  0.565184D-02 -0.402334D-02  0.176553D-02  0.128020D-02  0.415398D-01
               11            12            13            14            15 
     11  0.807061D+00
     12  0.135538D+00  0.436680D-01
     13 -0.150388D-01 -0.386568D-02  0.207562D+00
     14 -0.882437D-01 -0.188068D-01 -0.259397D+00  0.676751D+00
     15 -0.168132D-01  0.177371D-01 -0.575321D-01  0.128330D+00  0.596436D-01
     16  0.154568D-03 -0.491055D-04  0.284147D-03  0.283068D-03 -0.773452D-04
     17 -0.830271D-03 -0.156667D-03 -0.201194D-02  0.123035D-03  0.389108D-03
     18 -0.760376D-04 -0.469233D-03 -0.458360D-03  0.198466D-03 -0.114483D-02
     19  0.153349D+00  0.386248D-01 -0.124297D-02 -0.591670D-02 -0.256424D-03
     20 -0.375531D+00 -0.757541D-01 -0.546913D-02 -0.353554D-02 -0.137287D-02
     21 -0.757563D-01 -0.121397D-01 -0.182945D-03 -0.133058D-02  0.726269D-02
     22  0.229695D-01  0.415813D-01  0.244900D-02  0.308909D-02 -0.105508D-03
     23 -0.755089D-01 -0.138253D-01  0.617460D-02  0.755689D-03  0.438091D-03
     24 -0.138455D-01 -0.944231D-02  0.407270D-03  0.692683D-03 -0.489245D-02
               16            17            18            19            20 
     16  0.408613D+00
     17 -0.310639D-01  0.157644D-01
     18 -0.377597D-01  0.283447D-02  0.177463D-01
     19 -0.895129D-04 -0.145390D-03 -0.108805D-04  0.141943D+00
     20 -0.135408D-03  0.960252D-05  0.000000D+00 -0.161921D+00  0.387275D+00
     21 -0.908064D-05  0.159938D-05  0.723728D-04 -0.383084D-01  0.770072D-01
     22 -0.601083D-04  0.175278D-03  0.973463D-05 -0.250252D-02 -0.592351D-02
     23 -0.114385D-04  0.225407D-03  0.872412D-04  0.279952D-01  0.619663D-02
     24 -0.211803D-04  0.718407D-04 -0.280348D-03  0.441840D-02  0.240050D-02
               21            22            23            24 
     21  0.208437D-01
     22 -0.121423D-02  0.476071D+00
     23 -0.424270D-03 -0.196936D-01  0.593878D-01
     24 -0.524990D-02 -0.422535D-01  0.101991D-01  0.130931D-01
 FormGI is forming the generalized inverse of G from B-inverse, IUseBI=4.
 Force constants in internal coordinates: 
                1             2             3             4             5 
      1  0.110512D+01
      2 -0.559753D-02  0.414666D+00
      3  0.416567D-02 -0.197665D-03  0.322292D+00
      4  0.207880D-03 -0.153060D-03  0.386720D-01  0.459786D+00
      5 -0.117044D-02  0.317589D-04  0.653501D-01  0.729494D-01  0.817917D+00
      6 -0.295938D-03  0.880360D-04 -0.825171D-03  0.303635D-02 -0.110752D-02
      7 -0.212117D-03  0.712553D-04  0.144168D-02  0.567502D-02 -0.187156D-02
      8  0.181411D-02  0.275793D-03  0.350878D-01  0.205247D-01 -0.487194D-01
      9  0.316829D-02 -0.763921D-03  0.316777D-02 -0.381395D-01  0.163199D-01
     10 -0.498240D-02  0.488127D-03 -0.382555D-01  0.176148D-01  0.323995D-01
     11  0.465664D-03  0.136836D-03 -0.707062D-05  0.938089D-02  0.509706D-02
     12  0.430747D-03 -0.286633D-04  0.364584D-02  0.301985D-02 -0.948396D-03
     13 -0.896411D-03 -0.108173D-03 -0.363877D-02 -0.124007D-01 -0.414866D-02
     14 -0.208941D-02 -0.977173D-03  0.248416D-03 -0.185390D-03  0.203913D-02
     15 -0.407180D-02  0.150827D-03 -0.496298D-02 -0.533273D-03  0.677989D-02
     16 -0.180496D-04 -0.581364D-05 -0.579821D-05  0.347905D-05  0.000000D+00
     17  0.439557D-04  0.118560D-05  0.317974D-04  0.000000D+00 -0.463025D-05
     18 -0.227592D-05  0.000000D+00 -0.729747D-05 -0.159756D-04 -0.160097D-04
     19 -0.243595D-05  0.000000D+00 -0.737043D-05 -0.120379D-04 -0.185461D-04
     20  0.164382D-05  0.000000D+00  0.756271D-05  0.131751D-04  0.219793D-04
     21  0.148379D-05  0.000000D+00  0.748975D-05  0.171128D-04  0.194430D-04
                6             7             8             9            10 
      6  0.483730D+00
      7 -0.387664D-02  0.480876D+00
      8 -0.506162D-02  0.812068D-02  0.151229D+00
      9 -0.236625D-02 -0.476608D-03 -0.579993D-01  0.143397D+00
     10  0.742787D-02 -0.764408D-02 -0.932292D-01 -0.853974D-01  0.178627D+00
     11  0.367566D-02 -0.104024D-01 -0.143411D-01 -0.625660D-02  0.205977D-01
     12 -0.865118D-02  0.779375D-02  0.182246D-01  0.440771D-02 -0.226323D-01
     13  0.497552D-02  0.260864D-02 -0.388350D-02  0.184888D-02  0.203462D-02
     14 -0.125926D-03 -0.300176D-03 -0.629416D-02  0.727304D-02 -0.978878D-03
     15 -0.576682D-03 -0.410323D-03 -0.147805D-01  0.154094D-01 -0.628895D-03
     16  0.848998D-05  0.000000D+00 -0.176586D-04  0.103566D-04  0.588366D-05
     17 -0.103700D-04  0.000000D+00  0.269255D-04 -0.132348D-04 -0.107189D-04
     18 -0.186346D-05 -0.196845D-05 -0.188466D-04  0.158769D-04 -0.192671D-04
     19  0.000000D+00  0.000000D+00 -0.207414D-04  0.155977D-04 -0.200136D-04
     20 -0.155273D-05  0.000000D+00  0.137941D-04 -0.159408D-04  0.291490D-04
     21  0.128668D-05  0.211333D-05  0.118994D-04 -0.162201D-04  0.284025D-04
               11            12            13            14            15 
     11  0.781021D-01
     12 -0.415418D-01  0.763121D-01
     13 -0.365603D-01 -0.347703D-01  0.713305D-01
     14  0.673540D-03 -0.816926D-03  0.143386D-03  0.540650D-01
     15  0.168346D-02 -0.291950D-02  0.123604D-02  0.227354D-01  0.701220D-01
     16  0.000000D+00  0.000000D+00  0.000000D+00 -0.320417D-04 -0.267230D-04
     17  0.286927D-05  0.000000D+00 -0.252618D-05  0.178714D-04  0.336081D-04
     18  0.000000D+00  0.000000D+00  0.000000D+00 -0.164815D-05 -0.194728D-05
     19 -0.122371D-05  0.174727D-05  0.000000D+00 -0.138665D-05 -0.175315D-05
     20  0.000000D+00  0.000000D+00  0.000000D+00  0.000000D+00  0.269336D-05
     21 -0.150072D-05  0.244165D-05  0.000000D+00  0.000000D+00  0.288749D-05
               16            17            18            19            20 
     16  0.195287D-01
     17 -0.995295D-02  0.428883D-01
     18  0.130590D-02 -0.216509D-02  0.234130D-01
     19  0.173023D-02 -0.415164D-02  0.267829D-01  0.317520D-01
     20 -0.158537D-02  0.389281D-02 -0.219156D-01 -0.244990D-01  0.331274D-01
     21 -0.116104D-02  0.190626D-02 -0.185457D-01 -0.195299D-01  0.305439D-01
               21 
     21  0.295597D-01
 Leave Link  716 at Thu Sep  8 15:16:41 2022, MaxMem= 24159191040 cpu:         1.7
 (Enter /public/home/users/caep010/software/Gaussian09/g09/l103.exe)

 GradGradGradGradGradGradGradGradGradGradGradGradGradGradGradGradGradGrad
 Berny optimization.
 Red2BG is reusing G-inverse.
 Internal  Forces:  Max     0.000045463 RMS     0.000023441
 Search for a local minimum.
 Step number   1 out of a maximum of    2
 All quantities printed in internal units (Hartrees-Bohrs-Radians)
 Second derivative matrix not updated -- analytic derivatives used.
 ITU=  0
     Eigenvalues ---    0.00073   0.01587   0.01616   0.03781   0.04580
     Eigenvalues ---    0.08159   0.10172   0.10433   0.10962   0.19510
     Eigenvalues ---    0.23544   0.34846   0.41463   0.45944   0.48092
     Eigenvalues ---    0.48851   0.84645   1.10527
 Angle between quadratic step and forces=  46.72 degrees.
 Linear search not attempted -- first point.
 Iteration  1 RMS(Cart)=  0.00027644 RMS(Int)=  0.00000010
 Iteration  2 RMS(Cart)=  0.00000013 RMS(Int)=  0.00000002
 ITry= 1 IFail=0 DXMaxC= 6.54D-04 DCOld= 1.00D+10 DXMaxT= 3.00D-01 DXLimC= 3.00D+00 Rises=F
 Variable       Old X    -DE/DX   Delta X   Delta X   Delta X     New X
                                 (Linear)    (Quad)   (Total)
    R1        2.28311   0.00004   0.00000   0.00004   0.00004   2.28314
    R2        2.01497   0.00001   0.00000   0.00002   0.00002   2.01499
    R3        2.76466   0.00001   0.00000   0.00004   0.00004   2.76470
    R4        2.57930   0.00005   0.00000   0.00011   0.00011   2.57941
    R5        2.30859  -0.00004   0.00000  -0.00007  -0.00007   2.30852
    R6        1.90274   0.00000   0.00000   0.00000   0.00000   1.90274
    R7        1.90602  -0.00000   0.00000  -0.00000  -0.00000   1.90602
    A1        1.98672  -0.00000   0.00000  -0.00003  -0.00003   1.98668
    A2        2.13646  -0.00000   0.00000   0.00002   0.00002   2.13648
    A3        2.16000   0.00001   0.00000   0.00002   0.00002   2.16002
    A4        2.12859   0.00001   0.00000   0.00010   0.00010   2.12870
    A5        2.06145  -0.00001   0.00000  -0.00003  -0.00003   2.06142
    A6        2.09314  -0.00001   0.00000  -0.00007  -0.00007   2.09307
    A7        3.15786  -0.00001   0.00000  -0.00029  -0.00029   3.15757
    A8        3.17807   0.00001   0.00000   0.00028   0.00028   3.17836
    A9        3.14233  -0.00002   0.00000  -0.00074  -0.00074   3.14159
   A10        3.14104   0.00003   0.00000   0.00055   0.00055   3.14159
    D1        0.00030  -0.00003   0.00000  -0.00029  -0.00029   0.00000
    D2       -3.14135  -0.00003   0.00000  -0.00025  -0.00025   3.14159
    D3        3.14134   0.00003   0.00000   0.00025   0.00025  -3.14159
    D4       -0.00030   0.00003   0.00000   0.00030   0.00030  -0.00000
         Item               Value     Threshold  Converged?
 Maximum Force            0.000045     0.000450     YES
 RMS     Force            0.000023     0.000300     YES
 Maximum Displacement     0.000654     0.001800     YES
 RMS     Displacement     0.000276     0.001200     YES
 Predicted change in Energy=-4.276370D-08
 Optimization completed.
    -- Stationary point found.
                           ----------------------------
                           !   Optimized Parameters   !
                           ! (Angstroms and Degrees)  !
 --------------------------                            --------------------------
 ! Name  Definition              Value          Derivative Info.                !
 --------------------------------------------------------------------------------
 ! R1    R(1,2)                  1.2082         -DE/DX =    0.0                 !
 ! R2    R(1,6)                  1.0663         -DE/DX =    0.0                 !
 ! R3    R(2,3)                  1.463          -DE/DX =    0.0                 !
 ! R4    R(3,4)                  1.3649         -DE/DX =    0.0                 !
 ! R5    R(3,5)                  1.2217         -DE/DX =    0.0                 !
 ! R6    R(4,7)                  1.0069         -DE/DX =    0.0                 !
 ! R7    R(4,8)                  1.0086         -DE/DX =    0.0                 !
 ! A1    A(2,3,4)              113.8304         -DE/DX =    0.0                 !
 ! A2    A(2,3,5)              122.4104         -DE/DX =    0.0                 !
 ! A3    A(4,3,5)              123.7592         -DE/DX =    0.0                 !
 ! A4    A(3,4,7)              121.9594         -DE/DX =    0.0                 !
 ! A5    A(3,4,8)              118.1126         -DE/DX =    0.0                 !
 ! A6    A(7,4,8)              119.928          -DE/DX =    0.0                 !
 ! A7    L(2,1,6,7,-1)         180.9322         -DE/DX =    0.0                 !
 ! A8    L(1,2,3,7,-1)         182.0902         -DE/DX =    0.0                 !
 ! A9    L(2,1,6,7,-2)         180.0424         -DE/DX =    0.0                 !
 ! A10   L(1,2,3,7,-2)         179.9685         -DE/DX =    0.0                 !
 ! D1    D(2,3,4,7)              0.017          -DE/DX =    0.0                 !
 ! D2    D(2,3,4,8)            180.0141         -DE/DX =    0.0                 !
 ! D3    D(5,3,4,7)           -180.0142         -DE/DX =    0.0                 !
 ! D4    D(5,3,4,8)             -0.0171         -DE/DX =    0.0                 !
 --------------------------------------------------------------------------------
 GradGradGradGradGradGradGradGradGradGradGradGradGradGradGradGradGradGrad

 Leave Link  103 at Thu Sep  8 15:16:41 2022, MaxMem= 24159191040 cpu:         0.7
 (Enter /public/home/users/caep010/software/Gaussian09/g09/l9999.exe)
 1\1\GINC-B1658\Freq\RB3LYP\6-31G(d,p)\C3H3N1O1\ROOT\08-Sep-2022\0\\#P 
 Geom=AllCheck Guess=TCheck SCRF=Check GenChk RB3LYP/6-31G(d,p) Freq\\F
 rag_802\\0,1\C,2.0711482081,0.207623137,-0.1380136365\C,0.8739857828,0
 .3196158946,-0.0199911943\C,-0.5689522297,0.5074454832,0.1316945147\N,
 -1.2916130233,-0.6430232729,0.000697555\O,-1.0671418828,1.6004297188,0
 .35448032\H,3.1294684451,0.1257616656,-0.2390390936\H,-0.8524677564,-1
 .5302310907,-0.1832438195\H,-2.2944285438,-0.5875215357,0.0934153542\\
 Version=ES64L-G09RevE.01\State=1-A\HF=-246.0371334\RMSD=2.405e-09\RMSF
 =3.322e-05\ZeroPoint=0.0547301\Thermal=0.0603313\Dipole=0.2658532,-1.4
 615178,-0.2644499\DipoleDeriv=-0.263678,0.0145255,0.0085289,0.0309296,
 -0.2063705,-0.0051748,0.0115603,-0.0038304,-0.192255,-0.540761,0.00073
 42,0.0419752,-0.0177944,-0.1062454,-0.0098843,0.0388258,-0.0114199,-0.
 0431287,1.6499011,0.1742544,-0.0770994,0.280436,1.6935962,0.1952648,-0
 .0595262,0.2039963,0.4166396,-0.6497628,-0.492829,-0.0811812,-0.382524
 2,-0.8911647,-0.0095132,-0.0628261,-0.0004194,-0.6367383,-0.79452,0.27
 07278,0.0787117,0.0610558,-1.0655771,-0.1174367,0.0438874,-0.1346894,-
 0.4155573,0.2371018,0.0034629,-0.0027392,-0.0177145,0.2167344,0.004801
 8,-0.006424,0.0030551,0.1977008,0.1500733,0.0136677,0.0184425,0.032703
 1,0.2039734,-0.0260458,0.0215687,-0.0244588,0.3385085,0.2116456,0.0154
 565,0.0133616,0.0129087,0.1550537,-0.0320118,0.012934,-0.0322334,0.334
 8304\Polar=57.2594999,-1.4189873,33.4107142,-3.6928011,3.0609343,16.50
 12767\PG=C01 [X(C3H3N1O1)]\NImag=0\\1.50511243,-0.13132112,0.05392683,
 -0.14291502,0.01236239,0.05897495,-1.08681769,0.09656034,0.10413065,1.
 39656850,0.10112441,-0.03463354,-0.00983543,-0.11517675,0.11448089,0.1
 0493817,-0.00946076,-0.03622705,-0.13032799,0.01876891,0.07299366,0.00
 162961,0.00221281,0.00036508,-0.23281529,0.00524084,0.01441861,0.65286
 891,0.00191523,0.00231568,-0.00002296,-0.01463533,-0.06740117,0.001727
 76,-0.09967222,0.90458965,0.00028272,-0.00004535,0.00142651,0.01115002
 ,0.00006251,-0.07132173,-0.05487369,0.12647030,0.21817736,-0.00196070,
 0.00079080,0.00039891,-0.04526453,-0.03423891,-0.00110856,-0.21366712,
 -0.10533768,-0.00352191,0.83510687,0.00154633,-0.00109248,-0.00051620,
 -0.01460481,0.00768682,0.00087626,-0.10109997,-0.27354059,-0.02940663,
 -0.04727602,0.80706066,0.00052435,-0.00045310,0.00112422,0.00215836,0.
 00251641,0.00995530,-0.00282022,-0.02905795,-0.05043341,-0.07615382,0.
 13553760,0.04366804,-0.00322951,0.00012272,0.00034055,-0.03352195,0.04
 672517,0.01216309,-0.20926474,0.22889426,0.04912819,0.03696384,-0.0150
 3881,-0.00386568,0.20756218,-0.00263453,0.00133041,0.00033755,0.051027
 63,-0.01686391,-0.01026921,0.20454397,-0.57031664,-0.09915236,0.009004
 34,-0.08824371,-0.01880681,-0.25939687,0.67675066,-0.00011466,0.000108
 36,0.00065729,0.01287385,-0.00991121,0.01665181,0.04508650,-0.10116858
 ,-0.09591515,0.00012571,-0.01681316,0.01773708,-0.05753212,0.12833027,
 0.05964357,-0.41427703,0.03156341,0.03768003,0.00540885,-0.00067695,-0
 .00033902,-0.00033252,-0.00011338,0.00057546,0.00045319,0.00015457,-0.
 00004911,0.00028415,0.00028307,-0.00007735,0.40861298,0.02985979,-0.02
 254328,-0.00258100,0.00049813,0.00033552,-0.00043930,0.00157397,0.0069
 1563,-0.00012005,0.00111403,-0.00083027,-0.00015667,-0.00201194,0.0001
 2304,0.00038911,-0.03106387,0.01576437,0.03737739,-0.00272031,-0.02540
 088,-0.00012921,-0.00034318,0.00268578,0.00086092,0.00001841,0.0067908
 1,0.00011015,-0.00007604,-0.00046923,-0.00045836,0.00019847,-0.0011448
 3,-0.03775975,0.00283447,0.01774633,-0.00068504,0.00015239,0.00004855,
 -0.00124547,0.00041393,0.00013972,0.01815529,-0.01392719,-0.00465585,-
 0.15433309,0.15334921,0.03862485,-0.00124297,-0.00591670,-0.00025642,-
 0.00008951,-0.00014539,-0.00001088,0.14194331,0.00010353,0.00017087,0.
 00008691,0.00005010,0.00070854,0.00018211,0.02003682,-0.01529358,-0.00
 255066,0.15325906,-0.37553149,-0.07575415,-0.00546913,-0.00353554,-0.0
 0137287,-0.00013541,0.00000960,0.00000094,-0.16192146,0.38727497,0.000
 04026,0.00008374,-0.00039495,0.00007848,0.00015114,-0.00038961,0.00098
 615,0.00026751,-0.01000458,0.03860974,-0.07575635,-0.01213968,-0.00018
 294,-0.00133058,0.00726269,-0.00000908,0.00000160,0.00007237,-0.038308
 37,0.07700721,0.02084365,0.00022793,-0.00008133,-0.00004876,-0.0023124
 2,-0.00341174,0.00011597,-0.01657415,0.00287631,0.00191507,-0.45729847
 ,0.02296950,0.04158127,0.00244900,0.00308909,-0.00010551,-0.00006011,0
 .00017528,0.00000973,-0.00250252,-0.00592351,-0.00121423,0.47607073,-0
 .00059363,0.00052551,0.00016875,-0.00371931,-0.00431314,-0.00138577,-0
 .03283621,0.01273103,0.00474224,0.02268438,-0.07550894,-0.01382534,0.0
 0617460,0.00075569,0.00043809,-0.00001144,0.00022541,0.00008724,0.0279
 9520,0.00619663,-0.00042427,-0.01969359,0.05938781,-0.00013322,0.00012
 503,-0.00016008,0.00006583,-0.00140916,0.00565184,-0.00402334,0.001765
 53,0.00128020,0.04153979,-0.01384548,-0.00944231,0.00040727,0.00069268
 ,-0.00489245,-0.00002118,0.00007184,-0.00028035,0.00441840,0.00240050,
 -0.00524990,-0.04225354,0.01019906,0.01309305\\-0.00003509,-0.00000777
 ,-0.00001413,0.00003095,0.00001971,-0.00004128,0.00001995,-0.00010310,
 0.00007678,0.00000555,0.00003729,-0.00001280,-0.00002289,0.00004168,-0
 .00002391,-0.00000673,0.00000313,0.00001966,0.00000928,0.00000779,-0.0
 0000303,-0.00000103,0.00000127,-0.00000129\\\@


 ALL MY ATTEMPTS TO ADAPT THE THEORETICAL FOUNDATIONS OF PHYSICS
 TO THESE NEW NOTIONS FAILED COMPLETELY. IT WAS AS IF THE GROUND HAD
 BEEN PULLED OUT FROM UNDER ONE WITH NO FIRM FOUNDATION TO BE SEEN ANYWHERE,
 UPON WHICH ONE COULD HAVE BUILT.  -- A.EINSTEIN
 Job cpu time:       0 days  0 hours  2 minutes 48.5 seconds.
 File lengths (MBytes):  RWF=     11 Int=      0 D2E=      0 Chk=      2 Scr=      1
 Normal termination of Gaussian 09 at Thu Sep  8 15:16:41 2022.
