 Entering Gaussian System, Link 0=g09
 Input=B3LYP6-31Gxx.Frag_198.gjf
 Output=B3LYP6-31Gxx.Frag_198.log
 Initial command:
 /public/home/users/caep010/software/Gaussian09/g09/l1.exe "/public/home/users/caep010/.cache/gau_scr/Gau-110949.inp" -scrdir="/public/home/users/caep010/.cache/gau_scr/"
 Entering Link 1 = /public/home/users/caep010/software/Gaussian09/g09/l1.exe PID=    110950.
  
 Copyright (c) 1988,1990,1992,1993,1995,1998,2003,2009,2015,
            Gaussian, Inc.  All Rights Reserved.
  
 This is part of the Gaussian(R) 09 program.  It is based on
 the Gaussian(R) 03 system (copyright 2003, Gaussian, Inc.),
 the Gaussian(R) 98 system (copyright 1998, Gaussian, Inc.),
 the Gaussian(R) 94 system (copyright 1995, Gaussian, Inc.),
 the Gaussian 92(TM) system (copyright 1992, Gaussian, Inc.),
 the Gaussian 90(TM) system (copyright 1990, Gaussian, Inc.),
 the Gaussian 88(TM) system (copyright 1988, Gaussian, Inc.),
 the Gaussian 86(TM) system (copyright 1986, Carnegie Mellon
 University), and the Gaussian 82(TM) system (copyright 1983,
 Carnegie Mellon University). Gaussian is a federally registered
 trademark of Gaussian, Inc.
  
 This software contains proprietary and confidential information,
 including trade secrets, belonging to Gaussian, Inc.
  
 This software is provided under written license and may be
 used, copied, transmitted, or stored only in accord with that
 written license.
  
 The following legend is applicable only to US Government
 contracts under FAR:
  
                    RESTRICTED RIGHTS LEGEND
  
 Use, reproduction and disclosure by the US Government is
 subject to restrictions as set forth in subparagraphs (a)
 and (c) of the Commercial Computer Software - Restricted
 Rights clause in FAR 52.227-19.
  
 Gaussian, Inc.
 340 Quinnipiac St., Bldg. 40, Wallingford CT 06492
  
  
 ---------------------------------------------------------------
 Warning -- This program may not be used in any manner that
 competes with the business of Gaussian, Inc. or will provide
 assistance to any competitor of Gaussian, Inc.  The licensee
 of this program is prohibited from giving any competitor of
 Gaussian, Inc. access to this program.  By using this program,
 the user acknowledges that Gaussian, Inc. is engaged in the
 business of creating and licensing software in the field of
 computational chemistry and represents and warrants to the
 licensee that it is not a competitor of Gaussian, Inc. and that
 it will not use this program in any manner prohibited above.
 ---------------------------------------------------------------
  

 Cite this work as:
 Gaussian 09, Revision E.01,
 M. J. Frisch, G. W. Trucks, H. B. Schlegel, G. E. Scuseria, 
 M. A. Robb, J. R. Cheeseman, G. Scalmani, V. Barone, B. Mennucci, 
 G. A. Petersson, H. Nakatsuji, M. Caricato, X. Li, H. P. Hratchian, 
 A. F. Izmaylov, J. Bloino, G. Zheng, J. L. Sonnenberg, M. Hada, 
 M. Ehara, K. Toyota, R. Fukuda, J. Hasegawa, M. Ishida, T. Nakajima, 
 Y. Honda, O. Kitao, H. Nakai, T. Vreven, J. A. Montgomery, Jr., 
 J. E. Peralta, F. Ogliaro, M. Bearpark, J. J. Heyd, E. Brothers, 
 K. N. Kudin, V. N. Staroverov, T. Keith, R. Kobayashi, J. Normand, 
 K. Raghavachari, A. Rendell, J. C. Burant, S. S. Iyengar, J. Tomasi, 
 M. Cossi, N. Rega, J. M. Millam, M. Klene, J. E. Knox, J. B. Cross, 
 V. Bakken, C. Adamo, J. Jaramillo, R. Gomperts, R. E. Stratmann, 
 O. Yazyev, A. J. Austin, R. Cammi, C. Pomelli, J. W. Ochterski, 
 R. L. Martin, K. Morokuma, V. G. Zakrzewski, G. A. Voth, 
 P. Salvador, J. J. Dannenberg, S. Dapprich, A. D. Daniels, 
 O. Farkas, J. B. Foresman, J. V. Ortiz, J. Cioslowski, 
 and D. J. Fox, Gaussian, Inc., Wallingford CT, 2013.
 
 ******************************************
 Gaussian 09:  ES64L-G09RevE.01 30-Nov-2015
                21-Aug-2021 
 ******************************************
 %nproc=32
 Will use up to   32 processors via shared memory.
 %mem=180GB
 -------------------------
 #P OPT Freq B3LYP/6-31G**
 -------------------------
 1/14=-1,18=20,19=15,26=3,38=1/1,3;
 2/9=110,12=2,17=6,18=5,40=1/2;
 3/5=1,6=6,7=101,11=2,16=1,25=1,30=1,71=1,74=-5/1,2,3;
 4//1;
 5/5=2,38=5/2;
 6/7=2,8=2,9=2,10=2,28=1/1;
 7//1,2,3,16;
 1/14=-1,18=20,19=15,26=3/3(2);
 2/9=110/2;
 99//99;
 2/9=110/2;
 3/5=1,6=6,7=101,11=2,16=1,25=1,30=1,71=1,74=-5/1,2,3;
 4/5=5,16=3,69=1/1;
 5/5=2,38=5/2;
 7//1,2,3,16;
 1/14=-1,18=20,19=15,26=3/3(-5);
 2/9=110/2;
 6/7=2,8=2,9=2,10=2,19=2,28=1/1;
 99/9=1/99;
 Leave Link    1 at Sat Aug 21 01:34:51 2021, MaxMem= 24159191040 cpu:         3.8
 (Enter /public/home/users/caep010/software/Gaussian09/g09/l101.exe)
 --------
 Frag_198
 --------
 Symbolic Z-matrix:
 Charge =  0 Multiplicity = 1
 C                     1.4482   -0.0934    0.1651 
 C                     0.0825   -0.3792   -0.4596 
 C                    -0.9015    0.7795   -0.4274 
 C                    -1.085    -0.4016    0.5143 
 H                     1.384     0.6045    1.0281 
 H                     1.896    -1.0475    0.5125 
 H                     2.1133    0.3524   -0.6033 
 H                    -0.0041   -1.0614   -1.332 
 H                    -0.5531    1.7074    0.0749 
 H                    -1.6214    0.7958   -1.2728 
 H                    -1.9132   -1.0823    0.2247 
 H                    -0.8456   -0.1742    1.5753 
 
 NAtoms=     12 NQM=       12 NQMF=       0 NMMI=      0 NMMIF=      0
                NMic=       0 NMicF=      0.
                    Isotopes and Nuclear Properties:
 (Nuclear quadrupole moments (NQMom) in fm**2, nuclear magnetic moments (NMagM)
  in nuclear magnetons)

  Atom         1           2           3           4           5           6           7           8           9          10
 IAtWgt=          12          12          12          12           1           1           1           1           1           1
 AtmWgt=  12.0000000  12.0000000  12.0000000  12.0000000   1.0078250   1.0078250   1.0078250   1.0078250   1.0078250   1.0078250
 NucSpn=           0           0           0           0           1           1           1           1           1           1
 AtZEff=   0.0000000   0.0000000   0.0000000   0.0000000   0.0000000   0.0000000   0.0000000   0.0000000   0.0000000   0.0000000
 NQMom=    0.0000000   0.0000000   0.0000000   0.0000000   0.0000000   0.0000000   0.0000000   0.0000000   0.0000000   0.0000000
 NMagM=    0.0000000   0.0000000   0.0000000   0.0000000   2.7928460   2.7928460   2.7928460   2.7928460   2.7928460   2.7928460
 AtZNuc=   6.0000000   6.0000000   6.0000000   6.0000000   1.0000000   1.0000000   1.0000000   1.0000000   1.0000000   1.0000000

  Atom        11          12
 IAtWgt=           1           1
 AtmWgt=   1.0078250   1.0078250
 NucSpn=           1           1
 AtZEff=   0.0000000   0.0000000
 NQMom=    0.0000000   0.0000000
 NMagM=    2.7928460   2.7928460
 AtZNuc=   1.0000000   1.0000000
 Leave Link  101 at Sat Aug 21 01:34:52 2021, MaxMem= 24159191040 cpu:        10.4
 (Enter /public/home/users/caep010/software/Gaussian09/g09/l103.exe)

 GradGradGradGradGradGradGradGradGradGradGradGradGradGradGradGradGradGrad
 Berny optimization.
 Initialization pass.
                           ----------------------------
                           !    Initial Parameters    !
                           ! (Angstroms and Degrees)  !
 --------------------------                            --------------------------
 ! Name  Definition              Value          Derivative Info.                !
 --------------------------------------------------------------------------------
 ! R1    R(1,2)                  1.5287         estimate D2E/DX2                !
 ! R2    R(1,5)                  1.1117         estimate D2E/DX2                !
 ! R3    R(1,6)                  1.1097         estimate D2E/DX2                !
 ! R4    R(1,7)                  1.1097         estimate D2E/DX2                !
 ! R5    R(2,3)                  1.5205         estimate D2E/DX2                !
 ! R6    R(2,4)                  1.5205         estimate D2E/DX2                !
 ! R7    R(2,8)                  1.1108         estimate D2E/DX2                !
 ! R8    R(3,4)                  1.5217         estimate D2E/DX2                !
 ! R9    R(3,9)                  1.1112         estimate D2E/DX2                !
 ! R10   R(3,10)                 1.1105         estimate D2E/DX2                !
 ! R11   R(4,11)                 1.1105         estimate D2E/DX2                !
 ! R12   R(4,12)                 1.1112         estimate D2E/DX2                !
 ! A1    A(2,1,5)              112.5184         estimate D2E/DX2                !
 ! A2    A(2,1,6)              109.1276         estimate D2E/DX2                !
 ! A3    A(2,1,7)              109.1209         estimate D2E/DX2                !
 ! A4    A(5,1,6)              108.6636         estimate D2E/DX2                !
 ! A5    A(5,1,7)              108.6584         estimate D2E/DX2                !
 ! A6    A(6,1,7)              108.6806         estimate D2E/DX2                !
 ! A7    A(1,2,3)              115.2785         estimate D2E/DX2                !
 ! A8    A(1,2,4)              115.2744         estimate D2E/DX2                !
 ! A9    A(1,2,8)              120.3563         estimate D2E/DX2                !
 ! A10   A(3,2,8)              115.7332         estimate D2E/DX2                !
 ! A11   A(4,2,8)              115.7285         estimate D2E/DX2                !
 ! A12   A(2,3,9)              116.2975         estimate D2E/DX2                !
 ! A13   A(2,3,10)             114.4938         estimate D2E/DX2                !
 ! A14   A(4,3,9)              113.9681         estimate D2E/DX2                !
 ! A15   A(4,3,10)             113.8498         estimate D2E/DX2                !
 ! A16   A(9,3,10)             122.3531         estimate D2E/DX2                !
 ! A17   A(2,4,11)             114.4969         estimate D2E/DX2                !
 ! A18   A(2,4,12)             116.3037         estimate D2E/DX2                !
 ! A19   A(3,4,11)             113.8496         estimate D2E/DX2                !
 ! A20   A(3,4,12)             113.9591         estimate D2E/DX2                !
 ! A21   A(11,4,12)            122.3533         estimate D2E/DX2                !
 ! D1    D(5,1,2,3)             33.6001         estimate D2E/DX2                !
 ! D2    D(5,1,2,4)            -33.5953         estimate D2E/DX2                !
 ! D3    D(5,1,2,8)           -179.9891         estimate D2E/DX2                !
 ! D4    D(6,1,2,3)            154.2943         estimate D2E/DX2                !
 ! D5    D(6,1,2,4)             87.0988         estimate D2E/DX2                !
 ! D6    D(6,1,2,8)            -59.295          estimate D2E/DX2                !
 ! D7    D(7,1,2,3)            -87.0828         estimate D2E/DX2                !
 ! D8    D(7,1,2,4)           -154.2783         estimate D2E/DX2                !
 ! D9    D(7,1,2,8)             59.3279         estimate D2E/DX2                !
 ! D10   D(1,2,3,9)             -2.0788         estimate D2E/DX2                !
 ! D11   D(1,2,3,10)           149.695          estimate D2E/DX2                !
 ! D12   D(8,2,3,9)           -150.0772         estimate D2E/DX2                !
 ! D13   D(8,2,3,10)             1.6966         estimate D2E/DX2                !
 ! D14   D(1,2,4,11)          -149.6911         estimate D2E/DX2                !
 ! D15   D(1,2,4,12)             2.1007         estimate D2E/DX2                !
 ! D16   D(8,2,4,11)            -1.7073         estimate D2E/DX2                !
 ! D17   D(8,2,4,12)           150.0845         estimate D2E/DX2                !
 ! D18   D(9,3,4,11)           146.8059         estimate D2E/DX2                !
 ! D19   D(9,3,4,12)             0.0106         estimate D2E/DX2                !
 ! D20   D(10,3,4,11)           -0.0028         estimate D2E/DX2                !
 ! D21   D(10,3,4,12)         -146.7981         estimate D2E/DX2                !
 --------------------------------------------------------------------------------
 Trust Radius=3.00D-01 FncErr=1.00D-07 GrdErr=1.00D-06
 Number of steps in this run=     64 maximum allowed number of steps=    100.
 GradGradGradGradGradGradGradGradGradGradGradGradGradGradGradGradGradGrad

 Leave Link  103 at Sat Aug 21 01:34:52 2021, MaxMem= 24159191040 cpu:         0.4
 (Enter /public/home/users/caep010/software/Gaussian09/g09/l202.exe)
                          Input orientation:                          
 ---------------------------------------------------------------------
 Center     Atomic      Atomic             Coordinates (Angstroms)
 Number     Number       Type             X           Y           Z
 ---------------------------------------------------------------------
      1          6           0        1.448200   -0.093400    0.165100
      2          6           0        0.082500   -0.379200   -0.459600
      3          6           0       -0.901500    0.779500   -0.427400
      4          6           0       -1.085000   -0.401600    0.514300
      5          1           0        1.384000    0.604500    1.028100
      6          1           0        1.896000   -1.047500    0.512500
      7          1           0        2.113300    0.352400   -0.603300
      8          1           0       -0.004100   -1.061400   -1.332000
      9          1           0       -0.553100    1.707400    0.074900
     10          1           0       -1.621400    0.795800   -1.272800
     11          1           0       -1.913200   -1.082300    0.224700
     12          1           0       -0.845600   -0.174200    1.575300
 ---------------------------------------------------------------------
                    Distance matrix (angstroms):
                    1          2          3          4          5
     1  C    0.000000
     2  C    1.528747   0.000000
     3  C    2.575675   1.520486   0.000000
     4  C    2.575661   1.520539   1.521666   0.000000
     5  H    1.111735   2.207899   2.715256   2.715177   0.000000
     6  H    1.109738   2.163420   3.470929   3.050172   1.804741
     7  H    1.109745   2.163339   3.049979   3.470831   1.804688
     8  H    2.299458   1.110846   2.238870   2.238862   3.205014
     9  H    2.693737   2.245791   1.111164   2.218980   2.424322
    10  H    3.504380   2.223779   1.110506   2.217029   3.789877
    11  H    3.504352   2.223833   2.216996   1.110467   3.789759
    12  H    2.693828   2.245932   2.218891   1.111190   2.424235
                    6          7          8          9         10
     6  H    0.000000
     7  H    1.803316   0.000000
     8  H    2.648160   2.648248   0.000000
     9  H    3.712015   3.066866   3.153890   0.000000
    10  H    4.353981   3.820055   2.463403   1.946426   0.000000
    11  H    3.820215   4.353924   2.463415   3.107207   2.419693
    12  H    3.067339   3.711966   3.153988   2.424289   3.107159
                   11         12
    11  H    0.000000
    12  H    1.946416   0.000000
 Stoichiometry    C4H8
 Framework group  C1[X(C4H8)]
 Deg. of freedom    30
 Full point group                 C1      NOp   1
 Largest Abelian subgroup         C1      NOp   1
 Largest concise Abelian subgroup C1      NOp   1
                         Standard orientation:                         
 ---------------------------------------------------------------------
 Center     Atomic      Atomic             Coordinates (Angstroms)
 Number     Number       Type             X           Y           Z
 ---------------------------------------------------------------------
      1          6           0       -1.527730   -0.000035   -0.140951
      2          6           0       -0.167823    0.000069    0.557419
      3          6           0        0.932889    0.760810   -0.164789
      4          6           0        0.932883   -0.760856   -0.164716
      5          1           0       -1.437332   -0.000205   -1.249004
      6          1           0       -2.095693   -0.901571    0.169160
      7          1           0       -2.095514    0.901745    0.168804
      8          1           0       -0.106319    0.000057    1.666561
      9          1           0        0.659383    1.212151   -1.142630
     10          1           0        1.697314    1.209862    0.503963
     11          1           0        1.697312   -1.209830    0.504019
     12          1           0        0.659529   -1.212138   -1.142656
 ---------------------------------------------------------------------
 Rotational constants (GHZ):     15.0378964      6.3948709      5.7228687
 Leave Link  202 at Sat Aug 21 01:34:52 2021, MaxMem= 24159191040 cpu:         0.8
 (Enter /public/home/users/caep010/software/Gaussian09/g09/l301.exe)
 Standard basis: 6-31G(d,p) (6D, 7F)
 Ernie: Thresh=  0.10000D-02 Tol=  0.10000D-05 Strict=F.
 There are   100 symmetry adapted cartesian basis functions of A   symmetry.
 There are   100 symmetry adapted basis functions of A   symmetry.
   100 basis functions,   168 primitive gaussians,   100 cartesian basis functions
    16 alpha electrons       16 beta electrons
       nuclear repulsion energy       123.5171371900 Hartrees.
 IExCor=  402 DFT=T Ex+Corr=B3LYP ExCW=0 ScaHFX=  0.200000
 ScaDFX=  0.800000  0.720000  1.000000  0.810000 ScalE2=  1.000000  1.000000
 IRadAn=      0 IRanWt=     -1 IRanGd=            0 ICorTp=0 IEmpDi=  4
 NAtoms=   12 NActive=   12 NUniq=   12 SFac= 1.00D+00 NAtFMM=   60 NAOKFM=F Big=F
 Integral buffers will be    131072 words long.
 Raffenetti 2 integral format.
 Two-electron integral symmetry is turned on.
 Leave Link  301 at Sat Aug 21 01:34:52 2021, MaxMem= 24159191040 cpu:         1.7
 (Enter /public/home/users/caep010/software/Gaussian09/g09/l302.exe)
 NPDir=0 NMtPBC=     1 NCelOv=     1 NCel=       1 NClECP=     1 NCelD=      1
         NCelK=      1 NCelE2=     1 NClLst=     1 CellRange=     0.0.
 One-electron integrals computed using PRISM.
 NBasis=   100 RedAO= T EigKep=  4.43D-03  NBF=   100
 NBsUse=   100 1.00D-06 EigRej= -1.00D+00 NBFU=   100
 Precomputing XC quadrature grid using
 IXCGrd= 4 IRadAn=           0 IRanWt=          -1 IRanGd=           0 AccXCQ= 0.00D+00.
 Generated NRdTot=       0 NPtTot=           0 NUsed=           0 NTot=          32
 NSgBfM=   100   100   100   100   100 MxSgAt=    12 MxSgA2=    12.
 Leave Link  302 at Sat Aug 21 01:34:52 2021, MaxMem= 24159191040 cpu:        13.0
 (Enter /public/home/users/caep010/software/Gaussian09/g09/l303.exe)
 DipDrv:  MaxL=1.
 Leave Link  303 at Sat Aug 21 01:34:52 2021, MaxMem= 24159191040 cpu:         0.9
 (Enter /public/home/users/caep010/software/Gaussian09/g09/l401.exe)
 ExpMin= 1.61D-01 ExpMax= 3.05D+03 ExpMxC= 4.57D+02 IAcc=1 IRadAn=         1 AccDes= 0.00D+00
 Harris functional with IExCor=  402 and IRadAn=       1 diagonalized for initial guess.
 HarFok:  IExCor=  402 AccDes= 0.00D+00 IRadAn=         1 IDoV= 1 UseB2=F ITyADJ=14
 ICtDFT=  3500011 ScaDFX=  1.000000  1.000000  1.000000  1.000000
 FoFCou: FMM=F IPFlag=           0 FMFlag=      100000 FMFlg1=           0
         NFxFlg=           0 DoJE=T BraDBF=F KetDBF=T FulRan=T
         wScrn=  0.000000 ICntrl=     500 IOpCl=  0 I1Cent=   200000004 NGrid=           0
         NMat0=    1 NMatS0=      1 NMatT0=    0 NMatD0=    1 NMtDS0=    0 NMtDT0=    0
 Petite list used in FoFCou.
 Harris En= -157.256189765913    
 JPrj=0 DoOrth=F DoCkMO=F.
 Leave Link  401 at Sat Aug 21 01:34:53 2021, MaxMem= 24159191040 cpu:        10.0
 (Enter /public/home/users/caep010/software/Gaussian09/g09/l502.exe)
 Closed shell SCF:
 Using DIIS extrapolation, IDIIS=  1040.
 Integral symmetry usage will be decided dynamically.
 Keep R1 ints in memory in canonical form, NReq=13729495.
 IVT=       52514 IEndB=       52514 NGot= 24159191040 MDV= 24146384752
 LenX= 24146384752 LenY= 24146374311
 Requested convergence on RMS density matrix=1.00D-08 within 128 cycles.
 Requested convergence on MAX density matrix=1.00D-06.
 Requested convergence on             energy=1.00D-06.
 No special actions if energy rises.
 FoFCou: FMM=F IPFlag=           0 FMFlag=           0 FMFlg1=           0
         NFxFlg=           0 DoJE=F BraDBF=F KetDBF=F FulRan=T
         wScrn=  0.000000 ICntrl=     600 IOpCl=  0 I1Cent=           0 NGrid=           0
         NMat0=    1 NMatS0=   5050 NMatT0=    0 NMatD0=    1 NMtDS0=    0 NMtDT0=    0
 Symmetry not used in FoFCou.
 Integral accuracy reduced to 1.0D-05 until final iterations.

 Cycle   1  Pass 0  IDiag  1:
 E= -157.052277707886    
 DIIS: error= 3.51D-02 at cycle   1 NSaved=   1.
 NSaved= 1 IEnMin= 1 EnMin= -157.052277707886     IErMin= 1 ErrMin= 3.51D-02
 ErrMax= 3.51D-02  0.00D+00 EMaxC= 1.00D-01 BMatC= 1.42D-01 BMatP= 1.42D-01
 IDIUse=3 WtCom= 6.49D-01 WtEn= 3.51D-01
 Coeff-Com:  0.100D+01
 Coeff-En:   0.100D+01
 Coeff:      0.100D+01
 Gap=     0.414 Goal=   None    Shift=    0.000
 GapD=    0.414 DampG=2.000 DampE=0.500 DampFc=1.0000 IDamp=-1.
 RMSDP=8.76D-03 MaxDP=1.30D-01              OVMax= 1.76D-01

 Cycle   2  Pass 0  IDiag  1:
 E= -156.993159621031     Delta-E=        0.059118086855 Rises=F Damp=F
 DIIS: error= 4.55D-02 at cycle   2 NSaved=   2.
 NSaved= 2 IEnMin= 1 EnMin= -157.052277707886     IErMin= 1 ErrMin= 3.51D-02
 ErrMax= 4.55D-02  0.00D+00 EMaxC= 1.00D-01 BMatC= 2.03D-01 BMatP= 1.42D-01
 IDIUse=2 WtCom= 0.00D+00 WtEn= 1.00D+00
 Coeff-En:   0.574D+00 0.426D+00
 Coeff:      0.574D+00 0.426D+00
 Gap=     0.359 Goal=   None    Shift=    0.000
 RMSDP=4.86D-03 MaxDP=7.68D-02 DE= 5.91D-02 OVMax= 8.66D-02

 Cycle   3  Pass 0  IDiag  1:
 E= -157.213982278730     Delta-E=       -0.220822657698 Rises=F Damp=F
 DIIS: error= 2.45D-03 at cycle   3 NSaved=   3.
 NSaved= 3 IEnMin= 3 EnMin= -157.213982278730     IErMin= 3 ErrMin= 2.45D-03
 ErrMax= 2.45D-03  0.00D+00 EMaxC= 1.00D-01 BMatC= 8.43D-04 BMatP= 1.42D-01
 IDIUse=3 WtCom= 9.76D-01 WtEn= 2.45D-02
 Coeff-Com:  0.903D-01 0.355D-01 0.874D+00
 Coeff-En:   0.000D+00 0.000D+00 0.100D+01
 Coeff:      0.881D-01 0.346D-01 0.877D+00
 Gap=     0.355 Goal=   None    Shift=    0.000
 RMSDP=3.59D-04 MaxDP=6.89D-03 DE=-2.21D-01 OVMax= 8.50D-03

 Cycle   4  Pass 0  IDiag  1:
 E= -157.214596946942     Delta-E=       -0.000614668212 Rises=F Damp=F
 DIIS: error= 1.18D-03 at cycle   4 NSaved=   4.
 NSaved= 4 IEnMin= 4 EnMin= -157.214596946942     IErMin= 4 ErrMin= 1.18D-03
 ErrMax= 1.18D-03  0.00D+00 EMaxC= 1.00D-01 BMatC= 2.40D-04 BMatP= 8.43D-04
 IDIUse=3 WtCom= 9.88D-01 WtEn= 1.18D-02
 Coeff-Com:  0.156D-01-0.710D-02 0.421D+00 0.570D+00
 Coeff-En:   0.000D+00 0.000D+00 0.947D-01 0.905D+00
 Coeff:      0.154D-01-0.702D-02 0.418D+00 0.574D+00
 Gap=     0.358 Goal=   None    Shift=    0.000
 RMSDP=1.51D-04 MaxDP=4.16D-03 DE=-6.15D-04 OVMax= 5.00D-03

 Cycle   5  Pass 0  IDiag  1:
 E= -157.214811182149     Delta-E=       -0.000214235207 Rises=F Damp=F
 DIIS: error= 2.84D-04 at cycle   5 NSaved=   5.
 NSaved= 5 IEnMin= 5 EnMin= -157.214811182149     IErMin= 5 ErrMin= 2.84D-04
 ErrMax= 2.84D-04  0.00D+00 EMaxC= 1.00D-01 BMatC= 1.36D-05 BMatP= 2.40D-04
 IDIUse=3 WtCom= 9.97D-01 WtEn= 2.84D-03
 Coeff-Com:  0.187D-02-0.549D-02 0.132D+00 0.264D+00 0.608D+00
 Coeff-En:   0.000D+00 0.000D+00 0.000D+00 0.000D+00 0.100D+01
 Coeff:      0.187D-02-0.547D-02 0.131D+00 0.263D+00 0.609D+00
 Gap=     0.357 Goal=   None    Shift=    0.000
 RMSDP=3.70D-05 MaxDP=9.67D-04 DE=-2.14D-04 OVMax= 1.31D-03

 Cycle   6  Pass 0  IDiag  1:
 E= -157.214823744997     Delta-E=       -0.000012562848 Rises=F Damp=F
 DIIS: error= 5.19D-05 at cycle   6 NSaved=   6.
 NSaved= 6 IEnMin= 6 EnMin= -157.214823744997     IErMin= 6 ErrMin= 5.19D-05
 ErrMax= 5.19D-05  0.00D+00 EMaxC= 1.00D-01 BMatC= 3.38D-07 BMatP= 1.36D-05
 IDIUse=1 WtCom= 1.00D+00 WtEn= 0.00D+00
 Coeff-Com:  0.407D-03-0.207D-02 0.400D-01 0.889D-01 0.249D+00 0.623D+00
 Coeff:      0.407D-03-0.207D-02 0.400D-01 0.889D-01 0.249D+00 0.623D+00
 Gap=     0.357 Goal=   None    Shift=    0.000
 RMSDP=7.30D-06 MaxDP=1.19D-04 DE=-1.26D-05 OVMax= 2.18D-04

 Initial convergence to 1.0D-05 achieved.  Increase integral accuracy.
 Cycle   7  Pass 1  IDiag  1:
 E= -157.214806181326     Delta-E=        0.000017563671 Rises=F Damp=F
 DIIS: error= 2.29D-05 at cycle   1 NSaved=   1.
 NSaved= 1 IEnMin= 1 EnMin= -157.214806181326     IErMin= 1 ErrMin= 2.29D-05
 ErrMax= 2.29D-05  0.00D+00 EMaxC= 1.00D-01 BMatC= 5.18D-08 BMatP= 5.18D-08
 IDIUse=1 WtCom= 1.00D+00 WtEn= 0.00D+00
 Coeff-Com:  0.100D+01
 Coeff:      0.100D+01
 Gap=     0.357 Goal=   None    Shift=    0.000
 RMSDP=7.30D-06 MaxDP=1.19D-04 DE= 1.76D-05 OVMax= 1.05D-04

 Cycle   8  Pass 1  IDiag  1:
 E= -157.214806182830     Delta-E=       -0.000000001504 Rises=F Damp=F
 DIIS: error= 1.95D-05 at cycle   2 NSaved=   2.
 NSaved= 2 IEnMin= 2 EnMin= -157.214806182830     IErMin= 2 ErrMin= 1.95D-05
 ErrMax= 1.95D-05  0.00D+00 EMaxC= 1.00D-01 BMatC= 5.26D-08 BMatP= 5.18D-08
 IDIUse=1 WtCom= 1.00D+00 WtEn= 0.00D+00
 Coeff-Com:  0.502D+00 0.498D+00
 Coeff:      0.502D+00 0.498D+00
 Gap=     0.357 Goal=   None    Shift=    0.000
 RMSDP=2.32D-06 MaxDP=4.21D-05 DE=-1.50D-09 OVMax= 7.64D-05

 Cycle   9  Pass 1  IDiag  1:
 E= -157.214806234417     Delta-E=       -0.000000051587 Rises=F Damp=F
 DIIS: error= 3.09D-06 at cycle   3 NSaved=   3.
 NSaved= 3 IEnMin= 3 EnMin= -157.214806234417     IErMin= 3 ErrMin= 3.09D-06
 ErrMax= 3.09D-06  0.00D+00 EMaxC= 1.00D-01 BMatC= 1.58D-09 BMatP= 5.18D-08
 IDIUse=1 WtCom= 1.00D+00 WtEn= 0.00D+00
 Coeff-Com:  0.765D-02 0.145D+00 0.848D+00
 Coeff:      0.765D-02 0.145D+00 0.848D+00
 Gap=     0.357 Goal=   None    Shift=    0.000
 RMSDP=4.40D-07 MaxDP=9.62D-06 DE=-5.16D-08 OVMax= 1.51D-05

 Cycle  10  Pass 1  IDiag  1:
 E= -157.214806235858     Delta-E=       -0.000000001441 Rises=F Damp=F
 DIIS: error= 8.57D-07 at cycle   4 NSaved=   4.
 NSaved= 4 IEnMin= 4 EnMin= -157.214806235858     IErMin= 4 ErrMin= 8.57D-07
 ErrMax= 8.57D-07  0.00D+00 EMaxC= 1.00D-01 BMatC= 1.33D-10 BMatP= 1.58D-09
 IDIUse=1 WtCom= 1.00D+00 WtEn= 0.00D+00
 Coeff-Com: -0.100D-01 0.568D-01 0.408D+00 0.545D+00
 Coeff:     -0.100D-01 0.568D-01 0.408D+00 0.545D+00
 Gap=     0.357 Goal=   None    Shift=    0.000
 RMSDP=1.33D-07 MaxDP=3.34D-06 DE=-1.44D-09 OVMax= 4.10D-06

 Cycle  11  Pass 1  IDiag  1:
 E= -157.214806235987     Delta-E=       -0.000000000129 Rises=F Damp=F
 DIIS: error= 2.04D-07 at cycle   5 NSaved=   5.
 NSaved= 5 IEnMin= 5 EnMin= -157.214806235987     IErMin= 5 ErrMin= 2.04D-07
 ErrMax= 2.04D-07  0.00D+00 EMaxC= 1.00D-01 BMatC= 7.29D-12 BMatP= 1.33D-10
 IDIUse=1 WtCom= 1.00D+00 WtEn= 0.00D+00
 Coeff-Com: -0.492D-02 0.186D-01 0.143D+00 0.262D+00 0.582D+00
 Coeff:     -0.492D-02 0.186D-01 0.143D+00 0.262D+00 0.582D+00
 Gap=     0.357 Goal=   None    Shift=    0.000
 RMSDP=2.79D-08 MaxDP=5.91D-07 DE=-1.29D-10 OVMax= 6.88D-07

 Cycle  12  Pass 1  IDiag  1:
 E= -157.214806235995     Delta-E=       -0.000000000009 Rises=F Damp=F
 DIIS: error= 2.70D-08 at cycle   6 NSaved=   6.
 NSaved= 6 IEnMin= 6 EnMin= -157.214806235995     IErMin= 6 ErrMin= 2.70D-08
 ErrMax= 2.70D-08  0.00D+00 EMaxC= 1.00D-01 BMatC= 6.97D-14 BMatP= 7.29D-12
 IDIUse=1 WtCom= 1.00D+00 WtEn= 0.00D+00
 Coeff-Com: -0.748D-03 0.181D-02 0.150D-01 0.393D-01 0.129D+00 0.816D+00
 Coeff:     -0.748D-03 0.181D-02 0.150D-01 0.393D-01 0.129D+00 0.816D+00
 Gap=     0.357 Goal=   None    Shift=    0.000
 RMSDP=4.53D-09 MaxDP=4.36D-08 DE=-8.70D-12 OVMax= 8.33D-08

 SCF Done:  E(RB3LYP) =  -157.214806236     A.U. after   12 cycles
            NFock= 12  Conv=0.45D-08     -V/T= 2.0119
 KE= 1.553608266195D+02 PE=-6.097507373271D+02 EE= 1.736579672816D+02
 Leave Link  502 at Sat Aug 21 01:34:54 2021, MaxMem= 24159191040 cpu:        29.6
 (Enter /public/home/users/caep010/software/Gaussian09/g09/l601.exe)
 Copying SCF densities to generalized density rwf, IOpCl= 0 IROHF=0.

 **********************************************************************

            Population analysis using the SCF density.

 **********************************************************************

 Orbital symmetries:
       Occupied  (A) (A) (A) (A) (A) (A) (A) (A) (A) (A) (A) (A)
                 (A) (A) (A) (A)
       Virtual   (A) (A) (A) (A) (A) (A) (A) (A) (A) (A) (A) (A)
                 (A) (A) (A) (A) (A) (A) (A) (A) (A) (A) (A) (A)
                 (A) (A) (A) (A) (A) (A) (A) (A) (A) (A) (A) (A)
                 (A) (A) (A) (A) (A) (A) (A) (A) (A) (A) (A) (A)
                 (A) (A) (A) (A) (A) (A) (A) (A) (A) (A) (A) (A)
                 (A) (A) (A) (A) (A) (A) (A) (A) (A) (A) (A) (A)
                 (A) (A) (A) (A) (A) (A) (A) (A) (A) (A) (A) (A)
 The electronic state is 1-A.
 Alpha  occ. eigenvalues --  -10.19137 -10.18271 -10.18248 -10.18024  -0.84548
 Alpha  occ. eigenvalues --   -0.69696  -0.57876  -0.55671  -0.48404  -0.43569
 Alpha  occ. eigenvalues --   -0.40116  -0.38049  -0.36021  -0.35216  -0.27337
 Alpha  occ. eigenvalues --   -0.26642
 Alpha virt. eigenvalues --    0.09098   0.10355   0.13586   0.14909   0.15580
 Alpha virt. eigenvalues --    0.16742   0.17901   0.18320   0.22796   0.24867
 Alpha virt. eigenvalues --    0.25397   0.29912   0.47473   0.53178   0.53608
 Alpha virt. eigenvalues --    0.55220   0.59107   0.61445   0.63607   0.65929
 Alpha virt. eigenvalues --    0.70548   0.72452   0.76929   0.78494   0.80976
 Alpha virt. eigenvalues --    0.85426   0.87390   0.87919   0.90210   0.91834
 Alpha virt. eigenvalues --    0.93291   0.95412   1.04738   1.22918   1.30108
 Alpha virt. eigenvalues --    1.34927   1.46869   1.55447   1.61979   1.64712
 Alpha virt. eigenvalues --    1.72429   1.76638   1.79715   1.82213   1.86318
 Alpha virt. eigenvalues --    1.97514   1.99773   2.03265   2.04408   2.06811
 Alpha virt. eigenvalues --    2.09374   2.12474   2.17510   2.22662   2.24181
 Alpha virt. eigenvalues --    2.29607   2.33827   2.35310   2.41004   2.43153
 Alpha virt. eigenvalues --    2.51225   2.53889   2.58981   2.64236   2.66879
 Alpha virt. eigenvalues --    2.70999   2.75459   2.77965   2.80566   2.81972
 Alpha virt. eigenvalues --    2.85999   2.91516   3.15837   3.23929   3.32994
 Alpha virt. eigenvalues --    3.40369   3.41472   3.43717   3.45210   3.46142
 Alpha virt. eigenvalues --    4.27126   4.44272   4.56232   4.62215
          Condensed to atoms (all electrons):
               1          2          3          4          5          6
     1  C    4.882149   0.397883  -0.036112  -0.036112   0.384708   0.376440
     2  C    0.397883   4.909473   0.289663   0.289645  -0.031311  -0.036776
     3  C   -0.036112   0.289663   5.027254   0.241856  -0.004950   0.005455
     4  C   -0.036112   0.289645   0.241856   5.027272  -0.004956  -0.004516
     5  H    0.384708  -0.031311  -0.004950  -0.004956   0.612852  -0.031354
     6  H    0.376440  -0.036776   0.005455  -0.004516  -0.031354   0.620795
     7  H    0.376432  -0.036792  -0.004519   0.005456  -0.031361  -0.032257
     8  H   -0.031068   0.388990  -0.028521  -0.028514   0.003956  -0.002087
     9  H   -0.006597  -0.027364   0.393652  -0.026284   0.003202   0.000123
    10  H    0.002565  -0.024186   0.385011  -0.021818   0.000001  -0.000157
    11  H    0.002566  -0.024188  -0.021813   0.385018   0.000001   0.000206
    12  H   -0.006597  -0.027353  -0.026291   0.393649   0.003204   0.001055
               7          8          9         10         11         12
     1  C    0.376432  -0.031068  -0.006597   0.002565   0.002566  -0.006597
     2  C   -0.036792   0.388990  -0.027364  -0.024186  -0.024188  -0.027353
     3  C   -0.004519  -0.028521   0.393652   0.385011  -0.021813  -0.026291
     4  C    0.005456  -0.028514  -0.026284  -0.021818   0.385018   0.393649
     5  H   -0.031361   0.003956   0.003202   0.000001   0.000001   0.003204
     6  H   -0.032257  -0.002087   0.000123  -0.000157   0.000206   0.001055
     7  H    0.620834  -0.002085   0.001056   0.000206  -0.000157   0.000123
     8  H   -0.002085   0.610824   0.002357  -0.006140  -0.006138   0.002356
     9  H    0.001056   0.002357   0.585271  -0.025389   0.002274  -0.007528
    10  H    0.000206  -0.006140  -0.025389   0.592582  -0.008273   0.002275
    11  H   -0.000157  -0.006138   0.002274  -0.008273   0.592567  -0.025390
    12  H    0.000123   0.002356  -0.007528   0.002275  -0.025390   0.585274
 Mulliken charges:
               1
     1  C   -0.306256
     2  C   -0.067683
     3  C   -0.220685
     4  C   -0.220696
     5  H    0.096008
     6  H    0.103075
     7  H    0.103065
     8  H    0.096071
     9  H    0.105226
    10  H    0.103322
    11  H    0.103328
    12  H    0.105225
 Sum of Mulliken charges =  -0.00000
 Mulliken charges with hydrogens summed into heavy atoms:
               1
     1  C   -0.004108
     2  C    0.028387
     3  C   -0.012136
     4  C   -0.012143
 Electronic spatial extent (au):  <R**2>=            296.1301
 Charge=             -0.0000 electrons
 Dipole moment (field-independent basis, Debye):
    X=             -0.0570    Y=              0.0001    Z=              0.0809  Tot=              0.0989
 Quadrupole moment (field-independent basis, Debye-Ang):
   XX=            -26.9738   YY=            -27.5177   ZZ=            -25.0279
   XY=              0.0000   XZ=              1.0311   YZ=             -0.0000
 Traceless Quadrupole moment (field-independent basis, Debye-Ang):
   XX=             -0.4673   YY=             -1.0113   ZZ=              1.4786
   XY=              0.0000   XZ=              1.0311   YZ=             -0.0000
 Octapole moment (field-independent basis, Debye-Ang**2):
  XXX=              0.2204  YYY=              0.0007  ZZZ=             -0.0310  XYY=             -0.0570
  XXY=             -0.0008  XXZ=              2.9154  XZZ=              0.3644  YZZ=             -0.0003
  YYZ=             -0.5471  XYZ=              0.0004
 Hexadecapole moment (field-independent basis, Debye-Ang**3):
 XXXX=           -241.1327 YYYY=           -101.5194 ZZZZ=            -67.0221 XXXY=              0.0014
 XXXZ=              4.1246 YYYX=             -0.0005 YYYZ=             -0.0005 ZZZX=              1.3764
 ZZZY=              0.0004 XXYY=            -53.0385 XXZZ=            -51.4959 YYZZ=            -27.4331
 XXYZ=             -0.0005 YYXZ=              0.2691 ZZXY=              0.0001
 N-N= 1.235171371900D+02 E-N=-6.097507385383D+02  KE= 1.553608266195D+02
 No NMR shielding tensors so no spin-rotation constants.
 Leave Link  601 at Sat Aug 21 01:34:54 2021, MaxMem= 24159191040 cpu:        10.6
 (Enter /public/home/users/caep010/software/Gaussian09/g09/l701.exe)
 Compute integral first derivatives.
 ... and contract with generalized density number  0.
 Leave Link  701 at Sat Aug 21 01:34:55 2021, MaxMem= 24159191040 cpu:        10.6
 (Enter /public/home/users/caep010/software/Gaussian09/g09/l702.exe)
 L702 exits ... SP integral derivatives will be done elsewhere.
 Leave Link  702 at Sat Aug 21 01:34:55 2021, MaxMem= 24159191040 cpu:         0.5
 (Enter /public/home/users/caep010/software/Gaussian09/g09/l703.exe)
 Compute integral first derivatives, UseDBF=F ICtDFT=           0.
 Integral derivatives from FoFJK, PRISM(SPDF).
 Calling FoFJK, ICntrl=      2127 FMM=F ISym2X=0 I1Cent= 0 IOpClX= 0 NMat=1 NMatS=1 NMatT=0.
 FoFJK:  IHMeth= 1 ICntrl=    2127 DoSepK=F KAlg= 0 I1Cent=   0 FoldK=F
 IRaf=         0 NMat=   1 IRICut=       1 DoRegI=T DoRafI=F ISym2E= 0.
 FoFCou: FMM=F IPFlag=           0 FMFlag=      100000 FMFlg1=         800
         NFxFlg=           0 DoJE=F BraDBF=F KetDBF=F FulRan=T
         wScrn=  0.000000 ICntrl=    2127 IOpCl=  0 I1Cent=           0 NGrid=           0
         NMat0=    1 NMatS0=      1 NMatT0=    0 NMatD0=    1 NMtDS0=    0 NMtDT0=    0
 Symmetry not used in FoFCou.
 Leave Link  703 at Sat Aug 21 01:34:55 2021, MaxMem= 24159191040 cpu:         8.8
 (Enter /public/home/users/caep010/software/Gaussian09/g09/l716.exe)
 Dipole        =-2.24268712D-02 3.43921604D-05 3.18105465D-02
 ***** Axes restored to original set *****
 -------------------------------------------------------------------
 Center     Atomic                   Forces (Hartrees/Bohr)
 Number     Number              X              Y              Z
 -------------------------------------------------------------------
      1        6           0.005429144   -0.011322045   -0.013179395
      2        6          -0.004416033    0.011452651    0.013560731
      3        6          -0.004653766   -0.006821507   -0.003440529
      4        6          -0.003736815   -0.000988749   -0.008039665
      5        1          -0.001770896   -0.007306306   -0.009503917
      6        1           0.000579581    0.009525731   -0.000805728
      7        1          -0.001331959   -0.002843008    0.009051018
      8        1           0.007711482    0.008904528    0.012665254
      9        1          -0.008704905   -0.008569616   -0.016812418
     10        1           0.010464951    0.012553609    0.013266505
     11        1           0.009775805    0.008200627    0.016718136
     12        1          -0.009346588   -0.012785915   -0.013479992
 -------------------------------------------------------------------
 Cartesian Forces:  Max     0.016812418 RMS     0.009435271
 Leave Link  716 at Sat Aug 21 01:34:55 2021, MaxMem= 24159191040 cpu:         0.7
 (Enter /public/home/users/caep010/software/Gaussian09/g09/l103.exe)

 GradGradGradGradGradGradGradGradGradGradGradGradGradGradGradGradGradGrad
 Berny optimization.
 FormGI is forming the generalized inverse of G from B-inverse, IUseBI=4.
 Internal  Forces:  Max     0.017503335 RMS     0.007350986
 Search for a local minimum.
 Step number   1 out of a maximum of   64
 All quantities printed in internal units (Hartrees-Bohrs-Radians)
 RMS Force = .73510D-02 SwitMx=.10000D-02 MixMth= 1
 Mixed Optimization -- RFO/linear search
 Second derivative matrix not updated -- first step.
 ITU=  0
     Eigenvalues ---    0.00386   0.01631   0.01992   0.02845   0.02846
     Eigenvalues ---    0.03468   0.03858   0.05477   0.05856   0.10655
     Eigenvalues ---    0.10950   0.11429   0.15887   0.16000   0.16000
     Eigenvalues ---    0.16000   0.16000   0.17181   0.25056   0.27499
     Eigenvalues ---    0.29539   0.30281   0.32417   0.32474   0.32477
     Eigenvalues ---    0.32511   0.32547   0.32551   0.32627   0.32628
 RFO step:  Lambda=-1.35900116D-02 EMin= 3.85676147D-03
 Linear search not attempted -- first point.
 Iteration  1 RMS(Cart)=  0.04086570 RMS(Int)=  0.00129822
 Iteration  2 RMS(Cart)=  0.00132621 RMS(Int)=  0.00059059
 Iteration  3 RMS(Cart)=  0.00000088 RMS(Int)=  0.00059058
 ITry= 1 IFail=0 DXMaxC= 1.34D-01 DCOld= 1.00D+10 DXMaxT= 3.00D-01 DXLimC= 3.00D+00 Rises=F
 Variable       Old X    -DE/DX   Delta X   Delta X   Delta X     New X
                                 (Linear)    (Quad)   (Total)
    R1        2.88891  -0.00553   0.00000  -0.01790  -0.01790   2.87101
    R2        2.10087  -0.01186   0.00000  -0.03511  -0.03511   2.06576
    R3        2.09710  -0.00821   0.00000  -0.02415  -0.02415   2.07295
    R4        2.09711  -0.00821   0.00000  -0.02415  -0.02415   2.07296
    R5        2.87330  -0.00027   0.00000  -0.00651  -0.00590   2.86741
    R6        2.87340  -0.00029   0.00000  -0.00658  -0.00597   2.86743
    R7        2.09919  -0.01602   0.00000  -0.04729  -0.04729   2.05191
    R8        2.87553  -0.00033   0.00000   0.01029   0.00908   2.88461
    R9        2.09980  -0.01749   0.00000  -0.05168  -0.05168   2.04811
   R10        2.09855  -0.01670   0.00000  -0.04925  -0.04925   2.04930
   R11        2.09848  -0.01668   0.00000  -0.04918  -0.04918   2.04930
   R12        2.09985  -0.01750   0.00000  -0.05173  -0.05173   2.04811
    A1        1.96382  -0.00664   0.00000  -0.04426  -0.04369   1.92013
    A2        1.90464   0.00716   0.00000   0.04409   0.04344   1.94807
    A3        1.90452   0.00717   0.00000   0.04420   0.04355   1.94807
    A4        1.89654  -0.00139   0.00000  -0.01387  -0.01334   1.88320
    A5        1.89645  -0.00139   0.00000  -0.01382  -0.01328   1.88316
    A6        1.89683  -0.00503   0.00000  -0.01646  -0.01817   1.87866
    A7        2.01199   0.00953   0.00000   0.05298   0.05186   2.06385
    A8        2.01192   0.00952   0.00000   0.05304   0.05192   2.06384
    A9        2.10061  -0.00929   0.00000  -0.06813  -0.06743   2.03318
   A10        2.01992  -0.00178   0.00000   0.00185   0.00215   2.02207
   A11        2.01984  -0.00178   0.00000   0.00188   0.00218   2.02202
   A12        2.02977  -0.00076   0.00000  -0.00354  -0.00404   2.02573
   A13        1.99829   0.00840   0.00000   0.04940   0.04919   2.04748
   A14        1.98912   0.00644   0.00000   0.05654   0.05659   2.04570
   A15        1.98705   0.00296   0.00000   0.03502   0.03430   2.02136
   A16        2.13546  -0.01012   0.00000  -0.07904  -0.07939   2.05608
   A17        1.99835   0.00839   0.00000   0.04936   0.04915   2.04749
   A18        2.02988  -0.00076   0.00000  -0.00364  -0.00415   2.02574
   A19        1.98705   0.00296   0.00000   0.03502   0.03430   2.02135
   A20        1.98896   0.00645   0.00000   0.05668   0.05672   2.04568
   A21        2.13547  -0.01012   0.00000  -0.07902  -0.07938   2.05609
    D1        0.58643   0.00298   0.00000   0.02057   0.02139   0.60783
    D2       -0.58635  -0.00297   0.00000  -0.02047  -0.02129  -0.60764
    D3       -3.14140   0.00000   0.00000  -0.00003  -0.00003  -3.14143
    D4        2.69294   0.00183   0.00000   0.00466   0.00489   2.69783
    D5        1.52016  -0.00412   0.00000  -0.03638  -0.03779   1.48237
    D6       -1.03489  -0.00115   0.00000  -0.01595  -0.01654  -1.05143
    D7       -1.51988   0.00412   0.00000   0.03634   0.03775  -1.48213
    D8       -2.69266  -0.00184   0.00000  -0.00470  -0.00493  -2.69760
    D9        1.03547   0.00114   0.00000   0.01574   0.01633   1.05179
   D10       -0.03628   0.00118   0.00000   0.02775   0.02744  -0.00884
   D11        2.61267  -0.00652   0.00000  -0.05841  -0.05889   2.55378
   D12       -2.61934   0.00685   0.00000   0.07263   0.07279  -2.54655
   D13        0.02961  -0.00085   0.00000  -0.01353  -0.01354   0.01607
   D14       -2.61260   0.00652   0.00000   0.05836   0.05883  -2.55377
   D15        0.03666  -0.00119   0.00000  -0.02807  -0.02777   0.00890
   D16       -0.02980   0.00086   0.00000   0.01362   0.01362  -0.01617
   D17        2.61947  -0.00685   0.00000  -0.07281  -0.07298   2.54649
   D18        2.56225  -0.00470   0.00000  -0.00971  -0.00990   2.55235
   D19        0.00019  -0.00000   0.00000  -0.00017  -0.00017   0.00001
   D20       -0.00005   0.00000   0.00000   0.00004   0.00004  -0.00001
   D21       -2.56211   0.00470   0.00000   0.00958   0.00977  -2.55235
         Item               Value     Threshold  Converged?
 Maximum Force            0.017503     0.000450     NO 
 RMS     Force            0.007351     0.000300     NO 
 Maximum Displacement     0.133605     0.001800     NO 
 RMS     Displacement     0.040800     0.001200     NO 
 Predicted change in Energy=-7.399035D-03
 Lowest energy point so far.  Saving SCF results.
 GradGradGradGradGradGradGradGradGradGradGradGradGradGradGradGradGradGrad

 Leave Link  103 at Sat Aug 21 01:34:55 2021, MaxMem= 24159191040 cpu:         2.4
 (Enter /public/home/users/caep010/software/Gaussian09/g09/l202.exe)
                          Input orientation:                          
 ---------------------------------------------------------------------
 Center     Atomic      Atomic             Coordinates (Angstroms)
 Number     Number       Type             X           Y           Z
 ---------------------------------------------------------------------
      1          6           0        1.459472   -0.107773    0.149225
      2          6           0        0.079278   -0.358495   -0.434207
      3          6           0       -0.920269    0.783123   -0.430435
      4          6           0       -1.104359   -0.401692    0.514252
      5          1           0        1.388303    0.578929    0.996789
      6          1           0        1.922355   -1.036267    0.505526
      7          1           0        2.135842    0.338371   -0.590242
      8          1           0        0.028159   -1.029839   -1.286083
      9          1           0       -0.577379    1.714881    0.004199
     10          1           0       -1.616147    0.837943   -1.260357
     11          1           0       -1.914147   -1.079952    0.268848
     12          1           0       -0.881008   -0.239229    1.562285
 ---------------------------------------------------------------------
                    Distance matrix (angstroms):
                    1          2          3          4          5
     1  C    0.000000
     2  C    1.519273   0.000000
     3  C    2.606313   1.517366   0.000000
     4  C    2.606312   1.517378   1.526469   0.000000
     5  H    1.093156   2.154080   2.721795   2.721732   0.000000
     6  H    1.096956   2.177018   3.502387   3.092533   1.770709
     7  H    1.096964   2.177022   3.092435   3.502356   1.770692
     8  H    2.226874   1.085821   2.217764   2.217740   3.106385
     9  H    2.737126   2.218623   1.083815   2.240032   2.477806
    10  H    3.512937   2.233485   1.084445   2.224378   3.766764
    11  H    3.512939   2.233501   2.224373   1.084442   3.766690
    12  H    2.737127   2.218637   2.240017   1.083814   2.477688
                    6          7          8          9         10
     6  H    0.000000
     7  H    1.770851   0.000000
     8  H    2.607275   2.607397   0.000000
     9  H    3.750842   3.099953   3.092732   0.000000
    10  H    4.376300   3.843962   2.488577   1.856653   0.000000
    11  H    3.844043   4.376309   2.488548   3.109353   2.470950
    12  H    3.100137   3.750783   3.092708   2.517612   3.109346
                   11         12
    11  H    0.000000
    12  H    1.856655   0.000000
 Stoichiometry    C4H8
 Framework group  C1[X(C4H8)]
 Deg. of freedom    30
 Full point group                 C1      NOp   1
 RotChk:  IX=0 Diff= 1.60D-02
 Largest Abelian subgroup         C1      NOp   1
 Largest concise Abelian subgroup C1      NOp   1
                         Standard orientation:                         
 ---------------------------------------------------------------------
 Center     Atomic      Atomic             Coordinates (Angstroms)
 Number     Number       Type             X           Y           Z
 ---------------------------------------------------------------------
      1          6           0       -1.542914   -0.000004   -0.135658
      2          6           0       -0.174534    0.000006    0.524438
      3          6           0        0.949087    0.763235   -0.151842
      4          6           0        0.949089   -0.763235   -0.151853
      5          1           0       -1.433636   -0.000108   -1.223338
      6          1           0       -2.126777   -0.885367    0.144610
      7          1           0       -2.126696    0.885484    0.144414
      8          1           0       -0.160503   -0.000049    1.610169
      9          1           0        0.695823    1.258823   -1.081845
     10          1           0        1.685787    1.235473    0.488692
     11          1           0        1.685797   -1.235476    0.488666
     12          1           0        0.695835   -1.258789   -1.081875
 ---------------------------------------------------------------------
 Rotational constants (GHZ):     15.3670730      6.3551640      5.5967577
 Leave Link  202 at Sat Aug 21 01:34:55 2021, MaxMem= 24159191040 cpu:         0.2
 (Enter /public/home/users/caep010/software/Gaussian09/g09/l301.exe)
 Standard basis: 6-31G(d,p) (6D, 7F)
 Ernie: Thresh=  0.10000D-02 Tol=  0.10000D-05 Strict=F.
 There are   100 symmetry adapted cartesian basis functions of A   symmetry.
 There are   100 symmetry adapted basis functions of A   symmetry.
   100 basis functions,   168 primitive gaussians,   100 cartesian basis functions
    16 alpha electrons       16 beta electrons
       nuclear repulsion energy       123.9057384638 Hartrees.
 IExCor=  402 DFT=T Ex+Corr=B3LYP ExCW=0 ScaHFX=  0.200000
 ScaDFX=  0.800000  0.720000  1.000000  0.810000 ScalE2=  1.000000  1.000000
 IRadAn=      0 IRanWt=     -1 IRanGd=            0 ICorTp=0 IEmpDi=  4
 NAtoms=   12 NActive=   12 NUniq=   12 SFac= 1.00D+00 NAtFMM=   60 NAOKFM=F Big=F
 Integral buffers will be    131072 words long.
 Raffenetti 2 integral format.
 Two-electron integral symmetry is turned on.
 Leave Link  301 at Sat Aug 21 01:34:56 2021, MaxMem= 24159191040 cpu:         1.7
 (Enter /public/home/users/caep010/software/Gaussian09/g09/l302.exe)
 NPDir=0 NMtPBC=     1 NCelOv=     1 NCel=       1 NClECP=     1 NCelD=      1
         NCelK=      1 NCelE2=     1 NClLst=     1 CellRange=     0.0.
 One-electron integrals computed using PRISM.
 NBasis=   100 RedAO= T EigKep=  4.44D-03  NBF=   100
 NBsUse=   100 1.00D-06 EigRej= -1.00D+00 NBFU=   100
 Precomputing XC quadrature grid using
 IXCGrd= 4 IRadAn=           0 IRanWt=          -1 IRanGd=           0 AccXCQ= 0.00D+00.
 Generated NRdTot=       0 NPtTot=           0 NUsed=           0 NTot=          32
 NSgBfM=   100   100   100   100   100 MxSgAt=    12 MxSgA2=    12.
 Leave Link  302 at Sat Aug 21 01:34:56 2021, MaxMem= 24159191040 cpu:        10.9
 (Enter /public/home/users/caep010/software/Gaussian09/g09/l303.exe)
 DipDrv:  MaxL=1.
 Leave Link  303 at Sat Aug 21 01:34:56 2021, MaxMem= 24159191040 cpu:         0.8
 (Enter /public/home/users/caep010/software/Gaussian09/g09/l401.exe)
 Initial guess from the checkpoint file:  "/public/home/users/caep010/.cache/gau_scr/Gau-110950.chk"
 B after Tr=    -0.000000   -0.000000    0.000000
         Rot=    0.999990   -0.000026    0.004530    0.000000 Ang=  -0.52 deg.
 Guess basis will be translated and rotated to current coordinates.
 JPrj=2 DoOrth=T DoCkMO=T.
 Generating alternative initial guess.
 ExpMin= 1.61D-01 ExpMax= 3.05D+03 ExpMxC= 4.57D+02 IAcc=1 IRadAn=         1 AccDes= 0.00D+00
 Harris functional with IExCor=  402 and IRadAn=       1 diagonalized for initial guess.
 HarFok:  IExCor=  402 AccDes= 0.00D+00 IRadAn=         1 IDoV= 1 UseB2=F ITyADJ=14
 ICtDFT=  3500011 ScaDFX=  1.000000  1.000000  1.000000  1.000000
 FoFCou: FMM=F IPFlag=           0 FMFlag=      100000 FMFlg1=           0
         NFxFlg=           0 DoJE=T BraDBF=F KetDBF=T FulRan=T
         wScrn=  0.000000 ICntrl=     500 IOpCl=  0 I1Cent=   200000004 NGrid=           0
         NMat0=    1 NMatS0=      1 NMatT0=    0 NMatD0=    1 NMtDS0=    0 NMtDT0=    0
 Petite list used in FoFCou.
 Harris En= -157.274258964524    
 Leave Link  401 at Sat Aug 21 01:34:57 2021, MaxMem= 24159191040 cpu:        17.0
 (Enter /public/home/users/caep010/software/Gaussian09/g09/l502.exe)
 Closed shell SCF:
 Using DIIS extrapolation, IDIIS=  1040.
 Integral symmetry usage will be decided dynamically.
 Keep R1 ints in memory in canonical form, NReq=13729495.
 IVT=       52514 IEndB=       52514 NGot= 24159191040 MDV= 24146384752
 LenX= 24146384752 LenY= 24146374311
 Requested convergence on RMS density matrix=1.00D-08 within 128 cycles.
 Requested convergence on MAX density matrix=1.00D-06.
 Requested convergence on             energy=1.00D-06.
 No special actions if energy rises.
 FoFCou: FMM=F IPFlag=           0 FMFlag=           0 FMFlg1=           0
         NFxFlg=           0 DoJE=F BraDBF=F KetDBF=F FulRan=T
         wScrn=  0.000000 ICntrl=     600 IOpCl=  0 I1Cent=           0 NGrid=           0
         NMat0=    1 NMatS0=   5050 NMatT0=    0 NMatD0=    1 NMtDS0=    0 NMtDT0=    0
 Symmetry not used in FoFCou.
 Integral accuracy reduced to 1.0D-05 until final iterations.

 Cycle   1  Pass 0  IDiag  1:
 E= -157.221335479313    
 DIIS: error= 2.82D-03 at cycle   1 NSaved=   1.
 NSaved= 1 IEnMin= 1 EnMin= -157.221335479313     IErMin= 1 ErrMin= 2.82D-03
 ErrMax= 2.82D-03  0.00D+00 EMaxC= 1.00D-01 BMatC= 9.35D-04 BMatP= 9.35D-04
 IDIUse=3 WtCom= 9.72D-01 WtEn= 2.82D-02
 Coeff-Com:  0.100D+01
 Coeff-En:   0.100D+01
 Coeff:      0.100D+01
 Gap=     2.142 Goal=   None    Shift=    0.000
 GapD=    2.142 DampG=2.000 DampE=1.000 DampFc=2.0000 IDamp=-1.
 RMSDP=4.36D-04 MaxDP=5.12D-03              OVMax= 9.35D-03

 Cycle   2  Pass 0  IDiag  1:
 E= -157.222444864167     Delta-E=       -0.001109384854 Rises=F Damp=F
 DIIS: error= 1.40D-03 at cycle   2 NSaved=   2.
 NSaved= 2 IEnMin= 2 EnMin= -157.222444864167     IErMin= 2 ErrMin= 1.40D-03
 ErrMax= 1.40D-03  0.00D+00 EMaxC= 1.00D-01 BMatC= 1.29D-04 BMatP= 9.35D-04
 IDIUse=3 WtCom= 9.86D-01 WtEn= 1.40D-02
 Coeff-Com:  0.189D+00 0.811D+00
 Coeff-En:   0.000D+00 0.100D+01
 Coeff:      0.187D+00 0.813D+00
 Gap=     0.369 Goal=   None    Shift=    0.000
 RMSDP=1.92D-04 MaxDP=3.00D-03 DE=-1.11D-03 OVMax= 4.11D-03

 Cycle   3  Pass 0  IDiag  1:
 E= -157.222518897804     Delta-E=       -0.000074033637 Rises=F Damp=F
 DIIS: error= 7.51D-04 at cycle   3 NSaved=   3.
 NSaved= 3 IEnMin= 3 EnMin= -157.222518897804     IErMin= 3 ErrMin= 7.51D-04
 ErrMax= 7.51D-04  0.00D+00 EMaxC= 1.00D-01 BMatC= 6.57D-05 BMatP= 1.29D-04
 IDIUse=3 WtCom= 9.92D-01 WtEn= 7.51D-03
 Coeff-Com:  0.151D-01 0.413D+00 0.571D+00
 Coeff-En:   0.000D+00 0.314D+00 0.686D+00
 Coeff:      0.150D-01 0.413D+00 0.572D+00
 Gap=     0.371 Goal=   None    Shift=    0.000
 RMSDP=8.22D-05 MaxDP=1.27D-03 DE=-7.40D-05 OVMax= 1.85D-03

 Cycle   4  Pass 0  IDiag  1:
 E= -157.222586045250     Delta-E=       -0.000067147446 Rises=F Damp=F
 DIIS: error= 9.39D-05 at cycle   4 NSaved=   4.
 NSaved= 4 IEnMin= 4 EnMin= -157.222586045250     IErMin= 4 ErrMin= 9.39D-05
 ErrMax= 9.39D-05  0.00D+00 EMaxC= 1.00D-01 BMatC= 8.12D-07 BMatP= 6.57D-05
 IDIUse=1 WtCom= 1.00D+00 WtEn= 0.00D+00
 Coeff-Com: -0.638D-02 0.814D-01 0.163D+00 0.762D+00
 Coeff:     -0.638D-02 0.814D-01 0.163D+00 0.762D+00
 Gap=     0.371 Goal=   None    Shift=    0.000
 RMSDP=1.06D-05 MaxDP=1.37D-04 DE=-6.71D-05 OVMax= 2.12D-04

 Cycle   5  Pass 0  IDiag  1:
 E= -157.222586759915     Delta-E=       -0.000000714665 Rises=F Damp=F
 DIIS: error= 1.68D-05 at cycle   5 NSaved=   5.
 NSaved= 5 IEnMin= 5 EnMin= -157.222586759915     IErMin= 5 ErrMin= 1.68D-05
 ErrMax= 1.68D-05  0.00D+00 EMaxC= 1.00D-01 BMatC= 3.68D-08 BMatP= 8.12D-07
 IDIUse=1 WtCom= 1.00D+00 WtEn= 0.00D+00
 Coeff-Com: -0.258D-02 0.204D-01 0.452D-01 0.275D+00 0.662D+00
 Coeff:     -0.258D-02 0.204D-01 0.452D-01 0.275D+00 0.662D+00
 Gap=     0.371 Goal=   None    Shift=    0.000
 RMSDP=2.46D-06 MaxDP=5.21D-05 DE=-7.15D-07 OVMax= 6.04D-05

 Initial convergence to 1.0D-05 achieved.  Increase integral accuracy.
 Cycle   6  Pass 1  IDiag  1:
 E= -157.222605559881     Delta-E=       -0.000018799966 Rises=F Damp=F
 DIIS: error= 1.39D-05 at cycle   1 NSaved=   1.
 NSaved= 1 IEnMin= 1 EnMin= -157.222605559881     IErMin= 1 ErrMin= 1.39D-05
 ErrMax= 1.39D-05  0.00D+00 EMaxC= 1.00D-01 BMatC= 2.39D-08 BMatP= 2.39D-08
 IDIUse=1 WtCom= 1.00D+00 WtEn= 0.00D+00
 Coeff-Com:  0.100D+01
 Coeff:      0.100D+01
 Gap=     0.371 Goal=   None    Shift=    0.000
 RMSDP=2.46D-06 MaxDP=5.21D-05 DE=-1.88D-05 OVMax= 5.69D-05

 Cycle   7  Pass 1  IDiag  1:
 E= -157.222605578280     Delta-E=       -0.000000018399 Rises=F Damp=F
 DIIS: error= 9.07D-06 at cycle   2 NSaved=   2.
 NSaved= 2 IEnMin= 2 EnMin= -157.222605578280     IErMin= 2 ErrMin= 9.07D-06
 ErrMax= 9.07D-06  0.00D+00 EMaxC= 1.00D-01 BMatC= 1.01D-08 BMatP= 2.39D-08
 IDIUse=1 WtCom= 1.00D+00 WtEn= 0.00D+00
 Coeff-Com:  0.355D+00 0.645D+00
 Coeff:      0.355D+00 0.645D+00
 Gap=     0.371 Goal=   None    Shift=    0.000
 RMSDP=1.31D-06 MaxDP=3.04D-05 DE=-1.84D-08 OVMax= 3.50D-05

 Cycle   8  Pass 1  IDiag  1:
 E= -157.222605586104     Delta-E=       -0.000000007823 Rises=F Damp=F
 DIIS: error= 4.52D-06 at cycle   3 NSaved=   3.
 NSaved= 3 IEnMin= 3 EnMin= -157.222605586104     IErMin= 3 ErrMin= 4.52D-06
 ErrMax= 4.52D-06  0.00D+00 EMaxC= 1.00D-01 BMatC= 2.27D-09 BMatP= 1.01D-08
 IDIUse=1 WtCom= 1.00D+00 WtEn= 0.00D+00
 Coeff-Com: -0.167D-01 0.317D+00 0.700D+00
 Coeff:     -0.167D-01 0.317D+00 0.700D+00
 Gap=     0.371 Goal=   None    Shift=    0.000
 RMSDP=4.16D-07 MaxDP=8.84D-06 DE=-7.82D-09 OVMax= 1.37D-05

 Cycle   9  Pass 1  IDiag  1:
 E= -157.222605588351     Delta-E=       -0.000000002248 Rises=F Damp=F
 DIIS: error= 5.59D-07 at cycle   4 NSaved=   4.
 NSaved= 4 IEnMin= 4 EnMin= -157.222605588351     IErMin= 4 ErrMin= 5.59D-07
 ErrMax= 5.59D-07  0.00D+00 EMaxC= 1.00D-01 BMatC= 3.93D-11 BMatP= 2.27D-09
 IDIUse=1 WtCom= 1.00D+00 WtEn= 0.00D+00
 Coeff-Com: -0.117D-01 0.142D+00 0.329D+00 0.540D+00
 Coeff:     -0.117D-01 0.142D+00 0.329D+00 0.540D+00
 Gap=     0.371 Goal=   None    Shift=    0.000
 RMSDP=5.97D-08 MaxDP=1.77D-06 DE=-2.25D-09 OVMax= 2.38D-06

 Cycle  10  Pass 1  IDiag  1:
 E= -157.222605588386     Delta-E=       -0.000000000035 Rises=F Damp=F
 DIIS: error= 1.28D-07 at cycle   5 NSaved=   5.
 NSaved= 5 IEnMin= 5 EnMin= -157.222605588386     IErMin= 5 ErrMin= 1.28D-07
 ErrMax= 1.28D-07  0.00D+00 EMaxC= 1.00D-01 BMatC= 2.11D-12 BMatP= 3.93D-11
 IDIUse=1 WtCom= 1.00D+00 WtEn= 0.00D+00
 Coeff-Com: -0.242D-02 0.203D-01 0.507D-01 0.213D+00 0.718D+00
 Coeff:     -0.242D-02 0.203D-01 0.507D-01 0.213D+00 0.718D+00
 Gap=     0.371 Goal=   None    Shift=    0.000
 RMSDP=1.49D-08 MaxDP=4.13D-07 DE=-3.46D-11 OVMax= 5.69D-07

 Cycle  11  Pass 1  IDiag  1:
 E= -157.222605588388     Delta-E=       -0.000000000003 Rises=F Damp=F
 DIIS: error= 2.24D-08 at cycle   6 NSaved=   6.
 NSaved= 6 IEnMin= 6 EnMin= -157.222605588388     IErMin= 6 ErrMin= 2.24D-08
 ErrMax= 2.24D-08  0.00D+00 EMaxC= 1.00D-01 BMatC= 5.78D-14 BMatP= 2.11D-12
 IDIUse=1 WtCom= 1.00D+00 WtEn= 0.00D+00
 Coeff-Com: -0.351D-03 0.112D-02 0.397D-02 0.456D-01 0.236D+00 0.713D+00
 Coeff:     -0.351D-03 0.112D-02 0.397D-02 0.456D-01 0.236D+00 0.713D+00
 Gap=     0.371 Goal=   None    Shift=    0.000
 RMSDP=3.43D-09 MaxDP=4.44D-08 DE=-2.61D-12 OVMax= 6.69D-08

 SCF Done:  E(RB3LYP) =  -157.222605588     A.U. after   11 cycles
            NFock= 11  Conv=0.34D-08     -V/T= 2.0106
 KE= 1.555805004868D+02 PE=-6.106807265134D+02 EE= 1.739718819745D+02
 Leave Link  502 at Sat Aug 21 01:34:58 2021, MaxMem= 24159191040 cpu:        30.6
 (Enter /public/home/users/caep010/software/Gaussian09/g09/l701.exe)
 Compute integral first derivatives.
 ... and contract with generalized density number  0.
 Leave Link  701 at Sat Aug 21 01:34:58 2021, MaxMem= 24159191040 cpu:        12.9
 (Enter /public/home/users/caep010/software/Gaussian09/g09/l702.exe)
 L702 exits ... SP integral derivatives will be done elsewhere.
 Leave Link  702 at Sat Aug 21 01:34:59 2021, MaxMem= 24159191040 cpu:         0.5
 (Enter /public/home/users/caep010/software/Gaussian09/g09/l703.exe)
 Compute integral first derivatives, UseDBF=F ICtDFT=           0.
 Integral derivatives from FoFJK, PRISM(SPDF).
 Calling FoFJK, ICntrl=      2127 FMM=F ISym2X=0 I1Cent= 0 IOpClX= 0 NMat=1 NMatS=1 NMatT=0.
 FoFJK:  IHMeth= 1 ICntrl=    2127 DoSepK=F KAlg= 0 I1Cent=   0 FoldK=F
 IRaf=         0 NMat=   1 IRICut=       1 DoRegI=T DoRafI=F ISym2E= 0.
 FoFCou: FMM=F IPFlag=           0 FMFlag=      100000 FMFlg1=         800
         NFxFlg=           0 DoJE=F BraDBF=F KetDBF=F FulRan=T
         wScrn=  0.000000 ICntrl=    2127 IOpCl=  0 I1Cent=           0 NGrid=           0
         NMat0=    1 NMatS0=      1 NMatT0=    0 NMatD0=    1 NMtDS0=    0 NMtDT0=    0
 Symmetry not used in FoFCou.
 Leave Link  703 at Sat Aug 21 01:34:59 2021, MaxMem= 24159191040 cpu:         8.9
 (Enter /public/home/users/caep010/software/Gaussian09/g09/l716.exe)
 Dipole        =-3.28550050D-02-1.42195990D-06 3.12974808D-02
 ***** Axes restored to original set *****
 -------------------------------------------------------------------
 Center     Atomic                   Forces (Hartrees/Bohr)
 Number     Number              X              Y              Z
 -------------------------------------------------------------------
      1        6          -0.001164316   -0.003919035   -0.005153690
      2        6          -0.003618953    0.005872837    0.006672989
      3        6           0.003106373   -0.013923943    0.004615664
      4        6           0.006314814    0.006712548   -0.011832925
      5        1           0.000885606    0.000810785    0.001191907
      6        1          -0.000350335    0.000516340    0.000225242
      7        1          -0.000405257    0.000171874    0.000497744
      8        1           0.001977121   -0.001034426   -0.000917686
      9        1          -0.002890732    0.003233655   -0.002201374
     10        1           0.000459872    0.005224963   -0.000280551
     11        1          -0.000573911   -0.001427668    0.005022030
     12        1          -0.003740281   -0.002237929    0.002160650
 -------------------------------------------------------------------
 Cartesian Forces:  Max     0.013923943 RMS     0.004400895
 Leave Link  716 at Sat Aug 21 01:34:59 2021, MaxMem= 24159191040 cpu:         0.6
 (Enter /public/home/users/caep010/software/Gaussian09/g09/l103.exe)

 GradGradGradGradGradGradGradGradGradGradGradGradGradGradGradGradGradGrad
 Berny optimization.
 Using GEDIIS/GDIIS optimizer.
 FormGI is forming the generalized inverse of G from B-inverse, IUseBI=4.
 Internal  Forces:  Max     0.004336117 RMS     0.001707182
 Search for a local minimum.
 Step number   2 out of a maximum of   64
 All quantities printed in internal units (Hartrees-Bohrs-Radians)
 RMS Force = .17072D-02 SwitMx=.10000D-02 MixMth= 1
 Mixed Optimization -- RFO/linear search
 Update second derivatives using D2CorX and points    1    2
 DE= -7.80D-03 DEPred=-7.40D-03 R= 1.05D+00
 TightC=F SS=  1.41D+00  RLast= 2.86D-01 DXNew= 5.0454D-01 8.5833D-01
 Trust test= 1.05D+00 RLast= 2.86D-01 DXMaxT set to 5.05D-01
 ITU=  1  0
 Use linear search instead of GDIIS.
     Eigenvalues ---    0.00386   0.01678   0.02044   0.02855   0.02891
     Eigenvalues ---    0.03454   0.03821   0.05480   0.05605   0.08900
     Eigenvalues ---    0.10243   0.10675   0.15388   0.15975   0.16000
     Eigenvalues ---    0.16000   0.16692   0.17260   0.25066   0.27174
     Eigenvalues ---    0.29269   0.30050   0.32411   0.32476   0.32497
     Eigenvalues ---    0.32504   0.32549   0.32603   0.32627   0.36684
 RFO step:  Lambda=-1.18103686D-03 EMin= 3.85676148D-03
 Quartic linear search produced a step of  0.15926.
 Iteration  1 RMS(Cart)=  0.02079798 RMS(Int)=  0.00037574
 Iteration  2 RMS(Cart)=  0.00036024 RMS(Int)=  0.00017421
 Iteration  3 RMS(Cart)=  0.00000008 RMS(Int)=  0.00017421
 ITry= 1 IFail=0 DXMaxC= 7.42D-02 DCOld= 1.00D+10 DXMaxT= 5.05D-01 DXLimC= 3.00D+00 Rises=F
 Variable       Old X    -DE/DX   Delta X   Delta X   Delta X     New X
                                 (Linear)    (Quad)   (Total)
    R1        2.87101  -0.00259  -0.00285  -0.00854  -0.01139   2.85962
    R2        2.06576   0.00137  -0.00559   0.00794   0.00235   2.06812
    R3        2.07295  -0.00051  -0.00385   0.00029  -0.00356   2.06939
    R4        2.07296  -0.00051  -0.00385   0.00028  -0.00357   2.06939
    R5        2.86741  -0.00237  -0.00094  -0.00828  -0.00907   2.85834
    R6        2.86743  -0.00237  -0.00095  -0.00829  -0.00909   2.85834
    R7        2.05191   0.00127  -0.00753   0.00861   0.00108   2.05298
    R8        2.88461  -0.00434   0.00145  -0.01779  -0.01664   2.86796
    R9        2.04811   0.00098  -0.00823   0.00799  -0.00024   2.04787
   R10        2.04930   0.00018  -0.00784   0.00493  -0.00292   2.04639
   R11        2.04930   0.00018  -0.00783   0.00493  -0.00291   2.04639
   R12        2.04811   0.00098  -0.00824   0.00800  -0.00024   2.04787
    A1        1.92013   0.00133  -0.00696   0.01405   0.00717   1.92730
    A2        1.94807  -0.00014   0.00692  -0.00533   0.00148   1.94955
    A3        1.94807  -0.00014   0.00694  -0.00534   0.00149   1.94956
    A4        1.88320  -0.00066  -0.00212  -0.00328  -0.00533   1.87787
    A5        1.88316  -0.00066  -0.00212  -0.00326  -0.00529   1.87787
    A6        1.87866   0.00021  -0.00289   0.00299  -0.00017   1.87849
    A7        2.06385   0.00212   0.00826   0.01364   0.02157   2.08542
    A8        2.06384   0.00212   0.00827   0.01365   0.02159   2.08543
    A9        2.03318  -0.00300  -0.01074  -0.01870  -0.02920   2.00398
   A10        2.02207   0.00058   0.00034   0.00283   0.00326   2.02533
   A11        2.02202   0.00058   0.00035   0.00289   0.00332   2.02534
   A12        2.02573   0.00196  -0.00064   0.02523   0.02440   2.05013
   A13        2.04748   0.00135   0.00783   0.00789   0.01558   2.06307
   A14        2.04570   0.00167   0.00901   0.00059   0.00950   2.05520
   A15        2.02136   0.00154   0.00546   0.02202   0.02726   2.04862
   A16        2.05608  -0.00406  -0.01264  -0.03441  -0.04696   2.00911
   A17        2.04749   0.00135   0.00783   0.00787   0.01556   2.06306
   A18        2.02574   0.00196  -0.00066   0.02524   0.02439   2.05013
   A19        2.02135   0.00153   0.00546   0.02203   0.02726   2.04862
   A20        2.04568   0.00167   0.00903   0.00059   0.00952   2.05521
   A21        2.05609  -0.00406  -0.01264  -0.03441  -0.04697   2.00912
    D1        0.60783   0.00032   0.00341   0.00280   0.00648   0.61431
    D2       -0.60764  -0.00032  -0.00339  -0.00285  -0.00652  -0.61416
    D3       -3.14143  -0.00000  -0.00001  -0.00009  -0.00009  -3.14153
    D4        2.69783   0.00029   0.00078   0.00457   0.00554   2.70337
    D5        1.48237  -0.00036  -0.00602  -0.00107  -0.00747   1.47490
    D6       -1.05143  -0.00004  -0.00263   0.00168  -0.00104  -1.05247
    D7       -1.48213   0.00036   0.00601   0.00100   0.00738  -1.47475
    D8       -2.69760  -0.00029  -0.00079  -0.00464  -0.00562  -2.70322
    D9        1.05179   0.00003   0.00260  -0.00189   0.00081   1.05260
   D10       -0.00884  -0.00013   0.00437  -0.01948  -0.01506  -0.02390
   D11        2.55378  -0.00277  -0.00938  -0.03320  -0.04280   2.51098
   D12       -2.54655   0.00142   0.01159  -0.00924   0.00252  -2.54402
   D13        0.01607  -0.00122  -0.00216  -0.02296  -0.02522  -0.00915
   D14       -2.55377   0.00277   0.00937   0.03320   0.04279  -2.51098
   D15        0.00890   0.00013  -0.00442   0.01947   0.01499   0.02389
   D16       -0.01617   0.00123   0.00217   0.02307   0.02534   0.00917
   D17        2.54649  -0.00142  -0.01162   0.00934  -0.00245   2.54404
   D18        2.55235  -0.00280  -0.00158  -0.03112  -0.03297   2.51938
   D19        0.00001  -0.00000  -0.00003   0.00001  -0.00002  -0.00001
   D20       -0.00001   0.00000   0.00001   0.00002   0.00002   0.00001
   D21       -2.55235   0.00280   0.00156   0.03114   0.03297  -2.51937
         Item               Value     Threshold  Converged?
 Maximum Force            0.004336     0.000450     NO 
 RMS     Force            0.001707     0.000300     NO 
 Maximum Displacement     0.074155     0.001800     NO 
 RMS     Displacement     0.020718     0.001200     NO 
 Predicted change in Energy=-7.663142D-04
 Lowest energy point so far.  Saving SCF results.
 GradGradGradGradGradGradGradGradGradGradGradGradGradGradGradGradGradGrad

 Leave Link  103 at Sat Aug 21 01:34:59 2021, MaxMem= 24159191040 cpu:         1.2
 (Enter /public/home/users/caep010/software/Gaussian09/g09/l202.exe)
                          Input orientation:                          
 ---------------------------------------------------------------------
 Center     Atomic      Atomic             Coordinates (Angstroms)
 Number     Number       Type             X           Y           Z
 ---------------------------------------------------------------------
      1          6           0        1.465324   -0.113431    0.143262
      2          6           0        0.082293   -0.350308   -0.423333
      3          6           0       -0.923571    0.779322   -0.428729
      4          6           0       -1.106600   -0.398655    0.510508
      5          1           0        1.416981    0.572696    0.994499
      6          1           0        1.924149   -1.043924    0.493760
      7          1           0        2.137284    0.328209   -0.600118
      8          1           0        0.047600   -1.023934   -1.274961
      9          1           0       -0.615502    1.724903    0.001794
     10          1           0       -1.602238    0.856307   -1.269062
     11          1           0       -1.905370   -1.094699    0.286521
     12          1           0       -0.920249   -0.236485    1.565661
 ---------------------------------------------------------------------
                    Distance matrix (angstroms):
                    1          2          3          4          5
     1  C    0.000000
     2  C    1.513247   0.000000
     3  C    2.613618   1.512566   0.000000
     4  C    2.613621   1.512567   1.517661   0.000000
     5  H    1.094400   2.154896   2.747081   2.747041   0.000000
     6  H    1.095074   2.171312   3.504956   3.098724   1.766754
     7  H    1.095075   2.171319   3.098662   3.504940   1.766752
     8  H    2.202343   1.086391   2.216081   2.216089   3.094331
     9  H    2.780165   2.230281   1.083688   2.238184   2.538510
    10  H    3.513543   2.238040   1.082902   2.233262   3.784155
    11  H    3.513544   2.238038   2.233264   1.082904   3.784106
    12  H    2.780166   2.230279   2.238184   1.083686   2.538434
                    6          7          8          9         10
     6  H    0.000000
     7  H    1.767695   0.000000
     8  H    2.578800   2.578853   0.000000
     9  H    3.789230   3.144977   3.102565   0.000000
    10  H    4.376508   3.835413   2.501461   1.828437   0.000000
    11  H    3.835459   4.376511   2.501465   3.113677   2.513594
    12  H    3.145080   3.789193   3.102571   2.526974   3.113673
                   11         12
    11  H    0.000000
    12  H    1.828441   0.000000
 Stoichiometry    C4H8
 Framework group  C1[X(C4H8)]
 Deg. of freedom    30
 Full point group                 C1      NOp   1
 RotChk:  IX=0 Diff= 9.47D-03
 Largest Abelian subgroup         C1      NOp   1
 Largest concise Abelian subgroup C1      NOp   1
                         Standard orientation:                         
 ---------------------------------------------------------------------
 Center     Atomic      Atomic             Coordinates (Angstroms)
 Number     Number       Type             X           Y           Z
 ---------------------------------------------------------------------
      1          6           0       -1.547696   -0.000001   -0.137507
      2          6           0       -0.180018   -0.000001    0.510081
      3          6           0        0.953330    0.758831   -0.143793
      4          6           0        0.953334   -0.758830   -0.143794
      5          1           0       -1.454001   -0.000078   -1.227889
      6          1           0       -2.129389   -0.883811    0.144804
      7          1           0       -2.129339    0.883883    0.144679
      8          1           0       -0.189837    0.000008    1.596428
      9          1           0        0.742674    1.263487   -1.079381
     10          1           0        1.671755    1.256798    0.495403
     11          1           0        1.671756   -1.256796    0.495410
     12          1           0        0.742676   -1.263487   -1.079379
 ---------------------------------------------------------------------
 Rotational constants (GHZ):     15.5045914      6.3338128      5.5666382
 Leave Link  202 at Sat Aug 21 01:34:59 2021, MaxMem= 24159191040 cpu:         0.2
 (Enter /public/home/users/caep010/software/Gaussian09/g09/l301.exe)
 Standard basis: 6-31G(d,p) (6D, 7F)
 Ernie: Thresh=  0.10000D-02 Tol=  0.10000D-05 Strict=F.
 There are   100 symmetry adapted cartesian basis functions of A   symmetry.
 There are   100 symmetry adapted basis functions of A   symmetry.
   100 basis functions,   168 primitive gaussians,   100 cartesian basis functions
    16 alpha electrons       16 beta electrons
       nuclear repulsion energy       124.0023852910 Hartrees.
 IExCor=  402 DFT=T Ex+Corr=B3LYP ExCW=0 ScaHFX=  0.200000
 ScaDFX=  0.800000  0.720000  1.000000  0.810000 ScalE2=  1.000000  1.000000
 IRadAn=      0 IRanWt=     -1 IRanGd=            0 ICorTp=0 IEmpDi=  4
 NAtoms=   12 NActive=   12 NUniq=   12 SFac= 1.00D+00 NAtFMM=   60 NAOKFM=F Big=F
 Integral buffers will be    131072 words long.
 Raffenetti 2 integral format.
 Two-electron integral symmetry is turned on.
 Leave Link  301 at Sat Aug 21 01:34:59 2021, MaxMem= 24159191040 cpu:         1.6
 (Enter /public/home/users/caep010/software/Gaussian09/g09/l302.exe)
 NPDir=0 NMtPBC=     1 NCelOv=     1 NCel=       1 NClECP=     1 NCelD=      1
         NCelK=      1 NCelE2=     1 NClLst=     1 CellRange=     0.0.
 One-electron integrals computed using PRISM.
 NBasis=   100 RedAO= T EigKep=  4.46D-03  NBF=   100
 NBsUse=   100 1.00D-06 EigRej= -1.00D+00 NBFU=   100
 Precomputing XC quadrature grid using
 IXCGrd= 4 IRadAn=           0 IRanWt=          -1 IRanGd=           0 AccXCQ= 0.00D+00.
 Generated NRdTot=       0 NPtTot=           0 NUsed=           0 NTot=          32
 NSgBfM=   100   100   100   100   100 MxSgAt=    12 MxSgA2=    12.
 Leave Link  302 at Sat Aug 21 01:35:00 2021, MaxMem= 24159191040 cpu:        11.2
 (Enter /public/home/users/caep010/software/Gaussian09/g09/l303.exe)
 DipDrv:  MaxL=1.
 Leave Link  303 at Sat Aug 21 01:35:00 2021, MaxMem= 24159191040 cpu:         0.9
 (Enter /public/home/users/caep010/software/Gaussian09/g09/l401.exe)
 Initial guess from the checkpoint file:  "/public/home/users/caep010/.cache/gau_scr/Gau-110950.chk"
 B after Tr=     0.000000    0.000000    0.000000
         Rot=    0.999995    0.000003    0.003041   -0.000000 Ang=   0.35 deg.
 Guess basis will be translated and rotated to current coordinates.
 JPrj=2 DoOrth=T DoCkMO=T.
 Generating alternative initial guess.
 ExpMin= 1.61D-01 ExpMax= 3.05D+03 ExpMxC= 4.57D+02 IAcc=1 IRadAn=         1 AccDes= 0.00D+00
 Harris functional with IExCor=  402 and IRadAn=       1 diagonalized for initial guess.
 HarFok:  IExCor=  402 AccDes= 0.00D+00 IRadAn=         1 IDoV= 1 UseB2=F ITyADJ=14
 ICtDFT=  3500011 ScaDFX=  1.000000  1.000000  1.000000  1.000000
 FoFCou: FMM=F IPFlag=           0 FMFlag=      100000 FMFlg1=           0
         NFxFlg=           0 DoJE=T BraDBF=F KetDBF=T FulRan=T
         wScrn=  0.000000 ICntrl=     500 IOpCl=  0 I1Cent=   200000004 NGrid=           0
         NMat0=    1 NMatS0=      1 NMatT0=    0 NMatD0=    1 NMtDS0=    0 NMtDT0=    0
 Petite list used in FoFCou.
 Harris En= -157.276765127201    
 Leave Link  401 at Sat Aug 21 01:35:00 2021, MaxMem= 24159191040 cpu:        11.5
 (Enter /public/home/users/caep010/software/Gaussian09/g09/l502.exe)
 Closed shell SCF:
 Using DIIS extrapolation, IDIIS=  1040.
 Integral symmetry usage will be decided dynamically.
 Keep R1 ints in memory in canonical form, NReq=13729495.
 IVT=       52514 IEndB=       52514 NGot= 24159191040 MDV= 24146384752
 LenX= 24146384752 LenY= 24146374311
 Requested convergence on RMS density matrix=1.00D-08 within 128 cycles.
 Requested convergence on MAX density matrix=1.00D-06.
 Requested convergence on             energy=1.00D-06.
 No special actions if energy rises.
 FoFCou: FMM=F IPFlag=           0 FMFlag=           0 FMFlg1=           0
         NFxFlg=           0 DoJE=F BraDBF=F KetDBF=F FulRan=T
         wScrn=  0.000000 ICntrl=     600 IOpCl=  0 I1Cent=           0 NGrid=           0
         NMat0=    1 NMatS0=   5050 NMatT0=    0 NMatD0=    1 NMtDS0=    0 NMtDT0=    0
 Symmetry not used in FoFCou.
 Integral accuracy reduced to 1.0D-05 until final iterations.

 Cycle   1  Pass 0  IDiag  1:
 E= -157.223107174268    
 DIIS: error= 1.46D-03 at cycle   1 NSaved=   1.
 NSaved= 1 IEnMin= 1 EnMin= -157.223107174268     IErMin= 1 ErrMin= 1.46D-03
 ErrMax= 1.46D-03  0.00D+00 EMaxC= 1.00D-01 BMatC= 2.16D-04 BMatP= 2.16D-04
 IDIUse=3 WtCom= 9.85D-01 WtEn= 1.46D-02
 Coeff-Com:  0.100D+01
 Coeff-En:   0.100D+01
 Coeff:      0.100D+01
 Gap=     2.137 Goal=   None    Shift=    0.000
 GapD=    2.137 DampG=2.000 DampE=1.000 DampFc=2.0000 IDamp=-1.
 RMSDP=2.09D-04 MaxDP=3.34D-03              OVMax= 6.51D-03

 Cycle   2  Pass 0  IDiag  1:
 E= -157.223488513862     Delta-E=       -0.000381339594 Rises=F Damp=F
 DIIS: error= 2.43D-04 at cycle   2 NSaved=   2.
 NSaved= 2 IEnMin= 2 EnMin= -157.223488513862     IErMin= 2 ErrMin= 2.43D-04
 ErrMax= 2.43D-04  0.00D+00 EMaxC= 1.00D-01 BMatC= 4.99D-06 BMatP= 2.16D-04
 IDIUse=3 WtCom= 9.98D-01 WtEn= 2.43D-03
 Coeff-Com: -0.358D-01 0.104D+01
 Coeff-En:   0.000D+00 0.100D+01
 Coeff:     -0.357D-01 0.104D+01
 Gap=     0.374 Goal=   None    Shift=    0.000
 RMSDP=4.38D-05 MaxDP=6.33D-04 DE=-3.81D-04 OVMax= 1.36D-03

 Cycle   3  Pass 0  IDiag  1:
 E= -157.223490696760     Delta-E=       -0.000002182898 Rises=F Damp=F
 DIIS: error= 2.04D-04 at cycle   3 NSaved=   3.
 NSaved= 3 IEnMin= 3 EnMin= -157.223490696760     IErMin= 3 ErrMin= 2.04D-04
 ErrMax= 2.04D-04  0.00D+00 EMaxC= 1.00D-01 BMatC= 4.62D-06 BMatP= 4.99D-06
 IDIUse=3 WtCom= 9.98D-01 WtEn= 2.04D-03
 Coeff-Com: -0.382D-01 0.525D+00 0.513D+00
 Coeff-En:   0.000D+00 0.365D+00 0.635D+00
 Coeff:     -0.381D-01 0.525D+00 0.513D+00
 Gap=     0.374 Goal=   None    Shift=    0.000
 RMSDP=2.37D-05 MaxDP=3.48D-04 DE=-2.18D-06 OVMax= 4.91D-04

 Cycle   4  Pass 0  IDiag  1:
 E= -157.223495486742     Delta-E=       -0.000004789982 Rises=F Damp=F
 DIIS: error= 2.54D-05 at cycle   4 NSaved=   4.
 NSaved= 4 IEnMin= 4 EnMin= -157.223495486742     IErMin= 4 ErrMin= 2.54D-05
 ErrMax= 2.54D-05  0.00D+00 EMaxC= 1.00D-01 BMatC= 6.73D-08 BMatP= 4.62D-06
 IDIUse=1 WtCom= 1.00D+00 WtEn= 0.00D+00
 Coeff-Com: -0.892D-02 0.935D-01 0.155D+00 0.760D+00
 Coeff:     -0.892D-02 0.935D-01 0.155D+00 0.760D+00
 Gap=     0.374 Goal=   None    Shift=    0.000
 RMSDP=3.47D-06 MaxDP=5.25D-05 DE=-4.79D-06 OVMax= 6.33D-05

 Initial convergence to 1.0D-05 achieved.  Increase integral accuracy.
 Cycle   5  Pass 1  IDiag  1:
 E= -157.223559701752     Delta-E=       -0.000064215010 Rises=F Damp=F
 DIIS: error= 1.37D-05 at cycle   1 NSaved=   1.
 NSaved= 1 IEnMin= 1 EnMin= -157.223559701752     IErMin= 1 ErrMin= 1.37D-05
 ErrMax= 1.37D-05  0.00D+00 EMaxC= 1.00D-01 BMatC= 2.47D-08 BMatP= 2.47D-08
 IDIUse=1 WtCom= 1.00D+00 WtEn= 0.00D+00
 Coeff-Com:  0.100D+01
 Coeff:      0.100D+01
 Gap=     0.374 Goal=   None    Shift=    0.000
 RMSDP=3.47D-06 MaxDP=5.25D-05 DE=-6.42D-05 OVMax= 5.28D-05

 Cycle   6  Pass 1  IDiag  1:
 E= -157.223559725342     Delta-E=       -0.000000023590 Rises=F Damp=F
 DIIS: error= 5.44D-06 at cycle   2 NSaved=   2.
 NSaved= 2 IEnMin= 2 EnMin= -157.223559725342     IErMin= 2 ErrMin= 5.44D-06
 ErrMax= 5.44D-06  0.00D+00 EMaxC= 1.00D-01 BMatC= 5.14D-09 BMatP= 2.47D-08
 IDIUse=1 WtCom= 1.00D+00 WtEn= 0.00D+00
 Coeff-Com:  0.236D+00 0.764D+00
 Coeff:      0.236D+00 0.764D+00
 Gap=     0.374 Goal=   None    Shift=    0.000
 RMSDP=1.04D-06 MaxDP=2.26D-05 DE=-2.36D-08 OVMax= 2.89D-05

 Cycle   7  Pass 1  IDiag  1:
 E= -157.223559728016     Delta-E=       -0.000000002673 Rises=F Damp=F
 DIIS: error= 3.77D-06 at cycle   3 NSaved=   3.
 NSaved= 3 IEnMin= 3 EnMin= -157.223559728016     IErMin= 3 ErrMin= 3.77D-06
 ErrMax= 3.77D-06  0.00D+00 EMaxC= 1.00D-01 BMatC= 2.34D-09 BMatP= 5.14D-09
 IDIUse=1 WtCom= 1.00D+00 WtEn= 0.00D+00
 Coeff-Com: -0.895D-02 0.400D+00 0.609D+00
 Coeff:     -0.895D-02 0.400D+00 0.609D+00
 Gap=     0.374 Goal=   None    Shift=    0.000
 RMSDP=4.46D-07 MaxDP=1.19D-05 DE=-2.67D-09 OVMax= 1.38D-05

 Cycle   8  Pass 1  IDiag  1:
 E= -157.223559730175     Delta-E=       -0.000000002159 Rises=F Damp=F
 DIIS: error= 5.60D-07 at cycle   4 NSaved=   4.
 NSaved= 4 IEnMin= 4 EnMin= -157.223559730175     IErMin= 4 ErrMin= 5.60D-07
 ErrMax= 5.60D-07  0.00D+00 EMaxC= 1.00D-01 BMatC= 4.34D-11 BMatP= 2.34D-09
 IDIUse=1 WtCom= 1.00D+00 WtEn= 0.00D+00
 Coeff-Com: -0.101D-01 0.148D+00 0.258D+00 0.605D+00
 Coeff:     -0.101D-01 0.148D+00 0.258D+00 0.605D+00
 Gap=     0.374 Goal=   None    Shift=    0.000
 RMSDP=8.86D-08 MaxDP=1.55D-06 DE=-2.16D-09 OVMax= 2.15D-06

 Cycle   9  Pass 1  IDiag  1:
 E= -157.223559730219     Delta-E=       -0.000000000045 Rises=F Damp=F
 DIIS: error= 1.53D-07 at cycle   5 NSaved=   5.
[...]
    A6        1.88143  -0.00005   0.00000  -0.00019  -0.00019   1.88124
    A7        2.10198   0.00005   0.00000   0.00075   0.00075   2.10273
    A8        2.10198   0.00005   0.00000   0.00075   0.00075   2.10273
    A9        1.99583   0.00000   0.00000   0.00018   0.00018   1.99601
   A10        2.01595  -0.00006   0.00000  -0.00095  -0.00095   2.01501
   A11        2.01595  -0.00006   0.00000  -0.00095  -0.00095   2.01501
   A12        2.05582  -0.00008   0.00000  -0.00065  -0.00065   2.05517
   A13        2.07142   0.00005   0.00000   0.00023   0.00023   2.07165
   A14        2.05706  -0.00001   0.00000  -0.00089  -0.00089   2.05617
   A15        2.06567  -0.00002   0.00000   0.00024   0.00024   2.06592
   A16        1.98872   0.00004   0.00000   0.00066   0.00066   1.98938
   A17        2.07142   0.00005   0.00000   0.00023   0.00023   2.07165
   A18        2.05582  -0.00008   0.00000  -0.00065  -0.00065   2.05517
   A19        2.06567  -0.00002   0.00000   0.00025   0.00025   2.06592
   A20        2.05706  -0.00001   0.00000  -0.00089  -0.00089   2.05617
   A21        1.98871   0.00004   0.00000   0.00066   0.00066   1.98938
    D1        0.61960   0.00002   0.00000   0.00038   0.00038   0.61998
    D2       -0.61960  -0.00002   0.00000  -0.00038  -0.00038  -0.61998
    D3        3.14159   0.00000   0.00000   0.00000   0.00000   3.14159
    D4        2.71045   0.00001   0.00000   0.00025   0.00025   2.71070
    D5        1.47124  -0.00003   0.00000  -0.00051  -0.00051   1.47074
    D6       -1.05075  -0.00001   0.00000  -0.00013  -0.00013  -1.05088
    D7       -1.47125   0.00003   0.00000   0.00051   0.00051  -1.47074
    D8       -2.71045  -0.00001   0.00000  -0.00025  -0.00025  -2.71070
    D9        1.05074   0.00001   0.00000   0.00013   0.00013   1.05088
   D10       -0.03635  -0.00002   0.00000  -0.00147  -0.00147  -0.03783
   D11        2.48079   0.00000   0.00000  -0.00084  -0.00084   2.47994
   D12       -2.55163  -0.00002   0.00000  -0.00147  -0.00147  -2.55310
   D13       -0.03449   0.00000   0.00000  -0.00084  -0.00084  -0.03533
   D14       -2.48079  -0.00000   0.00000   0.00084   0.00084  -2.47994
   D15        0.03635   0.00002   0.00000   0.00148   0.00148   0.03783
   D16        0.03448  -0.00000   0.00000   0.00084   0.00084   0.03533
   D17        2.55162   0.00002   0.00000   0.00148   0.00148   2.55310
   D18        2.50972   0.00002   0.00000   0.00027   0.00027   2.50999
   D19       -0.00000   0.00000   0.00000   0.00000   0.00000   0.00000
   D20       -0.00000   0.00000   0.00000   0.00000   0.00000   0.00000
   D21       -2.50972  -0.00002   0.00000  -0.00027  -0.00026  -2.50999
         Item               Value     Threshold  Converged?
 Maximum Force            0.000084     0.000450     YES
 RMS     Force            0.000042     0.000300     YES
 Maximum Displacement     0.001454     0.001800     YES
 RMS     Displacement     0.000481     0.001200     YES
 Predicted change in Energy=-3.963336D-07
 Optimization completed.
    -- Stationary point found.
                           ----------------------------
                           !   Optimized Parameters   !
                           ! (Angstroms and Degrees)  !
 --------------------------                            --------------------------
 ! Name  Definition              Value          Derivative Info.                !
 --------------------------------------------------------------------------------
 ! R1    R(1,2)                  1.5137         -DE/DX =    0.0                 !
 ! R2    R(1,5)                  1.0958         -DE/DX =    0.0                 !
 ! R3    R(1,6)                  1.0962         -DE/DX =    0.0                 !
 ! R4    R(1,7)                  1.0962         -DE/DX =    0.0                 !
 ! R5    R(2,3)                  1.5091         -DE/DX =    0.0001              !
 ! R6    R(2,4)                  1.5091         -DE/DX =    0.0001              !
 ! R7    R(2,8)                  1.0888         -DE/DX =   -0.0001              !
 ! R8    R(3,4)                  1.5111         -DE/DX =    0.0001              !
 ! R9    R(3,9)                  1.0869         -DE/DX =   -0.0001              !
 ! R10   R(3,10)                 1.0861         -DE/DX =   -0.0001              !
 ! R11   R(4,11)                 1.0861         -DE/DX =   -0.0001              !
 ! R12   R(4,12)                 1.0869         -DE/DX =   -0.0001              !
 ! A1    A(2,1,5)              110.933          -DE/DX =    0.0                 !
 ! A2    A(2,1,6)              111.3974         -DE/DX =    0.0001              !
 ! A3    A(2,1,7)              111.3974         -DE/DX =    0.0001              !
 ! A4    A(5,1,6)              107.5651         -DE/DX =    0.0                 !
 ! A5    A(5,1,7)              107.5651         -DE/DX =    0.0                 !
 ! A6    A(6,1,7)              107.7979         -DE/DX =    0.0                 !
 ! A7    A(1,2,3)              120.4346         -DE/DX =    0.0001              !
 ! A8    A(1,2,4)              120.4347         -DE/DX =    0.0001              !
 ! A9    A(1,2,8)              114.3525         -DE/DX =    0.0                 !
 ! A10   A(3,2,8)              115.5057         -DE/DX =   -0.0001              !
 ! A11   A(4,2,8)              115.5056         -DE/DX =   -0.0001              !
 ! A12   A(2,3,9)              117.79           -DE/DX =   -0.0001              !
 ! A13   A(2,3,10)             118.6835         -DE/DX =    0.0001              !
 ! A14   A(4,3,9)              117.8608         -DE/DX =    0.0                 !
 ! A15   A(4,3,10)             118.3544         -DE/DX =    0.0                 !
 ! A16   A(9,3,10)             113.945          -DE/DX =    0.0                 !
 ! A17   A(2,4,11)             118.6836         -DE/DX =    0.0001              !
 ! A18   A(2,4,12)             117.79           -DE/DX =   -0.0001              !
 ! A19   A(3,4,11)             118.3543         -DE/DX =    0.0                 !
 ! A20   A(3,4,12)             117.8608         -DE/DX =    0.0                 !
 ! A21   A(11,4,12)            113.945          -DE/DX =    0.0                 !
 ! D1    D(5,1,2,3)             35.5004         -DE/DX =    0.0                 !
 ! D2    D(5,1,2,4)            -35.5006         -DE/DX =    0.0                 !
 ! D3    D(5,1,2,8)            179.9999         -DE/DX =    0.0                 !
 ! D4    D(6,1,2,3)            155.2971         -DE/DX =    0.0                 !
 ! D5    D(6,1,2,4)             84.2961         -DE/DX =    0.0                 !
 ! D6    D(6,1,2,8)            -60.2033         -DE/DX =    0.0                 !
 ! D7    D(7,1,2,3)            -84.2963         -DE/DX =    0.0                 !
 ! D8    D(7,1,2,4)           -155.2973         -DE/DX =    0.0                 !
 ! D9    D(7,1,2,8)             60.2032         -DE/DX =    0.0                 !
 ! D10   D(1,2,3,9)             -2.0829         -DE/DX =    0.0                 !
 ! D11   D(1,2,3,10)           142.1386         -DE/DX =    0.0                 !
 ! D12   D(8,2,3,9)           -146.1974         -DE/DX =    0.0                 !
 ! D13   D(8,2,3,10)            -1.9759         -DE/DX =    0.0                 !
 ! D14   D(1,2,4,11)          -142.1387         -DE/DX =    0.0                 !
 ! D15   D(1,2,4,12)             2.0828         -DE/DX =    0.0                 !
 ! D16   D(8,2,4,11)             1.9757         -DE/DX =    0.0                 !
 ! D17   D(8,2,4,12)           146.1972         -DE/DX =    0.0                 !
 ! D18   D(9,3,4,11)           143.7965         -DE/DX =    0.0                 !
 ! D19   D(9,3,4,12)             0.0            -DE/DX =    0.0                 !
 ! D20   D(10,3,4,11)           -0.0001         -DE/DX =    0.0                 !
 ! D21   D(10,3,4,12)         -143.7966         -DE/DX =    0.0                 !
 --------------------------------------------------------------------------------
 GradGradGradGradGradGradGradGradGradGradGradGradGradGradGradGradGradGrad

 Leave Link  103 at Sat Aug 21 01:35:20 2021, MaxMem= 24159191040 cpu:         2.3
 (Enter /public/home/users/caep010/software/Gaussian09/g09/l9999.exe)
 1\1\GINC-B0923\Freq\RB3LYP\6-31G(d,p)\C4H8\ROOT\21-Aug-2021\0\\#P Geom
 =AllCheck Guess=TCheck SCRF=Check GenChk RB3LYP/6-31G(d,p) Freq\\Frag_
 198\\0,1\C,1.4724509412,-0.1141208861,0.143779206\C,0.084022601,-0.343
 1441603,-0.4140262923\C,-0.9281691335,0.7760161676,-0.4285025534\C,-1.
 1104061302,-0.3969231412,0.5066851696\H,1.4429767259,0.5715900052,0.99
 80698313\H,1.9250192586,-1.0515084259,0.4874464972\H,2.1386403065,0.32
 34230883,-0.608795006\H,0.0488094688,-1.0181996444,-1.2675599314\H,-0.
 6356408387,1.7294522655,0.0035814388\H,-1.5952870689,0.8645303897,-1.2
 809621764\H,-1.9019318525,-1.109132724,0.2926455302\H,-0.9403842783,-0
 .2319829345,1.5674382865\\Version=ES64L-G09RevE.01\State=1-A\HF=-157.2
 237197\RMSD=1.512e-09\RMSF=9.652e-05\ZeroPoint=0.1097162\Thermal=0.114
 3428\Dipole=0.0314934,-0.0204099,-0.0194617\DipoleDeriv=0.1302427,-0.0
 168329,-0.0234107,0.0171468,0.1135731,-0.0323603,0.0192075,-0.0389817,
 0.0968892,0.0346174,0.0562991,0.0459293,0.0689407,0.1190541,-0.0395272
 ,0.0617847,-0.0419908,0.1206538,0.018421,0.0809321,-0.0050104,0.067885
 9,-0.0739932,0.0791492,-0.0308347,0.0744525,0.0633606,-0.0203536,-0.03
 11505,0.0971675,-0.0522064,0.0379302,0.0723844,0.0802208,0.0837263,-0.
 009789,0.0240569,0.0264403,0.027391,-0.0141044,-0.0272364,-0.1042258,-
 0.0234613,-0.096325,-0.0717128,-0.0557874,0.0718754,-0.0340075,0.09646
 4,-0.1020356,0.0645633,-0.066182,0.0652499,0.0353989,-0.1041217,-0.043
 0987,0.0731767,-0.0798655,0.0253505,0.0628547,0.0900767,0.0645412,-0.0
 436528,-0.0458741,0.0031367,-0.0170188,0.0186102,-0.0210751,-0.1001301
 ,0.0023883,-0.1031452,-0.0672516,0.0494438,-0.0492546,-0.0420922,-0.00
 88502,-0.1023816,-0.016169,-0.0383245,-0.0480131,0.0192756,-0.0176296,
 0.0391298,-0.0985137,0.0184453,0.0050598,0.0141375,-0.0924272,0.044921
 7,-0.0421002,-0.0571666,-0.103002,0.0124265,-0.0969085,-0.0143395,0.01
 42738,-0.011961,-0.013667,0.0168359,0.0441513,-0.0344747,-0.0360377,-0
 .0355578,0.0400937,-0.0149503,0.0095126,0.0092312,-0.1179074\Polar=44.
 5060663,-0.4847454,39.4361874,0.2511384,-0.9236341,38.9877841\PG=C01 [
 X(C4H8)]\NImag=0\\0.50077056,-0.01346801,0.56516566,-0.02905031,-0.000
 11599,0.55735902,-0.19112209,-0.02135955,-0.05021293,0.57101516,-0.019
 46700,-0.08000427,-0.01518588,-0.04392155,0.41733012,-0.04783922,-0.01
 555470,-0.09975240,0.00542159,0.18814156,0.49752852,-0.01497848,0.0265
 1157,-0.00914233,-0.12241245,0.06694766,-0.00933855,0.38631399,0.00107
 794,0.00515720,-0.00066630,0.10277258,-0.14335325,-0.03278856,-0.00132
 838,0.62889269,-0.00142081,0.01356328,-0.00646000,-0.03230172,-0.00843
 612,-0.04415877,0.21158058,0.02100040,0.49102320,-0.02098894,-0.012026
 39,0.02124010,-0.15713441,-0.00095430,0.06345927,-0.03281274,-0.053815
 84,0.00560869,0.45778299,-0.00078006,-0.00585153,0.00589662,-0.0350340
 8,-0.02895025,-0.00390392,-0.01617883,-0.15189340,0.06587489,0.2115620
 4,0.40866574,-0.00427555,-0.00556833,0.01055927,0.08861131,-0.02859647
 ,-0.12383971,-0.02039134,0.09167219,-0.12277746,0.01370826,0.01550559,
 0.63978103,-0.04853276,0.00773724,0.00955967,-0.00087217,-0.02028071,-
 0.02535563,0.00180487,-0.00087209,-0.00060260,0.00183690,-0.00080624,-
 0.00095649,0.05315562,0.00642540,-0.15056734,-0.12765234,-0.00001678,-
 0.00425426,-0.00372440,0.00050156,0.00087891,0.00076058,0.00050810,0.0
 0001792,-0.00049289,-0.00664908,0.16026767,0.00791433,-0.12739670,-0.2
 0603258,0.00005987,-0.00767317,-0.01089960,0.00089213,-0.00057818,0.00
 002162,0.00092012,0.00032206,0.00085057,-0.00704509,0.14137722,0.22245
 930,-0.08875686,0.08932141,-0.03117310,-0.01479612,0.02833802,-0.00831
 465,-0.00362279,-0.00187859,-0.00489891,0.00244716,-0.00008156,0.00079
 479,-0.00117638,0.00072276,0.00004692,0.09791890,0.08936300,-0.2429687
 7,0.06913826,-0.00265903,0.00693863,-0.00202552,-0.00179474,0.00103120
 ,-0.00027392,0.00126796,0.00039850,-0.00043169,0.00705558,-0.01677616,
 0.00698023,-0.09847167,0.26130376,-0.03137583,0.06946615,-0.07360129,-
 0.00580486,0.01091414,-0.00398339,-0.00077915,-0.00155742,-0.00080369,
 0.00000567,-0.00049641,0.00069551,0.01088160,-0.02253464,0.00927209,0.
 03712081,-0.07646423,0.07492953,-0.13924003,-0.06114412,0.10823330,-0.
 02075560,-0.01091037,0.02261079,0.00226261,0.00056491,0.00032421,-0.00
 350089,-0.00355711,-0.00378250,-0.00088572,0.00017685,0.00036351,0.008
 65027,0.00455168,-0.00984021,0.15396264,-0.06139756,-0.09042982,0.0726
 3562,-0.00317654,-0.00212903,0.00283868,-0.00049938,0.00082870,-0.0004
 8605,0.00057268,0.00041542,-0.00121111,0.01350924,0.00920720,-0.014500
 20,-0.01757627,-0.01087082,0.02026058,0.06879310,0.09276359,0.10817034
 ,0.07234903,-0.17565686,-0.00907630,-0.00556775,0.01104373,0.00147109,
 -0.00047692,0.00044983,-0.00261736,-0.00074870,-0.00030981,0.01419338,
 0.01118256,-0.01700195,0.00508371,0.00276131,-0.00708653,-0.11764033,-
 0.07982286,0.18742577,0.00050649,-0.01893028,-0.02365057,-0.05005502,-
 0.00788231,-0.01226623,-0.00274619,0.00790034,0.01045507,-0.00183291,0
 .01254104,0.01482246,-0.00562612,-0.00095971,-0.00244162,0.00101601,0.
 00063806,0.00040064,0.00102035,0.00003629,0.00081842,0.05855414,0.0001
 5572,-0.00178282,-0.00224702,-0.00604956,-0.14916793,-0.14080704,-0.00
 204455,-0.01636897,-0.02055124,0.00285134,0.00717623,0.01260056,-0.000
 67256,0.00092389,0.00011642,-0.00056044,0.00040969,0.00006183,-0.00000
 965,-0.00009752,0.00006708,0.00493994,0.15760896,0.00028761,-0.0059662
 4,-0.00739404,-0.00996755,-0.14116416,-0.21683577,0.00246969,0.0085617
 0,0.00834201,-0.00181837,-0.01268628,-0.01611658,-0.00208147,0.0000604
 6,0.00039680,0.00009811,0.00030150,0.00000858,-0.00043985,0.00006991,0
 .00051147,0.01009876,0.15032062,0.22902909,0.00174305,-0.00155424,0.00
 181453,0.00863530,0.02278745,0.01248008,-0.06432325,-0.07022749,-0.041
 98938,-0.00713550,-0.00966315,-0.00777546,-0.00003402,-0.00021421,-0.0
 0057188,0.00049541,-0.00030471,0.00000529,-0.00038095,-0.00006702,0.00
 022565,-0.00164907,0.00419457,-0.00181999,0.06480364,-0.00107081,0.001
 37291,-0.00187406,-0.00425511,-0.01269823,-0.00308359,-0.06856438,-0.2
 6305788,-0.10182913,-0.00135431,-0.01288770,-0.00583523,0.00062975,0.0
 0023231,0.00071765,-0.00025759,0.00027197,0.00021108,0.00067605,0.0000
 9833,0.00024873,-0.00008854,-0.00144729,0.00170085,0.07203063,0.282719
 37,-0.00133022,0.00176574,0.00090458,-0.00302147,-0.00560153,-0.007298
 30,-0.04200537,-0.10425761,-0.09370371,0.00743827,0.02110904,0.0104356
 4,0.00028277,0.00029178,0.00015249,-0.00021606,0.00012111,-0.00008460,
 0.00000036,-0.00012482,-0.00002666,0.00123069,-0.00180400,0.00102074,0
 .04173079,0.10728299,0.09600780,-0.00041112,0.00510382,-0.00142086,-0.
 01315321,-0.00333037,-0.01906239,-0.14989837,0.01108199,-0.14717121,0.
 00943412,0.00277182,0.01464895,0.00026583,0.00002444,0.00017076,-0.001
 78320,-0.00008273,-0.00034140,0.00000707,-0.00014688,0.00011497,0.0014
 8795,-0.00191798,0.00130415,-0.00395933,0.00140786,-0.00383694,0.15703
 291,-0.00091952,-0.00202324,0.00063079,0.00782987,-0.00390159,0.012905
 60,0.00893624,-0.05164139,0.01040017,0.01168152,-0.00363414,0.01258677
 ,0.00025722,0.00006178,0.00039376,0.00058585,0.00038305,0.00033335,0.0
 0001342,0.00017794,-0.00015148,0.00095057,0.00164374,-0.00064630,-0.01
 642460,0.00533240,-0.02074571,-0.01340402,0.05377697,0.00078348,-0.002
 20037,0.00071514,0.00848829,0.00266942,0.00872620,-0.14687897,0.012140
 69,-0.22300314,-0.01226194,-0.00133175,-0.01520331,0.00008008,-0.00004
 469,0.00008746,0.00090704,-0.00007027,0.00034131,-0.00007619,0.0000011
 2,-0.00007666,-0.00051503,0.00133584,0.00020402,-0.00507865,0.00203202
 ,-0.00727454,0.15490074,-0.01653187,0.23422401,-0.00125158,-0.00234148
 ,0.00446706,-0.01512694,-0.01599107,-0.00854979,0.00583153,0.00760710,
 0.00606168,-0.19496633,-0.14401816,-0.04556591,0.00023011,0.00005833,0
 .00006300,0.00004527,0.00016083,-0.00013981,-0.00167677,0.00002316,-0.
 00049098,0.00173573,0.00154305,-0.00138372,0.00098893,0.00185119,-0.00
 171679,0.00010967,-0.00109078,0.00091404,0.20582755,0.00160845,0.00114
 486,-0.00220568,0.00939303,0.00643687,0.00735425,-0.01825393,-0.015944
 73,-0.00805510,-0.14349499,-0.16402755,-0.04195610,-0.00001782,-0.0000
 1040,-0.00006832,-0.00008312,-0.00004552,-0.00003412,0.00112632,0.0001
 3438,0.00011228,-0.00117182,-0.00000532,0.00112947,-0.00263716,-0.0014
 3479,0.00396264,0.00175267,0.00196711,-0.00169028,0.15294055,0.1737020
 8,-0.00033780,0.00102952,-0.00161248,0.00973449,0.01046914,0.00036152,
 0.01171178,0.00916667,0.00070980,-0.04789330,-0.04338043,-0.06554906,0
 .00035013,0.00033960,0.00019537,-0.00005355,-0.00017042,0.00010860,0.0
 0048274,0.00017065,0.00048355,0.00062821,-0.00088263,0.00160529,0.0016
 6958,0.00033716,-0.00135303,-0.00098312,0.00069080,0.00178344,0.046140
 71,0.04146623,0.06550433,0.00226175,0.00215002,-0.00066457,0.00577755,
 0.00466454,0.02675473,-0.00541873,-0.00288246,-0.00564561,-0.05312944,
 -0.01675571,-0.04983852,-0.00016616,-0.00057767,-0.00037203,-0.0004376
 7,0.00027577,-0.00013275,0.00053703,-0.00007083,-0.00025259,-0.0024113
 6,-0.00242987,0.00325265,0.00081580,-0.00100474,0.00144397,0.00086768,
 0.00158424,-0.00126289,-0.00174717,-0.00116216,-0.02144988,0.05305073,
 -0.00152756,0.00078715,0.00164598,-0.00352328,-0.00624680,-0.00935237,
 0.00576716,0.00547093,0.02803223,-0.01679781,-0.04942925,-0.04827330,0
 .00010946,0.00001850,0.00030924,-0.00005880,-0.00007551,-0.00016030,-0
 .00028108,-0.00009837,0.00004671,0.00202643,0.00110735,-0.00168154,0.0
 0207994,0.00149860,-0.00199964,-0.00326061,-0.00214263,0.00369014,-0.0
 0074270,-0.00191698,-0.01923630,0.01620887,0.05102702,-0.00152602,-0.0
 0137139,0.00097166,-0.00193070,0.00003081,-0.01089202,0.00041044,-0.00
 221668,-0.00963969,-0.04778942,-0.04616072,-0.31852608,0.00069364,0.00
 043675,0.00049844,0.00060489,0.00013365,0.00020390,-0.00023584,0.00016
 847,0.00024411,0.00041920,0.00178957,-0.00077161,-0.00069055,0.0000915
 3,0.00121959,0.00167635,0.00013413,-0.00052392,0.00020052,-0.00001527,
 -0.00223733,0.04816749,0.04697915,0.33945296\\0.00000458,0.00005724,0.
 00007280,-0.00022838,-0.00005530,-0.00011408,0.00013341,-0.00020367,0.
 00021120,0.00019922,0.00021964,-0.00012635,0.00001763,0.00001980,0.000
 02823,-0.00002289,-0.00005574,-0.00001148,-0.00001347,0.00000470,-0.00
 005971,0.00004540,-0.00004488,-0.00004728,-0.00001526,0.00011163,-0.00
 000914,-0.00003552,0.00002660,-0.00005457,-0.00004768,-0.00005110,0.00
 000751,-0.00003704,-0.00002893,0.00010287\\\@


 A ROPE OVER THE TOP OF A FENCE HAS THE SAME LENGTH ON EACH SIDE.
 WEIGHS 1/3 POUND PER FOOT.  ON ONE END HANGS A MONKEY HOLDING A
 BANANA, AND ON THE OTHER END A WEIGHT EQUAL TO THE WEIGHT
 OF THE MONKEY.  THE BANANA WEIGHS TWO OUNCES PER INCH.
 THE ROPE IS AS LONG AS THE AGE OF THE MONKEY, 
 AND THE WEIGHT OF THE MONKEY (IN OUNCES) IS AS MUCH
 AS THE AGE OF THE MONKEY'S MOTHER.  THE COMBINED AGES OF MONKEY
 AND MOTHER ARE THIRTY YEARS.  HALF THE WEIGHT OF THE MONKEY,
  PLUS THE WEIGHT OF THE BANANA, IS ONE FOURTH AS MUCH AS THE WEIGHT
 OF THE WEIGHT AND THE ROPE.
 THE MONKEY'S MOTHER IS HALF AS OLD AS THE MONKEY WILL BE
 WHEN IT IS 3 TIMES AS OLD AS ITS MOTHER WAS WHEN
 SHE WAS HALF AS OLD AS THE MONKEY WILL BE WHEN IT IS
 AS OLD AS ITS MOTHER WILL BE WHEN SHE IS 4 TIMES AS
 OLD AS THE MONKEY WAS WHEN IT WAS TWICE AS OLD AS 
 ITS MOTHER WAS WHEN SHE WAS ONE THIRD AS OLD AS THE
 MONKEY WAS WHEN IT WAS AS OLD AS ITS MOTHER WAS WHEN 
 SHE WAS 3 TIMES AS OLD AS THE MONKEY WAS WHEN IT WAS AS OLD AS ITS
 MOTHER WAS WHEN SHE WAS 3 TIMES AS OLD AS THE MONKEY 
 WAS WHEN IT WAS ONE FOURTH WAS OLD AS IT IS NOW.

 HOW LONG IS THE BANANA?
 Job cpu time:       0 days  0 hours  3 minutes 44.1 seconds.
 File lengths (MBytes):  RWF=     16 Int=      0 D2E=      0 Chk=      2 Scr=      1
 Normal termination of Gaussian 09 at Sat Aug 21 01:35:20 2021.
