 Entering Gaussian System, Link 0=g09
 Input=B3LYP6-31Gdp.Frag_638.gjf
 Output=B3LYP6-31Gdp.Frag_638.log
 Initial command:
 /public/home/users/caep010/software/Gaussian09/g09/l1.exe "/public/home/users/caep010/.cache/gau_scr/Gau-163789.inp" -scrdir="/public/home/users/caep010/.cache/gau_scr/"
 Entering Link 1 = /public/home/users/caep010/software/Gaussian09/g09/l1.exe PID=    163791.
  
 Copyright (c) 1988,1990,1992,1993,1995,1998,2003,2009,2015,
            Gaussian, Inc.  All Rights Reserved.
  
 This is part of the Gaussian(R) 09 program.  It is based on
 the Gaussian(R) 03 system (copyright 2003, Gaussian, Inc.),
 the Gaussian(R) 98 system (copyright 1998, Gaussian, Inc.),
 the Gaussian(R) 94 system (copyright 1995, Gaussian, Inc.),
 the Gaussian 92(TM) system (copyright 1992, Gaussian, Inc.),
 the Gaussian 90(TM) system (copyright 1990, Gaussian, Inc.),
 the Gaussian 88(TM) system (copyright 1988, Gaussian, Inc.),
 the Gaussian 86(TM) system (copyright 1986, Carnegie Mellon
 University), and the Gaussian 82(TM) system (copyright 1983,
 Carnegie Mellon University). Gaussian is a federally registered
 trademark of Gaussian, Inc.
  
 This software contains proprietary and confidential information,
 including trade secrets, belonging to Gaussian, Inc.
  
 This software is provided under written license and may be
 used, copied, transmitted, or stored only in accord with that
 written license.
  
 The following legend is applicable only to US Government
 contracts under FAR:
  
                    RESTRICTED RIGHTS LEGEND
  
 Use, reproduction and disclosure by the US Government is
 subject to restrictions as set forth in subparagraphs (a)
 and (c) of the Commercial Computer Software - Restricted
 Rights clause in FAR 52.227-19.
  
 Gaussian, Inc.
 340 Quinnipiac St., Bldg. 40, Wallingford CT 06492
  
  
 ---------------------------------------------------------------
 Warning -- This program may not be used in any manner that
 competes with the business of Gaussian, Inc. or will provide
 assistance to any competitor of Gaussian, Inc.  The licensee
 of this program is prohibited from giving any competitor of
 Gaussian, Inc. access to this program.  By using this program,
 the user acknowledges that Gaussian, Inc. is engaged in the
 business of creating and licensing software in the field of
 computational chemistry and represents and warrants to the
 licensee that it is not a competitor of Gaussian, Inc. and that
 it will not use this program in any manner prohibited above.
 ---------------------------------------------------------------
  

 Cite this work as:
 Gaussian 09, Revision E.01,
 M. J. Frisch, G. W. Trucks, H. B. Schlegel, G. E. Scuseria, 
 M. A. Robb, J. R. Cheeseman, G. Scalmani, V. Barone, B. Mennucci, 
 G. A. Petersson, H. Nakatsuji, M. Caricato, X. Li, H. P. Hratchian, 
 A. F. Izmaylov, J. Bloino, G. Zheng, J. L. Sonnenberg, M. Hada, 
 M. Ehara, K. Toyota, R. Fukuda, J. Hasegawa, M. Ishida, T. Nakajima, 
 Y. Honda, O. Kitao, H. Nakai, T. Vreven, J. A. Montgomery, Jr., 
 J. E. Peralta, F. Ogliaro, M. Bearpark, J. J. Heyd, E. Brothers, 
 K. N. Kudin, V. N. Staroverov, T. Keith, R. Kobayashi, J. Normand, 
 K. Raghavachari, A. Rendell, J. C. Burant, S. S. Iyengar, J. Tomasi, 
 M. Cossi, N. Rega, J. M. Millam, M. Klene, J. E. Knox, J. B. Cross, 
 V. Bakken, C. Adamo, J. Jaramillo, R. Gomperts, R. E. Stratmann, 
 O. Yazyev, A. J. Austin, R. Cammi, C. Pomelli, J. W. Ochterski, 
 R. L. Martin, K. Morokuma, V. G. Zakrzewski, G. A. Voth, 
 P. Salvador, J. J. Dannenberg, S. Dapprich, A. D. Daniels, 
 O. Farkas, J. B. Foresman, J. V. Ortiz, J. Cioslowski, 
 and D. J. Fox, Gaussian, Inc., Wallingford CT, 2013.
 
 ******************************************
 Gaussian 09:  ES64L-G09RevE.01 30-Nov-2015
                 8-Sep-2022 
 ******************************************
 %nproc=32
 Will use up to   32 processors via shared memory.
 %mem=180GB
 %chk=B3LYP6-31Gdp.Frag_638.chk
 ----------------------------
 #P OPT Freq B3LYP/6-31G(d,p)
 ----------------------------
 1/14=-1,18=20,19=15,26=3,38=1/1,3;
 2/9=110,12=2,17=6,18=5,40=1/2;
 3/5=1,6=6,7=101,11=2,16=1,25=1,30=1,71=1,74=-5/1,2,3;
 4//1;
 5/5=2,38=5/2;
 6/7=2,8=2,9=2,10=2,28=1/1;
 7//1,2,3,16;
 1/14=-1,18=20,19=15,26=3/3(2);
 2/9=110/2;
 99//99;
 2/9=110/2;
 3/5=1,6=6,7=101,11=2,16=1,25=1,30=1,71=1,74=-5/1,2,3;
 4/5=5,16=3,69=1/1;
 5/5=2,38=5/2;
 7//1,2,3,16;
 1/14=-1,18=20,19=15,26=3/3(-5);
 2/9=110/2;
 6/7=2,8=2,9=2,10=2,19=2,28=1/1;
 99/9=1/99;
 Leave Link    1 at Thu Sep  8 15:01:50 2022, MaxMem= 24159191040 cpu:         2.5
 (Enter /public/home/users/caep010/software/Gaussian09/g09/l101.exe)
 --------
 Frag_638
 --------
 Symbolic Z-matrix:
 Charge =  0 Multiplicity = 1
 C                     2.02031  -0.42088   0.19966 
 N                     0.87084  -0.60633  -0.67004 
 C                    -0.42148  -0.02562  -0.26023 
 C                    -0.69767  -0.14652   1.25635 
 C                    -0.4488    1.44875  -0.68913 
 N                    -1.43582  -0.75042  -1.04314 
 H                     2.22717   0.64789   0.32702 
 H                     1.93601  -0.86156   1.208 
 H                     2.89966  -0.86042  -0.28177 
 H                     0.73155  -1.58483  -0.88909 
 H                     0.03103   0.40383   1.85956 
 H                    -0.66547  -1.19702   1.5698 
 H                    -1.69115   0.24846   1.49258 
 H                     0.3855    1.99856  -0.24525 
 H                    -1.37602   1.93787  -0.36958 
 H                    -0.36282   1.51176  -1.77629 
 H                    -1.74254  -1.57357  -0.53042 
 H                    -2.2604   -0.17007  -1.15792 
 
 NAtoms=     18 NQM=       18 NQMF=       0 NMMI=      0 NMMIF=      0
                NMic=       0 NMicF=      0.
                    Isotopes and Nuclear Properties:
 (Nuclear quadrupole moments (NQMom) in fm**2, nuclear magnetic moments (NMagM)
  in nuclear magnetons)

  Atom         1           2           3           4           5           6           7           8           9          10
 IAtWgt=          12          14          12          12          12          14           1           1           1           1
 AtmWgt=  12.0000000  14.0030740  12.0000000  12.0000000  12.0000000  14.0030740   1.0078250   1.0078250   1.0078250   1.0078250
 NucSpn=           0           2           0           0           0           2           1           1           1           1
 AtZEff=   0.0000000   0.0000000   0.0000000   0.0000000   0.0000000   0.0000000   0.0000000   0.0000000   0.0000000   0.0000000
 NQMom=    0.0000000   2.0440000   0.0000000   0.0000000   0.0000000   2.0440000   0.0000000   0.0000000   0.0000000   0.0000000
 NMagM=    0.0000000   0.4037610   0.0000000   0.0000000   0.0000000   0.4037610   2.7928460   2.7928460   2.7928460   2.7928460
 AtZNuc=   6.0000000   7.0000000   6.0000000   6.0000000   6.0000000   7.0000000   1.0000000   1.0000000   1.0000000   1.0000000

  Atom        11          12          13          14          15          16          17          18
 IAtWgt=           1           1           1           1           1           1           1           1
 AtmWgt=   1.0078250   1.0078250   1.0078250   1.0078250   1.0078250   1.0078250   1.0078250   1.0078250
 NucSpn=           1           1           1           1           1           1           1           1
 AtZEff=   0.0000000   0.0000000   0.0000000   0.0000000   0.0000000   0.0000000   0.0000000   0.0000000
 NQMom=    0.0000000   0.0000000   0.0000000   0.0000000   0.0000000   0.0000000   0.0000000   0.0000000
 NMagM=    2.7928460   2.7928460   2.7928460   2.7928460   2.7928460   2.7928460   2.7928460   2.7928460
 AtZNuc=   1.0000000   1.0000000   1.0000000   1.0000000   1.0000000   1.0000000   1.0000000   1.0000000
 Leave Link  101 at Thu Sep  8 15:01:50 2022, MaxMem= 24159191040 cpu:        10.0
 (Enter /public/home/users/caep010/software/Gaussian09/g09/l103.exe)

 GradGradGradGradGradGradGradGradGradGradGradGradGradGradGradGradGradGrad
 Berny optimization.
 Initialization pass.
                           ----------------------------
                           !    Initial Parameters    !
                           ! (Angstroms and Degrees)  !
 --------------------------                            --------------------------
 ! Name  Definition              Value          Derivative Info.                !
 --------------------------------------------------------------------------------
 ! R1    R(1,2)                  1.4533         estimate D2E/DX2                !
 ! R2    R(1,7)                  1.096          estimate D2E/DX2                !
 ! R3    R(1,8)                  1.1037         estimate D2E/DX2                !
 ! R4    R(1,9)                  1.0946         estimate D2E/DX2                !
 ! R5    R(2,3)                  1.4749         estimate D2E/DX2                !
 ! R6    R(2,10)                 1.0123         estimate D2E/DX2                !
 ! R7    R(3,4)                  1.5462         estimate D2E/DX2                !
 ! R8    R(3,5)                  1.5357         estimate D2E/DX2                !
 ! R9    R(3,6)                  1.4721         estimate D2E/DX2                !
 ! R10   R(4,11)                 1.0944         estimate D2E/DX2                !
 ! R11   R(4,12)                 1.0967         estimate D2E/DX2                !
 ! R12   R(4,13)                 1.0949         estimate D2E/DX2                !
 ! R13   R(5,14)                 1.0933         estimate D2E/DX2                !
 ! R14   R(5,15)                 1.0959         estimate D2E/DX2                !
 ! R15   R(5,16)                 1.0924         estimate D2E/DX2                !
 ! R16   R(6,17)                 1.0171         estimate D2E/DX2                !
 ! R17   R(6,18)                 1.0148         estimate D2E/DX2                !
 ! A1    A(2,1,7)              110.0754         estimate D2E/DX2                !
 ! A2    A(2,1,8)              115.8096         estimate D2E/DX2                !
 ! A3    A(2,1,9)              108.7203         estimate D2E/DX2                !
 ! A4    A(7,1,8)              107.3145         estimate D2E/DX2                !
 ! A5    A(7,1,9)              106.9206         estimate D2E/DX2                !
 ! A6    A(8,1,9)              107.6287         estimate D2E/DX2                !
 ! A7    A(1,2,3)              118.4582         estimate D2E/DX2                !
 ! A8    A(1,2,10)             111.2025         estimate D2E/DX2                !
 ! A9    A(3,2,10)             108.671          estimate D2E/DX2                !
 ! A10   A(2,3,4)              113.4687         estimate D2E/DX2                !
 ! A11   A(2,3,5)              108.4206         estimate D2E/DX2                !
 ! A12   A(2,3,6)              105.1955         estimate D2E/DX2                !
 ! A13   A(4,3,5)              110.2314         estimate D2E/DX2                !
 ! A14   A(4,3,6)              111.1033         estimate D2E/DX2                !
 ! A15   A(5,3,6)              108.1729         estimate D2E/DX2                !
 ! A16   A(3,4,11)             112.4789         estimate D2E/DX2                !
 ! A17   A(3,4,12)             110.485          estimate D2E/DX2                !
 ! A18   A(3,4,13)             110.2109         estimate D2E/DX2                !
 ! A19   A(11,4,12)            107.7339         estimate D2E/DX2                !
 ! A20   A(11,4,13)            107.688          estimate D2E/DX2                !
 ! A21   A(12,4,13)            108.09           estimate D2E/DX2                !
 ! A22   A(3,5,14)             110.8439         estimate D2E/DX2                !
 ! A23   A(3,5,15)             111.2287         estimate D2E/DX2                !
 ! A24   A(3,5,16)             109.3864         estimate D2E/DX2                !
 ! A25   A(14,5,15)            107.6248         estimate D2E/DX2                !
 ! A26   A(14,5,16)            108.3592         estimate D2E/DX2                !
 ! A27   A(15,5,16)            109.3317         estimate D2E/DX2                !
 ! A28   A(3,6,17)             109.7635         estimate D2E/DX2                !
 ! A29   A(3,6,18)             109.7818         estimate D2E/DX2                !
 ! A30   A(17,6,18)            105.9499         estimate D2E/DX2                !
 ! D1    D(7,1,2,3)            -59.876          estimate D2E/DX2                !
 ! D2    D(7,1,2,10)           173.1945         estimate D2E/DX2                !
 ! D3    D(8,1,2,3)             62.0434         estimate D2E/DX2                !
 ! D4    D(8,1,2,10)           -64.8861         estimate D2E/DX2                !
 ! D5    D(9,1,2,3)           -176.6857         estimate D2E/DX2                !
 ! D6    D(9,1,2,10)            56.3847         estimate D2E/DX2                !
 ! D7    D(1,2,3,4)            -39.1414         estimate D2E/DX2                !
 ! D8    D(1,2,3,5)             83.6757         estimate D2E/DX2                !
 ! D9    D(1,2,3,6)           -160.787          estimate D2E/DX2                !
 ! D10   D(10,2,3,4)            88.9838         estimate D2E/DX2                !
 ! D11   D(10,2,3,5)          -148.1991         estimate D2E/DX2                !
 ! D12   D(10,2,3,6)           -32.6618         estimate D2E/DX2                !
 ! D13   D(2,3,4,11)            63.0194         estimate D2E/DX2                !
 ! D14   D(2,3,4,12)           -57.4102         estimate D2E/DX2                !
 ! D15   D(2,3,4,13)          -176.8003         estimate D2E/DX2                !
 ! D16   D(5,3,4,11)           -58.7937         estimate D2E/DX2                !
 ! D17   D(5,3,4,12)          -179.2232         estimate D2E/DX2                !
 ! D18   D(5,3,4,13)            61.3867         estimate D2E/DX2                !
 ! D19   D(6,3,4,11)          -178.696          estimate D2E/DX2                !
 ! D20   D(6,3,4,12)            60.8744         estimate D2E/DX2                !
 ! D21   D(6,3,4,13)           -58.5157         estimate D2E/DX2                !
 ! D22   D(2,3,5,14)           -57.9702         estimate D2E/DX2                !
 ! D23   D(2,3,5,15)          -177.671          estimate D2E/DX2                !
 ! D24   D(2,3,5,16)            61.4536         estimate D2E/DX2                !
 ! D25   D(4,3,5,14)            66.7872         estimate D2E/DX2                !
 ! D26   D(4,3,5,15)           -52.9136         estimate D2E/DX2                !
 ! D27   D(4,3,5,16)          -173.789          estimate D2E/DX2                !
 ! D28   D(6,3,5,14)          -171.5547         estimate D2E/DX2                !
 ! D29   D(6,3,5,15)            68.7445         estimate D2E/DX2                !
 ! D30   D(6,3,5,16)           -52.1309         estimate D2E/DX2                !
 ! D31   D(2,3,6,17)            89.8119         estimate D2E/DX2                !
 ! D32   D(2,3,6,18)          -154.1139         estimate D2E/DX2                !
 ! D33   D(4,3,6,17)           -33.361          estimate D2E/DX2                !
 ! D34   D(4,3,6,18)            82.7133         estimate D2E/DX2                !
 ! D35   D(5,3,6,17)          -154.48           estimate D2E/DX2                !
 ! D36   D(5,3,6,18)           -38.4058         estimate D2E/DX2                !
 --------------------------------------------------------------------------------
 Trust Radius=3.00D-01 FncErr=1.00D-07 GrdErr=1.00D-06
 Number of steps in this run=     93 maximum allowed number of steps=    108.
 GradGradGradGradGradGradGradGradGradGradGradGradGradGradGradGradGradGrad

 Leave Link  103 at Thu Sep  8 15:01:50 2022, MaxMem= 24159191040 cpu:         0.4
 (Enter /public/home/users/caep010/software/Gaussian09/g09/l202.exe)
                          Input orientation:                          
 ---------------------------------------------------------------------
 Center     Atomic      Atomic             Coordinates (Angstroms)
 Number     Number       Type             X           Y           Z
 ---------------------------------------------------------------------
      1          6           0        2.020309   -0.420875    0.199659
      2          7           0        0.870841   -0.606332   -0.670035
      3          6           0       -0.421482   -0.025619   -0.260226
      4          6           0       -0.697667   -0.146519    1.256347
      5          6           0       -0.448804    1.448745   -0.689133
      6          7           0       -1.435821   -0.750420   -1.043143
      7          1           0        2.227171    0.647892    0.327015
      8          1           0        1.936010   -0.861557    1.207998
      9          1           0        2.899656   -0.860422   -0.281768
     10          1           0        0.731550   -1.584825   -0.889091
     11          1           0        0.031034    0.403833    1.859558
     12          1           0       -0.665465   -1.197024    1.569795
     13          1           0       -1.691152    0.248458    1.492576
     14          1           0        0.385499    1.998562   -0.245251
     15          1           0       -1.376021    1.937871   -0.369579
     16          1           0       -0.362818    1.511763   -1.776287
     17          1           0       -1.742536   -1.573565   -0.530417
     18          1           0       -2.260402   -0.170069   -1.157918
 ---------------------------------------------------------------------
                    Distance matrix (angstroms):
                    1          2          3          4          5
     1  C    0.000000
     2  N    1.453285   0.000000
     3  C    2.515962   1.474880   0.000000
     4  C    2.929036   2.526379   1.546250   0.000000
     5  C    3.222103   2.442370   1.535727   2.528180   0.000000
     6  N    3.687545   2.341081   1.472134   2.489422   2.436360
     7  H    1.096027   2.099242   2.795323   3.170083   2.972333
     8  H    1.103655   2.174105   2.900387   2.729445   3.824126
     9  H    1.094634   2.081202   3.424517   3.976957   4.087834
    10  H    2.049648   1.012342   2.038646   2.951998   3.261252
    11  H    2.718938   2.850360   2.209680   1.094420   2.796053
    12  H    3.113368   2.779567   2.186480   1.096744   3.485655
    13  H    3.986801   3.459965   2.181627   1.094908   2.782799
    14  H    2.953680   2.683556   2.179163   2.833623   1.093340
    15  H    4.174059   3.407584   2.185954   2.729191   1.095943
    16  H    3.649486   2.689244   2.159960   3.472592   1.092368
    17  H    4.002588   2.790120   2.052882   2.514108   3.291397
    18  H    4.497822   3.198912   2.051425   2.875999   2.474309
                    6          7          8          9         10
     6  N    0.000000
     7  H    4.153326   0.000000
     8  H    4.055765   1.771819   0.000000
     9  H    4.403198   1.760075   1.774265   0.000000
    10  H    2.327544   2.949715   2.524207   2.365224   0.000000
    11  H    3.451034   2.689102   2.377956   3.796394   3.464182
    12  H    2.760498   3.649049   2.647850   4.031337   2.854498
    13  H    2.737302   4.107473   3.803869   5.045139   3.860408
    14  H    3.392748   2.354475   3.563186   3.807376   3.657177
    15  H    2.772034   3.890023   4.614661   5.110731   4.137769
    16  H    2.608890   3.446476   4.452327   4.301696   3.402002
    17  H    1.017118   4.629107   4.130465   4.703227   2.499975
    18  H    1.014847   4.797124   4.866784   5.279245   3.320479
                   11         12         13         14         15
    11  H    0.000000
    12  H    1.769694   0.000000
    13  H    1.767694   1.774095   0.000000
    14  H    2.664400   3.822393   3.224188   0.000000
    15  H    3.049939   3.754148   2.533978   1.766945   0.000000
    16  H    3.821256   4.315714   3.747783   1.772293   1.785210
    17  H    3.573183   2.390137   2.723033   4.167726   3.534174
    18  H    3.832128   3.322481   2.743051   3.540722   2.418061
                   16         17         18
    16  H    0.000000
    17  H    3.602091   0.000000
    18  H    2.609936   1.622265   0.000000
 Stoichiometry    C4H12N2
 Framework group  C1[X(C4H12N2)]
 Deg. of freedom    48
 Full point group                 C1      NOp   1
 Largest Abelian subgroup         C1      NOp   1
 Largest concise Abelian subgroup C1      NOp   1
                         Standard orientation:                         
 ---------------------------------------------------------------------
 Center     Atomic      Atomic             Coordinates (Angstroms)
 Number     Number       Type             X           Y           Z
 ---------------------------------------------------------------------
      1          6           0        2.101067    0.038773   -0.033937
      2          7           0        0.854428    0.066715   -0.780361
      3          6           0       -0.414581   -0.000920   -0.031821
      4          6           0       -0.370054   -0.973944    1.169066
      5          6           0       -0.773091    1.414394    0.444431
      6          7           0       -1.422564   -0.422444   -1.018465
      7          1           0        2.144401    0.887698    0.657962
      8          1           0        2.287736   -0.875347    0.555633
      9          1           0        2.933200    0.156598   -0.735291
     10          1           0        0.843521   -0.643601   -1.501588
     11          1           0        0.356879   -0.668791    1.928149
     12          1           0       -0.100795   -1.983396    0.835370
     13          1           0       -1.352023   -1.025676    1.650609
     14          1           0        0.025442    1.830009    1.064916
     15          1           0       -1.690961    1.410979    1.043257
     16          1           0       -0.909268    2.065033   -0.422399
     17          1           0       -1.481208   -1.437683   -1.037972
     18          1           0       -2.340020   -0.095535   -0.733301
 ---------------------------------------------------------------------
 Rotational constants (GHZ):      4.4429472      2.6393003      2.6247488
 Leave Link  202 at Thu Sep  8 15:01:50 2022, MaxMem= 24159191040 cpu:         0.7
 (Enter /public/home/users/caep010/software/Gaussian09/g09/l301.exe)
 Standard basis: 6-31G(d,p) (6D, 7F)
 Ernie: Thresh=  0.10000D-02 Tol=  0.10000D-05 Strict=F.
 There are   150 symmetry adapted cartesian basis functions of A   symmetry.
 There are   150 symmetry adapted basis functions of A   symmetry.
   150 basis functions,   252 primitive gaussians,   150 cartesian basis functions
    25 alpha electrons       25 beta electrons
       nuclear repulsion energy       270.6047317578 Hartrees.
 IExCor=  402 DFT=T Ex+Corr=B3LYP ExCW=0 ScaHFX=  0.200000
 ScaDFX=  0.800000  0.720000  1.000000  0.810000 ScalE2=  1.000000  1.000000
 IRadAn=      0 IRanWt=     -1 IRanGd=            0 ICorTp=0 IEmpDi=  4
 NAtoms=   18 NActive=   18 NUniq=   18 SFac= 1.00D+00 NAtFMM=   60 NAOKFM=F Big=F
 Integral buffers will be    131072 words long.
 Raffenetti 2 integral format.
 Two-electron integral symmetry is turned on.
 Leave Link  301 at Thu Sep  8 15:01:50 2022, MaxMem= 24159191040 cpu:         2.0
 (Enter /public/home/users/caep010/software/Gaussian09/g09/l302.exe)
 NPDir=0 NMtPBC=     1 NCelOv=     1 NCel=       1 NClECP=     1 NCelD=      1
         NCelK=      1 NCelE2=     1 NClLst=     1 CellRange=     0.0.
 One-electron integrals computed using PRISM.
 NBasis=   150 RedAO= T EigKep=  2.81D-03  NBF=   150
 NBsUse=   150 1.00D-06 EigRej= -1.00D+00 NBFU=   150
 Precomputing XC quadrature grid using
 IXCGrd= 4 IRadAn=           0 IRanWt=          -1 IRanGd=           0 AccXCQ= 0.00D+00.
 Generated NRdTot=       0 NPtTot=           0 NUsed=           0 NTot=          32
 NSgBfM=   150   150   150   150   150 MxSgAt=    18 MxSgA2=    18.
 Leave Link  302 at Thu Sep  8 15:01:51 2022, MaxMem= 24159191040 cpu:        14.8
 (Enter /public/home/users/caep010/software/Gaussian09/g09/l303.exe)
 DipDrv:  MaxL=1.
 Leave Link  303 at Thu Sep  8 15:01:51 2022, MaxMem= 24159191040 cpu:         0.7
 (Enter /public/home/users/caep010/software/Gaussian09/g09/l401.exe)
 ExpMin= 1.61D-01 ExpMax= 4.17D+03 ExpMxC= 6.27D+02 IAcc=1 IRadAn=         1 AccDes= 0.00D+00
 Harris functional with IExCor=  402 and IRadAn=       1 diagonalized for initial guess.
 HarFok:  IExCor=  402 AccDes= 0.00D+00 IRadAn=         1 IDoV= 1 UseB2=F ITyADJ=14
 ICtDFT=  3500011 ScaDFX=  1.000000  1.000000  1.000000  1.000000
 FoFCou: FMM=F IPFlag=           0 FMFlag=      100000 FMFlg1=           0
         NFxFlg=           0 DoJE=T BraDBF=F KetDBF=T FulRan=T
         wScrn=  0.000000 ICntrl=     500 IOpCl=  0 I1Cent=   200000004 NGrid=           0
         NMat0=    1 NMatS0=      1 NMatT0=    0 NMatD0=    1 NMtDS0=    0 NMtDT0=    0
 Petite list used in FoFCou.
 Harris En= -269.209543204602    
 JPrj=0 DoOrth=F DoCkMO=F.
 Leave Link  401 at Thu Sep  8 15:01:51 2022, MaxMem= 24159191040 cpu:        11.1
 (Enter /public/home/users/caep010/software/Gaussian09/g09/l502.exe)
 Closed shell SCF:
 Using DIIS extrapolation, IDIIS=  1040.
 Integral symmetry usage will be decided dynamically.
 Keep R1 ints in memory in canonical form, NReq=65946871.
 IVT=       91996 IEndB=       91996 NGot= 24159191040 MDV= 24094965570
 LenX= 24094965570 LenY= 24094942629
 Requested convergence on RMS density matrix=1.00D-08 within 128 cycles.
 Requested convergence on MAX density matrix=1.00D-06.
 Requested convergence on             energy=1.00D-06.
 No special actions if energy rises.
 FoFCou: FMM=F IPFlag=           0 FMFlag=           0 FMFlg1=           0
         NFxFlg=           0 DoJE=F BraDBF=F KetDBF=F FulRan=T
         wScrn=  0.000000 ICntrl=     600 IOpCl=  0 I1Cent=           0 NGrid=           0
         NMat0=    1 NMatS0=  11325 NMatT0=    0 NMatD0=    1 NMtDS0=    0 NMtDT0=    0
 Symmetry not used in FoFCou.
 Integral accuracy reduced to 1.0D-05 until final iterations.

 Cycle   1  Pass 0  IDiag  1:
 E= -268.900734606699    
 DIIS: error= 3.24D-02 at cycle   1 NSaved=   1.
 NSaved= 1 IEnMin= 1 EnMin= -268.900734606699     IErMin= 1 ErrMin= 3.24D-02
 ErrMax= 3.24D-02  0.00D+00 EMaxC= 1.00D-01 BMatC= 2.54D-01 BMatP= 2.54D-01
 IDIUse=3 WtCom= 6.76D-01 WtEn= 3.24D-01
 Coeff-Com:  0.100D+01
 Coeff-En:   0.100D+01
 Coeff:      0.100D+01
 Gap=     0.192 Goal=   None    Shift=    0.000
 GapD=    0.192 DampG=1.000 DampE=0.500 DampFc=0.5000 IDamp=-1.
 Damping current iteration by 5.00D-01
 RMSDP=7.57D-03 MaxDP=1.63D-01              OVMax= 1.72D-01

 Cycle   2  Pass 0  IDiag  1:
 E= -269.012492851418     Delta-E=       -0.111758244719 Rises=F Damp=T
 DIIS: error= 7.32D-03 at cycle   2 NSaved=   2.
 NSaved= 2 IEnMin= 2 EnMin= -269.012492851418     IErMin= 2 ErrMin= 7.32D-03
 ErrMax= 7.32D-03  0.00D+00 EMaxC= 1.00D-01 BMatC= 1.10D-02 BMatP= 2.54D-01
 IDIUse=3 WtCom= 9.27D-01 WtEn= 7.32D-02
 Coeff-Com:  0.900D-01 0.910D+00
 Coeff-En:   0.151D+00 0.849D+00
 Coeff:      0.945D-01 0.906D+00
 Gap=     0.278 Goal=   None    Shift=    0.000
 RMSDP=1.30D-03 MaxDP=2.35D-02 DE=-1.12D-01 OVMax= 9.92D-02

 Cycle   3  Pass 0  IDiag  1:
 E= -269.155630280032     Delta-E=       -0.143137428613 Rises=F Damp=F
 DIIS: error= 2.37D-03 at cycle   3 NSaved=   3.
 NSaved= 3 IEnMin= 3 EnMin= -269.155630280032     IErMin= 3 ErrMin= 2.37D-03
 ErrMax= 2.37D-03  0.00D+00 EMaxC= 1.00D-01 BMatC= 2.20D-03 BMatP= 1.10D-02
 IDIUse=3 WtCom= 9.76D-01 WtEn= 2.37D-02
 Coeff-Com:  0.102D-01 0.262D+00 0.728D+00
 Coeff-En:   0.000D+00 0.000D+00 0.100D+01
 Coeff:      0.993D-02 0.256D+00 0.734D+00
 Gap=     0.267 Goal=   None    Shift=    0.000
 RMSDP=5.10D-04 MaxDP=1.25D-02 DE=-1.43D-01 OVMax= 1.51D-02

 Cycle   4  Pass 0  IDiag  1:
 E= -269.156658037302     Delta-E=       -0.001027757271 Rises=F Damp=F
 DIIS: error= 1.38D-03 at cycle   4 NSaved=   4.
 NSaved= 4 IEnMin= 4 EnMin= -269.156658037302     IErMin= 4 ErrMin= 1.38D-03
 ErrMax= 1.38D-03  0.00D+00 EMaxC= 1.00D-01 BMatC= 1.08D-03 BMatP= 2.20D-03
 IDIUse=3 WtCom= 9.86D-01 WtEn= 1.38D-02
 Coeff-Com: -0.245D-02 0.452D-01 0.416D+00 0.541D+00
 Coeff-En:   0.000D+00 0.000D+00 0.333D+00 0.667D+00
 Coeff:     -0.242D-02 0.446D-01 0.415D+00 0.543D+00
 Gap=     0.273 Goal=   None    Shift=    0.000
 RMSDP=2.13D-04 MaxDP=6.06D-03 DE=-1.03D-03 OVMax= 7.34D-03

 Cycle   5  Pass 0  IDiag  1:
 E= -269.157588545172     Delta-E=       -0.000930507870 Rises=F Damp=F
 DIIS: error= 1.73D-04 at cycle   5 NSaved=   5.
 NSaved= 5 IEnMin= 5 EnMin= -269.157588545172     IErMin= 5 ErrMin= 1.73D-04
 ErrMax= 1.73D-04  0.00D+00 EMaxC= 1.00D-01 BMatC= 1.50D-05 BMatP= 1.08D-03
 IDIUse=3 WtCom= 9.98D-01 WtEn= 1.73D-03
 Coeff-Com: -0.844D-03 0.113D-02 0.106D+00 0.187D+00 0.707D+00
 Coeff-En:   0.000D+00 0.000D+00 0.000D+00 0.000D+00 0.100D+01
 Coeff:     -0.842D-03 0.112D-02 0.105D+00 0.186D+00 0.708D+00
 Gap=     0.272 Goal=   None    Shift=    0.000
 RMSDP=2.77D-05 MaxDP=6.84D-04 DE=-9.31D-04 OVMax= 9.13D-04

 Cycle   6  Pass 0  IDiag  1:
 E= -269.157600417181     Delta-E=       -0.000011872010 Rises=F Damp=F
 DIIS: error= 5.98D-05 at cycle   6 NSaved=   6.
 NSaved= 6 IEnMin= 6 EnMin= -269.157600417181     IErMin= 6 ErrMin= 5.98D-05
 ErrMax= 5.98D-05  0.00D+00 EMaxC= 1.00D-01 BMatC= 1.00D-06 BMatP= 1.50D-05
 IDIUse=1 WtCom= 1.00D+00 WtEn= 0.00D+00
 Coeff-Com: -0.260D-03-0.464D-03 0.425D-01 0.783D-01 0.342D+00 0.538D+00
 Coeff:     -0.260D-03-0.464D-03 0.425D-01 0.783D-01 0.342D+00 0.538D+00
 Gap=     0.273 Goal=   None    Shift=    0.000
 RMSDP=7.19D-06 MaxDP=1.80D-04 DE=-1.19D-05 OVMax= 1.96D-04

 Initial convergence to 1.0D-05 achieved.  Increase integral accuracy.
 Cycle   7  Pass 1  IDiag  1:
 E= -269.157637609745     Delta-E=       -0.000037192563 Rises=F Damp=F
 DIIS: error= 1.90D-05 at cycle   1 NSaved=   1.
 NSaved= 1 IEnMin= 1 EnMin= -269.157637609745     IErMin= 1 ErrMin= 1.90D-05
 ErrMax= 1.90D-05  0.00D+00 EMaxC= 1.00D-01 BMatC= 1.25D-07 BMatP= 1.25D-07
 IDIUse=1 WtCom= 1.00D+00 WtEn= 0.00D+00
 Coeff-Com:  0.100D+01
 Coeff:      0.100D+01
 Gap=     0.272 Goal=   None    Shift=    0.000
 RMSDP=7.19D-06 MaxDP=1.80D-04 DE=-3.72D-05 OVMax= 1.12D-04

 Cycle   8  Pass 1  IDiag  1:
 E= -269.157637655117     Delta-E=       -0.000000045372 Rises=F Damp=F
 DIIS: error= 1.98D-05 at cycle   2 NSaved=   2.
 NSaved= 2 IEnMin= 2 EnMin= -269.157637655117     IErMin= 1 ErrMin= 1.90D-05
 ErrMax= 1.98D-05  0.00D+00 EMaxC= 1.00D-01 BMatC= 1.14D-07 BMatP= 1.25D-07
 IDIUse=1 WtCom= 1.00D+00 WtEn= 0.00D+00
 Coeff-Com:  0.486D+00 0.514D+00
 Coeff:      0.486D+00 0.514D+00
 Gap=     0.273 Goal=   None    Shift=    0.000
 RMSDP=2.62D-06 MaxDP=5.53D-05 DE=-4.54D-08 OVMax= 7.24D-05

 Cycle   9  Pass 1  IDiag  1:
 E= -269.157637748199     Delta-E=       -0.000000093082 Rises=F Damp=F
 DIIS: error= 5.18D-06 at cycle   3 NSaved=   3.
 NSaved= 3 IEnMin= 3 EnMin= -269.157637748199     IErMin= 3 ErrMin= 5.18D-06
 ErrMax= 5.18D-06  0.00D+00 EMaxC= 1.00D-01 BMatC= 7.02D-09 BMatP= 1.14D-07
 IDIUse=1 WtCom= 1.00D+00 WtEn= 0.00D+00
 Coeff-Com: -0.102D-01 0.191D+00 0.820D+00
 Coeff:     -0.102D-01 0.191D+00 0.820D+00
 Gap=     0.273 Goal=   None    Shift=    0.000
 RMSDP=5.96D-07 MaxDP=1.33D-05 DE=-9.31D-08 OVMax= 1.62D-05

 Cycle  10  Pass 1  IDiag  1:
 E= -269.157637753987     Delta-E=       -0.000000005788 Rises=F Damp=F
 DIIS: error= 8.40D-07 at cycle   4 NSaved=   4.
 NSaved= 4 IEnMin= 4 EnMin= -269.157637753987     IErMin= 4 ErrMin= 8.40D-07
 ErrMax= 8.40D-07  0.00D+00 EMaxC= 1.00D-01 BMatC= 3.41D-10 BMatP= 7.02D-09
 IDIUse=1 WtCom= 1.00D+00 WtEn= 0.00D+00
 Coeff-Com: -0.132D-01 0.835D-01 0.400D+00 0.529D+00
 Coeff:     -0.132D-01 0.835D-01 0.400D+00 0.529D+00
 Gap=     0.273 Goal=   None    Shift=    0.000
 RMSDP=1.66D-07 MaxDP=3.14D-06 DE=-5.79D-09 OVMax= 4.57D-06

 Cycle  11  Pass 1  IDiag  1:
 E= -269.157637754300     Delta-E=       -0.000000000313 Rises=F Damp=F
 DIIS: error= 1.89D-07 at cycle   5 NSaved=   5.
 NSaved= 5 IEnMin= 5 EnMin= -269.157637754300     IErMin= 5 ErrMin= 1.89D-07
 ErrMax= 1.89D-07  0.00D+00 EMaxC= 1.00D-01 BMatC= 2.01D-11 BMatP= 3.41D-10
 IDIUse=1 WtCom= 1.00D+00 WtEn= 0.00D+00
 Coeff-Com: -0.592D-02 0.278D-01 0.140D+00 0.255D+00 0.583D+00
 Coeff:     -0.592D-02 0.278D-01 0.140D+00 0.255D+00 0.583D+00
 Gap=     0.273 Goal=   None    Shift=    0.000
 RMSDP=3.32D-08 MaxDP=7.89D-07 DE=-3.13D-10 OVMax= 8.31D-07

 Cycle  12  Pass 1  IDiag  1:
 E= -269.157637754314     Delta-E=       -0.000000000015 Rises=F Damp=F
 DIIS: error= 2.99D-08 at cycle   6 NSaved=   6.
 NSaved= 6 IEnMin= 6 EnMin= -269.157637754314     IErMin= 6 ErrMin= 2.99D-08
 ErrMax= 2.99D-08  0.00D+00 EMaxC= 1.00D-01 BMatC= 4.38D-13 BMatP= 2.01D-11
 IDIUse=1 WtCom= 1.00D+00 WtEn= 0.00D+00
 Coeff-Com: -0.516D-03 0.102D-02 0.661D-02 0.271D-01 0.156D+00 0.810D+00
 Coeff:     -0.516D-03 0.102D-02 0.661D-02 0.271D-01 0.156D+00 0.810D+00
 Gap=     0.273 Goal=   None    Shift=    0.000
 RMSDP=6.35D-09 MaxDP=1.52D-07 DE=-1.46D-11 OVMax= 1.76D-07

 SCF Done:  E(RB3LYP) =  -269.157637754     A.U. after   12 cycles
            NFock= 12  Conv=0.64D-08     -V/T= 2.0097
 KE= 2.665731687758D+02 PE=-1.165491513646D+03 EE= 3.591559753576D+02
 Leave Link  502 at Thu Sep  8 15:01:54 2022, MaxMem= 24159191040 cpu:        50.2
 (Enter /public/home/users/caep010/software/Gaussian09/g09/l601.exe)
 Copying SCF densities to generalized density rwf, IOpCl= 0 IROHF=0.

 **********************************************************************

            Population analysis using the SCF density.

 **********************************************************************

 Orbital symmetries:
       Occupied  (A) (A) (A) (A) (A) (A) (A) (A) (A) (A) (A) (A)
                 (A) (A) (A) (A) (A) (A) (A) (A) (A) (A) (A) (A)
                 (A)
       Virtual   (A) (A) (A) (A) (A) (A) (A) (A) (A) (A) (A) (A)
                 (A) (A) (A) (A) (A) (A) (A) (A) (A) (A) (A) (A)
                 (A) (A) (A) (A) (A) (A) (A) (A) (A) (A) (A) (A)
                 (A) (A) (A) (A) (A) (A) (A) (A) (A) (A) (A) (A)
                 (A) (A) (A) (A) (A) (A) (A) (A) (A) (A) (A) (A)
                 (A) (A) (A) (A) (A) (A) (A) (A) (A) (A) (A) (A)
                 (A) (A) (A) (A) (A) (A) (A) (A) (A) (A) (A) (A)
                 (A) (A) (A) (A) (A) (A) (A) (A) (A) (A) (A) (A)
                 (A) (A) (A) (A) (A) (A) (A) (A) (A) (A) (A) (A)
                 (A) (A) (A) (A) (A) (A) (A) (A) (A) (A) (A) (A)
                 (A) (A) (A) (A) (A)
 The electronic state is 1-A.
 Alpha  occ. eigenvalues --  -14.30862 -14.30038 -10.23962 -10.19428 -10.17148
 Alpha  occ. eigenvalues --  -10.16626  -0.91768  -0.84357  -0.73505  -0.68530
 Alpha  occ. eigenvalues --   -0.66078  -0.55195  -0.48648  -0.48191  -0.44780
 Alpha  occ. eigenvalues --   -0.42727  -0.41058  -0.38749  -0.38104  -0.37462
 Alpha  occ. eigenvalues --   -0.35904  -0.34664  -0.33160  -0.23964  -0.20299
 Alpha virt. eigenvalues --    0.06954   0.11748   0.12409   0.12995   0.14552
 Alpha virt. eigenvalues --    0.15064   0.17052   0.17212   0.18787   0.19896
 Alpha virt. eigenvalues --    0.20715   0.21589   0.21975   0.23918   0.26216
 Alpha virt. eigenvalues --    0.27432   0.31307   0.51267   0.52746   0.55123
 Alpha virt. eigenvalues --    0.55529   0.56122   0.58995   0.62932   0.63747
 Alpha virt. eigenvalues --    0.66068   0.70016   0.72752   0.74756   0.75734
 Alpha virt. eigenvalues --    0.79358   0.80291   0.83874   0.85375   0.86408
 Alpha virt. eigenvalues --    0.87760   0.88424   0.88657   0.90332   0.92538
 Alpha virt. eigenvalues --    0.93628   0.94844   0.96117   0.97482   0.98227
 Alpha virt. eigenvalues --    1.00450   1.04945   1.07986   1.23848   1.26914
 Alpha virt. eigenvalues --    1.31590   1.32633   1.41669   1.49609   1.53473
 Alpha virt. eigenvalues --    1.54566   1.56464   1.65096   1.71209   1.79347
 Alpha virt. eigenvalues --    1.82055   1.84565   1.86933   1.92190   1.94183
 Alpha virt. eigenvalues --    1.96585   1.97810   1.99213   2.01910   2.04464
 Alpha virt. eigenvalues --    2.05594   2.06184   2.09816   2.10450   2.10729
 Alpha virt. eigenvalues --    2.13294   2.14999   2.16166   2.17277   2.19245
 Alpha virt. eigenvalues --    2.23530   2.28307   2.30350   2.33174   2.37833
 Alpha virt. eigenvalues --    2.42070   2.46131   2.48360   2.49356   2.51358
 Alpha virt. eigenvalues --    2.57322   2.64665   2.66979   2.68274   2.72029
 Alpha virt. eigenvalues --    2.73457   2.77667   2.78299   2.80480   2.86172
 Alpha virt. eigenvalues --    2.87643   2.89616   2.92138   2.95648   2.98957
 Alpha virt. eigenvalues --    3.01315   3.06972   3.17452   3.20349   3.23957
 Alpha virt. eigenvalues --    3.30766   3.38538   3.43005   3.43895   3.44687
 Alpha virt. eigenvalues --    3.45294   3.48855   3.51680   3.55025   4.02915
 Alpha virt. eigenvalues --    4.09548   4.46318   4.48062   4.54553   4.71469
          Condensed to atoms (all electrons):
               1          2          3          4          5          6
     1  C    4.800608   0.306817  -0.038945  -0.002129  -0.003963   0.004609
     2  N    0.306817   6.882964   0.306840  -0.085855  -0.079393  -0.076330
     3  C   -0.038945   0.306840   4.624314   0.381260   0.376978   0.346345
     4  C   -0.002129  -0.085855   0.381260   5.093573  -0.083754  -0.072259
     5  C   -0.003963  -0.079393   0.376978  -0.083754   5.033988  -0.055786
     6  N    0.004609  -0.076330   0.346345  -0.072259  -0.055786   6.783635
     7  H    0.387675  -0.043779  -0.002819  -0.003257   0.003224  -0.000007
     8  H    0.364966  -0.045784  -0.009205   0.007519  -0.000736   0.000002
     9  H    0.388817  -0.034113   0.005148   0.000014  -0.000015  -0.000153
    10  H   -0.037340   0.329374  -0.031635   0.000716   0.007153  -0.000354
    11  H   -0.000538  -0.000897  -0.023754   0.358404  -0.004960   0.005716
    12  H   -0.000372  -0.000101  -0.025412   0.362871   0.006075  -0.004878
    13  H    0.000158   0.005192  -0.024527   0.359016  -0.001992  -0.000640
    14  H    0.000666  -0.004843  -0.024767  -0.003364   0.377868   0.004198
    15  H   -0.000068   0.005301  -0.025774  -0.001710   0.355133  -0.003406
    16  H    0.000367   0.000972  -0.024807   0.006625   0.370365  -0.000959
    17  H   -0.000228   0.000946  -0.039809  -0.008345   0.007481   0.329026
    18  H   -0.000262   0.006442  -0.035487   0.001674  -0.009882   0.335532
               7          8          9         10         11         12
     1  C    0.387675   0.364966   0.388817  -0.037340  -0.000538  -0.000372
     2  N   -0.043779  -0.045784  -0.034113   0.329374  -0.000897  -0.000101
     3  C   -0.002819  -0.009205   0.005148  -0.031635  -0.023754  -0.025412
     4  C   -0.003257   0.007519   0.000014   0.000716   0.358404   0.362871
     5  C    0.003224  -0.000736  -0.000015   0.007153  -0.004960   0.006075
     6  N   -0.000007   0.000002  -0.000153  -0.000354   0.005716  -0.004878
     7  H    0.620541  -0.051718  -0.026075   0.006300   0.000841   0.000310
     8  H   -0.051718   0.702972  -0.042900  -0.004352   0.001403  -0.000657
     9  H   -0.026075  -0.042900   0.608870  -0.004509   0.000011  -0.000033
    10  H    0.006300  -0.004352  -0.004509   0.499227  -0.000400   0.002219
    11  H    0.000841   0.001403   0.000011  -0.000400   0.620806  -0.031716
    12  H    0.000310  -0.000657  -0.000033   0.002219  -0.031716   0.626923
    13  H    0.000041  -0.000349  -0.000003  -0.000153  -0.029256  -0.030320
    14  H    0.003318  -0.000070  -0.000100  -0.000032   0.002050  -0.000036
    15  H   -0.000321   0.000055   0.000001  -0.000293   0.000413  -0.000059
    16  H   -0.000236   0.000046  -0.000032   0.000060  -0.000136  -0.000233
    17  H    0.000016  -0.000042   0.000003   0.002042   0.000125   0.006084
    18  H    0.000008  -0.000001   0.000005  -0.000198  -0.000098  -0.000243
              13         14         15         16         17         18
     1  C    0.000158   0.000666  -0.000068   0.000367  -0.000228  -0.000262
     2  N    0.005192  -0.004843   0.005301   0.000972   0.000946   0.006442
     3  C   -0.024527  -0.024767  -0.025774  -0.024807  -0.039809  -0.035487
     4  C    0.359016  -0.003364  -0.001710   0.006625  -0.008345   0.001674
     5  C   -0.001992   0.377868   0.355133   0.370365   0.007481  -0.009882
     6  N   -0.000640   0.004198  -0.003406  -0.000959   0.329026   0.335532
     7  H    0.000041   0.003318  -0.000321  -0.000236   0.000016   0.000008
     8  H   -0.000349  -0.000070   0.000055   0.000046  -0.000042  -0.000001
     9  H   -0.000003  -0.000100   0.000001  -0.000032   0.000003   0.000005
    10  H   -0.000153  -0.000032  -0.000293   0.000060   0.002042  -0.000198
    11  H   -0.029256   0.002050   0.000413  -0.000136   0.000125  -0.000098
    12  H   -0.030320  -0.000036  -0.000059  -0.000233   0.006084  -0.000243
    13  H    0.626507   0.000067   0.001511  -0.000153   0.000660   0.002025
    14  H    0.000067   0.601951  -0.031245  -0.026676  -0.000282  -0.000000
    15  H    0.001511  -0.031245   0.641637  -0.029453  -0.000098   0.004202
    16  H   -0.000153  -0.026676  -0.029453   0.579779  -0.000138   0.000072
    17  H    0.000660  -0.000282  -0.000098  -0.000138   0.506631  -0.032888
    18  H    0.002025  -0.000000   0.004202   0.000072  -0.032888   0.492123
 Mulliken charges:
               1
     1  C   -0.170837
     2  N   -0.473753
     3  C    0.266056
     4  C   -0.310997
     5  C   -0.297782
     6  N   -0.594293
     7  H    0.105938
     8  H    0.078849
     9  H    0.105063
    10  H    0.232175
    11  H    0.101987
    12  H    0.089578
    13  H    0.092213
    14  H    0.101297
    15  H    0.084174
    16  H    0.124537
    17  H    0.228818
    18  H    0.236976
 Sum of Mulliken charges =  -0.00000
 Mulliken charges with hydrogens summed into heavy atoms:
               1
     1  C    0.119014
     2  N   -0.241577
     3  C    0.266056
     4  C   -0.027218
     5  C    0.012226
     6  N   -0.128499
 Electronic spatial extent (au):  <R**2>=            649.1745
 Charge=             -0.0000 electrons
 Dipole moment (field-independent basis, Debye):
    X=             -0.4889    Y=             -1.3402    Z=              1.2785  Tot=              1.9157
 Quadrupole moment (field-independent basis, Debye-Ang):
   XX=            -36.0314   YY=            -38.4644   ZZ=            -42.7540
   XY=              0.3276   XZ=             -0.8895   YZ=              2.6850
 Traceless Quadrupole moment (field-independent basis, Debye-Ang):
   XX=              3.0519   YY=              0.6188   ZZ=             -3.6707
   XY=              0.3276   XZ=             -0.8895   YZ=              2.6850
 Octapole moment (field-independent basis, Debye-Ang**2):
  XXX=             -8.5150  YYY=             -4.6167  ZZZ=              0.5260  XYY=             -2.7456
  XXY=             -1.7685  XXZ=             -2.3313  XZZ=              3.8396  YZZ=             -2.7448
  YYZ=             -3.9752  XYZ=              1.0551
 Hexadecapole moment (field-independent basis, Debye-Ang**3):
 XXXX=           -401.7516 YYYY=           -219.2395 ZZZZ=           -219.2048 XXXY=              6.5915
 XXXZ=             -0.7473 YYYX=              5.8716 YYYZ=              6.1733 ZZZX=             -7.2106
 ZZZY=              7.3800 XXYY=           -108.1085 XXZZ=           -107.9542 YYZZ=            -70.5686
 XXYZ=              4.0867 YYXZ=              5.4512 ZZXY=             -0.5202
 N-N= 2.706047317578D+02 E-N=-1.165491520037D+03  KE= 2.665731687758D+02
 No NMR shielding tensors so no spin-rotation constants.
 Leave Link  601 at Thu Sep  8 15:01:54 2022, MaxMem= 24159191040 cpu:        10.8
 (Enter /public/home/users/caep010/software/Gaussian09/g09/l701.exe)
 Compute integral first derivatives.
 ... and contract with generalized density number  0.
 Leave Link  701 at Thu Sep  8 15:01:55 2022, MaxMem= 24159191040 cpu:        11.9
 (Enter /public/home/users/caep010/software/Gaussian09/g09/l702.exe)
 L702 exits ... SP integral derivatives will be done elsewhere.
 Leave Link  702 at Thu Sep  8 15:01:55 2022, MaxMem= 24159191040 cpu:         0.5
 (Enter /public/home/users/caep010/software/Gaussian09/g09/l703.exe)
 Compute integral first derivatives, UseDBF=F ICtDFT=           0.
 Integral derivatives from FoFJK, PRISM(SPDF).
 Calling FoFJK, ICntrl=      2127 FMM=F ISym2X=0 I1Cent= 0 IOpClX= 0 NMat=1 NMatS=1 NMatT=0.
 FoFJK:  IHMeth= 1 ICntrl=    2127 DoSepK=F KAlg= 0 I1Cent=   0 FoldK=F
 IRaf=         0 NMat=   1 IRICut=       1 DoRegI=T DoRafI=F ISym2E= 0.
 FoFCou: FMM=F IPFlag=           0 FMFlag=      100000 FMFlg1=         800
         NFxFlg=           0 DoJE=F BraDBF=F KetDBF=F FulRan=T
         wScrn=  0.000000 ICntrl=    2127 IOpCl=  0 I1Cent=           0 NGrid=           0
         NMat0=    1 NMatS0=      1 NMatT0=    0 NMatD0=    1 NMtDS0=    0 NMtDT0=    0
 Symmetry not used in FoFCou.
 Leave Link  703 at Thu Sep  8 15:01:55 2022, MaxMem= 24159191040 cpu:        15.9
 (Enter /public/home/users/caep010/software/Gaussian09/g09/l716.exe)
 Dipole        =-1.92364782D-01-5.27259277D-01 5.03015593D-01
 ***** Axes restored to original set *****
 -------------------------------------------------------------------
 Center     Atomic                   Forces (Hartrees/Bohr)
 Number     Number              X              Y              Z
 -------------------------------------------------------------------
      1        6           0.000355645    0.000061447    0.000502912
      2        7           0.001176865    0.001537376   -0.000703357
      3        6          -0.000190793    0.000134958   -0.000080921
      4        6          -0.000195761    0.000073063    0.000057306
      5        6          -0.000073037    0.000308719   -0.000117362
      6        7           0.000253622    0.000241487   -0.000505419
      7        1           0.000076962   -0.000111847   -0.000033413
      8        1           0.000301946   -0.000032356    0.000414269
      9        1           0.000016650    0.000059275   -0.000032412
     10        1          -0.000327216   -0.001844875   -0.000490987
     11        1           0.000008079    0.000034604    0.000161208
     12        1          -0.000025352   -0.000166169    0.000183995
     13        1          -0.000135972    0.000074128    0.000247539
     14        1           0.000128978    0.000100857    0.000026252
     15        1          -0.000215400    0.000169398    0.000056671
     16        1           0.000149947   -0.000157124   -0.000061090
     17        1          -0.000216791   -0.001328432    0.000654576
     18        1          -0.001088372    0.000845492   -0.000279765
 -------------------------------------------------------------------
 Cartesian Forces:  Max     0.001844875 RMS     0.000505821
 Leave Link  716 at Thu Sep  8 15:01:55 2022, MaxMem= 24159191040 cpu:         1.0
 (Enter /public/home/users/caep010/software/Gaussian09/g09/l103.exe)

 GradGradGradGradGradGradGradGradGradGradGradGradGradGradGradGradGradGrad
 Berny optimization.
 FormGI is forming the generalized inverse of G from B-inverse, IUseBI=4.
 Internal  Forces:  Max     0.001929929 RMS     0.000423155
 Search for a local minimum.
 Step number   1 out of a maximum of   93
 All quantities printed in internal units (Hartrees-Bohrs-Radians)
 RMS Force = .42315D-03 SwitMx=.10000D-02 MixMth= 2
 Mixed Optimization -- En-DIIS/RFO-DIIS
 Second derivative matrix not updated -- first step.
 ITU=  0
     Eigenvalues ---    0.00230   0.00293   0.00701   0.00738   0.00987
     Eigenvalues ---    0.02224   0.04382   0.04703   0.05282   0.05306
     Eigenvalues ---    0.05494   0.05533   0.05642   0.06824   0.06964
     Eigenvalues ---    0.07641   0.12197   0.15353   0.16000   0.16000
     Eigenvalues ---    0.16000   0.16000   0.16000   0.16000   0.16000
     Eigenvalues ---    0.16000   0.16000   0.16000   0.16000   0.16218
     Eigenvalues ---    0.23160   0.27972   0.28901   0.33281   0.34045
     Eigenvalues ---    0.34125   0.34135   0.34252   0.34283   0.34307
     Eigenvalues ---    0.34430   0.34540   0.35163   0.35486   0.37818
     Eigenvalues ---    0.44801   0.45170   0.45583
 RFO step:  Lambda=-5.05264744D-05 EMin= 2.30000000D-03
 Linear search not attempted -- first point.
 Iteration  1 RMS(Cart)=  0.00507932 RMS(Int)=  0.00001502
 Iteration  2 RMS(Cart)=  0.00001579 RMS(Int)=  0.00000095
 Iteration  3 RMS(Cart)=  0.00000000 RMS(Int)=  0.00000095
 ITry= 1 IFail=0 DXMaxC= 1.72D-02 DCOld= 1.00D+10 DXMaxT= 3.00D-01 DXLimC= 3.00D+00 Rises=F
 Variable       Old X    -DE/DX   Delta X   Delta X   Delta X     New X
                                 (Linear)    (Quad)   (Total)
    R1        2.74631   0.00111   0.00000   0.00294   0.00294   2.74925
    R2        2.07119  -0.00009   0.00000  -0.00027  -0.00027   2.07092
    R3        2.08561   0.00037   0.00000   0.00111   0.00111   2.08672
    R4        2.06856   0.00000   0.00000   0.00000   0.00000   2.06856
    R5        2.78712   0.00162   0.00000   0.00461   0.00461   2.79173
    R6        1.91305   0.00193   0.00000   0.00423   0.00423   1.91728
    R7        2.92199   0.00069   0.00000   0.00248   0.00248   2.92447
    R8        2.90210   0.00043   0.00000   0.00150   0.00150   2.90360
    R9        2.78193   0.00092   0.00000   0.00259   0.00259   2.78452
   R10        2.06815   0.00011   0.00000   0.00031   0.00031   2.06846
   R11        2.07255   0.00022   0.00000   0.00063   0.00063   2.07318
   R12        2.06908   0.00020   0.00000   0.00059   0.00059   2.06967
   R13        2.06611   0.00016   0.00000   0.00047   0.00047   2.06658
   R14        2.07103   0.00028   0.00000   0.00081   0.00081   2.07184
   R15        2.06428   0.00006   0.00000   0.00017   0.00017   2.06445
   R16        1.92208   0.00147   0.00000   0.00327   0.00327   1.92535
   R17        1.91778   0.00140   0.00000   0.00309   0.00309   1.92087
    A1        1.92118  -0.00003   0.00000  -0.00030  -0.00030   1.92088
    A2        2.02126   0.00055   0.00000   0.00389   0.00389   2.02515
    A3        1.89753  -0.00012   0.00000  -0.00105  -0.00105   1.89648
    A4        1.87299  -0.00020   0.00000  -0.00074  -0.00074   1.87225
    A5        1.86612  -0.00009   0.00000  -0.00151  -0.00151   1.86460
    A6        1.87847  -0.00016   0.00000  -0.00069  -0.00069   1.87778
    A7        2.06749   0.00011   0.00000   0.00054   0.00054   2.06802
    A8        1.94085   0.00000   0.00000   0.00033   0.00033   1.94118
    A9        1.89667  -0.00007   0.00000  -0.00023  -0.00023   1.89643
   A10        1.98040   0.00006   0.00000   0.00088   0.00089   1.98129
   A11        1.89230  -0.00022   0.00000  -0.00125  -0.00125   1.89105
   A12        1.83601   0.00030   0.00000   0.00339   0.00339   1.83939
   A13        1.92390   0.00014   0.00000  -0.00031  -0.00031   1.92359
   A14        1.93912  -0.00027   0.00000  -0.00197  -0.00197   1.93714
   A15        1.88797  -0.00001   0.00000  -0.00067  -0.00067   1.88730
   A16        1.96313   0.00010   0.00000   0.00051   0.00051   1.96364
   A17        1.92833   0.00011   0.00000   0.00075   0.00075   1.92907
   A18        1.92354   0.00023   0.00000   0.00151   0.00151   1.92506
   A19        1.88031  -0.00012   0.00000  -0.00086  -0.00086   1.87945
   A20        1.87951  -0.00019   0.00000  -0.00125  -0.00125   1.87826
   A21        1.88653  -0.00016   0.00000  -0.00080  -0.00080   1.88572
   A22        1.93459   0.00006   0.00000   0.00024   0.00024   1.93483
   A23        1.94131   0.00013   0.00000   0.00122   0.00122   1.94253
   A24        1.90915  -0.00027   0.00000  -0.00195  -0.00195   1.90720
   A25        1.87841  -0.00004   0.00000   0.00024   0.00024   1.87865
   A26        1.89122   0.00003   0.00000  -0.00060  -0.00060   1.89062
   A27        1.90820   0.00010   0.00000   0.00085   0.00085   1.90905
   A28        1.91574  -0.00002   0.00000   0.00074   0.00074   1.91647
   A29        1.91605   0.00008   0.00000   0.00137   0.00137   1.91742
   A30        1.84917   0.00013   0.00000   0.00256   0.00256   1.85173
    D1       -1.04503  -0.00010   0.00000  -0.00080  -0.00080  -1.04584
    D2        3.02281  -0.00010   0.00000  -0.00127  -0.00127   3.02155
    D3        1.08286   0.00002   0.00000   0.00083   0.00083   1.08369
    D4       -1.13248   0.00002   0.00000   0.00037   0.00037  -1.13211
    D5       -3.08375   0.00010   0.00000   0.00180   0.00180  -3.08195
    D6        0.98410   0.00010   0.00000   0.00134   0.00134   0.98543
    D7       -0.68315  -0.00003   0.00000   0.00575   0.00575  -0.67740
    D8        1.46042   0.00003   0.00000   0.00503   0.00503   1.46545
    D9       -2.80626   0.00007   0.00000   0.00538   0.00537  -2.80089
   D10        1.55306   0.00000   0.00000   0.00645   0.00645   1.55951
   D11       -2.58656   0.00007   0.00000   0.00573   0.00573  -2.58083
   D12       -0.57006   0.00010   0.00000   0.00608   0.00608  -0.56398
   D13        1.09990  -0.00013   0.00000  -0.00450  -0.00450   1.09539
   D14       -1.00200  -0.00012   0.00000  -0.00427  -0.00426  -1.00626
   D15       -3.08575  -0.00015   0.00000  -0.00470  -0.00470  -3.09045
   D16       -1.02614   0.00001   0.00000  -0.00327  -0.00327  -1.02941
   D17       -3.12803   0.00002   0.00000  -0.00304  -0.00303  -3.13107
   D18        1.07140  -0.00000   0.00000  -0.00347  -0.00347   1.06793
   D19       -3.11883   0.00011   0.00000  -0.00095  -0.00095  -3.11979
   D20        1.06246   0.00012   0.00000  -0.00072  -0.00072   1.06174
   D21       -1.02129   0.00009   0.00000  -0.00115  -0.00116  -1.02245
   D22       -1.01177   0.00011   0.00000  -0.00652  -0.00652  -1.01829
   D23       -3.10094   0.00003   0.00000  -0.00779  -0.00779  -3.10874
   D24        1.07257   0.00000   0.00000  -0.00835  -0.00835   1.06422
   D25        1.16566   0.00012   0.00000  -0.00647  -0.00647   1.15919
   D26       -0.92352   0.00005   0.00000  -0.00774  -0.00774  -0.93126
   D27       -3.03319   0.00002   0.00000  -0.00830  -0.00830  -3.04149
   D28       -2.99419  -0.00013   0.00000  -0.00951  -0.00951  -3.00370
   D29        1.19982  -0.00020   0.00000  -0.01078  -0.01078   1.18904
   D30       -0.90986  -0.00023   0.00000  -0.01134  -0.01134  -0.92119
   D31        1.56751  -0.00006   0.00000  -0.00717  -0.00717   1.56034
   D32       -2.68979   0.00013   0.00000  -0.00287  -0.00286  -2.69266
   D33       -0.58226  -0.00017   0.00000  -0.00927  -0.00927  -0.59153
   D34        1.44362   0.00002   0.00000  -0.00497  -0.00496   1.43865
   D35       -2.69619  -0.00018   0.00000  -0.00724  -0.00724  -2.70342
   D36       -0.67031   0.00001   0.00000  -0.00293  -0.00293  -0.67324
         Item               Value     Threshold  Converged?
 Maximum Force            0.001930     0.000450     NO 
 RMS     Force            0.000423     0.000300     NO 
 Maximum Displacement     0.017165     0.001800     NO 
 RMS     Displacement     0.005080     0.001200     NO 
 Predicted change in Energy=-2.529739D-05
 Lowest energy point so far.  Saving SCF results.
 GradGradGradGradGradGradGradGradGradGradGradGradGradGradGradGradGradGrad

 Leave Link  103 at Thu Sep  8 15:01:56 2022, MaxMem= 24159191040 cpu:         3.4
 (Enter /public/home/users/caep010/software/Gaussian09/g09/l202.exe)
                          Input orientation:                          
 ---------------------------------------------------------------------
 Center     Atomic      Atomic             Coordinates (Angstroms)
 Number     Number       Type             X           Y           Z
 ---------------------------------------------------------------------
      1          6           0        2.022958   -0.422861    0.201026
      2          7           0        0.873312   -0.604546   -0.671826
      3          6           0       -0.421995   -0.025069   -0.260898
      4          6           0       -0.698482   -0.145083    1.257029
      5          6           0       -0.450185    1.449848   -0.690679
      6          7           0       -1.439936   -0.749838   -1.041741
      7          1           0        2.229860    0.645230    0.332660
      8          1           0        1.941672   -0.867665    1.208446
      9          1           0        2.902612   -0.858850   -0.283072
     10          1           0        0.733999   -1.584067   -0.896564
     11          1           0        0.031633    0.403341    1.860582
     12          1           0       -0.668948   -1.195694    1.571555
     13          1           0       -1.690833    0.252526    1.495057
     14          1           0        0.380100    2.002154   -0.241774
     15          1           0       -1.381066    1.937844   -0.378662
     16          1           0       -0.355543    1.510697   -1.777329
     17          1           0       -1.741844   -1.578045   -0.530878
     18          1           0       -2.267411   -0.170025   -1.152832
 ---------------------------------------------------------------------
                    Distance matrix (angstroms):
                    1          2          3          4          5
     1  C    0.000000
     2  N    1.454842   0.000000
     3  C    2.519803   1.477321   0.000000
     4  C    2.932326   2.530242   1.547563   0.000000
     5  C    3.227788   2.443878   1.536518   2.529629   0.000000
     6  N    3.693646   2.347140   1.473502   2.489944   2.437513
     7  H    1.095881   2.100275   2.798919   3.170842   2.979476
     8  H    1.104243   2.178542   2.907896   2.737681   3.833865
     9  H    1.094636   2.081792   3.427637   3.981112   4.091147
    10  H    2.052930   1.014582   2.042270   2.959838   3.263330
    11  H    2.720682   2.852604   2.211333   1.094584   2.799331
    12  H    3.118009   2.785818   2.188432   1.097079   3.487758
    13  H    3.990352   3.464794   2.184122   1.095222   2.783923
    14  H    2.962390   2.687581   2.180220   2.832027   1.093586
    15  H    4.182864   3.410560   2.187856   2.734957   1.096373
    16  H    3.648260   2.684488   2.159295   3.473693   1.092460
    17  H    4.005480   2.794031   2.055875   2.517656   3.295763
    18  H    4.506009   3.206917   2.054779   2.875689   2.477879
                    6          7          8          9         10
     6  N    0.000000
     7  H    4.159639   0.000000
     8  H    4.063557   1.771696   0.000000
     9  H    4.409670   1.758971   1.774291   0.000000
    10  H    2.333025   2.952687   2.530370   2.367530   0.000000
    11  H    3.452364   2.687984   2.385160   3.798803   3.470586
    12  H    2.760892   3.650610   2.656085   4.038459   2.865433
    13  H    2.739165   4.108189   3.812095   5.049420   3.869462
    14  H    3.394987   2.364917   3.574564   3.814462   3.662647
    15  H    2.768894   3.900720   4.629296   5.116692   4.140722
    16  H    2.612856   3.447520   4.455182   4.296875   3.397118
    17  H    1.018850   4.632827   4.134994   4.706339   2.502711
    18  H    1.016483   4.805910   4.876341   5.287731   3.327709
                   11         12         13         14         15
    11  H    0.000000
    12  H    1.769538   0.000000
    13  H    1.767270   1.774104   0.000000
    14  H    2.664119   3.822944   3.219711   0.000000
    15  H    3.060169   3.758926   2.539109   1.767648   0.000000
    16  H    3.822373   4.317152   3.751600   1.772183   1.786175
    17  H    3.576338   2.391134   2.730935   4.171816   3.537627
    18  H    3.833408   3.321049   2.742683   3.543685   2.414137
                   16         17         18
    16  H    0.000000
    17  H    3.607741   0.000000
    18  H    2.621080   1.626519   0.000000
 Stoichiometry    C4H12N2
 Framework group  C1[X(C4H12N2)]
 Deg. of freedom    48
 Full point group                 C1      NOp   1
 RotChk:  IX=0 Diff= 1.32D-02
 Largest Abelian subgroup         C1      NOp   1
 Largest concise Abelian subgroup C1      NOp   1
                         Standard orientation:                         
 ---------------------------------------------------------------------
 Center     Atomic      Atomic             Coordinates (Angstroms)
 Number     Number       Type             X           Y           Z
 ---------------------------------------------------------------------
      1          6           0        2.104525    0.037115   -0.032484
      2          7           0        0.856985    0.076670   -0.779909
      3          6           0       -0.415001   -0.000250   -0.032506
      4          6           0       -0.371478   -0.984465    1.160966
      5          6           0       -0.774954    1.411285    0.456261
      6          7           0       -1.425389   -0.414593   -1.021770
      7          1           0        2.148345    0.876741    0.670412
      8          1           0        2.294232   -0.884508    0.545422
      9          1           0        2.936323    0.165824   -0.732324
     10          1           0        0.845649   -0.624691   -1.512945
     11          1           0        0.356687   -0.687750    1.922445
     12          1           0       -0.104333   -1.992107    0.819095
     13          1           0       -1.352785   -1.039238    1.644233
     14          1           0        0.019799    1.819424    1.086912
     15          1           0       -1.698030    1.404560    1.047800
     16          1           0       -0.901706    2.070068   -0.405950
     17          1           0       -1.478860   -1.431482   -1.055444
     18          1           0       -2.345046   -0.093485   -0.731326
 ---------------------------------------------------------------------
 Rotational constants (GHZ):      4.4387956      2.6322785      2.6166935
 Leave Link  202 at Thu Sep  8 15:01:56 2022, MaxMem= 24159191040 cpu:         0.3
 (Enter /public/home/users/caep010/software/Gaussian09/g09/l301.exe)
 Standard basis: 6-31G(d,p) (6D, 7F)
 Ernie: Thresh=  0.10000D-02 Tol=  0.10000D-05 Strict=F.
 There are   150 symmetry adapted cartesian basis functions of A   symmetry.
 There are   150 symmetry adapted basis functions of A   symmetry.
   150 basis functions,   252 primitive gaussians,   150 cartesian basis functions
    25 alpha electrons       25 beta electrons
       nuclear repulsion energy       270.3183766930 Hartrees.
 IExCor=  402 DFT=T Ex+Corr=B3LYP ExCW=0 ScaHFX=  0.200000
 ScaDFX=  0.800000  0.720000  1.000000  0.810000 ScalE2=  1.000000  1.000000
 IRadAn=      0 IRanWt=     -1 IRanGd=            0 ICorTp=0 IEmpDi=  4
 NAtoms=   18 NActive=   18 NUniq=   18 SFac= 1.00D+00 NAtFMM=   60 NAOKFM=F Big=F
 Integral buffers will be    131072 words long.
 Raffenetti 2 integral format.
 Two-electron integral symmetry is turned on.
 Leave Link  301 at Thu Sep  8 15:01:56 2022, MaxMem= 24159191040 cpu:         1.6
 (Enter /public/home/users/caep010/software/Gaussian09/g09/l302.exe)
 NPDir=0 NMtPBC=     1 NCelOv=     1 NCel=       1 NClECP=     1 NCelD=      1
         NCelK=      1 NCelE2=     1 NClLst=     1 CellRange=     0.0.
 One-electron integrals computed using PRISM.
 NBasis=   150 RedAO= T EigKep=  2.83D-03  NBF=   150
 NBsUse=   150 1.00D-06 EigRej= -1.00D+00 NBFU=   150
 Precomputing XC quadrature grid using
 IXCGrd= 4 IRadAn=           0 IRanWt=          -1 IRanGd=           0 AccXCQ= 0.00D+00.
 Generated NRdTot=       0 NPtTot=           0 NUsed=           0 NTot=          32
 NSgBfM=   150   150   150   150   150 MxSgAt=    18 MxSgA2=    18.
 Leave Link  302 at Thu Sep  8 15:01:56 2022, MaxMem= 24159191040 cpu:        11.6
 (Enter /public/home/users/caep010/software/Gaussian09/g09/l303.exe)
 DipDrv:  MaxL=1.
 Leave Link  303 at Thu Sep  8 15:01:56 2022, MaxMem= 24159191040 cpu:         0.7
 (Enter /public/home/users/caep010/software/Gaussian09/g09/l401.exe)
 Initial guess from the checkpoint file:  "B3LYP6-31Gdp.Frag_638.chk"
 B after Tr=     0.000000    0.000000    0.000000
         Rot=    0.999990   -0.004529    0.000239    0.000002 Ang=  -0.52 deg.
 Guess basis will be translated and rotated to current coordinates.
 JPrj=2 DoOrth=T DoCkMO=T.
 Leave Link  401 at Thu Sep  8 15:01:57 2022, MaxMem= 24159191040 cpu:         3.2
 (Enter /public/home/users/caep010/software/Gaussian09/g09/l502.exe)
 Closed shell SCF:
 Using DIIS extrapolation, IDIIS=  1040.
 Integral symmetry usage will be decided dynamically.
 Keep R1 ints in memory in canonical form, NReq=65946871.
 IVT=       91996 IEndB=       91996 NGot= 24159191040 MDV= 24094965570
 LenX= 24094965570 LenY= 24094942629
 Requested convergence on RMS density matrix=1.00D-08 within 128 cycles.
 Requested convergence on MAX density matrix=1.00D-06.
 Requested convergence on             energy=1.00D-06.
 No special actions if energy rises.
 FoFCou: FMM=F IPFlag=           0 FMFlag=           0 FMFlg1=           0
         NFxFlg=           0 DoJE=F BraDBF=F KetDBF=F FulRan=T
         wScrn=  0.000000 ICntrl=     600 IOpCl=  0 I1Cent=           0 NGrid=           0
         NMat0=    1 NMatS0=  11325 NMatT0=    0 NMatD0=    1 NMtDS0=    0 NMtDT0=    0
 Symmetry not used in FoFCou.

 Cycle   1  Pass 1  IDiag  1:
 E= -269.157618288081    
 DIIS: error= 2.89D-04 at cycle   1 NSaved=   1.
 NSaved= 1 IEnMin= 1 EnMin= -269.157618288081     IErMin= 1 ErrMin= 2.89D-04
 ErrMax= 2.89D-04  0.00D+00 EMaxC= 1.00D-01 BMatC= 2.34D-05 BMatP= 2.34D-05
 IDIUse=3 WtCom= 9.97D-01 WtEn= 2.89D-03
 Coeff-Com:  0.100D+01
 Coeff-En:   0.100D+01
 Coeff:      0.100D+01
 Gap=     1.680 Goal=   None    Shift=    0.000
 RMSDP=5.21D-05 MaxDP=9.38D-04              OVMax= 1.72D-03

 Cycle   2  Pass 1  IDiag  1:
 E= -269.157656542175     Delta-E=       -0.000038254094 Rises=F Damp=F
 DIIS: error= 5.02D-05 at cycle   2 NSaved=   2.
 NSaved= 2 IEnMin= 2 EnMin= -269.157656542175     IErMin= 2 ErrMin= 5.02D-05
 ErrMax= 5.02D-05  0.00D+00 EMaxC= 1.00D-01 BMatC= 1.02D-06 BMatP= 2.34D-05
 IDIUse=1 WtCom= 1.00D+00 WtEn= 0.00D+00
 Coeff-Com:  0.852D-02 0.991D+00
 Coeff:      0.852D-02 0.991D+00
 Gap=     0.273 Goal=   None    Shift=    0.000
 RMSDP=1.58D-05 MaxDP=3.37D-04 DE=-3.83D-05 OVMax= 4.21D-04

 Cycle   3  Pass 1  IDiag  1:
 E= -269.157656437577     Delta-E=        0.000000104598 Rises=F Damp=F
 DIIS: error= 5.70D-05 at cycle   3 NSaved=   3.
 NSaved= 3 IEnMin= 2 EnMin= -269.157656542175     IErMin= 2 ErrMin= 5.02D-05
 ErrMax= 5.70D-05  0.00D+00 EMaxC= 1.00D-01 BMatC= 1.34D-06 BMatP= 1.02D-06
 IDIUse=1 WtCom= 1.00D+00 WtEn= 0.00D+00
 Coeff-Com: -0.384D-01 0.556D+00 0.483D+00
 Coeff:     -0.384D-01 0.556D+00 0.483D+00
 Gap=     0.272 Goal=   None    Shift=    0.000
 RMSDP=9.07D-06 MaxDP=1.98D-04 DE= 1.05D-07 OVMax= 2.37D-04

 Cycle   4  Pass 1  IDiag  1:
 E= -269.157657674804     Delta-E=       -0.000001237227 Rises=F Damp=F
 DIIS: error= 9.85D-06 at cycle   4 NSaved=   4.
 NSaved= 4 IEnMin= 4 EnMin= -269.157657674804     IErMin= 4 ErrMin= 9.85D-06
 ErrMax= 9.85D-06  0.00D+00 EMaxC= 1.00D-01 BMatC= 1.75D-08 BMatP= 1.02D-06
 IDIUse=1 WtCom= 1.00D+00 WtEn= 0.00D+00
 Coeff-Com: -0.133D-01 0.152D+00 0.176D+00 0.685D+00
 Coeff:     -0.133D-01 0.152D+00 0.176D+00 0.685D+00
 Gap=     0.272 Goal=   None    Shift=    0.000
 RMSDP=1.29D-06 MaxDP=2.74D-05 DE=-1.24D-06 OVMax= 4.10D-05

 Cycle   5  Pass 1  IDiag  1:
 E= -269.157657689107     Delta-E=       -0.000000014303 Rises=F Damp=F
 DIIS: error= 2.02D-06 at cycle   5 NSaved=   5.
 NSaved= 5 IEnMin= 5 EnMin= -269.157657689107     IErMin= 5 ErrMin= 2.02D-06
 ErrMax= 2.02D-06  0.00D+00 EMaxC= 1.00D-01 BMatC= 1.98D-09 BMatP= 1.75D-08
 IDIUse=1 WtCom= 1.00D+00 WtEn= 0.00D+00
 Coeff-Com: -0.312D-02 0.271D-01 0.449D-01 0.309D+00 0.622D+00
 Coeff:     -0.312D-02 0.271D-01 0.449D-01 0.309D+00 0.622D+00
 Gap=     0.272 Goal=   None    Shift=    0.000
 RMSDP=3.45D-07 MaxDP=8.33D-06 DE=-1.43D-08 OVMax= 1.06D-05

 Cycle   6  Pass 1  IDiag  1:
 E= -269.157657690764     Delta-E=       -0.000000001657 Rises=F Damp=F
 DIIS: error= 7.54D-07 at cycle   6 NSaved=   6.
 NSaved= 6 IEnMin= 6 EnMin= -269.157657690764     IErMin= 6 ErrMin= 7.54D-07
 ErrMax= 7.54D-07  0.00D+00 EMaxC= 1.00D-01 BMatC= 2.16D-10 BMatP= 1.98D-09
 IDIUse=1 WtCom= 1.00D+00 WtEn= 0.00D+00
 Coeff-Com: -0.614D-04-0.416D-02 0.249D-02 0.793D-01 0.305D+00 0.618D+00
 Coeff:     -0.614D-04-0.416D-02 0.249D-02 0.793D-01 0.305D+00 0.618D+00
 Gap=     0.272 Goal=   None    Shift=    0.000
 RMSDP=1.04D-07 MaxDP=2.59D-06 DE=-1.66D-09 OVMax= 3.27D-06

 Cycle   7  Pass 1  IDiag  1:
 E= -269.157657690956     Delta-E=       -0.000000000192 Rises=F Damp=F
 DIIS: error= 1.24D-07 at cycle   7 NSaved=   7.
 NSaved= 7 IEnMin= 7 EnMin= -269.157657690956     IErMin= 7 ErrMin= 1.24D-07
 ErrMax= 1.24D-07  0.00D+00 EMaxC= 1.00D-01 BMatC= 5.18D-12 BMatP= 2.16D-10
 IDIUse=1 WtCom= 1.00D+00 WtEn= 0.00D+00
 Coeff-Com:  0.998D-04-0.265D-02-0.918D-03 0.172D-01 0.894D-01 0.227D+00
 Coeff-Com:  0.670D+00
 Coeff:      0.998D-04-0.265D-02-0.918D-03 0.172D-01 0.894D-01 0.227D+00
 Coeff:      0.670D+00
 Gap=     0.272 Goal=   None    Shift=    0.000
 RMSDP=2.04D-08 MaxDP=4.20D-07 DE=-1.92D-10 OVMax= 6.01D-07

 Cycle   8  Pass 1  IDiag  1:
 E= -269.157657690958     Delta-E=       -0.000000000001 Rises=F Damp=F
 DIIS: error= 4.95D-08 at cycle   8 NSaved=   8.
 NSaved= 8 IEnMin= 8 EnMin= -269.157657690958     IErMin= 8 ErrMin= 4.95D-08
 ErrMax= 4.95D-08  0.00D+00 EMaxC= 1.00D-01 BMatC= 8.41D-13 BMatP= 5.18D-12
 IDIUse=1 WtCom= 1.00D+00 WtEn= 0.00D+00
 Coeff-Com:  0.527D-04-0.906D-03-0.664D-03 0.142D-02 0.162D-01 0.531D-01
 Coeff-Com:  0.325D+00 0.606D+00
 Coeff:      0.527D-04-0.906D-03-0.664D-03 0.142D-02 0.162D-01 0.531D-01
 Coeff:      0.325D+00 0.606D+00
 Gap=     0.272 Goal=   None    Shift=    0.000
 RMSDP=7.18D-09 MaxDP=1.39D-07 DE=-1.48D-12 OVMax= 2.03D-07

 SCF Done:  E(RB3LYP) =  -269.157657691     A.U. after    8 cycles
            NFock=  8  Conv=0.72D-08     -V/T= 2.0098
 KE= 2.665459028636D+02 PE=-1.164902276008D+03 EE= 3.588803387605D+02
 Leave Link  502 at Thu Sep  8 15:01:59 2022, MaxMem= 24159191040 cpu:        42.8
 (Enter /public/home/users/caep010/software/Gaussian09/g09/l701.exe)
 Compute integral first derivatives.
 ... and contract with generalized density number  0.
 Leave Link  701 at Thu Sep  8 15:01:59 2022, MaxMem= 24159191040 cpu:        10.2
 (Enter /public/home/users/caep010/software/Gaussian09/g09/l702.exe)
 L702 exits ... SP integral derivatives will be done elsewhere.
 Leave Link  702 at Thu Sep  8 15:01:59 2022, MaxMem= 24159191040 cpu:         0.5
 (Enter /public/home/users/caep010/software/Gaussian09/g09/l703.exe)
 Compute integral first derivatives, UseDBF=F ICtDFT=           0.
 Integral derivatives from FoFJK, PRISM(SPDF).
 Calling FoFJK, ICntrl=      2127 FMM=F ISym2X=0 I1Cent= 0 IOpClX= 0 NMat=1 NMatS=1 NMatT=0.
 FoFJK:  IHMeth= 1 ICntrl=    2127 DoSepK=F KAlg= 0 I1Cent=   0 FoldK=F
 IRaf=         0 NMat=   1 IRICut=       1 DoRegI=T DoRafI=F ISym2E= 0.
 FoFCou: FMM=F IPFlag=           0 FMFlag=      100000 FMFlg1=         800
         NFxFlg=           0 DoJE=F BraDBF=F KetDBF=F FulRan=T
         wScrn=  0.000000 ICntrl=    2127 IOpCl=  0 I1Cent=           0 NGrid=           0
         NMat0=    1 NMatS0=      1 NMatT0=    0 NMatD0=    1 NMtDS0=    0 NMtDT0=    0
 Symmetry not used in FoFCou.
 Leave Link  703 at Thu Sep  8 15:02:00 2022, MaxMem= 24159191040 cpu:        14.5
 (Enter /public/home/users/caep010/software/Gaussian09/g09/l716.exe)
 Dipole        =-1.89579465D-01-5.33644719D-01 4.95323992D-01
 ***** Axes restored to original set *****
 -------------------------------------------------------------------
 Center     Atomic                   Forces (Hartrees/Bohr)
 Number     Number              X              Y              Z
 -------------------------------------------------------------------
      1        6          -0.000028188   -0.000022864    0.000170652
      2        7           0.000026532    0.000084034   -0.000261159
      3        6          -0.000506916    0.000073743    0.000361262
      4        6           0.000157802   -0.000035875   -0.000106786
      5        6           0.000020756    0.000002813   -0.000155428
      6        7           0.000223700   -0.000028191   -0.000101097
      7        1          -0.000055511    0.000013219   -0.000036461
      8        1          -0.000090716   -0.000009483   -0.000039024
      9        1          -0.000027114   -0.000029756   -0.000058670
     10        1          -0.000071167   -0.000047117    0.000053379
     11        1           0.000034206    0.000016360    0.000042104
     12        1           0.000001299    0.000007307    0.000007229
     13        1           0.000007881    0.000013019   -0.000036535
     14        1           0.000022407   -0.000027734    0.000020302
     15        1           0.000029336   -0.000028713    0.000013494
     16        1           0.000008527   -0.000043195    0.000004457
     17        1           0.000101334    0.000075009    0.000002114
     18        1           0.000145833   -0.000012576    0.000120168
 -------------------------------------------------------------------
 Cartesian Forces:  Max     0.000506916 RMS     0.000115016
 Leave Link  716 at Thu Sep  8 15:02:00 2022, MaxMem= 24159191040 cpu:         0.8
 (Enter /public/home/users/caep010/software/Gaussian09/g09/l103.exe)

 GradGradGradGradGradGradGradGradGradGradGradGradGradGradGradGradGradGrad
 Berny optimization.
 Using GEDIIS/GDIIS optimizer.
 FormGI is forming the generalized inverse of G from B-inverse, IUseBI=4.
 Internal  Forces:  Max     0.000349681 RMS     0.000083493
 Search for a local minimum.
 Step number   2 out of a maximum of   93
 All quantities printed in internal units (Hartrees-Bohrs-Radians)
 RMS Force = .83493D-04 SwitMx=.10000D-02 MixMth= 2
 Mixed Optimization -- En-DIIS/RFO-DIIS
 Swapping is turned off.
 Update second derivatives using D2CorX and points    1    2
 DE= -1.99D-05 DEPred=-2.53D-05 R= 7.88D-01
 TightC=F SS=  1.41D+00  RLast= 3.69D-02 DXNew= 5.0454D-01 1.1057D-01
 Trust test= 7.88D-01 RLast= 3.69D-02 DXMaxT set to 3.00D-01
 ITU=  1  0
     Eigenvalues ---    0.00229   0.00292   0.00659   0.00726   0.00987
     Eigenvalues ---    0.02233   0.04397   0.04714   0.05298   0.05476
     Eigenvalues ---    0.05517   0.05587   0.05676   0.06797   0.07009
     Eigenvalues ---    0.07669   0.12195   0.15388   0.15636   0.16000
     Eigenvalues ---    0.16000   0.16000   0.16000   0.16000   0.16000
     Eigenvalues ---    0.16000   0.16000   0.16000   0.16138   0.16733
     Eigenvalues ---    0.23215   0.28192   0.28981   0.33278   0.34028
     Eigenvalues ---    0.34123   0.34138   0.34235   0.34277   0.34285
     Eigenvalues ---    0.34418   0.34541   0.35001   0.36786   0.38832
     Eigenvalues ---    0.44764   0.44998   0.46220
 En-DIIS/RFO-DIIS IScMMF=        0 using points:     2    1
 RFO step:  Lambda=-1.42497931D-06.
 NNeg= 0 NP= 2 Switch=  2.50D-03 Rises=F DC=  1.99D-05 SmlDif=  1.00D-05
 RMS Error=  0.2516333014D-03 NUsed= 2 EDIIS=F
 DidBck=F Rises=F RFO-DIIS coefs:    0.90985    0.09015
 Iteration  1 RMS(Cart)=  0.00368392 RMS(Int)=  0.00000643
 Iteration  2 RMS(Cart)=  0.00000937 RMS(Int)=  0.00000069
 Iteration  3 RMS(Cart)=  0.00000000 RMS(Int)=  0.00000069
 ITry= 1 IFail=0 DXMaxC= 1.16D-02 DCOld= 1.00D+10 DXMaxT= 3.00D-01 DXLimC= 3.00D+00 Rises=F
 Variable       Old X    -DE/DX   Delta X   Delta X   Delta X     New X
                                 (Linear)    (Quad)   (Total)
    R1        2.74925  -0.00013  -0.00027   0.00022  -0.00004   2.74921
    R2        2.07092   0.00000   0.00002  -0.00005  -0.00002   2.07089
    R3        2.08672  -0.00002  -0.00010   0.00014   0.00004   2.08676
    R4        2.06856   0.00001  -0.00000   0.00004   0.00004   2.06860
    R5        2.79173  -0.00017  -0.00042   0.00042   0.00000   2.79174
    R6        1.91728   0.00004  -0.00038   0.00086   0.00048   1.91776
    R7        2.92447  -0.00013  -0.00022   0.00003  -0.00019   2.92428
    R8        2.90360  -0.00006  -0.00013   0.00008  -0.00005   2.90355
    R9        2.78452  -0.00035  -0.00023  -0.00042  -0.00065   2.78386
   R10        2.06846   0.00005  -0.00003   0.00019   0.00016   2.06862
   R11        2.07318  -0.00000  -0.00006   0.00012   0.00006   2.07324
   R12        2.06967  -0.00001  -0.00005   0.00008   0.00003   2.06970
   R13        2.06658   0.00001  -0.00004   0.00012   0.00008   2.06665
   R14        2.07184  -0.00003  -0.00007   0.00007  -0.00001   2.07184
   R15        2.06445  -0.00001  -0.00002   0.00001  -0.00001   2.06444
   R16        1.92535  -0.00009  -0.00030   0.00042   0.00012   1.92547
   R17        1.92087  -0.00014  -0.00028   0.00029   0.00001   1.92088
    A1        1.92088  -0.00006   0.00003  -0.00040  -0.00038   1.92050
    A2        2.02515  -0.00011  -0.00035   0.00006  -0.00029   2.02486
    A3        1.89648  -0.00005   0.00009  -0.00042  -0.00032   1.89616
    A4        1.87225   0.00008   0.00007   0.00022   0.00029   1.87254
    A5        1.86460   0.00007   0.00014   0.00018   0.00032   1.86492
    A6        1.87778   0.00009   0.00006   0.00039   0.00046   1.87824
    A7        2.06802  -0.00030  -0.00005  -0.00159  -0.00165   2.06638
    A8        1.94118   0.00009  -0.00003  -0.00074  -0.00077   1.94041
    A9        1.89643   0.00005   0.00002  -0.00110  -0.00108   1.89535
   A10        1.98129  -0.00003  -0.00008  -0.00034  -0.00042   1.98087
   A11        1.89105   0.00001   0.00011  -0.00056  -0.00045   1.89060
   A12        1.83939  -0.00013  -0.00031  -0.00110  -0.00141   1.83799
   A13        1.92359   0.00003   0.00003   0.00093   0.00096   1.92455
   A14        1.93714   0.00010   0.00018   0.00068   0.00086   1.93800
   A15        1.88730   0.00001   0.00006   0.00031   0.00037   1.88767
   A16        1.96364   0.00004  -0.00005   0.00034   0.00030   1.96393
   A17        1.92907   0.00001  -0.00007   0.00018   0.00011   1.92918
   A18        1.92506  -0.00006  -0.00014  -0.00010  -0.00024   1.92482
   A19        1.87945  -0.00002   0.00008  -0.00018  -0.00011   1.87934
   A20        1.87826   0.00001   0.00011  -0.00016  -0.00004   1.87821
   A21        1.88572   0.00002   0.00007  -0.00010  -0.00003   1.88569
   A22        1.93483  -0.00005  -0.00002  -0.00028  -0.00030   1.93453
   A23        1.94253  -0.00002  -0.00011   0.00015   0.00004   1.94257
   A24        1.90720  -0.00004   0.00018  -0.00055  -0.00037   1.90683
   A25        1.87865   0.00003  -0.00002   0.00015   0.00013   1.87878
   A26        1.89062   0.00004   0.00005   0.00008   0.00013   1.89075
   A27        1.90905   0.00004  -0.00008   0.00047   0.00040   1.90945
   A28        1.91647  -0.00011  -0.00007  -0.00070  -0.00077   1.91570
   A29        1.91742  -0.00018  -0.00012  -0.00099  -0.00111   1.91631
   A30        1.85173   0.00009  -0.00023   0.00052   0.00029   1.85202
    D1       -1.04584  -0.00004   0.00007  -0.00201  -0.00194  -1.04778
    D2        3.02155   0.00007   0.00011   0.00172   0.00183   3.02338
    D3        1.08369  -0.00007  -0.00007  -0.00200  -0.00207   1.08162
    D4       -1.13211   0.00005  -0.00003   0.00173   0.00170  -1.13041
    D5       -3.08195  -0.00006  -0.00016  -0.00176  -0.00193  -3.08387
    D6        0.98543   0.00005  -0.00012   0.00197   0.00185   0.98728
    D7       -0.67740   0.00007  -0.00052   0.00677   0.00625  -0.67114
    D8        1.46545   0.00010  -0.00045   0.00733   0.00687   1.47232
    D9       -2.80089   0.00005  -0.00048   0.00688   0.00639  -2.79450
   D10        1.55951  -0.00001  -0.00058   0.00331   0.00273   1.56224
   D11       -2.58083   0.00002  -0.00052   0.00387   0.00335  -2.57748
   D12       -0.56398  -0.00004  -0.00055   0.00341   0.00287  -0.56111
   D13        1.09539   0.00004   0.00041  -0.00102  -0.00062   1.09478
   D14       -1.00626   0.00003   0.00038  -0.00115  -0.00076  -1.00702
   D15       -3.09045   0.00004   0.00042  -0.00107  -0.00064  -3.09109
   D16       -1.02941   0.00003   0.00029  -0.00075  -0.00045  -1.02987
   D17       -3.13107   0.00002   0.00027  -0.00087  -0.00060  -3.13167
   D18        1.06793   0.00003   0.00031  -0.00079  -0.00048   1.06745
   D19       -3.11979  -0.00007   0.00009  -0.00218  -0.00210  -3.12189
   D20        1.06174  -0.00008   0.00006  -0.00231  -0.00224   1.05950
   D21       -1.02245  -0.00007   0.00010  -0.00223  -0.00212  -1.02457
[...]
 021834,-0.2001555,-0.1827026,-0.6680037,0.0515567,-0.017895,-0.0063397
 ,-0.0696797,-0.1485181,-0.028218,-0.046265,-0.0139187,0.0240435,-0.041
 8465,-0.0165096,0.0003858,-0.0159604,-0.0162184,0.0946314,-0.1133568,0
 .1034437,-0.2396688,-0.1417172,0.0667878,0.0466726,0.1020085,0.0339841
 ,-0.0230445,0.068622,-0.0415107,0.0026348,0.0790139,-0.0427623,-0.0546
 462,0.0029176,-0.0166723,-0.0503118,-0.0367857,0.066181,0.2490531,-0.0
 294538,-0.0746219,-0.0981669,-0.0793327,0.0013741,-0.0516168,-0.080974
 3,-0.0468117,-0.0447533,0.0516777,0.0044388,0.0019791,-0.0007306,-0.15
 96288,0.0760118,-0.0051797,0.0394848,-0.0079269,-0.1399781,0.0706017,0
 .0622676,0.0754487,0.0243659,-0.0200904,0.0444209,-0.0120099,0.0295675
 ,-0.0509626,-0.0915532,-0.0586321,-0.0754385,0.0056881,-0.0246259,-0.0
 729557,-0.0498841,0.0196711,-0.127722,0.1064541,0.0448214,0.0698237,-0
 .013754,-0.0061759,0.0605681,-0.0241741,0.0325924,0.062863,0.0082043,0
 .0152977,-0.0020086,0.0456934,0.0103648,0.0124176,0.0473513,-0.1161829
 ,0.1147847,-0.0603788,-0.0200048,-0.0406786,0.0631645,0.1023435,0.0406
 625,0.1797898,0.1642058,0.0147522,0.0605889,-0.0284172,0.0898075,0.095
 1884,0.0044312,0.1135895,-0.0260095,0.2621211\Polar=64.2004817,-1.7740
 294,57.248767,2.6548021,-0.4536095,53.5146647\PG=C01 [X(C4H12N2)]\NIma
 g=0\\0.52782391,-0.01736071,0.58311773,-0.04430785,0.01577790,0.522396
 10,-0.16892541,0.00683336,-0.08621143,0.49321969,-0.01483970,-0.098644
 50,-0.03925951,-0.00435369,0.61944428,-0.05346131,-0.01958298,-0.12374
 142,0.09744032,0.17219134,0.26100476,-0.03030214,0.00144788,0.00565647
 ,-0.14251017,0.05616844,0.01272700,0.48003385,0.00103922,0.00413499,0.
 00939156,0.01590645,-0.11016536,-0.02179221,0.00130488,0.53006621,-0.0
 1707523,0.01332921,0.00375193,0.03313552,-0.04479149,-0.08668750,0.014
 79891,-0.00544763,0.47457391,0.00138799,0.00173569,0.00358655,-0.01993
 222,0.00474352,0.03375659,-0.07733248,-0.00170932,0.01624002,0.5783276
 7,0.00009825,-0.00088450,-0.00142207,0.00900393,0.00179225,-0.01618992
 ,-0.00129481,-0.08297533,0.01827328,-0.00382189,0.57841826,0.00122532,
 -0.00058201,0.00078524,0.01310275,-0.00223459,-0.00932235,0.01084545,0
 .01211020,-0.15157970,0.02849854,0.01146477,0.45185440,0.00142047,0.00
 209252,0.00075590,-0.00942592,0.03679212,-0.00059394,-0.07545627,-0.00
 136573,-0.00349964,0.00324441,-0.00406978,0.00164178,0.58371943,0.0002
 7604,0.00035584,0.00070650,0.01416809,-0.02104971,-0.00181983,-0.00712
 920,-0.16501005,0.02973741,-0.00177408,-0.00554676,0.00836196,0.007052
 74,0.47792047,-0.00008166,0.00006603,-0.00043954,0.00233582,-0.0100410
 0,0.00295704,-0.00241625,0.03589821,-0.08977996,0.00124543,0.03509103,
 -0.01461022,-0.00178884,0.03757125,0.58478389,-0.00331533,0.00200954,0
 .00347943,-0.04752458,-0.01681345,-0.02399124,-0.12814190,-0.03832577,
 -0.07340378,-0.00357534,-0.00460991,-0.00765844,-0.00490434,-0.0077766
 2,-0.00173752,0.57155312,0.00207828,0.00038098,-0.00179113,0.01098572,
 0.00658624,0.00786140,-0.02017457,-0.12155303,-0.03008614,-0.00599873,
 -0.00255287,-0.00639921,-0.03098308,-0.02824165,-0.01893839,-0.0327627
 2,0.60494436,-0.00103414,0.00015020,0.00069998,-0.00778902,0.00188777,
 0.00515887,-0.02348490,-0.00968873,-0.10543725,-0.03351334,-0.02424548
 ,-0.02896697,0.00546205,0.00224173,0.00504809,0.07254145,-0.14792880,0
 .26095526,-0.05504775,-0.03743492,-0.00360545,-0.00683487,-0.03019531,
 -0.00991465,0.00082691,-0.00225918,0.00042480,-0.00053407,-0.00012598,
 -0.00004425,-0.00039278,-0.00009834,-0.00055282,-0.00017152,0.00067234
 ,-0.00000741,0.06107446,-0.04236501,-0.29781787,-0.02639113,-0.0046680
 0,-0.00141255,-0.00519342,0.00165073,-0.00080637,-0.00112186,-0.000392
 78,-0.00018665,-0.00021806,-0.00036208,-0.00027209,0.00030544,-0.00046
 013,0.00035920,0.00003672,0.04899071,0.32246964,-0.00454334,-0.0218121
 9,-0.05238428,-0.00505569,-0.02471829,-0.00609126,0.00063731,-0.000588
 18,0.00040353,-0.00004154,0.00079825,0.00010616,-0.00030198,-0.0001352
 4,-0.00010116,-0.00012400,0.00038933,-0.00021090,0.01219166,0.03155890
 ,0.05742754,-0.05664138,-0.01319189,0.02774131,-0.00330714,0.01152253,
 -0.03218980,0.00485069,-0.00080903,-0.00347519,-0.00090208,0.00060004,
 0.00071861,-0.00040767,0.00006546,0.00020709,-0.00027594,-0.00005552,0
 .00054270,-0.00019220,-0.00079773,0.00474182,0.06001282,-0.01344877,-0
 .09542512,0.08618730,0.00308009,0.00690377,-0.00560239,-0.00047299,0.0
 0035009,0.00126416,0.00008902,0.00067215,0.00033705,-0.00017144,-0.000
 43854,-0.00018818,0.00011921,-0.00006248,-0.00035195,-0.00564825,-0.01
 354791,0.02950474,0.01381333,0.09500549,0.02888129,0.08832952,-0.23380
 138,-0.01479751,0.00437525,-0.02341035,0.00518629,-0.00291642,-0.00185
 248,-0.00042470,-0.00000040,0.00021149,-0.00047180,0.00002961,0.000280
 78,-0.00060540,0.00019236,0.00053478,0.00110260,-0.00073032,0.00353682
 ,-0.02268008,-0.09722750,0.26540792,-0.20883487,0.08244378,0.09513236,
 -0.02905434,0.01444032,0.00633949,0.00012187,-0.00405154,-0.00284009,0
 .00029435,0.00015459,-0.00038471,0.00001268,-0.00032358,0.00005798,-0.
 00161951,0.00059817,-0.00059629,0.00617153,-0.00194671,-0.00301206,-0.
 00247280,0.00166026,0.00372807,0.23575541,0.08594798,-0.09261949,-0.04
 884062,-0.00549883,0.00296574,0.00231512,-0.00136980,0.00019223,-0.000
 16059,-0.00016415,-0.00002669,-0.00026082,-0.00010452,-0.00007245,-0.0
 0017198,-0.00006404,0.00012446,-0.00008783,0.02560747,-0.01147212,-0.0
 1485892,-0.01210110,0.00620924,0.00734984,-0.09260928,0.09376120,0.100
 97063,-0.05143126,-0.10649777,-0.02330644,0.01220697,0.00920904,-0.001
 76766,-0.00171739,-0.00227763,0.00003736,-0.00050882,-0.00055221,-0.00
 009981,-0.00023278,0.00013989,-0.00102287,0.00038738,-0.00001709,0.001
 75351,-0.00027601,-0.00181377,0.02213212,-0.01256826,-0.01306024,-0.09
 933645,0.05381465,0.11327848,-0.00465875,-0.03106541,-0.00479520,-0.06
 284576,-0.05249327,-0.02321012,0.00148066,0.03493547,0.00848210,-0.001
 14876,0.00048019,-0.00086203,-0.00527440,0.00130965,0.00170716,0.00168
 058,0.00000895,0.00071765,-0.00516884,-0.00068496,-0.00449319,0.000755
 78,0.00073786,-0.00030606,0.00027868,-0.00001234,0.00068680,0.07605482
 ,0.00183429,-0.00206679,0.00641950,-0.04328464,-0.40516831,-0.10864517
 ,-0.00596700,-0.01672534,0.00326953,-0.00071479,0.00057757,0.00029152,
 0.00418011,-0.00026045,-0.00196300,-0.00179275,0.00326926,-0.00081419,
 -0.00109571,0.00174774,-0.00048032,0.00086078,0.00101598,0.00035375,-0
 .00041750,0.00031833,-0.00015761,0.04629920,0.41758575,-0.00789710,-0.
 02307126,-0.01053991,-0.01514464,-0.06782312,-0.02623510,0.00366006,-0
 .01253900,-0.00558352,0.00096572,-0.00125874,0.00043488,-0.00155305,0.
 00158092,0.00008252,-0.00113144,-0.00011161,-0.00046838,-0.00205467,0.
 00101503,-0.00087678,0.00081775,-0.00107251,0.00046861,0.00054034,0.00
 067263,0.00080381,0.02152837,0.10055476,0.04284624,-0.00160928,0.00092
 960,0.00072615,0.00027152,-0.00013734,-0.00092961,0.00410401,0.0037810
 1,0.00212754,-0.16724386,-0.09060100,-0.09573143,0.00002866,0.00006685
 ,-0.00006548,0.00195168,0.00000857,0.00039973,-0.00004748,0.00005709,0
 .00010488,-0.00111618,0.00041635,0.00095141,-0.00009399,0.00000812,0.0
 0029725,-0.00002438,0.00007171,-0.00013116,0.18128199,-0.00093452,0.00
 084892,-0.00125201,0.00084120,-0.00020587,-0.00022523,0.00220066,0.000
 17869,0.00180401,-0.08949796,-0.11558007,-0.07151401,0.00032074,0.0002
 3399,0.00014862,-0.00009210,0.00155888,0.00087569,0.00003488,0.0000727
 7,-0.00003870,0.00048890,-0.00085785,0.00060059,-0.00000056,-0.0000832
 0,0.00055396,-0.00002486,0.00012189,0.00007781,0.09896617,0.12132269,-
 0.00010872,-0.00051478,-0.00016902,0.00026857,0.00071591,0.00095026,-0
 .02410765,-0.01580152,-0.00953719,-0.09474056,-0.07137417,-0.12647326,
 -0.00024081,-0.00092935,0.00140323,-0.00078183,-0.00148036,-0.01006603
 ,0.00044459,0.00047736,-0.00024062,0.00072195,-0.00044789,0.00016430,0
 .00016405,0.00020837,0.00044160,-0.00016266,0.00011632,0.00004693,0.10
 561402,0.07850548,0.13442439,-0.00010663,-0.00070716,0.00042307,0.0004
 5265,-0.00024430,-0.00074458,-0.00118701,-0.00718731,0.00153942,-0.048
 30436,0.00771641,-0.00238314,-0.00004366,0.00043381,0.00139657,-0.0004
 4796,0.00076640,-0.00039794,0.00010149,0.00019666,0.00002426,-0.000427
 47,0.00003914,-0.00039715,0.00003643,0.00019769,-0.00019821,0.00006377
 ,0.00008166,0.00041200,0.00087403,-0.02130354,0.00713387,0.04728701,0.
 00011674,-0.00019420,0.00067007,-0.00022627,0.00140291,-0.00001637,0.0
 0007668,-0.00506822,-0.00110463,0.00726230,-0.28709955,0.06772779,-0.0
 0016402,0.00154732,0.00157238,0.00017232,0.00185462,-0.00009801,0.0001
 4470,0.00023082,-0.00018051,-0.00027320,0.00009327,-0.00053595,-0.0000
 2827,0.00014395,-0.00012799,-0.00045227,0.00008316,0.00044916,0.001617
 11,-0.01480401,0.00454890,-0.00808529,0.31150664,0.00071676,-0.0001857
 7,0.00056667,-0.00200136,-0.00120346,0.00265799,-0.00233102,0.03323392
 ,-0.00898256,-0.00262721,0.06769415,-0.06715781,0.00094579,-0.00108894
 ,-0.00691823,0.00172067,0.00081104,0.00250707,-0.00009185,-0.00000417,
 -0.00006433,0.00043169,0.00022674,-0.00008471,0.00003475,0.00005235,0.
 00000367,0.00035517,-0.00044994,-0.00068936,0.00175912,-0.01733217,0.0
 0517664,0.00245353,-0.07562287,0.07226362,0.00062047,0.00036913,0.0003
 8388,0.00004411,-0.00049463,0.00174334,-0.00702632,0.00236488,-0.00185
 036,-0.26504275,0.08740248,0.04952354,-0.00032708,0.00044286,-0.000220
 33,0.00173168,-0.00050940,-0.00096051,0.00000183,0.00008746,-0.0001263
 5,0.00032671,-0.00030801,0.00005441,-0.00000748,-0.00000359,0.00023381
 ,-0.00014566,-0.00013897,0.00007831,-0.01870475,0.00845656,0.00478713,
 0.00050584,-0.00067508,-0.00057975,0.28651418,-0.00040985,-0.00002296,
 -0.00008246,0.00020392,0.00191192,-0.00035410,-0.00265074,-0.00048498,
 0.00027631,0.08786627,-0.08322938,-0.01909227,-0.00041740,-0.00012720,
 0.00011751,-0.00071725,-0.00007900,0.00015431,0.00009330,0.00017630,-0
 .00012506,-0.00025568,-0.00026526,-0.00000686,0.00005254,0.00005284,0.
 00011543,-0.00023518,-0.00001635,0.00058649,-0.01578577,0.00644362,0.0
 0440255,0.02861829,-0.01016231,-0.00699330,-0.09662171,0.08619284,-0.0
 0269552,0.00002341,-0.00167010,0.00430790,-0.00016385,-0.00779694,0.02
 901650,-0.01313785,-0.00488849,0.04831446,-0.01899155,-0.05703213,-0.0
 0006389,-0.00061897,0.00091731,-0.00013554,0.00129481,0.00336342,0.000
 16131,0.00015088,0.00005715,-0.00011265,-0.00035532,0.00125349,0.00009
 585,-0.00008858,0.00044406,0.00050054,0.00033296,-0.00040870,-0.015833
 56,0.00776249,0.00375290,-0.00876612,0.00254398,0.00114109,-0.05363538
 ,0.02112561,0.06197214,-0.00044916,0.00068964,-0.00027036,0.00024879,-
 0.00035930,0.00014926,-0.00019035,0.00147250,0.00044309,-0.00027019,-0
 .00017573,-0.00014292,-0.20316326,-0.10234992,-0.08524033,0.00039815,0
 .00032389,0.00047944,-0.00029630,0.00067911,-0.00016718,0.00005286,-0.
 00000602,0.00007560,0.00005303,0.00003259,0.00007709,0.00005927,-0.000
 15827,0.00004908,0.00036000,-0.00000844,0.00038070,0.00014852,0.000097
 03,0.00021804,0.00007668,-0.00009767,-0.00008296,0.21907498,-0.0002126
 5,-0.00110358,0.00008544,0.00001874,0.00191950,0.00024405,-0.02540218,
 -0.01221172,-0.01556641,0.00020405,0.00086075,-0.00109195,-0.10017103,
 -0.11350019,-0.05413467,0.00032117,-0.00693485,0.00299697,0.00104595,0
 .00012754,0.00041066,0.00010734,0.00018742,0.00010022,0.00012886,0.000
 38382,0.00007314,-0.00018650,0.00041676,-0.00031538,0.00015571,0.00016
 638,0.00085852,0.00033358,0.00015764,-0.00002982,0.00012627,-0.0000334
 4,0.00002175,0.11089822,0.12260415,-0.00023136,-0.00003233,0.00001690,
 0.00012177,-0.00069441,-0.00018581,0.00852532,0.00393930,0.00273659,0.
 00048689,-0.00017788,0.00042574,-0.08568506,-0.05510853,-0.09409656,0.
 00020775,0.00171990,0.00048723,-0.00014720,0.00036947,0.00026644,0.000
 04380,0.00017411,0.00001225,0.00002488,-0.00001329,0.00000195,0.000151
 94,-0.00002718,-0.00004739,-0.00006081,0.00032712,-0.00026666,-0.00010
 536,-0.00020956,0.00012711,0.00005697,0.00011909,-0.00003485,0.0943753
 5,0.05927552,0.09804891,0.00039489,-0.00004910,0.00036554,0.00086500,0
 .00101581,-0.00034127,-0.00233100,-0.00257027,0.00060829,-0.00019914,-
 0.00011298,0.00026922,-0.23638572,0.09670488,0.06303617,0.00092871,-0.
 00039750,-0.00011783,0.00033246,-0.00009710,0.00019095,-0.00011917,0.0
 0006004,-0.00013921,-0.00000929,0.00012949,-0.00000516,-0.00005606,0.0
 0041118,-0.00043560,-0.00010726,0.00012025,0.00003168,0.00030736,-0.00
 013328,-0.00021339,0.00072796,-0.00014180,-0.00025962,-0.02026567,0.01
 131495,0.00773220,0.25643738,-0.00097509,-0.00074078,-0.00075886,0.001
 28265,-0.00746158,-0.00014524,0.02672380,-0.00882280,-0.01106498,0.000
 25928,0.00080046,-0.00065625,0.09465177,-0.09789722,-0.03083193,0.0010
 1922,0.00177922,0.00061300,0.00012098,0.00036766,0.00020379,0.00027232
 ,0.00007142,0.00039230,0.00014509,0.00003843,0.00011282,0.00181685,-0.
 00127246,0.00099932,-0.00005871,-0.00002858,0.00007129,-0.00034553,0.0
 0029107,-0.00023933,-0.00053709,-0.00008746,0.00079474,-0.01408125,0.0
 0780346,0.00581085,-0.10644655,0.10535834,-0.00016927,-0.00010756,0.00
 022945,0.00014861,0.00147855,0.00111761,-0.00865978,0.00329445,0.00105
 941,-0.00019290,0.00019226,-0.00008640,0.06461604,-0.03208659,-0.07150
 935,-0.00009678,-0.00074950,-0.00012084,0.00021211,-0.00003797,0.00001
 656,0.00011644,0.00007276,0.00008658,-0.00001268,0.00002281,-0.0000221
 8,-0.00051576,0.00030708,0.00015710,-0.00013031,0.00004172,-0.00011887
 ,-0.00001548,-0.00027299,0.00012706,-0.00001064,0.00055905,-0.00021729
 ,-0.01206943,0.00704932,0.00360017,-0.07077417,0.03494411,0.07130565,-
 0.00058902,-0.00014505,-0.00030711,0.00009392,-0.00022501,-0.00051258,
 -0.00113425,-0.00014820,0.00005844,-0.00005734,-0.00034283,-0.00003806
 ,-0.05074157,-0.00088575,0.02404940,0.00024135,0.00008081,0.00022531,0
 .00011708,0.00018013,-0.00006369,0.00001905,0.00006429,0.00009365,-0.0
 0000212,0.00010629,-0.00001271,0.00008310,-0.00002073,-0.00001570,0.00
 006697,0.00006244,0.00027021,0.00058791,-0.00004969,0.00015911,0.00031
 076,0.00004529,-0.00033821,0.00298058,0.00228875,-0.02563193,-0.001206
 78,-0.00250643,0.02785917,0.04975333,0.00023805,0.00004431,0.00005233,
 -0.00147713,0.00214626,-0.00076965,-0.00291293,-0.00273787,0.03463279,
 0.00036575,-0.00655690,0.00044091,-0.00027021,-0.04732635,0.00899359,0
 .00078998,0.00233830,-0.00050938,-0.00001694,0.00002284,-0.00000841,-0
 .00022549,0.00004745,-0.00026851,0.00002934,0.00005386,-0.00001213,-0.
 00006498,0.00010342,-0.00002730,0.00018642,0.00003590,-0.00015035,-0.0
 0045770,-0.00032131,0.00224219,-0.00020904,0.00002425,-0.00014130,0.00
 277849,0.00063612,-0.01607970,-0.00023189,0.00007739,-0.01400927,0.001
 49354,0.05095179,-0.00033352,-0.00005568,-0.00011141,0.00008293,-0.001
 19163,0.00158898,0.00149425,-0.00014198,-0.01152513,-0.00037458,0.0028
 9679,0.00068433,0.02339334,0.01275528,-0.31812116,-0.00015963,-0.00127
 152,0.00138253,0.00013026,0.00004863,-0.00009206,0.00014420,-0.0000750
 8,0.00018707,-0.00003916,0.00007399,0.00001132,-0.00010777,0.00001647,
 0.00008701,-0.00000005,-0.00019210,0.00029412,0.00021944,0.00026556,-0
 .00061513,-0.00004003,-0.00016377,0.00023411,0.00174286,0.00080710,-0.
 01129054,-0.00014779,0.00031453,-0.00570324,-0.02626351,-0.01430236,0.
 34314851,-0.00052495,0.00076307,-0.00032847,0.00043500,-0.00100379,-0.
 00115239,-0.00518241,-0.02148264,0.01815856,0.00074106,-0.00035194,0.0
 0098690,-0.00312998,-0.00115677,-0.00252160,-0.08390688,-0.09708843,0.
 03609390,0.00028737,0.00009509,0.00018013,-0.00007972,-0.00005887,-0.0
 0002284,-0.00009070,0.00000254,-0.00005654,-0.00167201,0.00072872,0.00
 059426,-0.00015052,0.00038861,0.00007710,0.00010236,0.00065386,-0.0010
 1166,-0.00002257,0.00039928,-0.00001506,0.00050056,-0.00139917,0.00003
 933,0.00024415,-0.00028081,-0.00014474,-0.00010854,0.00041711,-0.00009
 551,0.08406197,-0.00009797,-0.00031480,0.00022315,0.00010956,0.0007077
 7,-0.00049567,-0.00546657,-0.01857411,0.01113599,0.00212343,0.00247717
 ,0.00140202,-0.00453613,-0.00103322,-0.00335586,-0.07214750,-0.2837756
 4,0.14353373,-0.00000300,0.00000985,0.00000907,-0.00002205,0.00010221,
 -0.00002993,0.00003313,0.00001739,-0.00006224,0.00008544,0.00008113,0.
 00017959,0.00036973,0.00059881,0.00107038,-0.00011212,0.00031120,-0.00
 114857,0.00016576,-0.00051882,-0.00058565,-0.00003308,-0.00131881,0.00
 041349,0.00019595,0.00030051,0.00003474,0.00014580,0.00032154,-0.00010
 145,0.08833544,0.31971174,0.00009503,-0.00042672,0.00024426,0.00168701
 ,-0.00007816,-0.00054391,-0.00935213,-0.02318223,0.00417484,0.00030918
 ,-0.00246547,0.00156850,-0.00275185,-0.00193392,-0.00198155,0.03737273
 ,0.19492477,-0.12458309,-0.00009297,-0.00006577,-0.00005255,-0.0000472
 4,0.00009509,-0.00005429,0.00006693,0.00002673,-0.00005595,0.00137106,
 0.00038025,0.00048722,0.00022593,0.00030222,0.00038952,-0.00055507,0.0
 0061163,-0.00017495,0.00014100,-0.00021510,-0.00027940,-0.00027071,-0.
 00118888,0.00083348,-0.00000105,0.00007723,-0.00005268,-0.00023166,-0.
 00022634,0.00030070,-0.03370680,-0.16642793,0.12522774,-0.00064306,0.0
 0064004,0.00157521,-0.00527027,-0.00352295,-0.00511450,-0.02062369,0.0
 1910457,0.00612761,0.00054714,0.00005097,0.00043287,0.00122701,0.00097
 388,0.00058921,-0.30460197,0.17244681,-0.04856088,-0.00022730,-0.00016
 247,-0.00014199,-0.00007616,0.00003477,-0.00022858,-0.00053888,-0.0001
 0451,-0.00038272,0.00053797,-0.00087729,-0.00028254,0.00015884,-0.0000
 1843,0.00024835,0.00004974,-0.00005338,0.00006159,0.00041638,0.0000541
 7,-0.00045805,0.00068151,0.00042793,0.00009554,0.00044219,-0.00106050,
 -0.00016041,-0.00041443,-0.00043238,0.00035429,0.00849581,-0.00914581,
 0.00574061,0.31983916,-0.00098457,0.00095182,0.00028403,-0.00292514,-0
 .00167275,-0.00177975,-0.01673228,0.01021297,-0.00437894,-0.00057563,-
 0.00095991,-0.00008705,-0.00247458,0.00071829,-0.00013902,0.17113080,-
 0.17999598,0.03123425,0.00016731,-0.00006879,0.00007107,0.00000099,-0.
 00006133,-0.00000755,-0.00030864,0.00001245,-0.00016984,-0.00045386,0.
 00018872,0.00010321,-0.00005163,-0.00002297,-0.00027667,0.00005932,0.0
 0002702,0.00003794,0.00008211,0.00022540,0.00003244,0.00029822,-0.0001
 6095,0.00019403,0.00022792,-0.00057708,-0.00073296,-0.00014365,0.00013
 900,0.00031724,0.03103872,-0.01910393,-0.00020741,-0.17835541,0.190148
 02,0.00005000,0.00012627,0.00066430,0.00167488,-0.00065630,-0.00062990
 ,-0.02042817,0.00908549,-0.00856881,-0.00152591,0.00022398,-0.00028967
 ,0.00023579,0.00096950,0.00194498,-0.00447355,0.00117567,-0.01026667,0
 .00009041,0.00007628,0.00011350,0.00014549,0.00002715,0.00011937,0.000
 03675,-0.00005385,-0.00003696,-0.00104799,0.00049528,-0.00056517,0.000
 67638,-0.00044549,-0.00017222,-0.00003911,-0.00022059,0.00011613,0.000
 42096,-0.00042344,-0.00080775,0.00025339,0.00040442,-0.00063495,0.0002
 0101,-0.00063740,0.00013126,0.00069986,0.00014289,-0.00046000,-0.01707
 458,0.01420516,-0.00544789,0.04010441,-0.02449503,0.02479046\\-0.00001
 954,0.00000325,-0.00002284,-0.00000354,-0.00000603,0.00004481,0.000024
 83,-0.00001293,-0.00002625,-0.00000332,-0.00000260,0.00000738,-0.00000
 523,0.00000185,0.00000545,0.00000249,0.00000443,-0.00000381,0.00000040
 ,0.00000518,0.00000860,0.00000216,0.00000056,0.00000661,0.00000379,0.0
 0000795,0.00000530,0.00000605,0.00001719,-0.00001433,-0.00000344,-0.00
 000521,0.00000036,-0.00000086,-0.00000603,-0.00000415,-0.00000281,-0.0
 0000852,-0.00000250,-0.00000281,0.00000065,0.00000637,-0.00000434,-0.0
 0000094,0.00000127,0.00000018,0.00000711,0.00000204,0.00000570,-0.0000
 0446,-0.00000803,0.00000029,-0.00000146,-0.00000630\\\@


 IF YOU WANT TO LEARN FROM THE THEORETICAL PHYSICISTS ABOUT THE
 METHODS WHICH THEY USE, I ADVISE YOU TO FOLLOW THIS PRINCIPLE VERY STRICTLY:
 DON'T LISTEN TO THEIR WORDS; PAY ATTENTION, INSTEAD, TO THEIR ACTIONS.
 -- A.EINSTEIN, 1934
 Job cpu time:       0 days  0 hours  7 minutes 34.2 seconds.
 File lengths (MBytes):  RWF=     46 Int=      0 D2E=      0 Chk=      3 Scr=      1
 Normal termination of Gaussian 09 at Thu Sep  8 15:02:45 2022.
