 Entering Gaussian System, Link 0=g09
 Input=B3LYP6-31Gdp.Frag_1135.gjf
 Output=B3LYP6-31Gdp.Frag_1135.log
 Initial command:
 /public/home/users/caep010/software/Gaussian09/g09/l1.exe "/public/home/users/caep010/.cache/gau_scr/Gau-207844.inp" -scrdir="/public/home/users/caep010/.cache/gau_scr/"
 Entering Link 1 = /public/home/users/caep010/software/Gaussian09/g09/l1.exe PID=    207845.
  
 Copyright (c) 1988,1990,1992,1993,1995,1998,2003,2009,2015,
            Gaussian, Inc.  All Rights Reserved.
  
 This is part of the Gaussian(R) 09 program.  It is based on
 the Gaussian(R) 03 system (copyright 2003, Gaussian, Inc.),
 the Gaussian(R) 98 system (copyright 1998, Gaussian, Inc.),
 the Gaussian(R) 94 system (copyright 1995, Gaussian, Inc.),
 the Gaussian 92(TM) system (copyright 1992, Gaussian, Inc.),
 the Gaussian 90(TM) system (copyright 1990, Gaussian, Inc.),
 the Gaussian 88(TM) system (copyright 1988, Gaussian, Inc.),
 the Gaussian 86(TM) system (copyright 1986, Carnegie Mellon
 University), and the Gaussian 82(TM) system (copyright 1983,
 Carnegie Mellon University). Gaussian is a federally registered
 trademark of Gaussian, Inc.
  
 This software contains proprietary and confidential information,
 including trade secrets, belonging to Gaussian, Inc.
  
 This software is provided under written license and may be
 used, copied, transmitted, or stored only in accord with that
 written license.
  
 The following legend is applicable only to US Government
 contracts under FAR:
  
                    RESTRICTED RIGHTS LEGEND
  
 Use, reproduction and disclosure by the US Government is
 subject to restrictions as set forth in subparagraphs (a)
 and (c) of the Commercial Computer Software - Restricted
 Rights clause in FAR 52.227-19.
  
 Gaussian, Inc.
 340 Quinnipiac St., Bldg. 40, Wallingford CT 06492
  
  
 ---------------------------------------------------------------
 Warning -- This program may not be used in any manner that
 competes with the business of Gaussian, Inc. or will provide
 assistance to any competitor of Gaussian, Inc.  The licensee
 of this program is prohibited from giving any competitor of
 Gaussian, Inc. access to this program.  By using this program,
 the user acknowledges that Gaussian, Inc. is engaged in the
 business of creating and licensing software in the field of
 computational chemistry and represents and warrants to the
 licensee that it is not a competitor of Gaussian, Inc. and that
 it will not use this program in any manner prohibited above.
 ---------------------------------------------------------------
  

 Cite this work as:
 Gaussian 09, Revision E.01,
 M. J. Frisch, G. W. Trucks, H. B. Schlegel, G. E. Scuseria, 
 M. A. Robb, J. R. Cheeseman, G. Scalmani, V. Barone, B. Mennucci, 
 G. A. Petersson, H. Nakatsuji, M. Caricato, X. Li, H. P. Hratchian, 
 A. F. Izmaylov, J. Bloino, G. Zheng, J. L. Sonnenberg, M. Hada, 
 M. Ehara, K. Toyota, R. Fukuda, J. Hasegawa, M. Ishida, T. Nakajima, 
 Y. Honda, O. Kitao, H. Nakai, T. Vreven, J. A. Montgomery, Jr., 
 J. E. Peralta, F. Ogliaro, M. Bearpark, J. J. Heyd, E. Brothers, 
 K. N. Kudin, V. N. Staroverov, T. Keith, R. Kobayashi, J. Normand, 
 K. Raghavachari, A. Rendell, J. C. Burant, S. S. Iyengar, J. Tomasi, 
 M. Cossi, N. Rega, J. M. Millam, M. Klene, J. E. Knox, J. B. Cross, 
 V. Bakken, C. Adamo, J. Jaramillo, R. Gomperts, R. E. Stratmann, 
 O. Yazyev, A. J. Austin, R. Cammi, C. Pomelli, J. W. Ochterski, 
 R. L. Martin, K. Morokuma, V. G. Zakrzewski, G. A. Voth, 
 P. Salvador, J. J. Dannenberg, S. Dapprich, A. D. Daniels, 
 O. Farkas, J. B. Foresman, J. V. Ortiz, J. Cioslowski, 
 and D. J. Fox, Gaussian, Inc., Wallingford CT, 2013.
 
 ******************************************
 Gaussian 09:  ES64L-G09RevE.01 30-Nov-2015
                 8-Sep-2022 
 ******************************************
 %nproc=32
 Will use up to   32 processors via shared memory.
 %mem=180GB
 %chk=B3LYP6-31Gdp.Frag_1135.chk
 ----------------------------
 #P OPT Freq B3LYP/6-31G(d,p)
 ----------------------------
 1/14=-1,18=20,19=15,26=3,38=1/1,3;
 2/9=110,12=2,17=6,18=5,40=1/2;
 3/5=1,6=6,7=101,11=2,16=1,25=1,30=1,71=1,74=-5/1,2,3;
 4//1;
 5/5=2,38=5/2;
 6/7=2,8=2,9=2,10=2,28=1/1;
 7//1,2,3,16;
 1/14=-1,18=20,19=15,26=3/3(2);
 2/9=110/2;
 99//99;
 2/9=110/2;
 3/5=1,6=6,7=101,11=2,16=1,25=1,30=1,71=1,74=-5/1,2,3;
 4/5=5,16=3,69=1/1;
 5/5=2,38=5/2;
 7//1,2,3,16;
 1/14=-1,18=20,19=15,26=3/3(-5);
 2/9=110/2;
 6/7=2,8=2,9=2,10=2,19=2,28=1/1;
 99/9=1/99;
 Leave Link    1 at Thu Sep  8 14:51:33 2022, MaxMem= 24159191040 cpu:         2.3
 (Enter /public/home/users/caep010/software/Gaussian09/g09/l101.exe)
 ---------
 Frag_1135
 ---------
 Symbolic Z-matrix:
 Charge =  0 Multiplicity = 1
 N                    -1.04873   0.11684   0.32909 
 N                     0.08714   0.91928  -0.04812 
 N                     1.07015   0.13742  -0.34775 
 O                     0.90444  -1.23506  -0.2691 
 O                     2.15707   0.52078  -0.70119 
 H                    -1.31463   0.41933   1.26446 
 H                    -1.81053   0.39138  -0.28849 
 H                    -0.04492  -1.26998   0.0341 
 
 Add atom      1 valence  3 ND=      2 dihedral       2      1      6      7
 NAtoms=      8 NQM=        8 NQMF=       0 NMMI=      0 NMMIF=      0
                NMic=       0 NMicF=      0.
                    Isotopes and Nuclear Properties:
 (Nuclear quadrupole moments (NQMom) in fm**2, nuclear magnetic moments (NMagM)
  in nuclear magnetons)

  Atom         1           2           3           4           5           6           7           8
 IAtWgt=          14          14          14          16          16           1           1           1
 AtmWgt=  14.0030740  14.0030740  14.0030740  15.9949146  15.9949146   1.0078250   1.0078250   1.0078250
 NucSpn=           2           2           2           0           0           1           1           1
 AtZEff=   0.0000000   0.0000000   0.0000000   0.0000000   0.0000000   0.0000000   0.0000000   0.0000000
 NQMom=    2.0440000   2.0440000   2.0440000   0.0000000   0.0000000   0.0000000   0.0000000   0.0000000
 NMagM=    0.4037610   0.4037610   0.4037610   0.0000000   0.0000000   2.7928460   2.7928460   2.7928460
 AtZNuc=   7.0000000   7.0000000   7.0000000   8.0000000   8.0000000   1.0000000   1.0000000   1.0000000
 Leave Link  101 at Thu Sep  8 14:51:33 2022, MaxMem= 24159191040 cpu:         9.9
 (Enter /public/home/users/caep010/software/Gaussian09/g09/l103.exe)

 GradGradGradGradGradGradGradGradGradGradGradGradGradGradGradGradGradGrad
 Berny optimization.
 Initialization pass.
                           ----------------------------
                           !    Initial Parameters    !
                           ! (Angstroms and Degrees)  !
 --------------------------                            --------------------------
 ! Name  Definition              Value          Derivative Info.                !
 --------------------------------------------------------------------------------
 ! R1    R(1,2)                  1.441          estimate D2E/DX2                !
 ! R2    R(1,6)                  1.0184         estimate D2E/DX2                !
 ! R3    R(1,7)                  1.0184         estimate D2E/DX2                !
 ! R4    R(2,3)                  1.2913         estimate D2E/DX2                !
 ! R5    R(3,4)                  1.3847         estimate D2E/DX2                !
 ! R6    R(3,5)                  1.2055         estimate D2E/DX2                !
 ! R7    R(4,8)                  0.9972         estimate D2E/DX2                !
 ! A1    A(2,1,6)              106.3106         estimate D2E/DX2                !
 ! A2    A(2,1,7)              106.307          estimate D2E/DX2                !
 ! A3    A(6,1,7)              106.3561         estimate D2E/DX2                !
 ! A4    A(1,2,3)              108.8834         estimate D2E/DX2                !
 ! A5    A(2,3,4)              119.7273         estimate D2E/DX2                !
 ! A6    A(2,3,5)              124.1841         estimate D2E/DX2                !
 ! A7    A(4,3,5)              116.0886         estimate D2E/DX2                !
 ! A8    A(3,4,8)               99.5504         estimate D2E/DX2                !
 ! D1    D(6,1,2,3)            123.4719         estimate D2E/DX2                !
 ! D2    D(7,1,2,3)           -123.4914         estimate D2E/DX2                !
 ! D3    D(2,1,6,7)            113.0028         estimate D2E/DX2                !
 ! D4    D(1,2,3,4)             -0.0364         estimate D2E/DX2                !
 ! D5    D(1,2,3,5)           -179.9714         estimate D2E/DX2                !
 ! D6    D(2,3,4,8)              0.0524         estimate D2E/DX2                !
 ! D7    D(5,3,4,8)            179.9926         estimate D2E/DX2                !
 --------------------------------------------------------------------------------
 Trust Radius=3.00D-01 FncErr=1.00D-07 GrdErr=1.00D-06
 Number of steps in this run=     32 maximum allowed number of steps=    100.
 GradGradGradGradGradGradGradGradGradGradGradGradGradGradGradGradGradGrad

 Leave Link  103 at Thu Sep  8 14:51:33 2022, MaxMem= 24159191040 cpu:         0.5
 (Enter /public/home/users/caep010/software/Gaussian09/g09/l202.exe)
                          Input orientation:                          
 ---------------------------------------------------------------------
 Center     Atomic      Atomic             Coordinates (Angstroms)
 Number     Number       Type             X           Y           Z
 ---------------------------------------------------------------------
      1          7           0       -1.048730    0.116842    0.329090
      2          7           0        0.087143    0.919281   -0.048123
      3          7           0        1.070153    0.137419   -0.347745
      4          8           0        0.904436   -1.235060   -0.269098
      5          8           0        2.157075    0.520783   -0.701192
      6          1           0       -1.314629    0.419331    1.264457
      7          1           0       -1.810526    0.391384   -0.288490
      8          1           0       -0.044923   -1.269982    0.034099
 ---------------------------------------------------------------------
                    Distance matrix (angstroms):
                    1          2          3          4          5
     1  N    0.000000
     2  N    1.440974   0.000000
     3  N    2.224454   1.291275   0.000000
     4  O    2.449556   2.314732   1.384683   0.000000
     5  O    3.391436   2.206789   1.205526   2.199726   0.000000
     6  H    1.018388   1.984384   2.892379   3.164340   3.990839
     7  H    1.018387   1.984338   2.892459   3.164919   3.991106
     8  H    1.737219   2.194783   1.835750   0.997211   2.931943
                    6          7          8
     6  H    0.000000
     7  H    1.630441   0.000000
     8  H    2.445345   2.445722   0.000000
 Stoichiometry    H3N3O2
 Framework group  C1[X(H3N3O2)]
 Deg. of freedom    18
 Full point group                 C1      NOp   1
 Largest Abelian subgroup         C1      NOp   1
 Largest concise Abelian subgroup C1      NOp   1
                         Standard orientation:                         
 ---------------------------------------------------------------------
 Center     Atomic      Atomic             Coordinates (Angstroms)
 Number     Number       Type             X           Y           Z
 ---------------------------------------------------------------------
      1          7           0        1.681209    0.005954   -0.000003
      2          7           0        0.519773   -0.846966    0.000065
      3          7           0       -0.540243   -0.109567   -0.000315
      4          8           0       -0.417224    1.269640    0.000064
      5          8           0       -1.665762   -0.541422    0.000134
      6          1           0        2.230682   -0.259008    0.815465
      7          1           0        2.231055   -0.259752   -0.814976
      8          1           0        0.576976    1.347072   -0.000303
 ---------------------------------------------------------------------
 Rotational constants (GHZ):     11.4912569      4.7676628      3.4309107
 Leave Link  202 at Thu Sep  8 14:51:33 2022, MaxMem= 24159191040 cpu:         1.1
 (Enter /public/home/users/caep010/software/Gaussian09/g09/l301.exe)
 Standard basis: 6-31G(d,p) (6D, 7F)
 Ernie: Thresh=  0.10000D-02 Tol=  0.10000D-05 Strict=F.
 There are    90 symmetry adapted cartesian basis functions of A   symmetry.
 There are    90 symmetry adapted basis functions of A   symmetry.
    90 basis functions,   161 primitive gaussians,    90 cartesian basis functions
    20 alpha electrons       20 beta electrons
       nuclear repulsion energy       188.8282227577 Hartrees.
 IExCor=  402 DFT=T Ex+Corr=B3LYP ExCW=0 ScaHFX=  0.200000
 ScaDFX=  0.800000  0.720000  1.000000  0.810000 ScalE2=  1.000000  1.000000
 IRadAn=      0 IRanWt=     -1 IRanGd=            0 ICorTp=0 IEmpDi=  4
 NAtoms=    8 NActive=    8 NUniq=    8 SFac= 1.00D+00 NAtFMM=   60 NAOKFM=F Big=F
 Integral buffers will be    131072 words long.
 Raffenetti 2 integral format.
 Two-electron integral symmetry is turned on.
 Leave Link  301 at Thu Sep  8 14:51:33 2022, MaxMem= 24159191040 cpu:         2.1
 (Enter /public/home/users/caep010/software/Gaussian09/g09/l302.exe)
 NPDir=0 NMtPBC=     1 NCelOv=     1 NCel=       1 NClECP=     1 NCelD=      1
         NCelK=      1 NCelE2=     1 NClLst=     1 CellRange=     0.0.
 One-electron integrals computed using PRISM.
 NBasis=    90 RedAO= T EigKep=  3.41D-03  NBF=    90
 NBsUse=    90 1.00D-06 EigRej= -1.00D+00 NBFU=    90
 Precomputing XC quadrature grid using
 IXCGrd= 4 IRadAn=           0 IRanWt=          -1 IRanGd=           0 AccXCQ= 0.00D+00.
 Generated NRdTot=       0 NPtTot=           0 NUsed=           0 NTot=          32
 NSgBfM=    90    90    90    90    90 MxSgAt=     8 MxSgA2=     8.
 Leave Link  302 at Thu Sep  8 14:51:34 2022, MaxMem= 24159191040 cpu:        10.6
 (Enter /public/home/users/caep010/software/Gaussian09/g09/l303.exe)
 DipDrv:  MaxL=1.
 Leave Link  303 at Thu Sep  8 14:51:34 2022, MaxMem= 24159191040 cpu:         1.1
 (Enter /public/home/users/caep010/software/Gaussian09/g09/l401.exe)
 ExpMin= 1.61D-01 ExpMax= 5.48D+03 ExpMxC= 8.25D+02 IAcc=1 IRadAn=         1 AccDes= 0.00D+00
 Harris functional with IExCor=  402 and IRadAn=       1 diagonalized for initial guess.
 HarFok:  IExCor=  402 AccDes= 0.00D+00 IRadAn=         1 IDoV= 1 UseB2=F ITyADJ=14
 ICtDFT=  3500011 ScaDFX=  1.000000  1.000000  1.000000  1.000000
 FoFCou: FMM=F IPFlag=           0 FMFlag=      100000 FMFlg1=           0
         NFxFlg=           0 DoJE=T BraDBF=F KetDBF=T FulRan=T
         wScrn=  0.000000 ICntrl=     500 IOpCl=  0 I1Cent=   200000004 NGrid=           0
         NMat0=    1 NMatS0=      1 NMatT0=    0 NMatD0=    1 NMtDS0=    0 NMtDT0=    0
 Petite list used in FoFCou.
 Harris En= -316.365857391633    
 JPrj=0 DoOrth=F DoCkMO=F.
 Leave Link  401 at Thu Sep  8 14:51:34 2022, MaxMem= 24159191040 cpu:         9.4
 (Enter /public/home/users/caep010/software/Gaussian09/g09/l502.exe)
 Closed shell SCF:
 Using DIIS extrapolation, IDIIS=  1040.
 Integral symmetry usage will be decided dynamically.
 Keep R1 ints in memory in canonical form, NReq=9343545.
 IVT=       46405 IEndB=       46405 NGot= 24159191040 MDV= 24150758076
 LenX= 24150758076 LenY= 24150749535
 Requested convergence on RMS density matrix=1.00D-08 within 128 cycles.
 Requested convergence on MAX density matrix=1.00D-06.
 Requested convergence on             energy=1.00D-06.
 No special actions if energy rises.
 FoFCou: FMM=F IPFlag=           0 FMFlag=           0 FMFlg1=           0
         NFxFlg=           0 DoJE=F BraDBF=F KetDBF=F FulRan=T
         wScrn=  0.000000 ICntrl=     600 IOpCl=  0 I1Cent=           0 NGrid=           0
         NMat0=    1 NMatS0=   4095 NMatT0=    0 NMatD0=    1 NMtDS0=    0 NMtDT0=    0
 Symmetry not used in FoFCou.
 Integral accuracy reduced to 1.0D-05 until final iterations.

 Cycle   1  Pass 0  IDiag  1:
 E= -316.171421850677    
 DIIS: error= 4.45D-02 at cycle   1 NSaved=   1.
 NSaved= 1 IEnMin= 1 EnMin= -316.171421850677     IErMin= 1 ErrMin= 4.45D-02
 ErrMax= 4.45D-02  0.00D+00 EMaxC= 1.00D-01 BMatC= 2.47D-01 BMatP= 2.47D-01
 IDIUse=3 WtCom= 5.55D-01 WtEn= 4.45D-01
 Coeff-Com:  0.100D+01
 Coeff-En:   0.100D+01
 Coeff:      0.100D+01
 Gap=     0.155 Goal=   None    Shift=    0.000
 GapD=    0.155 DampG=1.000 DampE=0.500 DampFc=0.5000 IDamp=-1.
 Damping current iteration by 5.00D-01
 RMSDP=1.07D-02 MaxDP=2.46D-01              OVMax= 3.12D-01

 Cycle   2  Pass 0  IDiag  1:
 E= -316.158315034360     Delta-E=        0.013106816317 Rises=F Damp=T
 DIIS: error= 2.64D-02 at cycle   2 NSaved=   2.
 NSaved= 2 IEnMin= 1 EnMin= -316.171421850677     IErMin= 2 ErrMin= 2.64D-02
 ErrMax= 2.64D-02  0.00D+00 EMaxC= 1.00D-01 BMatC= 7.99D-02 BMatP= 2.47D-01
 IDIUse=3 WtCom= 7.36D-01 WtEn= 2.64D-01
 Coeff-Com:  0.341D+00 0.659D+00
 Coeff-En:   0.525D+00 0.475D+00
 Coeff:      0.389D+00 0.611D+00
 Gap=     0.238 Goal=   None    Shift=    0.000
 RMSDP=3.88D-03 MaxDP=8.62D-02 DE= 1.31D-02 OVMax= 2.56D-01

 Cycle   3  Pass 0  IDiag  1:
 E= -316.305623816451     Delta-E=       -0.147308782091 Rises=F Damp=F
 DIIS: error= 1.96D-02 at cycle   3 NSaved=   3.
 NSaved= 3 IEnMin= 3 EnMin= -316.305623816451     IErMin= 3 ErrMin= 1.96D-02
 ErrMax= 1.96D-02  0.00D+00 EMaxC= 1.00D-01 BMatC= 4.85D-02 BMatP= 7.99D-02
 IDIUse=3 WtCom= 8.04D-01 WtEn= 1.96D-01
 Coeff-Com:  0.218D+00 0.420D+00 0.362D+00
 Coeff-En:   0.477D-01 0.000D+00 0.952D+00
 Coeff:      0.185D+00 0.338D+00 0.478D+00
 Gap=     0.265 Goal=   None    Shift=    0.000
 RMSDP=3.29D-03 MaxDP=8.71D-02 DE=-1.47D-01 OVMax= 1.75D-01

 Cycle   4  Pass 0  IDiag  1:
 E= -316.328684260427     Delta-E=       -0.023060443977 Rises=F Damp=F
 DIIS: error= 1.28D-02 at cycle   4 NSaved=   4.
 NSaved= 4 IEnMin= 4 EnMin= -316.328684260427     IErMin= 4 ErrMin= 1.28D-02
 ErrMax= 1.28D-02  0.00D+00 EMaxC= 1.00D-01 BMatC= 2.20D-02 BMatP= 4.85D-02
 IDIUse=3 WtCom= 8.72D-01 WtEn= 1.28D-01
 Coeff-Com:  0.666D-01 0.882D-01 0.372D+00 0.474D+00
 Coeff-En:   0.000D+00 0.000D+00 0.359D+00 0.641D+00
 Coeff:      0.581D-01 0.770D-01 0.370D+00 0.495D+00
 Gap=     0.230 Goal=   None    Shift=    0.000
 RMSDP=1.52D-03 MaxDP=3.95D-02 DE=-2.31D-02 OVMax= 8.14D-02

 Cycle   5  Pass 0  IDiag  1:
 E= -316.347115263698     Delta-E=       -0.018431003271 Rises=F Damp=F
 DIIS: error= 2.38D-03 at cycle   5 NSaved=   5.
 NSaved= 5 IEnMin= 5 EnMin= -316.347115263698     IErMin= 5 ErrMin= 2.38D-03
 ErrMax= 2.38D-03  0.00D+00 EMaxC= 1.00D-01 BMatC= 6.28D-04 BMatP= 2.20D-02
 IDIUse=3 WtCom= 9.76D-01 WtEn= 2.38D-02
 Coeff-Com:  0.128D-01 0.120D-01 0.159D+00 0.268D+00 0.549D+00
 Coeff-En:   0.000D+00 0.000D+00 0.000D+00 0.000D+00 0.100D+01
 Coeff:      0.125D-01 0.117D-01 0.155D+00 0.261D+00 0.560D+00
 Gap=     0.234 Goal=   None    Shift=    0.000
 RMSDP=2.97D-04 MaxDP=6.89D-03 DE=-1.84D-02 OVMax= 1.28D-02

 Cycle   6  Pass 0  IDiag  1:
 E= -316.347523017172     Delta-E=       -0.000407753473 Rises=F Damp=F
 DIIS: error= 1.25D-03 at cycle   6 NSaved=   6.
 NSaved= 6 IEnMin= 6 EnMin= -316.347523017172     IErMin= 6 ErrMin= 1.25D-03
 ErrMax= 1.25D-03  0.00D+00 EMaxC= 1.00D-01 BMatC= 1.31D-04 BMatP= 6.28D-04
 IDIUse=3 WtCom= 9.87D-01 WtEn= 1.25D-02
 Coeff-Com:  0.607D-03-0.126D-02 0.525D-01 0.102D+00 0.372D+00 0.474D+00
 Coeff-En:   0.000D+00 0.000D+00 0.000D+00 0.000D+00 0.191D+00 0.809D+00
 Coeff:      0.599D-03-0.124D-02 0.519D-01 0.100D+00 0.370D+00 0.478D+00
 Gap=     0.233 Goal=   None    Shift=    0.000
 RMSDP=1.18D-04 MaxDP=2.45D-03 DE=-4.08D-04 OVMax= 3.66D-03

 Cycle   7  Pass 0  IDiag  1:
 E= -316.347624436161     Delta-E=       -0.000101418989 Rises=F Damp=F
 DIIS: error= 1.83D-04 at cycle   7 NSaved=   7.
 NSaved= 7 IEnMin= 7 EnMin= -316.347624436161     IErMin= 7 ErrMin= 1.83D-04
 ErrMax= 1.83D-04  0.00D+00 EMaxC= 1.00D-01 BMatC= 6.08D-06 BMatP= 1.31D-04
 IDIUse=3 WtCom= 9.98D-01 WtEn= 1.83D-03
 Coeff-Com: -0.106D-02-0.115D-02 0.936D-02 0.189D-01 0.128D+00 0.246D+00
 Coeff-Com:  0.600D+00
 Coeff-En:   0.000D+00 0.000D+00 0.000D+00 0.000D+00 0.000D+00 0.000D+00
 Coeff-En:   0.100D+01
 Coeff:     -0.106D-02-0.115D-02 0.935D-02 0.188D-01 0.128D+00 0.246D+00
 Coeff:      0.601D+00
 Gap=     0.233 Goal=   None    Shift=    0.000
 RMSDP=2.53D-05 MaxDP=4.03D-04 DE=-1.01D-04 OVMax= 6.69D-04

 Cycle   8  Pass 0  IDiag  1:
 E= -316.347629244384     Delta-E=       -0.000004808223 Rises=F Damp=F
 DIIS: error= 6.24D-05 at cycle   8 NSaved=   8.
 NSaved= 8 IEnMin= 8 EnMin= -316.347629244384     IErMin= 8 ErrMin= 6.24D-05
 ErrMax= 6.24D-05  0.00D+00 EMaxC= 1.00D-01 BMatC= 3.69D-07 BMatP= 6.08D-06
 IDIUse=1 WtCom= 1.00D+00 WtEn= 0.00D+00
 Coeff-Com: -0.564D-03-0.324D-03 0.201D-02 0.356D-02 0.448D-01 0.977D-01
 Coeff-Com:  0.296D+00 0.557D+00
 Coeff:     -0.564D-03-0.324D-03 0.201D-02 0.356D-02 0.448D-01 0.977D-01
 Coeff:      0.296D+00 0.557D+00
 Gap=     0.233 Goal=   None    Shift=    0.000
 RMSDP=7.13D-06 MaxDP=1.54D-04 DE=-4.81D-06 OVMax= 1.69D-04

 Initial convergence to 1.0D-05 achieved.  Increase integral accuracy.
 Cycle   9  Pass 1  IDiag  1:
 E= -316.347648633756     Delta-E=       -0.000019389372 Rises=F Damp=F
 DIIS: error= 2.04D-05 at cycle   1 NSaved=   1.
 NSaved= 1 IEnMin= 1 EnMin= -316.347648633756     IErMin= 1 ErrMin= 2.04D-05
 ErrMax= 2.04D-05  0.00D+00 EMaxC= 1.00D-01 BMatC= 5.57D-08 BMatP= 5.57D-08
 IDIUse=1 WtCom= 1.00D+00 WtEn= 0.00D+00
 Coeff-Com:  0.100D+01
 Coeff:      0.100D+01
 Gap=     0.233 Goal=   None    Shift=    0.000
 RMSDP=7.13D-06 MaxDP=1.54D-04 DE=-1.94D-05 OVMax= 1.13D-04

 Cycle  10  Pass 1  IDiag  1:
 E= -316.347648611382     Delta-E=        0.000000022374 Rises=F Damp=F
 DIIS: error= 2.46D-05 at cycle   2 NSaved=   2.
 NSaved= 2 IEnMin= 1 EnMin= -316.347648633756     IErMin= 1 ErrMin= 2.04D-05
 ErrMax= 2.46D-05  0.00D+00 EMaxC= 1.00D-01 BMatC= 8.83D-08 BMatP= 5.57D-08
 IDIUse=1 WtCom= 1.00D+00 WtEn= 0.00D+00
 Coeff-Com:  0.563D+00 0.437D+00
 Coeff:      0.563D+00 0.437D+00
 Gap=     0.233 Goal=   None    Shift=    0.000
 RMSDP=2.72D-06 MaxDP=6.39D-05 DE= 2.24D-08 OVMax= 6.64D-05

 Cycle  11  Pass 1  IDiag  1:
 E= -316.347648678845     Delta-E=       -0.000000067463 Rises=F Damp=F
 DIIS: error= 4.38D-06 at cycle   3 NSaved=   3.
 NSaved= 3 IEnMin= 3 EnMin= -316.347648678845     IErMin= 3 ErrMin= 4.38D-06
 ErrMax= 4.38D-06  0.00D+00 EMaxC= 1.00D-01 BMatC= 2.05D-09 BMatP= 5.57D-08
 IDIUse=1 WtCom= 1.00D+00 WtEn= 0.00D+00
 Coeff-Com:  0.480D-01 0.140D+00 0.812D+00
 Coeff:      0.480D-01 0.140D+00 0.812D+00
 Gap=     0.233 Goal=   None    Shift=    0.000
 RMSDP=4.84D-07 MaxDP=1.04D-05 DE=-6.75D-08 OVMax= 1.34D-05

 Cycle  12  Pass 1  IDiag  1:
 E= -316.347648679903     Delta-E=       -0.000000001058 Rises=F Damp=F
 DIIS: error= 1.60D-06 at cycle   4 NSaved=   4.
 NSaved= 4 IEnMin= 4 EnMin= -316.347648679903     IErMin= 4 ErrMin= 1.60D-06
 ErrMax= 1.60D-06  0.00D+00 EMaxC= 1.00D-01 BMatC= 5.81D-10 BMatP= 2.05D-09
 IDIUse=1 WtCom= 1.00D+00 WtEn= 0.00D+00
 Coeff-Com: -0.273D-02 0.584D-01 0.476D+00 0.469D+00
 Coeff:     -0.273D-02 0.584D-01 0.476D+00 0.469D+00
 Gap=     0.233 Goal=   None    Shift=    0.000
 RMSDP=2.89D-07 MaxDP=6.57D-06 DE=-1.06D-09 OVMax= 1.19D-05

 Cycle  13  Pass 1  IDiag  1:
 E= -316.347648680331     Delta-E=       -0.000000000428 Rises=F Damp=F
 DIIS: error= 6.96D-07 at cycle   5 NSaved=   5.
 NSaved= 5 IEnMin= 5 EnMin= -316.347648680331     IErMin= 5 ErrMin= 6.96D-07
 ErrMax= 6.96D-07  0.00D+00 EMaxC= 1.00D-01 BMatC= 8.58D-11 BMatP= 5.81D-10
 IDIUse=1 WtCom= 1.00D+00 WtEn= 0.00D+00
 Coeff-Com: -0.626D-02 0.287D-01 0.258D+00 0.318D+00 0.401D+00
 Coeff:     -0.626D-02 0.287D-01 0.258D+00 0.318D+00 0.401D+00
 Gap=     0.233 Goal=   None    Shift=    0.000
 RMSDP=1.02D-07 MaxDP=2.98D-06 DE=-4.28D-10 OVMax= 5.43D-06

 Cycle  14  Pass 1  IDiag  1:
 E= -316.347648680399     Delta-E=       -0.000000000069 Rises=F Damp=F
 DIIS: error= 2.92D-07 at cycle   6 NSaved=   6.
 NSaved= 6 IEnMin= 6 EnMin= -316.347648680399     IErMin= 6 ErrMin= 2.92D-07
 ErrMax= 2.92D-07  0.00D+00 EMaxC= 1.00D-01 BMatC= 8.97D-12 BMatP= 8.58D-11
 IDIUse=1 WtCom= 1.00D+00 WtEn= 0.00D+00
 Coeff-Com: -0.415D-02 0.149D-01 0.137D+00 0.180D+00 0.284D+00 0.388D+00
 Coeff:     -0.415D-02 0.149D-01 0.137D+00 0.180D+00 0.284D+00 0.388D+00
 Gap=     0.233 Goal=   None    Shift=    0.000
 RMSDP=2.92D-08 MaxDP=7.36D-07 DE=-6.87D-11 OVMax= 1.41D-06

 Cycle  15  Pass 1  IDiag  1:
 E= -316.347648680406     Delta-E=       -0.000000000006 Rises=F Damp=F
 DIIS: error= 5.31D-08 at cycle   7 NSaved=   7.
 NSaved= 7 IEnMin= 7 EnMin= -316.347648680406     IErMin= 7 ErrMin= 5.31D-08
 ErrMax= 5.31D-08  0.00D+00 EMaxC= 1.00D-01 BMatC= 4.48D-13 BMatP= 8.97D-12
 IDIUse=1 WtCom= 1.00D+00 WtEn= 0.00D+00
 Coeff-Com: -0.110D-02 0.299D-02 0.268D-01 0.414D-01 0.874D-01 0.206D+00
 Coeff-Com:  0.636D+00
 Coeff:     -0.110D-02 0.299D-02 0.268D-01 0.414D-01 0.874D-01 0.206D+00
 Coeff:      0.636D+00
 Gap=     0.233 Goal=   None    Shift=    0.000
 RMSDP=6.27D-09 MaxDP=1.57D-07 DE=-6.37D-12 OVMax= 1.45D-07

 SCF Done:  E(RB3LYP) =  -316.347648680     A.U. after   15 cycles
            NFock= 15  Conv=0.63D-08     -V/T= 2.0084
 KE= 3.137245458494D+02 PE=-1.119683584089D+03 EE= 3.007831668018D+02
 Leave Link  502 at Thu Sep  8 14:51:35 2022, MaxMem= 24159191040 cpu:        23.0
 (Enter /public/home/users/caep010/software/Gaussian09/g09/l601.exe)
 Copying SCF densities to generalized density rwf, IOpCl= 0 IROHF=0.

 **********************************************************************

            Population analysis using the SCF density.

 **********************************************************************

 Orbital symmetries:
       Occupied  (A) (A) (A) (A) (A) (A) (A) (A) (A) (A) (A) (A)
                 (A) (A) (A) (A) (A) (A) (A) (A)
       Virtual   (A) (A) (A) (A) (A) (A) (A) (A) (A) (A) (A) (A)
                 (A) (A) (A) (A) (A) (A) (A) (A) (A) (A) (A) (A)
                 (A) (A) (A) (A) (A) (A) (A) (A) (A) (A) (A) (A)
                 (A) (A) (A) (A) (A) (A) (A) (A) (A) (A) (A) (A)
                 (A) (A) (A) (A) (A) (A) (A) (A) (A) (A) (A) (A)
                 (A) (A) (A) (A) (A) (A) (A) (A) (A) (A)
 The electronic state is 1-A.
 Alpha  occ. eigenvalues --  -19.21859 -19.17899 -14.58692 -14.40088 -14.40058
 Alpha  occ. eigenvalues --   -1.23590  -1.07163  -1.01287  -0.87214  -0.65806
 Alpha  occ. eigenvalues --   -0.58399  -0.56252  -0.51764  -0.51300  -0.48077
 Alpha  occ. eigenvalues --   -0.37831  -0.34308  -0.31169  -0.28884  -0.27342
 Alpha virt. eigenvalues --   -0.04000   0.04470   0.08603   0.11854   0.13218
 Alpha virt. eigenvalues --    0.17670   0.31098   0.34984   0.57936   0.60006
 Alpha virt. eigenvalues --    0.61330   0.65217   0.68019   0.72093   0.72333
 Alpha virt. eigenvalues --    0.73290   0.75244   0.79755   0.83380   0.85241
 Alpha virt. eigenvalues --    0.86976   0.89125   0.94377   0.98556   0.99276
 Alpha virt. eigenvalues --    1.01894   1.06458   1.21364   1.24954   1.33924
 Alpha virt. eigenvalues --    1.37627   1.41975   1.42512   1.46313   1.56781
 Alpha virt. eigenvalues --    1.73879   1.76468   1.79649   1.79817   1.91506
 Alpha virt. eigenvalues --    1.91553   1.98718   2.01420   2.07837   2.10430
 Alpha virt. eigenvalues --    2.16295   2.17083   2.26578   2.36647   2.40480
 Alpha virt. eigenvalues --    2.45153   2.54952   2.56959   2.61379   2.68702
 Alpha virt. eigenvalues --    2.73024   2.73827   2.73906   2.87792   2.91979
 Alpha virt. eigenvalues --    3.02757   3.13196   3.24640   3.38014   3.42972
 Alpha virt. eigenvalues --    3.53371   3.69594   3.82229   3.99142   4.08308
          Condensed to atoms (all electrons):
               1          2          3          4          5          6
     1  N    6.807209   0.095004  -0.066851  -0.042844   0.004710   0.334006
     2  N    0.095004   7.098298   0.246987  -0.078571  -0.101498  -0.035399
     3  N   -0.066851   0.246987   5.757074   0.180787   0.354878   0.001659
     4  O   -0.042844  -0.078571   0.180787   8.172810  -0.087915   0.001288
     5  O    0.004710  -0.101498   0.354878  -0.087915   8.215846  -0.000040
     6  H    0.334006  -0.035399   0.001659   0.001288  -0.000040   0.441663
     7  H    0.334010  -0.035387   0.001652   0.001288  -0.000040  -0.034882
     8  H    0.060109  -0.004665  -0.032989   0.254844   0.004526  -0.000563
               7          8
     1  N    0.334010   0.060109
     2  N   -0.035387  -0.004665
     3  N    0.001652  -0.032989
     4  O    0.001288   0.254844
     5  O   -0.000040   0.004526
     6  H   -0.034882  -0.000563
     7  H    0.441659  -0.000564
     8  H   -0.000564   0.358361
 Mulliken charges:
               1
     1  N   -0.525354
     2  N   -0.184767
     3  N    0.556802
     4  O   -0.401687
     5  O   -0.390467
     6  H    0.292268
     7  H    0.292264
     8  H    0.360942
 Sum of Mulliken charges =  -0.00000
 Mulliken charges with hydrogens summed into heavy atoms:
               1
     1  N    0.059178
     2  N   -0.184767
     3  N    0.556802
     4  O   -0.040746
     5  O   -0.390467
 Electronic spatial extent (au):  <R**2>=            351.4586
 Charge=             -0.0000 electrons
 Dipole moment (field-independent basis, Debye):
    X=              4.5988    Y=              0.9003    Z=             -0.0005  Tot=              4.6861
 Quadrupole moment (field-independent basis, Debye-Ang):
   XX=            -25.0040   YY=            -31.3237   ZZ=            -26.2719
   XY=             -0.5504   XZ=              0.0016   YZ=              0.0005
 Traceless Quadrupole moment (field-independent basis, Debye-Ang):
   XX=              2.5292   YY=             -3.7905   ZZ=              1.2613
   XY=             -0.5504   XZ=              0.0016   YZ=              0.0005
 Octapole moment (field-independent basis, Debye-Ang**2):
  XXX=             20.9013  YYY=              6.8330  ZZZ=              0.0017  XYY=              1.1327
  XXY=             -1.7857  XXZ=              0.0019  XZZ=              2.6280  YZZ=              0.1335
  YYZ=             -0.0010  XYZ=              0.0017
 Hexadecapole moment (field-independent basis, Debye-Ang**3):
 XXXX=           -224.7801 YYYY=           -117.2764 ZZZZ=            -24.0086 XXXY=            -11.7797
 XXXZ=              0.0015 YYYX=              6.2731 YYYZ=              0.0001 ZZZX=              0.0036
 ZZZY=              0.0006 XXYY=            -64.8777 XXZZ=            -37.9468 YYZZ=            -24.2384
 XXYZ=              0.0049 YYXZ=             -0.0017 ZZXY=             -0.8541
 N-N= 1.888282227577D+02 E-N=-1.119683588504D+03  KE= 3.137245458494D+02
 No NMR shielding tensors so no spin-rotation constants.
 Leave Link  601 at Thu Sep  8 14:51:35 2022, MaxMem= 24159191040 cpu:        10.7
 (Enter /public/home/users/caep010/software/Gaussian09/g09/l701.exe)
 Compute integral first derivatives.
 ... and contract with generalized density number  0.
 Leave Link  701 at Thu Sep  8 14:51:36 2022, MaxMem= 24159191040 cpu:        14.0
 (Enter /public/home/users/caep010/software/Gaussian09/g09/l702.exe)
 L702 exits ... SP integral derivatives will be done elsewhere.
 Leave Link  702 at Thu Sep  8 14:51:36 2022, MaxMem= 24159191040 cpu:         0.5
 (Enter /public/home/users/caep010/software/Gaussian09/g09/l703.exe)
 Compute integral first derivatives, UseDBF=F ICtDFT=           0.
 Integral derivatives from FoFJK, PRISM(SPDF).
 Calling FoFJK, ICntrl=      2127 FMM=F ISym2X=0 I1Cent= 0 IOpClX= 0 NMat=1 NMatS=1 NMatT=0.
 FoFJK:  IHMeth= 1 ICntrl=    2127 DoSepK=F KAlg= 0 I1Cent=   0 FoldK=F
 IRaf=         0 NMat=   1 IRICut=       1 DoRegI=T DoRafI=F ISym2E= 0.
 FoFCou: FMM=F IPFlag=           0 FMFlag=      100000 FMFlg1=         800
         NFxFlg=           0 DoJE=F BraDBF=F KetDBF=F FulRan=T
         wScrn=  0.000000 ICntrl=    2127 IOpCl=  0 I1Cent=           0 NGrid=           0
         NMat0=    1 NMatS0=      1 NMatT0=    0 NMatD0=    1 NMtDS0=    0 NMtDT0=    0
 Symmetry not used in FoFCou.
 Leave Link  703 at Thu Sep  8 14:51:36 2022, MaxMem= 24159191040 cpu:         8.2
 (Enter /public/home/users/caep010/software/Gaussian09/g09/l716.exe)
 Dipole        = 1.80931772D+00 3.54206864D-01-1.83678930D-04
 ***** Axes restored to original set *****
 -------------------------------------------------------------------
 Center     Atomic                   Forces (Hartrees/Bohr)
 Number     Number              X              Y              Z
 -------------------------------------------------------------------
      1        7           0.000041285   -0.001651041   -0.000001512
      2        7          -0.002189700    0.004861908    0.000561403
      3        7          -0.004787990   -0.002388576    0.001738683
      4        8           0.001151139   -0.003910262   -0.000347515
      5        8           0.009370175    0.003795035   -0.003119496
      6        1          -0.000230976    0.000309049    0.001300295
      7        1          -0.000949514    0.000263444   -0.000928097
      8        1          -0.002404418   -0.001279558    0.000796239
 -------------------------------------------------------------------
 Cartesian Forces:  Max     0.009370175 RMS     0.002912066
 Leave Link  716 at Thu Sep  8 14:51:36 2022, MaxMem= 24159191040 cpu:         0.7
 (Enter /public/home/users/caep010/software/Gaussian09/g09/l103.exe)

 GradGradGradGradGradGradGradGradGradGradGradGradGradGradGradGradGradGrad
 Berny optimization.
 FormGI is forming the generalized inverse of G from B-inverse, IUseBI=4.
 Internal  Forces:  Max     0.010569160 RMS     0.002901012
 Search for a local minimum.
 Step number   1 out of a maximum of   32
 All quantities printed in internal units (Hartrees-Bohrs-Radians)
 RMS Force = .29010D-02 SwitMx=.10000D-02 MixMth= 1
 Mixed Optimization -- RFO/linear search
 Second derivative matrix not updated -- first step.
 ITU=  0
     Eigenvalues ---    0.00753   0.01497   0.02166   0.02733   0.05534
     Eigenvalues ---    0.12391   0.16000   0.16000   0.25000   0.25000
     Eigenvalues ---    0.25000   0.39452   0.44596   0.44596   0.48182
     Eigenvalues ---    0.48256   0.69676   1.02095
 RFO step:  Lambda=-2.72631035D-04 EMin= 7.52800167D-03
 Linear search not attempted -- first point.
 Iteration  1 RMS(Cart)=  0.00940036 RMS(Int)=  0.00004689
 Iteration  2 RMS(Cart)=  0.00004699 RMS(Int)=  0.00000212
 Iteration  3 RMS(Cart)=  0.00000000 RMS(Int)=  0.00000212
 ITry= 1 IFail=0 DXMaxC= 3.61D-02 DCOld= 1.00D+10 DXMaxT= 3.00D-01 DXLimC= 3.00D+00 Rises=F
 Variable       Old X    -DE/DX   Delta X   Delta X   Delta X     New X
                                 (Linear)    (Quad)   (Total)
    R1        2.72305   0.00159   0.00000   0.00402   0.00402   2.72707
    R2        1.92447   0.00135   0.00000   0.00302   0.00302   1.92749
    R3        1.92447   0.00134   0.00000   0.00301   0.00301   1.92749
    R4        2.44016   0.00504   0.00000   0.00724   0.00724   2.44739
    R5        2.61667   0.00532   0.00000   0.01102   0.01102   2.62769
    R6        2.27811   0.01057   0.00000   0.01035   0.01035   2.28846
    R7        1.88446   0.00258   0.00000   0.00535   0.00535   1.88981
    A1        1.85547  -0.00000   0.00000   0.00035   0.00035   1.85582
    A2        1.85541  -0.00002   0.00000   0.00042   0.00041   1.85582
    A3        1.85626   0.00019   0.00000   0.00195   0.00195   1.85822
    A4        1.90037  -0.00068   0.00000  -0.00273  -0.00273   1.89764
    A5        2.08964   0.00072   0.00000   0.00286   0.00286   2.09249
    A6        2.16742  -0.00087   0.00000  -0.00349  -0.00349   2.16393
    A7        2.02613   0.00016   0.00000   0.00063   0.00063   2.02675
    A8        1.73748   0.00224   0.00000   0.01399   0.01399   1.75148
    D1        2.15499  -0.00010   0.00000  -0.00154  -0.00154   2.15345
    D2       -2.15533   0.00010   0.00000   0.00101   0.00101  -2.15432
    D3        1.97227   0.00006   0.00000   0.00149   0.00149   1.97376
    D4       -0.00063   0.00005   0.00000   0.00242   0.00242   0.00178
    D5       -3.14109  -0.00007   0.00000  -0.00304  -0.00304   3.13906
    D6        0.00091  -0.00006   0.00000  -0.00286  -0.00286  -0.00195
    D7        3.14146   0.00005   0.00000   0.00217   0.00217  -3.13955
         Item               Value     Threshold  Converged?
 Maximum Force            0.010569     0.000450     NO 
 RMS     Force            0.002901     0.000300     NO 
 Maximum Displacement     0.036116     0.001800     NO 
 RMS     Displacement     0.009420     0.001200     NO 
 Predicted change in Energy=-1.363986D-04
 Lowest energy point so far.  Saving SCF results.
 GradGradGradGradGradGradGradGradGradGradGradGradGradGradGradGradGradGrad

 Leave Link  103 at Thu Sep  8 14:51:37 2022, MaxMem= 24159191040 cpu:         2.0
 (Enter /public/home/users/caep010/software/Gaussian09/g09/l202.exe)
                          Input orientation:                          
 ---------------------------------------------------------------------
 Center     Atomic      Atomic             Coordinates (Angstroms)
 Number     Number       Type             X           Y           Z
 ---------------------------------------------------------------------
      1          7           0       -1.050337    0.120779    0.329685
      2          7           0        0.086616    0.925450   -0.047658
      3          7           0        1.071506    0.139372   -0.346603
      4          8           0        0.905747   -1.239107   -0.270098
      5          8           0        2.161973    0.526303   -0.703944
      6          1           0       -1.316882    0.422514    1.266850
      7          1           0       -1.813206    0.393781   -0.289881
      8          1           0       -0.045419   -1.289094    0.034648
 ---------------------------------------------------------------------
                    Distance matrix (angstroms):
                    1          2          3          4          5
     1  N    0.000000
     2  N    1.443101   0.000000
     3  N    2.227089   1.295104   0.000000
     4  O    2.456684   2.325030   1.390516   0.000000
     5  O    3.398790   2.212948   1.211002   2.209751   0.000000
     6  H    1.019985   1.987632   2.896169   3.172267   3.999654
     7  H    1.019981   1.987628   2.896464   3.171659   3.998883
     8  H    1.756317   2.220002   1.852941   1.000042   2.951908
                    6          7          8
     6  H    0.000000
     7  H    1.634190   0.000000
     8  H    2.462629   2.462207   0.000000
 Stoichiometry    H3N3O2
 Framework group  C1[X(H3N3O2)]
 Deg. of freedom    18
 Full point group                 C1      NOp   1
 RotChk:  IX=2 Diff= 5.07D-04
 Largest Abelian subgroup         C1      NOp   1
 Largest concise Abelian subgroup C1      NOp   1
                         Standard orientation:                         
 ---------------------------------------------------------------------
 Center     Atomic      Atomic             Coordinates (Angstroms)
 Number     Number       Type             X           Y           Z
 ---------------------------------------------------------------------
      1          7           0        1.684021    0.004133   -0.000261
      2          7           0        0.521578   -0.851009    0.000085
      3          7           0       -0.540172   -0.109402    0.001292
      4          8           0       -0.417962    1.275733   -0.000138
      5          8           0       -1.670113   -0.545013   -0.000687
      6          1           0        2.234798   -0.260244    0.816512
      7          1           0        2.234023   -0.259856   -0.817677
      8          1           0        0.577789    1.368282   -0.000047
 ---------------------------------------------------------------------
 Rotational constants (GHZ):     11.3696413      4.7480593      3.4101747
 Leave Link  202 at Thu Sep  8 14:51:37 2022, MaxMem= 24159191040 cpu:         0.9
 (Enter /public/home/users/caep010/software/Gaussian09/g09/l301.exe)
 Standard basis: 6-31G(d,p) (6D, 7F)
 Ernie: Thresh=  0.10000D-02 Tol=  0.10000D-05 Strict=F.
 There are    90 symmetry adapted cartesian basis functions of A   symmetry.
 There are    90 symmetry adapted basis functions of A   symmetry.
    90 basis functions,   161 primitive gaussians,    90 cartesian basis functions
    20 alpha electrons       20 beta electrons
       nuclear repulsion energy       188.1915033225 Hartrees.
 IExCor=  402 DFT=T Ex+Corr=B3LYP ExCW=0 ScaHFX=  0.200000
 ScaDFX=  0.800000  0.720000  1.000000  0.810000 ScalE2=  1.000000  1.000000
 IRadAn=      0 IRanWt=     -1 IRanGd=            0 ICorTp=0 IEmpDi=  4
 NAtoms=    8 NActive=    8 NUniq=    8 SFac= 1.00D+00 NAtFMM=   60 NAOKFM=F Big=F
 Integral buffers will be    131072 words long.
 Raffenetti 2 integral format.
 Two-electron integral symmetry is turned on.
 Leave Link  301 at Thu Sep  8 14:51:37 2022, MaxMem= 24159191040 cpu:         1.6
 (Enter /public/home/users/caep010/software/Gaussian09/g09/l302.exe)
 NPDir=0 NMtPBC=     1 NCelOv=     1 NCel=       1 NClECP=     1 NCelD=      1
         NCelK=      1 NCelE2=     1 NClLst=     1 CellRange=     0.0.
 One-electron integrals computed using PRISM.
 NBasis=    90 RedAO= T EigKep=  3.50D-03  NBF=    90
 NBsUse=    90 1.00D-06 EigRej= -1.00D+00 NBFU=    90
 Precomputing XC quadrature grid using
 IXCGrd= 4 IRadAn=           0 IRanWt=          -1 IRanGd=           0 AccXCQ= 0.00D+00.
 Generated NRdTot=       0 NPtTot=           0 NUsed=           0 NTot=          32
 NSgBfM=    90    90    90    90    90 MxSgAt=     8 MxSgA2=     8.
 Leave Link  302 at Thu Sep  8 14:51:37 2022, MaxMem= 24159191040 cpu:        14.1
 (Enter /public/home/users/caep010/software/Gaussian09/g09/l303.exe)
 DipDrv:  MaxL=1.
 Leave Link  303 at Thu Sep  8 14:51:37 2022, MaxMem= 24159191040 cpu:         0.6
 (Enter /public/home/users/caep010/software/Gaussian09/g09/l401.exe)
 Initial guess from the checkpoint file:  "B3LYP6-31Gdp.Frag_1135.chk"
 B after Tr=    -0.000000    0.000000    0.000000
         Rot=    1.000000   -0.000039   -0.000016   -0.000000 Ang=  -0.00 deg.
 Guess basis will be translated and rotated to current coordinates.
 JPrj=2 DoOrth=T DoCkMO=T.
 Generating alternative initial guess.
 ExpMin= 1.61D-01 ExpMax= 5.48D+03 ExpMxC= 8.25D+02 IAcc=1 IRadAn=         1 AccDes= 0.00D+00
 Harris functional with IExCor=  402 and IRadAn=       1 diagonalized for initial guess.
 HarFok:  IExCor=  402 AccDes= 0.00D+00 IRadAn=         1 IDoV= 1 UseB2=F ITyADJ=14
 ICtDFT=  3500011 ScaDFX=  1.000000  1.000000  1.000000  1.000000
 FoFCou: FMM=F IPFlag=           0 FMFlag=      100000 FMFlg1=           0
         NFxFlg=           0 DoJE=T BraDBF=F KetDBF=T FulRan=T
         wScrn=  0.000000 ICntrl=     500 IOpCl=  0 I1Cent=   200000004 NGrid=           0
         NMat0=    1 NMatS0=      1 NMatT0=    0 NMatD0=    1 NMtDS0=    0 NMtDT0=    0
 Petite list used in FoFCou.
 Harris En= -316.366831502151    
 Leave Link  401 at Thu Sep  8 14:51:38 2022, MaxMem= 24159191040 cpu:        11.1
 (Enter /public/home/users/caep010/software/Gaussian09/g09/l502.exe)
 Closed shell SCF:
 Using DIIS extrapolation, IDIIS=  1040.
 Integral symmetry usage will be decided dynamically.
 Keep R1 ints in memory in canonical form, NReq=9343545.
 IVT=       46405 IEndB=       46405 NGot= 24159191040 MDV= 24150758076
 LenX= 24150758076 LenY= 24150749535
 Requested convergence on RMS density matrix=1.00D-08 within 128 cycles.
 Requested convergence on MAX density matrix=1.00D-06.
 Requested convergence on             energy=1.00D-06.
 No special actions if energy rises.
 FoFCou: FMM=F IPFlag=           0 FMFlag=           0 FMFlg1=           0
         NFxFlg=           0 DoJE=F BraDBF=F KetDBF=F FulRan=T
         wScrn=  0.000000 ICntrl=     600 IOpCl=  0 I1Cent=           0 NGrid=           0
         NMat0=    1 NMatS0=   4095 NMatT0=    0 NMatD0=    1 NMtDS0=    0 NMtDT0=    0
 Symmetry not used in FoFCou.
 Integral accuracy reduced to 1.0D-05 until final iterations.

 Cycle   1  Pass 0  IDiag  1:
 E= -316.347660075141    
 DIIS: error= 4.65D-04 at cycle   1 NSaved=   1.
 NSaved= 1 IEnMin= 1 EnMin= -316.347660075141     IErMin= 1 ErrMin= 4.65D-04
 ErrMax= 4.65D-04  0.00D+00 EMaxC= 1.00D-01 BMatC= 6.46D-05 BMatP= 6.46D-05
 IDIUse=3 WtCom= 9.95D-01 WtEn= 4.65D-03
 Coeff-Com:  0.100D+01
 Coeff-En:   0.100D+01
 Coeff:      0.100D+01
 Gap=     1.917 Goal=   None    Shift=    0.000
 RMSDP=1.64D-04 MaxDP=2.88D-03              OVMax= 2.73D-03

 Cycle   2  Pass 0  IDiag  1:
 E= -316.347736505779     Delta-E=       -0.000076430638 Rises=F Damp=F
 DIIS: error= 2.60D-04 at cycle   2 NSaved=   2.
 NSaved= 2 IEnMin= 2 EnMin= -316.347736505779     IErMin= 2 ErrMin= 2.60D-04
 ErrMax= 2.60D-04  0.00D+00 EMaxC= 1.00D-01 BMatC= 8.96D-06 BMatP= 6.46D-05
 IDIUse=3 WtCom= 9.97D-01 WtEn= 2.60D-03
 Coeff-Com:  0.170D+00 0.830D+00
 Coeff-En:   0.000D+00 0.100D+01
 Coeff:      0.169D+00 0.831D+00
 Gap=     0.231 Goal=   None    Shift=    0.000
 RMSDP=6.02D-05 MaxDP=8.23D-04 DE=-7.64D-05 OVMax= 1.45D-03

 Cycle   3  Pass 0  IDiag  1:
 E= -316.347733326884     Delta-E=        0.000003178895 Rises=F Damp=F
 DIIS: error= 3.29D-04 at cycle   3 NSaved=   3.
 NSaved= 3 IEnMin= 2 EnMin= -316.347736505779     IErMin= 2 ErrMin= 2.60D-04
 ErrMax= 3.29D-04  0.00D+00 EMaxC= 1.00D-01 BMatC= 1.38D-05 BMatP= 8.96D-06
 IDIUse=3 WtCom= 3.55D-01 WtEn= 6.45D-01
 Coeff-Com:  0.549D-02 0.557D+00 0.438D+00
 Coeff-En:   0.000D+00 0.574D+00 0.426D+00
 Coeff:      0.195D-02 0.568D+00 0.430D+00
 Gap=     0.231 Goal=   None    Shift=    0.000
 RMSDP=3.72D-05 MaxDP=8.08D-04 DE= 3.18D-06 OVMax= 1.66D-03

 Cycle   4  Pass 0  IDiag  1:
 E= -316.347743078706     Delta-E=       -0.000009751822 Rises=F Damp=F
 DIIS: error= 1.15D-04 at cycle   4 NSaved=   4.
 NSaved= 4 IEnMin= 4 EnMin= -316.347743078706     IErMin= 4 ErrMin= 1.15D-04
 ErrMax= 1.15D-04  0.00D+00 EMaxC= 1.00D-01 BMatC= 1.68D-06 BMatP= 8.96D-06
 IDIUse=3 WtCom= 9.99D-01 WtEn= 1.15D-03
 Coeff-Com: -0.182D-01 0.305D+00 0.294D+00 0.418D+00
 Coeff-En:   0.000D+00 0.000D+00 0.601D-01 0.940D+00
 Coeff:     -0.181D-01 0.305D+00 0.294D+00 0.419D+00
 Gap=     0.231 Goal=   None    Shift=    0.000
 RMSDP=1.44D-05 MaxDP=3.80D-04 DE=-9.75D-06 OVMax= 7.54D-04

 Cycle   5  Pass 0  IDiag  1:
 E= -316.347744256625     Delta-E=       -0.000001177918 Rises=F Damp=F
 DIIS: error= 3.67D-05 at cycle   5 NSaved=   5.
 NSaved= 5 IEnMin= 5 EnMin= -316.347744256625     IErMin= 5 ErrMin= 3.67D-05
 ErrMax= 3.67D-05  0.00D+00 EMaxC= 1.00D-01 BMatC= 1.90D-07 BMatP= 1.68D-06
 IDIUse=1 WtCom= 1.00D+00 WtEn= 0.00D+00
 Coeff-Com: -0.105D-01 0.140D+00 0.144D+00 0.282D+00 0.445D+00
 Coeff:     -0.105D-01 0.140D+00 0.144D+00 0.282D+00 0.445D+00
 Gap=     0.231 Goal=   None    Shift=    0.000
 RMSDP=4.39D-06 MaxDP=1.28D-04 DE=-1.18D-06 OVMax= 2.26D-04

 Initial convergence to 1.0D-05 achieved.  Increase integral accuracy.
 Cycle   6  Pass 1  IDiag  1:
 E= -316.347762553847     Delta-E=       -0.000018297222 Rises=F Damp=F
 DIIS: error= 2.13D-05 at cycle   1 NSaved=   1.
 NSaved= 1 IEnMin= 1 EnMin= -316.347762553847     IErMin= 1 ErrMin= 2.13D-05
 ErrMax= 2.13D-05  0.00D+00 EMaxC= 1.00D-01 BMatC= 2.94D-08 BMatP= 2.94D-08
 IDIUse=1 WtCom= 1.00D+00 WtEn= 0.00D+00
 Coeff-Com:  0.100D+01
 Coeff:      0.100D+01
 Gap=     0.231 Goal=   None    Shift=    0.000
 RMSDP=4.39D-06 MaxDP=1.28D-04 DE=-1.83D-05 OVMax= 9.21D-05

 Cycle   7  Pass 1  IDiag  1:
 E= -316.347762543927     Delta-E=        0.000000009920 Rises=F Damp=F
 DIIS: error= 1.83D-05 at cycle   2 NSaved=   2.
 NSaved= 2 IEnMin= 1 EnMin= -316.347762553847     IErMin= 2 ErrMin= 1.83D-05
 ErrMax= 1.83D-05  0.00D+00 EMaxC= 1.00D-01 BMatC= 4.34D-08 BMatP= 2.94D-08
 IDIUse=1 WtCom= 1.00D+00 WtEn= 0.00D+00
 Coeff-Com:  0.562D+00 0.438D+00
 Coeff:      0.562D+00 0.438D+00
 Gap=     0.231 Goal=   None    Shift=    0.000
 RMSDP=2.64D-06 MaxDP=6.65D-05 DE= 9.92D-09 OVMax= 1.33D-04

 Cycle   8  Pass 1  IDiag  1:
 E= -316.347762569125     Delta-E=       -0.000000025198 Rises=F Damp=F
 DIIS: error= 1.03D-05 at cycle   3 NSaved=   3.
 NSaved= 3 IEnMin= 3 EnMin= -316.347762569125     IErMin= 3 ErrMin= 1.03D-05
 ErrMax= 1.03D-05  0.00D+00 EMaxC= 1.00D-01 BMatC= 1.22D-08 BMatP= 2.94D-08
 IDIUse=1 WtCom= 1.00D+00 WtEn= 0.00D+00
 Coeff-Com:  0.112D+00 0.333D+00 0.555D+00
 Coeff:      0.112D+00 0.333D+00 0.555D+00
 Gap=     0.231 Goal=   None    Shift=    0.000
 RMSDP=1.35D-06 MaxDP=3.50D-05 DE=-2.52D-08 OVMax= 7.02D-05

 Cycle   9  Pass 1  IDiag  1:
 E= -316.347762577216     Delta-E=       -0.000000008091 Rises=F Damp=F
 DIIS: error= 4.40D-06 at cycle   4 NSaved=   4.
 NSaved= 4 IEnMin= 4 EnMin= -316.347762577216     IErMin= 4 ErrMin= 4.40D-06
 ErrMax= 4.40D-06  0.00D+00 EMaxC= 1.00D-01 BMatC= 2.94D-09 BMatP= 1.22D-08
 IDIUse=1 WtCom= 1.00D+00 WtEn= 0.00D+00
 Coeff-Com: -0.638D-02 0.182D+00 0.406D+00 0.419D+00
 Coeff:     -0.638D-02 0.182D+00 0.406D+00 0.419D+00
 Gap=     0.231 Goal=   None    Shift=    0.000
 RMSDP=4.72D-07 MaxDP=1.11D-05 DE=-8.09D-09 OVMax= 2.15D-05

 Cycle  10  Pass 1  IDiag  1:
 E= -316.347762579351     Delta-E=       -0.000000002136 Rises=F Damp=F
 DIIS: error= 8.51D-07 at cycle   5 NSaved=   5.
 NSaved= 5 IEnMin= 5 EnMin= -316.347762579351     IErMin= 5 ErrMin= 8.51D-07
 ErrMax= 8.51D-07  0.00D+00 EMaxC= 1.00D-01 BMatC= 7.97D-11 BMatP= 2.94D-09
 IDIUse=1 WtCom= 1.00D+00 WtEn= 0.00D+00
 Coeff-Com: -0.826D-02 0.854D-01 0.194D+00 0.243D+00 0.486D+00
 Coeff:     -0.826D-02 0.854D-01 0.194D+00 0.243D+00 0.486D+00
 Gap=     0.231 Goal=   None    Shift=    0.000
 RMSDP=8.91D-08 MaxDP=1.69D-06 DE=-2.14D-09 OVMax= 2.08D-06

 Cycle  11  Pass 1  IDiag  1:
 E= -316.347762579419     Delta-E=       -0.000000000068 Rises=F Damp=F
 DIIS: error= 1.55D-07 at cycle   6 NSaved=   6.
 NSaved= 6 IEnMin= 6 EnMin= -316.347762579419     IErMin= 6 ErrMin= 1.55D-07
 ErrMax= 1.55D-07  0.00D+00 EMaxC= 1.00D-01 BMatC= 1.97D-12 BMatP= 7.97D-11
 IDIUse=1 WtCom= 1.00D+00 WtEn= 0.00D+00
 Coeff-Com: -0.282D-02 0.270D-01 0.567D-01 0.817D-01 0.185D+00 0.653D+00
 Coeff:     -0.282D-02 0.270D-01 0.567D-01 0.817D-01 0.185D+00 0.653D+00
 Gap=     0.231 Goal=   None    Shift=    0.000
 RMSDP=1.92D-08 MaxDP=3.04D-07 DE=-6.78D-11 OVMax= 6.27D-07

 Cycle  12  Pass 1  IDiag  1:
 E= -316.347762579421     Delta-E=       -0.000000000002 Rises=F Damp=F
 DIIS: error= 1.05D-07 at cycle   7 NSaved=   7.
 NSaved= 7 IEnMin= 7 EnMin= -316.347762579421     IErMin= 7 ErrMin= 1.05D-07
 ErrMax= 1.05D-07  0.00D+00 EMaxC= 1.00D-01 BMatC= 1.19D-12 BMatP= 1.97D-12
 IDIUse=1 WtCom= 1.00D+00 WtEn= 0.00D+00
 Coeff-Com: -0.250D-03 0.483D-03-0.351D-02 0.557D-02 0.240D-01 0.492D+00
 Coeff-Com:  0.482D+00
 Coeff:     -0.250D-03 0.483D-03-0.351D-02 0.557D-02 0.240D-01 0.492D+00
 Coeff:      0.482D+00
 Gap=     0.231 Goal=   None    Shift=    0.000
 RMSDP=9.72D-09 MaxDP=2.31D-07 DE=-1.59D-12 OVMax= 2.64D-07

 SCF Done:  E(RB3LYP) =  -316.347762579     A.U. after   12 cycles
            NFock= 12  Conv=0.97D-08     -V/T= 2.0086
 KE= 3.136636388627D+02 PE=-1.118393110997D+03 EE= 3.001902062325D+02
 Leave Link  502 at Thu Sep  8 14:51:39 2022, MaxMem= 24159191040 cpu:        21.0
 (Enter /public/home/users/caep010/software/Gaussian09/g09/l701.exe)
 Compute integral first derivatives.
 ... and contract with generalized density number  0.
 Leave Link  701 at Thu Sep  8 14:51:39 2022, MaxMem= 24159191040 cpu:        11.1
 (Enter /public/home/users/caep010/software/Gaussian09/g09/l702.exe)
 L702 exits ... SP integral derivatives will be done elsewhere.
 Leave Link  702 at Thu Sep  8 14:51:39 2022, MaxMem= 24159191040 cpu:         0.5
 (Enter /public/home/users/caep010/software/Gaussian09/g09/l703.exe)
 Compute integral first derivatives, UseDBF=F ICtDFT=           0.
 Integral derivatives from FoFJK, PRISM(SPDF).
 Calling FoFJK, ICntrl=      2127 FMM=F ISym2X=0 I1Cent= 0 IOpClX= 0 NMat=1 NMatS=1 NMatT=0.
 FoFJK:  IHMeth= 1 ICntrl=    2127 DoSepK=F KAlg= 0 I1Cent=   0 FoldK=F
 IRaf=         0 NMat=   1 IRICut=       1 DoRegI=T DoRafI=F ISym2E= 0.
 FoFCou: FMM=F IPFlag=           0 FMFlag=      100000 FMFlg1=         800
         NFxFlg=           0 DoJE=F BraDBF=F KetDBF=F FulRan=T
         wScrn=  0.000000 ICntrl=    2127 IOpCl=  0 I1Cent=           0 NGrid=           0
         NMat0=    1 NMatS0=      1 NMatT0=    0 NMatD0=    1 NMtDS0=    0 NMtDT0=    0
 Symmetry not used in FoFCou.
 Leave Link  703 at Thu Sep  8 14:51:39 2022, MaxMem= 24159191040 cpu:         8.6
 (Enter /public/home/users/caep010/software/Gaussian09/g09/l716.exe)
 Dipole        = 1.81337921D+00 3.64406283D-01 6.52374860D-04
 ***** Axes restored to original set *****
 -------------------------------------------------------------------
 Center     Atomic                   Forces (Hartrees/Bohr)
 Number     Number              X              Y              Z
 -------------------------------------------------------------------
      1        7          -0.000301927   -0.000978150    0.000188525
      2        7           0.000018199    0.000186240    0.000156139
      3        7          -0.002642101    0.000534106    0.000167880
      4        8           0.000262536   -0.001699419    0.000111339
      5        8           0.001589815   -0.000153833   -0.000237824
      6        1           0.000029187    0.000192228   -0.000105015
      7        1           0.000106745    0.000210495    0.000039905
      8        1           0.000937546    0.001708333   -0.000320949
 -------------------------------------------------------------------
 Cartesian Forces:  Max     0.002642101 RMS     0.000866522
 Leave Link  716 at Thu Sep  8 14:51:40 2022, MaxMem= 24159191040 cpu:         0.6
 (Enter /public/home/users/caep010/software/Gaussian09/g09/l103.exe)

 GradGradGradGradGradGradGradGradGradGradGradGradGradGradGradGradGradGrad
 Berny optimization.
 Using GEDIIS/GDIIS optimizer.
 FormGI is forming the generalized inverse of G from B-inverse, IUseBI=4.
 Internal  Forces:  Max     0.003131774 RMS     0.000839103
 Search for a local minimum.
 Step number   2 out of a maximum of   32
 All quantities printed in internal units (Hartrees-Bohrs-Radians)
 RMS Force = .83910D-03 SwitMx=.10000D-02 MixMth= 2
 Mixed Optimization -- En-DIIS/RFO-DIIS
 Update second derivatives using D2CorX and points    1    2
 DE= -1.14D-04 DEPred=-1.36D-04 R= 8.35D-01
 TightC=F SS=  1.41D+00  RLast= 2.46D-02 DXNew= 5.0454D-01 7.3836D-02
 Trust test= 8.35D-01 RLast= 2.46D-02 DXMaxT set to 3.00D-01
 ITU=  1  0
 Use linear search instead of GDIIS.
     Eigenvalues ---    0.00753   0.01497   0.02192   0.02733   0.05545
     Eigenvalues ---    0.12390   0.15990   0.19641   0.24605   0.25000
     Eigenvalues ---    0.26212   0.38714   0.44563   0.44596   0.47030
     Eigenvalues ---    0.52120   0.68763   0.89842
 RFO step:  Lambda=-5.97353896D-05 EMin= 7.52823181D-03
 Quartic linear search produced a step of -0.13745.
 Iteration  1 RMS(Cart)=  0.00671479 RMS(Int)=  0.00005339
 Iteration  2 RMS(Cart)=  0.00004298 RMS(Int)=  0.00001589
 Iteration  3 RMS(Cart)=  0.00000000 RMS(Int)=  0.00001589
 ITry= 1 IFail=0 DXMaxC= 2.55D-02 DCOld= 1.00D+10 DXMaxT= 3.00D-01 DXLimC= 3.00D+00 Rises=F
 Variable       Old X    -DE/DX   Delta X   Delta X   Delta X     New X
                                 (Linear)    (Quad)   (Total)
    R1        2.72707   0.00047  -0.00055   0.00245   0.00190   2.72896
    R2        1.92749  -0.00005  -0.00041   0.00098   0.00056   1.92805
    R3        1.92749  -0.00005  -0.00041   0.00097   0.00056   1.92804
    R4        2.44739  -0.00006  -0.00099   0.00249   0.00150   2.44889
    R5        2.62769  -0.00016  -0.00152   0.00361   0.00209   2.62979
    R6        2.28846   0.00145  -0.00142   0.00490   0.00348   2.29194
    R7        1.88981  -0.00107  -0.00074  -0.00003  -0.00076   1.88905
    A1        1.85582  -0.00025  -0.00005  -0.00204  -0.00209   1.85373
    A2        1.85582  -0.00012  -0.00006  -0.00224  -0.00230   1.85352
    A3        1.85822  -0.00006  -0.00027  -0.00087  -0.00114   1.85708
    A4        1.89764  -0.00047   0.00038  -0.00259  -0.00221   1.89543
    A5        2.09249  -0.00051  -0.00039  -0.00075  -0.00119   2.09131
    A6        2.16393   0.00102   0.00048   0.00231   0.00275   2.16668
    A7        2.02675  -0.00050  -0.00009  -0.00150  -0.00163   2.02513
    A8        1.75148  -0.00313  -0.00192  -0.01201  -0.01394   1.73754
    D1        2.15345   0.00013   0.00021   0.00253   0.00274   2.15619
    D2       -2.15432  -0.00011  -0.00014  -0.00035  -0.00049  -2.15481
    D3        1.97376  -0.00028  -0.00021  -0.00383  -0.00404   1.96973
    D4        0.00178  -0.00018  -0.00033  -0.00700  -0.00734  -0.00556
    D5        3.13906   0.00028   0.00042   0.00988   0.01031  -3.13382
    D6       -0.00195   0.00021   0.00039   0.00731   0.00769   0.00575
    D7       -3.13955  -0.00022  -0.00030  -0.00829  -0.00858   3.13506
         Item               Value     Threshold  Converged?
 Maximum Force            0.003132     0.000450     NO 
 RMS     Force            0.000839     0.000300     NO 
 Maximum Displacement     0.025458     0.001800     NO 
 RMS     Displacement     0.006722     0.001200     NO 
 Predicted change in Energy=-3.253596D-05
 Lowest energy point so far.  Saving SCF results.
 GradGradGradGradGradGradGradGradGradGradGradGradGradGradGradGradGradGrad

 Leave Link  103 at Thu Sep  8 14:51:40 2022, MaxMem= 24159191040 cpu:         1.0
 (Enter /public/home/users/caep010/software/Gaussian09/g09/l202.exe)
                          Input orientation:                          
 ---------------------------------------------------------------------
 Center     Atomic      Atomic             Coordinates (Angstroms)
 Number     Number       Type             X           Y           Z
 ---------------------------------------------------------------------
      1          7           0       -1.050111    0.116917    0.329247
      2          7           0        0.085391    0.925193   -0.048596
      3          7           0        1.069980    0.138921   -0.351438
      4          8           0        0.904934   -1.240387   -0.268443
      5          8           0        2.165650    0.523791   -0.701247
      6          1           0       -1.315311    0.418955    1.267020
      7          1           0       -1.813743    0.392231   -0.288842
      8          1           0       -0.046791   -1.275622    0.035296
 ---------------------------------------------------------------------
                    Distance matrix (angstroms):
                    1          2          3          4          5
     1  N    0.000000
     2  N    1.444106   0.000000
     3  N    2.226792   1.295898   0.000000
     4  O    2.453917   2.325880   1.391625   0.000000
     5  O    3.401263   2.216879   1.212842   2.211119   0.000000
     6  H    1.020282   1.987231   2.896107   3.168683   4.000269
     7  H    1.020277   1.987078   2.895504   3.171288   4.002869
     8  H    1.741328   2.206376   1.843277   0.999640   2.945383
                    6          7          8
     6  H    0.000000
     7  H    1.633969   0.000000
     8  H    2.449057   2.451310   0.000000
 Stoichiometry    H3N3O2
 Framework group  C1[X(H3N3O2)]
 Deg. of freedom    18
 Full point group                 C1      NOp   1
 RotChk:  IX=0 Diff= 1.85D-03
 Largest Abelian subgroup         C1      NOp   1
 Largest concise Abelian subgroup C1      NOp   1
                         Standard orientation:                         
 ---------------------------------------------------------------------
 Center     Atomic      Atomic             Coordinates (Angstroms)
 Number     Number       Type             X           Y           Z
 ---------------------------------------------------------------------
      1          7           0        1.683740    0.005034    0.000721
      2          7           0        0.521865   -0.852571   -0.000215
      3          7           0       -0.540081   -0.109867   -0.003983
      4          8           0       -0.415304    1.276146    0.000359
      5          8           0       -1.673194   -0.542304    0.002137
      6          1           0        2.232573   -0.259781    0.819030
      7          1           0        2.235368   -0.262132   -0.814935
      8          1           0        0.581376    1.353003    0.000278
 ---------------------------------------------------------------------
 Rotational constants (GHZ):     11.3778852      4.7427654      3.4081790
 Leave Link  202 at Thu Sep  8 14:51:40 2022, MaxMem= 24159191040 cpu:         0.2
 (Enter /public/home/users/caep010/software/Gaussian09/g09/l301.exe)
 Standard basis: 6-31G(d,p) (6D, 7F)
 Ernie: Thresh=  0.10000D-02 Tol=  0.10000D-05 Strict=F.
 There are    90 symmetry adapted cartesian basis functions of A   symmetry.
 There are    90 symmetry adapted basis functions of A   symmetry.
    90 basis functions,   161 primitive gaussians,    90 cartesian basis functions
    20 alpha electrons       20 beta electrons
       nuclear repulsion energy       188.1292756354 Hartrees.
 IExCor=  402 DFT=T Ex+Corr=B3LYP ExCW=0 ScaHFX=  0.200000
 ScaDFX=  0.800000  0.720000  1.000000  0.810000 ScalE2=  1.000000  1.000000
 IRadAn=      0 IRanWt=     -1 IRanGd=            0 ICorTp=0 IEmpDi=  4
 NAtoms=    8 NActive=    8 NUniq=    8 SFac= 1.00D+00 NAtFMM=   60 NAOKFM=F Big=F
 Integral buffers will be    131072 words long.
 Raffenetti 2 integral format.
 Two-electron integral symmetry is turned on.
 Leave Link  301 at Thu Sep  8 14:51:40 2022, MaxMem= 24159191040 cpu:         1.8
 (Enter /public/home/users/caep010/software/Gaussian09/g09/l302.exe)
 NPDir=0 NMtPBC=     1 NCelOv=     1 NCel=       1 NClECP=     1 NCelD=      1
         NCelK=      1 NCelE2=     1 NClLst=     1 CellRange=     0.0.
 One-electron integrals computed using PRISM.
 NBasis=    90 RedAO= T EigKep=  3.52D-03  NBF=    90
 NBsUse=    90 1.00D-06 EigRej= -1.00D+00 NBFU=    90
 Precomputing XC quadrature grid using
 IXCGrd= 4 IRadAn=           0 IRanWt=          -1 IRanGd=           0 AccXCQ= 0.00D+00.
 Generated NRdTot=       0 NPtTot=           0 NUsed=           0 NTot=          32
 NSgBfM=    90    90    90    90    90 MxSgAt=     8 MxSgA2=     8.
 Leave Link  302 at Thu Sep  8 14:51:40 2022, MaxMem= 24159191040 cpu:        10.5
 (Enter /public/home/users/caep010/software/Gaussian09/g09/l303.exe)
 DipDrv:  MaxL=1.
 Leave Link  303 at Thu Sep  8 14:51:40 2022, MaxMem= 24159191040 cpu:         0.6
 (Enter /public/home/users/caep010/software/Gaussian09/g09/l401.exe)
 Initial guess from the checkpoint file:  "B3LYP6-31Gdp.Frag_1135.chk"
 B after Tr=     0.000000   -0.000000   -0.000000
         Rot=    1.000000    0.000095    0.000050    0.000545 Ang=   0.06 deg.
 Guess basis will be translated and rotated to current coordinates.
 JPrj=2 DoOrth=T DoCkMO=T.
 Generating alternative initial guess.
 ExpMin= 1.61D-01 ExpMax= 5.48D+03 ExpMxC= 8.25D+02 IAcc=1 IRadAn=         1 AccDes= 0.00D+00
 Harris functional with IExCor=  402 and IRadAn=       1 diagonalized for initial guess.
 HarFok:  IExCor=  402 AccDes= 0.00D+00 IRadAn=         1 IDoV= 1 UseB2=F ITyADJ=14
 ICtDFT=  3500011 ScaDFX=  1.000000  1.000000  1.000000  1.000000
 FoFCou: FMM=F IPFlag=           0 FMFlag=      100000 FMFlg1=           0
         NFxFlg=           0 DoJE=T BraDBF=F KetDBF=T FulRan=T
         wScrn=  0.000000 ICntrl=     500 IOpCl=  0 I1Cent=   200000004 NGrid=           0
         NMat0=    1 NMatS0=      1 NMatT0=    0 NMatD0=    1 NMtDS0=    0 NMtDT0=    0
 Petite list used in FoFCou.
 Harris En= -316.366834956221    
 Leave Link  401 at Thu Sep  8 14:51:41 2022, MaxMem= 24159191040 cpu:        11.3
 (Enter /public/home/users/caep010/software/Gaussian09/g09/l502.exe)
 Closed shell SCF:
 Using DIIS extrapolation, IDIIS=  1040.
 Integral symmetry usage will be decided dynamically.
 Keep R1 ints in memory in canonical form, NReq=9343545.
 IVT=       46405 IEndB=       46405 NGot= 24159191040 MDV= 24150758076
 LenX= 24150758076 LenY= 24150749535
 Requested convergence on RMS density matrix=1.00D-08 within 128 cycles.
 Requested convergence on MAX density matrix=1.00D-06.
 Requested convergence on             energy=1.00D-06.
 No special actions if energy rises.
 FoFCou: FMM=F IPFlag=           0 FMFlag=           0 FMFlg1=           0
         NFxFlg=           0 DoJE=F BraDBF=F KetDBF=F FulRan=T
         wScrn=  0.000000 ICntrl=     600 IOpCl=  0 I1Cent=           0 NGrid=           0
         NMat0=    1 NMatS0=   4095 NMatT0=    0 NMatD0=    1 NMtDS0=    0 NMtDT0=    0
 Symmetry not used in FoFCou.
 Integral accuracy reduced to 1.0D-05 until final iterations.

 Cycle   1  Pass 0  IDiag  1:
 E= -316.347669117315    
 DIIS: error= 4.78D-04 at cycle   1 NSaved=   1.
 NSaved= 1 IEnMin= 1 EnMin= -316.347669117315     IErMin= 1 ErrMin= 4.78D-04
 ErrMax= 4.78D-04  0.00D+00 EMaxC= 1.00D-01 BMatC= 5.23D-05 BMatP= 5.23D-05
 IDIUse=3 WtCom= 9.95D-01 WtEn= 4.78D-03
 Coeff-Com:  0.100D+01
 Coeff-En:   0.100D+01
 Coeff:      0.100D+01
 Gap=     1.913 Goal=   None    Shift=    0.000
 RMSDP=1.61D-04 MaxDP=2.56D-03              OVMax= 2.48D-03

 Cycle   2  Pass 0  IDiag  1:
 E= -316.347751308164     Delta-E=       -0.000082190850 Rises=F Damp=F
 DIIS: error= 1.64D-04 at cycle   2 NSaved=   2.
 NSaved= 2 IEnMin= 2 EnMin= -316.347751308164     IErMin= 2 ErrMin= 1.64D-04
 ErrMax= 1.64D-04  0.00D+00 EMaxC= 1.00D-01 BMatC= 4.05D-06 BMatP= 5.23D-05
 IDIUse=3 WtCom= 9.98D-01 WtEn= 1.64D-03
 Coeff-Com:  0.462D-01 0.954D+00
 Coeff-En:   0.000D+00 0.100D+01
 Coeff:      0.461D-01 0.954D+00
 Gap=     0.231 Goal=   None    Shift=    0.000
 RMSDP=5.28D-05 MaxDP=1.23D-03 DE=-8.22D-05 OVMax= 2.46D-03

 Cycle   3  Pass 0  IDiag  1:
 E= -316.347741642890     Delta-E=        0.000009665275 Rises=F Damp=F
 DIIS: error= 3.22D-04 at cycle   3 NSaved=   3.
 NSaved= 3 IEnMin= 2 EnMin= -316.347751308164     IErMin= 2 ErrMin= 1.64D-04
 ErrMax= 3.22D-04  0.00D+00 EMaxC= 1.00D-01 BMatC= 1.52D-05 BMatP= 4.05D-06
 IDIUse=3 WtCom= 3.58D-01 WtEn= 6.42D-01
 Coeff-Com: -0.366D-01 0.692D+00 0.344D+00
 Coeff-En:   0.000D+00 0.750D+00 0.250D+00
 Coeff:     -0.131D-01 0.729D+00 0.284D+00
 Gap=     0.231 Goal=   None    Shift=    0.000
 RMSDP=3.53D-05 MaxDP=9.49D-04 DE= 9.67D-06 OVMax= 1.90D-03

 Cycle   4  Pass 0  IDiag  1:
 E= -316.347754681223     Delta-E=       -0.000013038334 Rises=F Damp=F
 DIIS: error= 5.53D-05 at cycle   4 NSaved=   4.
 NSaved= 4 IEnMin= 4 EnMin= -316.347754681223     IErMin= 4 ErrMin= 5.53D-05
 ErrMax= 5.53D-05  0.00D+00 EMaxC= 1.00D-01 BMatC= 3.39D-07 BMatP= 4.05D-06
 IDIUse=1 WtCom= 1.00D+00 WtEn= 0.00D+00
 Coeff-Com: -0.253D-01 0.334D+00 0.134D+00 0.558D+00
 Coeff:     -0.253D-01 0.334D+00 0.134D+00 0.558D+00
 Gap=     0.231 Goal=   None    Shift=    0.000
 RMSDP=6.95D-06 MaxDP=1.29D-04 DE=-1.30D-05 OVMax= 1.73D-04

 Initial convergence to 1.0D-05 achieved.  Increase integral accuracy.
 Cycle   5  Pass 1  IDiag  1:
 E= -316.347773912442     Delta-E=       -0.000019231219 Rises=F Damp=F
 DIIS: error= 2.88D-05 at cycle   1 NSaved=   1.
 NSaved= 1 IEnMin= 1 EnMin= -316.347773912442     IErMin= 1 ErrMin= 2.88D-05
 ErrMax= 2.88D-05  0.00D+00 EMaxC= 1.00D-01 BMatC= 1.08D-07 BMatP= 1.08D-07
 IDIUse=1 WtCom= 1.00D+00 WtEn= 0.00D+00
 Coeff-Com:  0.100D+01
 Coeff:      0.100D+01
 Gap=     0.231 Goal=   None    Shift=    0.000
 RMSDP=6.95D-06 MaxDP=1.29D-04 DE=-1.92D-05 OVMax= 2.47D-04

 Cycle   6  Pass 1  IDiag  1:
 E= -316.347773704175     Delta-E=        0.000000208267 Rises=F Damp=F
 DIIS: error= 5.59D-05 at cycle   2 NSaved=   2.
 NSaved= 2 IEnMin= 1 EnMin= -316.347773912442     IErMin= 1 ErrMin= 2.88D-05
 ErrMax= 5.59D-05  0.00D+00 EMaxC= 1.00D-01 BMatC= 3.84D-07 BMatP= 1.08D-07
 IDIUse=1 WtCom= 1.00D+00 WtEn= 0.00D+00
 Coeff-Com:  0.662D+00 0.338D+00
 Coeff:      0.662D+00 0.338D+00
 Gap=     0.231 Goal=   None    Shift=    0.000
 RMSDP=5.59D-06 MaxDP=1.27D-04 DE= 2.08D-07 OVMax= 1.88D-04

 Cycle   7  Pass 1  IDiag  1:
 E= -316.347773992005     Delta-E=       -0.000000287831 Rises=F Damp=F
 DIIS: error= 9.57D-06 at cycle   3 NSaved=   3.
 NSaved= 3 IEnMin= 3 EnMin= -316.347773992005     IErMin= 3 ErrMin= 9.57D-06
 ErrMax= 9.57D-06  0.00D+00 EMaxC= 1.00D-01 BMatC= 9.98D-09 BMatP= 1.08D-07
 IDIUse=1 WtCom= 1.00D+00 WtEn= 0.00D+00
 Coeff-Com:  0.272D+00 0.181D+00 0.547D+00
 Coeff:      0.272D+00 0.181D+00 0.547D+00
 Gap=     0.231 Goal=   None    Shift=    0.000
 RMSDP=1.56D-06 MaxDP=3.79D-05 DE=-2.88D-07 OVMax= 7.46D-05

 Cycle   8  Pass 1  IDiag  1:
 E= -316.347773995437     Delta-E=       -0.000000003431 Rises=F Damp=F
 DIIS: error= 5.57D-06 at cycle   4 NSaved=   4.
 NSaved= 4 IEnMin= 4 EnMin= -316.347773995437     IErMin= 4 ErrMin= 5.57D-06
 ErrMax= 5.57D-06  0.00D+00 EMaxC= 1.00D-01 BMatC= 5.44D-09 BMatP= 9.98D-09
 IDIUse=1 WtCom= 1.00D+00 WtEn= 0.00D+00
 Coeff-Com:  0.237D-01 0.451D-01 0.438D+00 0.493D+00
 Coeff:      0.237D-01 0.451D-01 0.438D+00 0.493D+00
 Gap=     0.231 Goal=   None    Shift=    0.000
 RMSDP=8.08D-07 MaxDP=2.07D-05 DE=-3.43D-09 OVMax= 4.28D-05

 Cycle   9  Pass 1  IDiag  1:
 E= -316.347773999755     Delta-E=       -0.000000004319 Rises=F Damp=F
 DIIS: error= 1.96D-06 at cycle   5 NSaved=   5.
 NSaved= 5 IEnMin= 5 EnMin= -316.347773999755     IErMin= 5 ErrMin= 1.96D-06
 ErrMax= 1.96D-06  0.00D+00 EMaxC= 1.00D-01 BMatC= 5.34D-10 BMatP= 5.44D-09
 IDIUse=1 WtCom= 1.00D+00 WtEn= 0.00D+00
 Coeff-Com: -0.431D-02 0.178D-01 0.257D+00 0.337D+00 0.393D+00
 Coeff:     -0.431D-02 0.178D-01 0.257D+00 0.337D+00 0.393D+00
 Gap=     0.231 Goal=   None    Shift=    0.000
 RMSDP=2.10D-07 MaxDP=5.93D-06 DE=-4.32D-09 OVMax= 8.71D-06

 Cycle  10  Pass 1  IDiag  1:
 E= -316.347774000181     Delta-E=       -0.000000000426 Rises=F Damp=F
 DIIS: error= 2.59D-07 at cycle   6 NSaved=   6.
 NSaved= 6 IEnMin= 6 EnMin= -316.347774000181     IErMin= 6 ErrMin= 2.59D-07
 ErrMax= 2.59D-07  0.00D+00 EMaxC= 1.00D-01 BMatC= 1.02D-11 BMatP= 5.34D-10
 IDIUse=1 WtCom= 1.00D+00 WtEn= 0.00D+00
 Coeff-Com: -0.370D-02 0.478D-02 0.788D-01 0.113D+00 0.182D+00 0.624D+00
 Coeff:     -0.370D-02 0.478D-02 0.788D-01 0.113D+00 0.182D+00 0.624D+00
 Gap=     0.231 Goal=   None    Shift=    0.000
 RMSDP=3.54D-08 MaxDP=6.37D-07 DE=-4.26D-10 OVMax= 8.02D-07

 Cycle  11  Pass 1  IDiag  1:
 E= -316.347774000186     Delta-E=       -0.000000000005 Rises=F Damp=F
 DIIS: error= 4.40D-08 at cycle   7 NSaved=   7.
 NSaved= 7 IEnMin= 7 EnMin= -316.347774000186     IErMin= 7 ErrMin= 4.40D-08
 ErrMax= 4.40D-08  0.00D+00 EMaxC= 1.00D-01 BMatC= 4.28D-13 BMatP= 1.02D-11
 IDIUse=1 WtCom= 1.00D+00 WtEn= 0.00D+00
 Coeff-Com: -0.156D-02 0.174D-02 0.282D-01 0.429D-01 0.702D-01 0.284D+00
 Coeff-Com:  0.574D+00
 Coeff:     -0.156D-02 0.174D-02 0.282D-01 0.429D-01 0.702D-01 0.284D+00
 Coeff:      0.574D+00
 Gap=     0.231 Goal=   None    Shift=    0.000
 RMSDP=7.35D-09 MaxDP=2.07D-07 DE=-4.89D-12 OVMax= 1.96D-07

 SCF Done:  E(RB3LYP) =  -316.347774000     A.U. after   11 cycles
            NFock= 11  Conv=0.74D-08     -V/T= 2.0086
 KE= 3.136581578463D+02 PE=-1.118261129798D+03 EE= 3.001259223158D+02
 Leave Link  502 at Thu Sep  8 14:51:42 2022, MaxMem= 24159191040 cpu:        21.7
 (Enter /public/home/users/caep010/software/Gaussian09/g09/l701.exe)
 Compute integral first derivatives.
 ... and contract with generalized density number  0.
 Leave Link  701 at Thu Sep  8 14:51:42 2022, MaxMem= 24159191040 cpu:        10.7
 (Enter /public/home/users/caep010/software/Gaussian09/g09/l702.exe)
 L702 exits ... SP integral derivatives will be done elsewhere.
 Leave Link  702 at Thu Sep  8 14:51:42 2022, MaxMem= 24159191040 cpu:         0.5
 (Enter /public/home/users/caep010/software/Gaussian09/g09/l703.exe)
 Compute integral first derivatives, UseDBF=F ICtDFT=           0.
 Integral derivatives from FoFJK, PRISM(SPDF).
 Calling FoFJK, ICntrl=      2127 FMM=F ISym2X=0 I1Cent= 0 IOpClX= 0 NMat=1 NMatS=1 NMatT=0.
 FoFJK:  IHMeth= 1 ICntrl=    2127 DoSepK=F KAlg= 0 I1Cent=   0 FoldK=F
 IRaf=         0 NMat=   1 IRICut=       1 DoRegI=T DoRafI=F ISym2E= 0.
 FoFCou: FMM=F IPFlag=           0 FMFlag=      100000 FMFlg1=         800
         NFxFlg=           0 DoJE=F BraDBF=F KetDBF=F FulRan=T
         wScrn=  0.000000 ICntrl=    2127 IOpCl=  0 I1Cent=           0 NGrid=           0
         NMat0=    1 NMatS0=      1 NMatT0=    0 NMatD0=    1 NMtDS0=    0 NMtDT0=    0
 Symmetry not used in FoFCou.
 Leave Link  703 at Thu Sep  8 14:51:42 2022, MaxMem= 24159191040 cpu:        10.4
 (Enter /public/home/users/caep010/software/Gaussian09/g09/l716.exe)
 Dipole        = 1.82187924D+00 3.50052666D-01-1.52367444D-03
 ***** Axes restored to original set *****
 -------------------------------------------------------------------
 Center     Atomic                   Forces (Hartrees/Bohr)
 Number     Number              X              Y              Z
 -------------------------------------------------------------------
      1        7          -0.000436569    0.000128478   -0.000078441
      2        7           0.000747919   -0.000333593   -0.000731253
      3        7           0.001385149    0.000425639    0.001607700
      4        8          -0.000019528    0.000446974   -0.000500542
      5        8          -0.001500049   -0.000123940   -0.000352856
      6        1           0.000099547   -0.000041053   -0.000190471
      7        1           0.000107533   -0.000105940    0.000164671
      8        1          -0.000384002   -0.000396564    0.000081193
 -------------------------------------------------------------------
 Cartesian Forces:  Max     0.001607700 RMS     0.000624265
 Leave Link  716 at Thu Sep  8 14:51:43 2022, MaxMem= 24159191040 cpu:         0.5
 (Enter /public/home/users/caep010/software/Gaussian09/g09/l103.exe)

 GradGradGradGradGradGradGradGradGradGradGradGradGradGradGradGradGradGrad
 Berny optimization.
 Using GEDIIS/GDIIS optimizer.
 FormGI is forming the generalized inverse of G from B-inverse, IUseBI=4.
 Internal  Forces:  Max     0.001293287 RMS     0.000499067
 Search for a local minimum.
 Step number   3 out of a maximum of   32
 All quantities printed in internal units (Hartrees-Bohrs-Radians)
 RMS Force = .49907D-03 SwitMx=.10000D-02 MixMth= 2
 Mixed Optimization -- En-DIIS/RFO-DIIS
 Swapping is turned off.
 Update second derivatives using D2CorX and points    1    2    3
 DE= -1.14D-05 DEPred=-3.25D-05 R= 3.51D-01
 Trust test= 3.51D-01 RLast= 2.37D-02 DXMaxT set to 3.00D-01
 ITU=  0  1  0
     Eigenvalues ---    0.00753   0.01498   0.02710   0.03240   0.05619
     Eigenvalues ---    0.12392   0.15853   0.19944   0.24782   0.25000
     Eigenvalues ---    0.28034   0.37832   0.44596   0.44809   0.46684
     Eigenvalues ---    0.52468   0.70362   0.89985
 En-DIIS/RFO-DIIS IScMMF=        0 using points:     3    2
 RFO step:  Lambda=-1.18053384D-05.
 NNeg= 0 NP= 2 Switch=  2.50D-03 Rises=F DC=  1.14D-05 SmlDif=  1.00D-05
 RMS Error=  0.1327185786D-02 NUsed= 2 EDIIS=F
 DidBck=T Rises=F RFO-DIIS coefs:    0.60550    0.39450
 Iteration  1 RMS(Cart)=  0.00513688 RMS(Int)=  0.00006011
 Iteration  2 RMS(Cart)=  0.00006478 RMS(Int)=  0.00004005
 Iteration  3 RMS(Cart)=  0.00000000 RMS(Int)=  0.00004005
 ITry= 1 IFail=0 DXMaxC= 1.60D-02 DCOld= 1.00D+10 DXMaxT= 3.00D-01 DXLimC= 3.00D+00 Rises=F
 Variable       Old X    -DE/DX   Delta X   Delta X   Delta X     New X
                                 (Linear)    (Quad)   (Total)
    R1        2.72896   0.00015  -0.00075   0.00176   0.00102   2.72998
    R2        1.92805  -0.00021  -0.00022   0.00023   0.00001   1.92806
    R3        1.92804  -0.00021  -0.00022   0.00023   0.00001   1.92805
    R4        2.44889  -0.00080  -0.00059   0.00066   0.00007   2.44896
    R5        2.62979  -0.00002  -0.00083   0.00181   0.00098   2.63077
    R6        2.29194  -0.00129  -0.00137   0.00217   0.00080   2.29274
    R7        1.88905   0.00041   0.00030  -0.00001   0.00029   1.88934
    A1        1.85373  -0.00012   0.00083  -0.00194  -0.00112   1.85261
    A2        1.85352   0.00009   0.00091  -0.00126  -0.00036   1.85317
    A3        1.85708  -0.00001   0.00045  -0.00082  -0.00037   1.85671
    A4        1.89543   0.00024   0.00087  -0.00122  -0.00035   1.89508
    A5        2.09131   0.00025   0.00047  -0.00021   0.00015   2.09146
    A6        2.16668  -0.00047  -0.00108   0.00109  -0.00011   2.16657
    A7        2.02513   0.00024   0.00064  -0.00063  -0.00010   2.02503
    A8        1.73754   0.00072   0.00550  -0.00793  -0.00243   1.73511
    D1        2.15619  -0.00001  -0.00108   0.00074  -0.00034   2.15586
    D2       -2.15481  -0.00003   0.00019  -0.00159  -0.00140  -2.15620
    D3        1.96973   0.00005   0.00159  -0.00265  -0.00106   1.96867
    D4       -0.00556   0.00059   0.00290   0.01038   0.01328   0.00773
    D5       -3.13382  -0.00085  -0.00407  -0.01325  -0.01732   3.13205
    D6        0.00575  -0.00062  -0.00304  -0.00960  -0.01263  -0.00688
    D7        3.13506   0.00070   0.00338   0.01218   0.01556  -3.13257
         Item               Value     Threshold  Converged?
 Maximum Force            0.001293     0.000450     NO 
 RMS     Force            0.000499     0.000300     NO 
 Maximum Displacement     0.015992     0.001800     NO 
 RMS     Displacement     0.005140     0.001200     NO 
 Predicted change in Energy=-1.938067D-05
 Lowest energy point so far.  Saving SCF results.
 GradGradGradGradGradGradGradGradGradGradGradGradGradGradGradGradGradGrad

 Leave Link  103 at Thu Sep  8 14:51:43 2022, MaxMem= 24159191040 cpu:         0.8
 (Enter /public/home/users/caep010/software/Gaussian09/g09/l202.exe)
                          Input orientation:                          
 ---------------------------------------------------------------------
 Center     Atomic      Atomic             Coordinates (Angstroms)
 Number     Number       Type             X           Y           Z
 ---------------------------------------------------------------------
      1          7           0       -1.049918    0.116200    0.330557
      2          7           0        0.086069    0.925162   -0.046418
      3          7           0        1.072657    0.138945   -0.342975
      4          8           0        0.904271   -1.241091   -0.270786
      5          8           0        2.164147    0.523742   -0.707110
      6          1           0       -1.317751    0.421725    1.266452
      7          1           0       -1.812009    0.389329   -0.290406
      8          1           0       -0.047466   -1.274014    0.033683
 ---------------------------------------------------------------------
                    Distance matrix (angstroms):
                    1          2          3          4          5
     1  N    0.000000
     2  N    1.444643   0.000000
     3  N    2.226990   1.295932   0.000000
     4  O    2.454120   2.326467   1.392144   0.000000
     5  O    3.401919   2.217219   1.213266   2.211855   0.000000
     6  H    1.020285   1.986904   2.895561   3.172608   4.003620
     7  H    1.020283   1.987296   2.895989   3.168096   4.000191
     8  H    1.739465   2.204682   1.842009   0.999794   2.944814
                    6          7          8
     6  H    0.000000
     7  H    1.633753   0.000000
     8  H    2.451301   2.446499   0.000000
 Stoichiometry    H3N3O2
 Framework group  C1[X(H3N3O2)]
 Deg. of freedom    18
 Full point group                 C1      NOp   1
 RotChk:  IX=2 Diff= 2.57D-03
 Largest Abelian subgroup         C1      NOp   1
 Largest concise Abelian subgroup C1      NOp   1
                         Standard orientation:                         
 ---------------------------------------------------------------------
 Center     Atomic      Atomic             Coordinates (Angstroms)
 Number     Number       Type             X           Y           Z
 ---------------------------------------------------------------------
      1          7           0        1.683972    0.005194   -0.000645
      2          7           0        0.521753   -0.852851   -0.000046
[...]
     16 -0.727994D-01  0.224577D-01  0.811138D-01 -0.178215D-01  0.923522D-02
     17  0.324674D-01 -0.660482D-01 -0.145200D+00 -0.157441D-01  0.558414D-02
     18  0.714381D-01 -0.954264D-01 -0.357002D+00  0.799032D-02 -0.242613D-02
     19 -0.242083D+00  0.661925D-01 -0.167459D+00 -0.292555D-01  0.828573D-02
     20  0.103492D+00 -0.589202D-01  0.934823D-01 -0.276133D-01  0.488741D-02
     21 -0.158648D+00  0.588079D-01 -0.194845D+00  0.129859D-01 -0.306192D-02
     22  0.342654D-02 -0.665494D-02 -0.492884D-02 -0.216163D-02  0.118183D-01
     23 -0.714749D-02 -0.450315D-02  0.213669D-02  0.820334D-03 -0.150063D-01
     24 -0.491996D-02  0.197953D-02 -0.108646D-01  0.286427D-03 -0.351972D-02
                6             7             8             9            10 
      6  0.117176D+00
      7  0.570620D-01  0.978807D+00
      8 -0.404226D-01  0.483992D-01  0.537944D+00
      9 -0.790420D-01 -0.244330D+00 -0.213284D-01  0.294367D+00
     10  0.492510D-02 -0.129481D+00  0.179631D-01  0.224223D-01  0.486449D+00
     11 -0.247240D-02  0.615941D-01 -0.132247D+00 -0.183049D-01 -0.171080D-01
     12  0.263152D-01  0.216233D-01 -0.437733D-02 -0.650172D-01 -0.144158D+00
     13  0.281553D-01 -0.520422D+00 -0.129643D+00  0.142427D+00 -0.155062D-01
     14 -0.718927D-02 -0.133698D+00 -0.166742D+00  0.442251D-01 -0.750507D-01
     15  0.947651D-03  0.142497D+00  0.429299D-01 -0.127820D+00  0.105259D-01
     16  0.284054D-01 -0.282426D-02 -0.545483D-02  0.797673D-02 -0.560936D-03
     17  0.255980D-01  0.213883D-02 -0.733594D-02  0.118744D-02  0.701133D-02
     18 -0.128090D-02 -0.521253D-03  0.278239D-02 -0.663686D-03 -0.254748D-02
     19 -0.854202D-02 -0.556635D-02 -0.618327D-02 -0.422994D-02  0.735510D-03
     20 -0.116562D-01  0.120796D-02 -0.742191D-02 -0.193630D-02  0.517490D-02
     21  0.108491D-01  0.399401D-02  0.125085D-02  0.216513D-02  0.143563D-02
     22  0.857124D-04 -0.134422D-01 -0.466073D-01  0.492181D-02 -0.326544D+00
     23 -0.993019D-05 -0.607154D-01  0.342598D-02  0.193024D-01  0.145048D-01
     24 -0.124416D-02  0.518077D-02  0.148000D-01 -0.261568D-02  0.982093D-01
               11            12            13            14            15 
     11  0.285692D+00
     12  0.853469D-03  0.797761D-01
     13 -0.490425D-01  0.100498D-01  0.618865D+00
     14 -0.344877D-01  0.248233D-01  0.174637D+00  0.180198D+00
     15  0.165234D-01  0.951361D-02 -0.188182D+00 -0.583101D-01  0.100328D+00
     16  0.774821D-03 -0.308830D-03 -0.329106D-02  0.839142D-03 -0.198319D-02
     17 -0.332497D-03  0.104064D-02 -0.306286D-02  0.249708D-03 -0.100356D-02
     18  0.549760D-03 -0.544745D-03 -0.531998D-03 -0.260877D-03  0.281287D-03
     19  0.304810D-03 -0.600067D-03 -0.894128D-03  0.915355D-03  0.276999D-02
     20 -0.468715D-03 -0.496318D-02 -0.188124D-02  0.313913D-03  0.254137D-02
     21 -0.927369D-03 -0.170481D-02  0.144127D-02 -0.338892D-03 -0.218029D-02
     22 -0.134407D-01  0.987205D-01  0.105182D-02  0.747660D-02  0.108843D-02
     23 -0.587799D-01 -0.388243D-02 -0.694015D-03 -0.152185D-01  0.589223D-03
     24  0.503628D-02 -0.494339D-01  0.123740D-02 -0.201865D-02  0.453202D-02
               16            17            18            19            20 
     16  0.882371D-01
     17 -0.187710D-01  0.638112D-01
     18 -0.857167D-01  0.108638D+00  0.382745D+00
     19  0.895575D-02  0.495549D-03  0.741286D-02  0.269596D+00
     20 -0.852411D-02  0.390301D-03 -0.122722D-01 -0.704245D-01  0.572992D-01
     21 -0.306130D-01  0.138104D-01 -0.239320D-01  0.170505D+00 -0.710793D-01
     22  0.104216D-03 -0.453512D-02  0.247616D-02 -0.148842D-02 -0.143166D-02
     23 -0.556867D-03  0.368121D-02 -0.158424D-02  0.413810D-03  0.391998D-02
     24  0.112585D-02 -0.407088D-02  0.396879D-03  0.143949D-03  0.588345D-02
               21            22            23            24 
     21  0.207897D+00
     22 -0.109999D-02  0.339053D+00
     23  0.153826D-02  0.533748D-01  0.824807D-01
     24  0.175091D-02 -0.101264D+00 -0.180900D-01  0.574786D-01
 FormGI is forming the generalized inverse of G from B-inverse, IUseBI=4.
 Force constants in internal coordinates: 
                1             2             3             4             5 
      1  0.300017D+00
      2  0.683934D-02  0.437828D+00
      3  0.683973D-02  0.140679D-03  0.437827D+00
      4  0.386312D-01  0.737784D-03  0.737753D-03  0.536419D+00
      5  0.202310D-02 -0.162175D-03 -0.162187D-03  0.457531D-01  0.260038D+00
      6  0.259410D-02 -0.746705D-03 -0.746584D-03  0.742874D-01  0.703944D-01
      7 -0.490406D-02 -0.119738D-02 -0.119735D-02  0.133108D-02  0.446296D-01
      8  0.409995D-01  0.272935D-02  0.142070D-02 -0.146783D-02  0.456420D-02
      9  0.195944D-01 -0.199934D-02 -0.115781D-02  0.540683D-03  0.150336D-02
     10 -0.210071D-01  0.140555D-01  0.140291D-01 -0.654888D-02  0.164642D-02
     11  0.116976D+00  0.890015D-02  0.889996D-02  0.203304D+00 -0.443347D-01
     12 -0.235024D-02  0.215102D-02  0.215078D-02  0.846213D-01  0.142419D-01
     13  0.114797D-01 -0.894623D-03 -0.894384D-03 -0.134171D-01 -0.509632D-01
     14 -0.912948D-02 -0.125637D-02 -0.125643D-02 -0.712042D-01  0.367213D-01
     15 -0.812671D-02  0.456731D-03  0.456713D-03  0.330807D-02  0.588255D-01
     16 -0.142601D-02 -0.464600D-02 -0.114400D-01  0.390430D-02 -0.226131D-02
     17  0.142518D-02  0.115573D-01  0.452866D-02 -0.390294D-02  0.226174D-02
     18  0.310511D-01  0.511840D-02  0.548059D-02 -0.291363D-02  0.444032D-02
     19  0.000000D+00  0.218607D-02 -0.218607D-02  0.196581D-05  0.331927D-05
     20  0.000000D+00  0.152254D-02 -0.152279D-02 -0.336577D-05 -0.228232D-05
     21  0.000000D+00  0.454323D-03 -0.454424D-03 -0.298708D-05  0.000000D+00
     22  0.000000D+00  0.106608D-02 -0.106595D-02  0.346749D-05  0.123167D-05
                6             7             8             9            10 
      6  0.740431D+00
      7 -0.288994D-02  0.375546D+00
      8  0.442321D-02 -0.379422D-02  0.169432D+00
      9  0.204057D-02 -0.119838D-02 -0.470108D-01  0.632479D-01
     10 -0.183319D-02 -0.167085D-02 -0.350158D-01 -0.291835D-01  0.769447D-01
     11  0.816079D-02  0.407919D-01  0.176769D-01  0.994199D-02 -0.178388D-01
     12 -0.505280D-01  0.331320D-01 -0.122182D-02 -0.736417D-03  0.152362D-02
     13  0.297107D-01 -0.905423D-02  0.365081D-02  0.183841D-02 -0.242020D-02
     14  0.208173D-01 -0.240777D-01 -0.242942D-02 -0.110172D-02  0.896570D-03
     15  0.108815D-01  0.852860D-01  0.784798D-02  0.218697D-02  0.516894D-02
     16 -0.382611D-03  0.203926D-02 -0.410003D-02  0.110123D-01 -0.293284D-01
     17  0.382264D-03 -0.203969D-02  0.100518D-01 -0.148406D-01  0.294491D-01
     18  0.345722D-02 -0.376588D-02  0.629723D-02  0.379559D-01 -0.146828D-01
     19  0.184635D-05  0.000000D+00 -0.277666D-02  0.178589D-02 -0.562050D-04
     20 -0.345242D-05  0.000000D+00  0.533811D-02 -0.343345D-02  0.108102D-03
     21 -0.250355D-05  0.000000D+00 -0.144328D-02  0.928269D-03 -0.291123D-04
     22  0.297471D-05  0.000000D+00 -0.892462D-02  0.574044D-02 -0.180722D-03
               11            12            13            14            15 
     11  0.702556D+00
     12  0.149941D+00  0.321704D+00
     13 -0.788250D-01 -0.171664D+00  0.248329D+00
     14 -0.711159D-01 -0.150040D+00 -0.766656D-01  0.226706D+00
     15 -0.530784D-01 -0.146969D-01 -0.239756D-01  0.386725D-01  0.280670D+00
     16  0.401977D-02 -0.430765D-03  0.162588D-03  0.268251D-03 -0.512222D-02
     17 -0.401884D-02  0.431657D-03 -0.163527D-03 -0.268131D-03  0.512232D-02
     18  0.112200D-01 -0.703553D-03  0.262943D-02 -0.192576D-02  0.821178D-02
     19  0.000000D+00  0.339605D-05 -0.409196D-05  0.352412D-05  0.111772D-05
     20 -0.318658D-05 -0.361892D-05  0.193413D-05 -0.148575D-05  0.000000D+00
     21  0.000000D+00 -0.146430D-05 -0.430992D-05  0.332376D-05  0.000000D+00
     22  0.189895D-05  0.244716D-05  0.241868D-05 -0.178564D-05  0.000000D+00
               16            17            18            19            20 
     16  0.218956D-01
     17 -0.821287D-02  0.229638D-01
     18 -0.223758D-02  0.589634D-03  0.392678D-01
     19  0.101768D-01  0.967853D-02  0.768733D-03  0.640725D-01
     20  0.875836D-02  0.971632D-02 -0.147796D-02  0.951104D-02  0.706766D-01
     21  0.780875D-02  0.754985D-02  0.399602D-03 -0.522819D-02  0.420455D-01
     22  0.911650D-02  0.751501D-02  0.247114D-02  0.450756D-01 -0.143471D-01
               21            22 
     21  0.405378D-01
     22 -0.304698D-02  0.517388D-01
 Leave Link  716 at Thu Sep  8 14:52:00 2022, MaxMem= 24159191040 cpu:         1.2
 (Enter /public/home/users/caep010/software/Gaussian09/g09/l103.exe)

 GradGradGradGradGradGradGradGradGradGradGradGradGradGradGradGradGradGrad
 Berny optimization.
 Red2BG is reusing G-inverse.
 Internal  Forces:  Max     0.000064727 RMS     0.000021604
 Search for a local minimum.
 Step number   1 out of a maximum of    2
 All quantities printed in internal units (Hartrees-Bohrs-Radians)
 Second derivative matrix not updated -- analytic derivatives used.
 ITU=  0
     Eigenvalues ---    0.00628   0.02168   0.04894   0.10423   0.10663
     Eigenvalues ---    0.12256   0.17177   0.18358   0.20238   0.27566
     Eigenvalues ---    0.34285   0.38676   0.41504   0.43786   0.44107
     Eigenvalues ---    0.48110   0.77679   0.96364
 Angle between quadratic step and forces=  49.15 degrees.
 Linear search not attempted -- first point.
 Iteration  1 RMS(Cart)=  0.00015483 RMS(Int)=  0.00000001
 Iteration  2 RMS(Cart)=  0.00000001 RMS(Int)=  0.00000001
 ITry= 1 IFail=0 DXMaxC= 3.20D-04 DCOld= 1.00D+10 DXMaxT= 3.00D-01 DXLimC= 3.00D+00 Rises=F
 Variable       Old X    -DE/DX   Delta X   Delta X   Delta X     New X
                                 (Linear)    (Quad)   (Total)
    R1        2.72955   0.00003   0.00000   0.00010   0.00010   2.72965
    R2        1.92754   0.00000   0.00000   0.00001   0.00001   1.92755
    R3        1.92754   0.00000   0.00000   0.00001   0.00001   1.92755
    R4        2.44731   0.00000   0.00000  -0.00008  -0.00008   2.44723
    R5        2.62941   0.00003   0.00000   0.00019   0.00019   2.62960
    R6        2.29038  -0.00001   0.00000  -0.00001  -0.00001   2.29037
    R7        1.88952  -0.00002   0.00000  -0.00009  -0.00009   1.88944
    A1        1.85352  -0.00001   0.00000  -0.00012  -0.00012   1.85340
    A2        1.85352  -0.00000   0.00000  -0.00012  -0.00012   1.85340
    A3        1.85704   0.00000   0.00000  -0.00002  -0.00002   1.85702
    A4        1.89610   0.00006   0.00000   0.00010   0.00010   1.89620
    A5        2.09167   0.00004   0.00000   0.00008   0.00008   2.09175
    A6        2.16574  -0.00001   0.00000   0.00004   0.00004   2.16578
    A7        2.02577  -0.00003   0.00000  -0.00011  -0.00011   2.02566
    A8        1.74021  -0.00003   0.00000  -0.00005  -0.00005   1.74016
    D1        2.15558   0.00000   0.00000   0.00005   0.00005   2.15563
    D2       -2.15555  -0.00000   0.00000  -0.00008  -0.00008  -2.15563
    D3        1.96961  -0.00001   0.00000  -0.00020  -0.00020   1.96941
    D4       -0.00003   0.00000   0.00000   0.00003   0.00003   0.00000
    D5       -3.14156  -0.00000   0.00000  -0.00004  -0.00004   3.14159
    D6        0.00002  -0.00000   0.00000  -0.00002  -0.00002  -0.00000
    D7        3.14156   0.00000   0.00000   0.00004   0.00004   3.14159
         Item               Value     Threshold  Converged?
 Maximum Force            0.000065     0.000450     YES
 RMS     Force            0.000022     0.000300     YES
 Maximum Displacement     0.000320     0.001800     YES
 RMS     Displacement     0.000155     0.001200     YES
 Predicted change in Energy=-1.378329D-08
 Optimization completed.
    -- Stationary point found.
                           ----------------------------
                           !   Optimized Parameters   !
                           ! (Angstroms and Degrees)  !
 --------------------------                            --------------------------
 ! Name  Definition              Value          Derivative Info.                !
 --------------------------------------------------------------------------------
 ! R1    R(1,2)                  1.4444         -DE/DX =    0.0                 !
 ! R2    R(1,6)                  1.02           -DE/DX =    0.0                 !
 ! R3    R(1,7)                  1.02           -DE/DX =    0.0                 !
 ! R4    R(2,3)                  1.2951         -DE/DX =    0.0                 !
 ! R5    R(3,4)                  1.3914         -DE/DX =    0.0                 !
 ! R6    R(3,5)                  1.212          -DE/DX =    0.0                 !
 ! R7    R(4,8)                  0.9999         -DE/DX =    0.0                 !
 ! A1    A(2,1,6)              106.1988         -DE/DX =    0.0                 !
 ! A2    A(2,1,7)              106.1987         -DE/DX =    0.0                 !
 ! A3    A(6,1,7)              106.4006         -DE/DX =    0.0                 !
 ! A4    A(1,2,3)              108.6387         -DE/DX =    0.0001              !
 ! A5    A(2,3,4)              119.8439         -DE/DX =    0.0                 !
 ! A6    A(2,3,5)              124.088          -DE/DX =    0.0                 !
 ! A7    A(4,3,5)              116.0681         -DE/DX =    0.0                 !
 ! A8    A(3,4,8)               99.7067         -DE/DX =    0.0                 !
 ! D1    D(6,1,2,3)            123.5057         -DE/DX =    0.0                 !
 ! D2    D(7,1,2,3)           -123.5042         -DE/DX =    0.0                 !
 ! D3    D(2,1,6,7)            112.8504         -DE/DX =    0.0                 !
 ! D4    D(1,2,3,4)             -0.0017         -DE/DX =    0.0                 !
 ! D5    D(1,2,3,5)            180.002          -DE/DX =    0.0                 !
 ! D6    D(2,3,4,8)              0.0014         -DE/DX =    0.0                 !
 ! D7    D(5,3,4,8)            179.998          -DE/DX =    0.0                 !
 --------------------------------------------------------------------------------
 GradGradGradGradGradGradGradGradGradGradGradGradGradGradGradGradGradGrad

 Leave Link  103 at Thu Sep  8 14:52:00 2022, MaxMem= 24159191040 cpu:         1.6
 (Enter /public/home/users/caep010/software/Gaussian09/g09/l9999.exe)
 1\1\GINC-B1521\Freq\RB3LYP\6-31G(d,p)\H3N3O2\ROOT\08-Sep-2022\0\\#P Ge
 om=AllCheck Guess=TCheck SCRF=Check GenChk RB3LYP/6-31G(d,p) Freq\\Fra
 g_1135\\0,1\N,-1.050217253,0.11727489,0.3296633824\N,0.0862933497,0.92
 48516403,-0.0478252338\N,1.0710601325,0.139070201,-0.3477722076\O,0.90
 4945631,-1.2401829307,-0.2695187451\O,2.1636746736,0.5246012497,-0.703
 5023978\H,-1.3162292161,0.4205980902,1.2664929159\H,-1.8128174338,0.39
 21548858,-0.2894486156\H,-0.046710884,-1.2783700261,0.0349089015\\Vers
 ion=ES64L-G09RevE.01\State=1-A\HF=-316.3477863\RMSD=1.400e-09\RMSF=1.9
 24e-05\ZeroPoint=0.0554931\Thermal=0.0601926\Dipole=-1.7445041,-0.2754
 376,0.5617898\DipoleDeriv=-0.3733565,0.0087194,0.0915627,-0.0791094,-0
 .3867921,0.0307477,0.0931649,0.0027159,-0.1157609,-0.4061905,0.1428789
 ,0.0325036,0.4608749,-0.3841938,-0.1454716,0.0267111,-0.04399,-0.30384
 5,1.7913727,0.0842835,-0.4778419,-0.0601882,1.4476287,-0.0017957,-0.47
 51772,-0.0479175,0.4515131,-0.4797963,-0.0795637,0.0723002,-0.0336806,
 -1.0560677,0.025336,0.0714624,0.0400031,-0.2813524,-1.2079062,-0.09655
 64,0.3062689,-0.2295861,-0.4203119,0.0763198,0.3086612,0.0338603,-0.35
 29686,0.1169454,-0.0122491,0.0369721,-0.0044323,0.2236935,-0.1044803,0
 .0119392,-0.0292412,0.1410339,0.1012639,0.0053144,-0.0103038,0.0560874
 ,0.2282164,0.0852429,0.0136575,0.0287023,0.1521847,0.4576676,-0.052827
 ,-0.0514619,-0.1099658,0.3478269,0.0341012,-0.0504191,0.0158672,0.3091
 953\Polar=44.9536121,-1.1399464,29.3102298,-8.8083777,0.1440834,20.097
 6148\PG=C01 [X(H3N3O2)]\NImag=0\\0.53376211,-0.06968890,0.24120587,0.0
 4018487,0.02981964,0.64231407,-0.13175432,-0.06234064,0.02200475,0.492
 40962,-0.05168425,-0.12600583,0.01758465,-0.06588532,0.39612595,0.0218
 1079,0.02098606,-0.07372137,-0.13190229,0.01516630,0.11717643,-0.06301
 638,0.01642896,0.01449427,-0.24405560,0.06464486,0.05706197,0.97880744
 ,-0.01481603,0.00325819,0.00436524,0.13634167,-0.23088187,-0.04042260,
 0.04839918,0.53794414,0.01506296,-0.00560765,-0.02137384,0.05574930,-0
 .01753763,-0.07904198,-0.24433028,-0.02132843,0.29436715,-0.02634814,0
 .02735997,0.00918687,0.01125531,0.02014466,0.00492510,-0.12948111,0.01
 796307,0.02242232,0.48644906,0.00382781,0.00599563,-0.00125824,0.01308
 966,-0.06537219,-0.00247240,0.06159411,-0.13224668,-0.01830492,-0.0171
 0799,0.28569208,0.00961740,-0.00876867,0.00109580,0.00505558,-0.004725
 80,0.02631522,0.02162335,-0.00437733,-0.06501724,-0.14415767,0.0008534
 7,0.07977610,-0.00118736,0.00624534,0.00540363,-0.07861634,0.00344083,
 0.02815531,-0.52042155,-0.12964255,0.14242711,-0.01550617,-0.04904249,
 0.01004978,0.61886479,0.00354943,0.00501764,-0.00093055,0.02133173,0.0
 3066868,-0.00718927,-0.13369850,-0.16674190,0.04422506,-0.07505074,-0.
 03448774,0.02482330,0.17463698,0.18019818,0.00545423,-0.00179044,0.014
 39748,0.02782997,-0.00147976,0.00094765,0.14249716,0.04292987,-0.12781
 987,0.01052590,0.01652342,0.00951361,-0.18818249,-0.05831012,0.1003281
 1,-0.07279935,0.02245767,0.08111380,-0.01782150,0.00923522,0.02840542,
 -0.00282426,-0.00545483,0.00797673,-0.00056094,0.00077482,-0.00030883,
 -0.00329106,0.00083914,-0.00198319,0.08823715,0.03246745,-0.06604817,-
 0.14519972,-0.01574413,0.00558414,0.02559802,0.00213883,-0.00733594,0.
 00118744,0.00701133,-0.00033250,0.00104064,-0.00306286,0.00024971,-0.0
 0100356,-0.01877104,0.06381125,0.07143813,-0.09542639,-0.35700211,0.00
 799032,-0.00242613,-0.00128090,-0.00052125,0.00278239,-0.00066369,-0.0
 0254748,0.00054976,-0.00054474,-0.00053200,-0.00026088,0.00028129,-0.0
 8571674,0.10863764,0.38274528,-0.24208310,0.06619253,-0.16745936,-0.02
 925554,0.00828573,-0.00854202,-0.00556635,-0.00618327,-0.00422994,0.00
 073551,0.00030481,-0.00060007,-0.00089413,0.00091536,0.00276999,0.0089
 5575,0.00049555,0.00741286,0.26959628,0.10349197,-0.05892018,0.0934822
 9,-0.02761330,0.00488741,-0.01165617,0.00120796,-0.00742191,-0.0019363
 0,0.00517490,-0.00046872,-0.00496318,-0.00188124,0.00031391,0.00254137
 ,-0.00852411,0.00039030,-0.01227217,-0.07042452,0.05729921,-0.15864841
 ,0.05880793,-0.19484542,0.01298595,-0.00306192,0.01084912,0.00399401,0
 .00125085,0.00216513,0.00143563,-0.00092737,-0.00170481,0.00144127,-0.
 00033889,-0.00218029,-0.03061305,0.01381043,-0.02393200,0.17050459,-0.
 07107929,0.20789736,0.00342654,-0.00665494,-0.00492884,-0.00216163,0.0
 1181826,0.00008571,-0.01344220,-0.04660725,0.00492181,-0.32654353,-0.0
 1344074,0.09872047,0.00105182,0.00747660,0.00108843,0.00010422,-0.0045
 3512,0.00247616,-0.00148842,-0.00143166,-0.00109999,0.33905319,-0.0071
 4749,-0.00450315,0.00213669,0.00082033,-0.01500630,-0.00000993,-0.0607
 1541,0.00342598,0.01930242,0.01450479,-0.05877988,-0.00388243,-0.00069
 401,-0.01521848,0.00058922,-0.00055687,0.00368121,-0.00158424,0.000413
 81,0.00391998,0.00153826,0.05337484,0.08248065,-0.00491996,0.00197953,
 -0.01086461,0.00028643,-0.00351972,-0.00124416,0.00518077,0.01479999,-
 0.00261568,0.09820934,0.00503628,-0.04943392,0.00123740,-0.00201865,0.
 00453202,0.00112585,-0.00407088,0.00039688,0.00014395,0.00588345,0.001
 75091,-0.10126377,-0.01809000,0.05747856\\0.00003432,0.00001559,-0.000
 00991,-0.00002483,0.00000253,0.00001032,0.00002521,-0.00005001,-0.0000
 1719,-0.00002033,0.00004384,0.00000805,0.00000649,0.00000601,0.0000018
 5,-0.00000198,-0.00000209,-0.00000449,0.00000135,-0.00000143,0.0000043
 0,-0.00002022,-0.00001445,0.00000706\\\@


 A politician is a person who can make waves and then
 make you think he's the only one who can save the ship.
 -- Ivern Ball
 Job cpu time:       0 days  0 hours  2 minutes 54.1 seconds.
 File lengths (MBytes):  RWF=     12 Int=      0 D2E=      0 Chk=      2 Scr=      1
 Normal termination of Gaussian 09 at Thu Sep  8 14:52:00 2022.
