 Entering Gaussian System, Link 0=g09
 Input=B3LYP6-31Gdp.Frag_1095.gjf
 Output=B3LYP6-31Gdp.Frag_1095.log
 Initial command:
 /public/home/users/caep010/software/Gaussian09/g09/l1.exe "/public/home/users/caep010/.cache/gau_scr/Gau-211265.inp" -scrdir="/public/home/users/caep010/.cache/gau_scr/"
 Entering Link 1 = /public/home/users/caep010/software/Gaussian09/g09/l1.exe PID=    211266.
  
 Copyright (c) 1988,1990,1992,1993,1995,1998,2003,2009,2015,
            Gaussian, Inc.  All Rights Reserved.
  
 This is part of the Gaussian(R) 09 program.  It is based on
 the Gaussian(R) 03 system (copyright 2003, Gaussian, Inc.),
 the Gaussian(R) 98 system (copyright 1998, Gaussian, Inc.),
 the Gaussian(R) 94 system (copyright 1995, Gaussian, Inc.),
 the Gaussian 92(TM) system (copyright 1992, Gaussian, Inc.),
 the Gaussian 90(TM) system (copyright 1990, Gaussian, Inc.),
 the Gaussian 88(TM) system (copyright 1988, Gaussian, Inc.),
 the Gaussian 86(TM) system (copyright 1986, Carnegie Mellon
 University), and the Gaussian 82(TM) system (copyright 1983,
 Carnegie Mellon University). Gaussian is a federally registered
 trademark of Gaussian, Inc.
  
 This software contains proprietary and confidential information,
 including trade secrets, belonging to Gaussian, Inc.
  
 This software is provided under written license and may be
 used, copied, transmitted, or stored only in accord with that
 written license.
  
 The following legend is applicable only to US Government
 contracts under FAR:
  
                    RESTRICTED RIGHTS LEGEND
  
 Use, reproduction and disclosure by the US Government is
 subject to restrictions as set forth in subparagraphs (a)
 and (c) of the Commercial Computer Software - Restricted
 Rights clause in FAR 52.227-19.
  
 Gaussian, Inc.
 340 Quinnipiac St., Bldg. 40, Wallingford CT 06492
  
  
 ---------------------------------------------------------------
 Warning -- This program may not be used in any manner that
 competes with the business of Gaussian, Inc. or will provide
 assistance to any competitor of Gaussian, Inc.  The licensee
 of this program is prohibited from giving any competitor of
 Gaussian, Inc. access to this program.  By using this program,
 the user acknowledges that Gaussian, Inc. is engaged in the
 business of creating and licensing software in the field of
 computational chemistry and represents and warrants to the
 licensee that it is not a competitor of Gaussian, Inc. and that
 it will not use this program in any manner prohibited above.
 ---------------------------------------------------------------
  

 Cite this work as:
 Gaussian 09, Revision E.01,
 M. J. Frisch, G. W. Trucks, H. B. Schlegel, G. E. Scuseria, 
 M. A. Robb, J. R. Cheeseman, G. Scalmani, V. Barone, B. Mennucci, 
 G. A. Petersson, H. Nakatsuji, M. Caricato, X. Li, H. P. Hratchian, 
 A. F. Izmaylov, J. Bloino, G. Zheng, J. L. Sonnenberg, M. Hada, 
 M. Ehara, K. Toyota, R. Fukuda, J. Hasegawa, M. Ishida, T. Nakajima, 
 Y. Honda, O. Kitao, H. Nakai, T. Vreven, J. A. Montgomery, Jr., 
 J. E. Peralta, F. Ogliaro, M. Bearpark, J. J. Heyd, E. Brothers, 
 K. N. Kudin, V. N. Staroverov, T. Keith, R. Kobayashi, J. Normand, 
 K. Raghavachari, A. Rendell, J. C. Burant, S. S. Iyengar, J. Tomasi, 
 M. Cossi, N. Rega, J. M. Millam, M. Klene, J. E. Knox, J. B. Cross, 
 V. Bakken, C. Adamo, J. Jaramillo, R. Gomperts, R. E. Stratmann, 
 O. Yazyev, A. J. Austin, R. Cammi, C. Pomelli, J. W. Ochterski, 
 R. L. Martin, K. Morokuma, V. G. Zakrzewski, G. A. Voth, 
 P. Salvador, J. J. Dannenberg, S. Dapprich, A. D. Daniels, 
 O. Farkas, J. B. Foresman, J. V. Ortiz, J. Cioslowski, 
 and D. J. Fox, Gaussian, Inc., Wallingford CT, 2013.
 
 ******************************************
 Gaussian 09:  ES64L-G09RevE.01 30-Nov-2015
                 8-Sep-2022 
 ******************************************
 %nproc=32
 Will use up to   32 processors via shared memory.
 %mem=180GB
 %chk=B3LYP6-31Gdp.Frag_1095.chk
 ----------------------------
 #P OPT Freq B3LYP/6-31G(d,p)
 ----------------------------
 1/14=-1,18=20,19=15,26=3,38=1/1,3;
 2/9=110,12=2,17=6,18=5,40=1/2;
 3/5=1,6=6,7=101,11=2,16=1,25=1,30=1,71=1,74=-5/1,2,3;
 4//1;
 5/5=2,38=5/2;
 6/7=2,8=2,9=2,10=2,28=1/1;
 7//1,2,3,16;
 1/14=-1,18=20,19=15,26=3/3(2);
 2/9=110/2;
 99//99;
 2/9=110/2;
 3/5=1,6=6,7=101,11=2,16=1,25=1,30=1,71=1,74=-5/1,2,3;
 4/5=5,16=3,69=1/1;
 5/5=2,38=5/2;
 7//1,2,3,16;
 1/14=-1,18=20,19=15,26=3/3(-5);
 2/9=110/2;
 6/7=2,8=2,9=2,10=2,19=2,28=1/1;
 99/9=1/99;
 Leave Link    1 at Thu Sep  8 14:52:00 2022, MaxMem= 24159191040 cpu:         2.5
 (Enter /public/home/users/caep010/software/Gaussian09/g09/l101.exe)
 ---------
 Frag_1095
 ---------
 Symbolic Z-matrix:
 Charge =  0 Multiplicity = 1
 C                    -1.24767  -0.51262  -0.65169 
 C                    -0.29811   0.55099  -0.06699 
 O                    -0.29245   0.39267   1.40016 
 O                    -0.82165   1.79214  -0.41795 
 N                     1.05256   0.53542  -0.50922 
 N                     1.6993   -0.55695   0.19402 
 H                    -0.92236  -1.52305  -0.37822 
 H                    -2.27658  -0.38278  -0.29573 
 H                    -1.24808  -0.42483  -1.73969 
 H                    -1.18959   0.195     1.68677 
 H                    -0.05933   2.38602  -0.3691 
 H                     2.69401  -0.34566   0.24686 
 H                     1.60994  -1.48915  -0.24787 
 H                     1.30011  -0.61709   1.14865 
 
 NAtoms=     14 NQM=       14 NQMF=       0 NMMI=      0 NMMIF=      0
                NMic=       0 NMicF=      0.
                    Isotopes and Nuclear Properties:
 (Nuclear quadrupole moments (NQMom) in fm**2, nuclear magnetic moments (NMagM)
  in nuclear magnetons)

  Atom         1           2           3           4           5           6           7           8           9          10
 IAtWgt=          12          12          16          16          14          14           1           1           1           1
 AtmWgt=  12.0000000  12.0000000  15.9949146  15.9949146  14.0030740  14.0030740   1.0078250   1.0078250   1.0078250   1.0078250
 NucSpn=           0           0           0           0           2           2           1           1           1           1
 AtZEff=   0.0000000   0.0000000   0.0000000   0.0000000   0.0000000   0.0000000   0.0000000   0.0000000   0.0000000   0.0000000
 NQMom=    0.0000000   0.0000000   0.0000000   0.0000000   2.0440000   2.0440000   0.0000000   0.0000000   0.0000000   0.0000000
 NMagM=    0.0000000   0.0000000   0.0000000   0.0000000   0.4037610   0.4037610   2.7928460   2.7928460   2.7928460   2.7928460
 AtZNuc=   6.0000000   6.0000000   8.0000000   8.0000000   7.0000000   7.0000000   1.0000000   1.0000000   1.0000000   1.0000000

  Atom        11          12          13          14
 IAtWgt=           1           1           1           1
 AtmWgt=   1.0078250   1.0078250   1.0078250   1.0078250
 NucSpn=           1           1           1           1
 AtZEff=   0.0000000   0.0000000   0.0000000   0.0000000
 NQMom=    0.0000000   0.0000000   0.0000000   0.0000000
 NMagM=    2.7928460   2.7928460   2.7928460   2.7928460
 AtZNuc=   1.0000000   1.0000000   1.0000000   1.0000000
 Leave Link  101 at Thu Sep  8 14:52:00 2022, MaxMem= 24159191040 cpu:        10.2
 (Enter /public/home/users/caep010/software/Gaussian09/g09/l103.exe)

 GradGradGradGradGradGradGradGradGradGradGradGradGradGradGradGradGradGrad
 Berny optimization.
 Initialization pass.
                           ----------------------------
                           !    Initial Parameters    !
                           ! (Angstroms and Degrees)  !
 --------------------------                            --------------------------
 ! Name  Definition              Value          Derivative Info.                !
 --------------------------------------------------------------------------------
 ! R1    R(1,2)                  1.541          estimate D2E/DX2                !
 ! R2    R(1,7)                  1.0962         estimate D2E/DX2                !
 ! R3    R(1,8)                  1.0965         estimate D2E/DX2                !
 ! R4    R(1,9)                  1.0915         estimate D2E/DX2                !
 ! R5    R(2,3)                  1.4757         estimate D2E/DX2                !
 ! R6    R(2,4)                  1.392          estimate D2E/DX2                !
 ! R7    R(2,5)                  1.4213         estimate D2E/DX2                !
 ! R8    R(3,10)                 0.9623         estimate D2E/DX2                !
 ! R9    R(4,11)                 0.9676         estimate D2E/DX2                !
 ! R10   R(5,6)                  1.4512         estimate D2E/DX2                !
 ! R11   R(6,12)                 1.0183         estimate D2E/DX2                !
 ! R12   R(6,13)                 1.0355         estimate D2E/DX2                !
 ! R13   R(6,14)                 1.0365         estimate D2E/DX2                !
 ! A1    A(2,1,7)              111.0192         estimate D2E/DX2                !
 ! A2    A(2,1,8)              111.9202         estimate D2E/DX2                !
 ! A3    A(2,1,9)              108.8391         estimate D2E/DX2                !
 ! A4    A(7,1,8)              107.8582         estimate D2E/DX2                !
 ! A5    A(7,1,9)              108.839          estimate D2E/DX2                !
 ! A6    A(8,1,9)              108.2834         estimate D2E/DX2                !
 ! A7    A(1,2,3)              107.7908         estimate D2E/DX2                !
 ! A8    A(1,2,4)              106.737          estimate D2E/DX2                !
 ! A9    A(1,2,5)              117.3837         estimate D2E/DX2                !
 ! A10   A(3,2,4)              110.3509         estimate D2E/DX2                !
 ! A11   A(3,2,5)              107.7298         estimate D2E/DX2                !
 ! A12   A(4,2,5)              106.7812         estimate D2E/DX2                !
 ! A13   A(2,3,10)             108.3351         estimate D2E/DX2                !
 ! A14   A(2,4,11)             103.781          estimate D2E/DX2                !
 ! A15   A(2,5,6)              106.3179         estimate D2E/DX2                !
 ! A16   A(5,6,12)             107.7159         estimate D2E/DX2                !
 ! A17   A(5,6,13)             115.6193         estimate D2E/DX2                !
 ! A18   A(5,6,14)             108.5634         estimate D2E/DX2                !
 ! A19   A(12,6,13)            107.0519         estimate D2E/DX2                !
 ! A20   A(12,6,14)            109.906          estimate D2E/DX2                !
 ! A21   A(13,6,14)            107.9121         estimate D2E/DX2                !
 ! D1    D(7,1,2,3)            -59.0092         estimate D2E/DX2                !
 ! D2    D(7,1,2,4)           -177.5568         estimate D2E/DX2                !
 ! D3    D(7,1,2,5)             62.7533         estimate D2E/DX2                !
 ! D4    D(8,1,2,3)             61.5712         estimate D2E/DX2                !
 ! D5    D(8,1,2,4)            -56.9764         estimate D2E/DX2                !
 ! D6    D(8,1,2,5)           -176.6663         estimate D2E/DX2                !
 ! D7    D(9,1,2,3)           -178.7852         estimate D2E/DX2                !
 ! D8    D(9,1,2,4)             62.6672         estimate D2E/DX2                !
 ! D9    D(9,1,2,5)            -57.0227         estimate D2E/DX2                !
 ! D10   D(1,2,3,10)           -39.3105         estimate D2E/DX2                !
 ! D11   D(4,2,3,10)            76.8956         estimate D2E/DX2                !
 ! D12   D(5,2,3,10)          -166.8803         estimate D2E/DX2                !
 ! D13   D(1,2,4,11)          -157.5599         estimate D2E/DX2                !
 ! D14   D(3,2,4,11)            85.5781         estimate D2E/DX2                !
 ! D15   D(5,2,4,11)           -31.2365         estimate D2E/DX2                !
 ! D16   D(1,2,5,6)            -77.0975         estimate D2E/DX2                !
 ! D17   D(3,2,5,6)             44.6966         estimate D2E/DX2                !
 ! D18   D(4,2,5,6)            163.236          estimate D2E/DX2                !
 ! D19   D(2,5,6,12)          -154.3903         estimate D2E/DX2                !
 ! D20   D(2,5,6,13)            85.9672         estimate D2E/DX2                !
 ! D21   D(2,5,6,14)           -35.4222         estimate D2E/DX2                !
 --------------------------------------------------------------------------------
 Trust Radius=3.00D-01 FncErr=1.00D-07 GrdErr=1.00D-06
 Number of steps in this run=     65 maximum allowed number of steps=    100.
 GradGradGradGradGradGradGradGradGradGradGradGradGradGradGradGradGradGrad

 Leave Link  103 at Thu Sep  8 14:52:00 2022, MaxMem= 24159191040 cpu:         0.4
 (Enter /public/home/users/caep010/software/Gaussian09/g09/l202.exe)
                          Input orientation:                          
 ---------------------------------------------------------------------
 Center     Atomic      Atomic             Coordinates (Angstroms)
 Number     Number       Type             X           Y           Z
 ---------------------------------------------------------------------
      1          6           0       -1.247673   -0.512619   -0.651685
      2          6           0       -0.298111    0.550985   -0.066985
      3          8           0       -0.292453    0.392666    1.400156
      4          8           0       -0.821646    1.792144   -0.417950
      5          7           0        1.052561    0.535423   -0.509220
      6          7           0        1.699301   -0.556946    0.194017
      7          1           0       -0.922355   -1.523051   -0.378223
      8          1           0       -2.276583   -0.382777   -0.295725
      9          1           0       -1.248082   -0.424830   -1.739690
     10          1           0       -1.189590    0.194999    1.686768
     11          1           0       -0.059326    2.386016   -0.369103
     12          1           0        2.694008   -0.345661    0.246857
     13          1           0        1.609943   -1.489154   -0.247867
     14          1           0        1.300107   -0.617094    1.148649
 ---------------------------------------------------------------------
                    Distance matrix (angstroms):
                    1          2          3          4          5
     1  C    0.000000
     2  C    1.541037   0.000000
     3  O    2.437630   1.475669   0.000000
     4  O    2.355433   1.392028   2.354590   0.000000
     5  N    2.531751   1.421312   2.339906   2.258391   0.000000
     6  N    3.066241   2.298975   2.514681   3.499700   1.451236
     7  H    1.096169   2.188190   2.688751   3.316962   2.855656
     8  H    1.096459   2.199678   2.722884   2.619554   3.460039
     9  H    1.091541   2.156989   3.382330   2.616069   2.780126
    10  H    2.443862   1.999277   0.962327   2.667601   3.156817
    11  H    3.145490   1.875002   2.675457   0.967575   2.163474
    12  H    4.046245   3.139307   3.285449   4.167973   2.010550
    13  H    3.046746   2.799206   3.142664   4.087600   2.116103
    14  H    3.121426   2.323031   1.902398   3.572184   2.034233
                    6          7          8          9         10
     6  N    0.000000
     7  H    2.851999   0.000000
     8  H    4.009718   1.772277   0.000000
     9  H    3.527569   1.779264   1.773307   0.000000
    10  H    3.337577   2.699500   2.333593   3.482560   0.000000
    11  H    3.474320   4.003212   3.547933   3.345520   3.210087
    12  H    1.018271   3.854225   5.000255   4.415055   4.177079
    13  H    1.035499   2.535878   4.041218   3.395089   3.796916
    14  H    1.036482   2.844545   3.864432   3.856518   2.673510
                   11         12         13         14
    11  H    0.000000
    12  H    3.927125   0.000000
    13  H    4.221149   1.651522   0.000000
    14  H    3.629091   1.682220   1.675334   0.000000
 Stoichiometry    C2H8N2O2
 Framework group  C1[X(C2H8N2O2)]
 Deg. of freedom    36
 Full point group                 C1      NOp   1
 Largest Abelian subgroup         C1      NOp   1
 Largest concise Abelian subgroup C1      NOp   1
                         Standard orientation:                         
 ---------------------------------------------------------------------
 Center     Atomic      Atomic             Coordinates (Angstroms)
 Number     Number       Type             X           Y           Z
 ---------------------------------------------------------------------
      1          6           0        0.885345    1.316049   -0.473347
      2          6           0        0.401381   -0.081636   -0.040853
      3          8           0        0.111674   -0.030980    1.405212
      4          8           0        1.447502   -0.964304   -0.294365
      5          7           0       -0.746350   -0.607130   -0.694075
      6          7           0       -1.891669    0.067400   -0.111546
      7          1           0        0.125650    2.077727   -0.262882
      8          1           0        1.806868    1.608334    0.043941
      9          1           0        1.084243    1.303715   -1.546543
     10          1           0        0.786859    0.506866    1.830559
     11          1           0        1.011055   -1.825030   -0.364129
     12          1           0       -2.698574   -0.544627   -0.217393
     13          1           0       -2.141664    0.976309   -0.540083
     14          1           0       -1.702065    0.230610    0.894291
 ---------------------------------------------------------------------
 Rotational constants (GHZ):      4.8567943      2.9128564      2.8298339
 Leave Link  202 at Thu Sep  8 14:52:01 2022, MaxMem= 24159191040 cpu:         0.4
 (Enter /public/home/users/caep010/software/Gaussian09/g09/l301.exe)
 Standard basis: 6-31G(d,p) (6D, 7F)
 Ernie: Thresh=  0.10000D-02 Tol=  0.10000D-05 Strict=F.
 There are   130 symmetry adapted cartesian basis functions of A   symmetry.
 There are   130 symmetry adapted basis functions of A   symmetry.
   130 basis functions,   224 primitive gaussians,   130 cartesian basis functions
    25 alpha electrons       25 beta electrons
       nuclear repulsion energy       276.0437342923 Hartrees.
 IExCor=  402 DFT=T Ex+Corr=B3LYP ExCW=0 ScaHFX=  0.200000
 ScaDFX=  0.800000  0.720000  1.000000  0.810000 ScalE2=  1.000000  1.000000
 IRadAn=      0 IRanWt=     -1 IRanGd=            0 ICorTp=0 IEmpDi=  4
 NAtoms=   14 NActive=   14 NUniq=   14 SFac= 1.00D+00 NAtFMM=   60 NAOKFM=F Big=F
 Integral buffers will be    131072 words long.
 Raffenetti 2 integral format.
 Two-electron integral symmetry is turned on.
 Leave Link  301 at Thu Sep  8 14:52:01 2022, MaxMem= 24159191040 cpu:         2.3
 (Enter /public/home/users/caep010/software/Gaussian09/g09/l302.exe)
 NPDir=0 NMtPBC=     1 NCelOv=     1 NCel=       1 NClECP=     1 NCelD=      1
         NCelK=      1 NCelE2=     1 NClLst=     1 CellRange=     0.0.
 One-electron integrals computed using PRISM.
 NBasis=   130 RedAO= T EigKep=  2.30D-03  NBF=   130
 NBsUse=   130 1.00D-06 EigRej= -1.00D+00 NBFU=   130
 Precomputing XC quadrature grid using
 IXCGrd= 4 IRadAn=           0 IRanWt=          -1 IRanGd=           0 AccXCQ= 0.00D+00.
 Generated NRdTot=       0 NPtTot=           0 NUsed=           0 NTot=          32
 NSgBfM=   130   130   130   130   130 MxSgAt=    14 MxSgA2=    14.
 Leave Link  302 at Thu Sep  8 14:52:01 2022, MaxMem= 24159191040 cpu:        11.5
 (Enter /public/home/users/caep010/software/Gaussian09/g09/l303.exe)
 DipDrv:  MaxL=1.
 Leave Link  303 at Thu Sep  8 14:52:01 2022, MaxMem= 24159191040 cpu:         2.1
 (Enter /public/home/users/caep010/software/Gaussian09/g09/l401.exe)
 ExpMin= 1.61D-01 ExpMax= 5.48D+03 ExpMxC= 8.25D+02 IAcc=1 IRadAn=         1 AccDes= 0.00D+00
 Harris functional with IExCor=  402 and IRadAn=       1 diagonalized for initial guess.
 HarFok:  IExCor=  402 AccDes= 0.00D+00 IRadAn=         1 IDoV= 1 UseB2=F ITyADJ=14
 ICtDFT=  3500011 ScaDFX=  1.000000  1.000000  1.000000  1.000000
 FoFCou: FMM=F IPFlag=           0 FMFlag=      100000 FMFlg1=           0
         NFxFlg=           0 DoJE=T BraDBF=F KetDBF=T FulRan=T
         wScrn=  0.000000 ICntrl=     500 IOpCl=  0 I1Cent=   200000004 NGrid=           0
         NMat0=    1 NMatS0=      1 NMatT0=    0 NMatD0=    1 NMtDS0=    0 NMtDT0=    0
 Petite list used in FoFCou.
 Harris En= -340.947829468734    
 JPrj=0 DoOrth=F DoCkMO=F.
 Leave Link  401 at Thu Sep  8 14:52:02 2022, MaxMem= 24159191040 cpu:        12.1
 (Enter /public/home/users/caep010/software/Gaussian09/g09/l502.exe)
 Closed shell SCF:
 Using DIIS extrapolation, IDIIS=  1040.
 Integral symmetry usage will be decided dynamically.
 Keep R1 ints in memory in canonical form, NReq=37455246.
 IVT=       74396 IEndB=       74396 NGot= 24159191040 MDV= 24122859775
 LenX= 24122859775 LenY= 24122842434
 Requested convergence on RMS density matrix=1.00D-08 within 128 cycles.
 Requested convergence on MAX density matrix=1.00D-06.
 Requested convergence on             energy=1.00D-06.
 No special actions if energy rises.
 FoFCou: FMM=F IPFlag=           0 FMFlag=           0 FMFlg1=           0
         NFxFlg=           0 DoJE=F BraDBF=F KetDBF=F FulRan=T
         wScrn=  0.000000 ICntrl=     600 IOpCl=  0 I1Cent=           0 NGrid=           0
         NMat0=    1 NMatS0=   8515 NMatT0=    0 NMatD0=    1 NMtDS0=    0 NMtDT0=    0
 Symmetry not used in FoFCou.
 Integral accuracy reduced to 1.0D-05 until final iterations.

 Cycle   1  Pass 0  IDiag  1:
 E= -340.665664232100    
 DIIS: error= 2.43D-02 at cycle   1 NSaved=   1.
 NSaved= 1 IEnMin= 1 EnMin= -340.665664232100     IErMin= 1 ErrMin= 2.43D-02
 ErrMax= 2.43D-02  0.00D+00 EMaxC= 1.00D-01 BMatC= 2.63D-01 BMatP= 2.63D-01
 IDIUse=3 WtCom= 7.57D-01 WtEn= 2.43D-01
 Coeff-Com:  0.100D+01
 Coeff-En:   0.100D+01
 Coeff:      0.100D+01
 Gap=     0.101 Goal=   None    Shift=    0.000
 GapD=    0.101 DampG=1.000 DampE=0.500 DampFc=0.5000 IDamp=-1.
 Damping current iteration by 5.00D-01
 RMSDP=1.08D-02 MaxDP=2.69D-01              OVMax= 2.70D-01

 Cycle   2  Pass 0  IDiag  1:
 E= -340.750629805277     Delta-E=       -0.084965573176 Rises=F Damp=T
 DIIS: error= 8.48D-03 at cycle   2 NSaved=   2.
 NSaved= 2 IEnMin= 2 EnMin= -340.750629805277     IErMin= 2 ErrMin= 8.48D-03
 ErrMax= 8.48D-03  0.00D+00 EMaxC= 1.00D-01 BMatC= 1.60D-02 BMatP= 2.63D-01
 IDIUse=3 WtCom= 9.15D-01 WtEn= 8.48D-02
 Coeff-Com:  0.142D+00 0.858D+00
 Coeff-En:   0.247D+00 0.753D+00
 Coeff:      0.151D+00 0.849D+00
 Gap=     0.195 Goal=   None    Shift=    0.000
 RMSDP=2.37D-03 MaxDP=9.07D-02 DE=-8.50D-02 OVMax= 1.94D-01

 Cycle   3  Pass 0  IDiag  1:
 E= -340.890220069614     Delta-E=       -0.139590264337 Rises=F Damp=F
 DIIS: error= 4.68D-03 at cycle   3 NSaved=   3.
 NSaved= 3 IEnMin= 3 EnMin= -340.890220069614     IErMin= 3 ErrMin= 4.68D-03
 ErrMax= 4.68D-03  0.00D+00 EMaxC= 1.00D-01 BMatC= 5.01D-03 BMatP= 1.60D-02
 IDIUse=3 WtCom= 9.53D-01 WtEn= 4.68D-02
 Coeff-Com:  0.378D-01 0.354D+00 0.608D+00
 Coeff-En:   0.000D+00 0.000D+00 0.100D+01
 Coeff:      0.361D-01 0.338D+00 0.626D+00
 Gap=     0.192 Goal=   None    Shift=    0.000
 RMSDP=6.72D-04 MaxDP=1.64D-02 DE=-1.40D-01 OVMax= 1.65D-02

 Cycle   4  Pass 0  IDiag  1:
 E= -340.893369452489     Delta-E=       -0.003149382876 Rises=F Damp=F
 DIIS: error= 2.21D-03 at cycle   4 NSaved=   4.
 NSaved= 4 IEnMin= 4 EnMin= -340.893369452489     IErMin= 4 ErrMin= 2.21D-03
 ErrMax= 2.21D-03  0.00D+00 EMaxC= 1.00D-01 BMatC= 1.30D-03 BMatP= 5.01D-03
 IDIUse=3 WtCom= 9.78D-01 WtEn= 2.21D-02
 Coeff-Com: -0.497D-02 0.431D-01 0.343D+00 0.619D+00
 Coeff-En:   0.000D+00 0.000D+00 0.213D+00 0.787D+00
 Coeff:     -0.486D-02 0.421D-01 0.340D+00 0.623D+00
 Gap=     0.197 Goal=   None    Shift=    0.000
 RMSDP=2.57D-04 MaxDP=5.78D-03 DE=-3.15D-03 OVMax= 6.78D-03

 Cycle   5  Pass 0  IDiag  1:
 E= -340.894457699164     Delta-E=       -0.001088246675 Rises=F Damp=F
 DIIS: error= 3.09D-04 at cycle   5 NSaved=   5.
 NSaved= 5 IEnMin= 5 EnMin= -340.894457699164     IErMin= 5 ErrMin= 3.09D-04
 ErrMax= 3.09D-04  0.00D+00 EMaxC= 1.00D-01 BMatC= 3.01D-05 BMatP= 1.30D-03
 IDIUse=3 WtCom= 9.97D-01 WtEn= 3.09D-03
 Coeff-Com: -0.310D-02 0.403D-02 0.108D+00 0.248D+00 0.643D+00
 Coeff-En:   0.000D+00 0.000D+00 0.000D+00 0.000D+00 0.100D+01
 Coeff:     -0.309D-02 0.402D-02 0.108D+00 0.247D+00 0.644D+00
 Gap=     0.197 Goal=   None    Shift=    0.000
 RMSDP=5.35D-05 MaxDP=1.17D-03 DE=-1.09D-03 OVMax= 1.45D-03

 Cycle   6  Pass 0  IDiag  1:
 E= -340.894477545286     Delta-E=       -0.000019846122 Rises=F Damp=F
 DIIS: error= 1.02D-04 at cycle   6 NSaved=   6.
 NSaved= 6 IEnMin= 6 EnMin= -340.894477545286     IErMin= 6 ErrMin= 1.02D-04
 ErrMax= 1.02D-04  0.00D+00 EMaxC= 1.00D-01 BMatC= 5.95D-06 BMatP= 3.01D-05
 IDIUse=3 WtCom= 9.99D-01 WtEn= 1.02D-03
 Coeff-Com: -0.137D-02-0.876D-03 0.319D-01 0.860D-01 0.359D+00 0.525D+00
 Coeff-En:   0.000D+00 0.000D+00 0.000D+00 0.000D+00 0.106D+00 0.894D+00
 Coeff:     -0.137D-02-0.875D-03 0.318D-01 0.859D-01 0.359D+00 0.526D+00
 Gap=     0.197 Goal=   None    Shift=    0.000
 RMSDP=2.02D-05 MaxDP=3.17D-04 DE=-1.98D-05 OVMax= 6.48D-04

 Cycle   7  Pass 0  IDiag  1:
 E= -340.894482372948     Delta-E=       -0.000004827661 Rises=F Damp=F
 DIIS: error= 1.96D-05 at cycle   7 NSaved=   7.
 NSaved= 7 IEnMin= 7 EnMin= -340.894482372948     IErMin= 7 ErrMin= 1.96D-05
 ErrMax= 1.96D-05  0.00D+00 EMaxC= 1.00D-01 BMatC= 1.40D-07 BMatP= 5.95D-06
 IDIUse=1 WtCom= 1.00D+00 WtEn= 0.00D+00
 Coeff-Com: -0.223D-03-0.561D-03 0.249D-02 0.100D-01 0.727D-01 0.176D+00
 Coeff-Com:  0.740D+00
 Coeff:     -0.223D-03-0.561D-03 0.249D-02 0.100D-01 0.727D-01 0.176D+00
 Coeff:      0.740D+00
 Gap=     0.197 Goal=   None    Shift=    0.000
 RMSDP=5.03D-06 MaxDP=8.59D-05 DE=-4.83D-06 OVMax= 1.75D-04

 Initial convergence to 1.0D-05 achieved.  Increase integral accuracy.
 Cycle   8  Pass 1  IDiag  1:
 E= -340.894489686079     Delta-E=       -0.000007313131 Rises=F Damp=F
 DIIS: error= 1.24D-05 at cycle   1 NSaved=   1.
 NSaved= 1 IEnMin= 1 EnMin= -340.894489686079     IErMin= 1 ErrMin= 1.24D-05
 ErrMax= 1.24D-05  0.00D+00 EMaxC= 1.00D-01 BMatC= 6.31D-08 BMatP= 6.31D-08
 IDIUse=1 WtCom= 1.00D+00 WtEn= 0.00D+00
 Coeff-Com:  0.100D+01
 Coeff:      0.100D+01
 Gap=     0.197 Goal=   None    Shift=    0.000
 RMSDP=5.03D-06 MaxDP=8.59D-05 DE=-7.31D-06 OVMax= 1.56D-04

 Cycle   9  Pass 1  IDiag  1:
 E= -340.894489690062     Delta-E=       -0.000000003983 Rises=F Damp=F
 DIIS: error= 1.56D-05 at cycle   2 NSaved=   2.
 NSaved= 2 IEnMin= 2 EnMin= -340.894489690062     IErMin= 1 ErrMin= 1.24D-05
 ErrMax= 1.56D-05  0.00D+00 EMaxC= 1.00D-01 BMatC= 7.70D-08 BMatP= 6.31D-08
 IDIUse=1 WtCom= 1.00D+00 WtEn= 0.00D+00
 Coeff-Com:  0.529D+00 0.471D+00
 Coeff:      0.529D+00 0.471D+00
 Gap=     0.197 Goal=   None    Shift=    0.000
 RMSDP=2.46D-06 MaxDP=4.77D-05 DE=-3.98D-09 OVMax= 7.44D-05

 Cycle  10  Pass 1  IDiag  1:
 E= -340.894489750626     Delta-E=       -0.000000060564 Rises=F Damp=F
 DIIS: error= 4.14D-06 at cycle   3 NSaved=   3.
 NSaved= 3 IEnMin= 3 EnMin= -340.894489750626     IErMin= 3 ErrMin= 4.14D-06
 ErrMax= 4.14D-06  0.00D+00 EMaxC= 1.00D-01 BMatC= 3.68D-09 BMatP= 6.31D-08
 IDIUse=1 WtCom= 1.00D+00 WtEn= 0.00D+00
 Coeff-Com:  0.131D-01 0.174D+00 0.813D+00
 Coeff:      0.131D-01 0.174D+00 0.813D+00
 Gap=     0.197 Goal=   None    Shift=    0.000
 RMSDP=6.38D-07 MaxDP=1.29D-05 DE=-6.06D-08 OVMax= 1.99D-05

 Cycle  11  Pass 1  IDiag  1:
 E= -340.894489753060     Delta-E=       -0.000000002434 Rises=F Damp=F
 DIIS: error= 1.41D-06 at cycle   4 NSaved=   4.
 NSaved= 4 IEnMin= 4 EnMin= -340.894489753060     IErMin= 4 ErrMin= 1.41D-06
 ErrMax= 1.41D-06  0.00D+00 EMaxC= 1.00D-01 BMatC= 7.30D-10 BMatP= 3.68D-09
 IDIUse=1 WtCom= 1.00D+00 WtEn= 0.00D+00
 Coeff-Com: -0.172D-01 0.775D-01 0.470D+00 0.469D+00
 Coeff:     -0.172D-01 0.775D-01 0.470D+00 0.469D+00
 Gap=     0.197 Goal=   None    Shift=    0.000
 RMSDP=1.86D-07 MaxDP=3.92D-06 DE=-2.43D-09 OVMax= 4.36D-06

 Cycle  12  Pass 1  IDiag  1:
 E= -340.894489753636     Delta-E=       -0.000000000575 Rises=F Damp=F
 DIIS: error= 1.46D-07 at cycle   5 NSaved=   5.
 NSaved= 5 IEnMin= 5 EnMin= -340.894489753636     IErMin= 5 ErrMin= 1.46D-07
 ErrMax= 1.46D-07  0.00D+00 EMaxC= 1.00D-01 BMatC= 6.60D-12 BMatP= 7.30D-10
 IDIUse=1 WtCom= 1.00D+00 WtEn= 0.00D+00
 Coeff-Com: -0.675D-02 0.220D-01 0.148D+00 0.169D+00 0.668D+00
 Coeff:     -0.675D-02 0.220D-01 0.148D+00 0.169D+00 0.668D+00
 Gap=     0.197 Goal=   None    Shift=    0.000
 RMSDP=2.86D-08 MaxDP=5.55D-07 DE=-5.75D-10 OVMax= 7.79D-07

 Cycle  13  Pass 1  IDiag  1:
 E= -340.894489753646     Delta-E=       -0.000000000011 Rises=F Damp=F
 DIIS: error= 9.13D-08 at cycle   6 NSaved=   6.
 NSaved= 6 IEnMin= 6 EnMin= -340.894489753646     IErMin= 6 ErrMin= 9.13D-08
 ErrMax= 9.13D-08  0.00D+00 EMaxC= 1.00D-01 BMatC= 1.91D-12 BMatP= 6.60D-12
 IDIUse=1 WtCom= 1.00D+00 WtEn= 0.00D+00
 Coeff-Com: -0.119D-02 0.960D-03 0.149D-01 0.272D-01 0.364D+00 0.594D+00
 Coeff:     -0.119D-02 0.960D-03 0.149D-01 0.272D-01 0.364D+00 0.594D+00
 Gap=     0.197 Goal=   None    Shift=    0.000
 RMSDP=1.38D-08 MaxDP=2.81D-07 DE=-1.07D-11 OVMax= 3.28D-07

 Cycle  14  Pass 1  IDiag  1:
 E= -340.894489753650     Delta-E=       -0.000000000003 Rises=F Damp=F
 DIIS: error= 2.11D-08 at cycle   7 NSaved=   7.
 NSaved= 7 IEnMin= 7 EnMin= -340.894489753650     IErMin= 7 ErrMin= 2.11D-08
 ErrMax= 2.11D-08  0.00D+00 EMaxC= 1.00D-01 BMatC= 9.13D-14 BMatP= 1.91D-12
 IDIUse=1 WtCom= 1.00D+00 WtEn= 0.00D+00
 Coeff-Com:  0.177D-03-0.180D-02-0.847D-02-0.585D-02 0.632D-01 0.229D+00
 Coeff-Com:  0.723D+00
 Coeff:      0.177D-03-0.180D-02-0.847D-02-0.585D-02 0.632D-01 0.229D+00
 Coeff:      0.723D+00
 Gap=     0.197 Goal=   None    Shift=    0.000
 RMSDP=4.44D-09 MaxDP=9.57D-08 DE=-3.18D-12 OVMax= 1.64D-07

 SCF Done:  E(RB3LYP) =  -340.894489754     A.U. after   14 cycles
            NFock= 14  Conv=0.44D-08     -V/T= 2.0085
 KE= 3.380078906271D+02 PE=-1.351081133499D+03 EE= 3.961350188263D+02
 Leave Link  502 at Thu Sep  8 14:52:04 2022, MaxMem= 24159191040 cpu:        53.6
 (Enter /public/home/users/caep010/software/Gaussian09/g09/l601.exe)
 Copying SCF densities to generalized density rwf, IOpCl= 0 IROHF=0.

 **********************************************************************

            Population analysis using the SCF density.

 **********************************************************************

 Orbital symmetries:
       Occupied  (A) (A) (A) (A) (A) (A) (A) (A) (A) (A) (A) (A)
                 (A) (A) (A) (A) (A) (A) (A) (A) (A) (A) (A) (A)
                 (A)
       Virtual   (A) (A) (A) (A) (A) (A) (A) (A) (A) (A) (A) (A)
                 (A) (A) (A) (A) (A) (A) (A) (A) (A) (A) (A) (A)
                 (A) (A) (A) (A) (A) (A) (A) (A) (A) (A) (A) (A)
                 (A) (A) (A) (A) (A) (A) (A) (A) (A) (A) (A) (A)
                 (A) (A) (A) (A) (A) (A) (A) (A) (A) (A) (A) (A)
                 (A) (A) (A) (A) (A) (A) (A) (A) (A) (A) (A) (A)
                 (A) (A) (A) (A) (A) (A) (A) (A) (A) (A) (A) (A)
                 (A) (A) (A) (A) (A) (A) (A) (A) (A) (A) (A) (A)
                 (A) (A) (A) (A) (A) (A) (A) (A) (A)
 The electronic state is 1-A.
 Alpha  occ. eigenvalues --  -19.12849 -19.11739 -14.44960 -14.26057 -10.27587
 Alpha  occ. eigenvalues --  -10.16166  -1.04086  -0.99042  -0.96567  -0.77117
 Alpha  occ. eigenvalues --   -0.70028  -0.58278  -0.56136  -0.55795  -0.49662
 Alpha  occ. eigenvalues --   -0.47950  -0.42471  -0.40024  -0.37648  -0.35670
 Alpha  occ. eigenvalues --   -0.31997  -0.28115  -0.25563  -0.24714  -0.16234
 Alpha virt. eigenvalues --    0.03476   0.09394   0.09653   0.12379   0.14084
 Alpha virt. eigenvalues --    0.17349   0.17602   0.18575   0.19366   0.24849
 Alpha virt. eigenvalues --    0.27469   0.29234   0.35870   0.55701   0.57578
 Alpha virt. eigenvalues --    0.59106   0.61110   0.63320   0.65981   0.68234
 Alpha virt. eigenvalues --    0.70801   0.74340   0.75362   0.77360   0.79503
 Alpha virt. eigenvalues --    0.81665   0.83748   0.84674   0.86133   0.88557
 Alpha virt. eigenvalues --    0.89223   0.91258   0.94651   0.97034   0.97992
 Alpha virt. eigenvalues --    1.04301   1.05458   1.06627   1.08559   1.15788
 Alpha virt. eigenvalues --    1.26724   1.30735   1.34118   1.38161   1.42952
 Alpha virt. eigenvalues --    1.50692   1.54041   1.60115   1.65559   1.70208
 Alpha virt. eigenvalues --    1.71483   1.77730   1.84233   1.87733   1.89773
 Alpha virt. eigenvalues --    1.94102   1.96119   1.98951   2.02151   2.05412
 Alpha virt. eigenvalues --    2.05615   2.08001   2.08965   2.14081   2.17277
 Alpha virt. eigenvalues --    2.18191   2.20686   2.23321   2.24153   2.31474
 Alpha virt. eigenvalues --    2.36576   2.43163   2.45982   2.51404   2.54373
 Alpha virt. eigenvalues --    2.55384   2.58005   2.66863   2.67760   2.68590
 Alpha virt. eigenvalues --    2.71425   2.76250   2.80168   2.81255   2.85425
 Alpha virt. eigenvalues --    2.89335   2.91281   2.97786   3.00500   3.05219
 Alpha virt. eigenvalues --    3.11967   3.15353   3.21682   3.35141   3.37399
 Alpha virt. eigenvalues --    3.42881   3.45443   3.47842   3.53206   3.83917
 Alpha virt. eigenvalues --    4.00934   4.09514   4.25914   4.48432   4.67410
          Condensed to atoms (all electrons):
               1          2          3          4          5          6
     1  C    5.138565   0.347846  -0.078628  -0.076709  -0.078832  -0.009175
     2  C    0.347846   4.407752   0.174051   0.263640   0.354786  -0.032991
     3  O   -0.078628   0.174051   8.320301  -0.058149  -0.069752  -0.041418
     4  O   -0.076709   0.263640  -0.058149   8.201697  -0.070160   0.004399
     5  N   -0.078832   0.354786  -0.069752  -0.070160   7.430809   0.061552
     6  N   -0.009175  -0.032991  -0.041418   0.004399   0.061552   6.519564
     7  H    0.359856  -0.027649   0.001338   0.003794  -0.005484  -0.000166
     8  H    0.335821  -0.010566   0.000447  -0.000482   0.005488   0.000024
     9  H    0.360254  -0.021413   0.004241   0.002186   0.002312   0.000101
    10  H    0.001517  -0.012189   0.264996   0.003496   0.007533   0.001339
    11  H    0.012880  -0.023853   0.001516   0.266244   0.018531  -0.000802
    12  H   -0.000320   0.004236   0.000962  -0.000026  -0.032815   0.344755
    13  H    0.006320  -0.004072  -0.000528  -0.000294  -0.040986   0.279615
    14  H    0.002516  -0.029735   0.068332   0.000896  -0.027595   0.258762
               7          8          9         10         11         12
     1  C    0.359856   0.335821   0.360254   0.001517   0.012880  -0.000320
     2  C   -0.027649  -0.010566  -0.021413  -0.012189  -0.023853   0.004236
     3  O    0.001338   0.000447   0.004241   0.264996   0.001516   0.000962
     4  O    0.003794  -0.000482   0.002186   0.003496   0.266244  -0.000026
     5  N   -0.005484   0.005488   0.002312   0.007533   0.018531  -0.032815
     6  N   -0.000166   0.000024   0.000101   0.001339  -0.000802   0.344755
     7  H    0.667094  -0.037496  -0.027760   0.000020  -0.000364   0.000021
     8  H   -0.037496   0.638231  -0.025553   0.001401  -0.000659   0.000014
     9  H   -0.027760  -0.025553   0.580912  -0.000249  -0.000243  -0.000010
    10  H    0.000020   0.001401  -0.000249   0.442265  -0.000201  -0.000032
    11  H   -0.000364  -0.000659  -0.000243  -0.000201   0.427503  -0.000198
    12  H    0.000021   0.000014  -0.000010  -0.000032  -0.000198   0.414528
    13  H    0.003271  -0.000550  -0.000116   0.000257   0.000202  -0.039083
    14  H    0.000125   0.000148   0.000086  -0.006110   0.000082  -0.010743
              13         14
     1  C    0.006320   0.002516
     2  C   -0.004072  -0.029735
     3  O   -0.000528   0.068332
     4  O   -0.000294   0.000896
     5  N   -0.040986  -0.027595
     6  N    0.279615   0.258762
     7  H    0.003271   0.000125
     8  H   -0.000550   0.000148
     9  H   -0.000116   0.000086
    10  H    0.000257  -0.006110
    11  H    0.000202   0.000082
    12  H   -0.039083  -0.010743
    13  H    0.551110  -0.033707
    14  H   -0.033707   0.470976
 Mulliken charges:
               1
     1  C   -0.321909
     2  C    0.610156
     3  O   -0.587709
     4  O   -0.540531
     5  N   -0.555387
     6  N   -0.385560
     7  H    0.063400
     8  H    0.093732
     9  H    0.125252
    10  H    0.295957
    11  H    0.299362
    12  H    0.318711
    13  H    0.278562
    14  H    0.305965
 Sum of Mulliken charges =  -0.00000
 Mulliken charges with hydrogens summed into heavy atoms:
               1
     1  C   -0.039525
     2  C    0.610156
     3  O   -0.291752
     4  O   -0.241169
     5  N   -0.555387
     6  N    0.517677
 Electronic spatial extent (au):  <R**2>=            555.7493
 Charge=              0.0000 electrons
 Dipole moment (field-independent basis, Debye):
    X=             -4.0793    Y=              2.4394    Z=              1.4832  Tot=              4.9791
 Quadrupole moment (field-independent basis, Debye-Ang):
   XX=            -26.9504   YY=            -34.6743   ZZ=            -38.8047
   XY=             -0.6845   XZ=              1.0583   YZ=              0.2906
 Traceless Quadrupole moment (field-independent basis, Debye-Ang):
   XX=              6.5261   YY=             -1.1978   ZZ=             -5.3282
   XY=             -0.6845   XZ=              1.0583   YZ=              0.2906
 Octapole moment (field-independent basis, Debye-Ang**2):
  XXX=            -40.6084  YYY=            -11.0046  ZZZ=             10.0306  XYY=              0.2691
  XXY=              2.1191  XXZ=              3.6506  XZZ=              3.7256  YZZ=              4.5734
  YYZ=              1.5946  XYZ=              3.4412
 Hexadecapole moment (field-independent basis, Debye-Ang**3):
 XXXX=           -261.6708 YYYY=           -174.9894 ZZZZ=           -146.7762 XXXY=              6.3343
 XXXZ=             11.7580 YYYX=            -20.9630 YYYZ=              4.7596 ZZZX=              4.0680
 ZZZY=              5.2031 XXYY=            -79.0769 XXZZ=            -74.9071 YYZZ=            -56.6211
 XXYZ=              0.0713 YYXZ=             -0.0957 ZZXY=             -1.2199
 N-N= 2.760437342923D+02 E-N=-1.351081134159D+03  KE= 3.380078906271D+02
 No NMR shielding tensors so no spin-rotation constants.
 Leave Link  601 at Thu Sep  8 14:52:05 2022, MaxMem= 24159191040 cpu:        11.7
 (Enter /public/home/users/caep010/software/Gaussian09/g09/l701.exe)
 Compute integral first derivatives.
 ... and contract with generalized density number  0.
 Leave Link  701 at Thu Sep  8 14:52:05 2022, MaxMem= 24159191040 cpu:        10.9
 (Enter /public/home/users/caep010/software/Gaussian09/g09/l702.exe)
 L702 exits ... SP integral derivatives will be done elsewhere.
 Leave Link  702 at Thu Sep  8 14:52:05 2022, MaxMem= 24159191040 cpu:         0.5
 (Enter /public/home/users/caep010/software/Gaussian09/g09/l703.exe)
 Compute integral first derivatives, UseDBF=F ICtDFT=           0.
 Integral derivatives from FoFJK, PRISM(SPDF).
 Calling FoFJK, ICntrl=      2127 FMM=F ISym2X=0 I1Cent= 0 IOpClX= 0 NMat=1 NMatS=1 NMatT=0.
 FoFJK:  IHMeth= 1 ICntrl=    2127 DoSepK=F KAlg= 0 I1Cent=   0 FoldK=F
 IRaf=         0 NMat=   1 IRICut=       1 DoRegI=T DoRafI=F ISym2E= 0.
 FoFCou: FMM=F IPFlag=           0 FMFlag=      100000 FMFlg1=         800
         NFxFlg=           0 DoJE=F BraDBF=F KetDBF=F FulRan=T
         wScrn=  0.000000 ICntrl=    2127 IOpCl=  0 I1Cent=           0 NGrid=           0
         NMat0=    1 NMatS0=      1 NMatT0=    0 NMatD0=    1 NMtDS0=    0 NMtDT0=    0
 Symmetry not used in FoFCou.
 Leave Link  703 at Thu Sep  8 14:52:06 2022, MaxMem= 24159191040 cpu:        11.6
 (Enter /public/home/users/caep010/software/Gaussian09/g09/l716.exe)
 Dipole        =-1.60492378D+00 9.59737856D-01 5.83532802D-01
 ***** Axes restored to original set *****
 -------------------------------------------------------------------
 Center     Atomic                   Forces (Hartrees/Bohr)
 Number     Number              X              Y              Z
 -------------------------------------------------------------------
      1        6           0.000037109    0.000199630   -0.000074699
      2        6          -0.000494098   -0.000881429   -0.001014877
      3        8           0.003747184   -0.000230385    0.001055340
      4        8          -0.004007276   -0.000153983   -0.001285898
      5        7           0.000051165    0.002170807   -0.001838071
      6        7          -0.000012926   -0.000089436    0.000248510
      7        1           0.000020912   -0.000310744   -0.000059048
      8        1          -0.000142989   -0.000040617   -0.000002127
      9        1          -0.000010979   -0.000010287    0.000027700
     10        1          -0.003526826   -0.000313157    0.001148574
     11        1           0.002995635    0.001774311    0.000506291
     12        1           0.001078779    0.000054184    0.000156715
     13        1           0.000205780   -0.001631068   -0.000166881
     14        1           0.000058530   -0.000537826    0.001298473
 -------------------------------------------------------------------
 Cartesian Forces:  Max     0.004007276 RMS     0.001340427
 Leave Link  716 at Thu Sep  8 14:52:06 2022, MaxMem= 24159191040 cpu:         0.9
 (Enter /public/home/users/caep010/software/Gaussian09/g09/l103.exe)

 GradGradGradGradGradGradGradGradGradGradGradGradGradGradGradGradGradGrad
 Berny optimization.
 FormGI is forming the generalized inverse of G from B-inverse, IUseBI=4.
 Internal  Forces:  Max     0.003695706 RMS     0.001001685
 Search for a local minimum.
 Step number   1 out of a maximum of   65
 All quantities printed in internal units (Hartrees-Bohrs-Radians)
 RMS Force = .10017D-02 SwitMx=.10000D-02 MixMth= 1
 Mixed Optimization -- RFO/linear search
 Second derivative matrix not updated -- first step.
 ITU=  0
     Eigenvalues ---    0.00230   0.00617   0.00691   0.01410   0.01797
     Eigenvalues ---    0.05368   0.05641   0.06149   0.07575   0.09431
     Eigenvalues ---    0.10220   0.11446   0.16000   0.16000   0.16000
     Eigenvalues ---    0.16000   0.16000   0.16000   0.16000   0.16000
     Eigenvalues ---    0.18798   0.19974   0.25000   0.28427   0.34077
     Eigenvalues ---    0.34109   0.34635   0.35070   0.38084   0.41809
     Eigenvalues ---    0.41955   0.42263   0.44615   0.46968   0.53875
     Eigenvalues ---    0.54976
 RFO step:  Lambda=-1.82305851D-04 EMin= 2.30000000D-03
 Linear search not attempted -- first point.
 Iteration  1 RMS(Cart)=  0.01573020 RMS(Int)=  0.00020691
 Iteration  2 RMS(Cart)=  0.00020598 RMS(Int)=  0.00000357
 Iteration  3 RMS(Cart)=  0.00000007 RMS(Int)=  0.00000357
 ITry= 1 IFail=0 DXMaxC= 4.77D-02 DCOld= 1.00D+10 DXMaxT= 3.00D-01 DXLimC= 3.00D+00 Rises=F
 Variable       Old X    -DE/DX   Delta X   Delta X   Delta X     New X
                                 (Linear)    (Quad)   (Total)
    R1        2.91214   0.00021   0.00000   0.00075   0.00075   2.91289
    R2        2.07146   0.00028   0.00000   0.00082   0.00082   2.07227
    R3        2.07201   0.00013   0.00000   0.00037   0.00037   2.07238
    R4        2.06271  -0.00003   0.00000  -0.00008  -0.00008   2.06264
    R5        2.78861   0.00225   0.00000   0.00640   0.00640   2.79501
    R6        2.63055   0.00202   0.00000   0.00430   0.00430   2.63485
    R7        2.68589   0.00140   0.00000   0.00330   0.00330   2.68920
    R8        1.81853   0.00370   0.00000   0.00672   0.00672   1.82525
    R9        1.82845   0.00348   0.00000   0.00645   0.00645   1.83490
   R10        2.74244   0.00301   0.00000   0.00789   0.00789   2.75033
   R11        1.92425   0.00107   0.00000   0.00240   0.00240   1.92666
   R12        1.95681   0.00152   0.00000   0.00362   0.00362   1.96043
   R13        1.95867   0.00121   0.00000   0.00289   0.00289   1.96156
    A1        1.93765   0.00018   0.00000   0.00124   0.00124   1.93889
    A2        1.95338   0.00009   0.00000   0.00067   0.00067   1.95404
    A3        1.89960  -0.00004   0.00000  -0.00053  -0.00053   1.89907
    A4        1.88248  -0.00009   0.00000  -0.00011  -0.00011   1.88237
    A5        1.89960  -0.00009   0.00000  -0.00084  -0.00084   1.89876
    A6        1.88990  -0.00004   0.00000  -0.00051  -0.00051   1.88939
    A7        1.88130   0.00001   0.00000   0.00055   0.00055   1.88186
    A8        1.86291  -0.00007   0.00000  -0.00031  -0.00031   1.86261
    A9        2.04873   0.00008   0.00000  -0.00014  -0.00014   2.04859
   A10        1.92599   0.00022   0.00000   0.00212   0.00212   1.92810
   A11        1.88024  -0.00009   0.00000  -0.00061  -0.00061   1.87963
   A12        1.86368  -0.00012   0.00000  -0.00141  -0.00141   1.86228
   A13        1.89080  -0.00001   0.00000  -0.00005  -0.00005   1.89076
   A14        1.81132  -0.00094   0.00000  -0.00588  -0.00588   1.80544
   A15        1.85560   0.00078   0.00000   0.00312   0.00312   1.85872
   A16        1.88000  -0.00010   0.00000  -0.00111  -0.00111   1.87888
   A17        2.01794   0.00074   0.00000   0.00488   0.00487   2.02281
   A18        1.89479   0.00081   0.00000   0.00535   0.00534   1.90013
   A19        1.86841  -0.00044   0.00000  -0.00316  -0.00316   1.86525
   A20        1.91822  -0.00051   0.00000  -0.00369  -0.00369   1.91453
   A21        1.88342  -0.00059   0.00000  -0.00280  -0.00281   1.88061
    D1       -1.02991   0.00005   0.00000  -0.00510  -0.00510  -1.03500
    D2       -3.09895  -0.00017   0.00000  -0.00770  -0.00770  -3.10665
    D3        1.09525  -0.00001   0.00000  -0.00555  -0.00555   1.08970
    D4        1.07462   0.00011   0.00000  -0.00391  -0.00391   1.07071
    D5       -0.99443  -0.00011   0.00000  -0.00651  -0.00651  -1.00094
    D6       -3.08341   0.00005   0.00000  -0.00437  -0.00437  -3.08778
    D7       -3.12039   0.00008   0.00000  -0.00448  -0.00448  -3.12487
    D8        1.09375  -0.00014   0.00000  -0.00708  -0.00708   1.08667
    D9       -0.99523   0.00002   0.00000  -0.00493  -0.00493  -1.00017
   D10       -0.68610  -0.00026   0.00000  -0.03778  -0.03778  -0.72388
   D11        1.34208  -0.00022   0.00000  -0.03668  -0.03668   1.30540
   D12       -2.91261  -0.00031   0.00000  -0.03757  -0.03757  -2.95018
   D13       -2.74994  -0.00008   0.00000  -0.00537  -0.00537  -2.75531
   D14        1.49362  -0.00017   0.00000  -0.00697  -0.00697   1.48665
   D15       -0.54518  -0.00010   0.00000  -0.00656  -0.00656  -0.55174
   D16       -1.34560  -0.00028   0.00000  -0.01701  -0.01701  -1.36262
   D17        0.78010  -0.00028   0.00000  -0.01686  -0.01686   0.76324
   D18        2.84901  -0.00014   0.00000  -0.01544  -0.01544   2.83356
   D19       -2.69462  -0.00007   0.00000  -0.01344  -0.01344  -2.70806
   D20        1.50041   0.00009   0.00000  -0.01170  -0.01169   1.48872
   D21       -0.61823  -0.00028   0.00000  -0.01550  -0.01552  -0.63375
         Item               Value     Threshold  Converged?
 Maximum Force            0.003696     0.000450     NO 
 RMS     Force            0.001002     0.000300     NO 
 Maximum Displacement     0.047678     0.001800     NO 
 RMS     Displacement     0.015732     0.001200     NO 
 Predicted change in Energy=-9.174269D-05
 Lowest energy point so far.  Saving SCF results.
 GradGradGradGradGradGradGradGradGradGradGradGradGradGradGradGradGradGrad

 Leave Link  103 at Thu Sep  8 14:52:06 2022, MaxMem= 24159191040 cpu:         6.3
 (Enter /public/home/users/caep010/software/Gaussian09/g09/l202.exe)
                          Input orientation:                          
 ---------------------------------------------------------------------
 Center     Atomic      Atomic             Coordinates (Angstroms)
 Number     Number       Type             X           Y           Z
 ---------------------------------------------------------------------
      1          6           0       -1.255003   -0.513158   -0.659098
      2          6           0       -0.302103    0.545515   -0.069849
      3          8           0       -0.293130    0.378605    1.399731
      4          8           0       -0.823494    1.791487   -0.415957
      5          7           0        1.049374    0.529710   -0.515227
      6          7           0        1.706888   -0.555295    0.197976
      7          1           0       -0.928933   -1.526901   -0.397303
      8          1           0       -2.282560   -0.386615   -0.297480
      9          1           0       -1.260649   -0.415389   -1.746196
     10          1           0       -1.198808    0.214109    1.692337
     11          1           0       -0.054748    2.381839   -0.358228
     12          1           0        2.703483   -0.343064    0.232964
     13          1           0        1.614446   -1.497683   -0.225807
     14          1           0        1.325337   -0.603059    1.162137
 ---------------------------------------------------------------------
                    Distance matrix (angstroms):
                    1          2          3          4          5
     1  C    0.000000
     2  C    1.541434   0.000000
     3  O    2.441151   1.479056   0.000000
     4  O    2.357267   1.394305   2.360984   0.000000
     5  N    2.533461   1.423061   2.343547   2.260436   0.000000
     6  N    3.083691   2.306417   2.513256   3.505301   1.455410
     7  H    1.096601   2.189760   2.695279   3.320116   2.856091
     8  H    1.096656   2.200656   2.724687   2.624317   3.462492
     9  H    1.091500   2.156915   3.385760   2.613608   2.782931
    10  H    2.461975   2.004797   0.965883   2.659677   3.166586
    11  H    3.148355   1.875216   2.675854   0.970988   2.161971
    12  H    4.061319   3.148780   3.295730   4.173365   2.014348
    13  H    3.064435   2.805733   3.130762   4.098579   2.124474
    14  H    3.159609   2.342130   1.907760   3.583533   2.042760
                    6          7          8          9         10
     6  N    0.000000
     7  H    2.871573   0.000000
     8  H    4.023634   1.772716   0.000000
     9  H    3.550444   1.779046   1.773107   0.000000
    10  H    3.356810   2.733230   2.344090   3.496227   0.000000
    11  H    3.469796   4.005493   3.554036   3.347407   3.195738
    12  H    1.019543   3.872099   5.014368   4.431325   4.203342
    13  H    1.037416   2.549321   4.052932   3.427697   3.811024
    14  H    1.038012   2.892589   3.897980   3.896273   2.705584
                   11         12         13         14
    11  H    0.000000
    12  H    3.922046   0.000000
    13  H    4.225451   1.652156   0.000000
    14  H    3.622950   1.682333   1.676402   0.000000
 Stoichiometry    C2H8N2O2
 Framework group  C1[X(C2H8N2O2)]
 Deg. of freedom    36
 Full point group                 C1      NOp   1
 RotChk:  IX=0 Diff= 9.88D-03
 Largest Abelian subgroup         C1      NOp   1
 Largest concise Abelian subgroup C1      NOp   1
                         Standard orientation:                         
 ---------------------------------------------------------------------
 Center     Atomic      Atomic             Coordinates (Angstroms)
 Number     Number       Type             X           Y           Z
 ---------------------------------------------------------------------
      1          6           0        0.902281    1.312464   -0.473080
      2          6           0        0.403016   -0.080469   -0.041235
      3          8           0        0.102671   -0.025109    1.405946
      4          8           0        1.443892   -0.974375   -0.289420
      5          7           0       -0.746371   -0.597492   -0.702066
      6          7           0       -1.897316    0.070783   -0.113038
      7          1           0        0.146287    2.081630   -0.274613
      8          1           0        1.820651    1.600116    0.052761
      9          1           0        1.112809    1.294441   -1.543933
     10          1           0        0.800510    0.480740    1.841914
     11          1           0        0.993922   -1.832329   -0.354685
     12          1           0       -2.706167   -0.536669   -0.240436
     13          1           0       -2.144912    0.991534   -0.521871
     14          1           0       -1.721586    0.211404    0.900280
 ---------------------------------------------------------------------
 Rotational constants (GHZ):      4.8475988      2.8983680      2.8178512
 Leave Link  202 at Thu Sep  8 14:52:06 2022, MaxMem= 24159191040 cpu:         0.3
 (Enter /public/home/users/caep010/software/Gaussian09/g09/l301.exe)
 Standard basis: 6-31G(d,p) (6D, 7F)
 Ernie: Thresh=  0.10000D-02 Tol=  0.10000D-05 Strict=F.
 There are   130 symmetry adapted cartesian basis functions of A   symmetry.
 There are   130 symmetry adapted basis functions of A   symmetry.
   130 basis functions,   224 primitive gaussians,   130 cartesian basis functions
    25 alpha electrons       25 beta electrons
       nuclear repulsion energy       275.5365669387 Hartrees.
 IExCor=  402 DFT=T Ex+Corr=B3LYP ExCW=0 ScaHFX=  0.200000
 ScaDFX=  0.800000  0.720000  1.000000  0.810000 ScalE2=  1.000000  1.000000
 IRadAn=      0 IRanWt=     -1 IRanGd=            0 ICorTp=0 IEmpDi=  4
 NAtoms=   14 NActive=   14 NUniq=   14 SFac= 1.00D+00 NAtFMM=   60 NAOKFM=F Big=F
 Integral buffers will be    131072 words long.
 Raffenetti 2 integral format.
 Two-electron integral symmetry is turned on.
 Leave Link  301 at Thu Sep  8 14:52:06 2022, MaxMem= 24159191040 cpu:         1.9
 (Enter /public/home/users/caep010/software/Gaussian09/g09/l302.exe)
 NPDir=0 NMtPBC=     1 NCelOv=     1 NCel=       1 NClECP=     1 NCelD=      1
         NCelK=      1 NCelE2=     1 NClLst=     1 CellRange=     0.0.
 One-electron integrals computed using PRISM.
 NBasis=   130 RedAO= T EigKep=  2.32D-03  NBF=   130
 NBsUse=   130 1.00D-06 EigRej= -1.00D+00 NBFU=   130
 Precomputing XC quadrature grid using
 IXCGrd= 4 IRadAn=           0 IRanWt=          -1 IRanGd=           0 AccXCQ= 0.00D+00.
 Generated NRdTot=       0 NPtTot=           0 NUsed=           0 NTot=          32
 NSgBfM=   130   130   130   130   130 MxSgAt=    14 MxSgA2=    14.
 Leave Link  302 at Thu Sep  8 14:52:07 2022, MaxMem= 24159191040 cpu:        12.2
 (Enter /public/home/users/caep010/software/Gaussian09/g09/l303.exe)
 DipDrv:  MaxL=1.
 Leave Link  303 at Thu Sep  8 14:52:07 2022, MaxMem= 24159191040 cpu:         0.6
 (Enter /public/home/users/caep010/software/Gaussian09/g09/l401.exe)
 Initial guess from the checkpoint file:  "B3LYP6-31Gdp.Frag_1095.chk"
 B after Tr=    -0.000000    0.000000    0.000000
         Rot=    0.999995   -0.000159    0.001669    0.002787 Ang=  -0.37 deg.
 Guess basis will be translated and rotated to current coordinates.
 JPrj=2 DoOrth=T DoCkMO=T.
 Generating alternative initial guess.
 ExpMin= 1.61D-01 ExpMax= 5.48D+03 ExpMxC= 8.25D+02 IAcc=1 IRadAn=         1 AccDes= 0.00D+00
 Harris functional with IExCor=  402 and IRadAn=       1 diagonalized for initial guess.
 HarFok:  IExCor=  402 AccDes= 0.00D+00 IRadAn=         1 IDoV= 1 UseB2=F ITyADJ=14
 ICtDFT=  3500011 ScaDFX=  1.000000  1.000000  1.000000  1.000000
 FoFCou: FMM=F IPFlag=           0 FMFlag=      100000 FMFlg1=           0
         NFxFlg=           0 DoJE=T BraDBF=F KetDBF=T FulRan=T
         wScrn=  0.000000 ICntrl=     500 IOpCl=  0 I1Cent=   200000004 NGrid=           0
         NMat0=    1 NMatS0=      1 NMatT0=    0 NMatD0=    1 NMtDS0=    0 NMtDT0=    0
 Petite list used in FoFCou.
 Harris En= -340.947575359861    
 Leave Link  401 at Thu Sep  8 14:52:07 2022, MaxMem= 24159191040 cpu:        12.1
 (Enter /public/home/users/caep010/software/Gaussian09/g09/l502.exe)
 Closed shell SCF:
 Using DIIS extrapolation, IDIIS=  1040.
 Integral symmetry usage will be decided dynamically.
 Keep R1 ints in memory in canonical form, NReq=37455246.
 IVT=       74396 IEndB=       74396 NGot= 24159191040 MDV= 24122859775
 LenX= 24122859775 LenY= 24122842434
 Requested convergence on RMS density matrix=1.00D-08 within 128 cycles.
 Requested convergence on MAX density matrix=1.00D-06.
 Requested convergence on             energy=1.00D-06.
 No special actions if energy rises.
 FoFCou: FMM=F IPFlag=           0 FMFlag=           0 FMFlg1=           0
         NFxFlg=           0 DoJE=F BraDBF=F KetDBF=F FulRan=T
         wScrn=  0.000000 ICntrl=     600 IOpCl=  0 I1Cent=           0 NGrid=           0
         NMat0=    1 NMatS0=   8515 NMatT0=    0 NMatD0=    1 NMtDS0=    0 NMtDT0=    0
 Symmetry not used in FoFCou.
 Integral accuracy reduced to 1.0D-05 until final iterations.

 Cycle   1  Pass 0  IDiag  1:
 E= -340.894145964087    
 DIIS: error= 9.89D-04 at cycle   1 NSaved=   1.
 NSaved= 1 IEnMin= 1 EnMin= -340.894145964087     IErMin= 1 ErrMin= 9.89D-04
 ErrMax= 9.89D-04  0.00D+00 EMaxC= 1.00D-01 BMatC= 2.82D-04 BMatP= 2.82D-04
 IDIUse=3 WtCom= 9.90D-01 WtEn= 9.89D-03
 Coeff-Com:  0.100D+01
 Coeff-En:   0.100D+01
 Coeff:      0.100D+01
 Gap=     1.507 Goal=   None    Shift=    0.000
 RMSDP=2.23D-04 MaxDP=6.14D-03              OVMax= 6.11D-03

 Cycle   2  Pass 0  IDiag  1:
 E= -340.894567205765     Delta-E=       -0.000421241678 Rises=F Damp=F
 DIIS: error= 2.01D-04 at cycle   2 NSaved=   2.
 NSaved= 2 IEnMin= 2 EnMin= -340.894567205765     IErMin= 2 ErrMin= 2.01D-04
 ErrMax= 2.01D-04  0.00D+00 EMaxC= 1.00D-01 BMatC= 7.25D-06 BMatP= 2.82D-04
 IDIUse=3 WtCom= 9.98D-01 WtEn= 2.01D-03
 Coeff-Com: -0.229D-01 0.102D+01
 Coeff-En:   0.000D+00 0.100D+01
 Coeff:     -0.229D-01 0.102D+01
 Gap=     0.197 Goal=   None    Shift=    0.000
 RMSDP=4.56D-05 MaxDP=1.01D-03 DE=-4.21D-04 OVMax= 1.13D-03

 Cycle   3  Pass 0  IDiag  1:
 E= -340.894567578993     Delta-E=       -0.000000373228 Rises=F Damp=F
 DIIS: error= 2.31D-04 at cycle   3 NSaved=   3.
 NSaved= 3 IEnMin= 3 EnMin= -340.894567578993     IErMin= 2 ErrMin= 2.01D-04
 ErrMax= 2.31D-04  0.00D+00 EMaxC= 1.00D-01 BMatC= 1.02D-05 BMatP= 7.25D-06
 IDIUse=3 WtCom= 3.97D-01 WtEn= 6.03D-01
 Coeff-Com: -0.365D-01 0.575D+00 0.462D+00
 Coeff-En:   0.000D+00 0.486D+00 0.514D+00
 Coeff:     -0.145D-01 0.521D+00 0.493D+00
 Gap=     0.197 Goal=   None    Shift=    0.000
 RMSDP=2.39D-05 MaxDP=6.53D-04 DE=-3.73D-07 OVMax= 6.47D-04

 Cycle   4  Pass 0  IDiag  1:
 E= -340.894575197698     Delta-E=       -0.000007618705 Rises=F Damp=F
 DIIS: error= 4.69D-05 at cycle   4 NSaved=   4.
 NSaved= 4 IEnMin= 4 EnMin= -340.894575197698     IErMin= 4 ErrMin= 4.69D-05
 ErrMax= 4.69D-05  0.00D+00 EMaxC= 1.00D-01 BMatC= 6.38D-07 BMatP= 7.25D-06
 IDIUse=1 WtCom= 1.00D+00 WtEn= 0.00D+00
 Coeff-Com: -0.125D-01 0.152D+00 0.246D+00 0.614D+00
 Coeff:     -0.125D-01 0.152D+00 0.246D+00 0.614D+00
 Gap=     0.197 Goal=   None    Shift=    0.000
 RMSDP=6.21D-06 MaxDP=1.40D-04 DE=-7.62D-06 OVMax= 1.47D-04

 Initial convergence to 1.0D-05 achieved.  Increase integral accuracy.
 Cycle   5  Pass 1  IDiag  1:
 E= -340.894584047042     Delta-E=       -0.000008849344 Rises=F Damp=F
 DIIS: error= 1.65D-05 at cycle   1 NSaved=   1.
 NSaved= 1 IEnMin= 1 EnMin= -340.894584047042     IErMin= 1 ErrMin= 1.65D-05
 ErrMax= 1.65D-05  0.00D+00 EMaxC= 1.00D-01 BMatC= 7.91D-08 BMatP= 7.91D-08
 IDIUse=1 WtCom= 1.00D+00 WtEn= 0.00D+00
 Coeff-Com:  0.100D+01
 Coeff:      0.100D+01
 Gap=     0.197 Goal=   None    Shift=    0.000
 RMSDP=6.21D-06 MaxDP=1.40D-04 DE=-8.85D-06 OVMax= 1.47D-04

 Cycle   6  Pass 1  IDiag  1:
 E= -340.894584027017     Delta-E=        0.000000020025 Rises=F Damp=F
 DIIS: error= 2.62D-05 at cycle   2 NSaved=   2.
 NSaved= 2 IEnMin= 1 EnMin= -340.894584047042     IErMin= 1 ErrMin= 1.65D-05
 ErrMax= 2.62D-05  0.00D+00 EMaxC= 1.00D-01 BMatC= 1.19D-07 BMatP= 7.91D-08
 IDIUse=1 WtCom= 1.00D+00 WtEn= 0.00D+00
 Coeff-Com:  0.556D+00 0.444D+00
 Coeff:      0.556D+00 0.444D+00
 Gap=     0.197 Goal=   None    Shift=    0.000
 RMSDP=3.10D-06 MaxDP=6.02D-05 DE= 2.00D-08 OVMax= 8.06D-05

 Cycle   7  Pass 1  IDiag  1:
 E= -340.894584120667     Delta-E=       -0.000000093650 Rises=F Damp=F
 DIIS: error= 4.92D-06 at cycle   3 NSaved=   3.
 NSaved= 3 IEnMin= 3 EnMin= -340.894584120667     IErMin= 3 ErrMin= 4.92D-06
 ErrMax= 4.92D-06  0.00D+00 EMaxC= 1.00D-01 BMatC= 3.80D-09 BMatP= 7.91D-08
 IDIUse=1 WtCom= 1.00D+00 WtEn= 0.00D+00
 Coeff-Com:  0.654D-01 0.160D+00 0.775D+00
 Coeff:      0.654D-01 0.160D+00 0.775D+00
 Gap=     0.197 Goal=   None    Shift=    0.000
 RMSDP=6.15D-07 MaxDP=1.46D-05 DE=-9.36D-08 OVMax= 1.51D-05

 Cycle   8  Pass 1  IDiag  1:
 E= -340.894584122716     Delta-E=       -0.000000002048 Rises=F Damp=F
 DIIS: error= 2.12D-06 at cycle   4 NSaved=   4.
 NSaved= 4 IEnMin= 4 EnMin= -340.894584122716     IErMin= 4 ErrMin= 2.12D-06
 ErrMax= 2.12D-06  0.00D+00 EMaxC= 1.00D-01 BMatC= 1.12D-09 BMatP= 3.80D-09
 IDIUse=1 WtCom= 1.00D+00 WtEn= 0.00D+00
 Coeff-Com: -0.172D-01 0.490D-01 0.449D+00 0.519D+00
 Coeff:     -0.172D-01 0.490D-01 0.449D+00 0.519D+00
 Gap=     0.197 Goal=   None    Shift=    0.000
 RMSDP=2.49D-07 MaxDP=5.71D-06 DE=-2.05D-09 OVMax= 5.19D-06

 Cycle   9  Pass 1  IDiag  1:
 E= -340.894584123610     Delta-E=       -0.000000000895 Rises=F Damp=F
 DIIS: error= 1.13D-07 at cycle   5 NSaved=   5.
 NSaved= 5 IEnMin= 5 EnMin= -340.894584123610     IErMin= 5 ErrMin= 1.13D-07
 ErrMax= 1.13D-07  0.00D+00 EMaxC= 1.00D-01 BMatC= 3.78D-12 BMatP= 1.12D-09
 IDIUse=1 WtCom= 1.00D+00 WtEn= 0.00D+00
 Coeff-Com: -0.570D-02 0.116D-01 0.122D+00 0.153D+00 0.719D+00
 Coeff:     -0.570D-02 0.116D-01 0.122D+00 0.153D+00 0.719D+00
 Gap=     0.197 Goal=   None    Shift=    0.000
 RMSDP=2.53D-08 MaxDP=5.76D-07 DE=-8.95D-10 OVMax= 6.11D-07

 Cycle  10  Pass 1  IDiag  1:
 E= -340.894584123612     Delta-E=       -0.000000000002 Rises=F Damp=F
 DIIS: error= 4.94D-08 at cycle   6 NSaved=   6.
 NSaved= 6 IEnMin= 6 EnMin= -340.894584123612     IErMin= 6 ErrMin= 4.94D-08
 ErrMax= 4.94D-08  0.00D+00 EMaxC= 1.00D-01 BMatC= 1.03D-12 BMatP= 3.78D-12
 IDIUse=1 WtCom= 1.00D+00 WtEn= 0.00D+00
 Coeff-Com: -0.118D-02 0.874D-03 0.164D-01 0.259D-01 0.356D+00 0.603D+00
 Coeff:     -0.118D-02 0.874D-03 0.164D-01 0.259D-01 0.356D+00 0.603D+00
 Gap=     0.197 Goal=   None    Shift=    0.000
 RMSDP=9.78D-09 MaxDP=2.55D-07 DE=-1.82D-12 OVMax= 3.18D-07

 SCF Done:  E(RB3LYP) =  -340.894584124     A.U. after   10 cycles
            NFock= 10  Conv=0.98D-08     -V/T= 2.0087
 KE= 3.379644769449D+02 PE=-1.350055294381D+03 EE= 3.956596663735D+02
 Leave Link  502 at Thu Sep  8 14:52:09 2022, MaxMem= 24159191040 cpu:        40.0
 (Enter /public/home/users/caep010/software/Gaussian09/g09/l701.exe)
 Compute integral first derivatives.
 ... and contract with generalized density number  0.
 Leave Link  701 at Thu Sep  8 14:52:10 2022, MaxMem= 24159191040 cpu:        10.2
 (Enter /public/home/users/caep010/software/Gaussian09/g09/l702.exe)
 L702 exits ... SP integral derivatives will be done elsewhere.
 Leave Link  702 at Thu Sep  8 14:52:10 2022, MaxMem= 24159191040 cpu:         0.5
 (Enter /public/home/users/caep010/software/Gaussian09/g09/l703.exe)
 Compute integral first derivatives, UseDBF=F ICtDFT=           0.
 Integral derivatives from FoFJK, PRISM(SPDF).
 Calling FoFJK, ICntrl=      2127 FMM=F ISym2X=0 I1Cent= 0 IOpClX= 0 NMat=1 NMatS=1 NMatT=0.
 FoFJK:  IHMeth= 1 ICntrl=    2127 DoSepK=F KAlg= 0 I1Cent=   0 FoldK=F
 IRaf=         0 NMat=   1 IRICut=       1 DoRegI=T DoRafI=F ISym2E= 0.
 FoFCou: FMM=F IPFlag=           0 FMFlag=      100000 FMFlg1=         800
         NFxFlg=           0 DoJE=F BraDBF=F KetDBF=F FulRan=T
         wScrn=  0.000000 ICntrl=    2127 IOpCl=  0 I1Cent=           0 NGrid=           0
         NMat0=    1 NMatS0=      1 NMatT0=    0 NMatD0=    1 NMtDS0=    0 NMtDT0=    0
 Symmetry not used in FoFCou.
 Leave Link  703 at Thu Sep  8 14:52:10 2022, MaxMem= 24159191040 cpu:        12.3
 (Enter /public/home/users/caep010/software/Gaussian09/g09/l716.exe)
 Dipole        =-1.60708349D+00 9.36471092D-01 5.97799444D-01
 ***** Axes restored to original set *****
 -------------------------------------------------------------------
 Center     Atomic                   Forces (Hartrees/Bohr)
 Number     Number              X              Y              Z
 -------------------------------------------------------------------
      1        6           0.000258587    0.000247887    0.000193767
      2        6          -0.000317818   -0.001331905    0.000107680
      3        8           0.000309834    0.000002312    0.000252395
      4        8          -0.000601217    0.000208239   -0.000253720
      5        7           0.000257483    0.000954779   -0.000676952
      6        7          -0.000077742   -0.000090922    0.001099774
      7        1           0.000069057    0.000130233    0.000039572
      8        1          -0.000013542   -0.000015944    0.000016071
      9        1           0.000030665    0.000009675   -0.000037593
     10        1          -0.000097035    0.000247270   -0.000203212
     11        1           0.000380032    0.000095922    0.000195487
     12        1          -0.000086897    0.000199059   -0.000209313
     13        1          -0.000144300   -0.000206811    0.000095027
     14        1           0.000032893   -0.000449795   -0.000618982
 -------------------------------------------------------------------
 Cartesian Forces:  Max     0.001331905 RMS     0.000391018
 Leave Link  716 at Thu Sep  8 14:52:10 2022, MaxMem= 24159191040 cpu:         0.5
 (Enter /public/home/users/caep010/software/Gaussian09/g09/l103.exe)

 GradGradGradGradGradGradGradGradGradGradGradGradGradGradGradGradGradGrad
 Berny optimization.
 Using GEDIIS/GDIIS optimizer.
 FormGI is forming the generalized inverse of G from B-inverse, IUseBI=4.
 Internal  Forces:  Max     0.000931801 RMS     0.000246914
 Search for a local minimum.
 Step number   2 out of a maximum of   65
 All quantities printed in internal units (Hartrees-Bohrs-Radians)
 RMS Force = .24691D-03 SwitMx=.10000D-02 MixMth= 2
 Mixed Optimization -- En-DIIS/RFO-DIIS
 Update second derivatives using D2CorX and points    1    2
 DE= -9.44D-05 DEPred=-9.17D-05 R= 1.03D+00
 TightC=F SS=  1.41D+00  RLast= 7.97D-02 DXNew= 5.0454D-01 2.3907D-01
 Trust test= 1.03D+00 RLast= 7.97D-02 DXMaxT set to 3.00D-01
 ITU=  1  0
 Use linear search instead of GDIIS.
     Eigenvalues ---    0.00230   0.00568   0.00655   0.01595   0.01774
     Eigenvalues ---    0.05361   0.05640   0.06147   0.07590   0.09429
     Eigenvalues ---    0.10292   0.11421   0.14776   0.16000   0.16000
     Eigenvalues ---    0.16000   0.16000   0.16000   0.16000   0.16407
     Eigenvalues ---    0.18836   0.19983   0.25655   0.28429   0.34073
     Eigenvalues ---    0.34116   0.34630   0.35352   0.36900   0.41596
     Eigenvalues ---    0.42151   0.43123   0.44879   0.46456   0.53234
     Eigenvalues ---    0.55926
 RFO step:  Lambda=-4.26020458D-05 EMin= 2.30225580D-03
 Quartic linear search produced a step of  0.05039.
 Iteration  1 RMS(Cart)=  0.01379668 RMS(Int)=  0.00013951
 Iteration  2 RMS(Cart)=  0.00013609 RMS(Int)=  0.00000038
 Iteration  3 RMS(Cart)=  0.00000001 RMS(Int)=  0.00000038
 ITry= 1 IFail=0 DXMaxC= 5.59D-02 DCOld= 1.00D+10 DXMaxT= 3.00D-01 DXLimC= 3.00D+00 Rises=F
 Variable       Old X    -DE/DX   Delta X   Delta X   Delta X     New X
                                 (Linear)    (Quad)   (Total)
    R1        2.91289  -0.00055   0.00004  -0.00189  -0.00186   2.91103
    R2        2.07227  -0.00009   0.00004  -0.00013  -0.00009   2.07219
    R3        2.07238   0.00002   0.00002   0.00012   0.00014   2.07252
    R4        2.06264   0.00004  -0.00000   0.00010   0.00010   2.06273
    R5        2.79501   0.00002   0.00032   0.00122   0.00154   2.79655
    R6        2.63485   0.00037   0.00022   0.00161   0.00182   2.63668
    R7        2.68920   0.00006   0.00017   0.00076   0.00093   2.69012
    R8        1.82525  -0.00001   0.00034   0.00120   0.00154   1.82679
    R9        1.83490   0.00037   0.00032   0.00190   0.00223   1.83713
   R10        2.75033   0.00048   0.00040   0.00275   0.00315   2.75348
   R11        1.92666  -0.00005   0.00012   0.00031   0.00044   1.92709
   R12        1.96043   0.00016   0.00018   0.00107   0.00125   1.96168
   R13        1.96156  -0.00056   0.00015  -0.00088  -0.00074   1.96082
    A1        1.93889  -0.00019   0.00006  -0.00121  -0.00115   1.93774
    A2        1.95404   0.00005   0.00003   0.00058   0.00062   1.95466
    A3        1.89907  -0.00000  -0.00003  -0.00003  -0.00006   1.89901
    A4        1.88237   0.00006  -0.00001   0.00021   0.00021   1.88258
    A5        1.89876   0.00007  -0.00004   0.00007   0.00003   1.89879
    A6        1.88939   0.00002  -0.00003   0.00041   0.00039   1.88978
    A7        1.88186   0.00013   0.00003   0.00131   0.00134   1.88320
    A8        1.86261   0.00012  -0.00002   0.00062   0.00061   1.86321
    A9        2.04859   0.00001  -0.00001   0.00046   0.00046   2.04905
   A10        1.92810  -0.00017   0.00011  -0.00111  -0.00100   1.92710
   A11        1.87963  -0.00001  -0.00003  -0.00010  -0.00014   1.87950
   A12        1.86228  -0.00009  -0.00007  -0.00134  -0.00141   1.86087
   A13        1.89076  -0.00044  -0.00000  -0.00290  -0.00290   1.88785
   A14        1.80544  -0.00036  -0.00030  -0.00346  -0.00375   1.80169
   A15        1.85872  -0.00093   0.00016  -0.00334  -0.00319   1.85553
   A16        1.87888  -0.00034  -0.00006  -0.00208  -0.00213   1.87675
   A17        2.02281   0.00000   0.00025   0.00052   0.00077   2.02357
   A18        1.90013   0.00035   0.00027   0.00332   0.00359   1.90372
   A19        1.86525   0.00014  -0.00016   0.00024   0.00008   1.86533
   A20        1.91453   0.00027  -0.00019   0.00193   0.00174   1.91628
   A21        1.88061  -0.00041  -0.00014  -0.00382  -0.00396   1.87665
    D1       -1.03500  -0.00005  -0.00026  -0.00076  -0.00102  -1.03603
    D2       -3.10665   0.00001  -0.00039  -0.00048  -0.00087  -3.10752
    D3        1.08970   0.00004  -0.00028   0.00048   0.00020   1.08990
    D4        1.07071  -0.00007  -0.00020  -0.00094  -0.00114   1.06957
    D5       -1.00094  -0.00001  -0.00033  -0.00065  -0.00098  -1.00192
    D6       -3.08778   0.00002  -0.00022   0.00031   0.00009  -3.08769
    D7       -3.12487  -0.00002  -0.00023  -0.00009  -0.00031  -3.12519
    D8        1.08667   0.00004  -0.00036   0.00020  -0.00016   1.08651
    D9       -1.00017   0.00007  -0.00025   0.00116   0.00091  -0.99926
   D10       -0.72388  -0.00016  -0.00190  -0.02788  -0.02978  -0.75366
   D11        1.30540  -0.00003  -0.00185  -0.02698  -0.02883   1.27657
   D12       -2.95018  -0.00024  -0.00189  -0.02923  -0.03113  -2.98131
   D13       -2.75531  -0.00003  -0.00027  -0.00482  -0.00509  -2.76040
   D14        1.48665  -0.00017  -0.00035  -0.00615  -0.00650   1.48015
   D15       -0.55174  -0.00001  -0.00033  -0.00469  -0.00502  -0.55675
   D16       -1.36262   0.00018  -0.00086   0.01162   0.01077  -1.35185
   D17        0.76324   0.00034  -0.00085   0.01360   0.01275   0.77599
   D18        2.83356   0.00009  -0.00078   0.01154   0.01077   2.84433
   D19       -2.70806  -0.00001  -0.00068   0.01569   0.01501  -2.69305
   D20        1.48872   0.00005  -0.00059   0.01659   0.01600   1.50472
   D21       -0.63375   0.00031  -0.00078   0.01865   0.01786  -0.61589
         Item               Value     Threshold  Converged?
 Maximum Force            0.000932     0.000450     NO 
 RMS     Force            0.000247     0.000300     YES
 Maximum Displacement     0.055923     0.001800     NO 
 RMS     Displacement     0.013801     0.001200     NO 
 Predicted change in Energy=-2.148532D-05
 Lowest energy point so far.  Saving SCF results.
 GradGradGradGradGradGradGradGradGradGradGradGradGradGradGradGradGradGrad

 Leave Link  103 at Thu Sep  8 14:52:10 2022, MaxMem= 24159191040 cpu:         1.4
 (Enter /public/home/users/caep010/software/Gaussian09/g09/l202.exe)
                          Input orientation:                          
 ---------------------------------------------------------------------
 Center     Atomic      Atomic             Coordinates (Angstroms)
 Number     Number       Type             X           Y           Z
 ---------------------------------------------------------------------
      1          6           0       -1.250619   -0.516092   -0.656344
      2          6           0       -0.302094    0.545823   -0.068441
      3          8           0       -0.292948    0.383133    1.402431
      4          8           0       -0.826612    1.790843   -0.417133
      5          7           0        1.050137    0.534633   -0.513238
      6          7           0        1.704396   -0.558870    0.193351
      7          1           0       -0.920303   -1.527883   -0.392526
      8          1           0       -2.278971   -0.393123   -0.295533
      9          1           0       -1.255572   -0.420129   -1.743658
     10          1           0       -1.203408    0.243703    1.695903
     11          1           0       -0.057402    2.381959   -0.353829
     12          1           0        2.699110   -0.340052    0.244345
     13          1           0        1.624124   -1.495934   -0.246047
     14          1           0        1.310262   -0.627911    1.150716
 ---------------------------------------------------------------------
                    Distance matrix (angstroms):
                    1          2          3          4          5
     1  C    0.000000
     2  C    1.540452   0.000000
     3  O    2.442190   1.479870   0.000000
     4  O    2.357743   1.395270   2.361622   0.000000
     5  N    2.533374   1.423552   2.344487   2.260418   0.000000
     6  N    3.075049   2.305403   2.517663   3.507113   1.457076
     7  H    1.096553   2.188029   2.695816   3.320139   2.855027
     8  H    1.096729   2.200280   2.725792   2.625612   3.462815
     9  H    1.091552   2.156047   3.386702   2.613824   2.782409
    10  H    2.472364   2.004134   0.966698   2.645853   3.169134
    11  H    3.148647   1.874224   2.671186   0.972167   2.159784
    12  H    4.054947   3.144811   3.288855   4.172407   2.014477
    13  H    3.064732   2.812585   3.150164   4.103448   2.126983
    14  H    3.136253   2.337453   1.912028   3.588141   2.046440
                    6          7          8          9         10
     6  N    0.000000
     7  H    2.858546   0.000000
     8  H    4.016677   1.772869   0.000000
     9  H    3.540151   1.779068   1.773454   0.000000
    10  H    3.370031   2.753216   2.351213   3.503424   0.000000
    11  H    3.471572   4.004117   3.555256   3.349468   3.175983
    12  H    1.019773   3.862214   5.007552   4.426972   4.204454
    13  H    1.038077   2.548840   4.056204   3.419480   3.846094
    14  H    1.037621   2.857790   3.876771   3.873511   2.715782
                   11         12         13         14
    11  H    0.000000
    12  H    3.919887   0.000000
    13  H    4.228144   1.652920   0.000000
    14  H    3.632283   1.683232   1.674193   0.000000
 Stoichiometry    C2H8N2O2
 Framework group  C1[X(C2H8N2O2)]
 Deg. of freedom    36
 Full point group                 C1      NOp   1
 RotChk:  IX=0 Diff= 1.98D-02
 Largest Abelian subgroup         C1      NOp   1
 Largest concise Abelian subgroup C1      NOp   1
                         Standard orientation:                         
 ---------------------------------------------------------------------
 Center     Atomic      Atomic             Coordinates (Angstroms)
 Number     Number       Type             X           Y           Z
 ---------------------------------------------------------------------
      1          6           0        0.888959    1.323343   -0.457801
      2          6           0        0.402820   -0.078204   -0.042675
      3          8           0        0.109004   -0.046701    1.407392
      4          8           0        1.449423   -0.961919   -0.308099
      5          7           0       -0.745545   -0.596300   -0.705498
      6          7           0       -1.896910    0.068874   -0.109702
      7          1           0        0.127096    2.082888   -0.245467
      8          1           0        1.807318    1.611894    0.067716
      9          1           0        1.094269    1.321329   -1.529868
     10          1           0        0.820981    0.435784    1.848756
     11          1           0        1.002033   -1.822244   -0.377317
     12          1           0       -2.701473   -0.546848   -0.225898
     13          1           0       -2.156337    0.984999   -0.523244
     14          1           0       -1.714801    0.222305    0.900225
 ---------------------------------------------------------------------
 Rotational constants (GHZ):      4.8425486      2.8980299      2.8195817
 Leave Link  202 at Thu Sep  8 14:52:10 2022, MaxMem= 24159191040 cpu:         0.6
 (Enter /public/home/users/caep010/software/Gaussian09/g09/l301.exe)
 Standard basis: 6-31G(d,p) (6D, 7F)
 Ernie: Thresh=  0.10000D-02 Tol=  0.10000D-05 Strict=F.
 There are   130 symmetry adapted cartesian basis functions of A   symmetry.
 There are   130 symmetry adapted basis functions of A   symmetry.
   130 basis functions,   224 primitive gaussians,   130 cartesian basis functions
    25 alpha electrons       25 beta electrons
       nuclear repulsion energy       275.4759478959 Hartrees.
 IExCor=  402 DFT=T Ex+Corr=B3LYP ExCW=0 ScaHFX=  0.200000
 ScaDFX=  0.800000  0.720000  1.000000  0.810000 ScalE2=  1.000000  1.000000
 IRadAn=      0 IRanWt=     -1 IRanGd=            0 ICorTp=0 IEmpDi=  4
 NAtoms=   14 NActive=   14 NUniq=   14 SFac= 1.00D+00 NAtFMM=   60 NAOKFM=F Big=F
 Integral buffers will be    131072 words long.
 Raffenetti 2 integral format.
 Two-electron integral symmetry is turned on.
 Leave Link  301 at Thu Sep  8 14:52:11 2022, MaxMem= 24159191040 cpu:         1.6
 (Enter /public/home/users/caep010/software/Gaussian09/g09/l302.exe)
 NPDir=0 NMtPBC=     1 NCelOv=     1 NCel=       1 NClECP=     1 NCelD=      1
         NCelK=      1 NCelE2=     1 NClLst=     1 CellRange=     0.0.
 One-electron integrals computed using PRISM.
 NBasis=   130 RedAO= T EigKep=  2.33D-03  NBF=   130
 NBsUse=   130 1.00D-06 EigRej= -1.00D+00 NBFU=   130
 Precomputing XC quadrature grid using
 IXCGrd= 4 IRadAn=           0 IRanWt=          -1 IRanGd=           0 AccXCQ= 0.00D+00.
 Generated NRdTot=       0 NPtTot=           0 NUsed=           0 NTot=          32
 NSgBfM=   130   130   130   130   130 MxSgAt=    14 MxSgA2=    14.
 Leave Link  302 at Thu Sep  8 14:52:11 2022, MaxMem= 24159191040 cpu:        11.2
 (Enter /public/home/users/caep010/software/Gaussian09/g09/l303.exe)
 DipDrv:  MaxL=1.
 Leave Link  303 at Thu Sep  8 14:52:11 2022, MaxMem= 24159191040 cpu:         0.6
 (Enter /public/home/users/caep010/software/Gaussian09/g09/l401.exe)
 Initial guess from the checkpoint file:  "B3LYP6-31Gdp.Frag_1095.chk"
 B after Tr=     0.000000   -0.000000    0.000000
         Rot=    0.999973   -0.006721   -0.001672   -0.002403 Ang=  -0.84 deg.
 Guess basis will be translated and rotated to current coordinates.
 JPrj=2 DoOrth=T DoCkMO=T.
 Generating alternative initial guess.
 ExpMin= 1.61D-01 ExpMax= 5.48D+03 ExpMxC= 8.25D+02 IAcc=1 IRadAn=         1 AccDes= 0.00D+00
 Harris functional with IExCor=  402 and IRadAn=       1 diagonalized for initial guess.
 HarFok:  IExCor=  402 AccDes= 0.00D+00 IRadAn=         1 IDoV= 1 UseB2=F ITyADJ=14
 ICtDFT=  3500011 ScaDFX=  1.000000  1.000000  1.000000  1.000000
 FoFCou: FMM=F IPFlag=           0 FMFlag=      100000 FMFlg1=           0
         NFxFlg=           0 DoJE=T BraDBF=F KetDBF=T FulRan=T
         wScrn=  0.000000 ICntrl=     500 IOpCl=  0 I1Cent=   200000004 NGrid=           0
         NMat0=    1 NMatS0=      1 NMatT0=    0 NMatD0=    1 NMtDS0=    0 NMtDT0=    0
 Petite list used in FoFCou.
 Harris En= -340.947413212260    
 Leave Link  401 at Thu Sep  8 14:52:11 2022, MaxMem= 24159191040 cpu:        11.6
 (Enter /public/home/users/caep010/software/Gaussian09/g09/l502.exe)
 Closed shell SCF:
 Using DIIS extrapolation, IDIIS=  1040.
 Integral symmetry usage will be decided dynamically.
[...]

 GradGradGradGradGradGradGradGradGradGradGradGradGradGradGradGradGradGrad
 Berny optimization.
 Red2BG is reusing G-inverse.
 Internal  Forces:  Max     0.000180724 RMS     0.000034537
 Search for a local minimum.
 Step number   1 out of a maximum of    2
 All quantities printed in internal units (Hartrees-Bohrs-Radians)
 Second derivative matrix not updated -- analytic derivatives used.
 ITU=  0
     Eigenvalues ---    0.00247   0.00307   0.00588   0.00755   0.02243
     Eigenvalues ---    0.04465   0.04565   0.06007   0.08061   0.09134
     Eigenvalues ---    0.09467   0.09850   0.12102   0.12190   0.12652
     Eigenvalues ---    0.13725   0.14317   0.14448   0.15052   0.17431
     Eigenvalues ---    0.17974   0.21070   0.23206   0.26979   0.27628
     Eigenvalues ---    0.32957   0.33615   0.33805   0.34955   0.36444
     Eigenvalues ---    0.38698   0.40304   0.44199   0.51064   0.52535
     Eigenvalues ---    0.64224
 Angle between quadratic step and forces=  60.38 degrees.
 Linear search not attempted -- first point.
 Iteration  1 RMS(Cart)=  0.00075213 RMS(Int)=  0.00000047
 Iteration  2 RMS(Cart)=  0.00000049 RMS(Int)=  0.00000003
 ITry= 1 IFail=0 DXMaxC= 2.55D-03 DCOld= 1.00D+10 DXMaxT= 3.00D-01 DXLimC= 3.00D+00 Rises=F
 Variable       Old X    -DE/DX   Delta X   Delta X   Delta X     New X
                                 (Linear)    (Quad)   (Total)
    R1        2.90967   0.00008   0.00000   0.00045   0.00045   2.91012
    R2        2.07184   0.00002   0.00000   0.00007   0.00007   2.07192
    R3        2.07225   0.00002   0.00000   0.00006   0.00006   2.07232
    R4        2.06287  -0.00001   0.00000  -0.00005  -0.00005   2.06282
    R5        2.79477  -0.00018   0.00000  -0.00143  -0.00143   2.79334
    R6        2.63720  -0.00006   0.00000   0.00003   0.00003   2.63722
    R7        2.68988  -0.00003   0.00000   0.00005   0.00005   2.68994
    R8        1.82530   0.00000   0.00000   0.00000   0.00000   1.82530
    R9        1.83588  -0.00006   0.00000  -0.00013  -0.00013   1.83575
   R10        2.75514  -0.00006   0.00000  -0.00035  -0.00035   2.75479
   R11        1.92630  -0.00001   0.00000  -0.00003  -0.00003   1.92627
   R12        1.96056  -0.00001   0.00000   0.00006   0.00006   1.96062
   R13        1.95918  -0.00002   0.00000  -0.00011  -0.00011   1.95907
    A1        1.93715   0.00000   0.00000   0.00004   0.00004   1.93719
    A2        1.95479   0.00001   0.00000   0.00003   0.00003   1.95482
    A3        1.89989   0.00000   0.00000   0.00004   0.00004   1.89993
    A4        1.88151  -0.00001   0.00000  -0.00018  -0.00018   1.88133
    A5        1.89918  -0.00000   0.00000   0.00004   0.00004   1.89922
    A6        1.89006  -0.00001   0.00000   0.00002   0.00002   1.89008
    A7        1.88275   0.00001   0.00000   0.00031   0.00031   1.88306
    A8        1.86380  -0.00003   0.00000  -0.00040  -0.00040   1.86340
    A9        2.04867  -0.00001   0.00000  -0.00031  -0.00031   2.04837
   A10        1.92631   0.00001   0.00000   0.00025   0.00025   1.92657
   A11        1.87967   0.00000   0.00000   0.00020   0.00020   1.87987
   A12        1.86166   0.00001   0.00000  -0.00004  -0.00004   1.86162
   A13        1.88562   0.00006   0.00000   0.00051   0.00051   1.88613
   A14        1.80284   0.00002   0.00000   0.00024   0.00024   1.80308
   A15        1.85500  -0.00003   0.00000   0.00002   0.00002   1.85502
   A16        1.87561  -0.00004   0.00000  -0.00033  -0.00033   1.87528
   A17        2.02192   0.00000   0.00000   0.00006   0.00006   2.02198
   A18        1.90461   0.00004   0.00000   0.00069   0.00069   1.90529
   A19        1.86664   0.00002   0.00000   0.00006   0.00006   1.86670
   A20        1.91584   0.00002   0.00000   0.00007   0.00007   1.91592
   A21        1.87767  -0.00003   0.00000  -0.00056  -0.00056   1.87711
    D1       -1.03579   0.00000   0.00000   0.00002   0.00002  -1.03578
    D2       -3.10644  -0.00000   0.00000  -0.00023  -0.00023  -3.10667
    D3        1.08973   0.00001   0.00000   0.00032   0.00032   1.09006
    D4        1.06811  -0.00000   0.00000  -0.00016  -0.00016   1.06795
    D5       -1.00254  -0.00001   0.00000  -0.00041  -0.00041  -1.00295
    D6       -3.08955   0.00000   0.00000   0.00014   0.00014  -3.08940
    D7       -3.12563   0.00000   0.00000  -0.00009  -0.00009  -3.12572
    D8        1.08690  -0.00001   0.00000  -0.00033  -0.00033   1.08657
    D9       -1.00011   0.00001   0.00000   0.00022   0.00022  -0.99989
   D10       -0.77173   0.00001   0.00000  -0.00083  -0.00083  -0.77256
   D11        1.25852  -0.00001   0.00000  -0.00099  -0.00099   1.25753
   D12       -2.99874   0.00001   0.00000  -0.00078  -0.00078  -2.99952
   D13       -2.76650   0.00001   0.00000  -0.00007  -0.00007  -2.76657
   D14        1.47466   0.00000   0.00000  -0.00035  -0.00035   1.47431
   D15       -0.56248  -0.00001   0.00000  -0.00070  -0.00070  -0.56318
   D16       -1.35477  -0.00001   0.00000   0.00003   0.00003  -1.35474
   D17        0.77235   0.00000   0.00000   0.00039   0.00039   0.77274
   D18        2.84028   0.00003   0.00000   0.00077   0.00077   2.84105
   D19       -2.71473  -0.00001   0.00000  -0.00158  -0.00158  -2.71632
   D20        1.48324  -0.00000   0.00000  -0.00146  -0.00146   1.48178
   D21       -0.63825   0.00001   0.00000  -0.00130  -0.00130  -0.63955
         Item               Value     Threshold  Converged?
 Maximum Force            0.000181     0.000450     YES
 RMS     Force            0.000035     0.000300     YES
 Maximum Displacement     0.002553     0.001800     NO 
 RMS     Displacement     0.000752     0.001200     YES
 Predicted change in Energy=-2.420967D-07
 GradGradGradGradGradGradGradGradGradGradGradGradGradGradGradGradGradGrad

 Leave Link  103 at Thu Sep  8 14:52:37 2022, MaxMem= 24159191040 cpu:         1.1
 (Enter /public/home/users/caep010/software/Gaussian09/g09/l9999.exe)
 1\1\GINC-B1521\Freq\RB3LYP\6-31G(d,p)\C2H8N2O2\ROOT\08-Sep-2022\0\\#P 
 Geom=AllCheck Guess=TCheck SCRF=Check GenChk RB3LYP/6-31G(d,p) Freq\\F
 rag_1095\\0,1\C,-1.2491624364,-0.5169850588,-0.659815275\C,-0.30237109
 29,0.5438485594,-0.0690594844\O,-0.2943830447,0.3772147596,1.400428948
 6\O,-0.8278725182,1.7898643518,-0.4137849432\N,1.0500257037,0.53419755
 37,-0.5129835742\N,1.7050774857,-0.5587461372,0.1955484323\H,-0.917789
 636,-1.5286932683,-0.3977645472\H,-2.2774493043,-0.3968220708,-0.29830
 06475\H,-1.2545354095,-0.4188263786,-1.7470033704\H,-1.2066998546,0.25
 2864238,1.6922988366\H,-0.0615087996,2.3827817917,-0.3433577161\H,2.70
 18857647,-0.3480943218,0.228420406\H,1.6084684471,-1.4983104628,-0.233
 7081882\H,1.3264156951,-0.614192556,1.1590801229\\Version=ES64L-G09Rev
 E.01\State=1-A\HF=-340.8946034\RMSD=1.363e-09\RMSF=6.019e-05\ZeroPoint
 =0.1178953\Thermal=0.1251454\Dipole=0.9487247,-1.5076929,0.7716734\Dip
 oleDeriv=-0.0663552,-0.0996303,-0.0884399,-0.1219006,-0.0338185,-0.074
 959,-0.0322261,-0.0871143,-0.0203443,1.1976657,-0.1657246,0.1239976,0.
 100712,1.0876066,-0.0334036,-0.1153444,-0.0003111,1.2958437,-0.4919087
 ,0.0755388,-0.031207,-0.0128405,-0.5897608,-0.0695811,0.0896892,0.0055
 635,-1.1677348,-0.5416164,0.336471,-0.087577,0.1863061,-0.9473194,0.19
 75856,0.0200561,0.0857341,-0.5535573,-0.8590668,0.0249759,0.0583135,-0
 .2417329,-0.4165452,-0.2415982,0.1288524,-0.1091697,-0.543738,-0.08779
 86,0.0033815,0.0376228,-0.0760947,0.2937519,0.1336005,0.068855,0.02875
 23,-0.0335975,0.0063937,0.0827526,-0.0245145,0.0451304,-0.1625717,0.03
 57771,-0.0193402,0.058637,0.0265849,-0.1918091,0.0038708,0.046109,-0.0
 172735,0.0422524,-0.0232871,0.0714184,-0.0128035,0.0161345,0.0555005,-
 0.0093767,0.0004887,0.0046965,0.0538485,0.0073495,-0.0143778,-0.003479
 8,-0.1181947,0.0608587,-0.0135469,0.0445099,0.0022217,0.2949805,0.0413
 798,0.0121845,0.0252021,0.2909654,0.2191085,-0.1700587,-0.0230161,-0.0
 79483,0.3161812,-0.0298212,-0.0561722,-0.0263708,0.2877212,0.1568436,0
 .0093814,-0.0151758,0.0392967,0.1802881,0.0018116,-0.0021563,-0.017606
 5,0.2218913,0.1614376,0.0170686,-0.0108711,0.1932904,-0.2534976,-0.019
 1998,-0.0130525,-0.0237689,0.1555067,0.3807464,-0.0951035,-0.03024,-0.
 0223286,0.1346039,0.0743459,-0.1383862,0.0767357,0.1425189\Polar=52.34
 36557,-4.5241496,47.6846538,-0.0046792,-2.5967893,39.7372924\PG=C01 [X
 (C2H8N2O2)]\NImag=0\\0.52549759,-0.04939932,0.52636348,-0.03079664,-0.
 03724670,0.57629568,-0.10407981,-0.02850440,-0.01884886,0.54889498,-0.
 04078403,-0.12055879,-0.02868459,0.00861559,0.55243149,-0.02536865,-0.
 03030602,-0.08401975,0.01555041,0.00079277,0.35560275,0.00351313,-0.00
 089373,-0.02387049,-0.09717264,-0.00506366,0.00707937,0.58852326,-0.00
 170076,0.00446966,-0.02221592,0.00093231,-0.06171334,-0.01019850,0.052
 22112,0.07468543,-0.00258335,0.00195161,-0.04328229,-0.04503452,-0.026
 38875,-0.08679780,-0.12473480,-0.02875455,0.26915055,0.00888790,-0.021
 01362,0.00205370,-0.12172022,0.01145586,-0.00727942,0.00778205,0.00647
 748,-0.00888553,0.47485506,0.00886121,-0.04544190,0.00559713,0.0602881
 5,-0.20160900,0.01820401,0.00979152,-0.01190382,0.03423095,0.13229039,
 0.47430425,0.00189647,-0.00785752,0.00457672,-0.01744655,0.02270887,-0
 .07787688,-0.01907191,0.04475425,-0.02568033,0.06564483,-0.04329524,0.
 09656019,-0.04001979,-0.00349643,0.00989325,-0.20787873,-0.03177900,0.
 06279222,-0.01565436,-0.00456658,0.03446882,-0.03158897,0.01980282,-0.
 00465244,0.39917942,-0.02155363,0.00807601,0.00681482,0.00559056,-0.08
 496767,0.00855350,0.00200490,0.00558121,0.00021246,0.04456704,-0.01434
 354,-0.00107232,-0.04017643,0.19875546,-0.00593381,0.00340534,0.006901
 10,0.01545153,0.01655020,-0.08166942,0.04637628,0.00606860,-0.02899434
 ,-0.01152165,0.00604267,0.00648541,-0.06097511,-0.07787963,0.18720013,
 0.00131298,-0.00115318,-0.00028156,-0.03131957,0.04448275,-0.02650510,
 -0.01387382,0.00816571,0.00234548,-0.00919269,0.00686296,0.00392450,-0
 .09577136,-0.01694695,0.02289440,0.71177883,-0.00565866,0.00283792,0.0
 0273484,0.01011319,-0.02370897,-0.00152590,0.00309533,-0.00031560,0.00
 419353,0.01003732,-0.00065073,-0.00329844,0.01398369,-0.06495320,-0.00
 131013,0.10531810,0.45858287,0.00218276,0.00004939,-0.00010558,0.00376
 111,-0.00458645,-0.00930892,0.01027456,0.00122275,-0.00248571,0.003786
 07,-0.00197278,0.00826795,-0.02365001,0.03204507,-0.07762668,-0.085382
 40,0.11035398,0.57338224,-0.07387247,0.07334510,-0.01987019,0.00795340
 ,-0.01680132,0.00585945,0.00008606,0.00064894,0.00151600,-0.00189327,-
 0.00447002,-0.00105469,0.00127460,0.00198092,0.00061390,-0.00092101,-0
 .00022291,-0.00033031,0.07757360,0.07292775,-0.26596299,0.05655963,0.0
 1303672,-0.01748857,0.00972313,-0.00057950,0.00305666,-0.00054745,-0.0
 0512895,-0.00498861,-0.00147668,0.00002429,0.00083371,0.00038457,0.000
 16428,0.00016289,-0.00046755,-0.08094057,0.29059128,-0.01996301,0.0583
 8708,-0.06336760,0.00596032,-0.01119107,0.00104903,-0.00002254,0.00056
 546,0.00066218,-0.00182978,-0.00228451,0.00070726,0.00098180,0.0009584
 1,-0.00000501,-0.00046240,0.00059306,0.00017536,0.02300486,-0.06402164
 ,0.06340302,-0.27439760,0.02902037,0.08069050,-0.01758901,0.00681841,0
 .01112834,0.00248944,-0.00007568,-0.00051639,0.00231037,0.00081087,-0.
 00061702,-0.00452881,-0.00493078,-0.00316096,0.00108197,-0.00244889,0.
 00059542,-0.00834717,0.00081389,0.00294534,0.29805626,0.02932562,-0.05
 145767,-0.01196801,-0.01907504,0.00599573,0.01026499,0.00177408,-0.000
 06011,0.00132257,0.00101193,0.00106286,-0.00027716,-0.00650885,-0.0034
 3434,-0.00175346,0.00076922,-0.00182308,0.00050103,0.02854930,-0.00323
 868,-0.01084544,-0.03150259,0.05084379,0.08045176,-0.01124725,-0.07867
 227,-0.01181314,0.00317270,0.00306697,0.00087650,0.00032150,0.00082707
 ,0.00057520,0.00119245,-0.00009087,-0.00286180,-0.00199608,0.00114951,
 0.00021193,-0.00040258,0.00047103,-0.00869543,0.00070879,0.00199878,-0
 .08905368,0.01271537,0.08079715,-0.04725139,0.00002210,0.00271362,0.00
 001384,0.00374851,-0.01971896,-0.00192121,-0.00371815,-0.00506605,0.00
 026551,0.00104147,0.00079095,0.00144865,0.00092326,0.00121966,-0.00039
 719,0.00051417,0.00010313,-0.00116959,0.00038189,-0.01077530,0.0012171
 3,-0.00334340,0.03083181,0.04796917,0.00030379,-0.05012679,0.02859482,
 0.00183712,0.00285577,-0.02244579,-0.00374872,-0.00186724,-0.00562268,
 -0.00013197,0.00032260,0.00074974,0.00159985,0.00032608,0.00093647,0.0
 0004506,0.00004758,0.00017684,-0.00077759,-0.00159510,0.02988698,-0.00
 012796,-0.00042560,-0.00462986,0.00089090,0.05074878,-0.00033394,0.025
 71407,-0.31983378,0.00207774,0.00409039,-0.01442895,-0.00281528,-0.003
 05436,-0.00227055,0.00041731,0.00021460,0.00189675,0.00084865,0.000575
 97,0.00197597,-0.00024466,0.00025446,0.00014315,0.00010786,0.00016975,
 -0.00480441,-0.00054246,0.00090642,-0.00853068,0.00029380,-0.02873691,
 0.34488244,0.00154890,0.00010257,-0.00294109,-0.00245103,-0.00120004,-
 0.00139438,-0.47018739,-0.05971252,0.14372394,0.00015487,0.00096639,-0
 .00152921,0.00073354,0.00211213,0.00121156,0.00063242,-0.00169548,0.00
 280465,-0.00017737,0.00019499,0.00029099,-0.00019445,-0.00002332,-0.00
 076857,-0.00063673,-0.00043589,-0.00054921,0.46956901,-0.00012499,-0.0
 0046856,-0.00049775,-0.00433025,0.00048196,-0.00025153,-0.05880070,-0.
 01185041,0.02462684,0.00130026,-0.00139868,-0.00107884,-0.00008196,0.0
 0073288,0.00305117,0.00352116,-0.00085966,-0.00293000,0.00028554,-0.00
 071312,-0.00051470,-0.00038569,0.00054799,-0.00044211,0.00000919,-0.00
 012485,0.00045245,0.06206380,0.01208732,0.00021133,-0.00108958,0.00077
 080,0.04108626,0.00519944,-0.00769708,0.10013825,0.01838224,-0.0764552
 2,-0.00262330,-0.00040677,0.00134231,0.00351653,-0.00070759,-0.0107931
 1,-0.00231716,0.00343860,0.00041928,-0.00019798,0.00010571,-0.00011633
 ,-0.00199826,-0.00065288,-0.00078663,-0.00012335,0.00070721,0.00099750
 ,-0.13979123,-0.02232779,0.09197091,-0.00104372,0.00162368,0.00078925,
 0.01648574,0.00695718,-0.00022399,-0.00241069,0.00207456,-0.00110319,-
 0.32672270,-0.23393342,-0.03162976,0.00076394,0.00057709,0.00051559,-0
 .00302022,0.00092324,-0.00105087,0.00057612,0.00094282,0.00006045,-0.0
 0038526,0.00012382,-0.00011034,0.00001764,0.00013262,0.00001161,-0.000
 38294,-0.00056756,0.00030873,0.31493825,0.00397603,-0.00641524,0.00275
 782,-0.03724411,-0.04519789,-0.00302237,0.00098548,0.00199933,-0.00034
 461,-0.18624954,-0.19531806,-0.00832584,-0.00172229,0.00094702,-0.0003
 9560,-0.00077412,0.00331008,0.00000397,-0.00133035,-0.00144891,-0.0008
 2668,0.00014623,0.00044133,0.00026290,0.00011139,0.00024337,-0.0000926
 1,0.00011692,-0.00004573,-0.00011034,0.22285845,0.23926858,0.00005279,
 -0.00121550,0.00146032,0.00711452,0.01104891,0.00483143,-0.00021086,-0
 .00062158,-0.00162711,-0.03821288,-0.01860392,-0.01467321,0.00017187,-
 0.00332592,-0.00169997,-0.00042663,0.00185963,-0.00206530,-0.00039515,
 -0.00066888,0.00023641,-0.00012222,0.00005287,-0.00010905,0.00010627,0
 .00024141,0.00021448,0.00032152,0.00004390,0.00006377,0.03233276,0.010
 53113,0.01311984,0.00049272,-0.00026167,-0.00002838,-0.00080798,0.0015
 5596,-0.00346983,0.00001724,-0.00003039,-0.00045319,0.00007389,0.00047
 276,0.00022435,-0.01281775,0.00783067,-0.00091742,-0.39529550,-0.09026
 075,-0.00071546,-0.00017977,-0.00017623,-0.00003117,0.00020539,-0.0000
 7656,0.00011267,-0.00002537,0.00007137,0.00006069,0.00005486,0.0001802
 4,0.00002747,-0.00016280,0.00020770,-0.00004617,0.41963167,0.00025926,
 -0.00040546,-0.00020216,0.00137673,-0.00298197,0.00633588,-0.00002537,
 -0.00004290,-0.00002523,0.00162262,-0.00128762,-0.00059647,0.03129431,
 -0.00063886,0.00012966,-0.08524317,-0.06737618,-0.00846600,0.00001624,
 0.00038561,-0.00008595,0.00015501,0.00035309,-0.00007737,-0.00005078,-
 0.00001649,-0.00006156,0.00000060,-0.00006435,0.00000301,0.00010910,0.
 00023100,0.00014092,0.08508357,0.08061805,0.00021042,-0.00018126,0.000
 25616,-0.00028637,0.00232632,-0.00564224,0.00255343,-0.00161347,-0.000
 24230,-0.00068757,0.00053890,0.00066936,-0.01892645,0.00063686,0.00132
 059,-0.00362115,-0.00767466,-0.05684696,-0.00003734,0.00004889,-0.0001
 0295,-0.00000730,0.00003082,0.00007343,-0.00004396,0.00005382,0.000035
 77,0.00018370,-0.00047286,0.00001745,-0.00007764,0.00004417,0.00010273
 ,0.00775008,0.00318155,0.05286357,0.00038550,0.00064538,-0.00125203,0.
 00484538,0.00616611,0.00120608,-0.00140197,-0.00103258,0.00006348,-0.0
 0263817,-0.00042184,-0.00057378,0.00309535,0.01571016,0.00565870,-0.06
 873020,-0.03073507,-0.00971499,-0.00085669,-0.00143584,0.00013622,0.00
 067079,-0.00078659,0.00029534,-0.00007540,0.00004810,0.00006410,-0.000
 13830,0.00035657,0.00009886,0.00048643,-0.00084581,-0.00002227,-0.0030
 4972,-0.03409073,-0.01999305,0.06315491,0.00343645,-0.00133531,-0.0011
 3062,-0.00899307,-0.00260390,0.00405824,-0.00020138,0.00118796,-0.0022
 0355,0.00350583,0.00047225,0.00086968,0.01917155,-0.03588555,0.0162079
 5,-0.04782007,-0.25125304,-0.13154666,-0.00022897,0.00058120,-0.000477
 33,0.00133331,0.00106098,0.00039757,-0.00032320,0.00004111,-0.00008985
 ,-0.00028980,0.00015715,-0.00023097,-0.00139557,0.00180384,-0.00009725
 ,-0.00283168,-0.00773575,-0.00657578,0.03355775,0.29095004,0.00011585,
 -0.00060951,-0.00009359,0.00249362,0.00260405,0.00060229,0.00160258,-0
 .00030708,-0.00058273,-0.00203427,0.00018962,-0.00039017,0.00446861,0.
 01433620,0.01663593,-0.01625215,-0.10808582,-0.12422023,-0.00019374,-0
 .00001710,0.00018377,0.00026958,-0.00012506,-0.00025473,-0.00031030,0.
 00024480,-0.00023697,-0.00016199,-0.00034855,0.00051768,0.00046352,-0.
 00060781,-0.00001130,0.00064319,0.00021652,-0.00051520,0.01818906,0.12
 425713,0.12095502,-0.00097393,-0.00003685,0.00174891,0.00482564,0.0058
 2768,-0.01965556,0.00021089,0.00031654,0.00625929,-0.00057363,-0.00236
 327,0.00409426,0.00176427,0.00231105,-0.01143269,-0.09628463,-0.012963
 29,0.09733636,-0.00004644,-0.00022553,-0.00029578,-0.00058906,-0.00023
 760,-0.00005223,0.00054494,0.00029331,0.00060381,0.00147461,-0.0034256
 1,0.00166386,0.00086019,-0.00023600,-0.00066354,-0.00813688,-0.0005073
 8,0.03298320,0.00425209,0.00107885,-0.00929355,0.09267194,0.00013128,0
 .00042564,-0.00111332,-0.00364351,-0.00093484,0.00981758,-0.00055937,-
 0.00322685,-0.00265114,0.00025535,0.00078001,-0.00180403,0.00245502,-0
 .01102919,0.02856219,-0.01739173,-0.05400087,0.00561640,-0.00005433,-0
 .00017537,-0.00014367,0.00037350,0.00013371,0.00002397,-0.00020736,-0.
 00042923,-0.00034282,-0.00220034,0.00151807,-0.00231029,-0.00042602,0.
 00018127,0.00061427,-0.00176500,-0.00103816,0.00965671,0.01286440,0.00
 255901,-0.03174739,0.01016810,0.06523680,-0.00014199,0.00024584,-0.000
 88590,-0.00006605,0.00235721,0.00228860,0.00182491,-0.00454933,-0.0022
 2142,0.00059729,0.00035289,-0.00179449,-0.00607594,0.02084825,-0.02088
 011,0.10611690,-0.00113056,-0.31019965,-0.00032723,-0.00050117,-0.0000
 1950,0.00038909,-0.00017207,0.00006030,-0.00002133,-0.00015684,-0.0000
 4071,-0.00140067,0.00068976,-0.00025132,-0.00028611,0.00012588,0.00015
 697,-0.00315683,-0.00049280,0.00801060,0.00584429,-0.00343858,-0.01258
 979,-0.10329634,-0.01417846,0.33836644\\0.00002769,0.00000691,0.000068
 20,-0.00009667,-0.00008319,-0.00025434,0.00002622,-0.00001435,0.000209
 78,-0.00006475,0.00003967,-0.00000121,-0.00002238,0.00002698,-0.000001
 91,0.00003401,-0.00004576,0.00000260,0.00000262,0.00001590,-0.00000066
 ,0.00002022,0.00001160,-0.00000479,0.00000499,-0.00000266,-0.00001137,
 -0.00000885,0.00001392,-0.00003479,0.00005818,0.00002345,-0.00000724,0
 .00001027,-0.00002567,0.00002468,0.00001271,-0.00000884,-0.00001282,-0
 .00000427,0.00004205,0.00002387\\\@


 THOSE WHO ASPIRE NOT TO GUESS AND DIVINE,
 BUT TO DISCOVER AND KNOW, WHO PROPOSE NOT TO DEVISE 
 MIMIC AND FABULOUS WORLDS OF THEIR OWN, BUT TO 
 EXAMINE AND DISSECT THE NATURE OF THIS VERY WORLD 
 ITSELF, MUST GO TO THE FACTS THEMSELVES FOR EVERYTHING.

                               -- FRANCIS BACON, 1620
 Job cpu time:       0 days  0 hours  5 minutes 27.2 seconds.
 File lengths (MBytes):  RWF=     31 Int=      0 D2E=      0 Chk=      2 Scr=      1
 Normal termination of Gaussian 09 at Thu Sep  8 14:52:37 2022.
