 Entering Gaussian System, Link 0=g09
 Input=B3LYP6-31Gxx.Frag_273.gjf
 Output=B3LYP6-31Gxx.Frag_273.log
 Initial command:
 /public/home/users/caep010/software/Gaussian09/g09/l1.exe "/public/home/users/caep010/.cache/gau_scr/Gau-182323.inp" -scrdir="/public/home/users/caep010/.cache/gau_scr/"
 Entering Link 1 = /public/home/users/caep010/software/Gaussian09/g09/l1.exe PID=    182324.
  
 Copyright (c) 1988,1990,1992,1993,1995,1998,2003,2009,2015,
            Gaussian, Inc.  All Rights Reserved.
  
 This is part of the Gaussian(R) 09 program.  It is based on
 the Gaussian(R) 03 system (copyright 2003, Gaussian, Inc.),
 the Gaussian(R) 98 system (copyright 1998, Gaussian, Inc.),
 the Gaussian(R) 94 system (copyright 1995, Gaussian, Inc.),
 the Gaussian 92(TM) system (copyright 1992, Gaussian, Inc.),
 the Gaussian 90(TM) system (copyright 1990, Gaussian, Inc.),
 the Gaussian 88(TM) system (copyright 1988, Gaussian, Inc.),
 the Gaussian 86(TM) system (copyright 1986, Carnegie Mellon
 University), and the Gaussian 82(TM) system (copyright 1983,
 Carnegie Mellon University). Gaussian is a federally registered
 trademark of Gaussian, Inc.
  
 This software contains proprietary and confidential information,
 including trade secrets, belonging to Gaussian, Inc.
  
 This software is provided under written license and may be
 used, copied, transmitted, or stored only in accord with that
 written license.
  
 The following legend is applicable only to US Government
 contracts under FAR:
  
                    RESTRICTED RIGHTS LEGEND
  
 Use, reproduction and disclosure by the US Government is
 subject to restrictions as set forth in subparagraphs (a)
 and (c) of the Commercial Computer Software - Restricted
 Rights clause in FAR 52.227-19.
  
 Gaussian, Inc.
 340 Quinnipiac St., Bldg. 40, Wallingford CT 06492
  
  
 ---------------------------------------------------------------
 Warning -- This program may not be used in any manner that
 competes with the business of Gaussian, Inc. or will provide
 assistance to any competitor of Gaussian, Inc.  The licensee
 of this program is prohibited from giving any competitor of
 Gaussian, Inc. access to this program.  By using this program,
 the user acknowledges that Gaussian, Inc. is engaged in the
 business of creating and licensing software in the field of
 computational chemistry and represents and warrants to the
 licensee that it is not a competitor of Gaussian, Inc. and that
 it will not use this program in any manner prohibited above.
 ---------------------------------------------------------------
  

 Cite this work as:
 Gaussian 09, Revision E.01,
 M. J. Frisch, G. W. Trucks, H. B. Schlegel, G. E. Scuseria, 
 M. A. Robb, J. R. Cheeseman, G. Scalmani, V. Barone, B. Mennucci, 
 G. A. Petersson, H. Nakatsuji, M. Caricato, X. Li, H. P. Hratchian, 
 A. F. Izmaylov, J. Bloino, G. Zheng, J. L. Sonnenberg, M. Hada, 
 M. Ehara, K. Toyota, R. Fukuda, J. Hasegawa, M. Ishida, T. Nakajima, 
 Y. Honda, O. Kitao, H. Nakai, T. Vreven, J. A. Montgomery, Jr., 
 J. E. Peralta, F. Ogliaro, M. Bearpark, J. J. Heyd, E. Brothers, 
 K. N. Kudin, V. N. Staroverov, T. Keith, R. Kobayashi, J. Normand, 
 K. Raghavachari, A. Rendell, J. C. Burant, S. S. Iyengar, J. Tomasi, 
 M. Cossi, N. Rega, J. M. Millam, M. Klene, J. E. Knox, J. B. Cross, 
 V. Bakken, C. Adamo, J. Jaramillo, R. Gomperts, R. E. Stratmann, 
 O. Yazyev, A. J. Austin, R. Cammi, C. Pomelli, J. W. Ochterski, 
 R. L. Martin, K. Morokuma, V. G. Zakrzewski, G. A. Voth, 
 P. Salvador, J. J. Dannenberg, S. Dapprich, A. D. Daniels, 
 O. Farkas, J. B. Foresman, J. V. Ortiz, J. Cioslowski, 
 and D. J. Fox, Gaussian, Inc., Wallingford CT, 2013.
 
 ******************************************
 Gaussian 09:  ES64L-G09RevE.01 30-Nov-2015
                21-Aug-2021 
 ******************************************
 %nproc=32
 Will use up to   32 processors via shared memory.
 %mem=180GB
 -------------------------
 #P OPT Freq B3LYP/6-31G**
 -------------------------
 1/14=-1,18=20,19=15,26=3,38=1/1,3;
 2/9=110,12=2,17=6,18=5,40=1/2;
 3/5=1,6=6,7=101,11=2,16=1,25=1,30=1,71=1,74=-5/1,2,3;
 4//1;
 5/5=2,38=5/2;
 6/7=2,8=2,9=2,10=2,28=1/1;
 7//1,2,3,16;
 1/14=-1,18=20,19=15,26=3/3(2);
 2/9=110/2;
 99//99;
 2/9=110/2;
 3/5=1,6=6,7=101,11=2,16=1,25=1,30=1,71=1,74=-5/1,2,3;
 4/5=5,16=3,69=1/1;
 5/5=2,38=5/2;
 7//1,2,3,16;
 1/14=-1,18=20,19=15,26=3/3(-5);
 2/9=110/2;
 6/7=2,8=2,9=2,10=2,19=2,28=1/1;
 99/9=1/99;
 Leave Link    1 at Sat Aug 21 01:32:45 2021, MaxMem= 24159191040 cpu:         2.9
 (Enter /public/home/users/caep010/software/Gaussian09/g09/l101.exe)
 --------
 Frag_273
 --------
 Symbolic Z-matrix:
 Charge =  0 Multiplicity = 1
 C                    -0.8169    1.3381   -0.259 
 C                     0.0435    0.0995    0.0023 
 C                     1.5328    0.2971    0.2949 
 C                    -0.6381   -1.0561    0.7221 
 C                    -0.3312   -1.1576   -0.7705 
 H                    -0.7803    2.0067    0.6263 
 H                    -1.8778    1.0738   -0.4584 
 H                    -0.4185    1.8856   -1.1386 
 H                     2.0548   -0.6686    0.4687 
 H                     1.6508    0.9296    1.1994 
 H                     2.0136    0.8081   -0.5653 
 H                    -1.7186   -0.9243    0.9447 
 H                     0.0171   -1.6934    1.3538 
 H                    -1.2335   -1.0847   -1.4147 
 H                     0.5022   -1.8537   -1.0056 
 
 NAtoms=     15 NQM=       15 NQMF=       0 NMMI=      0 NMMIF=      0
                NMic=       0 NMicF=      0.
                    Isotopes and Nuclear Properties:
 (Nuclear quadrupole moments (NQMom) in fm**2, nuclear magnetic moments (NMagM)
  in nuclear magnetons)

  Atom         1           2           3           4           5           6           7           8           9          10
 IAtWgt=          12          12          12          12          12           1           1           1           1           1
 AtmWgt=  12.0000000  12.0000000  12.0000000  12.0000000  12.0000000   1.0078250   1.0078250   1.0078250   1.0078250   1.0078250
 NucSpn=           0           0           0           0           0           1           1           1           1           1
 AtZEff=   0.0000000   0.0000000   0.0000000   0.0000000   0.0000000   0.0000000   0.0000000   0.0000000   0.0000000   0.0000000
 NQMom=    0.0000000   0.0000000   0.0000000   0.0000000   0.0000000   0.0000000   0.0000000   0.0000000   0.0000000   0.0000000
 NMagM=    0.0000000   0.0000000   0.0000000   0.0000000   0.0000000   2.7928460   2.7928460   2.7928460   2.7928460   2.7928460
 AtZNuc=   6.0000000   6.0000000   6.0000000   6.0000000   6.0000000   1.0000000   1.0000000   1.0000000   1.0000000   1.0000000

  Atom        11          12          13          14          15
 IAtWgt=           1           1           1           1           1
 AtmWgt=   1.0078250   1.0078250   1.0078250   1.0078250   1.0078250
 NucSpn=           1           1           1           1           1
 AtZEff=   0.0000000   0.0000000   0.0000000   0.0000000   0.0000000
 NQMom=    0.0000000   0.0000000   0.0000000   0.0000000   0.0000000
 NMagM=    2.7928460   2.7928460   2.7928460   2.7928460   2.7928460
 AtZNuc=   1.0000000   1.0000000   1.0000000   1.0000000   1.0000000
 Leave Link  101 at Sat Aug 21 01:32:45 2021, MaxMem= 24159191040 cpu:        10.3
 (Enter /public/home/users/caep010/software/Gaussian09/g09/l103.exe)

 GradGradGradGradGradGradGradGradGradGradGradGradGradGradGradGradGradGrad
 Berny optimization.
 Initialization pass.
                           ----------------------------
                           !    Initial Parameters    !
                           ! (Angstroms and Degrees)  !
 --------------------------                            --------------------------
 ! Name  Definition              Value          Derivative Info.                !
 --------------------------------------------------------------------------------
 ! R1    R(1,2)                  1.5306         estimate D2E/DX2                !
 ! R2    R(1,6)                  1.11           estimate D2E/DX2                !
 ! R3    R(1,7)                  1.1114         estimate D2E/DX2                !
 ! R4    R(1,8)                  1.11           estimate D2E/DX2                !
 ! R5    R(2,3)                  1.5306         estimate D2E/DX2                !
 ! R6    R(2,4)                  1.5225         estimate D2E/DX2                !
 ! R7    R(2,5)                  1.5225         estimate D2E/DX2                !
 ! R8    R(3,9)                  1.1114         estimate D2E/DX2                !
 ! R9    R(3,10)                 1.11           estimate D2E/DX2                !
 ! R10   R(3,11)                 1.1101         estimate D2E/DX2                !
 ! R11   R(4,5)                  1.5272         estimate D2E/DX2                !
 ! R12   R(4,12)                 1.111          estimate D2E/DX2                !
 ! R13   R(4,13)                 1.1111         estimate D2E/DX2                !
 ! R14   R(5,14)                 1.1111         estimate D2E/DX2                !
 ! R15   R(5,15)                 1.111          estimate D2E/DX2                !
 ! A1    A(2,1,6)              109.435          estimate D2E/DX2                !
 ! A2    A(2,1,7)              112.0117         estimate D2E/DX2                !
 ! A3    A(2,1,8)              109.4303         estimate D2E/DX2                !
 ! A4    A(6,1,7)              108.5311         estimate D2E/DX2                !
 ! A5    A(6,1,8)              108.8487         estimate D2E/DX2                !
 ! A6    A(7,1,8)              108.5261         estimate D2E/DX2                !
 ! A7    A(1,2,3)              118.3684         estimate D2E/DX2                !
 ! A8    A(1,2,4)              116.3122         estimate D2E/DX2                !
 ! A9    A(1,2,5)              116.3066         estimate D2E/DX2                !
 ! A10   A(3,2,4)              116.3089         estimate D2E/DX2                !
 ! A11   A(3,2,5)              116.3025         estimate D2E/DX2                !
 ! A12   A(2,3,9)              112.007          estimate D2E/DX2                !
 ! A13   A(2,3,10)             109.4377         estimate D2E/DX2                !
 ! A14   A(2,3,11)             109.4351         estimate D2E/DX2                !
 ! A15   A(9,3,10)             108.5271         estimate D2E/DX2                !
 ! A16   A(9,3,11)             108.5256         estimate D2E/DX2                !
 ! A17   A(10,3,11)            108.8503         estimate D2E/DX2                !
 ! A18   A(2,4,12)             116.1073         estimate D2E/DX2                !
 ! A19   A(2,4,13)             116.1135         estimate D2E/DX2                !
 ! A20   A(5,4,12)             113.5239         estimate D2E/DX2                !
 ! A21   A(5,4,13)             113.5183         estimate D2E/DX2                !
 ! A22   A(12,4,13)            121.8452         estimate D2E/DX2                !
 ! A23   A(2,5,14)             116.104          estimate D2E/DX2                !
 ! A24   A(2,5,15)             116.1119         estimate D2E/DX2                !
 ! A25   A(4,5,14)             113.5227         estimate D2E/DX2                !
 ! A26   A(4,5,15)             113.5277         estimate D2E/DX2                !
 ! A27   A(14,5,15)            121.843          estimate D2E/DX2                !
 ! D1    D(6,1,2,3)            -59.5585         estimate D2E/DX2                !
 ! D2    D(6,1,2,4)             86.4315         estimate D2E/DX2                !
 ! D3    D(6,1,2,5)            154.474          estimate D2E/DX2                !
 ! D4    D(7,1,2,3)           -179.967          estimate D2E/DX2                !
 ! D5    D(7,1,2,4)            -33.977          estimate D2E/DX2                !
 ! D6    D(7,1,2,5)             34.0655         estimate D2E/DX2                !
 ! D7    D(8,1,2,3)             59.634          estimate D2E/DX2                !
 ! D8    D(8,1,2,4)           -154.376          estimate D2E/DX2                !
 ! D9    D(8,1,2,5)            -86.3335         estimate D2E/DX2                !
 ! D10   D(1,2,3,9)            179.9642         estimate D2E/DX2                !
 ! D11   D(1,2,3,10)            59.5619         estimate D2E/DX2                !
 ! D12   D(1,2,3,11)           -59.6371         estimate D2E/DX2                !
 ! D13   D(4,2,3,9)             33.9731         estimate D2E/DX2                !
 ! D14   D(4,2,3,10)           -86.4292         estimate D2E/DX2                !
 ! D15   D(4,2,3,11)           154.3718         estimate D2E/DX2                !
 ! D16   D(5,2,3,9)            -34.0669         estimate D2E/DX2                !
 ! D17   D(5,2,3,10)          -154.4692         estimate D2E/DX2                !
 ! D18   D(5,2,3,11)            86.3318         estimate D2E/DX2                !
 ! D19   D(1,2,4,12)             3.3751         estimate D2E/DX2                !
 ! D20   D(1,2,4,13)          -150.0803         estimate D2E/DX2                !
 ! D21   D(3,2,4,12)           150.0741         estimate D2E/DX2                !
 ! D22   D(3,2,4,13)            -3.3813         estimate D2E/DX2                !
 ! D23   D(1,2,5,14)            -3.3827         estimate D2E/DX2                !
 ! D24   D(1,2,5,15)           150.0576         estimate D2E/DX2                !
 ! D25   D(3,2,5,14)          -150.0619         estimate D2E/DX2                !
 ! D26   D(3,2,5,15)             3.3784         estimate D2E/DX2                !
 ! D27   D(12,4,5,14)            0.0023         estimate D2E/DX2                !
 ! D28   D(12,4,5,15)         -144.793          estimate D2E/DX2                !
 ! D29   D(13,4,5,14)          144.7902         estimate D2E/DX2                !
 ! D30   D(13,4,5,15)           -0.0051         estimate D2E/DX2                !
 --------------------------------------------------------------------------------
 Trust Radius=3.00D-01 FncErr=1.00D-07 GrdErr=1.00D-06
 Number of steps in this run=     82 maximum allowed number of steps=    100.
 GradGradGradGradGradGradGradGradGradGradGradGradGradGradGradGradGradGrad

 Leave Link  103 at Sat Aug 21 01:32:45 2021, MaxMem= 24159191040 cpu:         0.4
 (Enter /public/home/users/caep010/software/Gaussian09/g09/l202.exe)
                          Input orientation:                          
 ---------------------------------------------------------------------
 Center     Atomic      Atomic             Coordinates (Angstroms)
 Number     Number       Type             X           Y           Z
 ---------------------------------------------------------------------
      1          6           0       -0.816900    1.338100   -0.259000
      2          6           0        0.043500    0.099500    0.002300
      3          6           0        1.532800    0.297100    0.294900
      4          6           0       -0.638100   -1.056100    0.722100
      5          6           0       -0.331200   -1.157600   -0.770500
      6          1           0       -0.780300    2.006700    0.626300
      7          1           0       -1.877800    1.073800   -0.458400
      8          1           0       -0.418500    1.885600   -1.138600
      9          1           0        2.054800   -0.668600    0.468700
     10          1           0        1.650800    0.929600    1.199400
     11          1           0        2.013600    0.808100   -0.565300
     12          1           0       -1.718600   -0.924300    0.944700
     13          1           0        0.017100   -1.693400    1.353800
     14          1           0       -1.233500   -1.084700   -1.414700
     15          1           0        0.502200   -1.853700   -1.005600
 ---------------------------------------------------------------------
                    Distance matrix (angstroms):
                    1          2          3          4          5
     1  C    0.000000
     2  C    1.530587   0.000000
     3  C    2.628988   1.530580   0.000000
     4  C    2.593592   1.522531   2.593541   0.000000
     5  C    2.593464   1.522472   2.593400   1.527202   0.000000
     6  H    1.110010   2.169201   2.895339   3.067596   3.487913
     7  H    1.111361   2.202930   3.578116   2.732565   2.732860
     8  H    1.110034   2.169159   2.895829   3.487697   3.066624
     9  H    3.578135   2.202915   1.111426   2.732413   2.732715
    10  H    2.895401   2.169223   1.110000   3.067553   3.487870
    11  H    2.895937   2.169234   1.110060   3.487715   3.066622
    12  H    2.716691   2.245280   3.533505   1.111037   2.218382
    13  H    3.533649   2.245382   2.716745   1.111073   2.218343
    14  H    2.716461   2.245205   3.533344   2.218385   1.111060
    15  H    3.533415   2.245275   2.716501   2.218422   1.111028
                    6          7          8          9         10
     6  H    0.000000
     7  H    1.803159   0.000000
     8  H    1.805668   1.803122   0.000000
     9  H    3.901264   4.400093   3.901867   0.000000
    10  H    2.720080   3.901296   3.265300   1.803159   0.000000
    11  H    3.265338   3.901925   2.721174   1.803191   1.805700
    12  H    3.093953   2.446720   3.731747   3.811890   3.854176
    13  H    3.854328   3.812101   4.383041   2.446597   3.094017
    14  H    3.732000   2.447193   3.092432   3.812250   4.382934
    15  H    4.382989   3.812359   3.853277   2.447159   3.732032
                   11         12         13         14         15
    11  H    0.000000
    12  H    4.382993   0.000000
    13  H    3.731817   1.942043   0.000000
    14  H    3.853288   2.414088   3.098243   0.000000
    15  H    3.092470   3.098291   2.414081   1.942004   0.000000
 Stoichiometry    C5H10
 Framework group  C1[X(C5H10)]
 Deg. of freedom    39
 Full point group                 C1      NOp   1
 Largest Abelian subgroup         C1      NOp   1
 Largest concise Abelian subgroup C1      NOp   1
                         Standard orientation:                         
 ---------------------------------------------------------------------
 Center     Atomic      Atomic             Coordinates (Angstroms)
 Number     Number       Type             X           Y           Z
 ---------------------------------------------------------------------
      1          6           0        0.958457   -1.314250   -0.000047
      2          6           0        0.174000    0.000026   -0.000096
      3          6           0        0.957716    1.314737   -0.000049
      4          6           0       -1.143284   -0.000300   -0.763552
      5          6           0       -1.143047   -0.000286    0.763649
      6          1           0        1.603206   -1.359580   -0.902469
      7          1           0        0.287202   -2.199993   -0.000681
      8          1           0        1.602057   -1.360108    0.903198
      9          1           0        0.285853    2.200100   -0.000735
     10          1           0        1.602405    1.360500   -0.902481
     11          1           0        1.601294    1.361067    0.903219
     12          1           0       -1.451160   -0.971391   -1.206945
     13          1           0       -1.451822    0.970652   -1.206879
     14          1           0       -1.450757   -0.971409    1.207143
     15          1           0       -1.451327    0.970594    1.207202
 ---------------------------------------------------------------------
 Rotational constants (GHZ):      5.9012170      5.2700380      3.7371953
 Leave Link  202 at Sat Aug 21 01:32:46 2021, MaxMem= 24159191040 cpu:         1.5
 (Enter /public/home/users/caep010/software/Gaussian09/g09/l301.exe)
 Standard basis: 6-31G(d,p) (6D, 7F)
 Ernie: Thresh=  0.10000D-02 Tol=  0.10000D-05 Strict=F.
 There are   125 symmetry adapted cartesian basis functions of A   symmetry.
 There are   125 symmetry adapted basis functions of A   symmetry.
   125 basis functions,   210 primitive gaussians,   125 cartesian basis functions
    20 alpha electrons       20 beta electrons
       nuclear repulsion energy       182.7495691519 Hartrees.
 IExCor=  402 DFT=T Ex+Corr=B3LYP ExCW=0 ScaHFX=  0.200000
 ScaDFX=  0.800000  0.720000  1.000000  0.810000 ScalE2=  1.000000  1.000000
 IRadAn=      0 IRanWt=     -1 IRanGd=            0 ICorTp=0 IEmpDi=  4
 NAtoms=   15 NActive=   15 NUniq=   15 SFac= 1.00D+00 NAtFMM=   60 NAOKFM=F Big=F
 Integral buffers will be    131072 words long.
 Raffenetti 2 integral format.
 Two-electron integral symmetry is turned on.
 Leave Link  301 at Sat Aug 21 01:32:46 2021, MaxMem= 24159191040 cpu:         6.1
 (Enter /public/home/users/caep010/software/Gaussian09/g09/l302.exe)
 NPDir=0 NMtPBC=     1 NCelOv=     1 NCel=       1 NClECP=     1 NCelD=      1
         NCelK=      1 NCelE2=     1 NClLst=     1 CellRange=     0.0.
 One-electron integrals computed using PRISM.
 NBasis=   125 RedAO= T EigKep=  4.22D-03  NBF=   125
 NBsUse=   125 1.00D-06 EigRej= -1.00D+00 NBFU=   125
 Precomputing XC quadrature grid using
 IXCGrd= 4 IRadAn=           0 IRanWt=          -1 IRanGd=           0 AccXCQ= 0.00D+00.
 Generated NRdTot=       0 NPtTot=           0 NUsed=           0 NTot=          32
 NSgBfM=   125   125   125   125   125 MxSgAt=    15 MxSgA2=    15.
 Leave Link  302 at Sat Aug 21 01:32:47 2021, MaxMem= 24159191040 cpu:        15.1
 (Enter /public/home/users/caep010/software/Gaussian09/g09/l303.exe)
 DipDrv:  MaxL=1.
 Leave Link  303 at Sat Aug 21 01:32:47 2021, MaxMem= 24159191040 cpu:         4.9
 (Enter /public/home/users/caep010/software/Gaussian09/g09/l401.exe)
 ExpMin= 1.61D-01 ExpMax= 3.05D+03 ExpMxC= 4.57D+02 IAcc=1 IRadAn=         1 AccDes= 0.00D+00
 Harris functional with IExCor=  402 and IRadAn=       1 diagonalized for initial guess.
 HarFok:  IExCor=  402 AccDes= 0.00D+00 IRadAn=         1 IDoV= 1 UseB2=F ITyADJ=14
 ICtDFT=  3500011 ScaDFX=  1.000000  1.000000  1.000000  1.000000
 FoFCou: FMM=F IPFlag=           0 FMFlag=      100000 FMFlg1=           0
         NFxFlg=           0 DoJE=T BraDBF=F KetDBF=T FulRan=T
         wScrn=  0.000000 ICntrl=     500 IOpCl=  0 I1Cent=   200000004 NGrid=           0
         NMat0=    1 NMatS0=      1 NMatT0=    0 NMatD0=    1 NMtDS0=    0 NMtDT0=    0
 Petite list used in FoFCou.
 Harris En= -196.585651894593    
 JPrj=0 DoOrth=F DoCkMO=F.
 Leave Link  401 at Sat Aug 21 01:32:48 2021, MaxMem= 24159191040 cpu:        13.2
 (Enter /public/home/users/caep010/software/Gaussian09/g09/l502.exe)
 Closed shell SCF:
 Using DIIS extrapolation, IDIIS=  1040.
 Integral symmetry usage will be decided dynamically.
 Keep R1 ints in memory in canonical form, NReq=32082255.
 IVT=       70380 IEndB=       70380 NGot= 24159191040 MDV= 24128108911
 LenX= 24128108911 LenY= 24128092845
 Requested convergence on RMS density matrix=1.00D-08 within 128 cycles.
 Requested convergence on MAX density matrix=1.00D-06.
 Requested convergence on             energy=1.00D-06.
 No special actions if energy rises.
 FoFCou: FMM=F IPFlag=           0 FMFlag=           0 FMFlg1=           0
         NFxFlg=           0 DoJE=F BraDBF=F KetDBF=F FulRan=T
         wScrn=  0.000000 ICntrl=     600 IOpCl=  0 I1Cent=           0 NGrid=           0
         NMat0=    1 NMatS0=   7875 NMatT0=    0 NMatD0=    1 NMtDS0=    0 NMtDT0=    0
 Symmetry not used in FoFCou.
 Integral accuracy reduced to 1.0D-05 until final iterations.

 Cycle   1  Pass 0  IDiag  1:
 E= -196.330097686692    
 DIIS: error= 4.01D-02 at cycle   1 NSaved=   1.
 NSaved= 1 IEnMin= 1 EnMin= -196.330097686692     IErMin= 1 ErrMin= 4.01D-02
 ErrMax= 4.01D-02  0.00D+00 EMaxC= 1.00D-01 BMatC= 1.81D-01 BMatP= 1.81D-01
 IDIUse=3 WtCom= 5.99D-01 WtEn= 4.01D-01
 Coeff-Com:  0.100D+01
 Coeff-En:   0.100D+01
 Coeff:      0.100D+01
 Gap=     0.394 Goal=   None    Shift=    0.000
 GapD=    0.394 DampG=1.000 DampE=0.500 DampFc=0.5000 IDamp=-1.
 Damping current iteration by 5.00D-01
 RMSDP=8.24D-03 MaxDP=1.30D-01              OVMax= 1.73D-01

 Cycle   2  Pass 0  IDiag  1:
 E= -196.420234321205     Delta-E=       -0.090136634514 Rises=F Damp=T
 DIIS: error= 1.08D-02 at cycle   2 NSaved=   2.
 NSaved= 2 IEnMin= 2 EnMin= -196.420234321205     IErMin= 2 ErrMin= 1.08D-02
 ErrMax= 1.08D-02  0.00D+00 EMaxC= 1.00D-01 BMatC= 7.87D-03 BMatP= 1.81D-01
 IDIUse=3 WtCom= 8.92D-01 WtEn= 1.08D-01
 Coeff-Com:  0.832D-01 0.917D+00
 Coeff-En:   0.141D+00 0.859D+00
 Coeff:      0.894D-01 0.911D+00
 Gap=     0.350 Goal=   None    Shift=    0.000
 RMSDP=1.45D-03 MaxDP=2.19D-02 DE=-9.01D-02 OVMax= 9.66D-02

 Cycle   3  Pass 0  IDiag  1:
 E= -196.534572447371     Delta-E=       -0.114338126166 Rises=F Damp=F
 DIIS: error= 3.52D-03 at cycle   3 NSaved=   3.
 NSaved= 3 IEnMin= 3 EnMin= -196.534572447371     IErMin= 3 ErrMin= 3.52D-03
 ErrMax= 3.52D-03  0.00D+00 EMaxC= 1.00D-01 BMatC= 1.20D-03 BMatP= 7.87D-03
 IDIUse=3 WtCom= 9.65D-01 WtEn= 3.52D-02
 Coeff-Com:  0.814D-02 0.217D+00 0.774D+00
 Coeff-En:   0.000D+00 0.000D+00 0.100D+01
 Coeff:      0.786D-02 0.210D+00 0.782D+00
 Gap=     0.334 Goal=   None    Shift=    0.000
 RMSDP=4.88D-04 MaxDP=1.43D-02 DE=-1.14D-01 OVMax= 1.54D-02

 Cycle   4  Pass 0  IDiag  1:
 E= -196.535032423900     Delta-E=       -0.000459976529 Rises=F Damp=F
 DIIS: error= 2.94D-03 at cycle   4 NSaved=   4.
 NSaved= 4 IEnMin= 4 EnMin= -196.535032423900     IErMin= 4 ErrMin= 2.94D-03
 ErrMax= 2.94D-03  0.00D+00 EMaxC= 1.00D-01 BMatC= 7.48D-04 BMatP= 1.20D-03
 IDIUse=3 WtCom= 9.71D-01 WtEn= 2.94D-02
 Coeff-Com: -0.278D-02 0.286D-01 0.443D+00 0.531D+00
 Coeff-En:   0.000D+00 0.000D+00 0.386D+00 0.614D+00
 Coeff:     -0.270D-02 0.278D-01 0.441D+00 0.534D+00
 Gap=     0.339 Goal=   None    Shift=    0.000
 RMSDP=2.01D-04 MaxDP=7.00D-03 DE=-4.60D-04 OVMax= 8.22D-03

 Cycle   5  Pass 0  IDiag  1:
 E= -196.535725104539     Delta-E=       -0.000692680639 Rises=F Damp=F
 DIIS: error= 2.17D-04 at cycle   5 NSaved=   5.
 NSaved= 5 IEnMin= 5 EnMin= -196.535725104539     IErMin= 5 ErrMin= 2.17D-04
 ErrMax= 2.17D-04  0.00D+00 EMaxC= 1.00D-01 BMatC= 6.29D-06 BMatP= 7.48D-04
 IDIUse=3 WtCom= 9.98D-01 WtEn= 2.17D-03
 Coeff-Com: -0.748D-03 0.192D-02 0.119D+00 0.176D+00 0.703D+00
 Coeff-En:   0.000D+00 0.000D+00 0.000D+00 0.000D+00 0.100D+01
 Coeff:     -0.746D-03 0.192D-02 0.119D+00 0.176D+00 0.704D+00
 Gap=     0.339 Goal=   None    Shift=    0.000
 RMSDP=2.65D-05 MaxDP=7.18D-04 DE=-6.93D-04 OVMax= 1.08D-03

 Cycle   6  Pass 0  IDiag  1:
 E= -196.535729786988     Delta-E=       -0.000004682449 Rises=F Damp=F
 DIIS: error= 8.30D-05 at cycle   6 NSaved=   6.
 NSaved= 6 IEnMin= 6 EnMin= -196.535729786988     IErMin= 6 ErrMin= 8.30D-05
 ErrMax= 8.30D-05  0.00D+00 EMaxC= 1.00D-01 BMatC= 1.16D-06 BMatP= 6.29D-06
 IDIUse=1 WtCom= 1.00D+00 WtEn= 0.00D+00
 Coeff-Com: -0.221D-03-0.389D-03 0.449D-01 0.720D-01 0.387D+00 0.497D+00
 Coeff:     -0.221D-03-0.389D-03 0.449D-01 0.720D-01 0.387D+00 0.497D+00
 Gap=     0.339 Goal=   None    Shift=    0.000
 RMSDP=8.41D-06 MaxDP=1.72D-04 DE=-4.68D-06 OVMax= 3.10D-04

 Initial convergence to 1.0D-05 achieved.  Increase integral accuracy.
 Cycle   7  Pass 1  IDiag  1:
 E= -196.535703522332     Delta-E=        0.000026264655 Rises=F Damp=F
 DIIS: error= 2.85D-05 at cycle   1 NSaved=   1.
 NSaved= 1 IEnMin= 1 EnMin= -196.535703522332     IErMin= 1 ErrMin= 2.85D-05
 ErrMax= 2.85D-05  0.00D+00 EMaxC= 1.00D-01 BMatC= 6.35D-08 BMatP= 6.35D-08
 IDIUse=1 WtCom= 1.00D+00 WtEn= 0.00D+00
 Coeff-Com:  0.100D+01
 Coeff:      0.100D+01
 Gap=     0.339 Goal=   None    Shift=    0.000
 RMSDP=8.41D-06 MaxDP=1.72D-04 DE= 2.63D-05 OVMax= 7.69D-05

 Cycle   8  Pass 1  IDiag  1:
 E= -196.535703596093     Delta-E=       -0.000000073761 Rises=F Damp=F
 DIIS: error= 7.00D-06 at cycle   2 NSaved=   2.
 NSaved= 2 IEnMin= 2 EnMin= -196.535703596093     IErMin= 2 ErrMin= 7.00D-06
 ErrMax= 7.00D-06  0.00D+00 EMaxC= 1.00D-01 BMatC= 8.80D-09 BMatP= 6.35D-08
 IDIUse=1 WtCom= 1.00D+00 WtEn= 0.00D+00
 Coeff-Com:  0.171D+00 0.829D+00
 Coeff:      0.171D+00 0.829D+00
 Gap=     0.339 Goal=   None    Shift=    0.000
 RMSDP=1.24D-06 MaxDP=2.86D-05 DE=-7.38D-08 OVMax= 4.60D-05

 Cycle   9  Pass 1  IDiag  1:
 E= -196.535703597866     Delta-E=       -0.000000001773 Rises=F Damp=F
 DIIS: error= 6.50D-06 at cycle   3 NSaved=   3.
 NSaved= 3 IEnMin= 3 EnMin= -196.535703597866     IErMin= 3 ErrMin= 6.50D-06
 ErrMax= 6.50D-06  0.00D+00 EMaxC= 1.00D-01 BMatC= 7.21D-09 BMatP= 8.80D-09
 IDIUse=1 WtCom= 1.00D+00 WtEn= 0.00D+00
 Coeff-Com: -0.207D-01 0.476D+00 0.545D+00
 Coeff:     -0.207D-01 0.476D+00 0.545D+00
 Gap=     0.339 Goal=   None    Shift=    0.000
 RMSDP=6.86D-07 MaxDP=1.37D-05 DE=-1.77D-09 OVMax= 2.29D-05

 Cycle  10  Pass 1  IDiag  1:
 E= -196.535703605067     Delta-E=       -0.000000007201 Rises=F Damp=F
 DIIS: error= 6.35D-07 at cycle   4 NSaved=   4.
 NSaved= 4 IEnMin= 4 EnMin= -196.535703605067     IErMin= 4 ErrMin= 6.35D-07
 ErrMax= 6.35D-07  0.00D+00 EMaxC= 1.00D-01 BMatC= 4.83D-11 BMatP= 7.21D-09
 IDIUse=1 WtCom= 1.00D+00 WtEn= 0.00D+00
 Coeff-Com: -0.991D-02 0.157D+00 0.198D+00 0.655D+00
 Coeff:     -0.991D-02 0.157D+00 0.198D+00 0.655D+00
 Gap=     0.339 Goal=   None    Shift=    0.000
 RMSDP=7.52D-08 MaxDP=2.19D-06 DE=-7.20D-09 OVMax= 3.04D-06

 Cycle  11  Pass 1  IDiag  1:
 E= -196.535703605111     Delta-E=       -0.000000000044 Rises=F Damp=F
 DIIS: error= 2.90D-07 at cycle   5 NSaved=   5.
 NSaved= 5 IEnMin= 5 EnMin= -196.535703605111     IErMin= 5 ErrMin= 2.90D-07
 ErrMax= 2.90D-07  0.00D+00 EMaxC= 1.00D-01 BMatC= 7.71D-12 BMatP= 4.83D-11
 IDIUse=1 WtCom= 1.00D+00 WtEn= 0.00D+00
 Coeff-Com: -0.435D-02 0.539D-01 0.719D-01 0.344D+00 0.535D+00
 Coeff:     -0.435D-02 0.539D-01 0.719D-01 0.344D+00 0.535D+00
 Gap=     0.339 Goal=   None    Shift=    0.000
 RMSDP=2.32D-08 MaxDP=7.35D-07 DE=-4.39D-11 OVMax= 8.57D-07

 Cycle  12  Pass 1  IDiag  1:
 E= -196.535703605117     Delta-E=       -0.000000000006 Rises=F Damp=F
 DIIS: error= 5.30D-08 at cycle   6 NSaved=   6.
 NSaved= 6 IEnMin= 6 EnMin= -196.535703605117     IErMin= 6 ErrMin= 5.30D-08
 ErrMax= 5.30D-08  0.00D+00 EMaxC= 1.00D-01 BMatC= 2.09D-13 BMatP= 7.71D-12
 IDIUse=1 WtCom= 1.00D+00 WtEn= 0.00D+00
 Coeff-Com: -0.228D-03 0.670D-03 0.210D-02 0.455D-01 0.170D+00 0.782D+00
 Coeff:     -0.228D-03 0.670D-03 0.210D-02 0.455D-01 0.170D+00 0.782D+00
 Gap=     0.339 Goal=   None    Shift=    0.000
 RMSDP=5.55D-09 MaxDP=1.12D-07 DE=-5.51D-12 OVMax= 1.43D-07

 SCF Done:  E(RB3LYP) =  -196.535703605     A.U. after   12 cycles
            NFock= 12  Conv=0.55D-08     -V/T= 2.0118
 KE= 1.942354983946D+02 PE=-8.189430035056D+02 EE= 2.454222323539D+02
 Leave Link  502 at Sat Aug 21 01:32:50 2021, MaxMem= 24159191040 cpu:        42.8
 (Enter /public/home/users/caep010/software/Gaussian09/g09/l601.exe)
 Copying SCF densities to generalized density rwf, IOpCl= 0 IROHF=0.

 **********************************************************************

            Population analysis using the SCF density.

 **********************************************************************

 Orbital symmetries:
       Occupied  (A) (A) (A) (A) (A) (A) (A) (A) (A) (A) (A) (A)
                 (A) (A) (A) (A) (A) (A) (A) (A)
       Virtual   (A) (A) (A) (A) (A) (A) (A) (A) (A) (A) (A) (A)
                 (A) (A) (A) (A) (A) (A) (A) (A) (A) (A) (A) (A)
                 (A) (A) (A) (A) (A) (A) (A) (A) (A) (A) (A) (A)
                 (A) (A) (A) (A) (A) (A) (A) (A) (A) (A) (A) (A)
                 (A) (A) (A) (A) (A) (A) (A) (A) (A) (A) (A) (A)
                 (A) (A) (A) (A) (A) (A) (A) (A) (A) (A) (A) (A)
                 (A) (A) (A) (A) (A) (A) (A) (A) (A) (A) (A) (A)
                 (A) (A) (A) (A) (A) (A) (A) (A) (A) (A) (A) (A)
                 (A) (A) (A) (A) (A) (A) (A) (A) (A)
 The electronic state is 1-A.
 Alpha  occ. eigenvalues --  -10.19622 -10.18043 -10.18035 -10.18034 -10.18021
 Alpha  occ. eigenvalues --   -0.85157  -0.71021  -0.68359  -0.57918  -0.52590
 Alpha  occ. eigenvalues --   -0.47609  -0.44011  -0.41807  -0.38625  -0.38580
 Alpha  occ. eigenvalues --   -0.37134  -0.35398  -0.34044  -0.26903  -0.25895
 Alpha virt. eigenvalues --    0.08018   0.11430   0.12995   0.13378   0.15400
 Alpha virt. eigenvalues --    0.15532   0.15641   0.18927   0.19803   0.20079
 Alpha virt. eigenvalues --    0.20575   0.22848   0.25013   0.29802   0.29944
 Alpha virt. eigenvalues --    0.47863   0.51943   0.52155   0.52273   0.55999
 Alpha virt. eigenvalues --    0.56036   0.62037   0.62589   0.70834   0.72471
 Alpha virt. eigenvalues --    0.73152   0.75747   0.76071   0.78348   0.78656
 Alpha virt. eigenvalues --    0.81965   0.86002   0.86984   0.89554   0.90780
 Alpha virt. eigenvalues --    0.91068   0.91786   0.92183   0.94372   0.94712
 Alpha virt. eigenvalues --    1.09622   1.20294   1.30120   1.35178   1.38235
 Alpha virt. eigenvalues --    1.39833   1.53166   1.65640   1.70370   1.70670
 Alpha virt. eigenvalues --    1.70994   1.75827   1.81353   1.82561   1.86201
 Alpha virt. eigenvalues --    1.88650   1.97960   1.98674   2.03838   2.04769
 Alpha virt. eigenvalues --    2.05163   2.05956   2.09300   2.10487   2.11543
 Alpha virt. eigenvalues --    2.12118   2.18076   2.22803   2.23196   2.26369
 Alpha virt. eigenvalues --    2.31883   2.32855   2.40539   2.41572   2.43796
 Alpha virt. eigenvalues --    2.45740   2.57171   2.60417   2.63167   2.65514
 Alpha virt. eigenvalues --    2.67971   2.72804   2.73378   2.75066   2.78215
 Alpha virt. eigenvalues --    2.79089   2.85730   2.91515   2.94436   2.94521
 Alpha virt. eigenvalues --    3.15931   3.18294   3.29353   3.36813   3.38824
 Alpha virt. eigenvalues --    3.40199   3.42432   3.43157   3.44680   3.46612
 Alpha virt. eigenvalues --    4.24591   4.44276   4.49596   4.57145   4.66233
          Condensed to atoms (all electrons):
               1          2          3          4          5          6
     1  C    4.924138   0.400576  -0.046038  -0.036951  -0.036966   0.372709
     2  C    0.400576   4.804337   0.400577   0.304489   0.304453  -0.035859
     3  C   -0.046038   0.400577   4.924151  -0.036954  -0.036971  -0.003482
     4  C   -0.036951   0.304489  -0.036954   5.073284   0.207384  -0.005089
     5  C   -0.036966   0.304453  -0.036971   0.207384   5.073338   0.005845
     6  H    0.372709  -0.035859  -0.003482  -0.005089   0.005845   0.623029
     7  H    0.375791  -0.025503   0.004214  -0.004525  -0.004509  -0.030612
     8  H    0.372712  -0.035870  -0.003468   0.005845  -0.005108  -0.033286
     9  H    0.004214  -0.025506   0.375784  -0.004527  -0.004510  -0.000076
    10  H   -0.003482  -0.035859   0.372707  -0.005089   0.005845   0.004333
    11  H   -0.003467  -0.035867   0.372706   0.005845  -0.005109  -0.000404
    12  H   -0.006898  -0.025650   0.002643   0.383806  -0.022178   0.001139
    13  H    0.002643  -0.025643  -0.006899   0.383804  -0.022185   0.000207
    14  H   -0.006895  -0.025659   0.002643  -0.022180   0.383811   0.000028
    15  H    0.002642  -0.025655  -0.006894  -0.022178   0.383820  -0.000147
               7          8          9         10         11         12
     1  C    0.375791   0.372712   0.004214  -0.003482  -0.003467  -0.006898
     2  C   -0.025503  -0.035870  -0.025506  -0.035859  -0.035867  -0.025650
     3  C    0.004214  -0.003468   0.375784   0.372707   0.372706   0.002643
     4  C   -0.004525   0.005845  -0.004527  -0.005089   0.005845   0.383806
     5  C   -0.004509  -0.005108  -0.004510   0.005845  -0.005109  -0.022178
     6  H   -0.030612  -0.033286  -0.000076   0.004333  -0.000404   0.001139
     7  H    0.614675  -0.030625  -0.000155  -0.000076  -0.000076   0.003021
     8  H   -0.030625   0.623054  -0.000076  -0.000404   0.004323   0.000027
     9  H   -0.000155  -0.000076   0.614703  -0.030614  -0.030623  -0.000054
    10  H   -0.000076  -0.000404  -0.030614   0.623036  -0.033287   0.000207
    11  H   -0.000076   0.004323  -0.030623  -0.033287   0.623066  -0.000147
    12  H    0.003021   0.000027  -0.000054   0.000207  -0.000147   0.595411
    13  H   -0.000054  -0.000147   0.003021   0.001139   0.000028  -0.025918
    14  H    0.003014   0.001144  -0.000054  -0.000147   0.000208  -0.008317
    15  H   -0.000054   0.000208   0.003014   0.000028   0.001144   0.002121
              13         14         15
     1  C    0.002643  -0.006895   0.002642
     2  C   -0.025643  -0.025659  -0.025655
     3  C   -0.006899   0.002643  -0.006894
     4  C    0.383804  -0.022180  -0.022178
     5  C   -0.022185   0.383811   0.383820
     6  H    0.000207   0.000028  -0.000147
     7  H   -0.000054   0.003014  -0.000054
     8  H   -0.000147   0.001144   0.000208
     9  H    0.003021  -0.000054   0.003014
    10  H    0.001139  -0.000147   0.000028
    11  H    0.000028   0.000208   0.001144
    12  H   -0.025918  -0.008317   0.002121
    13  H    0.595415   0.002121  -0.008316
    14  H    0.002121   0.595426  -0.025919
    15  H   -0.008316  -0.025919   0.595400
 Mulliken charges:
               1
     1  C   -0.314728
     2  C    0.082641
     3  C   -0.314718
     4  C   -0.226965
     5  C   -0.226959
     6  H    0.101665
     7  H    0.095475
     8  H    0.101671
     9  H    0.095460
    10  H    0.101663
    11  H    0.101661
    12  H    0.100786
    13  H    0.100783
    14  H    0.100778
    15  H    0.100788
 Sum of Mulliken charges =  -0.00000
 Mulliken charges with hydrogens summed into heavy atoms:
               1
     1  C   -0.015917
     2  C    0.082641
     3  C   -0.015934
     4  C   -0.025396
     5  C   -0.025394
 Electronic spatial extent (au):  <R**2>=            443.4200
 Charge=             -0.0000 electrons
 Dipole moment (field-independent basis, Debye):
    X=              0.1142    Y=             -0.0000    Z=              0.0001  Tot=              0.1142
 Quadrupole moment (field-independent basis, Debye-Ang):
   XX=            -34.0015   YY=            -31.6624   ZZ=            -34.0515
   XY=             -0.0010   XZ=              0.0000   YZ=              0.0001
 Traceless Quadrupole moment (field-independent basis, Debye-Ang):
   XX=             -0.7630   YY=              1.5761   ZZ=             -0.8131
   XY=             -0.0010   XZ=              0.0000   YZ=              0.0001
 Octapole moment (field-independent basis, Debye-Ang**2):
  XXX=              3.1891  YYY=             -0.0043  ZZZ=              0.0032  XYY=             -3.6689
  XXY=              0.0035  XXZ=             -0.0030  XZZ=              0.8136  YZZ=              0.0002
  YYZ=             -0.0008  XYZ=             -0.0002
 Hexadecapole moment (field-independent basis, Debye-Ang**3):
 XXXX=           -272.5573 YYYY=           -235.7360 ZZZZ=           -116.3439 XXXY=             -0.0060
 XXXZ=             -0.0041 YYYX=             -0.0011 YYYZ=             -0.0003 ZZZX=              0.0011
 ZZZY=              0.0010 XXYY=            -82.1539 XXZZ=            -58.9131 YYZZ=            -57.0323
 XXYZ=              0.0003 YYXZ=              0.0017 ZZXY=              0.0001
 N-N= 1.827495691519D+02 E-N=-8.189430087280D+02  KE= 1.942354983946D+02
 No NMR shielding tensors so no spin-rotation constants.
 Leave Link  601 at Sat Aug 21 01:32:50 2021, MaxMem= 24159191040 cpu:        11.2
 (Enter /public/home/users/caep010/software/Gaussian09/g09/l701.exe)
 Compute integral first derivatives.
 ... and contract with generalized density number  0.
 Leave Link  701 at Sat Aug 21 01:32:51 2021, MaxMem= 24159191040 cpu:        10.7
 (Enter /public/home/users/caep010/software/Gaussian09/g09/l702.exe)
 L702 exits ... SP integral derivatives will be done elsewhere.
 Leave Link  702 at Sat Aug 21 01:32:51 2021, MaxMem= 24159191040 cpu:         0.6
 (Enter /public/home/users/caep010/software/Gaussian09/g09/l703.exe)
 Compute integral first derivatives, UseDBF=F ICtDFT=           0.
 Integral derivatives from FoFJK, PRISM(SPDF).
 Calling FoFJK, ICntrl=      2127 FMM=F ISym2X=0 I1Cent= 0 IOpClX= 0 NMat=1 NMatS=1 NMatT=0.
 FoFJK:  IHMeth= 1 ICntrl=    2127 DoSepK=F KAlg= 0 I1Cent=   0 FoldK=F
 IRaf=         0 NMat=   1 IRICut=       1 DoRegI=T DoRafI=F ISym2E= 0.
 FoFCou: FMM=F IPFlag=           0 FMFlag=      100000 FMFlg1=         800
         NFxFlg=           0 DoJE=F BraDBF=F KetDBF=F FulRan=T
         wScrn=  0.000000 ICntrl=    2127 IOpCl=  0 I1Cent=           0 NGrid=           0
         NMat0=    1 NMatS0=      1 NMatT0=    0 NMatD0=    1 NMtDS0=    0 NMtDT0=    0
 Symmetry not used in FoFCou.
 Leave Link  703 at Sat Aug 21 01:32:51 2021, MaxMem= 24159191040 cpu:        12.3
 (Enter /public/home/users/caep010/software/Gaussian09/g09/l716.exe)
 Dipole        = 4.49429046D-02-1.71094331D-05 5.14029943D-05
 ***** Axes restored to original set *****
 -------------------------------------------------------------------
 Center     Atomic                   Forces (Hartrees/Bohr)
 Number     Number              X              Y              Z
 -------------------------------------------------------------------
      1        6           0.008708582    0.002635814    0.001592157
      2        6          -0.006462751   -0.014793987   -0.000314302
      3        6          -0.003906429    0.008205333   -0.001389864
      4        6           0.000545832   -0.001299378   -0.004682397
      5        6          -0.001420738   -0.000652251    0.004621618
      6        1          -0.002181389   -0.002532156   -0.008397365
      7        1           0.011078932    0.001920154    0.002142396
      8        1          -0.005362194   -0.001466452    0.007140511
      9        1          -0.006081061    0.009550083   -0.001909064
     10        1           0.002671489   -0.004675563   -0.007250848
     11        1          -0.000533863   -0.003616704    0.008292731
     12        1           0.018181437   -0.006118862    0.007097886
     13        1          -0.017877370    0.009878631   -0.001404502
     14        1           0.019346465   -0.006504810    0.001479557
     15        1          -0.016706941    0.009470148   -0.007018516
 -------------------------------------------------------------------
 Cartesian Forces:  Max     0.019346465 RMS     0.007807138
 Leave Link  716 at Sat Aug 21 01:32:51 2021, MaxMem= 24159191040 cpu:         0.8
 (Enter /public/home/users/caep010/software/Gaussian09/g09/l103.exe)

 GradGradGradGradGradGradGradGradGradGradGradGradGradGradGradGradGradGrad
 Berny optimization.
 FormGI is forming the generalized inverse of G from B-inverse, IUseBI=4.
 Internal  Forces:  Max     0.017007103 RMS     0.006008591
 Search for a local minimum.
 Step number   1 out of a maximum of   82
 All quantities printed in internal units (Hartrees-Bohrs-Radians)
 RMS Force = .60086D-02 SwitMx=.10000D-02 MixMth= 1
 Mixed Optimization -- RFO/linear search
 Second derivative matrix not updated -- first step.
 ITU=  0
     Eigenvalues ---    0.00361   0.00361   0.01600   0.01869   0.02806
     Eigenvalues ---    0.02808   0.03517   0.04033   0.05510   0.05510
     Eigenvalues ---    0.05783   0.05784   0.10642   0.10919   0.12056
     Eigenvalues ---    0.16000   0.16000   0.16000   0.16000   0.16000
     Eigenvalues ---    0.16000   0.16000   0.17849   0.18280   0.22766
     Eigenvalues ---    0.27327   0.29369   0.29370   0.29981   0.32450
     Eigenvalues ---    0.32456   0.32487   0.32488   0.32491   0.32491
     Eigenvalues ---    0.32594   0.32596   0.32599   0.32600
 RFO step:  Lambda=-1.18229252D-02 EMin= 3.61343326D-03
 Linear search not attempted -- first point.
 Iteration  1 RMS(Cart)=  0.03440263 RMS(Int)=  0.00115541
 Iteration  2 RMS(Cart)=  0.00117217 RMS(Int)=  0.00041236
 Iteration  3 RMS(Cart)=  0.00000093 RMS(Int)=  0.00041236
 ITry= 1 IFail=0 DXMaxC= 9.93D-02 DCOld= 1.00D+10 DXMaxT= 3.00D-01 DXLimC= 3.00D+00 Rises=F
 Variable       Old X    -DE/DX   Delta X   Delta X   Delta X     New X
                                 (Linear)    (Quad)   (Total)
    R1        2.89239  -0.00685   0.00000  -0.02244  -0.02244   2.86995
    R2        2.09761  -0.00829   0.00000  -0.02455  -0.02455   2.07306
    R3        2.10017  -0.01142   0.00000  -0.03394  -0.03394   2.06623
    R4        2.09766  -0.00831   0.00000  -0.02459  -0.02459   2.07307
    R5        2.89238  -0.00685   0.00000  -0.02241  -0.02241   2.86996
    R6        2.87717  -0.00180   0.00000  -0.01078  -0.01059   2.86658
    R7        2.87705  -0.00177   0.00000  -0.01068  -0.01048   2.86657
    R8        2.10029  -0.01145   0.00000  -0.03405  -0.03405   2.06624
    R9        2.09760  -0.00829   0.00000  -0.02454  -0.02454   2.07306
   R10        2.09771  -0.00832   0.00000  -0.02464  -0.02464   2.07307
   R11        2.88599   0.00006   0.00000   0.01035   0.00997   2.89596
   R12        2.09955  -0.01699   0.00000  -0.05044  -0.05044   2.04911
   R13        2.09962  -0.01701   0.00000  -0.05051  -0.05051   2.04911
   R14        2.09960  -0.01700   0.00000  -0.05048  -0.05048   2.04912
   R15        2.09954  -0.01698   0.00000  -0.05043  -0.05043   2.04911
    A1        1.91000   0.00481   0.00000   0.02934   0.02909   1.93909
    A2        1.95497  -0.00313   0.00000  -0.02096  -0.02076   1.93421
    A3        1.90992   0.00482   0.00000   0.02939   0.02913   1.93905
    A4        1.89422  -0.00137   0.00000  -0.01066  -0.01048   1.88375
    A5        1.89977  -0.00394   0.00000  -0.01737  -0.01803   1.88174
    A6        1.89414  -0.00137   0.00000  -0.01060  -0.01041   1.88372
    A7        2.06592  -0.00758   0.00000  -0.04733  -0.04713   2.01879
    A8        2.03003   0.00303   0.00000   0.01836   0.01820   2.04823
    A9        2.02993   0.00303   0.00000   0.01839   0.01823   2.04816
   A10        2.02997   0.00304   0.00000   0.01839   0.01823   2.04820
   A11        2.02986   0.00304   0.00000   0.01845   0.01829   2.04815
   A12        1.95489  -0.00312   0.00000  -0.02090  -0.02070   1.93419
   A13        1.91005   0.00481   0.00000   0.02932   0.02907   1.93911
   A14        1.91000   0.00481   0.00000   0.02933   0.02908   1.93908
   A15        1.89416  -0.00137   0.00000  -0.01062  -0.01044   1.88372
   A16        1.89413  -0.00137   0.00000  -0.01060  -0.01042   1.88371
   A17        1.89980  -0.00394   0.00000  -0.01739  -0.01804   1.88175
   A18        2.02645   0.00344   0.00000   0.01488   0.01417   2.04062
   A19        2.02656   0.00342   0.00000   0.01475   0.01404   2.04061
   A20        1.98137   0.00486   0.00000   0.05371   0.05309   2.03446
   A21        1.98127   0.00487   0.00000   0.05382   0.05320   2.03447
   A22        2.12660  -0.00954   0.00000  -0.07409  -0.07575   2.05085
   A23        2.02640   0.00344   0.00000   0.01492   0.01422   2.04061
   A24        2.02654   0.00342   0.00000   0.01481   0.01411   2.04064
   A25        1.98134   0.00487   0.00000   0.05372   0.05310   2.03444
   A26        1.98143   0.00486   0.00000   0.05368   0.05306   2.03449
   A27        2.12656  -0.00954   0.00000  -0.07408  -0.07573   2.05083
    D1       -1.03949  -0.00049   0.00000  -0.00713  -0.00735  -1.04684
    D2        1.50851  -0.00194   0.00000  -0.01830  -0.01860   1.48991
    D3        2.69608   0.00095   0.00000   0.00385   0.00371   2.69979
    D4       -3.14102   0.00000   0.00000  -0.00001  -0.00001  -3.14103
    D5       -0.59301  -0.00144   0.00000  -0.01118  -0.01126  -0.60427
    D6        0.59455   0.00144   0.00000   0.01097   0.01105   0.60561
    D7        1.04081   0.00049   0.00000   0.00700   0.00722   1.04803
    D8       -2.69437  -0.00096   0.00000  -0.00417  -0.00403  -2.69840
    D9       -1.50680   0.00193   0.00000   0.01798   0.01829  -1.48852
   D10        3.14097   0.00000   0.00000   0.00004   0.00004   3.14101
   D11        1.03955   0.00049   0.00000   0.00709   0.00732   1.04687
   D12       -1.04086  -0.00049   0.00000  -0.00698  -0.00720  -1.04806
   D13        0.59294   0.00145   0.00000   0.01122   0.01130   0.60425
   D14       -1.50847   0.00194   0.00000   0.01827   0.01858  -1.48990
   D15        2.69430   0.00096   0.00000   0.00420   0.00406   2.69836
   D16       -0.59458  -0.00145   0.00000  -0.01095  -0.01104  -0.60562
   D17       -2.69600  -0.00095   0.00000  -0.00390  -0.00377  -2.69976
   D18        1.50677  -0.00193   0.00000  -0.01797  -0.01828   1.48849
   D19        0.05891  -0.00158   0.00000  -0.03967  -0.03931   0.01960
   D20       -2.61939   0.00666   0.00000   0.07344   0.07333  -2.54607
   D21        2.61929  -0.00666   0.00000  -0.07330  -0.07319   2.54610
   D22       -0.05901   0.00158   0.00000   0.03980   0.03945  -0.01957
   D23       -0.05904   0.00157   0.00000   0.03968   0.03933  -0.01971
   D24        2.61900  -0.00665   0.00000  -0.07316  -0.07305   2.54595
   D25       -2.61907   0.00665   0.00000   0.07316   0.07305  -2.54603
   D26        0.05896  -0.00157   0.00000  -0.03968  -0.03933   0.01964
   D27        0.00004   0.00000   0.00000  -0.00003  -0.00004   0.00001
   D28       -2.52712   0.00337   0.00000  -0.01754  -0.01797  -2.54509
   D29        2.52707  -0.00337   0.00000   0.01764   0.01807   2.54513
   D30       -0.00009   0.00000   0.00000   0.00013   0.00013   0.00004
         Item               Value     Threshold  Converged?
 Maximum Force            0.017007     0.000450     NO 
 RMS     Force            0.006009     0.000300     NO 
 Maximum Displacement     0.099288     0.001800     NO 
 RMS     Displacement     0.034518     0.001200     NO 
 Predicted change in Energy=-6.377121D-03
 Lowest energy point so far.  Saving SCF results.
 GradGradGradGradGradGradGradGradGradGradGradGradGradGradGradGradGradGrad

 Leave Link  103 at Sat Aug 21 01:32:52 2021, MaxMem= 24159191040 cpu:         5.5
 (Enter /public/home/users/caep010/software/Gaussian09/g09/l202.exe)
                          Input orientation:                          
 ---------------------------------------------------------------------
 Center     Atomic      Atomic             Coordinates (Angstroms)
 Number     Number       Type             X           Y           Z
 ---------------------------------------------------------------------
      1          6           0       -0.790848    1.327116   -0.252921
      2          6           0        0.033932    0.077570    0.001761
      3          6           0        1.507213    0.308983    0.288809
      4          6           0       -0.645009   -1.070479    0.724322
      5          6           0       -0.337109   -1.172409   -0.773442
      6          1           0       -0.765886    2.000120    0.613039
      7          1           0       -1.835268    1.070062   -0.449482
      8          1           0       -0.410563    1.881413   -1.119867
      9          1           0        2.023446   -0.639530    0.460165
     10          1           0        1.642552    0.933078    1.180792
     11          1           0        1.998821    0.813946   -0.551900
     12          1           0       -1.685289   -0.932155    0.997241
     13          1           0       -0.028152   -1.666280    1.387879
     14          1           0       -1.182534   -1.098590   -1.448436
     15          1           0        0.474594   -1.832746   -1.057861
 ---------------------------------------------------------------------
                    Distance matrix (angstroms):
                    1          2          3          4          5
     1  C    0.000000
     2  C    1.518714   0.000000
     3  C    2.571216   1.518719   0.000000
     4  C    2.593209   1.516927   2.593192   0.000000
     5  C    2.593154   1.516923   2.593149   1.532478   0.000000
     6  H    1.097017   2.170154   2.851675   3.074991   3.488713
     7  H    1.093401   2.163925   3.506636   2.715962   2.716267
     8  H    1.097022   2.170133   2.852152   3.488504   3.074286
     9  H    3.506628   2.163916   1.093406   2.715906   2.716241
    10  H    2.851708   2.170177   1.097017   3.074986   3.488719
    11  H    2.852190   2.170157   1.097021   3.488500   3.074289
    12  H    2.732624   2.228507   3.497766   1.084343   2.238443
    13  H    3.497764   2.228495   2.732575   1.084343   2.238453
    14  H    2.732530   2.228500   3.497717   2.238437   1.084348
    15  H    3.497713   2.228517   2.732549   2.238468   1.084343
                    6          7          8          9         10
     6  H    0.000000
     7  H    1.771309   0.000000
     8  H    1.772938   1.771296   0.000000
     9  H    3.843370   4.317388   3.843963   0.000000
    10  H    2.694716   3.843409   3.226090   1.771293   0.000000
    11  H    3.226097   3.843999   2.695776   1.771291   1.772947
    12  H    3.096958   2.474748   3.744761   3.758829   3.819333
    13  H    3.819308   3.758874   4.361325   2.474657   3.096901
    14  H    3.745034   2.475282   3.095854   3.759229   4.361379
    15  H    4.361371   3.759240   3.818681   2.475299   3.745060
                   11         12         13         14         15
    11  H    0.000000
    12  H    4.361350   0.000000
    13  H    3.744714   1.854087   0.000000
    14  H    3.818715   2.502359   3.114411   0.000000
    15  H    3.095842   3.114418   2.502421   1.854079   0.000000
 Stoichiometry    C5H10
 Framework group  C1[X(C5H10)]
 Deg. of freedom    39
 Full point group                 C1      NOp   1
 RotChk:  IX=0 Diff= 3.88D-04
 Largest Abelian subgroup         C1      NOp   1
 Largest concise Abelian subgroup C1      NOp   1
                         Standard orientation:                         
 ---------------------------------------------------------------------
 Center     Atomic      Atomic             Coordinates (Angstroms)
 Number     Number       Type             X           Y           Z
 ---------------------------------------------------------------------
      1          6           0        0.965461   -1.285600   -0.000019
      2          6           0        0.156918   -0.000006   -0.000048
      3          6           0        0.965424    1.285617   -0.000006
      4          6           0       -1.152299   -0.000001   -0.766219
      5          6           0       -1.152216   -0.000020    0.766258
      6          1           0        1.609208   -1.347318   -0.886148
      7          1           0        0.307267   -2.158701   -0.000630
      8          1           0        1.608229   -1.347853    0.886790
      9          1           0        0.307181    2.158687   -0.000625
     10          1           0        1.609163    1.347399   -0.886138
     11          1           0        1.608177    1.347923    0.886809
     12          1           0       -1.437311   -0.927038   -1.251163
     13          1           0       -1.437288    0.927048   -1.251153
     14          1           0       -1.437173   -0.927083    1.251196
     15          1           0       -1.437184    0.926996    1.251268
 ---------------------------------------------------------------------
 Rotational constants (GHZ):      6.0585897      5.2086816      3.7912345
 Leave Link  202 at Sat Aug 21 01:32:52 2021, MaxMem= 24159191040 cpu:         0.3
 (Enter /public/home/users/caep010/software/Gaussian09/g09/l301.exe)
 Standard basis: 6-31G(d,p) (6D, 7F)
 Ernie: Thresh=  0.10000D-02 Tol=  0.10000D-05 Strict=F.
 There are   125 symmetry adapted cartesian basis functions of A   symmetry.
 There are   125 symmetry adapted basis functions of A   symmetry.
   125 basis functions,   210 primitive gaussians,   125 cartesian basis functions
    20 alpha electrons       20 beta electrons
       nuclear repulsion energy       183.9029184461 Hartrees.
 IExCor=  402 DFT=T Ex+Corr=B3LYP ExCW=0 ScaHFX=  0.200000
 ScaDFX=  0.800000  0.720000  1.000000  0.810000 ScalE2=  1.000000  1.000000
 IRadAn=      0 IRanWt=     -1 IRanGd=            0 ICorTp=0 IEmpDi=  4
 NAtoms=   15 NActive=   15 NUniq=   15 SFac= 1.00D+00 NAtFMM=   60 NAOKFM=F Big=F
 Integral buffers will be    131072 words long.
 Raffenetti 2 integral format.
 Two-electron integral symmetry is turned on.
 Leave Link  301 at Sat Aug 21 01:32:52 2021, MaxMem= 24159191040 cpu:         1.8
 (Enter /public/home/users/caep010/software/Gaussian09/g09/l302.exe)
 NPDir=0 NMtPBC=     1 NCelOv=     1 NCel=       1 NClECP=     1 NCelD=      1
         NCelK=      1 NCelE2=     1 NClLst=     1 CellRange=     0.0.
 One-electron integrals computed using PRISM.
 NBasis=   125 RedAO= T EigKep=  4.09D-03  NBF=   125
 NBsUse=   125 1.00D-06 EigRej= -1.00D+00 NBFU=   125
 Precomputing XC quadrature grid using
 IXCGrd= 4 IRadAn=           0 IRanWt=          -1 IRanGd=           0 AccXCQ= 0.00D+00.
 Generated NRdTot=       0 NPtTot=           0 NUsed=           0 NTot=          32
 NSgBfM=   125   125   125   125   125 MxSgAt=    15 MxSgA2=    15.
 Leave Link  302 at Sat Aug 21 01:32:52 2021, MaxMem= 24159191040 cpu:        10.9
 (Enter /public/home/users/caep010/software/Gaussian09/g09/l303.exe)
 DipDrv:  MaxL=1.
 Leave Link  303 at Sat Aug 21 01:32:52 2021, MaxMem= 24159191040 cpu:         0.6
 (Enter /public/home/users/caep010/software/Gaussian09/g09/l401.exe)
 Initial guess from the checkpoint file:  "/public/home/users/caep010/.cache/gau_scr/Gau-182324.chk"
 B after Tr=    -0.000000   -0.000000   -0.000000
         Rot=    1.000000   -0.000004    0.000020    0.000132 Ang=  -0.02 deg.
 Guess basis will be translated and rotated to current coordinates.
 JPrj=2 DoOrth=T DoCkMO=T.
 Generating alternative initial guess.
 ExpMin= 1.61D-01 ExpMax= 3.05D+03 ExpMxC= 4.57D+02 IAcc=1 IRadAn=         1 AccDes= 0.00D+00
 Harris functional with IExCor=  402 and IRadAn=       1 diagonalized for initial guess.
 HarFok:  IExCor=  402 AccDes= 0.00D+00 IRadAn=         1 IDoV= 1 UseB2=F ITyADJ=14
 ICtDFT=  3500011 ScaDFX=  1.000000  1.000000  1.000000  1.000000
 FoFCou: FMM=F IPFlag=           0 FMFlag=      100000 FMFlg1=           0
         NFxFlg=           0 DoJE=T BraDBF=F KetDBF=T FulRan=T
         wScrn=  0.000000 ICntrl=     500 IOpCl=  0 I1Cent=   200000004 NGrid=           0
         NMat0=    1 NMatS0=      1 NMatT0=    0 NMatD0=    1 NMtDS0=    0 NMtDT0=    0
 Petite list used in FoFCou.
 Harris En= -196.605711271311    
 Leave Link  401 at Sat Aug 21 01:32:53 2021, MaxMem= 24159191040 cpu:        15.4
 (Enter /public/home/users/caep010/software/Gaussian09/g09/l502.exe)
 Closed shell SCF:
 Using DIIS extrapolation, IDIIS=  1040.
 Integral symmetry usage will be decided dynamically.
 Keep R1 ints in memory in canonical form, NReq=32082255.
 IVT=       70380 IEndB=       70380 NGot= 24159191040 MDV= 24128108911
 LenX= 24128108911 LenY= 24128092845
 Requested convergence on RMS density matrix=1.00D-08 within 128 cycles.
 Requested convergence on MAX density matrix=1.00D-06.
 Requested convergence on             energy=1.00D-06.
 No special actions if energy rises.
 FoFCou: FMM=F IPFlag=           0 FMFlag=           0 FMFlg1=           0
         NFxFlg=           0 DoJE=F BraDBF=F KetDBF=F FulRan=T
         wScrn=  0.000000 ICntrl=     600 IOpCl=  0 I1Cent=           0 NGrid=           0
         NMat0=    1 NMatS0=   7875 NMatT0=    0 NMatD0=    1 NMtDS0=    0 NMtDT0=    0
 Symmetry not used in FoFCou.
 Integral accuracy reduced to 1.0D-05 until final iterations.

 Cycle   1  Pass 0  IDiag  1:
 E= -196.541135940490    
 DIIS: error= 3.41D-03 at cycle   1 NSaved=   1.
 NSaved= 1 IEnMin= 1 EnMin= -196.541135940490     IErMin= 1 ErrMin= 3.41D-03
 ErrMax= 3.41D-03  0.00D+00 EMaxC= 1.00D-01 BMatC= 9.39D-04 BMatP= 9.39D-04
 IDIUse=3 WtCom= 9.66D-01 WtEn= 3.41D-02
 Coeff-Com:  0.100D+01
 Coeff-En:   0.100D+01
 Coeff:      0.100D+01
 Gap=     2.075 Goal=   None    Shift=    0.000
 GapD=    2.075 DampG=2.000 DampE=1.000 DampFc=2.0000 IDamp=-1.
 RMSDP=3.68D-04 MaxDP=5.48D-03              OVMax= 9.91D-03

 Cycle   2  Pass 0  IDiag  1:
 E= -196.542243959328     Delta-E=       -0.001108018838 Rises=F Damp=F
 DIIS: error= 1.32D-03 at cycle   2 NSaved=   2.
 NSaved= 2 IEnMin= 2 EnMin= -196.542243959328     IErMin= 2 ErrMin= 1.32D-03
 ErrMax= 1.32D-03  0.00D+00 EMaxC= 1.00D-01 BMatC= 1.51D-04 BMatP= 9.39D-04
 IDIUse=3 WtCom= 9.87D-01 WtEn= 1.32D-02
 Coeff-Com:  0.208D+00 0.792D+00
 Coeff-En:   0.000D+00 0.100D+01
 Coeff:      0.205D+00 0.795D+00
 Gap=     0.349 Goal=   None    Shift=    0.000
 RMSDP=1.66D-04 MaxDP=3.15D-03 DE=-1.11D-03 OVMax= 4.88D-03

 Cycle   3  Pass 0  IDiag  1:
 E= -196.542335369466     Delta-E=       -0.000091410137 Rises=F Damp=F
 DIIS: error= 8.05D-04 at cycle   3 NSaved=   3.
 NSaved= 3 IEnMin= 3 EnMin= -196.542335369466     IErMin= 3 ErrMin= 8.05D-04
 ErrMax= 8.05D-04  0.00D+00 EMaxC= 1.00D-01 BMatC= 7.13D-05 BMatP= 1.51D-04
 IDIUse=3 WtCom= 9.92D-01 WtEn= 8.05D-03
 Coeff-Com:  0.107D-01 0.405D+00 0.585D+00
 Coeff-En:   0.000D+00 0.299D+00 0.701D+00
 Coeff:      0.106D-01 0.404D+00 0.586D+00
 Gap=     0.350 Goal=   None    Shift=    0.000
 RMSDP=7.09D-05 MaxDP=1.39D-03 DE=-9.14D-05 OVMax= 2.08D-03

 Cycle   4  Pass 0  IDiag  1:
 E= -196.542407784608     Delta-E=       -0.000072415143 Rises=F Damp=F
 DIIS: error= 1.01D-04 at cycle   4 NSaved=   4.
 NSaved= 4 IEnMin= 4 EnMin= -196.542407784608     IErMin= 4 ErrMin= 1.01D-04
 ErrMax= 1.01D-04  0.00D+00 EMaxC= 1.00D-01 BMatC= 7.52D-07 BMatP= 7.13D-05
 IDIUse=3 WtCom= 9.99D-01 WtEn= 1.01D-03
 Coeff-Com: -0.632D-02 0.867D-01 0.164D+00 0.756D+00
 Coeff-En:   0.000D+00 0.000D+00 0.000D+00 0.100D+01
 Coeff:     -0.632D-02 0.866D-01 0.164D+00 0.756D+00
 Gap=     0.350 Goal=   None    Shift=    0.000
 RMSDP=9.64D-06 MaxDP=1.38D-04 DE=-7.24D-05 OVMax= 2.43D-04

 Initial convergence to 1.0D-05 achieved.  Increase integral accuracy.
 Cycle   5  Pass 1  IDiag  1:
 E= -196.542403962115     Delta-E=        0.000003822493 Rises=F Damp=F
 DIIS: error= 3.22D-05 at cycle   1 NSaved=   1.
 NSaved= 1 IEnMin= 1 EnMin= -196.542403962115     IErMin= 1 ErrMin= 3.22D-05
 ErrMax= 3.22D-05  0.00D+00 EMaxC= 1.00D-01 BMatC= 1.57D-07 BMatP= 1.57D-07
 IDIUse=1 WtCom= 1.00D+00 WtEn= 0.00D+00
 Coeff-Com:  0.100D+01
 Coeff:      0.100D+01
 Gap=     0.350 Goal=   None    Shift=    0.000
 RMSDP=9.64D-06 MaxDP=1.38D-04 DE= 3.82D-06 OVMax= 1.91D-04

 Cycle   6  Pass 1  IDiag  1:
 E= -196.542403946818     Delta-E=        0.000000015297 Rises=F Damp=F
 DIIS: error= 3.41D-05 at cycle   2 NSaved=   2.
 NSaved= 2 IEnMin= 1 EnMin= -196.542403962115     IErMin= 1 ErrMin= 3.22D-05
 ErrMax= 3.41D-05  0.00D+00 EMaxC= 1.00D-01 BMatC= 1.90D-07 BMatP= 1.57D-07
 IDIUse=1 WtCom= 1.00D+00 WtEn= 0.00D+00
 Coeff-Com:  0.525D+00 0.475D+00
 Coeff:      0.525D+00 0.475D+00
 Gap=     0.350 Goal=   None    Shift=    0.000
 RMSDP=3.45D-06 MaxDP=6.12D-05 DE= 1.53D-08 OVMax= 1.06D-04

 Cycle   7  Pass 1  IDiag  1:
 E= -196.542404132016     Delta-E=       -0.000000185198 Rises=F Damp=F
 DIIS: error= 3.78D-06 at cycle   3 NSaved=   3.
 NSaved= 3 IEnMin= 3 EnMin= -196.542404132016     IErMin= 3 ErrMin= 3.78D-06
 ErrMax= 3.78D-06  0.00D+00 EMaxC= 1.00D-01 BMatC= 2.19D-09 BMatP= 1.57D-07
 IDIUse=1 WtCom= 1.00D+00 WtEn= 0.00D+00
 Coeff-Com: -0.301D-02 0.843D-01 0.919D+00
 Coeff:     -0.301D-02 0.843D-01 0.919D+00
 Gap=     0.350 Goal=   None    Shift=    0.000
 RMSDP=5.22D-07 MaxDP=1.51D-05 DE=-1.85D-07 OVMax= 2.04D-05

 Cycle   8  Pass 1  IDiag  1:
 E= -196.542404133645     Delta-E=       -0.000000001630 Rises=F Damp=F
 DIIS: error= 2.21D-06 at cycle   4 NSaved=   4.
 NSaved= 4 IEnMin= 4 EnMin= -196.542404133645     IErMin= 4 ErrMin= 2.21D-06
 ErrMax= 2.21D-06  0.00D+00 EMaxC= 1.00D-01 BMatC= 6.35D-10 BMatP= 2.19D-09
 IDIUse=1 WtCom= 1.00D+00 WtEn= 0.00D+00
 Coeff-Com: -0.147D-01 0.333D-01 0.502D+00 0.479D+00
 Coeff:     -0.147D-01 0.333D-01 0.502D+00 0.479D+00
 Gap=     0.350 Goal=   None    Shift=    0.000
 RMSDP=1.78D-07 MaxDP=6.74D-06 DE=-1.63D-09 OVMax= 8.76D-06

 Cycle   9  Pass 1  IDiag  1:
 E= -196.542404134227     Delta-E=       -0.000000000582 Rises=F Damp=F
 DIIS: error= 2.72D-07 at cycle   5 NSaved=   5.
 NSaved= 5 IEnMin= 5 EnMin= -196.542404134227     IErMin= 5 ErrMin= 2.72D-07
 ErrMax= 2.72D-07  0.00D+00 EMaxC= 1.00D-01 BMatC= 7.33D-12 BMatP= 6.35D-10
 IDIUse=1 WtCom= 1.00D+00 WtEn= 0.00D+00
 Coeff-Com: -0.489D-02 0.743D-02 0.132D+00 0.169D+00 0.696D+00
 Coeff:     -0.489D-02 0.743D-02 0.132D+00 0.169D+00 0.696D+00
 Gap=     0.350 Goal=   None    Shift=    0.000
 RMSDP=2.95D-08 MaxDP=6.43D-07 DE=-5.82D-10 OVMax= 6.67D-07

 Cycle  10  Pass 1  IDiag  1:
 E= -196.542404134237     Delta-E=       -0.000000000010 Rises=F Damp=F
 DIIS: error= 8.09D-08 at cycle   6 NSaved=   6.
 NSaved= 6 IEnMin= 6 EnMin= -196.542404134237     IErMin= 6 ErrMin= 8.09D-08
 ErrMax= 8.09D-08  0.00D+00 EMaxC= 1.00D-01 BMatC= 7.81D-13 BMatP= 7.33D-12
 IDIUse=1 WtCom= 1.00D+00 WtEn= 0.00D+00
 Coeff-Com: -0.115D-02 0.906D-03 0.234D-01 0.438D-01 0.310D+00 0.623D+00
 Coeff:     -0.115D-02 0.906D-03 0.234D-01 0.438D-01 0.310D+00 0.623D+00
 Gap=     0.350 Goal=   None    Shift=    0.000
 RMSDP=9.64D-09 MaxDP=1.46D-07 DE=-1.00D-11 OVMax= 2.01D-07

 SCF Done:  E(RB3LYP) =  -196.542404134     A.U. after   10 cycles
            NFock= 10  Conv=0.96D-08     -V/T= 2.0104
 KE= 1.945163084631D+02 PE=-8.214575103633D+02 EE= 2.464958793199D+02
 Leave Link  502 at Sat Aug 21 01:32:54 2021, MaxMem= 24159191040 cpu:        31.3
 (Enter /public/home/users/caep010/software/Gaussian09/g09/l701.exe)
 Compute integral first derivatives.
 ... and contract with generalized density number  0.
 Leave Link  701 at Sat Aug 21 01:32:55 2021, MaxMem= 24159191040 cpu:        10.2
 (Enter /public/home/users/caep010/software/Gaussian09/g09/l702.exe)
 L702 exits ... SP integral derivatives will be done elsewhere.
 Leave Link  702 at Sat Aug 21 01:32:55 2021, MaxMem= 24159191040 cpu:         0.5
 (Enter /public/home/users/caep010/software/Gaussian09/g09/l703.exe)
 Compute integral first derivatives, UseDBF=F ICtDFT=           0.
 Integral derivatives from FoFJK, PRISM(SPDF).
 Calling FoFJK, ICntrl=      2127 FMM=F ISym2X=0 I1Cent= 0 IOpClX= 0 NMat=1 NMatS=1 NMatT=0.
 FoFJK:  IHMeth= 1 ICntrl=    2127 DoSepK=F KAlg= 0 I1Cent=   0 FoldK=F
 IRaf=         0 NMat=   1 IRICut=       1 DoRegI=T DoRafI=F ISym2E= 0.
 FoFCou: FMM=F IPFlag=           0 FMFlag=      100000 FMFlg1=         800
         NFxFlg=           0 DoJE=F BraDBF=F KetDBF=F FulRan=T
         wScrn=  0.000000 ICntrl=    2127 IOpCl=  0 I1Cent=           0 NGrid=           0
         NMat0=    1 NMatS0=      1 NMatT0=    0 NMatD0=    1 NMtDS0=    0 NMtDT0=    0
 Symmetry not used in FoFCou.
 Leave Link  703 at Sat Aug 21 01:32:55 2021, MaxMem= 24159191040 cpu:        13.5
 (Enter /public/home/users/caep010/software/Gaussian09/g09/l716.exe)
 Dipole        = 5.12354083D-02 2.27807706D-06 5.98740116D-06
 ***** Axes restored to original set *****
 -------------------------------------------------------------------
 Center     Atomic                   Forces (Hartrees/Bohr)
 Number     Number              X              Y              Z
 -------------------------------------------------------------------
      1        6           0.002877037   -0.000033106    0.000586825
      2        6          -0.002011711   -0.004600738   -0.000103927
      3        6          -0.001961091    0.002103767   -0.000552771
      4        6           0.004994453    0.004207772   -0.013277031
      5        6          -0.000518524    0.006026269    0.013505289
      6        1          -0.000233023    0.000154027   -0.000293792
      7        1          -0.000981942    0.000706585   -0.000250791
      8        1          -0.000323066    0.000189009    0.000161536
      9        1           0.001180687   -0.000250011    0.000257865
     10        1           0.000356432   -0.000106136   -0.000155519
     11        1           0.000263874   -0.000070610    0.000300387
     12        1          -0.000004338   -0.002562454    0.003763611
     13        1          -0.003228767   -0.001135265    0.003003381
     14        1           0.001407167   -0.003028461   -0.003093105
     15        1          -0.001817188   -0.001600649   -0.003851957
 -------------------------------------------------------------------
 Cartesian Forces:  Max     0.013505289 RMS     0.003549412
 Leave Link  716 at Sat Aug 21 01:32:55 2021, MaxMem= 24159191040 cpu:         0.6
 (Enter /public/home/users/caep010/software/Gaussian09/g09/l103.exe)

 GradGradGradGradGradGradGradGradGradGradGradGradGradGradGradGradGradGrad
 Berny optimization.
 Using GEDIIS/GDIIS optimizer.
 FormGI is forming the generalized inverse of G from B-inverse, IUseBI=4.
 Internal  Forces:  Max     0.004923099 RMS     0.001327330
 Search for a local minimum.
 Step number   2 out of a maximum of   82
 All quantities printed in internal units (Hartrees-Bohrs-Radians)
 RMS Force = .13273D-02 SwitMx=.10000D-02 MixMth= 1
 Mixed Optimization -- RFO/linear search
 Update second derivatives using D2CorX and points    1    2
 DE= -6.70D-03 DEPred=-6.38D-03 R= 1.05D+00
 TightC=F SS=  1.41D+00  RLast= 2.81D-01 DXNew= 5.0454D-01 8.4354D-01
 Trust test= 1.05D+00 RLast= 2.81D-01 DXMaxT set to 5.05D-01
 ITU=  1  0
 Use linear search instead of GDIIS.
     Eigenvalues ---    0.00361   0.00361   0.01698   0.01878   0.02805
     Eigenvalues ---    0.02938   0.03509   0.03954   0.05506   0.05532
     Eigenvalues ---    0.05532   0.05536   0.08821   0.10650   0.11166
     Eigenvalues ---    0.15888   0.16000   0.16000   0.16000   0.16000
     Eigenvalues ---    0.16000   0.16311   0.17729   0.17860   0.22563
     Eigenvalues ---    0.27017   0.29282   0.29370   0.29703   0.32449
     Eigenvalues ---    0.32455   0.32487   0.32489   0.32491   0.32564
     Eigenvalues ---    0.32595   0.32598   0.32600   0.36536
 RFO step:  Lambda=-8.91265701D-04 EMin= 3.61343299D-03
 Quartic linear search produced a step of  0.13567.
 Iteration  1 RMS(Cart)=  0.01480479 RMS(Int)=  0.00015264
 Iteration  2 RMS(Cart)=  0.00014133 RMS(Int)=  0.00008277
 Iteration  3 RMS(Cart)=  0.00000000 RMS(Int)=  0.00008277
 ITry= 1 IFail=0 DXMaxC= 4.34D-02 DCOld= 1.00D+10 DXMaxT= 5.05D-01 DXLimC= 3.00D+00 Rises=F
 Variable       Old X    -DE/DX   Delta X   Delta X   Delta X     New X
                                 (Linear)    (Quad)   (Total)
    R1        2.86995   0.00007  -0.00304   0.00184  -0.00121   2.86875
    R2        2.07306  -0.00014  -0.00333   0.00118  -0.00215   2.07091
    R3        2.06623   0.00082  -0.00460   0.00517   0.00056   2.06679
    R4        2.07307  -0.00014  -0.00334   0.00118  -0.00216   2.07091
    R5        2.86996   0.00007  -0.00304   0.00182  -0.00122   2.86875
    R6        2.86658  -0.00179  -0.00144  -0.00341  -0.00484   2.86173
    R7        2.86657  -0.00179  -0.00142  -0.00342  -0.00484   2.86173
    R8        2.06624   0.00081  -0.00462   0.00517   0.00055   2.06678
    R9        2.07306  -0.00014  -0.00333   0.00118  -0.00215   2.07091
   R10        2.07307  -0.00014  -0.00334   0.00118  -0.00216   2.07091
   R11        2.89596  -0.00492   0.00135  -0.02462  -0.02327   2.87269
   R12        2.04911   0.00062  -0.00684   0.00562  -0.00122   2.04789
   R13        2.04911   0.00062  -0.00685   0.00563  -0.00123   2.04789
   R14        2.04912   0.00062  -0.00685   0.00562  -0.00123   2.04789
   R15        2.04911   0.00062  -0.00684   0.00562  -0.00122   2.04789
    A1        1.93909   0.00023   0.00395  -0.00104   0.00287   1.94196
    A2        1.93421   0.00119  -0.00282   0.01086   0.00805   1.94226
    A3        1.93905   0.00023   0.00395  -0.00100   0.00291   1.94197
    A4        1.88375  -0.00069  -0.00142  -0.00322  -0.00463   1.87912
    A5        1.88174  -0.00037  -0.00245  -0.00289  -0.00543   1.87631
    A6        1.88372  -0.00069  -0.00141  -0.00320  -0.00460   1.87912
    A7        2.01879  -0.00278  -0.00639  -0.01111  -0.01745   2.00134
    A8        2.04823   0.00133   0.00247   0.00586   0.00830   2.05653
    A9        2.04816   0.00133   0.00247   0.00587   0.00832   2.05648
   A10        2.04820   0.00133   0.00247   0.00587   0.00832   2.05652
   A11        2.04815   0.00133   0.00248   0.00586   0.00832   2.05647
   A12        1.93419   0.00119  -0.00281   0.01088   0.00808   1.94227
   A13        1.93911   0.00023   0.00394  -0.00106   0.00284   1.94195
   A14        1.93908   0.00023   0.00394  -0.00102   0.00288   1.94196
   A15        1.88372  -0.00068  -0.00142  -0.00319  -0.00460   1.87912
   A16        1.88371  -0.00068  -0.00141  -0.00319  -0.00459   1.87912
   A17        1.88175  -0.00037  -0.00245  -0.00290  -0.00544   1.87632
   A18        2.04062   0.00149   0.00192   0.01747   0.01921   2.05983
   A19        2.04061   0.00149   0.00191   0.01750   0.01922   2.05983
   A20        2.03446   0.00136   0.00720   0.00789   0.01489   2.04935
   A21        2.03447   0.00136   0.00722   0.00787   0.01488   2.04935
   A22        2.05085  -0.00365  -0.01028  -0.03222  -0.04261   2.00824
   A23        2.04061   0.00149   0.00193   0.01746   0.01921   2.05982
   A24        2.04064   0.00149   0.00191   0.01746   0.01919   2.05984
   A25        2.03444   0.00136   0.00720   0.00790   0.01490   2.04934
   A26        2.03449   0.00136   0.00720   0.00787   0.01487   2.04936
   A27        2.05083  -0.00365  -0.01027  -0.03221  -0.04259   2.00824
    D1       -1.04684   0.00008  -0.00100   0.00213   0.00111  -1.04573
    D2        1.48991   0.00035  -0.00252   0.00509   0.00250   1.49241
    D3        2.69979  -0.00019   0.00050  -0.00082  -0.00031   2.69948
    D4       -3.14103  -0.00000  -0.00000  -0.00035  -0.00035  -3.14138
    D5       -0.60427   0.00027  -0.00153   0.00261   0.00104  -0.60323
    D6        0.60561  -0.00027   0.00150  -0.00331  -0.00177   0.60384
    D7        1.04803  -0.00008   0.00098  -0.00288  -0.00187   1.04616
    D8       -2.69840   0.00018  -0.00055   0.00008  -0.00048  -2.69888
    D9       -1.48852  -0.00035   0.00248  -0.00584  -0.00329  -1.49181
   D10        3.14101   0.00000   0.00001   0.00036   0.00037   3.14138
   D11        1.04687  -0.00008   0.00099  -0.00215  -0.00113   1.04573
   D12       -1.04806   0.00008  -0.00098   0.00291   0.00191  -1.04616
   D13        0.60425  -0.00027   0.00153  -0.00259  -0.00102   0.60323
   D14       -1.48990  -0.00035   0.00252  -0.00510  -0.00252  -1.49242
   D15        2.69836  -0.00018   0.00055  -0.00005   0.00052   2.69888
   D16       -0.60562   0.00027  -0.00150   0.00332   0.00178  -0.60383
   D17       -2.69976   0.00019  -0.00051   0.00081   0.00028  -2.69948
   D18        1.48849   0.00035  -0.00248   0.00587   0.00332   1.49181
   D19        0.01960  -0.00061  -0.00533  -0.00160  -0.00702   0.01258
   D20       -2.54607   0.00177   0.00995   0.00446   0.01450  -2.53156
   D21        2.54610  -0.00177  -0.00993  -0.00449  -0.01452   2.53158
   D22       -0.01957   0.00061   0.00535   0.00157   0.00700  -0.01256
   D23       -0.01971   0.00061   0.00534   0.00163   0.00704  -0.01267
   D24        2.54595  -0.00177  -0.00991  -0.00448  -0.01448   2.53147
   D25       -2.54603   0.00177   0.00991   0.00452   0.01452  -2.53150
   D26        0.01964  -0.00061  -0.00534  -0.00158  -0.00700   0.01264
   D27        0.00001   0.00000  -0.00000   0.00001   0.00000   0.00001
   D28       -2.54509   0.00278  -0.00244   0.03792   0.03564  -2.50944
   D29        2.54513  -0.00278   0.00245  -0.03796  -0.03567   2.50947
   D30        0.00004  -0.00000   0.00002  -0.00004  -0.00002   0.00001
         Item               Value     Threshold  Converged?
 Maximum Force            0.004923     0.000450     NO 
 RMS     Force            0.001327     0.000300     NO 
 Maximum Displacement     0.043427     0.001800     NO 
 RMS     Displacement     0.014826     0.001200     NO 
 Predicted change in Energy=-5.576923D-04
 Lowest energy point so far.  Saving SCF results.
 GradGradGradGradGradGradGradGradGradGradGradGradGradGradGradGradGradGrad

 Leave Link  103 at Sat Aug 21 01:32:55 2021, MaxMem= 24159191040 cpu:         1.8
 (Enter /public/home/users/caep010/software/Gaussian09/g09/l202.exe)
                          Input orientation:                          
 ---------------------------------------------------------------------
 Center     Atomic      Atomic             Coordinates (Angstroms)
 Number     Number       Type             X           Y           Z
 ---------------------------------------------------------------------
      1          6           0       -0.781368    1.330087   -0.251238
      2          6           0        0.032221    0.073635    0.001658
      3          6           0        1.503026    0.317998    0.287266
      4          6           0       -0.645740   -1.075334    0.718275
      5          6           0       -0.340351   -1.176543   -0.767455
      6          1           0       -0.752098    2.003235    0.613035
      7          1           0       -1.829858    1.090775   -0.450172
      8          1           0       -0.397374    1.885212   -1.114567
      9          1           0        2.035163   -0.621598    0.460934
     10          1           0        1.636504    0.944974    1.176106
     11          1           0        1.991607    0.826784   -0.551407
     12          1           0       -1.683079   -0.953920    1.007383
     13          1           0       -0.048726   -1.677983    1.392650
     14          1           0       -1.177189   -1.121570   -1.453805
     15          1           0        0.457162   -1.845652   -1.068564
 ---------------------------------------------------------------------
                    Distance matrix (angstroms):
                    1          2          3          4          5
     1  C    0.000000
     2  C    1.518076   0.000000
     3  C    2.555928   1.518075   0.000000
     4  C    2.596998   1.514365   2.596986   0.000000
     5  C    2.596954   1.514362   2.596946   1.520165   0.000000
     6  H    1.095879   2.170781   2.834031   3.082202   3.490885
     7  H    1.093698   2.169345   3.499873   2.731196   2.731306
     8  H    1.095880   2.170788   2.834223   3.490821   3.081897
     9  H    3.499872   2.169346   1.093695   2.731179   2.731295
    10  H    2.834030   2.170779   1.095879   3.082189   3.490877
    11  H    2.834220   2.170785   1.095878   3.490808   3.081887
    12  H    2.759330   2.238215   3.505369   1.083696   2.236634
    13  H    3.505370   2.238209   2.759302   1.083694   2.236637
    14  H    2.759251   2.238205   3.505316   2.236629   1.083695
    15  H    3.505324   2.238217   2.759255   2.236644   1.083698
                    6          7          8          9         10
     6  H    0.000000
     7  H    1.767642   0.000000
     8  H    1.767588   1.767643   0.000000
     9  H    3.831671   4.324433   3.831910   0.000000
    10  H    2.672523   3.831670   3.204355   1.767639   0.000000
    11  H    3.204352   3.831909   2.672947   1.767638   1.767588
    12  H    3.125220   2.515311   3.770462   3.772846   3.828041
    13  H    3.828041   3.772856   4.370819   2.515281   3.125188
    14  H    3.770535   2.515497   3.124730   3.772983   4.370802
    15  H    4.370814   3.772992   3.827753   2.515504   3.770542
                   11         12         13         14         15
    11  H    0.000000
    12  H    4.370818   0.000000
    13  H    3.770434   1.828608   0.000000
    14  H    3.827751   2.518229   3.112127   0.000000
    15  H    3.124722   3.112133   2.518256   1.828609   0.000000
 Stoichiometry    C5H10
 Framework group  C1[X(C5H10)]
 Deg. of freedom    39
 Full point group                 C1      NOp   1
 RotChk:  IX=0 Diff= 8.56D-05
 Largest Abelian subgroup         C1      NOp   1
 Largest concise Abelian subgroup C1      NOp   1
                         Standard orientation:                         
 ---------------------------------------------------------------------
 Center     Atomic      Atomic             Coordinates (Angstroms)
 Number     Number       Type             X           Y           Z
 ---------------------------------------------------------------------
      1          6           0        0.972150   -1.277945   -0.000010
      2          6           0        0.152754   -0.000000   -0.000039
      3          6           0        0.972091    1.277982   -0.000006
      4          6           0       -1.157079   -0.000017   -0.760065
      5          6           0       -1.157010   -0.000024    0.760100
      6          1           0        1.617671   -1.336228   -0.883671
[...]
 ! A10   A(3,2,4)              117.9927         -DE/DX =    0.0                 !
 ! A11   A(3,2,5)              117.9924         -DE/DX =    0.0                 !
 ! A12   A(2,3,9)              111.5013         -DE/DX =    0.0                 !
 ! A13   A(2,3,10)             111.1046         -DE/DX =    0.0                 !
 ! A14   A(2,3,11)             111.1046         -DE/DX =    0.0                 !
 ! A15   A(9,3,10)             107.6744         -DE/DX =    0.0                 !
 ! A16   A(9,3,11)             107.6745         -DE/DX =    0.0                 !
 ! A17   A(10,3,11)            107.5984         -DE/DX =    0.0                 !
 ! A18   A(2,4,12)             118.3159         -DE/DX =    0.0                 !
 ! A19   A(2,4,13)             118.3158         -DE/DX =    0.0                 !
 ! A20   A(5,4,12)             118.0245         -DE/DX =    0.0                 !
 ! A21   A(5,4,13)             118.0247         -DE/DX =    0.0                 !
 ! A22   A(12,4,13)            113.9441         -DE/DX =    0.0                 !
 ! A23   A(2,5,14)             118.3156         -DE/DX =    0.0                 !
 ! A24   A(2,5,15)             118.3157         -DE/DX =    0.0                 !
 ! A25   A(4,5,14)             118.0245         -DE/DX =    0.0                 !
 ! A26   A(4,5,15)             118.0247         -DE/DX =    0.0                 !
 ! A27   A(14,5,15)            113.9443         -DE/DX =    0.0                 !
 ! D1    D(6,1,2,3)            -59.8793         -DE/DX =    0.0                 !
 ! D2    D(6,1,2,4)             85.5913         -DE/DX =    0.0                 !
 ! D3    D(6,1,2,5)            154.651          -DE/DX =    0.0                 !
 ! D4    D(7,1,2,3)            180.0001         -DE/DX =    0.0                 !
 ! D5    D(7,1,2,4)            -34.5292         -DE/DX =    0.0                 !
 ! D6    D(7,1,2,5)             34.5304         -DE/DX =    0.0                 !
 ! D7    D(8,1,2,3)             59.8794         -DE/DX =    0.0                 !
 ! D8    D(8,1,2,4)           -154.6499         -DE/DX =    0.0                 !
 ! D9    D(8,1,2,5)            -85.5903         -DE/DX =    0.0                 !
 ! D10   D(1,2,3,9)           -180.0            -DE/DX =    0.0                 !
 ! D11   D(1,2,3,10)            59.8794         -DE/DX =    0.0                 !
 ! D12   D(1,2,3,11)           -59.8793         -DE/DX =    0.0                 !
 ! D13   D(4,2,3,9)             34.5293         -DE/DX =    0.0                 !
 ! D14   D(4,2,3,10)           -85.5913         -DE/DX =    0.0                 !
 ! D15   D(4,2,3,11)           154.65           -DE/DX =    0.0                 !
 ! D16   D(5,2,3,9)            -34.5303         -DE/DX =    0.0                 !
 ! D17   D(5,2,3,10)          -154.6509         -DE/DX =    0.0                 !
 ! D18   D(5,2,3,11)            85.5904         -DE/DX =    0.0                 !
 ! D19   D(1,2,4,12)             0.1402         -DE/DX =    0.0                 !
 ! D20   D(1,2,4,13)          -144.3457         -DE/DX =    0.0                 !
 ! D21   D(3,2,4,12)           144.3459         -DE/DX =    0.0                 !
 ! D22   D(3,2,4,13)            -0.14           -DE/DX =    0.0                 !
 ! D23   D(1,2,5,14)            -0.1406         -DE/DX =    0.0                 !
 ! D24   D(1,2,5,15)           144.3451         -DE/DX =    0.0                 !
 ! D25   D(3,2,5,14)          -144.3454         -DE/DX =    0.0                 !
 ! D26   D(3,2,5,15)             0.1403         -DE/DX =    0.0                 !
 ! D27   D(12,4,5,14)            0.0003         -DE/DX =    0.0                 !
 ! D28   D(12,4,5,15)         -143.5257         -DE/DX =   -0.0001              !
 ! D29   D(13,4,5,14)          143.5259         -DE/DX =    0.0001              !
 ! D30   D(13,4,5,15)           -0.0001         -DE/DX =    0.0                 !
 --------------------------------------------------------------------------------
 GradGradGradGradGradGradGradGradGradGradGradGradGradGradGradGradGradGrad

 Leave Link  103 at Sat Aug 21 01:33:20 2021, MaxMem= 24159191040 cpu:         1.2
 (Enter /public/home/users/caep010/software/Gaussian09/g09/l9999.exe)
 1\1\GINC-B1957\Freq\RB3LYP\6-31G(d,p)\C5H10\ROOT\21-Aug-2021\0\\#P Geo
 m=AllCheck Guess=TCheck SCRF=Check GenChk RB3LYP/6-31G(d,p) Freq\\Frag
 _273\\0,1\C,-0.7792480968,1.3302316843,-0.2508438311\C,0.0310455483,0.
 0709227288,0.0015574004\C,1.5017185583,0.3196669492,0.2868482808\C,-0.
 645856425,-1.0773443446,0.7149740391\C,-0.3418605428,-1.1781931694,-0.
 7641630163\H,-0.7458981283,2.0016727542,0.6158586504\H,-1.8302340312,1
 .0977731912,-0.4509886663\H,-0.3903220078,1.8836974029,-1.1142849342\H
 ,2.040656198,-0.617195215,0.4614942733\H,1.6306371328,0.9487663788,1.1
 760796824\H,1.9862166543,0.8307915338,-0.5540630167\H,-1.6829771002,-0
 .9575111577,1.0160000277\H,-0.0545892222,-1.6789502705,1.399860337\H,-
 1.173888984,-1.1263931409,-1.4610425047\H,0.4545004465,-1.8478353251,-
 1.0771867217\\Version=ES64L-G09RevE.01\State=1-A\HF=-196.5431976\RMSD=
 1.098e-09\RMSF=3.971e-05\ZeroPoint=0.1376123\Thermal=0.1435388\Dipole=
 0.0172758,0.0394521,0.0008598\DipoleDeriv=0.0266661,-0.0216985,-0.0226
 04,-0.0001038,0.1401696,0.0002301,-0.0240761,-0.0042069,0.1391864,0.11
 97274,-0.061464,-0.0089201,-0.0614645,0.0058473,-0.0005192,-0.0089207,
 -0.000521,0.1817209,0.099267,0.0667114,-0.0137104,0.045117,0.0667152,0
 .0145321,-0.0122376,0.0189712,0.1400397,0.0269276,-0.0455691,0.0582839
 ,-0.0437841,-0.0036951,0.0644235,0.0616382,0.0719941,-0.0653127,0.0552
 059,-0.0161885,-0.0064556,-0.0179729,-0.0251245,-0.0853495,-0.0098098,
 -0.0929195,-0.0721688,0.0560871,0.012299,-0.018215,0.0132827,-0.090429
 6,-0.0800114,-0.0000419,-0.1251055,-0.0852181,-0.151923,-0.0023013,-0.
 0424386,-0.0567982,0.0210721,-0.0093366,-0.0387228,0.0018637,0.0472512
 ,0.0260826,-0.0316678,0.073276,-0.0154347,-0.0630105,0.0778033,0.05392
 89,0.1193598,-0.0826317,-0.0282768,0.0569914,-0.0210704,0.1114882,-0.1
 04025,0.0337797,-0.0247862,0.0225794,0.0487027,0.0023872,-0.0359776,-0
 .0074094,-0.0508246,-0.030098,-0.1055189,-0.0516379,-0.1192348,-0.0918
 499,-0.0379753,-0.0745461,0.044484,-0.0769156,-0.0042016,0.0693766,0.0
 89887,0.0866312,-0.0773828,-0.1081389,-0.000742,0.0719508,0.0208055,0.
 056134,0.0086711,0.034288,0.0289341,0.0045714,-0.0044517,0.060687,-0.0
 552957,0.0423994,-0.0010002,0.0809652,-0.011506,0.0745321,-0.0419813,-
 0.0514095,0.0009081,-0.0971794,0.0174756,0.0504494,-0.0105816,-0.06211
 57,-0.0386792,-0.046473,-0.0301757,0.092558,0.0453039,0.07273,-0.01880
 31,-0.0584645,0.0041125,-0.0441988,0.001546\Polar=52.093733,0.9482749,
 53.8733136,0.5346745,-0.1253139,49.2959608\PG=C01 [X(C5H10)]\NImag=0\\
 0.55705776,0.04304668,0.50702606,-0.00368885,0.01250827,0.55911188,-0.
 11821773,0.05618905,-0.01335017,0.53740588,0.05617602,-0.16279795,0.01
 774350,0.03111257,0.59748209,-0.01334926,0.01774599,-0.07585539,0.0470
 3260,-0.01400957,0.30885989,-0.02227035,0.00122545,-0.00482178,-0.1975
 4465,-0.01681555,-0.02467555,0.48753406,0.02854096,0.00485267,0.005588
 33,-0.01682847,-0.08253862,-0.00273322,-0.02093443,0.57736552,-0.00668
 429,-0.00002558,-0.00058770,-0.02467452,-0.00273045,-0.07678672,-0.013
 61414,-0.00543745,0.55829554,0.00780933,0.00495026,-0.01495972,-0.1004
 3686,-0.05122342,0.02019558,-0.01534134,-0.01557212,0.02719207,0.63250
 406,-0.00925771,-0.01856214,0.02266643,-0.04122656,-0.13885113,0.05109
 249,-0.00736481,-0.00576442,0.00201996,-0.09803122,0.35433630,0.002322
 54,0.00242560,-0.00789502,0.03898405,0.09350059,-0.06262940,-0.0013680
 6,-0.00319481,0.00245783,-0.03988788,-0.17089039,0.51456649,0.00096576
 ,0.00728795,0.01721766,-0.07403019,-0.01545511,-0.02460005,-0.00384641
 ,-0.01937090,-0.02746413,-0.07004268,0.01879426,0.01773876,0.57691148,
 0.00004871,-0.02167229,-0.02224364,-0.02545210,-0.15885589,-0.05342352
 ,-0.00613098,-0.00617889,-0.00440712,0.03023017,-0.02320226,-0.0324165
 3,-0.15228932,0.39645278,0.00139781,0.00240521,0.00205835,-0.04338882,
 -0.09583231,-0.06903119,-0.00036626,-0.00360011,-0.00862294,0.03923189
 ,0.01609629,-0.21036330,0.09397608,0.13843091,0.52804349,-0.04933598,-
 0.00647607,-0.00825428,0.00024949,0.01138234,0.01480767,0.00112947,0.0
 0013898,0.00116188,0.00044127,-0.00089395,-0.00018294,-0.00217231,0.00
 182856,-0.00076112,0.04877503,-0.00671091,-0.14037618,-0.12348957,-0.0
 0193102,-0.01991115,-0.02259592,-0.00136608,0.00070127,-0.00032373,-0.
 00073644,0.00220363,0.00014606,0.00541564,-0.00245211,0.00005705,0.004
 36143,0.15466520,-0.00825143,-0.12361787,-0.21353743,0.00058781,0.0037
 1783,0.00548549,0.00007454,0.00016328,0.00026114,0.00001073,-0.0014476
 6,0.00118904,-0.00063646,0.00223765,0.00111489,0.00940852,0.13643569,0
 .22927779,-0.28927234,-0.05625966,-0.04589215,-0.01686519,-0.00481814,
 -0.00271710,-0.00024491,0.00429523,-0.00038385,0.00033987,-0.00115672,
 0.00034354,0.00011268,-0.00121880,-0.00022887,0.00024228,-0.00009535,0
 .00003596,0.31448576,-0.05898553,-0.06170221,-0.01114084,0.02704383,0.
 00540775,0.00504972,0.00205412,-0.00487428,0.00076800,0.00091346,0.001
 32672,-0.00004386,0.00095880,0.00135726,0.00029220,-0.01873763,-0.0045
 5663,-0.00191219,0.06078359,0.06653362,-0.04570626,-0.01058062,-0.0559
 7736,-0.00488974,-0.00149847,-0.00294864,-0.00023104,0.00122861,0.0000
 6645,-0.00090616,-0.00037515,0.00024633,0.00073122,-0.00024953,0.00044
 293,-0.02570342,-0.00516213,-0.00417543,0.05092174,0.01112911,0.056251
 69,-0.08359367,-0.04669496,0.07468685,0.00663334,0.00932523,-0.0151269
 5,0.00140968,0.00008501,-0.00068052,-0.00196781,0.00244937,-0.00091306
 ,0.00044185,-0.00134838,0.00005112,-0.00007128,0.00128864,-0.00208662,
 -0.01024457,-0.01462160,0.02558077,0.08655147,-0.04685879,-0.10994043,
 0.09964613,-0.01127472,-0.01683135,0.02249396,-0.00133478,0.00067794,-
 0.00031702,0.00484279,-0.00249051,0.00256470,-0.00060443,0.00231064,-0
 .00057475,0.00802967,0.01083456,-0.01559927,-0.00227829,-0.00404354,0.
 00537409,0.04914352,0.12079047,0.07471121,0.09985638,-0.20971570,0.001
 40539,0.00315010,-0.00397820,0.00060624,-0.00020291,0.00000423,-0.0014
 4549,-0.00084514,0.00094877,-0.00020403,0.00083366,0.00108163,0.010110
 46,0.01315401,-0.02023021,-0.00227147,-0.00424394,0.00579838,-0.082096
 00,-0.11208847,0.22537617,-0.00587658,-0.00312863,-0.00103505,-0.01579
 295,0.02803054,-0.00473666,-0.10824520,0.10761165,-0.01986226,0.000908
 97,0.00171660,-0.00029984,0.00099472,0.00149118,0.00033208,0.00021817,
 -0.00023356,0.00018280,-0.00116693,0.00172482,-0.00047786,0.00021707,-
 0.00011216,-0.00016118,0.11919843,-0.00088751,0.00082349,-0.00022508,-
 0.00383141,0.00432297,-0.00122173,0.11033755,-0.24485491,0.03614725,-0
 .00050310,0.00056959,-0.00003330,-0.00053693,0.00064615,-0.00021680,-0
 .00023468,0.00014255,0.00009000,-0.00002244,0.00037918,0.00000949,-0.0
 0016033,0.00007772,-0.00015587,-0.11893706,0.26411387,-0.00118787,-0.0
 0068567,0.00000032,-0.00256403,0.00532655,-0.00293605,-0.02004814,0.03
 558703,-0.05385227,0.00066890,-0.00033620,0.00043433,-0.00034703,0.000
 95911,0.00027198,-0.00015539,0.00032228,0.00019388,-0.00035871,0.00036
 858,0.00048706,0.00018037,-0.00037803,0.00025980,0.02304185,-0.0392796
 7,0.05395916,0.00163191,-0.00111108,-0.00024350,-0.00460905,-0.0210237
 0,-0.02758611,-0.05050218,-0.01422490,-0.02052302,0.00242817,0.0012138
 9,0.00052329,-0.00583691,0.00129450,-0.00256672,-0.00018229,0.00080021
 ,0.00047750,0.00027117,-0.00007440,0.00039783,-0.00009289,0.00014678,0
 .00006318,0.00128676,0.00802287,0.01363634,0.05523392,0.00026235,0.000
 43501,0.00073526,-0.00135495,-0.00485543,-0.00418529,-0.01405873,-0.13
 345858,-0.11990782,0.00050246,0.00033091,0.00033271,-0.00113210,0.0014
 0472,-0.00106921,-0.00022678,0.00043919,-0.00014209,-0.00010647,0.0000
 0482,0.00011268,0.00001944,0.00006281,0.00003532,-0.00344571,-0.015133
 29,-0.02327202,0.01789771,0.14140283,0.00059644,-0.00031015,0.00002496
 ,-0.00142155,-0.00353842,-0.00471168,-0.02065497,-0.12007092,-0.219288
 80,-0.00071142,-0.00042333,0.00107489,-0.00051030,0.00167314,0.0009226
 2,-0.00053711,0.00054952,0.00019297,0.00000146,0.00021366,0.00027859,0
 .00001793,-0.00006166,-0.00011138,0.00137953,0.00390987,0.00535679,0.0
 2459986,0.13357064,0.23608122,0.00149428,-0.00104953,0.00100809,-0.015
 72727,-0.01723157,0.02569320,-0.09466348,-0.05060522,0.08523642,-0.005
 88994,0.00198199,-0.00059832,0.00219150,0.00088397,-0.00018313,-0.0000
 6254,0.00010733,-0.00005913,0.00041523,-0.00004019,-0.00034035,-0.0001
 2712,0.00087774,-0.00074161,0.00723149,0.00664773,-0.01322774,0.001049
 40,0.00232986,-0.00238038,0.10462253,0.00050188,0.00035026,-0.00062335
 ,-0.00298699,-0.00434828,0.00402723,-0.05037268,-0.10447868,0.09298781
 ,-0.00157195,0.00132840,0.00050350,0.00069390,0.00040297,0.00001782,0.
 00003537,0.00006727,-0.00005062,-0.00005740,-0.00003867,-0.00011373,-0
 .00019663,0.00039739,0.00002660,-0.01286928,-0.01220482,0.02189644,0.0
 0905113,0.00970071,-0.01511125,0.05818168,0.10923514,-0.00003128,-0.00
 017907,0.00024730,-0.00278377,-0.00358947,0.00589936,0.08534118,0.0930
 6900,-0.20410748,-0.00224704,-0.00100980,0.00105196,0.00111303,0.00095
 911,0.00123966,-0.00000029,0.00008733,-0.00014620,0.00005938,-0.000204
 57,0.00017803,0.00041628,-0.00023313,0.00017960,0.00114193,0.00108272,
 -0.00351638,0.01072429,0.01324459,-0.02021707,-0.09378575,-0.10289157,
 0.21886029,0.00056761,0.00154478,-0.00178229,-0.00991402,0.00286336,0.
 00192920,-0.00000075,-0.00073652,0.00267476,-0.31275289,0.03707805,0.0
 7308567,0.00302030,-0.00213414,-0.00061395,0.00015657,-0.00043067,0.00
 018471,0.00079838,-0.00038034,0.00021909,0.00017906,0.00028599,-0.0000
 7502,0.00034218,0.00002096,-0.00005718,0.00000251,0.00000029,-0.000105
 58,-0.00071775,-0.00046384,-0.00018888,0.32876536,-0.00031654,0.001956
 16,-0.00246752,-0.02674265,0.00553385,0.00542959,-0.00074506,-0.002128
 29,0.00494137,0.03817142,-0.04508041,-0.00193926,0.01323176,-0.0053279
 8,-0.00019323,-0.00002894,-0.00048893,-0.00018983,0.00049055,-0.000054
 21,0.00036890,0.00012564,0.00054829,-0.00023620,-0.00008768,0.00007520
 ,0.00007470,0.00010442,-0.00003994,-0.00024564,-0.00193781,-0.00052039
 ,-0.00041121,-0.03711906,0.04506721,0.00150227,0.00058557,0.00104934,0
 .00027559,0.00029762,-0.00578353,-0.00097615,-0.00080158,0.00020447,0.
 07048225,-0.00191268,-0.06418012,0.02701245,-0.00211892,-0.00720895,-0
 .00028730,0.00035484,-0.00000962,-0.00018670,0.00020873,-0.00038247,-0
 .00019805,-0.00001042,-0.00011595,0.00034152,-0.00014252,-0.00003663,0
 .00000439,0.00005097,0.00016187,-0.00023049,-0.00040550,0.00022945,-0.
 07961627,0.00239223,0.07002123,-0.00113204,-0.00033341,0.00159273,0.00
 748196,-0.00702845,0.00972193,0.00125066,-0.00081349,-0.00051558,-0.14
 188375,0.09253183,-0.09849882,-0.00074951,-0.00252321,0.00338426,-0.00
 001133,-0.00001127,-0.00019108,0.00026499,-0.00019811,0.00025647,0.000
 65472,-0.00060766,0.00009149,0.00001044,0.00007929,0.00029073,-0.00006
 305,-0.00019698,-0.00025461,0.00015236,0.00017863,-0.00005609,-0.01173
 371,0.01506987,-0.01875305,0.14422264,-0.00309764,-0.00104252,0.004748
 02,0.01774052,-0.01320612,0.01427999,0.00258048,0.00158336,-0.00227445
 ,0.09111113,-0.12664165,0.10440397,-0.01264065,0.00704681,-0.00845718,
 0.00002390,0.00000358,-0.00022819,-0.00011439,0.00019924,-0.00007861,0
 .00073064,-0.00190830,0.00023695,-0.00084231,0.00048734,-0.00005933,-0
 .00043669,-0.00036872,-0.00011425,0.00038926,0.00048432,-0.00018524,-0
 .00001953,-0.00128646,0.00050787,-0.09611904,0.13356851,0.00003238,-0.
 00127153,0.00025002,0.00228465,-0.00110744,-0.00443964,-0.00091971,0.0
 0117405,0.00073904,-0.09651055,0.10298891,-0.15348809,-0.01437797,0.01
 573324,-0.01581383,-0.00003925,0.00006614,0.00013220,-0.00018908,0.000
 03286,-0.00008348,-0.00012184,-0.00034420,0.00024489,0.00060122,-0.000
 11429,-0.00013606,0.00052194,0.00002846,0.00008979,0.00016142,-0.00019
 778,-0.00002526,0.00487202,-0.00640194,0.00720015,0.10234320,-0.111404
 22,0.16606272,0.00055226,0.00188523,0.00138816,-0.00899790,0.00265714,
 -0.00387420,0.00064952,-0.00139830,-0.00245417,0.01121475,-0.00209989,
 0.00887158,-0.22060823,0.01945287,-0.14398670,0.00004282,0.00028924,0.
 00010980,0.00063621,-0.00025668,0.00024397,0.00008387,-0.00028747,-0.0
 0009947,0.00038387,-0.00001396,0.00023889,-0.00079066,-0.00060339,-0.0
 0015079,-0.00000894,0.00002445,0.00003667,0.00066808,-0.00106198,-0.00
 106910,0.00026187,0.00119480,0.00251120,0.22942167,-0.00143600,0.00221
 630,0.00195234,-0.02206649,0.00395006,-0.01687686,0.00132435,-0.002666
 88,-0.00447600,0.00904728,-0.00485306,0.00379318,0.02077707,-0.0436030
 0,0.00597897,0.00007060,0.00058048,0.00019016,0.00065193,-0.00013093,-
 0.00016288,-0.00007407,-0.00051349,0.00024139,-0.00007951,0.00007949,-
 0.00013055,-0.00194214,-0.00046463,-0.00028506,-0.00001154,-0.00000822
 ,0.00028988,-0.00015924,0.00064940,-0.00195194,-0.00042209,0.00104399,
 0.00253145,-0.01852337,0.04366188,-0.00154309,-0.00003558,0.00080458,0
 .00148369,-0.00057876,-0.00511607,0.00101169,0.00070909,0.00009276,-0.
 02056251,0.00026983,-0.01587832,-0.14154806,0.00545541,-0.15780239,0.0
 0025867,0.00004226,-0.00001188,0.00052844,-0.00036843,-0.00014358,0.00
 033059,-0.00042972,0.00008762,-0.00014793,0.00012247,-0.00008260,0.000
 08259,0.00028730,0.00024658,-0.00007795,-0.00002074,0.00014161,0.00043
 286,0.00194218,0.00235343,-0.00011793,-0.00339196,-0.00309299,0.151716
 61,-0.00448079,0.17077062,-0.00038022,-0.00107606,-0.00186570,0.010365
 13,-0.00795125,-0.00271432,0.00068588,-0.00018749,0.00059136,-0.007331
 14,0.00426487,-0.00012050,-0.20735204,0.13586698,0.05372233,0.00058064
 ,-0.00074719,0.00015236,0.00022737,-0.00018415,-0.00009625,-0.00007372
 ,0.00003180,0.00010630,0.00028955,0.00001902,-0.00011100,0.00017318,0.
 00011301,0.00013150,0.00004029,-0.00014826,0.00026033,0.00061905,0.000
 84606,0.00169865,0.00127375,-0.00050048,-0.00116962,-0.01350917,0.0128
 4321,0.00815233,0.21439145,-0.00102596,-0.00156621,-0.00539828,0.02160
 940,-0.01450079,-0.00507287,0.00160113,0.00176279,0.00303525,-0.012130
 71,0.00535002,0.00084784,0.13487006,-0.14832891,-0.05333484,0.00072720
 ,-0.00185271,0.00035310,-0.00009366,0.00019187,-0.00000175,-0.00007151
 ,0.00002781,0.00023813,-0.00083888,0.00047548,-0.00039324,0.00028138,0
 .00053958,0.00024385,-0.00052370,-0.00036741,-0.00002856,-0.00035008,0
 .00109649,0.00294572,0.00039410,0.00003661,-0.00171371,-0.00125869,0.0
 0005861,0.00047742,-0.14319006,0.15707677,-0.00012033,0.00117905,0.000
 02186,0.00101883,-0.00085130,-0.00602822,0.00064217,-0.00147839,0.0011
 2446,0.01944935,-0.01789357,-0.00753540,0.05189884,-0.05142297,-0.0663
 3293,0.00017391,0.00035617,0.00026336,0.00033742,-0.00014902,-0.000038
 50,-0.00004089,-0.00004220,0.00017037,-0.00030015,0.00002746,-0.000403
 32,-0.00011186,0.00017849,-0.00010135,-0.00047429,-0.00004487,-0.00001
 488,-0.00095914,-0.00306417,-0.00350267,0.00070634,0.00201664,0.002360
 55,-0.01348245,0.01338672,0.00763063,-0.05873775,0.05780195,0.07238604
 \\0.00011518,-0.00008157,0.00002863,0.00000877,0.00002156,0.00000123,-
 0.00013694,0.00002995,-0.00003068,0.00002866,0.00002943,-0.00006612,0.
 00000134,0.00003829,0.00006743,-0.00002282,0.00003015,-0.00000393,0.00
 000538,0.00002177,-0.00000028,-0.00002178,0.00002993,-0.00000929,0.000
 01221,0.00001880,0.00000129,0.00003643,0.00000396,0.00001002,0.0000376
 9,0.00000364,0.00000470,0.00001084,-0.00004825,-0.00001079,-0.00003656
 ,-0.00002715,-0.00002193,0.00000446,-0.00004574,0.00002050,-0.00004285
 ,-0.00002476,0.00000925\\\@


 THOSE WHO TRY TO PASS CHEMISTRY OFF AS A NEW SCIENCE
 SHOW HOW LITTLE KNOWLEDGE THEY HAVE OF THE CHARACTER
 AND LITERATURE OF THE ANCIENTS.
   -- NICOLAS LEFEVRE
 "COURS DE CHYMIE" J.-N.LELOUP, PARIS, 1751
 Job cpu time:       0 days  0 hours  5 minutes 36.6 seconds.
 File lengths (MBytes):  RWF=     28 Int=      0 D2E=      0 Chk=      2 Scr=      1
 Normal termination of Gaussian 09 at Sat Aug 21 01:33:20 2021.
