 Entering Gaussian System, Link 0=g09
 Input=B3LYP6-31Gdp.Frag_581.gjf
 Output=B3LYP6-31Gdp.Frag_581.log
 Initial command:
 /public/home/users/caep010/software/Gaussian09/g09/l1.exe "/public/home/users/caep010/.cache/gau_scr/Gau-183082.inp" -scrdir="/public/home/users/caep010/.cache/gau_scr/"
 Entering Link 1 = /public/home/users/caep010/software/Gaussian09/g09/l1.exe PID=    183083.
  
 Copyright (c) 1988,1990,1992,1993,1995,1998,2003,2009,2015,
            Gaussian, Inc.  All Rights Reserved.
  
 This is part of the Gaussian(R) 09 program.  It is based on
 the Gaussian(R) 03 system (copyright 2003, Gaussian, Inc.),
 the Gaussian(R) 98 system (copyright 1998, Gaussian, Inc.),
 the Gaussian(R) 94 system (copyright 1995, Gaussian, Inc.),
 the Gaussian 92(TM) system (copyright 1992, Gaussian, Inc.),
 the Gaussian 90(TM) system (copyright 1990, Gaussian, Inc.),
 the Gaussian 88(TM) system (copyright 1988, Gaussian, Inc.),
 the Gaussian 86(TM) system (copyright 1986, Carnegie Mellon
 University), and the Gaussian 82(TM) system (copyright 1983,
 Carnegie Mellon University). Gaussian is a federally registered
 trademark of Gaussian, Inc.
  
 This software contains proprietary and confidential information,
 including trade secrets, belonging to Gaussian, Inc.
  
 This software is provided under written license and may be
 used, copied, transmitted, or stored only in accord with that
 written license.
  
 The following legend is applicable only to US Government
 contracts under FAR:
  
                    RESTRICTED RIGHTS LEGEND
  
 Use, reproduction and disclosure by the US Government is
 subject to restrictions as set forth in subparagraphs (a)
 and (c) of the Commercial Computer Software - Restricted
 Rights clause in FAR 52.227-19.
  
 Gaussian, Inc.
 340 Quinnipiac St., Bldg. 40, Wallingford CT 06492
  
  
 ---------------------------------------------------------------
 Warning -- This program may not be used in any manner that
 competes with the business of Gaussian, Inc. or will provide
 assistance to any competitor of Gaussian, Inc.  The licensee
 of this program is prohibited from giving any competitor of
 Gaussian, Inc. access to this program.  By using this program,
 the user acknowledges that Gaussian, Inc. is engaged in the
 business of creating and licensing software in the field of
 computational chemistry and represents and warrants to the
 licensee that it is not a competitor of Gaussian, Inc. and that
 it will not use this program in any manner prohibited above.
 ---------------------------------------------------------------
  

 Cite this work as:
 Gaussian 09, Revision E.01,
 M. J. Frisch, G. W. Trucks, H. B. Schlegel, G. E. Scuseria, 
 M. A. Robb, J. R. Cheeseman, G. Scalmani, V. Barone, B. Mennucci, 
 G. A. Petersson, H. Nakatsuji, M. Caricato, X. Li, H. P. Hratchian, 
 A. F. Izmaylov, J. Bloino, G. Zheng, J. L. Sonnenberg, M. Hada, 
 M. Ehara, K. Toyota, R. Fukuda, J. Hasegawa, M. Ishida, T. Nakajima, 
 Y. Honda, O. Kitao, H. Nakai, T. Vreven, J. A. Montgomery, Jr., 
 J. E. Peralta, F. Ogliaro, M. Bearpark, J. J. Heyd, E. Brothers, 
 K. N. Kudin, V. N. Staroverov, T. Keith, R. Kobayashi, J. Normand, 
 K. Raghavachari, A. Rendell, J. C. Burant, S. S. Iyengar, J. Tomasi, 
 M. Cossi, N. Rega, J. M. Millam, M. Klene, J. E. Knox, J. B. Cross, 
 V. Bakken, C. Adamo, J. Jaramillo, R. Gomperts, R. E. Stratmann, 
 O. Yazyev, A. J. Austin, R. Cammi, C. Pomelli, J. W. Ochterski, 
 R. L. Martin, K. Morokuma, V. G. Zakrzewski, G. A. Voth, 
 P. Salvador, J. J. Dannenberg, S. Dapprich, A. D. Daniels, 
 O. Farkas, J. B. Foresman, J. V. Ortiz, J. Cioslowski, 
 and D. J. Fox, Gaussian, Inc., Wallingford CT, 2013.
 
 ******************************************
 Gaussian 09:  ES64L-G09RevE.01 30-Nov-2015
                 8-Sep-2022 
 ******************************************
 %nproc=32
 Will use up to   32 processors via shared memory.
 %mem=180GB
 %chk=B3LYP6-31Gdp.Frag_581.chk
 ----------------------------
 #P OPT Freq B3LYP/6-31G(d,p)
 ----------------------------
 1/14=-1,18=20,19=15,26=3,38=1/1,3;
 2/9=110,12=2,17=6,18=5,40=1/2;
 3/5=1,6=6,7=101,11=2,16=1,25=1,30=1,71=1,74=-5/1,2,3;
 4//1;
 5/5=2,38=5/2;
 6/7=2,8=2,9=2,10=2,28=1/1;
 7//1,2,3,16;
 1/14=-1,18=20,19=15,26=3/3(2);
 2/9=110/2;
 99//99;
 2/9=110/2;
 3/5=1,6=6,7=101,11=2,16=1,25=1,30=1,71=1,74=-5/1,2,3;
 4/5=5,16=3,69=1/1;
 5/5=2,38=5/2;
 7//1,2,3,16;
 1/14=-1,18=20,19=15,26=3/3(-5);
 2/9=110/2;
 6/7=2,8=2,9=2,10=2,19=2,28=1/1;
 99/9=1/99;
 Leave Link    1 at Thu Sep  8 15:06:03 2022, MaxMem= 24159191040 cpu:         2.1
 (Enter /public/home/users/caep010/software/Gaussian09/g09/l101.exe)
 --------
 Frag_581
 --------
 Symbolic Z-matrix:
 Charge =  0 Multiplicity = 1
 C                    -1.63875  -0.21828   0.53345 
 C                    -0.21825   0.03964   0.03675 
 C                     0.65092  -1.21611   0.06347 
 O                    -0.20702   0.4968   -1.30353 
 O                     0.26612   1.06776   0.90585 
 N                     1.56368   1.56229   0.57457 
 H                    -2.20934   0.7158    0.52677 
 H                    -2.1353   -0.94639  -0.11211 
 H                    -1.62696  -0.5969    1.5583 
 H                     1.63754  -1.0181   -0.36205 
 H                     0.18665  -2.00492  -0.53285 
 H                     0.76709  -1.56933   1.09109 
 H                    -0.83139   1.23047  -1.35941 
 H                     2.22359   0.81653   0.80393 
 H                     1.57132   1.64065  -0.44514 
 
 Add atom      6 valence  3 ND=      2 dihedral       5      6     14     15
 NAtoms=     15 NQM=       15 NQMF=       0 NMMI=      0 NMMIF=      0
                NMic=       0 NMicF=      0.
                    Isotopes and Nuclear Properties:
 (Nuclear quadrupole moments (NQMom) in fm**2, nuclear magnetic moments (NMagM)
  in nuclear magnetons)

  Atom         1           2           3           4           5           6           7           8           9          10
 IAtWgt=          12          12          12          16          16          14           1           1           1           1
 AtmWgt=  12.0000000  12.0000000  12.0000000  15.9949146  15.9949146  14.0030740   1.0078250   1.0078250   1.0078250   1.0078250
 NucSpn=           0           0           0           0           0           2           1           1           1           1
 AtZEff=   0.0000000   0.0000000   0.0000000   0.0000000   0.0000000   0.0000000   0.0000000   0.0000000   0.0000000   0.0000000
 NQMom=    0.0000000   0.0000000   0.0000000   0.0000000   0.0000000   2.0440000   0.0000000   0.0000000   0.0000000   0.0000000
 NMagM=    0.0000000   0.0000000   0.0000000   0.0000000   0.0000000   0.4037610   2.7928460   2.7928460   2.7928460   2.7928460
 AtZNuc=   6.0000000   6.0000000   6.0000000   8.0000000   8.0000000   7.0000000   1.0000000   1.0000000   1.0000000   1.0000000

  Atom        11          12          13          14          15
 IAtWgt=           1           1           1           1           1
 AtmWgt=   1.0078250   1.0078250   1.0078250   1.0078250   1.0078250
 NucSpn=           1           1           1           1           1
 AtZEff=   0.0000000   0.0000000   0.0000000   0.0000000   0.0000000
 NQMom=    0.0000000   0.0000000   0.0000000   0.0000000   0.0000000
 NMagM=    2.7928460   2.7928460   2.7928460   2.7928460   2.7928460
 AtZNuc=   1.0000000   1.0000000   1.0000000   1.0000000   1.0000000
 Leave Link  101 at Thu Sep  8 15:06:04 2022, MaxMem= 24159191040 cpu:        10.3
 (Enter /public/home/users/caep010/software/Gaussian09/g09/l103.exe)

 GradGradGradGradGradGradGradGradGradGradGradGradGradGradGradGradGradGrad
 Berny optimization.
 Initialization pass.
                           ----------------------------
                           !    Initial Parameters    !
                           ! (Angstroms and Degrees)  !
 --------------------------                            --------------------------
 ! Name  Definition              Value          Derivative Info.                !
 --------------------------------------------------------------------------------
 ! R1    R(1,2)                  1.5268         estimate D2E/DX2                !
 ! R2    R(1,7)                  1.0946         estimate D2E/DX2                !
 ! R3    R(1,8)                  1.0925         estimate D2E/DX2                !
 ! R4    R(1,9)                  1.0926         estimate D2E/DX2                !
 ! R5    R(2,3)                  1.5274         estimate D2E/DX2                !
 ! R6    R(2,4)                  1.4161         estimate D2E/DX2                !
 ! R7    R(2,5)                  1.4307         estimate D2E/DX2                !
 ! R8    R(3,10)                 1.0926         estimate D2E/DX2                !
 ! R9    R(3,11)                 1.0924         estimate D2E/DX2                !
 ! R10   R(3,12)                 1.0928         estimate D2E/DX2                !
 ! R11   R(4,13)                 0.965          estimate D2E/DX2                !
 ! R12   R(5,6)                  1.4276         estimate D2E/DX2                !
 ! R13   R(6,14)                 1.0219         estimate D2E/DX2                !
 ! R14   R(6,15)                 1.0227         estimate D2E/DX2                !
 ! A1    A(2,1,7)              109.8073         estimate D2E/DX2                !
 ! A2    A(2,1,8)              110.0738         estimate D2E/DX2                !
 ! A3    A(2,1,9)              110.7107         estimate D2E/DX2                !
 ! A4    A(7,1,8)              109.1603         estimate D2E/DX2                !
 ! A5    A(7,1,9)              107.8821         estimate D2E/DX2                !
 ! A6    A(8,1,9)              109.1612         estimate D2E/DX2                !
 ! A7    A(1,2,3)              112.6347         estimate D2E/DX2                !
 ! A8    A(1,2,4)              111.7037         estimate D2E/DX2                !
 ! A9    A(1,2,5)              103.8125         estimate D2E/DX2                !
 ! A10   A(3,2,4)              106.1081         estimate D2E/DX2                !
 ! A11   A(3,2,5)              112.7998         estimate D2E/DX2                !
 ! A12   A(4,2,5)              109.8918         estimate D2E/DX2                !
 ! A13   A(2,3,10)             110.9803         estimate D2E/DX2                !
 ! A14   A(2,3,11)             110.0143         estimate D2E/DX2                !
 ! A15   A(2,3,12)             110.0397         estimate D2E/DX2                !
 ! A16   A(10,3,11)            107.5805         estimate D2E/DX2                !
 ! A17   A(10,3,12)            109.1966         estimate D2E/DX2                !
 ! A18   A(11,3,12)            108.9714         estimate D2E/DX2                !
 ! A19   A(2,4,13)             107.1645         estimate D2E/DX2                !
 ! A20   A(2,5,6)              114.5618         estimate D2E/DX2                !
 ! A21   A(5,6,14)             106.3839         estimate D2E/DX2                !
 ! A22   A(5,6,15)             105.3491         estimate D2E/DX2                !
 ! A23   A(14,6,15)            105.9551         estimate D2E/DX2                !
 ! D1    D(7,1,2,3)            178.104          estimate D2E/DX2                !
 ! D2    D(7,1,2,4)            -62.5881         estimate D2E/DX2                !
 ! D3    D(7,1,2,5)             55.7691         estimate D2E/DX2                !
 ! D4    D(8,1,2,3)            -61.6953         estimate D2E/DX2                !
 ! D5    D(8,1,2,4)             57.6125         estimate D2E/DX2                !
 ! D6    D(8,1,2,5)            175.9697         estimate D2E/DX2                !
 ! D7    D(9,1,2,3)             59.0858         estimate D2E/DX2                !
 ! D8    D(9,1,2,4)            178.3937         estimate D2E/DX2                !
 ! D9    D(9,1,2,5)            -63.2491         estimate D2E/DX2                !
 ! D10   D(1,2,3,10)           176.0086         estimate D2E/DX2                !
 ! D11   D(1,2,3,11)            57.064          estimate D2E/DX2                !
 ! D12   D(1,2,3,12)           -63.0123         estimate D2E/DX2                !
 ! D13   D(4,2,3,10)            53.4981         estimate D2E/DX2                !
 ! D14   D(4,2,3,11)           -65.4465         estimate D2E/DX2                !
 ! D15   D(4,2,3,12)           174.4772         estimate D2E/DX2                !
 ! D16   D(5,2,3,10)           -66.8705         estimate D2E/DX2                !
 ! D17   D(5,2,3,11)           174.1849         estimate D2E/DX2                !
 ! D18   D(5,2,3,12)            54.1086         estimate D2E/DX2                !
 ! D19   D(1,2,4,13)            50.5694         estimate D2E/DX2                !
 ! D20   D(3,2,4,13)           173.6685         estimate D2E/DX2                !
 ! D21   D(5,2,4,13)           -64.0938         estimate D2E/DX2                !
 ! D22   D(1,2,5,6)           -175.4509         estimate D2E/DX2                !
 ! D23   D(3,2,5,6)             62.3236         estimate D2E/DX2                !
 ! D24   D(4,2,5,6)            -55.851          estimate D2E/DX2                !
 ! D25   D(2,5,6,14)           -70.8177         estimate D2E/DX2                !
 ! D26   D(2,5,6,15)            41.381          estimate D2E/DX2                !
 ! D27   D(5,6,14,15)          111.7782         estimate D2E/DX2                !
 --------------------------------------------------------------------------------
 Trust Radius=3.00D-01 FncErr=1.00D-07 GrdErr=1.00D-06
 Number of steps in this run=     74 maximum allowed number of steps=    100.
 GradGradGradGradGradGradGradGradGradGradGradGradGradGradGradGradGradGrad

 Leave Link  103 at Thu Sep  8 15:06:04 2022, MaxMem= 24159191040 cpu:         0.6
 (Enter /public/home/users/caep010/software/Gaussian09/g09/l202.exe)
                          Input orientation:                          
 ---------------------------------------------------------------------
 Center     Atomic      Atomic             Coordinates (Angstroms)
 Number     Number       Type             X           Y           Z
 ---------------------------------------------------------------------
      1          6           0       -1.638751   -0.218279    0.533454
      2          6           0       -0.218247    0.039635    0.036748
      3          6           0        0.650918   -1.216111    0.063471
      4          8           0       -0.207024    0.496799   -1.303528
      5          8           0        0.266117    1.067763    0.905851
      6          7           0        1.563682    1.562287    0.574566
      7          1           0       -2.209341    0.715795    0.526774
      8          1           0       -2.135300   -0.946388   -0.112106
      9          1           0       -1.626961   -0.596896    1.558301
     10          1           0        1.637542   -1.018102   -0.362052
     11          1           0        0.186651   -2.004919   -0.532849
     12          1           0        0.767094   -1.569331    1.091088
     13          1           0       -0.831388    1.230472   -1.359412
     14          1           0        2.223588    0.816529    0.803934
     15          1           0        1.571319    1.640647   -0.445140
 ---------------------------------------------------------------------
                    Distance matrix (angstroms):
                    1          2          3          4          5
     1  C    0.000000
     2  C    1.526784   0.000000
     3  C    2.541483   1.527436   0.000000
     4  O    2.436325   1.416144   2.353468   0.000000
     5  O    2.328327   1.430733   2.464499   2.330497   0.000000
     6  N    3.664380   2.404784   2.968813   2.792472   1.427578
     7  H    1.094583   2.159114   3.482527   2.721624   2.528927
     8  H    1.092452   2.160901   2.804744   2.687103   3.295428
     9  H    1.092612   2.169048   2.794043   3.376752   2.603944
    10  H    3.489376   2.172971   1.092568   2.565877   2.799860
    11  H    2.767883   2.160691   1.092410   2.647172   3.393751
    12  H    2.815029   2.161319   1.092821   3.309378   2.690642
    13  H    2.516676   1.934760   3.194933   0.965002   2.522381
    14  H    4.007699   2.674827   2.674547   3.232878   1.976157
    15  H    3.836379   2.449082   3.044157   2.282043   1.963906
                    6          7          8          9         10
     6  N    0.000000
     7  H    3.867109   0.000000
     8  H    4.521884   1.782274   0.000000
     9  H    3.976180   1.768155   1.780678   0.000000
    10  H    2.746109   4.312183   3.781792   3.810794   0.000000
    11  H    3.980897   3.777018   2.586304   3.105580   1.762970
    12  H    3.272366   3.794656   3.203065   2.625913   1.781333
    13  H    3.096245   2.391933   2.827486   3.533449   3.485172
    14  H    1.021881   4.442727   4.790293   4.170560   2.251409
    15  H    1.022741   4.011653   4.532404   4.387410   2.660871
                   11         12         13         14         15
    11  H    0.000000
    12  H    1.778714   0.000000
    13  H    3.491041   4.049567   0.000000
    14  H    3.727824   2.810011   3.766204   0.000000
    15  H    3.900660   3.648388   2.603294   1.632425   0.000000
 Stoichiometry    C3H9NO2
 Framework group  C1[X(C3H9NO2)]
 Deg. of freedom    39
 Full point group                 C1      NOp   1
 Largest Abelian subgroup         C1      NOp   1
 Largest concise Abelian subgroup C1      NOp   1
                         Standard orientation:                         
 ---------------------------------------------------------------------
 Center     Atomic      Atomic             Coordinates (Angstroms)
 Number     Number       Type             X           Y           Z
 ---------------------------------------------------------------------
      1          6           0       -1.618155   -0.656516   -0.546041
      2          6           0       -0.377875    0.022117    0.030353
      3          6           0       -0.381532    1.534282   -0.185064
      4          8           0       -0.275142   -0.175279    1.428904
      5          8           0        0.708343   -0.629979   -0.634400
      6          7           0        2.003667   -0.233393   -0.184029
      7          1           0       -1.552045   -1.738818   -0.396501
      8          1           0       -2.515997   -0.280240   -0.050311
      9          1           0       -1.696654   -0.470368   -1.619814
     10          1           0        0.480653    2.000297    0.297813
     11          1           0       -1.281516    1.972133    0.252744
     12          1           0       -0.360353    1.760311   -1.254045
     13          1           0       -0.372792   -1.121564    1.590886
     14          1           0        2.144877    0.722050   -0.517839
     15          1           0        1.927915   -0.167289    0.833758
 ---------------------------------------------------------------------
 Rotational constants (GHZ):      4.6606387      2.9080725      2.8018497
 Leave Link  202 at Thu Sep  8 15:06:04 2022, MaxMem= 24159191040 cpu:         0.5
 (Enter /public/home/users/caep010/software/Gaussian09/g09/l301.exe)
 Standard basis: 6-31G(d,p) (6D, 7F)
 Ernie: Thresh=  0.10000D-02 Tol=  0.10000D-05 Strict=F.
 There are   135 symmetry adapted cartesian basis functions of A   symmetry.
 There are   135 symmetry adapted basis functions of A   symmetry.
   135 basis functions,   231 primitive gaussians,   135 cartesian basis functions
    25 alpha electrons       25 beta electrons
       nuclear repulsion energy       274.6580028860 Hartrees.
 IExCor=  402 DFT=T Ex+Corr=B3LYP ExCW=0 ScaHFX=  0.200000
 ScaDFX=  0.800000  0.720000  1.000000  0.810000 ScalE2=  1.000000  1.000000
 IRadAn=      0 IRanWt=     -1 IRanGd=            0 ICorTp=0 IEmpDi=  4
 NAtoms=   15 NActive=   15 NUniq=   15 SFac= 1.00D+00 NAtFMM=   60 NAOKFM=F Big=F
 Integral buffers will be    131072 words long.
 Raffenetti 2 integral format.
 Two-electron integral symmetry is turned on.
 Leave Link  301 at Thu Sep  8 15:06:04 2022, MaxMem= 24159191040 cpu:         2.1
 (Enter /public/home/users/caep010/software/Gaussian09/g09/l302.exe)
 NPDir=0 NMtPBC=     1 NCelOv=     1 NCel=       1 NClECP=     1 NCelD=      1
         NCelK=      1 NCelE2=     1 NClLst=     1 CellRange=     0.0.
 One-electron integrals computed using PRISM.
 NBasis=   135 RedAO= T EigKep=  2.82D-03  NBF=   135
 NBsUse=   135 1.00D-06 EigRej= -1.00D+00 NBFU=   135
 Precomputing XC quadrature grid using
 IXCGrd= 4 IRadAn=           0 IRanWt=          -1 IRanGd=           0 AccXCQ= 0.00D+00.
 Generated NRdTot=       0 NPtTot=           0 NUsed=           0 NTot=          32
 NSgBfM=   135   135   135   135   135 MxSgAt=    15 MxSgA2=    15.
 Leave Link  302 at Thu Sep  8 15:06:05 2022, MaxMem= 24159191040 cpu:        13.4
 (Enter /public/home/users/caep010/software/Gaussian09/g09/l303.exe)
 DipDrv:  MaxL=1.
 Leave Link  303 at Thu Sep  8 15:06:05 2022, MaxMem= 24159191040 cpu:         0.7
 (Enter /public/home/users/caep010/software/Gaussian09/g09/l401.exe)
 ExpMin= 1.61D-01 ExpMax= 5.48D+03 ExpMxC= 8.25D+02 IAcc=1 IRadAn=         1 AccDes= 0.00D+00
 Harris functional with IExCor=  402 and IRadAn=       1 diagonalized for initial guess.
 HarFok:  IExCor=  402 AccDes= 0.00D+00 IRadAn=         1 IDoV= 1 UseB2=F ITyADJ=14
 ICtDFT=  3500011 ScaDFX=  1.000000  1.000000  1.000000  1.000000
 FoFCou: FMM=F IPFlag=           0 FMFlag=      100000 FMFlg1=           0
         NFxFlg=           0 DoJE=T BraDBF=F KetDBF=T FulRan=T
         wScrn=  0.000000 ICntrl=     500 IOpCl=  0 I1Cent=   200000004 NGrid=           0
         NMat0=    1 NMatS0=      1 NMatT0=    0 NMatD0=    1 NMtDS0=    0 NMtDT0=    0
 Petite list used in FoFCou.
 Harris En= -324.935426001481    
 JPrj=0 DoOrth=F DoCkMO=F.
 Leave Link  401 at Thu Sep  8 15:06:05 2022, MaxMem= 24159191040 cpu:        10.0
 (Enter /public/home/users/caep010/software/Gaussian09/g09/l502.exe)
 Closed shell SCF:
 Using DIIS extrapolation, IDIIS=  1040.
 Integral symmetry usage will be decided dynamically.
 Keep R1 ints in memory in canonical form, NReq=43477021.
 IVT=       78571 IEndB=       78571 NGot= 24159191040 MDV= 24116971680
 LenX= 24116971680 LenY= 24116953014
 Requested convergence on RMS density matrix=1.00D-08 within 128 cycles.
 Requested convergence on MAX density matrix=1.00D-06.
 Requested convergence on             energy=1.00D-06.
 No special actions if energy rises.
 FoFCou: FMM=F IPFlag=           0 FMFlag=           0 FMFlg1=           0
         NFxFlg=           0 DoJE=F BraDBF=F KetDBF=F FulRan=T
         wScrn=  0.000000 ICntrl=     600 IOpCl=  0 I1Cent=           0 NGrid=           0
         NMat0=    1 NMatS0=   9180 NMatT0=    0 NMatD0=    1 NMtDS0=    0 NMtDT0=    0
 Symmetry not used in FoFCou.
 Integral accuracy reduced to 1.0D-05 until final iterations.

 Cycle   1  Pass 0  IDiag  1:
 E= -324.692272072200    
 DIIS: error= 2.34D-02 at cycle   1 NSaved=   1.
 NSaved= 1 IEnMin= 1 EnMin= -324.692272072200     IErMin= 1 ErrMin= 2.34D-02
 ErrMax= 2.34D-02  0.00D+00 EMaxC= 1.00D-01 BMatC= 2.20D-01 BMatP= 2.20D-01
 IDIUse=3 WtCom= 7.66D-01 WtEn= 2.34D-01
 Coeff-Com:  0.100D+01
 Coeff-En:   0.100D+01
 Coeff:      0.100D+01
 Gap=     0.341 Goal=   None    Shift=    0.000
 GapD=    0.341 DampG=1.000 DampE=0.500 DampFc=0.5000 IDamp=-1.
 Damping current iteration by 5.00D-01
 RMSDP=6.32D-03 MaxDP=1.31D-01              OVMax= 1.65D-01

 Cycle   2  Pass 0  IDiag  1:
 E= -324.782584724405     Delta-E=       -0.090312652205 Rises=F Damp=T
 DIIS: error= 1.01D-02 at cycle   2 NSaved=   2.
 NSaved= 2 IEnMin= 2 EnMin= -324.782584724405     IErMin= 2 ErrMin= 1.01D-02
 ErrMax= 1.01D-02  0.00D+00 EMaxC= 1.00D-01 BMatC= 9.47D-03 BMatP= 2.20D-01
 IDIUse=3 WtCom= 8.99D-01 WtEn= 1.01D-01
 Coeff-Com:  0.785D-01 0.922D+00
 Coeff-En:   0.120D+00 0.880D+00
 Coeff:      0.827D-01 0.917D+00
 Gap=     0.304 Goal=   None    Shift=    0.000
 RMSDP=9.28D-04 MaxDP=1.92D-02 DE=-9.03D-02 OVMax= 8.47D-02

 Cycle   3  Pass 0  IDiag  1:
 E= -324.890637655891     Delta-E=       -0.108052931486 Rises=F Damp=F
 DIIS: error= 3.23D-03 at cycle   3 NSaved=   3.
 NSaved= 3 IEnMin= 3 EnMin= -324.890637655891     IErMin= 3 ErrMin= 3.23D-03
 ErrMax= 3.23D-03  0.00D+00 EMaxC= 1.00D-01 BMatC= 3.11D-03 BMatP= 9.47D-03
 IDIUse=3 WtCom= 9.68D-01 WtEn= 3.23D-02
 Coeff-Com:  0.969D-02 0.331D+00 0.660D+00
 Coeff-En:   0.000D+00 0.000D+00 0.100D+01
 Coeff:      0.938D-02 0.320D+00 0.671D+00
 Gap=     0.315 Goal=   None    Shift=    0.000
 RMSDP=5.29D-04 MaxDP=1.65D-02 DE=-1.08D-01 OVMax= 1.68D-02

 Cycle   4  Pass 0  IDiag  1:
 E= -324.891935303670     Delta-E=       -0.001297647779 Rises=F Damp=F
 DIIS: error= 2.14D-03 at cycle   4 NSaved=   4.
 NSaved= 4 IEnMin= 4 EnMin= -324.891935303670     IErMin= 4 ErrMin= 2.14D-03
 ErrMax= 2.14D-03  0.00D+00 EMaxC= 1.00D-01 BMatC= 1.36D-03 BMatP= 3.11D-03
 IDIUse=3 WtCom= 9.79D-01 WtEn= 2.14D-02
 Coeff-Com: -0.193D-02 0.556D-01 0.401D+00 0.545D+00
 Coeff-En:   0.000D+00 0.000D+00 0.328D+00 0.672D+00
 Coeff:     -0.189D-02 0.544D-01 0.399D+00 0.548D+00
 Gap=     0.311 Goal=   None    Shift=    0.000
 RMSDP=2.40D-04 MaxDP=6.51D-03 DE=-1.30D-03 OVMax= 7.45D-03

 Cycle   5  Pass 0  IDiag  1:
 E= -324.892966315388     Delta-E=       -0.001031011718 Rises=F Damp=F
 DIIS: error= 2.76D-04 at cycle   5 NSaved=   5.
 NSaved= 5 IEnMin= 5 EnMin= -324.892966315388     IErMin= 5 ErrMin= 2.76D-04
 ErrMax= 2.76D-04  0.00D+00 EMaxC= 1.00D-01 BMatC= 2.94D-05 BMatP= 1.36D-03
 IDIUse=3 WtCom= 9.97D-01 WtEn= 2.76D-03
 Coeff-Com: -0.610D-03 0.692D-02 0.135D+00 0.231D+00 0.628D+00
 Coeff-En:   0.000D+00 0.000D+00 0.000D+00 0.000D+00 0.100D+01
 Coeff:     -0.608D-03 0.690D-02 0.134D+00 0.231D+00 0.629D+00
 Gap=     0.311 Goal=   None    Shift=    0.000
 RMSDP=4.36D-05 MaxDP=1.34D-03 DE=-1.03D-03 OVMax= 1.19D-03

 Cycle   6  Pass 0  IDiag  1:
 E= -324.892982809239     Delta-E=       -0.000016493851 Rises=F Damp=F
 DIIS: error= 1.51D-04 at cycle   6 NSaved=   6.
 NSaved= 6 IEnMin= 6 EnMin= -324.892982809239     IErMin= 6 ErrMin= 1.51D-04
 ErrMax= 1.51D-04  0.00D+00 EMaxC= 1.00D-01 BMatC= 8.04D-06 BMatP= 2.94D-05
 IDIUse=3 WtCom= 9.98D-01 WtEn= 1.51D-03
 Coeff-Com: -0.217D-03-0.594D-03 0.530D-01 0.103D+00 0.397D+00 0.448D+00
 Coeff-En:   0.000D+00 0.000D+00 0.000D+00 0.000D+00 0.180D+00 0.820D+00
 Coeff:     -0.217D-03-0.593D-03 0.529D-01 0.103D+00 0.397D+00 0.449D+00
 Gap=     0.311 Goal=   None    Shift=    0.000
 RMSDP=1.52D-05 MaxDP=5.16D-04 DE=-1.65D-05 OVMax= 4.33D-04

 Cycle   7  Pass 0  IDiag  1:
 E= -324.892988580433     Delta-E=       -0.000005771194 Rises=F Damp=F
 DIIS: error= 9.95D-06 at cycle   7 NSaved=   7.
 NSaved= 7 IEnMin= 7 EnMin= -324.892988580433     IErMin= 7 ErrMin= 9.95D-06
 ErrMax= 9.95D-06  0.00D+00 EMaxC= 1.00D-01 BMatC= 3.05D-08 BMatP= 8.04D-06
 IDIUse=1 WtCom= 1.00D+00 WtEn= 0.00D+00
 Coeff-Com: -0.203D-05-0.382D-03 0.923D-02 0.186D-01 0.820D-01 0.117D+00
 Coeff-Com:  0.774D+00
 Coeff:     -0.203D-05-0.382D-03 0.923D-02 0.186D-01 0.820D-01 0.117D+00
 Coeff:      0.774D+00
 Gap=     0.311 Goal=   None    Shift=    0.000
 RMSDP=1.66D-06 MaxDP=2.74D-05 DE=-5.77D-06 OVMax= 4.12D-05

 Initial convergence to 1.0D-05 achieved.  Increase integral accuracy.
 Cycle   8  Pass 1  IDiag  1:
 E= -324.893055437679     Delta-E=       -0.000066857246 Rises=F Damp=F
 DIIS: error= 1.01D-05 at cycle   1 NSaved=   1.
 NSaved= 1 IEnMin= 1 EnMin= -324.893055437679     IErMin= 1 ErrMin= 1.01D-05
 ErrMax= 1.01D-05  0.00D+00 EMaxC= 1.00D-01 BMatC= 2.49D-08 BMatP= 2.49D-08
 IDIUse=1 WtCom= 1.00D+00 WtEn= 0.00D+00
 Coeff-Com:  0.100D+01
 Coeff:      0.100D+01
 Gap=     0.311 Goal=   None    Shift=    0.000
 RMSDP=1.66D-06 MaxDP=2.74D-05 DE=-6.69D-05 OVMax= 3.89D-05

 Cycle   9  Pass 1  IDiag  1:
 E= -324.893055455034     Delta-E=       -0.000000017354 Rises=F Damp=F
 DIIS: error= 6.71D-06 at cycle   2 NSaved=   2.
 NSaved= 2 IEnMin= 2 EnMin= -324.893055455034     IErMin= 2 ErrMin= 6.71D-06
 ErrMax= 6.71D-06  0.00D+00 EMaxC= 1.00D-01 BMatC= 1.26D-08 BMatP= 2.49D-08
 IDIUse=1 WtCom= 1.00D+00 WtEn= 0.00D+00
 Coeff-Com:  0.384D+00 0.616D+00
 Coeff:      0.384D+00 0.616D+00
 Gap=     0.311 Goal=   None    Shift=    0.000
 RMSDP=1.07D-06 MaxDP=3.20D-05 DE=-1.74D-08 OVMax= 2.92D-05

 Cycle  10  Pass 1  IDiag  1:
 E= -324.893055462306     Delta-E=       -0.000000007273 Rises=F Damp=F
 DIIS: error= 4.19D-06 at cycle   3 NSaved=   3.
 NSaved= 3 IEnMin= 3 EnMin= -324.893055462306     IErMin= 3 ErrMin= 4.19D-06
 ErrMax= 4.19D-06  0.00D+00 EMaxC= 1.00D-01 BMatC= 4.09D-09 BMatP= 1.26D-08
 IDIUse=1 WtCom= 1.00D+00 WtEn= 0.00D+00
 Coeff-Com: -0.972D-02 0.360D+00 0.650D+00
 Coeff:     -0.972D-02 0.360D+00 0.650D+00
 Gap=     0.311 Goal=   None    Shift=    0.000
 RMSDP=3.96D-07 MaxDP=1.35D-05 DE=-7.27D-09 OVMax= 1.12D-05

 Cycle  11  Pass 1  IDiag  1:
 E= -324.893055465573     Delta-E=       -0.000000003267 Rises=F Damp=F
 DIIS: error= 5.81D-07 at cycle   4 NSaved=   4.
 NSaved= 4 IEnMin= 4 EnMin= -324.893055465573     IErMin= 4 ErrMin= 5.81D-07
 ErrMax= 5.81D-07  0.00D+00 EMaxC= 1.00D-01 BMatC= 1.44D-10 BMatP= 4.09D-09
 IDIUse=1 WtCom= 1.00D+00 WtEn= 0.00D+00
 Coeff-Com: -0.134D-01 0.184D+00 0.356D+00 0.474D+00
 Coeff:     -0.134D-01 0.184D+00 0.356D+00 0.474D+00
 Gap=     0.311 Goal=   None    Shift=    0.000
 RMSDP=8.02D-08 MaxDP=2.37D-06 DE=-3.27D-09 OVMax= 2.16D-06

 Cycle  12  Pass 1  IDiag  1:
 E= -324.893055465671     Delta-E=       -0.000000000098 Rises=F Damp=F
 DIIS: error= 1.49D-07 at cycle   5 NSaved=   5.
 NSaved= 5 IEnMin= 5 EnMin= -324.893055465671     IErMin= 5 ErrMin= 1.49D-07
 ErrMax= 1.49D-07  0.00D+00 EMaxC= 1.00D-01 BMatC= 8.54D-12 BMatP= 1.44D-10
 IDIUse=1 WtCom= 1.00D+00 WtEn= 0.00D+00
 Coeff-Com: -0.565D-02 0.632D-01 0.127D+00 0.244D+00 0.571D+00
 Coeff:     -0.565D-02 0.632D-01 0.127D+00 0.244D+00 0.571D+00
 Gap=     0.311 Goal=   None    Shift=    0.000
 RMSDP=2.34D-08 MaxDP=5.80D-07 DE=-9.78D-11 OVMax= 6.17D-07

 Cycle  13  Pass 1  IDiag  1:
 E= -324.893055465679     Delta-E=       -0.000000000008 Rises=F Damp=F
 DIIS: error= 3.26D-08 at cycle   6 NSaved=   6.
 NSaved= 6 IEnMin= 6 EnMin= -324.893055465679     IErMin= 6 ErrMin= 3.26D-08
 ErrMax= 3.26D-08  0.00D+00 EMaxC= 1.00D-01 BMatC= 4.55D-13 BMatP= 8.54D-12
 IDIUse=1 WtCom= 1.00D+00 WtEn= 0.00D+00
 Coeff-Com: -0.130D-02 0.120D-01 0.253D-01 0.608D-01 0.240D+00 0.664D+00
 Coeff:     -0.130D-02 0.120D-01 0.253D-01 0.608D-01 0.240D+00 0.664D+00
 Gap=     0.311 Goal=   None    Shift=    0.000
 RMSDP=5.94D-09 MaxDP=1.06D-07 DE=-7.73D-12 OVMax= 1.46D-07

 SCF Done:  E(RB3LYP) =  -324.893055466     A.U. after   13 cycles
            NFock= 13  Conv=0.59D-08     -V/T= 2.0088
 KE= 3.220591033110D+02 PE=-1.308953651347D+03 EE= 3.873434896848D+02
 Leave Link  502 at Thu Sep  8 15:06:07 2022, MaxMem= 24159191040 cpu:        43.2
 (Enter /public/home/users/caep010/software/Gaussian09/g09/l601.exe)
 Copying SCF densities to generalized density rwf, IOpCl= 0 IROHF=0.

 **********************************************************************

            Population analysis using the SCF density.

 **********************************************************************

 Orbital symmetries:
       Occupied  (A) (A) (A) (A) (A) (A) (A) (A) (A) (A) (A) (A)
                 (A) (A) (A) (A) (A) (A) (A) (A) (A) (A) (A) (A)
                 (A)
       Virtual   (A) (A) (A) (A) (A) (A) (A) (A) (A) (A) (A) (A)
                 (A) (A) (A) (A) (A) (A) (A) (A) (A) (A) (A) (A)
                 (A) (A) (A) (A) (A) (A) (A) (A) (A) (A) (A) (A)
                 (A) (A) (A) (A) (A) (A) (A) (A) (A) (A) (A) (A)
                 (A) (A) (A) (A) (A) (A) (A) (A) (A) (A) (A) (A)
                 (A) (A) (A) (A) (A) (A) (A) (A) (A) (A) (A) (A)
                 (A) (A) (A) (A) (A) (A) (A) (A) (A) (A) (A) (A)
                 (A) (A) (A) (A) (A) (A) (A) (A) (A) (A) (A) (A)
                 (A) (A) (A) (A) (A) (A) (A) (A) (A) (A) (A) (A)
                 (A) (A)
 The electronic state is 1-A.
 Alpha  occ. eigenvalues --  -19.16781 -19.15832 -14.36055 -10.28995 -10.18357
 Alpha  occ. eigenvalues --  -10.18311  -1.07985  -1.01451  -0.82001  -0.75097
 Alpha  occ. eigenvalues --   -0.70268  -0.59285  -0.53919  -0.50030  -0.47122
 Alpha  occ. eigenvalues --   -0.45567  -0.41965  -0.40246  -0.38946  -0.38187
 Alpha  occ. eigenvalues --   -0.37348  -0.32716  -0.30698  -0.27544  -0.24603
 Alpha virt. eigenvalues --    0.06511   0.08871   0.09900   0.13466   0.13852
 Alpha virt. eigenvalues --    0.15701   0.16397   0.18173   0.19487   0.19848
 Alpha virt. eigenvalues --    0.21876   0.23744   0.26160   0.26996   0.50370
 Alpha virt. eigenvalues --    0.54144   0.57289   0.57506   0.58783   0.61220
 Alpha virt. eigenvalues --    0.62977   0.67235   0.69550   0.71404   0.71810
 Alpha virt. eigenvalues --    0.73506   0.79374   0.83528   0.85052   0.86531
 Alpha virt. eigenvalues --    0.87268   0.87943   0.89210   0.92664   0.94043
 Alpha virt. eigenvalues --    0.95254   0.99049   1.00109   1.04229   1.09041
 Alpha virt. eigenvalues --    1.11936   1.16117   1.27706   1.28831   1.33659
 Alpha virt. eigenvalues --    1.37607   1.43179   1.48499   1.54795   1.56495
 Alpha virt. eigenvalues --    1.56735   1.64311   1.73853   1.77929   1.82860
 Alpha virt. eigenvalues --    1.85789   1.87018   1.87892   1.92840   1.94429
 Alpha virt. eigenvalues --    2.02127   2.03362   2.03880   2.05863   2.07237
 Alpha virt. eigenvalues --    2.10160   2.10500   2.12218   2.15679   2.17796
 Alpha virt. eigenvalues --    2.22137   2.23658   2.25596   2.29016   2.31753
 Alpha virt. eigenvalues --    2.35509   2.39714   2.42373   2.49612   2.60993
 Alpha virt. eigenvalues --    2.62489   2.64793   2.65779   2.71397   2.74220
 Alpha virt. eigenvalues --    2.76878   2.80170   2.81777   2.83857   2.84963
 Alpha virt. eigenvalues --    2.90895   2.94993   2.99399   3.05440   3.09786
 Alpha virt. eigenvalues --    3.18336   3.22992   3.28123   3.40816   3.41742
 Alpha virt. eigenvalues --    3.43665   3.44169   3.47647   3.50301   3.81633
 Alpha virt. eigenvalues --    3.95251   4.09792   4.38593   4.53142   4.67274
          Condensed to atoms (all electrons):
               1          2          3          4          5          6
     1  C    5.032058   0.372943  -0.067045  -0.043252  -0.061519   0.006080
     2  C    0.372943   4.604275   0.367520   0.223351   0.193069  -0.030852
     3  C   -0.067045   0.367520   5.040868  -0.074538  -0.052455  -0.009608
     4  O   -0.043252   0.223351  -0.074538   8.196660  -0.063690  -0.013233
     5  O   -0.061519   0.193069  -0.052455  -0.063690   8.318552   0.146709
     6  N    0.006080  -0.030852  -0.009608  -0.013233   0.146709   6.606173
     7  H    0.363647  -0.022101   0.005967  -0.003828   0.001098  -0.000122
     8  H    0.370888  -0.026387  -0.002871   0.000660   0.003511  -0.000160
     9  H    0.362544  -0.021447  -0.003784   0.003680   0.002095  -0.000104
    10  H    0.005745  -0.022506   0.362739  -0.001184  -0.003711   0.004975
    11  H   -0.003690  -0.019804   0.366096   0.001730   0.003080   0.000281
    12  H   -0.002785  -0.027945   0.372013   0.003568   0.001572  -0.000262
    13  H   -0.009238  -0.020201   0.009629   0.274635   0.003941   0.000161
    14  H   -0.000139  -0.007004   0.006903  -0.000703  -0.038249   0.319203
    15  H    0.001012  -0.012048  -0.002790   0.029104  -0.036722   0.314887
               7          8          9         10         11         12
     1  C    0.363647   0.370888   0.362544   0.005745  -0.003690  -0.002785
     2  C   -0.022101  -0.026387  -0.021447  -0.022506  -0.019804  -0.027945
     3  C    0.005967  -0.002871  -0.003784   0.362739   0.366096   0.372013
     4  O   -0.003828   0.000660   0.003680  -0.001184   0.001730   0.003568
     5  O    0.001098   0.003511   0.002095  -0.003711   0.003080   0.001572
     6  N   -0.000122  -0.000160  -0.000104   0.004975   0.000281  -0.000262
     7  H    0.593715  -0.028638  -0.025728  -0.000212  -0.000067  -0.000044
     8  H   -0.028638   0.592794  -0.026971  -0.000068   0.001681   0.000179
     9  H   -0.025728  -0.026971   0.585164  -0.000062   0.000304   0.001840
    10  H   -0.000212  -0.000068  -0.000062   0.601423  -0.027002  -0.029318
    11  H   -0.000067   0.001681   0.000304  -0.027002   0.584400  -0.026601
    12  H   -0.000044   0.000179   0.001840  -0.029318  -0.026601   0.591908
    13  H    0.006127  -0.000098  -0.000128  -0.000155  -0.000291  -0.000334
    14  H    0.000038   0.000012  -0.000025   0.004519  -0.000336   0.000236
    15  H   -0.000025   0.000014  -0.000044   0.002393   0.000021   0.000177
              13         14         15
     1  C   -0.009238  -0.000139   0.001012
     2  C   -0.020201  -0.007004  -0.012048
     3  C    0.009629   0.006903  -0.002790
     4  O    0.274635  -0.000703   0.029104
     5  O    0.003941  -0.038249  -0.036722
     6  N    0.000161   0.319203   0.314887
     7  H    0.006127   0.000038  -0.000025
     8  H   -0.000098   0.000012   0.000014
     9  H   -0.000128  -0.000025  -0.000044
    10  H   -0.000155   0.004519   0.002393
    11  H   -0.000291  -0.000336   0.000021
    12  H   -0.000334   0.000236   0.000177
    13  H    0.429360   0.000195  -0.001531
    14  H    0.000195   0.511213  -0.042785
    15  H   -0.001531  -0.042785   0.498772
 Mulliken charges:
               1
     1  C   -0.327250
     2  C    0.449137
     3  C   -0.318645
     4  O   -0.532961
     5  O   -0.417284
     6  N   -0.344128
     7  H    0.110173
     8  H    0.115455
     9  H    0.122667
    10  H    0.102424
    11  H    0.120200
    12  H    0.115796
    13  H    0.307929
    14  H    0.246922
    15  H    0.249565
 Sum of Mulliken charges =  -0.00000
 Mulliken charges with hydrogens summed into heavy atoms:
               1
     1  C    0.021044
     2  C    0.449137
     3  C    0.019776
     4  O   -0.225032
     5  O   -0.417284
     6  N    0.152360
 Electronic spatial extent (au):  <R**2>=            578.2023
 Charge=             -0.0000 electrons
 Dipole moment (field-independent basis, Debye):
    X=             -1.4171    Y=              0.9933    Z=              0.6869  Tot=              1.8619
 Quadrupole moment (field-independent basis, Debye-Ang):
   XX=            -37.9439   YY=            -35.3515   ZZ=            -38.3504
   XY=              4.5661   XZ=              2.5991   YZ=             -4.0903
 Traceless Quadrupole moment (field-independent basis, Debye-Ang):
   XX=             -0.7287   YY=              1.8638   ZZ=             -1.1352
   XY=              4.5661   XZ=              2.5991   YZ=             -4.0903
 Octapole moment (field-independent basis, Debye-Ang**2):
  XXX=             -2.1040  YYY=             -5.0973  ZZZ=              1.9350  XYY=             -0.5638
  XXY=              7.8307  XXZ=              5.6982  XZZ=              2.0096  YZZ=             -4.3952
  YYZ=              5.7676  XYZ=             -1.6896
 Hexadecapole moment (field-independent basis, Debye-Ang**3):
 XXXX=           -384.9788 YYYY=           -202.6967 ZZZZ=           -154.0456 XXXY=             18.1932
 XXXZ=              4.7347 YYYX=              4.1112 YYYZ=             -5.8260 ZZZX=              0.5773
 ZZZY=            -11.5021 XXYY=            -95.2634 XXZZ=            -84.6763 YYZZ=            -54.2743
 XXYZ=             -4.1996 YYXZ=             -2.4819 ZZXY=              2.5585
 N-N= 2.746580028860D+02 E-N=-1.308953653475D+03  KE= 3.220591033110D+02
 No NMR shielding tensors so no spin-rotation constants.
 Leave Link  601 at Thu Sep  8 15:06:08 2022, MaxMem= 24159191040 cpu:        12.8
 (Enter /public/home/users/caep010/software/Gaussian09/g09/l701.exe)
 Compute integral first derivatives.
 ... and contract with generalized density number  0.
 Leave Link  701 at Thu Sep  8 15:06:08 2022, MaxMem= 24159191040 cpu:        11.3
 (Enter /public/home/users/caep010/software/Gaussian09/g09/l702.exe)
 L702 exits ... SP integral derivatives will be done elsewhere.
 Leave Link  702 at Thu Sep  8 15:06:08 2022, MaxMem= 24159191040 cpu:         0.5
 (Enter /public/home/users/caep010/software/Gaussian09/g09/l703.exe)
 Compute integral first derivatives, UseDBF=F ICtDFT=           0.
 Integral derivatives from FoFJK, PRISM(SPDF).
 Calling FoFJK, ICntrl=      2127 FMM=F ISym2X=0 I1Cent= 0 IOpClX= 0 NMat=1 NMatS=1 NMatT=0.
 FoFJK:  IHMeth= 1 ICntrl=    2127 DoSepK=F KAlg= 0 I1Cent=   0 FoldK=F
 IRaf=         0 NMat=   1 IRICut=       1 DoRegI=T DoRafI=F ISym2E= 0.
 FoFCou: FMM=F IPFlag=           0 FMFlag=      100000 FMFlg1=         800
         NFxFlg=           0 DoJE=F BraDBF=F KetDBF=F FulRan=T
         wScrn=  0.000000 ICntrl=    2127 IOpCl=  0 I1Cent=           0 NGrid=           0
         NMat0=    1 NMatS0=      1 NMatT0=    0 NMatD0=    1 NMtDS0=    0 NMtDT0=    0
 Symmetry not used in FoFCou.
 Leave Link  703 at Thu Sep  8 15:06:09 2022, MaxMem= 24159191040 cpu:        12.9
 (Enter /public/home/users/caep010/software/Gaussian09/g09/l716.exe)
 Dipole        =-5.57549592D-01 3.90778019D-01 2.70244516D-01
 ***** Axes restored to original set *****
 -------------------------------------------------------------------
 Center     Atomic                   Forces (Hartrees/Bohr)
 Number     Number              X              Y              Z
 -------------------------------------------------------------------
      1        6           0.000138569    0.000117724   -0.000022800
      2        6          -0.000914570   -0.002663373    0.000358325
      3        6          -0.000150220   -0.000089315   -0.000029738
      4        8           0.002029779   -0.002364454   -0.002164092
      5        8          -0.001692896    0.000950371    0.002331482
      6        7           0.002293244    0.001938645    0.000097379
      7        1          -0.000097871    0.000097244    0.000029291
      8        1          -0.000086519   -0.000119887   -0.000036534
      9        1          -0.000067614    0.000002850    0.000036787
     10        1           0.000150346    0.000082627   -0.000039982
     11        1           0.000095161   -0.000017829   -0.000056022
     12        1          -0.000024282   -0.000113969    0.000105447
     13        1          -0.002145552    0.002866167    0.000001700
     14        1           0.000692900   -0.000871112    0.000367503
     15        1          -0.000220476    0.000184313   -0.000978745
 -------------------------------------------------------------------
 Cartesian Forces:  Max     0.002866167 RMS     0.001116534
 Leave Link  716 at Thu Sep  8 15:06:09 2022, MaxMem= 24159191040 cpu:         0.7
 (Enter /public/home/users/caep010/software/Gaussian09/g09/l103.exe)

 GradGradGradGradGradGradGradGradGradGradGradGradGradGradGradGradGradGrad
 Berny optimization.
 FormGI is forming the generalized inverse of G from B-inverse, IUseBI=4.
 Internal  Forces:  Max     0.003562467 RMS     0.000785562
 Search for a local minimum.
 Step number   1 out of a maximum of   74
 All quantities printed in internal units (Hartrees-Bohrs-Radians)
 RMS Force = .78556D-03 SwitMx=.10000D-02 MixMth= 2
 Mixed Optimization -- En-DIIS/RFO-DIIS
 Second derivative matrix not updated -- first step.
 ITU=  0
     Eigenvalues ---    0.00403   0.00412   0.00930   0.01285   0.01478
     Eigenvalues ---    0.05264   0.05614   0.05651   0.05651   0.05721
     Eigenvalues ---    0.05749   0.06424   0.08757   0.12394   0.16000
     Eigenvalues ---    0.16000   0.16000   0.16000   0.16000   0.16000
     Eigenvalues ---    0.16000   0.16000   0.17011   0.18863   0.25000
     Eigenvalues ---    0.29662   0.29722   0.34288   0.34489   0.34513
     Eigenvalues ---    0.34518   0.34531   0.34536   0.40884   0.41339
     Eigenvalues ---    0.43046   0.43904   0.44039   0.54411
 RFO step:  Lambda=-1.01612229D-04 EMin= 4.03025226D-03
 Linear search not attempted -- first point.
 Iteration  1 RMS(Cart)=  0.00809604 RMS(Int)=  0.00003984
 Iteration  2 RMS(Cart)=  0.00004295 RMS(Int)=  0.00000018
 Iteration  3 RMS(Cart)=  0.00000000 RMS(Int)=  0.00000018
 ITry= 1 IFail=0 DXMaxC= 3.35D-02 DCOld= 1.00D+10 DXMaxT= 3.00D-01 DXLimC= 3.00D+00 Rises=F
 Variable       Old X    -DE/DX   Delta X   Delta X   Delta X     New X
                                 (Linear)    (Quad)   (Total)
    R1        2.88520   0.00009   0.00000   0.00030   0.00030   2.88551
    R2        2.06846   0.00013   0.00000   0.00039   0.00039   2.06885
    R3        2.06444   0.00014   0.00000   0.00041   0.00041   2.06485
    R4        2.06474   0.00003   0.00000   0.00009   0.00009   2.06483
    R5        2.88644   0.00016   0.00000   0.00053   0.00053   2.88696
    R6        2.67612   0.00221   0.00000   0.00514   0.00514   2.68126
    R7        2.70369   0.00305   0.00000   0.00746   0.00746   2.71116
    R8        2.06465   0.00017   0.00000   0.00048   0.00048   2.06513
    R9        2.06436  -0.00000   0.00000  -0.00000  -0.00000   2.06435
   R10        2.06513   0.00014   0.00000   0.00040   0.00040   2.06553
   R11        1.82359   0.00356   0.00000   0.00655   0.00655   1.83014
   R12        2.69773   0.00306   0.00000   0.00741   0.00741   2.70514
   R13        1.93108   0.00116   0.00000   0.00264   0.00264   1.93371
   R14        1.93270   0.00099   0.00000   0.00225   0.00225   1.93495
    A1        1.91650   0.00004   0.00000   0.00025   0.00025   1.91675
    A2        1.92115   0.00004   0.00000   0.00026   0.00026   1.92141
    A3        1.93227   0.00008   0.00000   0.00043   0.00043   1.93270
    A4        1.90521  -0.00003   0.00000  -0.00008  -0.00008   1.90513
    A5        1.88290  -0.00007   0.00000  -0.00047  -0.00047   1.88243
    A6        1.90522  -0.00006   0.00000  -0.00043  -0.00043   1.90479
    A7        1.96585   0.00016   0.00000   0.00065   0.00065   1.96649
    A8        1.94960  -0.00012   0.00000  -0.00113  -0.00113   1.94847
    A9        1.81187  -0.00011   0.00000  -0.00081  -0.00081   1.81106
   A10        1.85194  -0.00003   0.00000   0.00001   0.00001   1.85194
   A11        1.96873  -0.00001   0.00000   0.00031   0.00031   1.96903
   A12        1.91797   0.00012   0.00000   0.00098   0.00098   1.91895
   A13        1.93697  -0.00010   0.00000  -0.00074  -0.00074   1.93624
   A14        1.92011   0.00011   0.00000   0.00076   0.00076   1.92087
   A15        1.92056   0.00005   0.00000   0.00039   0.00039   1.92094
   A16        1.87763  -0.00003   0.00000  -0.00033  -0.00033   1.87730
   A17        1.90584   0.00002   0.00000   0.00001   0.00001   1.90585
   A18        1.90191  -0.00006   0.00000  -0.00010  -0.00010   1.90181
   A19        1.87037  -0.00027   0.00000  -0.00169  -0.00169   1.86869
   A20        1.99948   0.00054   0.00000   0.00217   0.00217   2.00165
   A21        1.85675  -0.00006   0.00000  -0.00042  -0.00042   1.85633
   A22        1.83869  -0.00016   0.00000  -0.00144  -0.00144   1.83725
   A23        1.84926   0.00023   0.00000   0.00173   0.00173   1.85100
    D1        3.10850   0.00001   0.00000   0.00267   0.00267   3.11117
    D2       -1.09237  -0.00001   0.00000   0.00233   0.00233  -1.09004
    D3        0.97335   0.00001   0.00000   0.00246   0.00246   0.97582
    D4       -1.07679   0.00003   0.00000   0.00290   0.00290  -1.07389
    D5        1.00553   0.00001   0.00000   0.00256   0.00256   1.00809
    D6        3.07125   0.00002   0.00000   0.00269   0.00269   3.07394
    D7        1.03124   0.00002   0.00000   0.00282   0.00282   1.03406
    D8        3.11356   0.00000   0.00000   0.00248   0.00248   3.11604
    D9       -1.10391   0.00002   0.00000   0.00261   0.00261  -1.10130
   D10        3.07193   0.00003   0.00000   0.00994   0.00994   3.08187
   D11        0.99596   0.00005   0.00000   0.01033   0.01033   1.00628
   D12       -1.09977   0.00001   0.00000   0.00973   0.00973  -1.09004
   D13        0.93372   0.00011   0.00000   0.01094   0.01094   0.94466
   D14       -1.14226   0.00013   0.00000   0.01133   0.01133  -1.13093
   D15        3.04520   0.00009   0.00000   0.01073   0.01073   3.05593
   D16       -1.16711  -0.00002   0.00000   0.00956   0.00956  -1.15755
   D17        3.04010   0.00001   0.00000   0.00995   0.00995   3.05005
   D18        0.94437  -0.00003   0.00000   0.00935   0.00935   0.95372
   D19        0.88260   0.00007   0.00000   0.00981   0.00981   0.89241
   D20        3.03109   0.00017   0.00000   0.00993   0.00993   3.04101
   D21       -1.11865   0.00021   0.00000   0.01086   0.01086  -1.10779
   D22       -3.06220   0.00018   0.00000   0.00724   0.00724  -3.05496
   D23        1.08775   0.00006   0.00000   0.00681   0.00681   1.09456
   D24       -0.97478   0.00003   0.00000   0.00595   0.00595  -0.96883
   D25       -1.23600   0.00000   0.00000   0.00861   0.00861  -1.22740
   D26        0.72223   0.00017   0.00000   0.00976   0.00976   0.73199
   D27        1.95090  -0.00010   0.00000  -0.00105  -0.00106   1.94984
         Item               Value     Threshold  Converged?
 Maximum Force            0.003562     0.000450     NO 
 RMS     Force            0.000786     0.000300     NO 
 Maximum Displacement     0.033457     0.001800     NO 
 RMS     Displacement     0.008102     0.001200     NO 
 Predicted change in Energy=-5.089960D-05
 Lowest energy point so far.  Saving SCF results.
 GradGradGradGradGradGradGradGradGradGradGradGradGradGradGradGradGradGrad

 Leave Link  103 at Thu Sep  8 15:06:09 2022, MaxMem= 24159191040 cpu:         2.7
 (Enter /public/home/users/caep010/software/Gaussian09/g09/l202.exe)
                          Input orientation:                          
 ---------------------------------------------------------------------
 Center     Atomic      Atomic             Coordinates (Angstroms)
 Number     Number       Type             X           Y           Z
 ---------------------------------------------------------------------
      1          6           0       -1.639512   -0.218847    0.534169
      2          6           0       -0.218176    0.035708    0.037618
      3          6           0        0.649127   -1.221653    0.064823
      4          8           0       -0.207174    0.492551   -1.305640
      5          8           0        0.268485    1.066241    0.909097
      6          7           0        1.566644    1.568352    0.574644
      7          1           0       -2.209172    0.716008    0.524408
      8          1           0       -2.136854   -0.948515   -0.109388
      9          1           0       -1.629409   -0.594316    1.560242
     10          1           0        1.639537   -1.022000   -0.351694
     11          1           0        0.189530   -2.006977   -0.539656
     12          1           0        0.756737   -1.580778    1.091550
     13          1           0       -0.826179    1.235510   -1.358278
     14          1           0        2.229957    0.820265    0.792533
     15          1           0        1.566358    1.658352   -0.445327
 ---------------------------------------------------------------------
                    Distance matrix (angstroms):
                    1          2          3          4          5
     1  C    0.000000
     2  C    1.526944   0.000000
     3  C    2.542396   1.527714   0.000000
     4  O    2.437741   1.418862   2.355826   0.000000
     5  O    2.330767   1.434682   2.468227   2.336757   0.000000
     6  N    3.670852   2.413084   2.980919   2.799865   1.431499
     7  H    1.094789   2.159593   3.483623   2.721582   2.531686
     8  H    1.092671   2.161396   2.804754   2.689119   3.298819
     9  H    1.092659   2.169537   2.796704   3.378951   2.604504
    10  H    3.490269   2.172880   1.092822   2.571812   2.798236
    11  H    2.774149   2.161487   1.092409   2.644191   3.398497
    12  H    2.812035   2.162003   1.093033   3.312754   2.697849
    13  H    2.521512   1.938484   3.199906   0.968466   2.523476
    14  H    4.014885   2.679325   2.682911   3.232543   1.980268
    15  H    3.841991   2.459831   3.065288   2.290119   1.967113
                    6          7          8          9         10
     6  N    0.000000
     7  H    3.871150   0.000000
     8  H    4.529726   1.782573   0.000000
     9  H    3.982875   1.768058   1.780624   0.000000
    10  H    2.751969   4.312864   3.784871   3.811092   0.000000
    11  H    3.990123   3.781620   2.591821   3.116684   1.762961
    12  H    3.292440   3.793876   3.196072   2.624208   1.781720
    13  H    3.093957   2.393127   2.836823   3.537117   3.491321
    14  H    1.023276   4.448441   4.796987   4.181521   2.247619
    15  H    1.023934   4.010365   4.541188   4.394286   2.682984
                   11         12         13         14         15
    11  H    0.000000
    12  H    1.778820   0.000000
    13  H    3.495072   4.054474   0.000000
    14  H    3.732474   2.832808   3.760104   0.000000
    15  H    3.916527   3.675519   2.595479   1.635558   0.000000
 Stoichiometry    C3H9NO2
 Framework group  C1[X(C3H9NO2)]
 Deg. of freedom    39
 Full point group                 C1      NOp   1
 RotChk:  IX=0 Diff= 6.52D-03
 Largest Abelian subgroup         C1      NOp   1
 Largest concise Abelian subgroup C1      NOp   1
                         Standard orientation:                         
 ---------------------------------------------------------------------
 Center     Atomic      Atomic             Coordinates (Angstroms)
 Number     Number       Type             X           Y           Z
 ---------------------------------------------------------------------
      1          6           0       -1.616182   -0.665323   -0.544661
      2          6           0       -0.379808    0.022465    0.029695
      3          6           0       -0.392797    1.534590   -0.187604
      4          8           0       -0.275966   -0.172973    1.431191
      5          8           0        0.712417   -0.626085   -0.637195
      6          7           0        2.010678   -0.228696   -0.183553
      7          1           0       -1.544276   -1.746915   -0.391199
      8          1           0       -2.516659   -0.292198   -0.050849
      9          1           0       -1.695664   -0.483960   -1.619228
     10          1           0        0.472736    2.004622    0.285876
     11          1           0       -1.289677    1.969631    0.259276
     12          1           0       -0.383798    1.759781   -1.257150
     13          1           0       -0.359183   -1.124283    1.592470
     14          1           0        2.147362    0.732400   -0.507137
     15          1           0        1.935526   -0.176140    0.836266
 ---------------------------------------------------------------------
 Rotational constants (GHZ):      4.6495731      2.8961812      2.7910492
 Leave Link  202 at Thu Sep  8 15:06:09 2022, MaxMem= 24159191040 cpu:         0.3
 (Enter /public/home/users/caep010/software/Gaussian09/g09/l301.exe)
 Standard basis: 6-31G(d,p) (6D, 7F)
 Ernie: Thresh=  0.10000D-02 Tol=  0.10000D-05 Strict=F.
 There are   135 symmetry adapted cartesian basis functions of A   symmetry.
 There are   135 symmetry adapted basis functions of A   symmetry.
   135 basis functions,   231 primitive gaussians,   135 cartesian basis functions
    25 alpha electrons       25 beta electrons
       nuclear repulsion energy       274.2156508929 Hartrees.
 IExCor=  402 DFT=T Ex+Corr=B3LYP ExCW=0 ScaHFX=  0.200000
 ScaDFX=  0.800000  0.720000  1.000000  0.810000 ScalE2=  1.000000  1.000000
 IRadAn=      0 IRanWt=     -1 IRanGd=            0 ICorTp=0 IEmpDi=  4
 NAtoms=   15 NActive=   15 NUniq=   15 SFac= 1.00D+00 NAtFMM=   60 NAOKFM=F Big=F
 Integral buffers will be    131072 words long.
 Raffenetti 2 integral format.
 Two-electron integral symmetry is turned on.
 Leave Link  301 at Thu Sep  8 15:06:09 2022, MaxMem= 24159191040 cpu:         1.6
 (Enter /public/home/users/caep010/software/Gaussian09/g09/l302.exe)
 NPDir=0 NMtPBC=     1 NCelOv=     1 NCel=       1 NClECP=     1 NCelD=      1
         NCelK=      1 NCelE2=     1 NClLst=     1 CellRange=     0.0.
 One-electron integrals computed using PRISM.
 NBasis=   135 RedAO= T EigKep=  2.85D-03  NBF=   135
 NBsUse=   135 1.00D-06 EigRej= -1.00D+00 NBFU=   135
 Precomputing XC quadrature grid using
 IXCGrd= 4 IRadAn=           0 IRanWt=          -1 IRanGd=           0 AccXCQ= 0.00D+00.
 Generated NRdTot=       0 NPtTot=           0 NUsed=           0 NTot=          32
 NSgBfM=   135   135   135   135   135 MxSgAt=    15 MxSgA2=    15.
 Leave Link  302 at Thu Sep  8 15:06:10 2022, MaxMem= 24159191040 cpu:        14.0
 (Enter /public/home/users/caep010/software/Gaussian09/g09/l303.exe)
 DipDrv:  MaxL=1.
 Leave Link  303 at Thu Sep  8 15:06:10 2022, MaxMem= 24159191040 cpu:         0.9
 (Enter /public/home/users/caep010/software/Gaussian09/g09/l401.exe)
 Initial guess from the checkpoint file:  "B3LYP6-31Gdp.Frag_581.chk"
 B after Tr=     0.000000    0.000000    0.000000
         Rot=    0.999997    0.000589   -0.000135   -0.002239 Ang=   0.27 deg.
 Guess basis will be translated and rotated to current coordinates.
 JPrj=2 DoOrth=T DoCkMO=T.
 Generating alternative initial guess.
 ExpMin= 1.61D-01 ExpMax= 5.48D+03 ExpMxC= 8.25D+02 IAcc=1 IRadAn=         1 AccDes= 0.00D+00
 Harris functional with IExCor=  402 and IRadAn=       1 diagonalized for initial guess.
 HarFok:  IExCor=  402 AccDes= 0.00D+00 IRadAn=         1 IDoV= 1 UseB2=F ITyADJ=14
 ICtDFT=  3500011 ScaDFX=  1.000000  1.000000  1.000000  1.000000
 FoFCou: FMM=F IPFlag=           0 FMFlag=      100000 FMFlg1=           0
         NFxFlg=           0 DoJE=T BraDBF=F KetDBF=T FulRan=T
         wScrn=  0.000000 ICntrl=     500 IOpCl=  0 I1Cent=   200000004 NGrid=           0
         NMat0=    1 NMatS0=      1 NMatT0=    0 NMatD0=    1 NMtDS0=    0 NMtDT0=    0
 Petite list used in FoFCou.
 Harris En= -324.935377535438    
 Leave Link  401 at Thu Sep  8 15:06:10 2022, MaxMem= 24159191040 cpu:        11.6
 (Enter /public/home/users/caep010/software/Gaussian09/g09/l502.exe)
 Closed shell SCF:
 Using DIIS extrapolation, IDIIS=  1040.
 Integral symmetry usage will be decided dynamically.
 Keep R1 ints in memory in canonical form, NReq=43477021.
 IVT=       78571 IEndB=       78571 NGot= 24159191040 MDV= 24116971680
 LenX= 24116971680 LenY= 24116953014
 Requested convergence on RMS density matrix=1.00D-08 within 128 cycles.
 Requested convergence on MAX density matrix=1.00D-06.
 Requested convergence on             energy=1.00D-06.
 No special actions if energy rises.
 FoFCou: FMM=F IPFlag=           0 FMFlag=           0 FMFlg1=           0
         NFxFlg=           0 DoJE=F BraDBF=F KetDBF=F FulRan=T
         wScrn=  0.000000 ICntrl=     600 IOpCl=  0 I1Cent=           0 NGrid=           0
         NMat0=    1 NMatS0=   9180 NMatT0=    0 NMatD0=    1 NMtDS0=    0 NMtDT0=    0
 Symmetry not used in FoFCou.
 Integral accuracy reduced to 1.0D-05 until final iterations.

 Cycle   1  Pass 0  IDiag  1:
 E= -324.892945392790    
 DIIS: error= 5.41D-04 at cycle   1 NSaved=   1.
 NSaved= 1 IEnMin= 1 EnMin= -324.892945392790     IErMin= 1 ErrMin= 5.41D-04
 ErrMax= 5.41D-04  0.00D+00 EMaxC= 1.00D-01 BMatC= 6.40D-05 BMatP= 6.40D-05
 IDIUse=3 WtCom= 9.95D-01 WtEn= 5.41D-03
 Coeff-Com:  0.100D+01
 Coeff-En:   0.100D+01
 Coeff:      0.100D+01
 Gap=     1.568 Goal=   None    Shift=    0.000
 RMSDP=9.46D-05 MaxDP=2.07D-03              OVMax= 2.68D-03

 Cycle   2  Pass 0  IDiag  1:
 E= -324.893047067554     Delta-E=       -0.000101674764 Rises=F Damp=F
 DIIS: error= 8.97D-05 at cycle   2 NSaved=   2.
 NSaved= 2 IEnMin= 2 EnMin= -324.893047067554     IErMin= 2 ErrMin= 8.97D-05
 ErrMax= 8.97D-05  0.00D+00 EMaxC= 1.00D-01 BMatC= 2.51D-06 BMatP= 6.40D-05
 IDIUse=1 WtCom= 1.00D+00 WtEn= 0.00D+00
 Coeff-Com: -0.293D-02 0.100D+01
 Coeff:     -0.293D-02 0.100D+01
 Gap=     0.311 Goal=   None    Shift=    0.000
 RMSDP=2.28D-05 MaxDP=6.68D-04 DE=-1.02D-04 OVMax= 6.45D-04

 Cycle   3  Pass 0  IDiag  1:
 E= -324.893047010001     Delta-E=        0.000000057553 Rises=F Damp=F
 DIIS: error= 1.16D-04 at cycle   3 NSaved=   3.
 NSaved= 3 IEnMin= 2 EnMin= -324.893047067554     IErMin= 2 ErrMin= 8.97D-05
 ErrMax= 1.16D-04  0.00D+00 EMaxC= 1.00D-01 BMatC= 3.47D-06 BMatP= 2.51D-06
 IDIUse=3 WtCom= 4.81D-01 WtEn= 5.19D-01
 Coeff-Com: -0.380D-01 0.566D+00 0.472D+00
 Coeff-En:   0.000D+00 0.507D+00 0.493D+00
 Coeff:     -0.183D-01 0.535D+00 0.483D+00
 Gap=     0.311 Goal=   None    Shift=    0.000
 RMSDP=1.30D-05 MaxDP=4.44D-04 DE= 5.76D-08 OVMax= 4.14D-04

 Cycle   4  Pass 0  IDiag  1:
 E= -324.893049507919     Delta-E=       -0.000002497918 Rises=F Damp=F
 DIIS: error= 2.35D-05 at cycle   4 NSaved=   4.
 NSaved= 4 IEnMin= 4 EnMin= -324.893049507919     IErMin= 4 ErrMin= 2.35D-05
 ErrMax= 2.35D-05  0.00D+00 EMaxC= 1.00D-01 BMatC= 1.46D-07 BMatP= 2.51D-06
 IDIUse=1 WtCom= 1.00D+00 WtEn= 0.00D+00
 Coeff-Com: -0.162D-01 0.181D+00 0.239D+00 0.596D+00
 Coeff:     -0.162D-01 0.181D+00 0.239D+00 0.596D+00
 Gap=     0.311 Goal=   None    Shift=    0.000
 RMSDP=2.76D-06 MaxDP=7.84D-05 DE=-2.50D-06 OVMax= 8.84D-05

 Initial convergence to 1.0D-05 achieved.  Increase integral accuracy.
 Cycle   5  Pass 1  IDiag  1:
 E= -324.893111155645     Delta-E=       -0.000061647726 Rises=F Damp=F
 DIIS: error= 9.92D-06 at cycle   1 NSaved=   1.
 NSaved= 1 IEnMin= 1 EnMin= -324.893111155645     IErMin= 1 ErrMin= 9.92D-06
 ErrMax= 9.92D-06  0.00D+00 EMaxC= 1.00D-01 BMatC= 3.12D-08 BMatP= 3.12D-08
 IDIUse=1 WtCom= 1.00D+00 WtEn= 0.00D+00
 Coeff-Com:  0.100D+01
 Coeff:      0.100D+01
 Gap=     0.311 Goal=   None    Shift=    0.000
 RMSDP=2.76D-06 MaxDP=7.84D-05 DE=-6.16D-05 OVMax= 6.16D-05

 Cycle   6  Pass 1  IDiag  1:
 E= -324.893111161122     Delta-E=       -0.000000005477 Rises=F Damp=F
 DIIS: error= 1.06D-05 at cycle   2 NSaved=   2.
 NSaved= 2 IEnMin= 2 EnMin= -324.893111161122     IErMin= 1 ErrMin= 9.92D-06
 ErrMax= 1.06D-05  0.00D+00 EMaxC= 1.00D-01 BMatC= 3.54D-08 BMatP= 3.12D-08
 IDIUse=1 WtCom= 1.00D+00 WtEn= 0.00D+00
 Coeff-Com:  0.520D+00 0.480D+00
 Coeff:      0.520D+00 0.480D+00
 Gap=     0.311 Goal=   None    Shift=    0.000
 RMSDP=1.56D-06 MaxDP=3.87D-05 DE=-5.48D-09 OVMax= 4.14D-05

 Cycle   7  Pass 1  IDiag  1:
 E= -324.893111186056     Delta-E=       -0.000000024934 Rises=F Damp=F
 DIIS: error= 3.16D-06 at cycle   3 NSaved=   3.
 NSaved= 3 IEnMin= 3 EnMin= -324.893111186056     IErMin= 3 ErrMin= 3.16D-06
 ErrMax= 3.16D-06  0.00D+00 EMaxC= 1.00D-01 BMatC= 3.72D-09 BMatP= 3.12D-08
 IDIUse=1 WtCom= 1.00D+00 WtEn= 0.00D+00
 Coeff-Com:  0.226D-01 0.241D+00 0.736D+00
 Coeff:      0.226D-01 0.241D+00 0.736D+00
 Gap=     0.311 Goal=   None    Shift=    0.000
 RMSDP=4.01D-07 MaxDP=1.14D-05 DE=-2.49D-08 OVMax= 1.07D-05

 Cycle   8  Pass 1  IDiag  1:
 E= -324.893111188355     Delta-E=       -0.000000002299 Rises=F Damp=F
 DIIS: error= 1.48D-06 at cycle   4 NSaved=   4.
 NSaved= 4 IEnMin= 4 EnMin= -324.893111188355     IErMin= 4 ErrMin= 1.48D-06
 ErrMax= 1.48D-06  0.00D+00 EMaxC= 1.00D-01 BMatC= 4.80D-10 BMatP= 3.72D-09
 IDIUse=1 WtCom= 1.00D+00 WtEn= 0.00D+00
 Coeff-Com: -0.148D-01 0.112D+00 0.420D+00 0.483D+00
 Coeff:     -0.148D-01 0.112D+00 0.420D+00 0.483D+00
 Gap=     0.311 Goal=   None    Shift=    0.000
 RMSDP=1.45D-07 MaxDP=3.58D-06 DE=-2.30D-09 OVMax= 3.55D-06

 Cycle   9  Pass 1  IDiag  1:
 E= -324.893111188761     Delta-E=       -0.000000000406 Rises=F Damp=F
 DIIS: error= 1.19D-07 at cycle   5 NSaved=   5.
 NSaved= 5 IEnMin= 5 EnMin= -324.893111188761     IErMin= 5 ErrMin= 1.19D-07
 ErrMax= 1.19D-07  0.00D+00 EMaxC= 1.00D-01 BMatC= 4.25D-12 BMatP= 4.80D-10
 IDIUse=1 WtCom= 1.00D+00 WtEn= 0.00D+00
 Coeff-Com: -0.611D-02 0.384D-01 0.145D+00 0.188D+00 0.635D+00
 Coeff:     -0.611D-02 0.384D-01 0.145D+00 0.188D+00 0.635D+00
 Gap=     0.311 Goal=   None    Shift=    0.000
 RMSDP=1.69D-08 MaxDP=4.35D-07 DE=-4.06D-10 OVMax= 4.48D-07

 Cycle  10  Pass 1  IDiag  1:
 E= -324.893111188762     Delta-E=       -0.000000000001 Rises=F Damp=F
 DIIS: error= 6.35D-08 at cycle   6 NSaved=   6.
 NSaved= 6 IEnMin= 6 EnMin= -324.893111188762     IErMin= 6 ErrMin= 6.35D-08
 ErrMax= 6.35D-08  0.00D+00 EMaxC= 1.00D-01 BMatC= 1.15D-12 BMatP= 4.25D-12
 IDIUse=1 WtCom= 1.00D+00 WtEn= 0.00D+00
 Coeff-Com: -0.133D-02 0.654D-02 0.249D-01 0.408D-01 0.358D+00 0.571D+00
 Coeff:     -0.133D-02 0.654D-02 0.249D-01 0.408D-01 0.358D+00 0.571D+00
 Gap=     0.311 Goal=   None    Shift=    0.000
 RMSDP=6.80D-09 MaxDP=2.37D-07 DE=-6.82D-13 OVMax= 2.19D-07

 SCF Done:  E(RB3LYP) =  -324.893111189     A.U. after   10 cycles
            NFock= 10  Conv=0.68D-08     -V/T= 2.0089
 KE= 3.220268137755D+02 PE=-1.308055246291D+03 EE= 3.869196704338D+02
 Leave Link  502 at Thu Sep  8 15:06:12 2022, MaxMem= 24159191040 cpu:        35.5
 (Enter /public/home/users/caep010/software/Gaussian09/g09/l701.exe)
 Compute integral first derivatives.
 ... and contract with generalized density number  0.
 Leave Link  701 at Thu Sep  8 15:06:12 2022, MaxMem= 24159191040 cpu:        10.4
 (Enter /public/home/users/caep010/software/Gaussian09/g09/l702.exe)
 L702 exits ... SP integral derivatives will be done elsewhere.
 Leave Link  702 at Thu Sep  8 15:06:12 2022, MaxMem= 24159191040 cpu:         0.5
 (Enter /public/home/users/caep010/software/Gaussian09/g09/l703.exe)
 Compute integral first derivatives, UseDBF=F ICtDFT=           0.
 Integral derivatives from FoFJK, PRISM(SPDF).
 Calling FoFJK, ICntrl=      2127 FMM=F ISym2X=0 I1Cent= 0 IOpClX= 0 NMat=1 NMatS=1 NMatT=0.
 FoFJK:  IHMeth= 1 ICntrl=    2127 DoSepK=F KAlg= 0 I1Cent=   0 FoldK=F
 IRaf=         0 NMat=   1 IRICut=       1 DoRegI=T DoRafI=F ISym2E= 0.
 FoFCou: FMM=F IPFlag=           0 FMFlag=      100000 FMFlg1=         800
         NFxFlg=           0 DoJE=F BraDBF=F KetDBF=F FulRan=T
         wScrn=  0.000000 ICntrl=    2127 IOpCl=  0 I1Cent=           0 NGrid=           0
         NMat0=    1 NMatS0=      1 NMatT0=    0 NMatD0=    1 NMtDS0=    0 NMtDT0=    0
 Symmetry not used in FoFCou.
 Leave Link  703 at Thu Sep  8 15:06:13 2022, MaxMem= 24159191040 cpu:        15.6
 (Enter /public/home/users/caep010/software/Gaussian09/g09/l716.exe)
 Dipole        =-5.52973073D-01 3.85016863D-01 2.76265681D-01
 ***** Axes restored to original set *****
 -------------------------------------------------------------------
 Center     Atomic                   Forces (Hartrees/Bohr)
 Number     Number              X              Y              Z
 -------------------------------------------------------------------
      1        6           0.000190644    0.000264356    0.000002168
      2        6          -0.000340588   -0.001120747   -0.000130199
      3        6          -0.000011615    0.000372602    0.000046398
      4        8           0.000220110   -0.000098536   -0.000447502
      5        8          -0.000565269    0.000185676    0.000594493
      6        7           0.000773261    0.000518190   -0.000135684
      7        1          -0.000011885   -0.000026181   -0.000010700
      8        1           0.000032094   -0.000005634   -0.000007081
      9        1           0.000000484    0.000002143    0.000025651
     10        1           0.000062981    0.000061751    0.000027174
     11        1          -0.000000662    0.000048644   -0.000067171
     12        1          -0.000026063    0.000024989   -0.000042707
     13        1          -0.000090960    0.000213298    0.000233906
     14        1          -0.000128811   -0.000115367   -0.000093436
     15        1          -0.000103721   -0.000325186    0.000004690
 -------------------------------------------------------------------
 Cartesian Forces:  Max     0.001120747 RMS     0.000289519
 Leave Link  716 at Thu Sep  8 15:06:13 2022, MaxMem= 24159191040 cpu:         0.5
 (Enter /public/home/users/caep010/software/Gaussian09/g09/l103.exe)

 GradGradGradGradGradGradGradGradGradGradGradGradGradGradGradGradGradGrad
 Berny optimization.
 Using GEDIIS/GDIIS optimizer.
 FormGI is forming the generalized inverse of G from B-inverse, IUseBI=4.
 Internal  Forces:  Max     0.000947819 RMS     0.000194225
 Search for a local minimum.
 Step number   2 out of a maximum of   74
 All quantities printed in internal units (Hartrees-Bohrs-Radians)
 RMS Force = .19423D-03 SwitMx=.10000D-02 MixMth= 2
 Mixed Optimization -- En-DIIS/RFO-DIIS
 Swapping is turned off.
 Update second derivatives using D2CorX and points    1    2
 DE= -5.57D-05 DEPred=-5.09D-05 R= 1.09D+00
 TightC=F SS=  1.41D+00  RLast= 4.28D-02 DXNew= 5.0454D-01 1.2838D-01
 Trust test= 1.09D+00 RLast= 4.28D-02 DXMaxT set to 3.00D-01
 ITU=  1  0
     Eigenvalues ---    0.00377   0.00411   0.00970   0.01330   0.01418
     Eigenvalues ---    0.05271   0.05605   0.05620   0.05648   0.05718
     Eigenvalues ---    0.05747   0.06488   0.08788   0.12412   0.15608
     Eigenvalues ---    0.16000   0.16000   0.16000   0.16000   0.16000
     Eigenvalues ---    0.16000   0.16037   0.16963   0.18715   0.25013
     Eigenvalues ---    0.29394   0.29709   0.34294   0.34475   0.34509
     Eigenvalues ---    0.34514   0.34536   0.34539   0.38944   0.41121
     Eigenvalues ---    0.42998   0.43959   0.44647   0.55075
 En-DIIS/RFO-DIIS IScMMF=        0 using points:     2    1
 RFO step:  Lambda=-6.55878662D-06.
 NNeg= 0 NP= 2 Switch=  2.50D-03 Rises=F DC=  5.57D-05 SmlDif=  1.00D-05
 RMS Error=  0.6321616068D-03 NUsed= 2 EDIIS=F
 DidBck=F Rises=F RFO-DIIS coefs:    1.10179   -0.10179
 Iteration  1 RMS(Cart)=  0.00819854 RMS(Int)=  0.00005383
 Iteration  2 RMS(Cart)=  0.00005302 RMS(Int)=  0.00000236
 Iteration  3 RMS(Cart)=  0.00000000 RMS(Int)=  0.00000236
 ITry= 1 IFail=0 DXMaxC= 4.12D-02 DCOld= 1.00D+10 DXMaxT= 3.00D-01 DXLimC= 3.00D+00 Rises=F
 Variable       Old X    -DE/DX   Delta X   Delta X   Delta X     New X
                                 (Linear)    (Quad)   (Total)
    R1        2.88551  -0.00023   0.00003  -0.00082  -0.00079   2.88472
    R2        2.06885  -0.00002   0.00004   0.00000   0.00004   2.06889
    R3        2.06485  -0.00001   0.00004   0.00004   0.00008   2.06493
    R4        2.06483   0.00002   0.00001   0.00008   0.00009   2.06492
    R5        2.88696  -0.00040   0.00005  -0.00142  -0.00137   2.88559
    R6        2.68126   0.00024   0.00052   0.00134   0.00186   2.68312
    R7        2.71116   0.00041   0.00076   0.00214   0.00290   2.71406
    R8        2.06513   0.00006   0.00005   0.00025   0.00030   2.06544
    R9        2.06435  -0.00000  -0.00000  -0.00000  -0.00000   2.06435
   R10        2.06553  -0.00005   0.00004  -0.00010  -0.00005   2.06548
   R11        1.83014   0.00021   0.00067   0.00133   0.00200   1.83214
   R12        2.70514   0.00057   0.00075   0.00255   0.00331   2.70845
   R13        1.93371  -0.00002   0.00027   0.00031   0.00058   1.93429
   R14        1.93495  -0.00003   0.00023   0.00024   0.00047   1.93542
    A1        1.91675   0.00004   0.00003   0.00033   0.00035   1.91710
    A2        1.92141  -0.00006   0.00003  -0.00041  -0.00039   1.92102
    A3        1.93270   0.00001   0.00004   0.00013   0.00017   1.93287
    A4        1.90513   0.00000  -0.00001  -0.00003  -0.00004   1.90509
    A5        1.88243  -0.00001  -0.00005   0.00002  -0.00003   1.88240
    A6        1.90479   0.00002  -0.00004  -0.00002  -0.00007   1.90473
    A7        1.96649   0.00027   0.00007   0.00262   0.00269   1.96918
    A8        1.94847  -0.00003  -0.00011   0.00038   0.00027   1.94874
    A9        1.81106  -0.00003  -0.00008  -0.00027  -0.00035   1.81072
   A10        1.85194  -0.00004   0.00000   0.00008   0.00008   1.85202
   A11        1.96903  -0.00014   0.00003  -0.00133  -0.00130   1.96773
   A12        1.91895  -0.00004   0.00010  -0.00159  -0.00149   1.91746
   A13        1.93624  -0.00005  -0.00008  -0.00053  -0.00061   1.93563
   A14        1.92087  -0.00004   0.00008  -0.00008  -0.00000   1.92087
   A15        1.92094  -0.00002   0.00004  -0.00003   0.00000   1.92095
   A16        1.87730   0.00004  -0.00003   0.00020   0.00016   1.87746
   A17        1.90585   0.00002   0.00000  -0.00005  -0.00005   1.90580
   A18        1.90181   0.00005  -0.00001   0.00053   0.00051   1.90232
   A19        1.86869  -0.00040  -0.00017  -0.00302  -0.00319   1.86550
   A20        2.00165  -0.00095   0.00022  -0.00387  -0.00365   1.99799
   A21        1.85633  -0.00022  -0.00004  -0.00275  -0.00280   1.85352
   A22        1.83725  -0.00015  -0.00015  -0.00371  -0.00386   1.83339
   A23        1.85100  -0.00012   0.00018  -0.00239  -0.00222   1.84878
    D1        3.11117  -0.00003   0.00027   0.00246   0.00273   3.11390
    D2       -1.09004   0.00008   0.00024   0.00464   0.00488  -1.08516
    D3        0.97582   0.00001   0.00025   0.00280   0.00305   0.97886
    D4       -1.07389  -0.00004   0.00030   0.00236   0.00266  -1.07123
    D5        1.00809   0.00008   0.00026   0.00454   0.00481   1.01290
    D6        3.07394   0.00000   0.00027   0.00270   0.00298   3.07692
    D7        1.03406  -0.00005   0.00029   0.00215   0.00244   1.03650
    D8        3.11604   0.00007   0.00025   0.00433   0.00458   3.12062
    D9       -1.10130  -0.00001   0.00027   0.00249   0.00275  -1.09854
   D10        3.08187   0.00005   0.00101   0.01036   0.01137   3.09324
   D11        1.00628   0.00006   0.00105   0.01050   0.01155   1.01784
   D12       -1.09004   0.00003   0.00099   0.00992   0.01091  -1.07913
   D13        0.94466  -0.00005   0.00111   0.00823   0.00935   0.95401
   D14       -1.13093  -0.00004   0.00115   0.00837   0.00953  -1.12140
   D15        3.05593  -0.00007   0.00109   0.00779   0.00889   3.06482
   D16       -1.15755   0.00010   0.00097   0.01091   0.01188  -1.14567
   D17        3.05005   0.00011   0.00101   0.01105   0.01206   3.06211
   D18        0.95372   0.00008   0.00095   0.01047   0.01142   0.96514
   D19        0.89241  -0.00005   0.00100   0.00496   0.00596   0.89837
   D20        3.04101   0.00023   0.00101   0.00848   0.00949   3.05051
   D21       -1.10779   0.00002   0.00111   0.00602   0.00712  -1.10067
   D22       -3.05496   0.00002   0.00074  -0.00481  -0.00408  -3.05903
   D23        1.09456  -0.00021   0.00069  -0.00710  -0.00640   1.08816
   D24       -0.96883  -0.00005   0.00061  -0.00528  -0.00468  -0.97351
   D25       -1.22740   0.00003   0.00088  -0.01046  -0.00959  -1.23699
   D26        0.73199  -0.00027   0.00099  -0.01587  -0.01487   0.71712
   D27        1.94984  -0.00032  -0.00011  -0.00638  -0.00648   1.94336
         Item               Value     Threshold  Converged?
 Maximum Force            0.000948     0.000450     NO 
 RMS     Force            0.000194     0.000300     YES
 Maximum Displacement     0.041217     0.001800     NO 
 RMS     Displacement     0.008195     0.001200     NO 
 Predicted change in Energy=-1.277823D-05
 Lowest energy point so far.  Saving SCF results.
 GradGradGradGradGradGradGradGradGradGradGradGradGradGradGradGradGradGrad

 Leave Link  103 at Thu Sep  8 15:06:13 2022, MaxMem= 24159191040 cpu:         1.6
 (Enter /public/home/users/caep010/software/Gaussian09/g09/l202.exe)
                          Input orientation:                          
 ---------------------------------------------------------------------
 Center     Atomic      Atomic             Coordinates (Angstroms)
 Number     Number       Type             X           Y           Z
 ---------------------------------------------------------------------
      1          6           0       -1.640417   -0.218996    0.535700
      2          6           0       -0.220320    0.035981    0.037110
      3          6           0        0.650921   -1.217782    0.063799
      4          8           0       -0.211176    0.493651   -1.306922
      5          8           0        0.266708    1.069185    0.907750
      6          7           0        1.568026    1.565859    0.569975
      7          1           0       -2.212098    0.714610    0.522617
      8          1           0       -2.136634   -0.952249   -0.104719
      9          1           0       -1.629011   -0.590465    1.563265
     10          1           0        1.643666   -1.011558   -0.344290
     11          1           0        0.198839   -2.001284   -0.548656
     12          1           0        0.752509   -1.582010    1.089311
     13          1           0       -0.827541    1.240530   -1.354274
     14          1           0        2.227769    0.817888    0.800198
     15          1           0        1.568656    1.636541   -0.451763
 ---------------------------------------------------------------------
                    Distance matrix (angstroms):
                    1          2          3          4          5
     1  C    0.000000
     2  C    1.526526   0.000000
     3  C    2.543717   1.526989   0.000000
     4  O    2.438413   1.419848   2.356075   0.000000
     5  O    2.331300   1.436217   2.467811   2.337602   0.000000
     6  N    3.671648   2.413018   2.974215   2.799632   1.433250
     7  H    1.094811   2.159498   3.484470   2.720244   2.533481
     8  H    1.092716   2.160780   2.805240   2.691339   3.299597
     9  H    1.092707   2.169330   2.800003   3.379873   2.603438
    10  H    3.491095   2.171923   1.092981   2.575413   2.791614
    11  H    2.781231   2.160848   1.092408   2.639655   3.399044
    12  H    2.808983   2.161346   1.093004   3.313456   2.701444
    13  H    2.522496   1.937938   3.200012   0.969524   2.518629
    14  H    4.013472   2.680825   2.678187   3.239373   1.980019
    15  H    3.836177   2.449740   3.042236   2.281512   1.966021
                    6          7          8          9         10
     6  N    0.000000
     7  H    3.875075   0.000000
     8  H    4.529966   1.782601   0.000000
     9  H    3.982136   1.768095   1.780658   0.000000
    10  H    2.735815   4.312552   3.788348   3.811365   0.000000
    11  H    3.981271   3.786334   2.598459   3.129163   1.763193
    12  H    3.293002   3.792690   3.188958   2.622867   1.781794
    13  H    3.089874   2.390880   2.843130   3.536514   3.492683
    14  H    1.023584   4.449734   4.795860   4.176180   2.235599
    15  H    1.024181   4.011667   4.533370   4.386909   2.651340
                   11         12         13         14         15
    11  H    0.000000
    12  H    1.779123   0.000000
    13  H    3.494543   4.053936   0.000000
    14  H    3.726083   2.831871   3.762352   0.000000
    15  H    3.888387   3.660611   2.590968   1.634634   0.000000
 Stoichiometry    C3H9NO2
 Framework group  C1[X(C3H9NO2)]
 Deg. of freedom    39
 Full point group                 C1      NOp   1
 RotChk:  IX=0 Diff= 6.57D-03
 Largest Abelian subgroup         C1      NOp   1
 Largest concise Abelian subgroup C1      NOp   1
                         Standard orientation:                         
 ---------------------------------------------------------------------
 Center     Atomic      Atomic             Coordinates (Angstroms)
 Number     Number       Type             X           Y           Z
 ---------------------------------------------------------------------
      1          6           0       -1.619792   -0.658646   -0.545101
      2          6           0       -0.380973    0.023635    0.029444
      3          6           0       -0.382307    1.534982   -0.188556
      4          8           0       -0.278019   -0.172102    1.431962
      5          8           0        0.709581   -0.632393   -0.636169
      6          7           0        2.009002   -0.233505   -0.181637
      7          1           0       -1.555275   -1.740102   -0.387302
      8          1           0       -2.518969   -0.277788   -0.054739
      9          1           0       -1.695806   -0.480963   -1.620582
     10          1           0        0.492325    1.996842    0.276537
     11          1           0       -1.270744    1.978427    0.266844
     12          1           0       -0.381113    1.759511   -1.258249
     13          1           0       -0.360260   -1.125104    1.590076
     14          1           0        2.148324    0.722863   -0.518791
     15          1           0        1.924428   -0.163020    0.836609
 ---------------------------------------------------------------------
[...]
 ! A2    A(2,1,8)              110.0882         -DE/DX =    0.0                 !
 ! A3    A(2,1,9)              110.7294         -DE/DX =    0.0                 !
 ! A4    A(7,1,8)              109.1332         -DE/DX =    0.0                 !
 ! A5    A(7,1,9)              107.8681         -DE/DX =    0.0                 !
 ! A6    A(8,1,9)              109.1355         -DE/DX =    0.0                 !
 ! A7    A(1,2,3)              112.817          -DE/DX =    0.0                 !
 ! A8    A(1,2,4)              111.6384         -DE/DX =    0.0                 !
 ! A9    A(1,2,5)              103.7322         -DE/DX =    0.0                 !
 ! A10   A(3,2,4)              106.1309         -DE/DX =    0.0                 !
 ! A11   A(3,2,5)              112.7881         -DE/DX =    0.0                 !
 ! A12   A(4,2,5)              109.8366         -DE/DX =    0.0                 !
 ! A13   A(2,3,10)             110.9255         -DE/DX =    0.0                 !
 ! A14   A(2,3,11)             110.0451         -DE/DX =    0.0                 !
 ! A15   A(2,3,12)             110.0792         -DE/DX =    0.0                 !
 ! A16   A(10,3,11)            107.5632         -DE/DX =    0.0                 !
 ! A17   A(10,3,12)            109.1745         -DE/DX =    0.0                 !
 ! A18   A(11,3,12)            108.9949         -DE/DX =    0.0                 !
 ! A19   A(2,4,13)             106.8768         -DE/DX =    0.0                 !
 ! A20   A(2,5,6)              114.53           -DE/DX =    0.0                 !
 ! A21   A(5,6,14)             106.1746         -DE/DX =    0.0                 !
 ! A22   A(5,6,15)             105.0934         -DE/DX =    0.0                 !
 ! A23   A(14,6,15)            105.9485         -DE/DX =    0.0                 !
 ! D1    D(7,1,2,3)            178.6014         -DE/DX =    0.0                 !
 ! D2    D(7,1,2,4)            -61.9812         -DE/DX =    0.0                 !
 ! D3    D(7,1,2,5)             56.2317         -DE/DX =    0.0                 !
 ! D4    D(8,1,2,3)            -61.2021         -DE/DX =    0.0                 !
 ! D5    D(8,1,2,4)             58.2153         -DE/DX =    0.0                 !
 ! D6    D(8,1,2,5)            176.4282         -DE/DX =    0.0                 !
 ! D7    D(9,1,2,3)             59.5686         -DE/DX =    0.0                 !
 ! D8    D(9,1,2,4)            178.986          -DE/DX =    0.0                 !
 ! D9    D(9,1,2,5)            -62.8011         -DE/DX =    0.0                 !
 ! D10   D(1,2,3,10)           177.5129         -DE/DX =    0.0                 !
 ! D11   D(1,2,3,11)            58.6046         -DE/DX =    0.0                 !
 ! D12   D(1,2,3,12)           -61.5454         -DE/DX =    0.0                 !
 ! D13   D(4,2,3,10)            54.9568         -DE/DX =    0.0                 !
 ! D14   D(4,2,3,11)           -63.9516         -DE/DX =    0.0                 !
 ! D15   D(4,2,3,12)           175.8985         -DE/DX =    0.0                 !
 ! D16   D(5,2,3,10)           -65.3521         -DE/DX =    0.0                 !
 ! D17   D(5,2,3,11)           175.7396         -DE/DX =    0.0                 !
 ! D18   D(5,2,3,12)            55.5896         -DE/DX =    0.0                 !
 ! D19   D(1,2,4,13)            51.8772         -DE/DX =    0.0                 !
 ! D20   D(3,2,4,13)           175.1771         -DE/DX =    0.0                 !
 ! D21   D(5,2,4,13)           -62.6168         -DE/DX =    0.0                 !
 ! D22   D(1,2,5,6)           -174.9958         -DE/DX =    0.0                 !
 ! D23   D(3,2,5,6)             62.6154         -DE/DX =    0.0                 !
 ! D24   D(4,2,5,6)            -55.5436         -DE/DX =    0.0                 !
 ! D25   D(2,5,6,14)           -70.8843         -DE/DX =    0.0                 !
 ! D26   D(2,5,6,15)            41.1119         -DE/DX =    0.0                 !
 ! D27   D(5,6,14,15)          111.3993         -DE/DX =    0.0                 !
 --------------------------------------------------------------------------------
 GradGradGradGradGradGradGradGradGradGradGradGradGradGradGradGradGradGrad

 Leave Link  103 at Thu Sep  8 15:06:40 2022, MaxMem= 24159191040 cpu:         1.7
 (Enter /public/home/users/caep010/software/Gaussian09/g09/l9999.exe)
 1\1\GINC-B1531\Freq\RB3LYP\6-31G(d,p)\C3H9N1O2\ROOT\08-Sep-2022\0\\#P 
 Geom=AllCheck Guess=TCheck SCRF=Check GenChk RB3LYP/6-31G(d,p) Freq\\F
 rag_581\\0,1\C,-1.640019104,-0.2193561945,0.5361378373\C,-0.2199265537
 ,0.0343902086,0.0377901454\C,0.6496779894,-1.2200215949,0.0640693919\O
 ,-0.2107007813,0.4926270501,-1.3057923068\O,0.2673819176,1.0673699256,
 0.9083384494\N,1.5668115974,1.5685306721,0.5681756433\H,-2.2116839052,
 0.714090348,0.5202406255\H,-2.1362061008,-0.9541284834,-0.1025224667\H
 ,-1.6288585421,-0.5881948223,1.5646494647\H,1.6442865496,-1.0139644652
 ,-0.3391427629\H,0.199163364,-2.0009393753,-0.5528527778\H,0.746823822
 6,-1.5878454131,1.0886418177\H,-0.8209796356,1.2435211342,-1.351017527
 3\H,2.2287469862,0.8220589233,0.7956217779\H,1.5653813958,1.6417630868
 ,-0.4532373116\\Version=ES64L-G09RevE.01\State=1-A\HF=-324.8931241\RMS
 D=2.120e-09\RMSF=2.540e-05\ZeroPoint=0.1296249\Thermal=0.1370104\Dipol
 e=-0.2102768,-0.5837604,-0.3780868\DipoleDeriv=-0.1198531,-0.0545398,0
 .0852353,-0.036049,0.025808,0.0065435,-0.0144191,0.0196942,0.0315095,0
 .7031746,0.023953,0.0560243,0.1700125,0.8825957,-0.047162,0.2726191,0.
 0031504,0.9815479,-0.0525659,0.1008391,-0.0002188,0.0286565,-0.1074759
 ,-0.0027581,-0.0175179,-0.0445955,0.0526996,-0.507043,-0.1184485,-0.04
 12443,-0.1517432,-0.4983448,0.2020584,-0.1421045,0.1285748,-0.9202967,
 -0.5379736,-0.0317808,-0.0595735,-0.2768495,-0.6035774,-0.0863826,-0.1
 9355,-0.0884294,-0.4892787,0.0660936,-0.0846786,-0.0314314,-0.0963373,
 -0.2187062,-0.1335127,-0.1099577,-0.1420081,-0.1092572,-0.0066138,0.06
 75784,0.0116158,0.1025621,-0.0827567,0.0137212,0.0029238,0.0256306,0.0
 580256,-0.0086337,-0.0554221,-0.0219366,-0.0669485,-0.0200842,-0.06618
 96,-0.0427483,-0.0750446,-0.0014102,0.053738,0.0029079,-0.0167971,-0.0
 047997,0.0464846,0.0608385,0.0159707,0.0644978,-0.0858493,-0.1162768,-
 0.0017078,0.0588824,-0.0319901,0.0602456,0.0315153,0.0563651,0.0298811
 ,0.0441679,0.0424528,-0.0590308,-0.0497376,-0.0491697,-0.0371899,-0.05
 91381,-0.0438412,-0.074793,0.0165281,0.0513807,0.0148172,-0.0032133,0.
 0187077,0.0347517,0.0351062,-0.0161034,0.0666876,-0.0918055,0.2394762,
 0.112717,0.0145427,0.1135372,0.1846234,-0.0022396,0.0578946,-0.0454538
 ,0.298702,0.0576743,0.0670156,0.0112301,0.1879441,0.0556939,0.0934449,
 0.1055994,0.0795701,0.1935292,0.1349696,0.0157801,-0.013378,0.0924668,
 0.2779322,-0.0458452,0.0688694,0.0526377,0.0211878\Polar=53.3048745,2.
 4210911,47.5382026,0.4626271,-1.4405671,43.4315514\PG=C01 [X(C3H9N1O2)
 ]\NImag=0\\0.49265717,-0.01013330,0.58980946,0.03710756,0.00904703,0.5
 8426061,-0.17822660,-0.00158492,0.02887182,0.55047366,-0.01258554,-0.0
 8103276,0.00624701,-0.04129358,0.49954198,0.03439803,0.00372451,-0.083
 63337,-0.04386405,-0.03507628,0.44278905,-0.02126140,0.02632272,0.0017
 2332,-0.12842472,0.05357764,-0.00127349,0.55296212,0.00230571,0.005865
 69,-0.00179026,0.04828246,-0.14319149,0.00577152,0.05071610,0.51265659
 ,0.00691163,-0.00859723,0.00308945,0.00403676,-0.00100326,-0.07237104,
 0.00020229,-0.00019832,0.60125314,0.00138060,-0.01288962,0.03670803,-0
 .08671433,0.02023014,0.00132774,0.00069159,0.01406557,-0.02403899,0.29
 236974,-0.00014880,-0.00219000,0.01583407,0.00483174,-0.10535699,0.055
 79353,0.00484934,-0.01883194,0.03919847,-0.25704111,0.41245145,0.00286
 308,0.01316062,-0.03293778,0.03223742,0.02810870,-0.16914658,-0.003151
 77,0.01236321,-0.01328592,-0.00835850,-0.07207346,0.32068430,-0.027650
 51,-0.03597547,-0.01931347,-0.08815339,-0.01283520,-0.00071321,0.01026
 455,0.00784227,0.00785015,0.00246903,-0.00435045,-0.01704391,0.3480614
 5,-0.01501362,-0.01269429,-0.00638354,0.00333033,-0.11966646,-0.046425
 65,-0.01443640,-0.03530353,-0.02774880,-0.00364746,0.01216833,-0.01542
 789,0.08271591,0.21565990,-0.00009060,0.00269477,0.00905135,0.02096412
 ,-0.03845698,-0.10390544,-0.00319375,-0.01244788,-0.00466397,-0.017040
 81,-0.02810900,-0.06660743,-0.06331549,0.08028095,0.24966259,0.0012636
 6,-0.00391411,-0.00535471,-0.03564958,-0.02385628,-0.00713887,0.003260
 28,0.00276673,0.00106436,0.00082737,0.00020002,0.00789352,-0.17381550,
 -0.06051991,0.00891906,0.43199831,-0.00067220,-0.00341612,-0.00509569,
 -0.03044920,-0.01854171,0.00868991,-0.00010861,-0.00016525,-0.00070844
 ,-0.00083667,0.00255517,0.00206468,-0.00020343,-0.06293587,-0.00887461
 ,-0.11864151,0.35360931,-0.00176604,-0.00296561,-0.00132835,-0.0168839
 4,0.00166201,0.00659492,0.00114671,-0.00134969,-0.00121368,-0.00535965
 ,-0.00226386,-0.00063143,0.06731776,0.03086091,-0.08365273,0.03627131,
 -0.11314444,0.54344067,-0.11776968,0.11520470,-0.00176617,-0.01808291,
 0.03049930,-0.00224163,-0.00521252,-0.00318935,0.00218015,0.00230092,-
 0.00087543,-0.00210863,0.00231017,0.00074213,0.00081526,0.00035979,-0.
 00069587,0.00009517,0.12785177,0.11791825,-0.24370286,0.00483836,-0.00
 359545,0.00336117,0.00115631,-0.00026036,0.00063178,-0.00026354,-0.000
 70031,0.00153502,-0.00161668,-0.00099013,0.00057088,0.00015633,0.00035
 615,0.00048785,-0.00005260,-0.12875990,0.26174404,-0.00217510,0.004498
 62,-0.04827552,0.00635832,-0.01013487,-0.00149848,0.00177020,0.0005851
 3,-0.00066477,-0.00067260,-0.00079820,0.00113054,-0.00153645,-0.000135
 31,-0.00012600,0.00004728,0.00001901,-0.00023694,0.00011677,-0.0052787
 5,0.04754444,-0.10270012,-0.08032601,-0.06960711,-0.01084305,-0.020951
 03,-0.02151448,0.00094784,-0.00040101,-0.00040518,0.00249378,0.0020419
 7,-0.00033643,-0.00646540,-0.00082657,0.00301237,-0.00102649,-0.001764
 80,-0.00075700,0.00875572,0.01102167,0.01131751,0.11007897,-0.08202055
 ,-0.17085151,-0.10704271,-0.00021090,-0.00483257,-0.00376532,0.0004798
 1,-0.00004450,0.00016311,0.00111849,0.00065518,0.00097509,-0.00186534,
 -0.00014701,0.00084925,0.00001105,0.00077529,-0.00049243,-0.01348584,-
 0.01654146,-0.01565233,0.08961391,0.18227526,-0.07298053,-0.10858336,-
 0.14227473,0.00532697,0.00845370,0.00487452,-0.00027806,-0.00002533,-0
 .00009812,-0.00042197,-0.00031419,0.00105734,0.00161938,0.00039753,-0.
 00050422,0.00116238,0.00066809,0.00075292,0.00161007,0.00217533,0.0006
 2337,0.07734355,0.11827467,0.15035292,-0.04963169,0.00238727,-0.007215
 24,0.00593219,-0.00993329,0.02826030,0.00102915,-0.00018021,-0.0001665
 1,-0.00665443,-0.00322235,0.00624325,0.00027758,0.00039999,-0.00084341
 ,0.00021312,0.00036271,-0.00040458,-0.00026704,0.00470500,-0.01641422,
 -0.00060881,0.00663720,-0.01334633,0.05043768,0.00135496,-0.07864627,0
 .08639339,0.00144990,-0.00368613,0.00453252,0.00029340,-0.00009185,-0.
 00032709,-0.00146051,0.00096933,0.00079910,-0.00068997,0.00005439,-0.0
 0039049,0.00012174,-0.00002316,-0.00043966,-0.00050026,-0.00868233,0.0
 2667042,0.00104309,0.00898042,-0.02145379,-0.00232373,0.08029983,-0.00
 339685,0.08664096,-0.28808966,-0.00361479,0.00278220,-0.01062472,-0.00
 068362,0.00018880,0.00010765,0.00350695,0.00114093,-0.00069414,-0.0007
 9249,-0.00067441,0.00087748,0.00053608,0.00009178,0.00044058,-0.000247
 70,-0.00078782,0.00113248,0.00038830,0.00684252,-0.01526195,0.00413255
 ,-0.09494419,0.31112817,-0.00091653,0.00460373,-0.00076172,-0.01893921
 ,-0.00596388,0.00756675,-0.26880677,-0.04651378,0.08975218,0.00180695,
 -0.00066969,0.00012046,-0.00024326,-0.00033630,-0.00029287,0.00042330,
 -0.00209197,-0.00131458,-0.00119467,-0.00016511,0.00047174,0.00042632,
 -0.00005001,-0.00005441,0.00022299,-0.00010625,0.00000584,0.29263402,0
 .00160622,-0.00472031,0.00054730,0.02777227,0.00917657,-0.01014150,-0.
 04818676,-0.05856144,0.02107381,-0.00161741,0.00153552,-0.00125367,-0.
 00196551,0.00082914,0.00033543,-0.00055132,-0.00002053,-0.00033833,0.0
 0168425,0.00013397,-0.00045178,0.00010532,0.00003345,0.00021090,-0.000
 14973,-0.00010165,-0.00008314,0.05281354,0.06203952,-0.00027404,-0.000
 12485,0.00012028,-0.00086084,0.00013109,-0.00121978,0.09107904,0.02011
 399,-0.08505323,-0.00081922,-0.00027947,0.00033345,-0.00024766,-0.0006
 6588,-0.00033159,0.00061157,0.00056332,0.00045744,0.00009681,0.0000469
 9,0.00053331,0.00020763,0.00014023,0.00005553,-0.00030124,-0.00001716,
 0.00030202,-0.09938915,-0.02128264,0.08666610,0.00036460,-0.00005042,0
 .00023373,0.00902462,0.01278186,0.01159765,-0.09493725,-0.08234774,-0.
 06646586,0.00012147,-0.00077309,0.00023247,-0.00212334,0.00603308,0.00
 155297,-0.00059354,-0.00106131,-0.00046146,0.00022313,-0.00022871,-0.0
 0008576,-0.00060061,0.00039690,0.00010048,-0.00005325,-0.00001041,0.00
 003324,-0.01177794,-0.02093935,-0.01778027,0.10135984,-0.00104947,0.00
 070332,0.00013016,-0.01553495,-0.01700138,-0.01631516,-0.07984686,-0.1
 8465019,-0.10823576,0.00048131,0.00160744,0.00087529,0.00304924,-0.006
 82968,-0.00102944,0.00177560,0.00056658,-0.00038293,-0.00008442,0.0002
 1287,0.00032468,0.00086123,0.00036576,0.00007244,0.00005579,0.00000756
 ,0.00008708,-0.00217398,-0.00429672,-0.00295835,0.08702931,0.19846409,
 -0.00016647,-0.00003775,-0.00010502,0.00020574,0.00131786,-0.00173818,
 -0.06509061,-0.11054779,-0.13455055,-0.00014123,0.00081697,0.00016870,
 0.00059183,-0.00037768,0.00134500,0.00020603,0.00059009,0.00034062,0.0
 0011632,0.00022388,0.00004047,0.00041516,-0.00000295,0.00030261,-0.000
 03925,-0.00012465,-0.00004003,0.00530407,0.01015432,0.00751645,0.07092
 980,0.12052841,0.14191044,0.00035564,-0.00025976,-0.00039446,-0.001344
 04,0.00243061,-0.01861910,-0.05151765,0.00785951,-0.01916373,-0.002370
 12,0.00434435,-0.00081069,0.00056569,-0.00154509,0.00057296,0.00022651
 ,-0.00015606,-0.00018039,0.00018045,-0.00020575,0.00021068,-0.00005562
 ,0.00010060,-0.00005530,-0.00062853,0.00030182,0.00044650,0.00506706,-
 0.00956671,0.02829742,-0.00178531,0.00577773,-0.01241615,0.05105918,-0
 .00084149,0.00045929,0.00001408,-0.00094419,-0.00674328,0.02655717,0.0
 0776735,-0.07783242,0.08174285,0.00464283,-0.00563722,0.00111644,-0.00
 053829,0.00229504,-0.00088232,-0.00046664,-0.00047602,-0.00011347,-0.0
 0020101,0.00002514,-0.00017918,-0.00002028,0.00002631,-0.00011541,0.00
 049885,0.00025841,-0.00035659,0.00077934,-0.00302689,0.00532204,-0.000
 81242,0.00975550,-0.02236693,-0.01020108,0.08159223,0.00028645,-0.0001
 1668,-0.00013474,0.00090651,-0.00181237,-0.00180282,-0.02189492,0.0853
 3551,-0.28717361,-0.00066216,0.00032596,0.00115634,0.00009093,-0.00016
 668,0.00115052,0.00023277,0.00038992,0.00021543,-0.00009631,-0.0000315
 9,0.00026224,0.00005261,0.00009501,0.00000460,-0.00001606,-0.00017917,
 0.00052888,-0.00177069,0.00235230,-0.00892025,-0.00027625,0.00651294,-
 0.01490671,0.02297417,-0.09273086,0.30973115,0.00204381,-0.00308102,0.
 00063149,-0.00124823,0.00258287,0.00067816,0.00105731,-0.00048322,-0.0
 0079030,-0.21080542,0.24703367,-0.01360687,0.00060633,-0.00095735,0.00
 273600,-0.00119662,-0.00062596,-0.00075363,0.00009596,0.00100508,0.000
 50261,-0.00021207,-0.00037377,0.00007259,-0.00064386,0.00024053,-0.000
 02183,0.00031688,-0.00023272,0.00013412,0.00000688,0.00006396,0.000133
 96,0.00062207,0.00024496,0.00012389,0.21107686,-0.00074533,0.00094606,
 -0.00241928,0.01338835,-0.01489807,0.00007458,-0.00089945,0.00041120,0
 .00482887,0.23575448,-0.30034367,0.03133049,-0.00119204,0.00070293,-0.
 00146134,-0.00018058,-0.00062114,-0.00054109,-0.00066357,0.00027221,0.
 00058921,-0.00031766,-0.00056133,0.00030581,0.00060332,0.00055087,-0.0
 0078072,-0.00003463,0.00025346,-0.00015003,-0.00020037,0.00035527,-0.0
 0018800,0.00091748,-0.00066771,0.00003401,-0.24617892,0.31281144,-0.00
 060850,0.00081201,0.00123017,-0.02909722,0.04004602,-0.00774878,0.0007
 2540,0.00190645,-0.00679415,0.01795392,-0.00807577,-0.04172075,0.00170
 966,-0.00204603,0.00301845,-0.00120949,-0.00043454,-0.00002942,0.00147
 848,-0.00059353,-0.00042180,0.00005399,-0.00038694,-0.00000405,-0.0001
 9524,-0.00062375,0.00022498,-0.00000352,-0.00030418,-0.00001180,0.0001
 8017,0.00007522,0.00008259,-0.00102959,0.00166194,0.00021567,0.0102588
 5,-0.03192653,0.05221862,0.00001445,-0.00046522,-0.00010485,-0.0000553
 2,0.00634321,0.00189108,-0.00004396,-0.00044007,-0.00005598,0.00023538
 ,-0.00044271,-0.00089886,-0.04395383,0.01588207,0.00154602,-0.17077918
 ,0.14696933,-0.05218892,0.00042779,-0.00015235,-0.00001740,-0.00002588
 ,-0.00029683,0.00004650,-0.00002897,0.00004877,0.00003868,0.00106816,-
 0.00070103,-0.00080747,0.00070802,-0.00015336,-0.00004339,-0.00014226,
 -0.00015617,0.00007123,0.00008126,-0.00001933,0.00032565,0.21032607,0.
 00001454,-0.00069093,-0.00017058,-0.00407407,0.00328501,-0.00067620,0.
 00016818,-0.00043453,0.00005453,0.00024225,-0.00039714,-0.00012579,-0.
 01936813,0.01172017,-0.00787425,0.19229586,-0.24717532,0.10064717,0.00
 016757,-0.00000953,-0.00004757,-0.00010487,-0.00013535,0.00005147,-0.0
 0000617,0.00003065,0.00002949,-0.00047244,-0.00235115,-0.00089352,-0.0
 0004620,0.00058193,0.00016456,0.00003473,-0.00029061,0.00019653,-0.000
 15484,-0.00015167,0.00000157,-0.16943898,0.24354692,0.00008463,-0.0001
 8595,0.00023858,-0.00267465,0.00061764,-0.00171917,-0.00111343,0.00000
 358,0.00171608,-0.00043681,-0.00107719,0.00029536,0.01397550,-0.009966
 39,0.00269194,-0.03320805,0.06061326,-0.06373961,0.00000536,-0.0000001
 3,-0.00005331,0.00004083,0.00005567,-0.00002361,0.00001916,0.00005034,
 -0.00003235,0.00051865,-0.00106708,-0.00065430,0.00037065,0.00037756,-
 0.00043238,0.00023794,0.00033470,-0.00035912,0.00043099,0.00009707,-0.
 00013616,0.04967692,-0.08307656,0.07201355,0.00007662,0.00016143,-0.00
 075821,0.00225092,-0.00102681,0.00964511,-0.00000857,-0.00028299,-0.00
 091097,0.00184746,0.00422254,-0.00327455,-0.02214957,-0.01182080,0.044
 65818,-0.05551144,0.00997554,-0.02476075,0.00002111,0.00005193,0.00010
 641,-0.00016458,-0.00005474,-0.00014532,0.00040387,0.00023692,-0.00033
 086,-0.00008731,-0.00007106,0.00005329,0.00006267,-0.00025112,-0.00000
 579,-0.00023308,0.00024825,-0.00002217,-0.00180116,-0.00023174,-0.0005
 4255,0.00216826,0.00074257,-0.02792771,0.07312480,0.00001062,0.0001612
 3,-0.00014932,-0.00136779,-0.00041390,0.00610006,-0.00043611,-0.000458
 14,0.00002079,0.00165801,-0.00072048,-0.00029613,-0.01363345,-0.006423
 93,0.01520957,0.01060319,-0.02461907,-0.01108600,0.00015772,-0.0000387
 5,-0.00000909,0.00002505,0.00000206,-0.00011786,0.00016534,0.00007992,
 -0.00017688,0.00038143,-0.00092294,0.00005425,0.00022886,0.00015764,-0
 .00015034,0.00016761,0.00026223,-0.00020483,0.00091673,0.00094014,-0.0
 0011194,0.00302269,-0.00752845,0.03322348,-0.00189991,0.03952245,-0.00
 019325,0.00003290,-0.00121126,-0.00191217,-0.00288246,0.00114986,0.000
 03268,0.00009108,-0.00029726,-0.00154471,-0.00011877,0.00019801,0.0098
 0748,-0.00152112,-0.00800593,-0.01003326,0.05456766,-0.40141044,-0.000
 05395,0.00002744,0.00000996,-0.00021175,-0.00005289,0.00014287,0.00028
 683,0.00005417,0.00000062,-0.00015275,0.00024825,0.00020637,-0.0001615
 6,-0.00006213,0.00006601,-0.00007025,-0.00000446,0.00003242,-0.0005300
 2,0.00020696,-0.00012356,0.00052080,-0.00828086,-0.00980551,0.00421589
 ,-0.04230577,0.41904784\\0.00001550,0.00001620,-0.00001806,-0.00001578
 ,-0.00004935,-0.00000574,0.00000521,0.00003232,0.00001959,-0.00005811,
 0.00007033,-0.00001252,-0.00003826,-0.00001368,0.00003880,0.00004804,0
 .00001822,-0.00003253,0.00000675,-0.00000793,-0.00000297,-0.00000051,-
 0.00000574,0.00000599,-0.00000137,-0.00000029,0.00000110,-0.00000426,0
 .00000563,0.00000961,-0.00000009,-0.00000442,0.00000691,0.00000351,0.0
 0000516,0.00000039,0.00005227,-0.00007209,-0.00000824,-0.00001525,0.,-
 0.00000152,0.00000237,0.00000563,-0.00000079\\\@


 HAPPINESS IS NOT HAVING WHAT YOU WANT --
 HAPPINESS IS WANTING WHAT YOU HAVE!

              -- FROM MRS. SEVERN'S DESK
 Job cpu time:       0 days  0 hours  5 minutes 53.3 seconds.
 File lengths (MBytes):  RWF=     34 Int=      0 D2E=      0 Chk=      3 Scr=      1
 Normal termination of Gaussian 09 at Thu Sep  8 15:06:41 2022.
