 Entering Gaussian System, Link 0=g09
 Input=B3LYP6-31Gdp.Frag_1078.gjf
 Output=B3LYP6-31Gdp.Frag_1078.log
 Initial command:
 /public/home/users/caep010/software/Gaussian09/g09/l1.exe "/public/home/users/caep010/.cache/gau_scr/Gau-159883.inp" -scrdir="/public/home/users/caep010/.cache/gau_scr/"
 Entering Link 1 = /public/home/users/caep010/software/Gaussian09/g09/l1.exe PID=    159884.
  
 Copyright (c) 1988,1990,1992,1993,1995,1998,2003,2009,2015,
            Gaussian, Inc.  All Rights Reserved.
  
 This is part of the Gaussian(R) 09 program.  It is based on
 the Gaussian(R) 03 system (copyright 2003, Gaussian, Inc.),
 the Gaussian(R) 98 system (copyright 1998, Gaussian, Inc.),
 the Gaussian(R) 94 system (copyright 1995, Gaussian, Inc.),
 the Gaussian 92(TM) system (copyright 1992, Gaussian, Inc.),
 the Gaussian 90(TM) system (copyright 1990, Gaussian, Inc.),
 the Gaussian 88(TM) system (copyright 1988, Gaussian, Inc.),
 the Gaussian 86(TM) system (copyright 1986, Carnegie Mellon
 University), and the Gaussian 82(TM) system (copyright 1983,
 Carnegie Mellon University). Gaussian is a federally registered
 trademark of Gaussian, Inc.
  
 This software contains proprietary and confidential information,
 including trade secrets, belonging to Gaussian, Inc.
  
 This software is provided under written license and may be
 used, copied, transmitted, or stored only in accord with that
 written license.
  
 The following legend is applicable only to US Government
 contracts under FAR:
  
                    RESTRICTED RIGHTS LEGEND
  
 Use, reproduction and disclosure by the US Government is
 subject to restrictions as set forth in subparagraphs (a)
 and (c) of the Commercial Computer Software - Restricted
 Rights clause in FAR 52.227-19.
  
 Gaussian, Inc.
 340 Quinnipiac St., Bldg. 40, Wallingford CT 06492
  
  
 ---------------------------------------------------------------
 Warning -- This program may not be used in any manner that
 competes with the business of Gaussian, Inc. or will provide
 assistance to any competitor of Gaussian, Inc.  The licensee
 of this program is prohibited from giving any competitor of
 Gaussian, Inc. access to this program.  By using this program,
 the user acknowledges that Gaussian, Inc. is engaged in the
 business of creating and licensing software in the field of
 computational chemistry and represents and warrants to the
 licensee that it is not a competitor of Gaussian, Inc. and that
 it will not use this program in any manner prohibited above.
 ---------------------------------------------------------------
  

 Cite this work as:
 Gaussian 09, Revision E.01,
 M. J. Frisch, G. W. Trucks, H. B. Schlegel, G. E. Scuseria, 
 M. A. Robb, J. R. Cheeseman, G. Scalmani, V. Barone, B. Mennucci, 
 G. A. Petersson, H. Nakatsuji, M. Caricato, X. Li, H. P. Hratchian, 
 A. F. Izmaylov, J. Bloino, G. Zheng, J. L. Sonnenberg, M. Hada, 
 M. Ehara, K. Toyota, R. Fukuda, J. Hasegawa, M. Ishida, T. Nakajima, 
 Y. Honda, O. Kitao, H. Nakai, T. Vreven, J. A. Montgomery, Jr., 
 J. E. Peralta, F. Ogliaro, M. Bearpark, J. J. Heyd, E. Brothers, 
 K. N. Kudin, V. N. Staroverov, T. Keith, R. Kobayashi, J. Normand, 
 K. Raghavachari, A. Rendell, J. C. Burant, S. S. Iyengar, J. Tomasi, 
 M. Cossi, N. Rega, J. M. Millam, M. Klene, J. E. Knox, J. B. Cross, 
 V. Bakken, C. Adamo, J. Jaramillo, R. Gomperts, R. E. Stratmann, 
 O. Yazyev, A. J. Austin, R. Cammi, C. Pomelli, J. W. Ochterski, 
 R. L. Martin, K. Morokuma, V. G. Zakrzewski, G. A. Voth, 
 P. Salvador, J. J. Dannenberg, S. Dapprich, A. D. Daniels, 
 O. Farkas, J. B. Foresman, J. V. Ortiz, J. Cioslowski, 
 and D. J. Fox, Gaussian, Inc., Wallingford CT, 2013.
 
 ******************************************
 Gaussian 09:  ES64L-G09RevE.01 30-Nov-2015
                 8-Sep-2022 
 ******************************************
 %nproc=32
 Will use up to   32 processors via shared memory.
 %mem=180GB
 %chk=B3LYP6-31Gdp.Frag_1078.chk
 ----------------------------
 #P OPT Freq B3LYP/6-31G(d,p)
 ----------------------------
 1/14=-1,18=20,19=15,26=3,38=1/1,3;
 2/9=110,12=2,17=6,18=5,40=1/2;
 3/5=1,6=6,7=101,11=2,16=1,25=1,30=1,71=1,74=-5/1,2,3;
 4//1;
 5/5=2,38=5/2;
 6/7=2,8=2,9=2,10=2,28=1/1;
 7//1,2,3,16;
 1/14=-1,18=20,19=15,26=3/3(2);
 2/9=110/2;
 99//99;
 2/9=110/2;
 3/5=1,6=6,7=101,11=2,16=1,25=1,30=1,71=1,74=-5/1,2,3;
 4/5=5,16=3,69=1/1;
 5/5=2,38=5/2;
 7//1,2,3,16;
 1/14=-1,18=20,19=15,26=3/3(-5);
 2/9=110/2;
 6/7=2,8=2,9=2,10=2,19=2,28=1/1;
 99/9=1/99;
 Leave Link    1 at Thu Sep  8 14:49:26 2022, MaxMem= 24159191040 cpu:         2.1
 (Enter /public/home/users/caep010/software/Gaussian09/g09/l101.exe)
 ---------
 Frag_1078
 ---------
 Symbolic Z-matrix:
 Charge =  0 Multiplicity = 1
 C                    -1.12766  -0.9106   -0.0507 
 C                     0.13397  -0.09008   0.1134 
 N                     0.99357  -0.18825  -1.03409 
 O                     0.70288  -0.3635    1.3515 
 N                    -0.21538   1.44504   0.13937 
 O                     0.67316   2.15476   0.60152 
 O                    -1.27665   1.82942  -0.30032 
 H                    -0.85289  -1.9691   -0.04354 
 H                    -1.62157  -0.66627  -0.98938 
 H                    -1.80637  -0.72459   0.78208 
 H                     1.87156   0.29392  -0.8673 
 H                     1.19378  -1.16185  -1.23525 
 H                     1.3316    0.35108   1.5326 
 
 NAtoms=     13 NQM=       13 NQMF=       0 NMMI=      0 NMMIF=      0
                NMic=       0 NMicF=      0.
                    Isotopes and Nuclear Properties:
 (Nuclear quadrupole moments (NQMom) in fm**2, nuclear magnetic moments (NMagM)
  in nuclear magnetons)

  Atom         1           2           3           4           5           6           7           8           9          10
 IAtWgt=          12          12          14          16          14          16          16           1           1           1
 AtmWgt=  12.0000000  12.0000000  14.0030740  15.9949146  14.0030740  15.9949146  15.9949146   1.0078250   1.0078250   1.0078250
 NucSpn=           0           0           2           0           2           0           0           1           1           1
 AtZEff=   0.0000000   0.0000000   0.0000000   0.0000000   0.0000000   0.0000000   0.0000000   0.0000000   0.0000000   0.0000000
 NQMom=    0.0000000   0.0000000   2.0440000   0.0000000   2.0440000   0.0000000   0.0000000   0.0000000   0.0000000   0.0000000
 NMagM=    0.0000000   0.0000000   0.4037610   0.0000000   0.4037610   0.0000000   0.0000000   2.7928460   2.7928460   2.7928460
 AtZNuc=   6.0000000   6.0000000   7.0000000   8.0000000   7.0000000   8.0000000   8.0000000   1.0000000   1.0000000   1.0000000

  Atom        11          12          13
 IAtWgt=           1           1           1
 AtmWgt=   1.0078250   1.0078250   1.0078250
 NucSpn=           1           1           1
 AtZEff=   0.0000000   0.0000000   0.0000000
 NQMom=    0.0000000   0.0000000   0.0000000
 NMagM=    2.7928460   2.7928460   2.7928460
 AtZNuc=   1.0000000   1.0000000   1.0000000
 Leave Link  101 at Thu Sep  8 14:49:26 2022, MaxMem= 24159191040 cpu:        10.2
 (Enter /public/home/users/caep010/software/Gaussian09/g09/l103.exe)

 GradGradGradGradGradGradGradGradGradGradGradGradGradGradGradGradGradGrad
 Berny optimization.
 Initialization pass.
                           ----------------------------
                           !    Initial Parameters    !
                           ! (Angstroms and Degrees)  !
 --------------------------                            --------------------------
 ! Name  Definition              Value          Derivative Info.                !
 --------------------------------------------------------------------------------
 ! R1    R(1,2)                  1.5139         estimate D2E/DX2                !
 ! R2    R(1,8)                  1.0936         estimate D2E/DX2                !
 ! R3    R(1,9)                  1.0885         estimate D2E/DX2                !
 ! R4    R(1,10)                 1.0903         estimate D2E/DX2                !
 ! R5    R(2,3)                  1.4371         estimate D2E/DX2                !
 ! R6    R(2,4)                  1.3897         estimate D2E/DX2                !
 ! R7    R(2,5)                  1.5746         estimate D2E/DX2                !
 ! R8    R(3,11)                 1.0155         estimate D2E/DX2                !
 ! R9    R(3,12)                 1.0141         estimate D2E/DX2                !
 ! R10   R(4,13)                 0.9689         estimate D2E/DX2                !
 ! R11   R(5,6)                  1.2275         estimate D2E/DX2                !
 ! R12   R(5,7)                  1.2113         estimate D2E/DX2                !
 ! A1    A(2,1,8)              108.3304         estimate D2E/DX2                !
 ! A2    A(2,1,9)              110.4855         estimate D2E/DX2                !
 ! A3    A(2,1,10)             110.0912         estimate D2E/DX2                !
 ! A4    A(8,1,9)              109.6894         estimate D2E/DX2                !
 ! A5    A(8,1,10)             108.4534         estimate D2E/DX2                !
 ! A6    A(9,1,10)             109.7503         estimate D2E/DX2                !
 ! A7    A(1,2,3)              112.0185         estimate D2E/DX2                !
 ! A8    A(1,2,4)              109.335          estimate D2E/DX2                !
 ! A9    A(1,2,5)              110.2001         estimate D2E/DX2                !
 ! A10   A(3,2,4)              116.9399         estimate D2E/DX2                !
 ! A11   A(3,2,5)              102.2674         estimate D2E/DX2                !
 ! A12   A(4,2,5)              105.5416         estimate D2E/DX2                !
 ! A13   A(2,3,11)             110.7067         estimate D2E/DX2                !
 ! A14   A(2,3,12)             110.0021         estimate D2E/DX2                !
 ! A15   A(11,3,12)            108.5262         estimate D2E/DX2                !
 ! A16   A(2,4,13)             106.6829         estimate D2E/DX2                !
 ! A17   A(2,5,6)              114.1607         estimate D2E/DX2                !
 ! A18   A(2,5,7)              119.8513         estimate D2E/DX2                !
 ! A19   A(6,5,7)              125.9704         estimate D2E/DX2                !
 ! D1    D(8,1,2,3)             68.0408         estimate D2E/DX2                !
 ! D2    D(8,1,2,4)            -63.2445         estimate D2E/DX2                !
 ! D3    D(8,1,2,5)           -178.8176         estimate D2E/DX2                !
 ! D4    D(9,1,2,3)            -52.1357         estimate D2E/DX2                !
 ! D5    D(9,1,2,4)            176.5791         estimate D2E/DX2                !
 ! D6    D(9,1,2,5)             61.0059         estimate D2E/DX2                !
 ! D7    D(10,1,2,3)          -173.519          estimate D2E/DX2                !
 ! D8    D(10,1,2,4)            55.1958         estimate D2E/DX2                !
 ! D9    D(10,1,2,5)           -60.3774         estimate D2E/DX2                !
 ! D10   D(1,2,3,11)          -174.4661         estimate D2E/DX2                !
 ! D11   D(1,2,3,12)           -54.5268         estimate D2E/DX2                !
 ! D12   D(4,2,3,11)           -47.1557         estimate D2E/DX2                !
 ! D13   D(4,2,3,12)            72.7836         estimate D2E/DX2                !
 ! D14   D(5,2,3,11)            67.5578         estimate D2E/DX2                !
 ! D15   D(5,2,3,12)          -172.5029         estimate D2E/DX2                !
 ! D16   D(1,2,4,13)          -163.2962         estimate D2E/DX2                !
 ! D17   D(3,2,4,13)            68.095          estimate D2E/DX2                !
 ! D18   D(5,2,4,13)           -44.7799         estimate D2E/DX2                !
 ! D19   D(1,2,5,6)            162.3733         estimate D2E/DX2                !
 ! D20   D(1,2,5,7)            -19.0593         estimate D2E/DX2                !
 ! D21   D(3,2,5,6)            -78.364          estimate D2E/DX2                !
 ! D22   D(3,2,5,7)            100.2034         estimate D2E/DX2                !
 ! D23   D(4,2,5,6)             44.4361         estimate D2E/DX2                !
 ! D24   D(4,2,5,7)           -136.9965         estimate D2E/DX2                !
 --------------------------------------------------------------------------------
 Trust Radius=3.00D-01 FncErr=1.00D-07 GrdErr=1.00D-06
 Number of steps in this run=     65 maximum allowed number of steps=    100.
 GradGradGradGradGradGradGradGradGradGradGradGradGradGradGradGradGradGrad

 Leave Link  103 at Thu Sep  8 14:49:26 2022, MaxMem= 24159191040 cpu:         0.5
 (Enter /public/home/users/caep010/software/Gaussian09/g09/l202.exe)
                          Input orientation:                          
 ---------------------------------------------------------------------
 Center     Atomic      Atomic             Coordinates (Angstroms)
 Number     Number       Type             X           Y           Z
 ---------------------------------------------------------------------
      1          6           0       -1.127658   -0.910598   -0.050697
      2          6           0        0.133968   -0.090084    0.113397
      3          7           0        0.993570   -0.188249   -1.034087
      4          8           0        0.702878   -0.363497    1.351501
      5          7           0       -0.215379    1.445043    0.139371
      6          8           0        0.673158    2.154759    0.601524
      7          8           0       -1.276649    1.829421   -0.300318
      8          1           0       -0.852886   -1.969096   -0.043538
      9          1           0       -1.621574   -0.666268   -0.989383
     10          1           0       -1.806373   -0.724588    0.782076
     11          1           0        1.871559    0.293924   -0.867296
     12          1           0        1.193784   -1.161849   -1.235252
     13          1           0        1.331603    0.351081    1.532602
 ---------------------------------------------------------------------
                    Distance matrix (angstroms):
                    1          2          3          4          5
     1  C    0.000000
     2  C    1.513892   0.000000
     3  N    2.447131   1.437105   0.000000
     4  O    2.369882   1.389718   2.409615   0.000000
     5  N    2.533263   1.574590   2.346530   2.362895   0.000000
     6  O    3.614519   2.359728   2.875339   2.627729   1.227510
     7  O    2.755397   2.417747   3.124629   3.384660   1.211349
     8  H    1.093604   2.128191   2.749910   2.635239   3.477961
     9  H    1.088477   2.151753   2.658849   3.312776   2.776527
    10  H    1.090305   2.148174   3.380205   2.598263   2.766158
    11  H    3.333618   2.031857   1.015468   2.592504   2.587231
    12  H    2.618280   2.022559   1.014125   2.751299   3.266683
    13  H    3.185378   1.908690   2.644435   0.968873   2.351808
                    6          7          8          9         10
     6  O    0.000000
     7  O    2.172766   0.000000
     8  H    4.444220   3.830697   0.000000
     9  H    3.969254   2.611943   1.784059   0.000000
    10  H    3.804118   2.824030   1.771885   1.782027   0.000000
    11  H    2.656370   3.548299   3.636267   3.624755   4.157521
    12  H    3.826838   3.990594   2.502137   2.869197   3.641669
    13  H    2.133942   3.513981   3.555198   4.014556   3.401065
                   11         12         13
    11  H    0.000000
    12  H    1.647436   0.000000
    13  H    2.460555   3.157367   0.000000
 Stoichiometry    C2H6N2O3
 Framework group  C1[X(C2H6N2O3)]
 Deg. of freedom    33
 Full point group                 C1      NOp   1
 Largest Abelian subgroup         C1      NOp   1
 Largest concise Abelian subgroup C1      NOp   1
                         Standard orientation:                         
 ---------------------------------------------------------------------
 Center     Atomic      Atomic             Coordinates (Angstroms)
 Number     Number       Type             X           Y           Z
 ---------------------------------------------------------------------
      1          6           0        1.309291    1.218809   -0.315654
      2          6           0        0.595843   -0.081528   -0.012362
      3          7           0        0.847299   -0.534071    1.328252
      4          8           0        0.835418   -0.987932   -1.038204
      5          7           0       -0.962662    0.142761   -0.002967
      6          8           0       -1.619393   -0.889170   -0.105941
      7          8           0       -1.410128    1.261004    0.126157
      8          1           0        2.385261    1.024232   -0.335590
      9          1           0        1.085246    1.962982    0.446444
     10          1           0        1.007841    1.591876   -1.294793
     11          1           0        0.435551   -1.449607    1.481327
     12          1           0        1.846204   -0.598718    1.490920
     13          1           0        0.169452   -1.686498   -0.953299
 ---------------------------------------------------------------------
 Rotational constants (GHZ):      3.6279477      2.5919507      2.1700847
 Leave Link  202 at Thu Sep  8 14:49:26 2022, MaxMem= 24159191040 cpu:         0.7
 (Enter /public/home/users/caep010/software/Gaussian09/g09/l301.exe)
 Standard basis: 6-31G(d,p) (6D, 7F)
 Ernie: Thresh=  0.10000D-02 Tol=  0.10000D-05 Strict=F.
 There are   135 symmetry adapted cartesian basis functions of A   symmetry.
 There are   135 symmetry adapted basis functions of A   symmetry.
   135 basis functions,   238 primitive gaussians,   135 cartesian basis functions
    28 alpha electrons       28 beta electrons
       nuclear repulsion energy       341.3966800595 Hartrees.
 IExCor=  402 DFT=T Ex+Corr=B3LYP ExCW=0 ScaHFX=  0.200000
 ScaDFX=  0.800000  0.720000  1.000000  0.810000 ScalE2=  1.000000  1.000000
 IRadAn=      0 IRanWt=     -1 IRanGd=            0 ICorTp=0 IEmpDi=  4
 NAtoms=   13 NActive=   13 NUniq=   13 SFac= 1.00D+00 NAtFMM=   60 NAOKFM=F Big=F
 Integral buffers will be    131072 words long.
 Raffenetti 2 integral format.
 Two-electron integral symmetry is turned on.
 Leave Link  301 at Thu Sep  8 14:49:26 2022, MaxMem= 24159191040 cpu:         2.0
 (Enter /public/home/users/caep010/software/Gaussian09/g09/l302.exe)
 NPDir=0 NMtPBC=     1 NCelOv=     1 NCel=       1 NClECP=     1 NCelD=      1
         NCelK=      1 NCelE2=     1 NClLst=     1 CellRange=     0.0.
 One-electron integrals computed using PRISM.
 NBasis=   135 RedAO= T EigKep=  2.27D-03  NBF=   135
 NBsUse=   135 1.00D-06 EigRej= -1.00D+00 NBFU=   135
 Precomputing XC quadrature grid using
 IXCGrd= 4 IRadAn=           0 IRanWt=          -1 IRanGd=           0 AccXCQ= 0.00D+00.
 Generated NRdTot=       0 NPtTot=           0 NUsed=           0 NTot=          32
 NSgBfM=   135   135   135   135   135 MxSgAt=    13 MxSgA2=    13.
 Leave Link  302 at Thu Sep  8 14:49:27 2022, MaxMem= 24159191040 cpu:        11.6
 (Enter /public/home/users/caep010/software/Gaussian09/g09/l303.exe)
 DipDrv:  MaxL=1.
 Leave Link  303 at Thu Sep  8 14:49:27 2022, MaxMem= 24159191040 cpu:         0.7
 (Enter /public/home/users/caep010/software/Gaussian09/g09/l401.exe)
 ExpMin= 1.61D-01 ExpMax= 5.48D+03 ExpMxC= 8.25D+02 IAcc=1 IRadAn=         1 AccDes= 0.00D+00
 Harris functional with IExCor=  402 and IRadAn=       1 diagonalized for initial guess.
 HarFok:  IExCor=  402 AccDes= 0.00D+00 IRadAn=         1 IDoV= 1 UseB2=F ITyADJ=14
 ICtDFT=  3500011 ScaDFX=  1.000000  1.000000  1.000000  1.000000
 FoFCou: FMM=F IPFlag=           0 FMFlag=      100000 FMFlg1=           0
         NFxFlg=           0 DoJE=T BraDBF=F KetDBF=T FulRan=T
         wScrn=  0.000000 ICntrl=     500 IOpCl=  0 I1Cent=   200000004 NGrid=           0
         NMat0=    1 NMatS0=      1 NMatT0=    0 NMatD0=    1 NMtDS0=    0 NMtDT0=    0
 Petite list used in FoFCou.
 Harris En= -414.959692180663    
 JPrj=0 DoOrth=F DoCkMO=F.
 Leave Link  401 at Thu Sep  8 14:49:27 2022, MaxMem= 24159191040 cpu:        10.6
 (Enter /public/home/users/caep010/software/Gaussian09/g09/l502.exe)
 Closed shell SCF:
 Using DIIS extrapolation, IDIIS=  1040.
 Integral symmetry usage will be decided dynamically.
 Keep R1 ints in memory in canonical form, NReq=43477012.
 IVT=       78562 IEndB=       78562 NGot= 24159191040 MDV= 24116971689
 LenX= 24116971689 LenY= 24116953023
 Requested convergence on RMS density matrix=1.00D-08 within 128 cycles.
 Requested convergence on MAX density matrix=1.00D-06.
 Requested convergence on             energy=1.00D-06.
 No special actions if energy rises.
 FoFCou: FMM=F IPFlag=           0 FMFlag=           0 FMFlg1=           0
         NFxFlg=           0 DoJE=F BraDBF=F KetDBF=F FulRan=T
         wScrn=  0.000000 ICntrl=     600 IOpCl=  0 I1Cent=           0 NGrid=           0
         NMat0=    1 NMatS0=   9180 NMatT0=    0 NMatD0=    1 NMtDS0=    0 NMtDT0=    0
 Symmetry not used in FoFCou.
 Integral accuracy reduced to 1.0D-05 until final iterations.

 Cycle   1  Pass 0  IDiag  1:
 E= -414.622095191768    
 DIIS: error= 3.17D-02 at cycle   1 NSaved=   1.
 NSaved= 1 IEnMin= 1 EnMin= -414.622095191768     IErMin= 1 ErrMin= 3.17D-02
 ErrMax= 3.17D-02  0.00D+00 EMaxC= 1.00D-01 BMatC= 3.82D-01 BMatP= 3.82D-01
 IDIUse=3 WtCom= 6.83D-01 WtEn= 3.17D-01
 Coeff-Com:  0.100D+01
 Coeff-En:   0.100D+01
 Coeff:      0.100D+01
 Gap=     0.126 Goal=   None    Shift=    0.000
 GapD=    0.126 DampG=1.000 DampE=0.500 DampFc=0.5000 IDamp=-1.
 Damping current iteration by 5.00D-01
 RMSDP=8.16D-03 MaxDP=2.51D-01              OVMax= 3.30D-01

 Cycle   2  Pass 0  IDiag  1:
 E= -414.684957761972     Delta-E=       -0.062862570203 Rises=F Damp=T
 DIIS: error= 1.44D-02 at cycle   2 NSaved=   2.
 NSaved= 2 IEnMin= 2 EnMin= -414.684957761972     IErMin= 2 ErrMin= 1.44D-02
 ErrMax= 1.44D-02  0.00D+00 EMaxC= 1.00D-01 BMatC= 6.37D-02 BMatP= 3.82D-01
 IDIUse=3 WtCom= 8.56D-01 WtEn= 1.44D-01
 Coeff-Com:  0.261D+00 0.739D+00
 Coeff-En:   0.398D+00 0.602D+00
 Coeff:      0.280D+00 0.720D+00
 Gap=     0.181 Goal=   None    Shift=    0.000
 RMSDP=2.02D-03 MaxDP=7.39D-02 DE=-6.29D-02 OVMax= 1.94D-01

 Cycle   3  Pass 0  IDiag  1:
 E= -414.896366267819     Delta-E=       -0.211408505848 Rises=F Damp=F
 DIIS: error= 7.45D-03 at cycle   3 NSaved=   3.
 NSaved= 3 IEnMin= 3 EnMin= -414.896366267819     IErMin= 3 ErrMin= 7.45D-03
 ErrMax= 7.45D-03  0.00D+00 EMaxC= 1.00D-01 BMatC= 1.93D-02 BMatP= 6.37D-02
 IDIUse=3 WtCom= 9.26D-01 WtEn= 7.45D-02
 Coeff-Com:  0.122D+00 0.382D+00 0.496D+00
 Coeff-En:   0.000D+00 0.000D+00 0.100D+01
 Coeff:      0.113D+00 0.353D+00 0.534D+00
 Gap=     0.215 Goal=   None    Shift=    0.000
 RMSDP=1.17D-03 MaxDP=3.72D-02 DE=-2.11D-01 OVMax= 6.18D-02

 Cycle   4  Pass 0  IDiag  1:
 E= -414.907847884384     Delta-E=       -0.011481616564 Rises=F Damp=F
 DIIS: error= 6.32D-03 at cycle   4 NSaved=   4.
 NSaved= 4 IEnMin= 4 EnMin= -414.907847884384     IErMin= 4 ErrMin= 6.32D-03
 ErrMax= 6.32D-03  0.00D+00 EMaxC= 1.00D-01 BMatC= 6.26D-03 BMatP= 1.93D-02
 IDIUse=3 WtCom= 9.37D-01 WtEn= 6.32D-02
 Coeff-Com:  0.426D-01 0.120D+00 0.354D+00 0.484D+00
 Coeff-En:   0.000D+00 0.000D+00 0.248D+00 0.752D+00
 Coeff:      0.399D-01 0.112D+00 0.347D+00 0.501D+00
 Gap=     0.220 Goal=   None    Shift=    0.000
 RMSDP=6.69D-04 MaxDP=2.77D-02 DE=-1.15D-02 OVMax= 5.39D-02

 Cycle   5  Pass 0  IDiag  1:
 E= -414.910575541219     Delta-E=       -0.002727656836 Rises=F Damp=F
 DIIS: error= 4.92D-03 at cycle   5 NSaved=   5.
 NSaved= 5 IEnMin= 5 EnMin= -414.910575541219     IErMin= 5 ErrMin= 4.92D-03
 ErrMax= 4.92D-03  0.00D+00 EMaxC= 1.00D-01 BMatC= 2.71D-03 BMatP= 6.26D-03
 IDIUse=3 WtCom= 9.51D-01 WtEn= 4.92D-02
 Coeff-Com:  0.804D-02 0.836D-02 0.175D+00 0.420D+00 0.388D+00
 Coeff-En:   0.000D+00 0.000D+00 0.000D+00 0.341D+00 0.659D+00
 Coeff:      0.764D-02 0.795D-02 0.166D+00 0.417D+00 0.402D+00
 Gap=     0.207 Goal=   None    Shift=    0.000
 RMSDP=3.21D-04 MaxDP=1.26D-02 DE=-2.73D-03 OVMax= 2.46D-02

 Cycle   6  Pass 0  IDiag  1:
 E= -414.912693262270     Delta-E=       -0.002117721051 Rises=F Damp=F
 DIIS: error= 5.77D-04 at cycle   6 NSaved=   6.
 NSaved= 6 IEnMin= 6 EnMin= -414.912693262270     IErMin= 6 ErrMin= 5.77D-04
 ErrMax= 5.77D-04  0.00D+00 EMaxC= 1.00D-01 BMatC= 6.71D-05 BMatP= 2.71D-03
 IDIUse=3 WtCom= 9.94D-01 WtEn= 5.77D-03
 Coeff-Com:  0.152D-02-0.168D-02 0.647D-01 0.187D+00 0.223D+00 0.526D+00
 Coeff-En:   0.000D+00 0.000D+00 0.000D+00 0.000D+00 0.000D+00 0.100D+01
 Coeff:      0.151D-02-0.167D-02 0.643D-01 0.185D+00 0.222D+00 0.529D+00
 Gap=     0.210 Goal=   None    Shift=    0.000
 RMSDP=5.45D-05 MaxDP=1.91D-03 DE=-2.12D-03 OVMax= 2.16D-03

 Cycle   7  Pass 0  IDiag  1:
 E= -414.912743944584     Delta-E=       -0.000050682314 Rises=F Damp=F
 DIIS: error= 9.66D-05 at cycle   7 NSaved=   7.
 NSaved= 7 IEnMin= 7 EnMin= -414.912743944584     IErMin= 7 ErrMin= 9.66D-05
 ErrMax= 9.66D-05  0.00D+00 EMaxC= 1.00D-01 BMatC= 2.01D-06 BMatP= 6.71D-05
 IDIUse=1 WtCom= 1.00D+00 WtEn= 0.00D+00
 Coeff-Com: -0.323D-04-0.169D-02 0.147D-01 0.488D-01 0.687D-01 0.229D+00
 Coeff-Com:  0.641D+00
 Coeff:     -0.323D-04-0.169D-02 0.147D-01 0.488D-01 0.687D-01 0.229D+00
 Coeff:      0.641D+00
 Gap=     0.209 Goal=   None    Shift=    0.000
 RMSDP=9.87D-06 MaxDP=2.04D-04 DE=-5.07D-05 OVMax= 2.40D-04

 Initial convergence to 1.0D-05 achieved.  Increase integral accuracy.
 Cycle   8  Pass 1  IDiag  1:
 E= -414.912715475693     Delta-E=        0.000028468891 Rises=F Damp=F
 DIIS: error= 1.65D-05 at cycle   1 NSaved=   1.
 NSaved= 1 IEnMin= 1 EnMin= -414.912715475693     IErMin= 1 ErrMin= 1.65D-05
 ErrMax= 1.65D-05  0.00D+00 EMaxC= 1.00D-01 BMatC= 1.38D-07 BMatP= 1.38D-07
 IDIUse=1 WtCom= 1.00D+00 WtEn= 0.00D+00
 Coeff-Com:  0.100D+01
 Coeff:      0.100D+01
 Gap=     0.209 Goal=   None    Shift=    0.000
 RMSDP=9.87D-06 MaxDP=2.04D-04 DE= 2.85D-05 OVMax= 1.31D-04

 Cycle   9  Pass 1  IDiag  1:
 E= -414.912715437363     Delta-E=        0.000000038331 Rises=F Damp=F
 DIIS: error= 2.32D-05 at cycle   2 NSaved=   2.
 NSaved= 2 IEnMin= 1 EnMin= -414.912715475693     IErMin= 1 ErrMin= 1.65D-05
 ErrMax= 2.32D-05  0.00D+00 EMaxC= 1.00D-01 BMatC= 2.07D-07 BMatP= 1.38D-07
 IDIUse=1 WtCom= 1.00D+00 WtEn= 0.00D+00
 Coeff-Com:  0.555D+00 0.445D+00
 Coeff:      0.555D+00 0.445D+00
 Gap=     0.209 Goal=   None    Shift=    0.000
 RMSDP=2.97D-06 MaxDP=8.01D-05 DE= 3.83D-08 OVMax= 1.15D-04

 Cycle  10  Pass 1  IDiag  1:
 E= -414.912715587869     Delta-E=       -0.000000150507 Rises=F Damp=F
 DIIS: error= 1.02D-05 at cycle   3 NSaved=   3.
 NSaved= 3 IEnMin= 3 EnMin= -414.912715587869     IErMin= 3 ErrMin= 1.02D-05
 ErrMax= 1.02D-05  0.00D+00 EMaxC= 1.00D-01 BMatC= 1.46D-08 BMatP= 1.38D-07
 IDIUse=1 WtCom= 1.00D+00 WtEn= 0.00D+00
 Coeff-Com:  0.230D+00 0.246D+00 0.524D+00
 Coeff:      0.230D+00 0.246D+00 0.524D+00
 Gap=     0.209 Goal=   None    Shift=    0.000
 RMSDP=1.18D-06 MaxDP=4.96D-05 DE=-1.51D-07 OVMax= 9.27D-05

 Cycle  11  Pass 1  IDiag  1:
 E= -414.912715590936     Delta-E=       -0.000000003067 Rises=F Damp=F
 DIIS: error= 9.36D-06 at cycle   4 NSaved=   4.
 NSaved= 4 IEnMin= 4 EnMin= -414.912715590936     IErMin= 4 ErrMin= 9.36D-06
 ErrMax= 9.36D-06  0.00D+00 EMaxC= 1.00D-01 BMatC= 1.03D-08 BMatP= 1.46D-08
 IDIUse=1 WtCom= 1.00D+00 WtEn= 0.00D+00
 Coeff-Com:  0.234D-01 0.713D-01 0.456D+00 0.449D+00
 Coeff:      0.234D-01 0.713D-01 0.456D+00 0.449D+00
 Gap=     0.209 Goal=   None    Shift=    0.000
 RMSDP=6.57D-07 MaxDP=2.51D-05 DE=-3.07D-09 OVMax= 5.10D-05

 Cycle  12  Pass 1  IDiag  1:
 E= -414.912715598598     Delta-E=       -0.000000007662 Rises=F Damp=F
 DIIS: error= 1.56D-06 at cycle   5 NSaved=   5.
 NSaved= 5 IEnMin= 5 EnMin= -414.912715598598     IErMin= 5 ErrMin= 1.56D-06
 ErrMax= 1.56D-06  0.00D+00 EMaxC= 1.00D-01 BMatC= 6.48D-10 BMatP= 1.03D-08
 IDIUse=1 WtCom= 1.00D+00 WtEn= 0.00D+00
 Coeff-Com: -0.966D-02 0.196D-01 0.239D+00 0.292D+00 0.459D+00
 Coeff:     -0.966D-02 0.196D-01 0.239D+00 0.292D+00 0.459D+00
 Gap=     0.209 Goal=   None    Shift=    0.000
 RMSDP=1.54D-07 MaxDP=5.37D-06 DE=-7.66D-09 OVMax= 7.21D-06

 Cycle  13  Pass 1  IDiag  1:
 E= -414.912715599090     Delta-E=       -0.000000000491 Rises=F Damp=F
 DIIS: error= 2.40D-07 at cycle   6 NSaved=   6.
 NSaved= 6 IEnMin= 6 EnMin= -414.912715599090     IErMin= 6 ErrMin= 2.40D-07
 ErrMax= 2.40D-07  0.00D+00 EMaxC= 1.00D-01 BMatC= 1.20D-11 BMatP= 6.48D-10
 IDIUse=1 WtCom= 1.00D+00 WtEn= 0.00D+00
 Coeff-Com: -0.559D-02 0.704D-02 0.101D+00 0.128D+00 0.226D+00 0.544D+00
 Coeff:     -0.559D-02 0.704D-02 0.101D+00 0.128D+00 0.226D+00 0.544D+00
 Gap=     0.209 Goal=   None    Shift=    0.000
 RMSDP=2.73D-08 MaxDP=8.72D-07 DE=-4.91D-10 OVMax= 9.80D-07

 Cycle  14  Pass 1  IDiag  1:
 E= -414.912715599095     Delta-E=       -0.000000000005 Rises=F Damp=F
 DIIS: error= 8.05D-08 at cycle   7 NSaved=   7.
 NSaved= 7 IEnMin= 7 EnMin= -414.912715599095     IErMin= 7 ErrMin= 8.05D-08
 ErrMax= 8.05D-08  0.00D+00 EMaxC= 1.00D-01 BMatC= 2.29D-12 BMatP= 1.20D-11
 IDIUse=1 WtCom= 1.00D+00 WtEn= 0.00D+00
 Coeff-Com: -0.218D-02 0.178D-02 0.305D-01 0.404D-01 0.770D-01 0.334D+00
 Coeff-Com:  0.519D+00
 Coeff:     -0.218D-02 0.178D-02 0.305D-01 0.404D-01 0.770D-01 0.334D+00
 Coeff:      0.519D+00
 Gap=     0.209 Goal=   None    Shift=    0.000
 RMSDP=9.87D-09 MaxDP=3.11D-07 DE=-5.46D-12 OVMax= 3.18D-07

 SCF Done:  E(RB3LYP) =  -414.912715599     A.U. after   14 cycles
            NFock= 14  Conv=0.99D-08     -V/T= 2.0085
 KE= 4.114147857082D+02 PE=-1.654900010287D+03 EE= 4.871758289199D+02
 Leave Link  502 at Thu Sep  8 14:49:30 2022, MaxMem= 24159191040 cpu:        51.5
 (Enter /public/home/users/caep010/software/Gaussian09/g09/l601.exe)
 Copying SCF densities to generalized density rwf, IOpCl= 0 IROHF=0.

 **********************************************************************

            Population analysis using the SCF density.

 **********************************************************************

 Orbital symmetries:
       Occupied  (A) (A) (A) (A) (A) (A) (A) (A) (A) (A) (A) (A)
                 (A) (A) (A) (A) (A) (A) (A) (A) (A) (A) (A) (A)
                 (A) (A) (A) (A)
       Virtual   (A) (A) (A) (A) (A) (A) (A) (A) (A) (A) (A) (A)
                 (A) (A) (A) (A) (A) (A) (A) (A) (A) (A) (A) (A)
                 (A) (A) (A) (A) (A) (A) (A) (A) (A) (A) (A) (A)
                 (A) (A) (A) (A) (A) (A) (A) (A) (A) (A) (A) (A)
                 (A) (A) (A) (A) (A) (A) (A) (A) (A) (A) (A) (A)
                 (A) (A) (A) (A) (A) (A) (A) (A) (A) (A) (A) (A)
                 (A) (A) (A) (A) (A) (A) (A) (A) (A) (A) (A) (A)
                 (A) (A) (A) (A) (A) (A) (A) (A) (A) (A) (A) (A)
                 (A) (A) (A) (A) (A) (A) (A) (A) (A) (A) (A)
 The electronic state is 1-A.
 Alpha  occ. eigenvalues --  -19.19590 -19.19362 -19.17522 -14.56829 -14.34906
 Alpha  occ. eigenvalues --  -10.33306 -10.19937  -1.23844  -1.07899  -1.05965
 Alpha  occ. eigenvalues --   -0.91755  -0.77755  -0.71110  -0.59809  -0.57973
 Alpha  occ. eigenvalues --   -0.55153  -0.52933  -0.51606  -0.49076  -0.44039
 Alpha  occ. eigenvalues --   -0.41596  -0.40897  -0.39352  -0.35463  -0.32156
 Alpha  occ. eigenvalues --   -0.30795  -0.29130  -0.27703
 Alpha virt. eigenvalues --   -0.06782   0.06453   0.08314   0.11261   0.12694
 Alpha virt. eigenvalues --    0.14403   0.16979   0.17554   0.21090   0.23138
 Alpha virt. eigenvalues --    0.26814   0.28812   0.37875   0.51606   0.53404
 Alpha virt. eigenvalues --    0.54009   0.57251   0.58402   0.59866   0.66958
 Alpha virt. eigenvalues --    0.67334   0.69297   0.71150   0.75172   0.76736
 Alpha virt. eigenvalues --    0.82039   0.82387   0.84236   0.84809   0.85503
 Alpha virt. eigenvalues --    0.86450   0.90417   0.92383   0.93723   0.98183
 Alpha virt. eigenvalues --    0.99374   1.01643   1.02400   1.04354   1.10400
 Alpha virt. eigenvalues --    1.11398   1.20687   1.24140   1.31512   1.35194
 Alpha virt. eigenvalues --    1.36556   1.46541   1.47622   1.51671   1.53538
 Alpha virt. eigenvalues --    1.62970   1.65878   1.68192   1.74722   1.77778
 Alpha virt. eigenvalues --    1.79501   1.82185   1.84569   1.88875   1.90381
 Alpha virt. eigenvalues --    1.91022   1.97615   1.98562   2.02263   2.03659
 Alpha virt. eigenvalues --    2.06975   2.09963   2.10628   2.16789   2.18865
 Alpha virt. eigenvalues --    2.21443   2.27696   2.32394   2.32968   2.36295
 Alpha virt. eigenvalues --    2.41235   2.42625   2.46835   2.50658   2.56170
 Alpha virt. eigenvalues --    2.63309   2.66905   2.69515   2.74230   2.78367
 Alpha virt. eigenvalues --    2.80236   2.83023   2.86370   2.88352   2.92104
 Alpha virt. eigenvalues --    2.98653   2.99986   3.04439   3.10140   3.20458
 Alpha virt. eigenvalues --    3.28201   3.39868   3.43125   3.44003   3.50671
 Alpha virt. eigenvalues --    3.68042   3.79966   3.90240   4.00951   4.13581
 Alpha virt. eigenvalues --    4.46593   4.66979
          Condensed to atoms (all electrons):
               1          2          3          4          5          6
     1  C    5.000349   0.361879  -0.075656  -0.065749  -0.041448   0.004939
     2  C    0.361879   4.789551   0.315688   0.241921   0.185852  -0.082736
     3  N   -0.075656   0.315688   6.800178  -0.079862  -0.071596  -0.003778
     4  O   -0.065749   0.241921  -0.079862   8.185437  -0.046527  -0.010799
     5  N   -0.041448   0.185852  -0.071596  -0.046527   5.961494   0.258730
     6  O    0.004939  -0.082736  -0.003778  -0.010799   0.258730   8.280332
     7  O    0.004244  -0.072403   0.003937   0.002494   0.292887  -0.087983
     8  H    0.362341  -0.019780  -0.003512  -0.000643   0.003183  -0.000091
     9  H    0.372858  -0.022643   0.001322   0.003465  -0.003590   0.000073
    10  H    0.376309  -0.022165   0.004436   0.001711  -0.004558   0.000045
    11  H    0.007370  -0.021648   0.321963  -0.001814  -0.006547   0.008863
    12  H   -0.007023  -0.031396   0.342221   0.001760   0.005325  -0.000148
    13  H    0.008039  -0.021330  -0.001813   0.276254  -0.013339   0.032631
               7          8          9         10         11         12
     1  C    0.004244   0.362341   0.372858   0.376309   0.007370  -0.007023
     2  C   -0.072403  -0.019780  -0.022643  -0.022165  -0.021648  -0.031396
     3  N    0.003937  -0.003512   0.001322   0.004436   0.321963   0.342221
     4  O    0.002494  -0.000643   0.003465   0.001711  -0.001814   0.001760
     5  N    0.292887   0.003183  -0.003590  -0.004558  -0.006547   0.005325
     6  O   -0.087983  -0.000091   0.000073   0.000045   0.008863  -0.000148
     7  O    8.207987   0.000425   0.005355   0.002256  -0.000114  -0.000278
     8  H    0.000425   0.583569  -0.025797  -0.024555  -0.000145   0.003038
     9  H    0.005355  -0.025797   0.542821  -0.023177  -0.000102  -0.000265
    10  H    0.002256  -0.024555  -0.023177   0.550130  -0.000244  -0.000093
    11  H   -0.000114  -0.000145  -0.000102  -0.000244   0.458413  -0.026912
    12  H   -0.000278   0.003038  -0.000265  -0.000093  -0.026912   0.452195
    13  H    0.000589  -0.000311  -0.000295  -0.000140   0.004497  -0.000271
              13
     1  C    0.008039
     2  C   -0.021330
     3  N   -0.001813
     4  O    0.276254
     5  N   -0.013339
     6  O    0.032631
     7  O    0.000589
     8  H   -0.000311
     9  H   -0.000295
    10  H   -0.000140
    11  H    0.004497
    12  H   -0.000271
    13  H    0.396292
 Mulliken charges:
               1
     1  C   -0.308453
     2  C    0.399207
     3  N   -0.553528
     4  O   -0.507648
     5  N    0.480135
     6  O   -0.400077
     7  O   -0.359396
     8  H    0.122278
     9  H    0.149975
    10  H    0.140043
    11  H    0.256421
    12  H    0.261847
    13  H    0.319197
 Sum of Mulliken charges =  -0.00000
 Mulliken charges with hydrogens summed into heavy atoms:
               1
     1  C    0.103843
     2  C    0.399207
     3  N   -0.035261
     4  O   -0.188451
     5  N    0.480135
     6  O   -0.400077
     7  O   -0.359396
 Electronic spatial extent (au):  <R**2>=            653.9812
 Charge=             -0.0000 electrons
 Dipole moment (field-independent basis, Debye):
    X=              2.9982    Y=             -1.2258    Z=              0.4849  Tot=              3.2752
 Quadrupole moment (field-independent basis, Debye-Ang):
   XX=            -42.6500   YY=            -38.1506   ZZ=            -41.3697
   XY=              1.3035   XZ=              2.9276   YZ=             -2.7359
 Traceless Quadrupole moment (field-independent basis, Debye-Ang):
   XX=             -1.9266   YY=              2.5728   ZZ=             -0.6462
   XY=              1.3035   XZ=              2.9276   YZ=             -2.7359
 Octapole moment (field-independent basis, Debye-Ang**2):
  XXX=              9.3788  YYY=            -13.5469  ZZZ=             -2.9723  XYY=              2.8581
  XXY=              0.5035  XXZ=              5.4874  XZZ=             -3.6239  YZZ=             -3.9413
  YYZ=              0.3148  XYZ=             -3.3806
 Hexadecapole moment (field-independent basis, Debye-Ang**3):
 XXXX=           -360.4058 YYYY=           -228.4306 ZZZZ=           -166.0914 XXXY=             -6.7459
 XXXZ=             11.1157 YYYX=             -2.6485 YYYZ=              4.3532 ZZZX=              4.5497
 ZZZY=             -4.6243 XXYY=           -109.9721 XXZZ=            -81.7795 YYZZ=            -56.7588
 XXYZ=             -5.6680 YYXZ=              3.5783 ZZXY=             -2.8038
 N-N= 3.413966800595D+02 E-N=-1.654900004556D+03  KE= 4.114147857082D+02
 No NMR shielding tensors so no spin-rotation constants.
 Leave Link  601 at Thu Sep  8 14:49:30 2022, MaxMem= 24159191040 cpu:        10.6
 (Enter /public/home/users/caep010/software/Gaussian09/g09/l701.exe)
 Compute integral first derivatives.
 ... and contract with generalized density number  0.
 Leave Link  701 at Thu Sep  8 14:49:30 2022, MaxMem= 24159191040 cpu:        10.5
 (Enter /public/home/users/caep010/software/Gaussian09/g09/l702.exe)
 L702 exits ... SP integral derivatives will be done elsewhere.
 Leave Link  702 at Thu Sep  8 14:49:31 2022, MaxMem= 24159191040 cpu:         0.6
 (Enter /public/home/users/caep010/software/Gaussian09/g09/l703.exe)
 Compute integral first derivatives, UseDBF=F ICtDFT=           0.
 Integral derivatives from FoFJK, PRISM(SPDF).
 Calling FoFJK, ICntrl=      2127 FMM=F ISym2X=0 I1Cent= 0 IOpClX= 0 NMat=1 NMatS=1 NMatT=0.
 FoFJK:  IHMeth= 1 ICntrl=    2127 DoSepK=F KAlg= 0 I1Cent=   0 FoldK=F
 IRaf=         0 NMat=   1 IRICut=       1 DoRegI=T DoRafI=F ISym2E= 0.
 FoFCou: FMM=F IPFlag=           0 FMFlag=      100000 FMFlg1=         800
         NFxFlg=           0 DoJE=F BraDBF=F KetDBF=F FulRan=T
         wScrn=  0.000000 ICntrl=    2127 IOpCl=  0 I1Cent=           0 NGrid=           0
         NMat0=    1 NMatS0=      1 NMatT0=    0 NMatD0=    1 NMtDS0=    0 NMtDT0=    0
 Symmetry not used in FoFCou.
 Leave Link  703 at Thu Sep  8 14:49:31 2022, MaxMem= 24159191040 cpu:        12.3
 (Enter /public/home/users/caep010/software/Gaussian09/g09/l716.exe)
 Dipole        = 1.17956569D+00-4.82274847D-01 1.90761110D-01
 ***** Axes restored to original set *****
 -------------------------------------------------------------------
 Center     Atomic                   Forces (Hartrees/Bohr)
 Number     Number              X              Y              Z
 -------------------------------------------------------------------
      1        6           0.000006838   -0.000287553    0.000104099
      2        6          -0.000849351    0.000244796   -0.002589478
      3        7          -0.000741955    0.000160904   -0.000170483
      4        8          -0.001068201   -0.002978501    0.001648644
      5        7           0.000816999   -0.007973654    0.000269084
      6        8           0.007039355    0.005644423    0.003543071
      7        8          -0.008457416    0.003381872   -0.003558199
      8        1          -0.000073125   -0.000040045    0.000077181
      9        1          -0.000057564    0.000014384   -0.000138346
     10        1          -0.000026204    0.000022708    0.000137170
     11        1           0.001082838    0.000717047    0.000169416
     12        1           0.000127416   -0.001242797   -0.000235986
     13        1           0.002200371    0.002336415    0.000743828
 -------------------------------------------------------------------
 Cartesian Forces:  Max     0.008457416 RMS     0.002722497
 Leave Link  716 at Thu Sep  8 14:49:31 2022, MaxMem= 24159191040 cpu:         0.9
 (Enter /public/home/users/caep010/software/Gaussian09/g09/l103.exe)

 GradGradGradGradGradGradGradGradGradGradGradGradGradGradGradGradGradGrad
 Berny optimization.
 FormGI is forming the generalized inverse of G from B-inverse, IUseBI=4.
 Internal  Forces:  Max     0.009774427 RMS     0.001970282
 Search for a local minimum.
 Step number   1 out of a maximum of   65
 All quantities printed in internal units (Hartrees-Bohrs-Radians)
 RMS Force = .19703D-02 SwitMx=.10000D-02 MixMth= 1
 Mixed Optimization -- RFO/linear search
 Second derivative matrix not updated -- first step.
 ITU=  0
     Eigenvalues ---    0.00230   0.00233   0.00582   0.01201   0.01828
     Eigenvalues ---    0.04446   0.05535   0.05781   0.06042   0.06661
     Eigenvalues ---    0.08716   0.16000   0.16000   0.16000   0.16000
     Eigenvalues ---    0.16000   0.16000   0.16715   0.17738   0.25000
     Eigenvalues ---    0.25000   0.25662   0.30963   0.34399   0.34777
     Eigenvalues ---    0.34989   0.39985   0.45069   0.45289   0.47368
     Eigenvalues ---    0.53608   0.92132   0.99321
 RFO step:  Lambda=-2.63841898D-04 EMin= 2.30000000D-03
 Linear search not attempted -- first point.
 Iteration  1 RMS(Cart)=  0.00693705 RMS(Int)=  0.00012629
 Iteration  2 RMS(Cart)=  0.00010417 RMS(Int)=  0.00008053
 Iteration  3 RMS(Cart)=  0.00000002 RMS(Int)=  0.00008053
 ITry= 1 IFail=0 DXMaxC= 2.40D-02 DCOld= 1.00D+10 DXMaxT= 3.00D-01 DXLimC= 3.00D+00 Rises=F
 Variable       Old X    -DE/DX   Delta X   Delta X   Delta X     New X
                                 (Linear)    (Quad)   (Total)
    R1        2.86084   0.00026   0.00000   0.00085   0.00085   2.86169
    R2        2.06661   0.00002   0.00000   0.00007   0.00007   2.06668
    R3        2.05692   0.00015   0.00000   0.00044   0.00044   2.05736
    R4        2.06038   0.00012   0.00000   0.00034   0.00034   2.06072
    R5        2.71574   0.00049   0.00000   0.00123   0.00123   2.71697
    R6        2.62619   0.00272   0.00000   0.00575   0.00575   2.63193
    R7        2.97554   0.00116   0.00000   0.00453   0.00453   2.98007
    R8        1.91896   0.00131   0.00000   0.00291   0.00291   1.92186
    R9        1.91642   0.00126   0.00000   0.00278   0.00278   1.91920
   R10        1.83090   0.00329   0.00000   0.00612   0.00612   1.83703
   R11        2.31966   0.00969   0.00000   0.01052   0.01052   2.33017
   R12        2.28912   0.00977   0.00000   0.00984   0.00984   2.29896
    A1        1.89072   0.00011   0.00000   0.00068   0.00068   1.89140
    A2        1.92834   0.00001   0.00000   0.00019   0.00019   1.92853
    A3        1.92145  -0.00009   0.00000  -0.00070  -0.00070   1.92075
    A4        1.91444  -0.00002   0.00000   0.00015   0.00014   1.91459
    A5        1.89287  -0.00005   0.00000  -0.00061  -0.00061   1.89226
    A6        1.91550   0.00004   0.00000   0.00028   0.00028   1.91579
    A7        1.95509   0.00004   0.00000   0.00041   0.00041   1.95550
    A8        1.90826  -0.00010   0.00000  -0.00229  -0.00229   1.90597
    A9        1.92335  -0.00008   0.00000   0.00024   0.00024   1.92359
   A10        2.04099  -0.00011   0.00000  -0.00136  -0.00136   2.03963
   A11        1.78490   0.00027   0.00000   0.00347   0.00347   1.78837
   A12        1.84205   0.00000   0.00000   0.00000   0.00000   1.84205
   A13        1.93220   0.00004   0.00000   0.00056   0.00056   1.93275
   A14        1.91990  -0.00011   0.00000  -0.00038  -0.00038   1.91952
   A15        1.89414   0.00009   0.00000   0.00120   0.00120   1.89533
   A16        1.86197   0.00031   0.00000   0.00196   0.00196   1.86393
   A17        1.99248  -0.00017   0.00000  -0.00103  -0.00138   1.99110
   A18        2.09180   0.00041   0.00000   0.00127   0.00092   2.09272
   A19        2.19860  -0.00025   0.00000  -0.00136  -0.00171   2.19689
    D1        1.18754  -0.00013   0.00000   0.00005   0.00005   1.18759
    D2       -1.10382   0.00008   0.00000   0.00348   0.00348  -1.10034
    D3       -3.12096   0.00018   0.00000   0.00466   0.00466  -3.11629
    D4       -0.90994  -0.00017   0.00000  -0.00067  -0.00067  -0.91061
    D5        3.08189   0.00003   0.00000   0.00277   0.00277   3.08465
    D6        1.06475   0.00013   0.00000   0.00395   0.00395   1.06870
    D7       -3.02848  -0.00017   0.00000  -0.00068  -0.00068  -3.02916
    D8        0.96335   0.00003   0.00000   0.00275   0.00275   0.96610
    D9       -1.05378   0.00013   0.00000   0.00393   0.00393  -1.04985
   D10       -3.04501   0.00005   0.00000   0.00062   0.00062  -3.04439
   D11       -0.95167   0.00012   0.00000   0.00222   0.00222  -0.94945
   D12       -0.82302  -0.00016   0.00000  -0.00349  -0.00349  -0.82651
   D13        1.27031  -0.00009   0.00000  -0.00189  -0.00189   1.26843
   D14        1.17911  -0.00003   0.00000  -0.00184  -0.00184   1.17726
   D15       -3.01074   0.00004   0.00000  -0.00024  -0.00024  -3.01098
   D16       -2.85006  -0.00001   0.00000  -0.00164  -0.00164  -2.85169
   D17        1.18848   0.00012   0.00000   0.00107   0.00107   1.18955
   D18       -0.78156  -0.00016   0.00000  -0.00251  -0.00251  -0.78407
   D19        2.83395  -0.00004   0.00000   0.02460   0.02459   2.85854
   D20       -0.33265  -0.00016   0.00000  -0.02144  -0.02144  -0.35408
   D21       -1.36771   0.00012   0.00000   0.02707   0.02706  -1.34065
   D22        1.74888  -0.00000   0.00000  -0.01897  -0.01896   1.72992
   D23        0.77556   0.00012   0.00000   0.02718   0.02717   0.80272
   D24       -2.39104   0.00000   0.00000  -0.01887  -0.01886  -2.40990
         Item               Value     Threshold  Converged?
 Maximum Force            0.009774     0.000450     NO 
 RMS     Force            0.001970     0.000300     NO 
 Maximum Displacement     0.024016     0.001800     NO 
 RMS     Displacement     0.006924     0.001200     NO 
 Predicted change in Energy=-1.322722D-04
 Lowest energy point so far.  Saving SCF results.
 GradGradGradGradGradGradGradGradGradGradGradGradGradGradGradGradGradGrad

 Leave Link  103 at Thu Sep  8 14:49:31 2022, MaxMem= 24159191040 cpu:         2.1
 (Enter /public/home/users/caep010/software/Gaussian09/g09/l202.exe)
                          Input orientation:                          
 ---------------------------------------------------------------------
 Center     Atomic      Atomic             Coordinates (Angstroms)
 Number     Number       Type             X           Y           Z
 ---------------------------------------------------------------------
      1          6           0       -1.128330   -0.913022   -0.050630
      2          6           0        0.132196   -0.090169    0.114373
      3          7           0        0.992868   -0.185480   -1.033365
      4          8           0        0.702768   -0.369649    1.353775
      5          7           0       -0.220748    1.446434    0.148531
      6          8           0        0.682921    2.160581    0.588815
      7          8           0       -1.278629    1.836069   -0.308721
      8          1           0       -0.852390   -1.971258   -0.044410
      9          1           0       -1.623195   -0.668343   -0.988994
     10          1           0       -1.806774   -0.728955    0.783031
     11          1           0        1.871586    0.298312   -0.865731
     12          1           0        1.193439   -1.160080   -1.236746
     13          1           0        1.334288    0.345557    1.539972
 ---------------------------------------------------------------------
                    Distance matrix (angstroms):
                    1          2          3          4          5
     1  C    0.000000
     2  C    1.514344   0.000000
     3  N    2.448381   1.437757   0.000000
     4  O    2.370766   1.392760   2.411746   0.000000
     5  N    2.535823   1.576986   2.352209   2.367203   0.000000
     6  O    3.624439   2.365221   2.869066   2.643411   1.233075
     7  O    2.765267   2.424836   3.125935   3.399268   1.216556
     8  H    1.093638   2.129111   2.751729   2.634120   3.480921
     9  H    1.088709   2.152464   2.660623   3.314799   2.780846
    10  H    1.090485   2.148198   3.381221   2.598586   2.765932
    11  H    3.336347   2.033961   1.017005   2.595865   2.593217
    12  H    2.618878   2.023974   1.015597   2.752516   3.273047
    13  H    3.190379   1.914997   2.649647   0.972114   2.359273
                    6          7          8          9         10
     6  O    0.000000
     7  O    2.181412   0.000000
     8  H    4.453116   3.840219   0.000000
     9  H    3.976238   2.617934   1.784367   0.000000
    10  H    3.819125   2.837289   1.771673   1.782540   0.000000
    11  H    2.645123   3.549480   3.639445   3.628100   4.159810
    12  H    3.823623   3.993652   2.503017   2.869950   3.642341
    13  H    2.150183   3.530811   3.558013   4.021239   3.404967
                   11         12         13
    11  H    0.000000
    12  H    1.650588   0.000000
    13  H    2.465426   3.161794   0.000000
 Stoichiometry    C2H6N2O3
 Framework group  C1[X(C2H6N2O3)]
 Deg. of freedom    33
 Full point group                 C1      NOp   1
 RotChk:  IX=0 Diff= 1.03D-02
 Largest Abelian subgroup         C1      NOp   1
 Largest concise Abelian subgroup C1      NOp   1
                         Standard orientation:                         
 ---------------------------------------------------------------------
 Center     Atomic      Atomic             Coordinates (Angstroms)
 Number     Number       Type             X           Y           Z
 ---------------------------------------------------------------------
      1          6           0        1.314043    1.220139   -0.308098
      2          6           0        0.596766   -0.079987   -0.010741
      3          7           0        0.836029   -0.533227    1.332566
      4          8           0        0.850473   -0.988025   -1.035866
      5          7           0       -0.964185    0.144074   -0.021459
      6          8           0       -1.621253   -0.896139   -0.103262
      7          8           0       -1.417169    1.263958    0.122320
      8          1           0        2.390152    1.025416   -0.318903
      9          1           0        1.083538    1.965095    0.451635
     10          1           0        1.021384    1.592412   -1.290403
     11          1           0        0.422168   -1.450055    1.482387
     12          1           0        1.834923   -0.596785    1.504632
     13          1           0        0.183670   -1.691275   -0.959591
 ---------------------------------------------------------------------
 Rotational constants (GHZ):      3.6170014      2.5811642      2.1596340
 Leave Link  202 at Thu Sep  8 14:49:31 2022, MaxMem= 24159191040 cpu:         0.2
 (Enter /public/home/users/caep010/software/Gaussian09/g09/l301.exe)
 Standard basis: 6-31G(d,p) (6D, 7F)
 Ernie: Thresh=  0.10000D-02 Tol=  0.10000D-05 Strict=F.
 There are   135 symmetry adapted cartesian basis functions of A   symmetry.
 There are   135 symmetry adapted basis functions of A   symmetry.
   135 basis functions,   238 primitive gaussians,   135 cartesian basis functions
    28 alpha electrons       28 beta electrons
       nuclear repulsion energy       340.6644117142 Hartrees.
 IExCor=  402 DFT=T Ex+Corr=B3LYP ExCW=0 ScaHFX=  0.200000
 ScaDFX=  0.800000  0.720000  1.000000  0.810000 ScalE2=  1.000000  1.000000
 IRadAn=      0 IRanWt=     -1 IRanGd=            0 ICorTp=0 IEmpDi=  4
 NAtoms=   13 NActive=   13 NUniq=   13 SFac= 1.00D+00 NAtFMM=   60 NAOKFM=F Big=F
 Integral buffers will be    131072 words long.
 Raffenetti 2 integral format.
 Two-electron integral symmetry is turned on.
 Leave Link  301 at Thu Sep  8 14:49:31 2022, MaxMem= 24159191040 cpu:         1.6
 (Enter /public/home/users/caep010/software/Gaussian09/g09/l302.exe)
 NPDir=0 NMtPBC=     1 NCelOv=     1 NCel=       1 NClECP=     1 NCelD=      1
         NCelK=      1 NCelE2=     1 NClLst=     1 CellRange=     0.0.
 One-electron integrals computed using PRISM.
 NBasis=   135 RedAO= T EigKep=  2.30D-03  NBF=   135
 NBsUse=   135 1.00D-06 EigRej= -1.00D+00 NBFU=   135
 Precomputing XC quadrature grid using
 IXCGrd= 4 IRadAn=           0 IRanWt=          -1 IRanGd=           0 AccXCQ= 0.00D+00.
 Generated NRdTot=       0 NPtTot=           0 NUsed=           0 NTot=          32
 NSgBfM=   135   135   135   135   135 MxSgAt=    13 MxSgA2=    13.
 Leave Link  302 at Thu Sep  8 14:49:32 2022, MaxMem= 24159191040 cpu:        11.3
 (Enter /public/home/users/caep010/software/Gaussian09/g09/l303.exe)
 DipDrv:  MaxL=1.
 Leave Link  303 at Thu Sep  8 14:49:32 2022, MaxMem= 24159191040 cpu:         0.6
 (Enter /public/home/users/caep010/software/Gaussian09/g09/l401.exe)
 Initial guess from the checkpoint file:  "B3LYP6-31Gdp.Frag_1078.chk"
 B after Tr=     0.000000   -0.000000   -0.000000
         Rot=    0.999995    0.000267    0.002932   -0.000594 Ang=   0.34 deg.
 Guess basis will be translated and rotated to current coordinates.
 JPrj=2 DoOrth=T DoCkMO=T.
 Generating alternative initial guess.
 ExpMin= 1.61D-01 ExpMax= 5.48D+03 ExpMxC= 8.25D+02 IAcc=1 IRadAn=         1 AccDes= 0.00D+00
 Harris functional with IExCor=  402 and IRadAn=       1 diagonalized for initial guess.
 HarFok:  IExCor=  402 AccDes= 0.00D+00 IRadAn=         1 IDoV= 1 UseB2=F ITyADJ=14
 ICtDFT=  3500011 ScaDFX=  1.000000  1.000000  1.000000  1.000000
 FoFCou: FMM=F IPFlag=           0 FMFlag=      100000 FMFlg1=           0
         NFxFlg=           0 DoJE=T BraDBF=F KetDBF=T FulRan=T
         wScrn=  0.000000 ICntrl=     500 IOpCl=  0 I1Cent=   200000004 NGrid=           0
         NMat0=    1 NMatS0=      1 NMatT0=    0 NMatD0=    1 NMtDS0=    0 NMtDT0=    0
 Petite list used in FoFCou.
 Harris En= -414.960265326849    
 Leave Link  401 at Thu Sep  8 14:49:32 2022, MaxMem= 24159191040 cpu:        11.5
 (Enter /public/home/users/caep010/software/Gaussian09/g09/l502.exe)
 Closed shell SCF:
 Using DIIS extrapolation, IDIIS=  1040.
 Integral symmetry usage will be decided dynamically.
 Keep R1 ints in memory in canonical form, NReq=43477012.
 IVT=       78562 IEndB=       78562 NGot= 24159191040 MDV= 24116971689
 LenX= 24116971689 LenY= 24116953023
 Requested convergence on RMS density matrix=1.00D-08 within 128 cycles.
 Requested convergence on MAX density matrix=1.00D-06.
 Requested convergence on             energy=1.00D-06.
 No special actions if energy rises.
 FoFCou: FMM=F IPFlag=           0 FMFlag=           0 FMFlg1=           0
         NFxFlg=           0 DoJE=F BraDBF=F KetDBF=F FulRan=T
         wScrn=  0.000000 ICntrl=     600 IOpCl=  0 I1Cent=           0 NGrid=           0
         NMat0=    1 NMatS0=   9180 NMatT0=    0 NMatD0=    1 NMtDS0=    0 NMtDT0=    0
 Symmetry not used in FoFCou.
 Integral accuracy reduced to 1.0D-05 until final iterations.

 Cycle   1  Pass 0  IDiag  1:
 E= -414.912208316110    
 DIIS: error= 1.30D-03 at cycle   1 NSaved=   1.
 NSaved= 1 IEnMin= 1 EnMin= -414.912208316110     IErMin= 1 ErrMin= 1.30D-03
 ErrMax= 1.30D-03  0.00D+00 EMaxC= 1.00D-01 BMatC= 3.05D-04 BMatP= 3.05D-04
 IDIUse=3 WtCom= 9.87D-01 WtEn= 1.30D-02
 Coeff-Com:  0.100D+01
 Coeff-En:   0.100D+01
 Coeff:      0.100D+01
 Gap=     1.620 Goal=   None    Shift=    0.000
 GapD=    1.620 DampG=2.000 DampE=1.000 DampFc=2.0000 IDamp=-1.
 RMSDP=2.74D-04 MaxDP=6.46D-03              OVMax= 8.62D-03

 Cycle   2  Pass 0  IDiag  1:
 E= -414.912768765186     Delta-E=       -0.000560449077 Rises=F Damp=F
 DIIS: error= 1.53D-04 at cycle   2 NSaved=   2.
 NSaved= 2 IEnMin= 2 EnMin= -414.912768765186     IErMin= 2 ErrMin= 1.53D-04
 ErrMax= 1.53D-04  0.00D+00 EMaxC= 1.00D-01 BMatC= 8.33D-06 BMatP= 3.05D-04
 IDIUse=3 WtCom= 9.98D-01 WtEn= 1.53D-03
 Coeff-Com: -0.456D-01 0.105D+01
 Coeff-En:   0.000D+00 0.100D+01
 Coeff:     -0.455D-01 0.105D+01
 Gap=     0.206 Goal=   None    Shift=    0.000
 RMSDP=4.28D-05 MaxDP=7.15D-04 DE=-5.60D-04 OVMax= 2.08D-03

 Cycle   3  Pass 0  IDiag  1:
 E= -414.912774655068     Delta-E=       -0.000005889881 Rises=F Damp=F
 DIIS: error= 1.35D-04 at cycle   3 NSaved=   3.
 NSaved= 3 IEnMin= 3 EnMin= -414.912774655068     IErMin= 3 ErrMin= 1.35D-04
 ErrMax= 1.35D-04  0.00D+00 EMaxC= 1.00D-01 BMatC= 7.07D-06 BMatP= 8.33D-06
 IDIUse=3 WtCom= 9.99D-01 WtEn= 1.35D-03
 Coeff-Com: -0.426D-01 0.520D+00 0.523D+00
 Coeff-En:   0.000D+00 0.132D+00 0.868D+00
 Coeff:     -0.426D-01 0.520D+00 0.523D+00
 Gap=     0.207 Goal=   None    Shift=    0.000
 RMSDP=2.29D-05 MaxDP=6.61D-04 DE=-5.89D-06 OVMax= 1.20D-03

 Cycle   4  Pass 0  IDiag  1:
 E= -414.912778377625     Delta-E=       -0.000003722557 Rises=F Damp=F
 DIIS: error= 1.36D-04 at cycle   4 NSaved=   4.
 NSaved= 4 IEnMin= 4 EnMin= -414.912778377625     IErMin= 3 ErrMin= 1.35D-04
 ErrMax= 1.36D-04  0.00D+00 EMaxC= 1.00D-01 BMatC= 2.81D-06 BMatP= 7.07D-06
 IDIUse=3 WtCom= 9.99D-01 WtEn= 1.36D-03
 Coeff-Com: -0.239D-01 0.258D+00 0.383D+00 0.383D+00
 Coeff-En:   0.000D+00 0.000D+00 0.277D+00 0.723D+00
 Coeff:     -0.238D-01 0.258D+00 0.383D+00 0.383D+00
 Gap=     0.207 Goal=   None    Shift=    0.000
 RMSDP=1.12D-05 MaxDP=5.12D-04 DE=-3.72D-06 OVMax= 9.19D-04

 Cycle   5  Pass 0  IDiag  1:
 E= -414.912780316680     Delta-E=       -0.000001939055 Rises=F Damp=F
 DIIS: error= 5.13D-05 at cycle   5 NSaved=   5.
 NSaved= 5 IEnMin= 5 EnMin= -414.912780316680     IErMin= 5 ErrMin= 5.13D-05
 ErrMax= 5.13D-05  0.00D+00 EMaxC= 1.00D-01 BMatC= 3.16D-07 BMatP= 2.81D-06
 IDIUse=1 WtCom= 1.00D+00 WtEn= 0.00D+00
 Coeff-Com: -0.692D-02 0.693D-01 0.162D+00 0.267D+00 0.508D+00
 Coeff:     -0.692D-02 0.693D-01 0.162D+00 0.267D+00 0.508D+00
 Gap=     0.207 Goal=   None    Shift=    0.000
 RMSDP=4.28D-06 MaxDP=1.56D-04 DE=-1.94D-06 OVMax= 2.77D-04

 Initial convergence to 1.0D-05 achieved.  Increase integral accuracy.
 Cycle   6  Pass 1  IDiag  1:
 E= -414.912745813630     Delta-E=        0.000034503050 Rises=F Damp=F
 DIIS: error= 1.70D-05 at cycle   1 NSaved=   1.
 NSaved= 1 IEnMin= 1 EnMin= -414.912745813630     IErMin= 1 ErrMin= 1.70D-05
 ErrMax= 1.70D-05  0.00D+00 EMaxC= 1.00D-01 BMatC= 9.66D-08 BMatP= 9.66D-08
 IDIUse=1 WtCom= 1.00D+00 WtEn= 0.00D+00
 Coeff-Com:  0.100D+01
 Coeff:      0.100D+01
 Gap=     0.207 Goal=   None    Shift=    0.000
 RMSDP=4.28D-06 MaxDP=1.56D-04 DE= 3.45D-05 OVMax= 2.97D-04

 Cycle   7  Pass 1  IDiag  1:
 E= -414.912745627941     Delta-E=        0.000000185689 Rises=F Damp=F
 DIIS: error= 5.11D-05 at cycle   2 NSaved=   2.
 NSaved= 2 IEnMin= 1 EnMin= -414.912745813630     IErMin= 1 ErrMin= 1.70D-05
 ErrMax= 5.11D-05  0.00D+00 EMaxC= 1.00D-01 BMatC= 3.68D-07 BMatP= 9.66D-08
 IDIUse=1 WtCom= 1.00D+00 WtEn= 0.00D+00
 Coeff-Com:  0.679D+00 0.321D+00
 Coeff:      0.679D+00 0.321D+00
 Gap=     0.207 Goal=   None    Shift=    0.000
 RMSDP=3.70D-06 MaxDP=1.70D-04 DE= 1.86D-07 OVMax= 2.77D-04

 Cycle   8  Pass 1  IDiag  1:
 E= -414.912745886313     Delta-E=       -0.000000258373 Rises=F Damp=F
 DIIS: error= 1.40D-05 at cycle   3 NSaved=   3.
 NSaved= 3 IEnMin= 3 EnMin= -414.912745886313     IErMin= 3 ErrMin= 1.40D-05
 ErrMax= 1.40D-05  0.00D+00 EMaxC= 1.00D-01 BMatC= 2.04D-08 BMatP= 9.66D-08
 IDIUse=1 WtCom= 1.00D+00 WtEn= 0.00D+00
 Coeff-Com:  0.236D+00 0.196D+00 0.569D+00
 Coeff:      0.236D+00 0.196D+00 0.569D+00
 Gap=     0.207 Goal=   None    Shift=    0.000
 RMSDP=1.28D-06 MaxDP=5.84D-05 DE=-2.58D-07 OVMax= 1.02D-04

 Cycle   9  Pass 1  IDiag  1:
 E= -414.912745894045     Delta-E=       -0.000000007732 Rises=F Damp=F
 DIIS: error= 7.28D-06 at cycle   4 NSaved=   4.
 NSaved= 4 IEnMin= 4 EnMin= -414.912745894045     IErMin= 4 ErrMin= 7.28D-06
 ErrMax= 7.28D-06  0.00D+00 EMaxC= 1.00D-01 BMatC= 1.18D-08 BMatP= 2.04D-08
 IDIUse=1 WtCom= 1.00D+00 WtEn= 0.00D+00
 Coeff-Com: -0.760D-02 0.655D-01 0.475D+00 0.467D+00
 Coeff:     -0.760D-02 0.655D-01 0.475D+00 0.467D+00
 Gap=     0.207 Goal=   None    Shift=    0.000
 RMSDP=5.87D-07 MaxDP=2.57D-05 DE=-7.73D-09 OVMax= 3.50D-05

 Cycle  10  Pass 1  IDiag  1:
 E= -414.912745902661     Delta-E=       -0.000000008616 Rises=F Damp=F
 DIIS: error= 6.03D-07 at cycle   5 NSaved=   5.
 NSaved= 5 IEnMin= 5 EnMin= -414.912745902661     IErMin= 5 ErrMin= 6.03D-07
 ErrMax= 6.03D-07  0.00D+00 EMaxC= 1.00D-01 BMatC= 1.76D-10 BMatP= 1.18D-08
 IDIUse=1 WtCom= 1.00D+00 WtEn= 0.00D+00
 Coeff-Com: -0.135D-01 0.235D-01 0.211D+00 0.233D+00 0.546D+00
 Coeff:     -0.135D-01 0.235D-01 0.211D+00 0.233D+00 0.546D+00
 Gap=     0.207 Goal=   None    Shift=    0.000
 RMSDP=1.11D-07 MaxDP=2.31D-06 DE=-8.62D-09 OVMax= 3.35D-06

 Cycle  11  Pass 1  IDiag  1:
 E= -414.912745902820     Delta-E=       -0.000000000159 Rises=F Damp=F
 DIIS: error= 1.22D-07 at cycle   6 NSaved=   6.
 NSaved= 6 IEnMin= 6 EnMin= -414.912745902820     IErMin= 6 ErrMin= 1.22D-07
 ErrMax= 1.22D-07  0.00D+00 EMaxC= 1.00D-01 BMatC= 6.48D-12 BMatP= 1.76D-10
 IDIUse=1 WtCom= 1.00D+00 WtEn= 0.00D+00
 Coeff-Com: -0.352D-02 0.234D-02 0.273D-01 0.341D-01 0.171D+00 0.768D+00
 Coeff:     -0.352D-02 0.234D-02 0.273D-01 0.341D-01 0.171D+00 0.768D+00
 Gap=     0.207 Goal=   None    Shift=    0.000
 RMSDP=3.35D-08 MaxDP=7.45D-07 DE=-1.59D-10 OVMax= 2.26D-06

 Cycle  12  Pass 1  IDiag  1:
 E= -414.912745902830     Delta-E=       -0.000000000010 Rises=F Damp=F
 DIIS: error= 7.00D-08 at cycle   7 NSaved=   7.
 NSaved= 7 IEnMin= 7 EnMin= -414.912745902830     IErMin= 7 ErrMin= 7.00D-08
 ErrMax= 7.00D-08  0.00D+00 EMaxC= 1.00D-01 BMatC= 1.87D-12 BMatP= 6.48D-12
 IDIUse=1 WtCom= 1.00D+00 WtEn= 0.00D+00
 Coeff-Com:  0.742D-03-0.305D-02-0.253D-01-0.257D-01-0.135D-01 0.382D+00
 Coeff-Com:  0.684D+00
 Coeff:      0.742D-03-0.305D-02-0.253D-01-0.257D-01-0.135D-01 0.382D+00
 Coeff:      0.684D+00
 Gap=     0.207 Goal=   None    Shift=    0.000
 RMSDP=1.55D-08 MaxDP=3.38D-07 DE=-1.02D-11 OVMax= 1.18D-06

 Cycle  13  Pass 1  IDiag  1:
 E= -414.912745902824     Delta-E=        0.000000000006 Rises=F Damp=F
 DIIS: error= 1.40D-08 at cycle   8 NSaved=   8.
 NSaved= 8 IEnMin= 7 EnMin= -414.912745902830     IErMin= 8 ErrMin= 1.40D-08
 ErrMax= 1.40D-08  0.00D+00 EMaxC= 1.00D-01 BMatC= 9.89D-14 BMatP= 1.87D-12
 IDIUse=1 WtCom= 1.00D+00 WtEn= 0.00D+00
 Coeff-Com:  0.565D-03-0.137D-02-0.118D-01-0.123D-01-0.213D-01 0.683D-01
 Coeff-Com:  0.250D+00 0.728D+00
 Coeff:      0.565D-03-0.137D-02-0.118D-01-0.123D-01-0.213D-01 0.683D-01
 Coeff:      0.250D+00 0.728D+00
 Gap=     0.207 Goal=   None    Shift=    0.000
 RMSDP=4.09D-09 MaxDP=8.48D-08 DE= 6.48D-12 OVMax= 2.65D-07

 SCF Done:  E(RB3LYP) =  -414.912745903     A.U. after   13 cycles
            NFock= 13  Conv=0.41D-08     -V/T= 2.0087
 KE= 4.113519495826D+02 PE=-1.653408644448D+03 EE= 4.864795372479D+02
 Leave Link  502 at Thu Sep  8 14:49:34 2022, MaxMem= 24159191040 cpu:        42.9
 (Enter /public/home/users/caep010/software/Gaussian09/g09/l701.exe)
 Compute integral first derivatives.
 ... and contract with generalized density number  0.
 Leave Link  701 at Thu Sep  8 14:49:35 2022, MaxMem= 24159191040 cpu:        13.8
 (Enter /public/home/users/caep010/software/Gaussian09/g09/l702.exe)
 L702 exits ... SP integral derivatives will be done elsewhere.
 Leave Link  702 at Thu Sep  8 14:49:35 2022, MaxMem= 24159191040 cpu:         0.5
 (Enter /public/home/users/caep010/software/Gaussian09/g09/l703.exe)
 Compute integral first derivatives, UseDBF=F ICtDFT=           0.
 Integral derivatives from FoFJK, PRISM(SPDF).
 Calling FoFJK, ICntrl=      2127 FMM=F ISym2X=0 I1Cent= 0 IOpClX= 0 NMat=1 NMatS=1 NMatT=0.
 FoFJK:  IHMeth= 1 ICntrl=    2127 DoSepK=F KAlg= 0 I1Cent=   0 FoldK=F
 IRaf=         0 NMat=   1 IRICut=       1 DoRegI=T DoRafI=F ISym2E= 0.
 FoFCou: FMM=F IPFlag=           0 FMFlag=      100000 FMFlg1=         800
         NFxFlg=           0 DoJE=F BraDBF=F KetDBF=F FulRan=T
         wScrn=  0.000000 ICntrl=    2127 IOpCl=  0 I1Cent=           0 NGrid=           0
         NMat0=    1 NMatS0=      1 NMatT0=    0 NMatD0=    1 NMtDS0=    0 NMtDT0=    0
 Symmetry not used in FoFCou.
 Leave Link  703 at Thu Sep  8 14:49:35 2022, MaxMem= 24159191040 cpu:        12.4
 (Enter /public/home/users/caep010/software/Gaussian09/g09/l716.exe)
 Dipole        = 1.18674566D+00-4.79779852D-01 1.87240430D-01
 ***** Axes restored to original set *****
 -------------------------------------------------------------------
 Center     Atomic                   Forces (Hartrees/Bohr)
 Number     Number              X              Y              Z
 -------------------------------------------------------------------
      1        6           0.000036990    0.000034023    0.000146895
      2        6          -0.000516971   -0.000135351   -0.000027098
      3        7          -0.000283112    0.000506422    0.000553358
      4        8           0.000196948   -0.000139432    0.000953869
      5        7           0.002636515   -0.001613337   -0.005947545
      6        8           0.000338705    0.000676554    0.002833666
      7        8          -0.002106610    0.000368849    0.001529347
      8        1          -0.000011010    0.000040027    0.000055183
      9        1           0.000008275    0.000019165   -0.000013945
     10        1           0.000007087    0.000022354    0.000022912
     11        1          -0.000123653    0.000040116    0.000023484
     12        1          -0.000239710    0.000017934    0.000135776
     13        1           0.000056547    0.000162676   -0.000265903
 -------------------------------------------------------------------
 Cartesian Forces:  Max     0.005947545 RMS     0.001266573
 Leave Link  716 at Thu Sep  8 14:49:36 2022, MaxMem= 24159191040 cpu:         0.5
 (Enter /public/home/users/caep010/software/Gaussian09/g09/l103.exe)

 GradGradGradGradGradGradGradGradGradGradGradGradGradGradGradGradGradGrad
 Berny optimization.
 Using GEDIIS/GDIIS optimizer.
 FormGI is forming the generalized inverse of G from B-inverse, IUseBI=4.
 Internal  Forces:  Max     0.001775121 RMS     0.000651081
 Search for a local minimum.
 Step number   2 out of a maximum of   65
 All quantities printed in internal units (Hartrees-Bohrs-Radians)
 RMS Force = .65108D-03 SwitMx=.10000D-02 MixMth= 2
 Mixed Optimization -- En-DIIS/RFO-DIIS
 Update second derivatives using D2CorX and points    1    2
 DE= -3.03D-05 DEPred=-1.32D-04 R= 2.29D-01
 Trust test= 2.29D-01 RLast= 6.09D-02 DXMaxT set to 3.00D-01
 ITU=  0  0
 Use linear search instead of GDIIS.
     Eigenvalues ---    0.00230   0.00569   0.00844   0.01205   0.01827
     Eigenvalues ---    0.04443   0.05708   0.05781   0.06040   0.06619
     Eigenvalues ---    0.08744   0.15903   0.16000   0.16000   0.16000
     Eigenvalues ---    0.16000   0.16111   0.16752   0.17755   0.24534
     Eigenvalues ---    0.25001   0.26117   0.30963   0.34399   0.34733
     Eigenvalues ---    0.34935   0.36614   0.40767   0.45165   0.45686
     Eigenvalues ---    0.51109   0.64180   0.96142
 RFO step:  Lambda=-1.72769043D-03 EMin= 2.29967987D-03
 Quartic linear search produced a step of -0.43757.
 Iteration  1 RMS(Cart)=  0.05829970 RMS(Int)=  0.00662752
 Iteration  2 RMS(Cart)=  0.00592643 RMS(Int)=  0.00399946
 Iteration  3 RMS(Cart)=  0.00005386 RMS(Int)=  0.00399919
 Iteration  4 RMS(Cart)=  0.00000044 RMS(Int)=  0.00399919
 ITry= 1 IFail=0 DXMaxC= 2.33D-01 DCOld= 1.00D+10 DXMaxT= 3.00D-01 DXLimC= 3.00D+00 Rises=F
 Variable       Old X    -DE/DX   Delta X   Delta X   Delta X     New X
                                 (Linear)    (Quad)   (Total)
    R1        2.86169  -0.00012  -0.00037   0.00562   0.00525   2.86694
    R2        2.06668  -0.00004  -0.00003   0.00038   0.00035   2.06702
    R3        2.05736   0.00002  -0.00019   0.00305   0.00286   2.06022
    R4        2.06072   0.00001  -0.00015   0.00237   0.00222   2.06294
    R5        2.71697  -0.00099  -0.00054   0.00691   0.00637   2.72333
    R6        2.63193   0.00072  -0.00252   0.04058   0.03806   2.66999
    R7        2.98007  -0.00078  -0.00198   0.02917   0.02719   3.00726
    R8        1.92186  -0.00008  -0.00127   0.01991   0.01864   1.94050
    R9        1.91920  -0.00010  -0.00122   0.01903   0.01781   1.93701
   R10        1.83703   0.00010  -0.00268   0.04234   0.03966   1.87669
   R11        2.33017   0.00165  -0.00460   0.07376   0.06915   2.39933
   R12        2.29896   0.00137  -0.00431   0.06882   0.06452   2.36347
    A1        1.89140   0.00000  -0.00030   0.00467   0.00437   1.89577
    A2        1.92853  -0.00003  -0.00009   0.00121   0.00112   1.92965
    A3        1.92075  -0.00003   0.00031  -0.00493  -0.00462   1.91613
    A4        1.91459   0.00003  -0.00006   0.00113   0.00105   1.91564
    A5        1.89226   0.00000   0.00027  -0.00413  -0.00386   1.88841
    A6        1.91579   0.00002  -0.00012   0.00199   0.00187   1.91766
    A7        1.95550   0.00017  -0.00018   0.00394   0.00361   1.95912
    A8        1.90597  -0.00002   0.00100  -0.01479  -0.01382   1.89215
    A9        1.92359   0.00012  -0.00010   0.00162   0.00140   1.92499
   A10        2.03963   0.00006   0.00059  -0.00862  -0.00807   2.03155
   A11        1.78837  -0.00024  -0.00152   0.02183   0.02029   1.80866
   A12        1.84205  -0.00011  -0.00000  -0.00123  -0.00121   1.84084
   A13        1.93275  -0.00005  -0.00024   0.00355   0.00331   1.93606
   A14        1.91952  -0.00034   0.00017  -0.00400  -0.00383   1.91569
   A15        1.89533   0.00020  -0.00052   0.00880   0.00828   1.90361
   A16        1.86393  -0.00052  -0.00086   0.01133   0.01048   1.87440
   A17        1.99110  -0.00014   0.00060   0.00206  -0.01416   1.97695
   A18        2.09272   0.00042  -0.00040   0.01925   0.00210   2.09482
   A19        2.19689  -0.00006   0.00075   0.00001  -0.01668   2.18021
    D1        1.18759   0.00013  -0.00002  -0.00106  -0.00107   1.18651
    D2       -1.10034  -0.00007  -0.00152   0.01982   0.01831  -1.08203
    D3       -3.11629   0.00000  -0.00204   0.02889   0.02685  -3.08945
    D4       -0.91061   0.00011   0.00029  -0.00609  -0.00579  -0.91640
    D5        3.08465  -0.00009  -0.00121   0.01480   0.01359   3.09824
    D6        1.06870  -0.00002  -0.00173   0.02387   0.02213   1.09082
    D7       -3.02916   0.00012   0.00030  -0.00612  -0.00581  -3.03497
    D8        0.96610  -0.00008  -0.00120   0.01477   0.01357   0.97967
    D9       -1.04985  -0.00001  -0.00172   0.02384   0.02211  -1.02775
   D10       -3.04439  -0.00003  -0.00027   0.00438   0.00415  -3.04024
   D11       -0.94945  -0.00002  -0.00097   0.01502   0.01409  -0.93536
   D12       -0.82651   0.00016   0.00152  -0.02076  -0.01922  -0.84573
   D13        1.26843   0.00016   0.00082  -0.01012  -0.00928   1.25915
   D14        1.17726  -0.00010   0.00081  -0.01197  -0.01123   1.16604
   D15       -3.01098  -0.00010   0.00011  -0.00133  -0.00128  -3.01227
   D16       -2.85169   0.00002   0.00072  -0.01085  -0.01009  -2.86178
   D17        1.18955  -0.00024  -0.00047   0.00457   0.00404   1.19359
   D18       -0.78407   0.00009   0.00110  -0.01710  -0.01598  -0.80005
   D19        2.85854  -0.00178  -0.01076  -0.17210  -0.18148   2.67706
   D20       -0.35408   0.00144   0.00938   0.13455   0.14249  -0.21160
   D21       -1.34065  -0.00166  -0.01184  -0.15482  -0.16525  -1.50590
   D22        1.72992   0.00156   0.00830   0.15182   0.15872   1.88863
   D23        0.80272  -0.00175  -0.01189  -0.15476  -0.16521   0.63751
   D24       -2.40990   0.00146   0.00825   0.15189   0.15875  -2.25115
         Item               Value     Threshold  Converged?
 Maximum Force            0.001775     0.000450     NO 
 RMS     Force            0.000651     0.000300     NO 
 Maximum Displacement     0.232673     0.001800     NO 
 RMS     Displacement     0.057582     0.001200     NO 
 Predicted change in Energy=-1.060137D-03
 Lowest energy point so far.  Saving SCF results.
 GradGradGradGradGradGradGradGradGradGradGradGradGradGradGradGradGradGrad

 Leave Link  103 at Thu Sep  8 14:49:36 2022, MaxMem= 24159191040 cpu:         1.7
 (Enter /public/home/users/caep010/software/Gaussian09/g09/l202.exe)
                          Input orientation:                          
 ---------------------------------------------------------------------
 Center     Atomic      Atomic             Coordinates (Angstroms)
 Number     Number       Type             X           Y           Z
 ---------------------------------------------------------------------
      1          6           0       -1.126244   -0.906443   -0.064263
      2          6           0        0.139570   -0.082338    0.077943
      3          7           0        1.014907   -0.226345   -1.057791
      4          8           0        0.705399   -0.348539    1.344932
      5          7           0       -0.210576    1.470012    0.087037
      6          8           0        0.642317    2.172956    0.711941
      7          8           0       -1.354800    1.855378   -0.239285
      8          1           0       -0.860492   -1.966283   -0.013656
      9          1           0       -1.616434   -0.694377   -1.014696
     10          1           0       -1.805684   -0.685546    0.761137
     11          1           0        1.904682    0.261119   -0.899250
     12          1           0        1.202772   -1.219733   -1.226783
     13          1           0        1.364585    0.370138    1.532634
 ---------------------------------------------------------------------
                    Distance matrix (angstroms):
                    1          2          3          4          5
     1  C    0.000000
     2  C    1.517121   0.000000
     3  N    2.456452   1.441126   0.000000
     4  O    2.377394   1.412900   2.425655   0.000000
     5  N    2.551250   1.591375   2.385386   2.393416   0.000000
     6  O    3.634968   2.396051   3.004567   2.600498   1.269670
     7  O    2.776783   2.467492   3.258686   3.407552   1.250696
     8  H    1.093822   2.134892   2.763100   2.629614   3.498664
     9  H    1.090221   2.156850   2.672989   3.328417   2.806213
    10  H    1.091659   2.148169   3.387492   2.599987   2.764998
    11  H    3.353642   2.046580   1.026868   2.616546   2.628403
    12  H    2.621816   2.031349   1.025023   2.760449   3.310349
    13  H    3.222416   1.954872   2.681113   0.993103   2.404290
                    6          7          8          9         10
     6  O    0.000000
     7  O    2.234763   0.000000
     8  H    4.462984   3.860096   0.000000
     9  H    4.037924   2.677866   1.786414   0.000000
    10  H    3.763797   2.767749   1.770305   1.785910   0.000000
    11  H    2.800825   3.688013   3.659479   3.650283   4.173713
    12  H    3.947544   4.119786   2.507204   2.875570   3.645270
    13  H    2.108403   3.569411   3.577827   4.063073   3.429327
                   11         12         13
    11  H    0.000000
    12  H    1.671191   0.000000
    13  H    2.493521   3.188771   0.000000
 Stoichiometry    C2H6N2O3
 Framework group  C1[X(C2H6N2O3)]
 Deg. of freedom    33
 Full point group                 C1      NOp   1
 RotChk:  IX=0 Diff= 1.10D-01
 Largest Abelian subgroup         C1      NOp   1
 Largest concise Abelian subgroup C1      NOp   1
                         Standard orientation:                         
 ---------------------------------------------------------------------
 Center     Atomic      Atomic             Coordinates (Angstroms)
 Number     Number       Type             X           Y           Z
 ---------------------------------------------------------------------
      1          6           0        1.250442    1.260408   -0.370789
      2          6           0        0.602922   -0.061604   -0.003832
      3          7           0        0.999029   -0.518724    1.304214
      4          8           0        0.798984   -0.966091   -1.071422
      5          7           0       -0.973991    0.112085    0.121277
      6          8           0       -1.616339   -0.958904   -0.107704
      7          8           0       -1.477275    1.256718    0.148895
      8          1           0        2.324294    1.098831   -0.501861
      9          1           0        1.081896    1.999771    0.412484
     10          1           0        0.842155    1.621962   -1.316463
     11          1           0        0.627413   -1.457213    1.492886
     12          1           0        2.021783   -0.544616    1.367267
     13          1           0        0.164049   -1.718865   -0.943193
 ---------------------------------------------------------------------
 Rotational constants (GHZ):      3.5406126      2.5204861      2.1036969
 Leave Link  202 at Thu Sep  8 14:49:36 2022, MaxMem= 24159191040 cpu:         0.3
 (Enter /public/home/users/caep010/software/Gaussian09/g09/l301.exe)
 Standard basis: 6-31G(d,p) (6D, 7F)
 Ernie: Thresh=  0.10000D-02 Tol=  0.10000D-05 Strict=F.
 There are   135 symmetry adapted cartesian basis functions of A   symmetry.
 There are   135 symmetry adapted basis functions of A   symmetry.
   135 basis functions,   238 primitive gaussians,   135 cartesian basis functions
    28 alpha electrons       28 beta electrons
       nuclear repulsion energy       336.4076266723 Hartrees.
 IExCor=  402 DFT=T Ex+Corr=B3LYP ExCW=0 ScaHFX=  0.200000
 ScaDFX=  0.800000  0.720000  1.000000  0.810000 ScalE2=  1.000000  1.000000
 IRadAn=      0 IRanWt=     -1 IRanGd=            0 ICorTp=0 IEmpDi=  4
 NAtoms=   13 NActive=   13 NUniq=   13 SFac= 1.00D+00 NAtFMM=   60 NAOKFM=F Big=F
 Integral buffers will be    131072 words long.
 Raffenetti 2 integral format.
 Two-electron integral symmetry is turned on.
 Leave Link  301 at Thu Sep  8 14:49:36 2022, MaxMem= 24159191040 cpu:         1.7
 (Enter /public/home/users/caep010/software/Gaussian09/g09/l302.exe)
 NPDir=0 NMtPBC=     1 NCelOv=     1 NCel=       1 NClECP=     1 NCelD=      1
         NCelK=      1 NCelE2=     1 NClLst=     1 CellRange=     0.0.
 One-electron integrals computed using PRISM.
 NBasis=   135 RedAO= T EigKep=  2.44D-03  NBF=   135
 NBsUse=   135 1.00D-06 EigRej= -1.00D+00 NBFU=   135
 Precomputing XC quadrature grid using
 IXCGrd= 4 IRadAn=           0 IRanWt=          -1 IRanGd=           0 AccXCQ= 0.00D+00.
 Generated NRdTot=       0 NPtTot=           0 NUsed=           0 NTot=          32
 NSgBfM=   135   135   135   135   135 MxSgAt=    13 MxSgA2=    13.
 Leave Link  302 at Thu Sep  8 14:49:36 2022, MaxMem= 24159191040 cpu:        11.4
 (Enter /public/home/users/caep010/software/Gaussian09/g09/l303.exe)
 DipDrv:  MaxL=1.
 Leave Link  303 at Thu Sep  8 14:49:36 2022, MaxMem= 24159191040 cpu:         0.8
 (Enter /public/home/users/caep010/software/Gaussian09/g09/l401.exe)
 Initial guess from the checkpoint file:  "B3LYP6-31Gdp.Frag_1078.chk"
 B after Tr=    -0.000000    0.000000    0.000000
         Rot=    0.999531   -0.000784   -0.026245   -0.015733 Ang=  -3.51 deg.
 Guess basis will be translated and rotated to current coordinates.
 JPrj=2 DoOrth=T DoCkMO=T.
 Generating alternative initial guess.
 ExpMin= 1.61D-01 ExpMax= 5.48D+03 ExpMxC= 8.25D+02 IAcc=1 IRadAn=         1 AccDes= 0.00D+00
 Harris functional with IExCor=  402 and IRadAn=       1 diagonalized for initial guess.
 HarFok:  IExCor=  402 AccDes= 0.00D+00 IRadAn=         1 IDoV= 1 UseB2=F ITyADJ=14
 ICtDFT=  3500011 ScaDFX=  1.000000  1.000000  1.000000  1.000000
 FoFCou: FMM=F IPFlag=           0 FMFlag=      100000 FMFlg1=           0
         NFxFlg=           0 DoJE=T BraDBF=F KetDBF=T FulRan=T
         wScrn=  0.000000 ICntrl=     500 IOpCl=  0 I1Cent=   200000004 NGrid=           0
         NMat0=    1 NMatS0=      1 NMatT0=    0 NMatD0=    1 NMtDS0=    0 NMtDT0=    0
[...]
     32 -0.972171D-04 -0.188168D-03  0.194744D-03  0.656294D-03 -0.350124D-03
     33 -0.104421D-03  0.283088D-03  0.127419D-02  0.581032D-03  0.546343D-03
     34  0.256549D-03 -0.827993D-05  0.372527D-03 -0.306573D-03 -0.336079D-03
     35  0.587287D-04 -0.165284D-03 -0.213099D-03 -0.837024D-04 -0.344619D-04
     36  0.262693D-03 -0.601429D-05 -0.369968D-03  0.132345D-03 -0.249715D-03
     37 -0.103973D-02 -0.335779D-03  0.431314D-03  0.861808D-04  0.175122D-03
     38  0.881931D-03  0.546209D-03 -0.944659D-04  0.380272D-04 -0.134120D-04
     39 -0.778579D-03  0.228934D-03 -0.121162D-03  0.120384D-03  0.152060D-03
               31            32            33            34            35 
     31  0.343497D+00
     32  0.171100D+00  0.144601D+00
     33  0.397032D-01  0.481987D-01  0.485959D-01
     34  0.759162D-02 -0.345771D-01 -0.905253D-02  0.682483D-01
     35  0.949071D-02 -0.162194D-01  0.397139D-03 -0.670773D-01  0.423614D+00
     36 -0.499803D-03 -0.591725D-02 -0.385977D-02 -0.343796D-01  0.853952D-01
     37  0.573509D-03 -0.553744D-03  0.598245D-03 -0.156415D-03  0.409499D-04
     38 -0.390689D-03  0.150965D-02 -0.107478D-02 -0.288333D-04 -0.320017D-03
     39  0.132416D-02  0.498978D-03 -0.209477D-02  0.515578D-04 -0.126164D-03
               36            37            38            39 
     36  0.446478D-01
     37 -0.484458D-04  0.232497D+00
     38 -0.487209D-03  0.231393D+00  0.266340D+00
     39 -0.852005D-05  0.795477D-01  0.578947D-01  0.690450D-01
 FormGI is forming the generalized inverse of G from B-inverse, IUseBI=4.
 Leave Link  716 at Thu Sep  8 14:50:24 2022, MaxMem= 24159191040 cpu:         1.4
 (Enter /public/home/users/caep010/software/Gaussian09/g09/l103.exe)

 GradGradGradGradGradGradGradGradGradGradGradGradGradGradGradGradGradGrad
 Berny optimization.
 Red2BG is reusing G-inverse.
 Internal  Forces:  Max     0.000036176 RMS     0.000008830
 Search for a local minimum.
 Step number   1 out of a maximum of    2
 All quantities printed in internal units (Hartrees-Bohrs-Radians)
 Second derivative matrix not updated -- analytic derivatives used.
 ITU=  0
     Eigenvalues ---    0.00092   0.00198   0.00387   0.01001   0.02506
     Eigenvalues ---    0.04385   0.04553   0.05086   0.06320   0.07136
     Eigenvalues ---    0.10033   0.12930   0.13854   0.13934   0.14839
     Eigenvalues ---    0.15931   0.16693   0.18034   0.19679   0.19885
     Eigenvalues ---    0.24585   0.30525   0.33295   0.34374   0.35228
     Eigenvalues ---    0.35743   0.36758   0.42224   0.45100   0.45705
     Eigenvalues ---    0.50836   0.60903   0.80179
 Angle between quadratic step and forces=  78.98 degrees.
 Linear search not attempted -- first point.
 Iteration  1 RMS(Cart)=  0.00077146 RMS(Int)=  0.00000047
 Iteration  2 RMS(Cart)=  0.00000048 RMS(Int)=  0.00000000
 ITry= 1 IFail=0 DXMaxC= 2.66D-03 DCOld= 1.00D+10 DXMaxT= 3.00D-01 DXLimC= 3.00D+00 Rises=F
 Variable       Old X    -DE/DX   Delta X   Delta X   Delta X     New X
                                 (Linear)    (Quad)   (Total)
    R1        2.86117  -0.00000   0.00000  -0.00004  -0.00004   2.86114
    R2        2.06653   0.00000   0.00000   0.00001   0.00001   2.06654
    R3        2.05748  -0.00000   0.00000  -0.00001  -0.00001   2.05746
    R4        2.06056  -0.00000   0.00000   0.00000   0.00000   2.06056
    R5        2.71441   0.00001   0.00000   0.00007   0.00007   2.71447
    R6        2.63518  -0.00000   0.00000  -0.00005  -0.00005   2.63512
    R7        2.97511   0.00001   0.00000   0.00014   0.00014   2.97525
    R8        1.92170   0.00001   0.00000   0.00003   0.00003   1.92173
    R9        1.91905   0.00001   0.00000   0.00004   0.00004   1.91908
   R10        1.83713   0.00001   0.00000   0.00000   0.00000   1.83713
   R11        2.33252   0.00000   0.00000   0.00002   0.00002   2.33253
   R12        2.30074  -0.00004   0.00000  -0.00007  -0.00007   2.30067
    A1        1.89088   0.00001   0.00000   0.00013   0.00013   1.89101
    A2        1.92866  -0.00000   0.00000  -0.00005  -0.00005   1.92860
    A3        1.92047  -0.00001   0.00000  -0.00004  -0.00004   1.92043
    A4        1.91491  -0.00000   0.00000  -0.00010  -0.00010   1.91480
    A5        1.89270  -0.00000   0.00000  -0.00001  -0.00001   1.89270
    A6        1.91570   0.00000   0.00000   0.00007   0.00007   1.91578
    A7        1.95766  -0.00000   0.00000   0.00000   0.00000   1.95766
    A8        1.90421   0.00001   0.00000   0.00009   0.00009   1.90430
    A9        1.92418  -0.00001   0.00000  -0.00006  -0.00006   1.92412
   A10        2.04020  -0.00001   0.00000  -0.00003  -0.00003   2.04017
   A11        1.78875   0.00001   0.00000  -0.00003  -0.00003   1.78872
   A12        1.84002   0.00000   0.00000   0.00002   0.00002   1.84004
   A13        1.93273   0.00000   0.00000  -0.00010  -0.00010   1.93263
   A14        1.91897   0.00001   0.00000  -0.00006  -0.00006   1.91891
   A15        1.89664  -0.00001   0.00000  -0.00014  -0.00014   1.89650
   A16        1.86102   0.00001   0.00000   0.00008   0.00008   1.86110
   A17        1.99206  -0.00003   0.00000  -0.00016  -0.00016   1.99190
   A18        2.09479   0.00001   0.00000   0.00012   0.00012   2.09491
   A19        2.19605   0.00002   0.00000   0.00004   0.00004   2.19609
    D1        1.19112  -0.00000   0.00000  -0.00150  -0.00150   1.18962
    D2       -1.09787  -0.00000   0.00000  -0.00153  -0.00153  -1.09940
    D3       -3.11070  -0.00000   0.00000  -0.00158  -0.00158  -3.11227
    D4       -0.90722  -0.00000   0.00000  -0.00143  -0.00143  -0.90864
    D5        3.08699  -0.00000   0.00000  -0.00146  -0.00146   3.08553
    D6        1.07416  -0.00000   0.00000  -0.00150  -0.00150   1.07265
    D7       -3.02557  -0.00000   0.00000  -0.00145  -0.00145  -3.02702
    D8        0.96864  -0.00000   0.00000  -0.00149  -0.00149   0.96715
    D9       -1.04419  -0.00000   0.00000  -0.00153  -0.00153  -1.04572
   D10       -3.05411  -0.00001   0.00000  -0.00116  -0.00116  -3.05527
   D11       -0.95793  -0.00001   0.00000  -0.00144  -0.00144  -0.95937
   D12       -0.83621   0.00000   0.00000  -0.00106  -0.00106  -0.83727
   D13        1.25997  -0.00000   0.00000  -0.00134  -0.00134   1.25864
   D14        1.16562   0.00000   0.00000  -0.00107  -0.00107   1.16455
   D15       -3.02139  -0.00000   0.00000  -0.00135  -0.00135  -3.02273
   D16       -2.86104   0.00000   0.00000  -0.00032  -0.00032  -2.86135
   D17        1.17831   0.00000   0.00000  -0.00037  -0.00037   1.17793
   D18       -0.79472  -0.00000   0.00000  -0.00033  -0.00033  -0.79505
   D19        2.84855  -0.00000   0.00000   0.00036   0.00036   2.84891
   D20       -0.31732   0.00001   0.00000   0.00054   0.00054  -0.31677
   D21       -1.34765  -0.00000   0.00000   0.00031   0.00031  -1.34734
   D22        1.76967   0.00000   0.00000   0.00050   0.00050   1.77017
   D23        0.79565  -0.00001   0.00000   0.00027   0.00027   0.79593
   D24       -2.37021  -0.00000   0.00000   0.00046   0.00046  -2.36975
         Item               Value     Threshold  Converged?
 Maximum Force            0.000036     0.000450     YES
 RMS     Force            0.000009     0.000300     YES
 Maximum Displacement     0.002662     0.001800     NO 
 RMS     Displacement     0.000771     0.001200     YES
 Predicted change in Energy=-3.488292D-08
 GradGradGradGradGradGradGradGradGradGradGradGradGradGradGradGradGradGrad

 Leave Link  103 at Thu Sep  8 14:50:24 2022, MaxMem= 24159191040 cpu:         1.2
 (Enter /public/home/users/caep010/software/Gaussian09/g09/l9999.exe)
 1\1\GINC-B1334\Freq\RB3LYP\6-31G(d,p)\C2H6N2O3\ROOT\08-Sep-2022\0\\#P 
 Geom=AllCheck Guess=TCheck SCRF=Check GenChk RB3LYP/6-31G(d,p) Freq\\F
 rag_1078\\0,1\C,-1.1291566326,-0.9112453436,-0.0536174051\C,0.13233910
 43,-0.0900557529,0.1097119769\N,0.9958005088,-0.1898515107,-1.03384693
 44\O,0.6986748323,-0.3660558628,1.3537577333\N,-0.2167697361,1.4448162
 345,0.1397686921\O,0.684296893,2.1586780559,0.5892260042\O,-1.28993327
 96,1.8338516138,-0.2836343178\H,-0.8549934537,-1.9697753421,-0.0386892
 919\H,-1.6204739236,-0.6723191025,-0.9953927356\H,-1.8098307313,-0.719
 442593,0.7763644677\H,1.8706561257,0.3014655069,-0.8684288669\H,1.2023
 015484,-1.1650046408,-1.2280227346\H,1.3370897446,0.3449377373,1.53270
 34122\\Version=ES64L-G09RevE.01\State=1-A\HF=-414.912862\RMSD=4.295e-0
 9\RMSF=1.685e-05\ZeroPoint=0.0999268\Thermal=0.107447\Dipole=0.6266259
 ,-1.1328026,-0.1184985\DipoleDeriv=-0.0806049,-0.0325545,-0.0137212,-0
 .0727338,-0.0019308,-0.0205979,0.0096662,-0.0013234,0.0166916,0.866947
 6,-0.1022462,-0.0623642,-0.1017258,0.7860099,-0.0517299,-0.0525494,-0.
 0422683,1.2681379,-0.4839859,0.0637371,0.1674349,0.0487225,-0.3939273,
 0.1033917,0.1636164,-0.0494206,-0.8385087,-0.566379,0.1604787,-0.21487
 4,0.1468193,-0.5270291,0.0394002,-0.1004031,0.0676683,-0.9917371,1.256
 326,0.0059982,0.4707159,0.0929087,0.8646353,0.1934084,0.4823397,0.1245
 161,0.2895626,-0.7627055,-0.0757476,-0.2452392,-0.2887443,-0.7577713,-
 0.1904671,-0.2472364,-0.0762019,-0.3584674,-0.8496251,0.0524899,-0.253
 7304,0.2824928,-0.5763483,0.0701766,-0.2510446,-0.0178829,-0.2783478,0
 .0413128,0.0439478,0.0026796,0.0249008,-0.0960463,-0.0070875,0.0022324
 ,-0.0092386,0.0814607,0.0499721,-0.0095364,-0.0290721,0.0176058,0.0803
 295,0.0364146,-0.0403834,0.0205742,-0.0184379,0.0091503,-0.0086796,0.0
 524613,0.014422,0.069281,-0.0310524,0.0661942,-0.0232199,-0.0123513,0.
 0825722,-0.0628479,0.0218303,-0.0343405,0.1862226,-0.0847877,-0.081860
 6,-0.0822574,0.2164248,0.1575195,0.0633441,0.0752508,0.0167047,0.05826
 28,-0.0234977,-0.0059526,0.0671665,0.2917055,0.2795,-0.0983837,0.02862
 84,-0.1470323,0.3083122,-0.0335711,0.0553812,0.0218879,0.333867\Polar=
 50.0729405,1.4913466,47.6557051,3.9268672,2.6551742,38.9427819\PG=C01 
 [X(C2H6N2O3)]\NImag=0\\0.53460209,-0.04960756,0.55246503,-0.00632355,-
 0.01005366,0.61902355,-0.16892607,-0.05471659,-0.00656884,0.58542050,-
 0.05060577,-0.11357118,-0.00449212,0.09105293,0.40596947,-0.00822780,-
 0.00752152,-0.07839649,0.01630656,0.03097798,0.48833360,-0.02708295,0.
 00072183,0.02775550,-0.14823854,-0.01505324,0.09317385,0.56527025,-0.0
 1738558,0.00492593,0.01733156,-0.00378077,-0.10235010,-0.04145247,0.08
 833602,0.64648249,0.00509984,0.00235873,0.00113393,0.04460044,-0.00726
 008,-0.14349261,-0.09244345,0.15727784,0.28520537,-0.01983429,0.004575
 65,-0.03592121,-0.11364265,0.00175022,-0.06552275,0.01818023,-0.003164
 10,0.01866814,0.33105457,-0.01282472,0.00769985,-0.02077967,-0.0215104
 7,-0.09590799,0.01260568,-0.00199008,0.01534593,-0.00033280,0.22654609
 ,0.38216373,-0.01432188,0.00112855,-0.01501816,-0.04470475,0.03648351,
 -0.18512777,-0.00267000,0.01013775,-0.06536945,0.15150310,-0.00657772,
 0.32320884,0.01043359,-0.02479918,0.00020291,-0.06608497,-0.01935807,0
 .01368816,-0.01098329,0.03117692,0.01010112,-0.01119985,0.01219545,-0.
 01750120,0.88993295,-0.00450341,-0.02536728,-0.00315289,0.00773492,-0.
 07319163,0.00002355,0.00974237,-0.01469515,-0.01013416,0.00483868,-0.0
 2028289,0.01288854,0.00328226,0.64098740,0.00041064,-0.00191932,0.0009
 8568,0.00944037,-0.00259699,-0.06916501,0.01315919,-0.03539504,-0.0141
 2081,-0.02546927,0.03424992,-0.01943445,0.28065550,0.03958890,0.370463
 61,0.00075974,-0.00090169,-0.00006541,-0.00700398,-0.00475312,-0.01295
 226,0.00100363,-0.00087238,0.00012389,0.00577857,0.00679748,0.00235577
 ,-0.30825717,-0.18447774,-0.11962631,0.39225224,0.00528635,-0.00753584
 ,0.00007487,-0.03890641,-0.02208584,-0.01275741,0.00107500,-0.00163676
 ,-0.00364269,0.00034230,-0.00669124,0.00135730,-0.17690796,-0.30978410
 ,-0.09650362,0.22170114,0.30727443,0.00201703,-0.00207344,0.00093156,-
 0.01701033,-0.00488689,0.00316319,-0.00014568,0.00137538,0.00264479,0.
 00587281,0.00576316,0.00723752,-0.11927489,-0.10213978,-0.13207579,0.1
 7814771,0.11731302,0.11663905,-0.00111298,-0.00239746,-0.00005175,-0.0
 1474203,0.00685520,-0.01461548,0.00116609,0.00129494,0.00383388,-0.000
 98009,0.00880863,-0.00226809,-0.48147427,0.16913361,-0.16113493,-0.091
 54771,-0.01110703,-0.05069672,0.58238010,0.00170300,-0.00275878,-0.000
 59828,0.02525933,0.00641917,0.01042979,0.00142664,-0.00495696,-0.00396
 956,0.00682844,-0.00807313,0.00750813,0.16502253,-0.20930459,0.0571262
 6,-0.03296324,0.04824253,-0.01197140,-0.16876137,0.17541752,-0.0004221
 7,-0.00171312,-0.00137745,-0.00940264,0.00061154,0.01381274,-0.0001525
 3,0.00365690,0.00276453,0.00229249,-0.00000199,-0.00047385,-0.16435451
 ,0.06166912,-0.13298541,-0.05126366,-0.00364759,0.00122790,0.22331537,
 -0.05905311,0.11452459,-0.06606403,0.06796026,-0.00100486,0.00803854,-
 0.02992990,0.00054154,0.00117110,0.00066472,-0.00055564,0.00081603,0.0
 0128835,0.00090169,-0.00671786,-0.00025895,-0.00091890,0.00020614,-0.0
 0262610,-0.00053219,0.00161612,0.00058166,0.00014090,0.06958197,0.0653
 0034,-0.29928642,0.00341899,0.00752231,-0.02064103,0.00028577,0.000600
 58,0.00130713,-0.00038266,0.00036080,0.00199371,0.00061773,-0.00133002
 ,0.00151523,0.00051244,-0.00100878,-0.00157464,-0.00070698,-0.00067410
 ,-0.00034644,-0.00034000,-0.07113644,0.32471587,-0.00095093,0.00453021
 ,-0.04739375,0.00099677,-0.00438455,-0.00156750,0.00039370,0.00029447,
 -0.00029548,-0.00043713,0.00016651,-0.00012071,-0.00146324,0.00037122,
 -0.00030366,0.00007386,-0.00054398,0.00007989,0.00034627,0.00042268,0.
 00061468,0.00079201,-0.00402058,0.04530686,-0.10600998,0.02573095,-0.1
 0625789,-0.01002423,0.01007383,-0.02427210,0.00140514,0.00023293,0.000
 95966,-0.00490164,-0.00467322,-0.00161464,-0.00118155,0.00049727,-0.00
 044019,0.00051583,0.00006061,0.00026303,0.00101412,0.00034528,0.000791
 45,-0.00394312,0.00091938,-0.00538838,0.11243740,0.02883434,-0.0615841
 5,0.05762866,-0.00650957,0.00493291,-0.01748177,0.00061540,0.00010961,
 -0.00001364,-0.00423149,-0.00276464,-0.00147956,-0.00167032,0.00058426
 ,-0.00072377,0.00117693,0.00043369,0.00043001,0.00107953,-0.00222410,0
 .00034622,0.01357831,-0.00430102,0.02762290,-0.02858049,0.06357091,-0.
 11065546,0.05323981,-0.26076852,0.00060938,0.00041320,-0.00369687,0.00
 132058,0.00044968,0.00021618,-0.00101791,-0.00081778,0.00075371,-0.002
 57989,0.00057176,-0.00093001,0.00099978,-0.00007328,0.00038643,0.00167
 778,0.00102402,0.00093105,0.00205021,-0.00047910,0.00230248,0.11958213
 ,-0.05987323,0.27793006,-0.15557004,0.02921309,0.12877529,-0.01648834,
 0.00744055,0.02335548,-0.00451011,-0.00419717,-0.00129320,0.00206353,0
 .00013899,-0.00048523,-0.00045767,0.00146706,-0.00048964,0.00008037,-0
 .00005554,-0.00005115,0.00096233,-0.00020198,0.00020235,-0.00455053,0.
 00085572,0.00471082,0.01143394,-0.00363808,-0.01163308,0.16709818,0.03
 210845,-0.05631241,-0.04133982,-0.01163801,0.00255658,0.01642292,-0.00
 376201,-0.00279724,-0.00046828,0.00138577,0.00012662,0.00027749,-0.001
 34869,0.00105069,0.00013178,0.00041858,0.00022507,0.00032540,0.0009039
 7,-0.00050290,0.00010507,0.01960530,-0.00387428,-0.02476141,-0.0053238
 1,0.00039909,0.00535216,-0.03090981,0.05851815,0.13327735,-0.03846268,
 -0.21154622,-0.00378870,0.00165779,0.00175812,-0.00027843,-0.00001242,
 0.00082496,-0.00072875,0.00001693,0.00057428,0.00191297,-0.00039526,0.
 00090081,-0.00055304,0.00013363,-0.00036265,-0.00142465,-0.00024697,0.
 00018906,-0.00215616,0.00042154,0.00132284,0.01780326,-0.00583551,-0.0
 1763053,-0.14387470,0.04312094,0.22352066,-0.00139244,0.00195423,0.004
 93361,-0.02401901,-0.01056682,-0.01071035,-0.32907020,-0.17049625,-0.0
 3214498,0.00316513,0.00150522,-0.00165190,-0.00372188,-0.00236042,-0.0
 0139453,0.00263514,0.00089440,-0.00012386,0.00096026,0.00018953,0.0006
 6670,0.00015281,-0.00022870,-0.00006455,0.00049316,0.00012861,-0.00000
 946,-0.00086550,-0.00121935,-0.00002820,0.34349739,0.00063777,0.000756
 46,-0.00056595,0.00079513,0.00158581,0.00460791,-0.14059190,-0.1329486
 6,-0.04492582,0.00161764,-0.00064206,-0.00244436,0.00362393,0.00366921
 ,0.00185812,-0.00205143,-0.00233442,0.00011390,-0.00029616,-0.00086057
 ,-0.00073774,0.00026313,0.00032378,-0.00014823,-0.00016150,-0.00009722
 ,-0.00018817,0.00019474,0.00065629,-0.00035012,0.17109952,0.14460107,0
 .00263162,-0.00179494,-0.00371712,0.03370861,0.01882439,0.00074166,-0.
 06489366,-0.06631556,-0.04417915,-0.00257970,0.00012636,0.00398538,0.0
 0124174,0.00087783,0.00084092,-0.00144832,-0.00006578,-0.00060451,-0.0
 0124079,0.00046645,-0.00041060,-0.00019037,-0.00011644,-0.00012734,0.0
 0024780,-0.00010442,0.00028309,0.00127419,0.00058103,0.00054634,0.0397
 0317,0.04819873,0.04859587,0.00054658,0.00047996,-0.00064543,-0.003967
 72,0.02650702,-0.00066413,-0.06905752,0.07679468,0.04088679,0.00058238
 ,-0.00109516,-0.00065281,-0.00474357,-0.00327903,0.00666939,0.00226227
 ,0.00144002,-0.00102549,-0.00055564,0.00193549,-0.00161454,-0.00055377
 ,-0.00104972,0.00077118,-0.00056901,0.00025655,-0.00000828,0.00037253,
 -0.00030657,-0.00033608,0.00759162,-0.03457715,-0.00905253,0.06824827,
 -0.00075690,0.00119593,0.00072805,0.00138675,-0.00379647,0.00507509,0.
 05784609,-0.40669739,-0.09204193,-0.00123688,0.00047922,0.00157491,-0.
 00054411,0.00091643,-0.00127052,0.00060928,0.00052872,0.00005423,0.000
 21235,0.00007384,0.00008108,0.00004745,0.00024992,0.00033268,0.0001946
 6,0.00005873,-0.00016528,-0.00021310,-0.00008370,-0.00003446,0.0094907
 1,-0.01621936,0.00039714,-0.06707726,0.42361415,-0.00090326,-0.0002676
 7,0.00070254,0.01010416,-0.03422158,-0.01391525,0.02378040,-0.04843028
 ,-0.02726406,-0.00119884,0.00302111,0.00125253,0.00324017,-0.00000327,
 -0.00186426,0.00010237,0.00040513,0.00028587,0.00005454,-0.00056482,0.
 00007844,0.00057795,0.00067560,0.00020043,-0.00045966,0.00026269,-0.00
 000601,-0.00036997,0.00013235,-0.00024972,-0.00049980,-0.00591725,-0.0
 0385977,-0.03437961,0.08539518,0.04464778,-0.00034922,0.00178652,-0.00
 482837,-0.02032151,-0.01341283,-0.01010073,0.00074617,0.00139602,0.002
 16350,-0.21108192,-0.21518656,-0.06889007,-0.00554447,-0.00181661,-0.0
 0086132,0.00131493,-0.00119678,0.00255974,0.00231369,-0.00136532,-0.00
 019920,0.00024662,-0.00013136,0.00021964,-0.00067006,-0.00103973,-0.00
 033578,0.00043131,0.00008618,0.00017512,0.00057351,-0.00055374,0.00059
 824,-0.00015642,0.00004095,-0.00004845,0.23249735,0.00181367,-0.000627
 14,0.00180027,0.00331043,0.01008028,-0.00121552,0.00103330,-0.00208884
 ,0.00353506,-0.23961313,-0.27344712,-0.06147227,0.01065726,0.00390242,
 0.00494185,-0.00367503,-0.00506159,-0.00359661,-0.00505210,-0.00112558
 ,-0.00097638,-0.00003780,-0.00008182,0.00011808,0.00068412,0.00088193,
 0.00054621,-0.00009447,0.00003803,-0.00001341,-0.00039069,0.00150965,-
 0.00107478,-0.00002883,-0.00032002,-0.00048721,0.23139326,0.26633979,-
 0.00163145,0.00254904,-0.00455954,-0.03429104,-0.03112621,-0.01244781,
 0.00100055,0.00108220,0.00193179,-0.04546097,-0.02743969,-0.05146787,-
 0.00586884,-0.00016556,-0.00231163,0.00410561,-0.00204959,0.00044675,0
 .00220459,-0.00057321,0.00110431,0.00035381,0.00011370,-0.00001874,-0.
 00121447,-0.00077858,0.00022893,-0.00012116,0.00012038,0.00015206,0.00
 132416,0.00049898,-0.00209477,0.00005156,-0.00012616,-0.00000852,0.079
 54766,0.05789471,0.06904504\\0.00000028,-0.00001368,-0.00000212,-0.000
 00001,0.00001495,-0.00002988,0.00001473,0.00000651,0.00000773,-0.00000
 822,-0.00000962,0.00001751,0.00005832,-0.00003750,0.00003950,-0.000014
 88,0.00001338,0.00000278,-0.00003060,0.00001239,-0.00001382,0.00000678
 ,0.00000324,-0.00000434,0.00000315,0.00000260,-0.00000942,-0.00000680,
 -0.00000210,-0.00001208,-0.00000468,0.00000395,0.00000733,-0.00000788,
 0.00001430,0.00000036,-0.00001019,-0.00000842,-0.00000354\\\@


 IT IS WELL TO REMEMBER THAT MAN IS A PART OF NATURE AND THAT HIS WORKS,
 WHATEVER THEY MAY BE, ARE NO MORE "UNNATURAL" THAN 
 THE FLIGHT OF AN EAGLE OR THE PASSAGE OF A TORNADO.

                                    -- CHARLES MCCARRY IN "THE GREAT SOUTHWEST"
 Job cpu time:       0 days  0 hours  5 minutes 56.6 seconds.
 File lengths (MBytes):  RWF=     32 Int=      0 D2E=      0 Chk=      3 Scr=      1
 Normal termination of Gaussian 09 at Thu Sep  8 14:50:24 2022.
