 Entering Gaussian System, Link 0=g09
 Input=B3LYP6-31Gxx.Frag_39.gjf
 Output=B3LYP6-31Gxx.Frag_39.log
 Initial command:
 /vol2/users/liuj201281/hxd_yi/bin/Gaussian/g09/l1.exe "/vol2/users/liuj201281/HOFBenchmark/IsodesmicSplit/Sample60/Ring26/Running/Gau-268976.inp" -scrdir="/vol2/users/liuj201281/HOFBenchmark/IsodesmicSplit/Sample60/Ring26/Running/"
 Entering Link 1 = /vol2/users/liuj201281/hxd_yi/bin/Gaussian/g09/l1.exe PID=    268978.
  
 Copyright (c) 1988,1990,1992,1993,1995,1998,2003,2009,2013,
            Gaussian, Inc.  All Rights Reserved.
  
 This is part of the Gaussian(R) 09 program.  It is based on
 the Gaussian(R) 03 system (copyright 2003, Gaussian, Inc.),
 the Gaussian(R) 98 system (copyright 1998, Gaussian, Inc.),
 the Gaussian(R) 94 system (copyright 1995, Gaussian, Inc.),
 the Gaussian 92(TM) system (copyright 1992, Gaussian, Inc.),
 the Gaussian 90(TM) system (copyright 1990, Gaussian, Inc.),
 the Gaussian 88(TM) system (copyright 1988, Gaussian, Inc.),
 the Gaussian 86(TM) system (copyright 1986, Carnegie Mellon
 University), and the Gaussian 82(TM) system (copyright 1983,
 Carnegie Mellon University). Gaussian is a federally registered
 trademark of Gaussian, Inc.
  
 This software contains proprietary and confidential information,
 including trade secrets, belonging to Gaussian, Inc.
  
 This software is provided under written license and may be
 used, copied, transmitted, or stored only in accord with that
 written license.
  
 The following legend is applicable only to US Government
 contracts under FAR:
  
                    RESTRICTED RIGHTS LEGEND
  
 Use, reproduction and disclosure by the US Government is
 subject to restrictions as set forth in subparagraphs (a)
 and (c) of the Commercial Computer Software - Restricted
 Rights clause in FAR 52.227-19.
  
 Gaussian, Inc.
 340 Quinnipiac St., Bldg. 40, Wallingford CT 06492
  
  
 ---------------------------------------------------------------
 Warning -- This program may not be used in any manner that
 competes with the business of Gaussian, Inc. or will provide
 assistance to any competitor of Gaussian, Inc.  The licensee
 of this program is prohibited from giving any competitor of
 Gaussian, Inc. access to this program.  By using this program,
 the user acknowledges that Gaussian, Inc. is engaged in the
 business of creating and licensing software in the field of
 computational chemistry and represents and warrants to the
 licensee that it is not a competitor of Gaussian, Inc. and that
 it will not use this program in any manner prohibited above.
 ---------------------------------------------------------------
  

 Cite this work as:
 Gaussian 09, Revision D.01,
 M. J. Frisch, G. W. Trucks, H. B. Schlegel, G. E. Scuseria, 
 M. A. Robb, J. R. Cheeseman, G. Scalmani, V. Barone, B. Mennucci, 
 G. A. Petersson, H. Nakatsuji, M. Caricato, X. Li, H. P. Hratchian, 
 A. F. Izmaylov, J. Bloino, G. Zheng, J. L. Sonnenberg, M. Hada, 
 M. Ehara, K. Toyota, R. Fukuda, J. Hasegawa, M. Ishida, T. Nakajima, 
 Y. Honda, O. Kitao, H. Nakai, T. Vreven, J. A. Montgomery, Jr., 
 J. E. Peralta, F. Ogliaro, M. Bearpark, J. J. Heyd, E. Brothers, 
 K. N. Kudin, V. N. Staroverov, T. Keith, R. Kobayashi, J. Normand, 
 K. Raghavachari, A. Rendell, J. C. Burant, S. S. Iyengar, J. Tomasi, 
 M. Cossi, N. Rega, J. M. Millam, M. Klene, J. E. Knox, J. B. Cross, 
 V. Bakken, C. Adamo, J. Jaramillo, R. Gomperts, R. E. Stratmann, 
 O. Yazyev, A. J. Austin, R. Cammi, C. Pomelli, J. W. Ochterski, 
 R. L. Martin, K. Morokuma, V. G. Zakrzewski, G. A. Voth, 
 P. Salvador, J. J. Dannenberg, S. Dapprich, A. D. Daniels, 
 O. Farkas, J. B. Foresman, J. V. Ortiz, J. Cioslowski, 
 and D. J. Fox, Gaussian, Inc., Wallingford CT, 2013.
 
 ******************************************
 Gaussian 09:  ES64L-G09RevD.01 24-Apr-2013
                23-Jul-2021 
 ******************************************
 %nproc=128
 Will use up to  128 processors via shared memory.
 %mem=128GB
 -------------------------
 #P OPT Freq B3LYP/6-31G**
 -------------------------
 1/14=-1,18=20,19=15,26=3,38=1/1,3;
 2/9=110,12=2,17=6,18=5,40=1/2;
 3/5=1,6=6,7=101,11=2,16=1,25=1,30=1,71=1,74=-5/1,2,3;
 4//1;
 5/5=2,38=5/2;
 6/7=2,8=2,9=2,10=2,28=1/1;
 7//1,2,3,16;
 1/14=-1,18=20,19=15,26=3/3(2);
 2/9=110/2;
 99//99;
 2/9=110/2;
 3/5=1,6=6,7=101,11=2,16=1,25=1,30=1,71=1,74=-5/1,2,3;
 4/5=5,16=3,69=1/1;
 5/5=2,38=5/2;
 7//1,2,3,16;
 1/14=-1,18=20,19=15,26=3/3(-5);
 2/9=110/2;
 6/7=2,8=2,9=2,10=2,19=2,28=1/1;
 99/9=1/99;
 Leave Link    1 at Fri Jul 23 01:12:19 2021, MaxMem= 17179869184 cpu:         9.2
 (Enter /vol2/users/liuj201281/hxd_yi/bin/Gaussian/g09/l101.exe)
 -------
 Frag_39
 -------
 Symbolic Z-matrix:
 Charge =  0 Multiplicity = 1
 C                    -0.7176    0.9597    0. 
 C                     0.7177    0.9597    0. 
 C                     1.0951   -0.3476    0. 
 O                     0.       -1.1609    0. 
 C                    -1.0951   -0.3476    0. 
 H                    -1.3738    1.8181   -0.0001 
 H                     1.3739    1.818     0. 
 H                     2.0514   -0.847     0. 
 H                    -2.0515   -0.8469    0. 
 
 NAtoms=      9 NQM=        9 NQMF=       0 NMMI=      0 NMMIF=      0
                NMic=       0 NMicF=      0.
                    Isotopes and Nuclear Properties:
 (Nuclear quadrupole moments (NQMom) in fm**2, nuclear magnetic moments (NMagM)
  in nuclear magnetons)

  Atom         1           2           3           4           5           6           7           8           9
 IAtWgt=          12          12          12          16          12           1           1           1           1
 AtmWgt=  12.0000000  12.0000000  12.0000000  15.9949146  12.0000000   1.0078250   1.0078250   1.0078250   1.0078250
 NucSpn=           0           0           0           0           0           1           1           1           1
 AtZEff=   0.0000000   0.0000000   0.0000000   0.0000000   0.0000000   0.0000000   0.0000000   0.0000000   0.0000000
 NQMom=    0.0000000   0.0000000   0.0000000   0.0000000   0.0000000   0.0000000   0.0000000   0.0000000   0.0000000
 NMagM=    0.0000000   0.0000000   0.0000000   0.0000000   0.0000000   2.7928460   2.7928460   2.7928460   2.7928460
 AtZNuc=   6.0000000   6.0000000   6.0000000   8.0000000   6.0000000   1.0000000   1.0000000   1.0000000   1.0000000
 Leave Link  101 at Fri Jul 23 01:12:19 2021, MaxMem= 17179869184 cpu:        54.9
 (Enter /vol2/users/liuj201281/hxd_yi/bin/Gaussian/g09/l103.exe)

 GradGradGradGradGradGradGradGradGradGradGradGradGradGradGradGradGradGrad
 Berny optimization.
 Initialization pass.
                           ----------------------------
                           !    Initial Parameters    !
                           ! (Angstroms and Degrees)  !
 --------------------------                            --------------------------
 ! Name  Definition              Value          Derivative Info.                !
 --------------------------------------------------------------------------------
 ! R1    R(1,2)                  1.4353         estimate D2E/DX2                !
 ! R2    R(1,5)                  1.3607         estimate D2E/DX2                !
 ! R3    R(1,6)                  1.0805         estimate D2E/DX2                !
 ! R4    R(2,3)                  1.3607         estimate D2E/DX2                !
 ! R5    R(2,7)                  1.0804         estimate D2E/DX2                !
 ! R6    R(3,4)                  1.3641         estimate D2E/DX2                !
 ! R7    R(3,8)                  1.0788         estimate D2E/DX2                !
 ! R8    R(4,5)                  1.3641         estimate D2E/DX2                !
 ! R9    R(5,9)                  1.0789         estimate D2E/DX2                !
 ! A1    A(2,1,5)              106.1068         estimate D2E/DX2                !
 ! A2    A(2,1,6)              127.3959         estimate D2E/DX2                !
 ! A3    A(5,1,6)              126.4973         estimate D2E/DX2                !
 ! A4    A(1,2,3)              106.1027         estimate D2E/DX2                !
 ! A5    A(1,2,7)              127.3992         estimate D2E/DX2                !
 ! A6    A(3,2,7)              126.4981         estimate D2E/DX2                !
 ! A7    A(2,3,4)              110.4975         estimate D2E/DX2                !
 ! A8    A(2,3,8)              133.6772         estimate D2E/DX2                !
 ! A9    A(4,3,8)              115.8253         estimate D2E/DX2                !
 ! A10   A(3,4,5)              106.7995         estimate D2E/DX2                !
 ! A11   A(1,5,4)              110.4935         estimate D2E/DX2                !
 ! A12   A(1,5,9)              133.6741         estimate D2E/DX2                !
 ! A13   A(4,5,9)              115.8324         estimate D2E/DX2                !
 ! D1    D(5,1,2,3)              0.0            estimate D2E/DX2                !
 ! D2    D(5,1,2,7)            180.0            estimate D2E/DX2                !
 ! D3    D(6,1,2,3)           -179.9933         estimate D2E/DX2                !
 ! D4    D(6,1,2,7)              0.0067         estimate D2E/DX2                !
 ! D5    D(2,1,5,4)              0.0            estimate D2E/DX2                !
 ! D6    D(2,1,5,9)            180.0            estimate D2E/DX2                !
 ! D7    D(6,1,5,4)            179.9934         estimate D2E/DX2                !
 ! D8    D(6,1,5,9)             -0.0066         estimate D2E/DX2                !
 ! D9    D(1,2,3,4)              0.0            estimate D2E/DX2                !
 ! D10   D(1,2,3,8)            180.0            estimate D2E/DX2                !
 ! D11   D(7,2,3,4)            180.0            estimate D2E/DX2                !
 ! D12   D(7,2,3,8)              0.0            estimate D2E/DX2                !
 ! D13   D(2,3,4,5)              0.0            estimate D2E/DX2                !
 ! D14   D(8,3,4,5)            180.0            estimate D2E/DX2                !
 ! D15   D(3,4,5,1)              0.0            estimate D2E/DX2                !
 ! D16   D(3,4,5,9)            180.0            estimate D2E/DX2                !
 --------------------------------------------------------------------------------
 Trust Radius=3.00D-01 FncErr=1.00D-07 GrdErr=1.00D-06
 Number of steps in this run=     48 maximum allowed number of steps=    100.
 GradGradGradGradGradGradGradGradGradGradGradGradGradGradGradGradGradGrad

 Leave Link  103 at Fri Jul 23 01:12:20 2021, MaxMem= 17179869184 cpu:         1.9
 (Enter /vol2/users/liuj201281/hxd_yi/bin/Gaussian/g09/l202.exe)
                          Input orientation:                          
 ---------------------------------------------------------------------
 Center     Atomic      Atomic             Coordinates (Angstroms)
 Number     Number       Type             X           Y           Z
 ---------------------------------------------------------------------
      1          6           0       -0.717600    0.959700    0.000000
      2          6           0        0.717700    0.959700    0.000000
      3          6           0        1.095100   -0.347600    0.000000
      4          8           0        0.000000   -1.160900    0.000000
      5          6           0       -1.095100   -0.347600    0.000000
      6          1           0       -1.373800    1.818100   -0.000100
      7          1           0        1.373900    1.818000    0.000000
      8          1           0        2.051400   -0.847000    0.000000
      9          1           0       -2.051500   -0.846900    0.000000
 ---------------------------------------------------------------------
                    Distance matrix (angstroms):
                    1          2          3          4          5
     1  C    0.000000
     2  C    1.435300   0.000000
     3  C    2.234931   1.360685   0.000000
     4  O    2.238726   2.238758   1.364075   0.000000
     5  C    1.360713   2.235012   2.190200   1.364075   0.000000
     6  H    1.080486   2.260801   3.284163   3.280513   2.183559
     7  H    2.260763   1.080406   2.183473   3.280464   3.284172
     8  H    3.306286   2.245645   1.078847   2.075277   3.185885
     9  H    2.245683   3.306399   3.185968   2.075391   1.078889
                    6          7          8          9
     6  H    0.000000
     7  H    2.747700   0.000000
     8  H    4.339902   2.749769   0.000000
     9  H    2.749819   4.339937   4.102900   0.000000
 Stoichiometry    C4H4O
 Framework group  C1[X(C4H4O)]
 Deg. of freedom    21
 Full point group                 C1      NOp   1
 Largest Abelian subgroup         C1      NOp   1
 Largest concise Abelian subgroup C1      NOp   1
                         Standard orientation:                         
 ---------------------------------------------------------------------
 Center     Atomic      Atomic             Coordinates (Angstroms)
 Number     Number       Type             X           Y           Z
 ---------------------------------------------------------------------
      1          6           0        0.717282    0.959944   -0.000003
      2          6           0       -0.718018    0.959444   -0.000003
      3          6           0       -1.094962   -0.347987   -0.000003
      4          8           0        0.000421   -1.160905   -0.000003
      5          6           0        1.095238   -0.347224   -0.000003
      6          1           0        1.373183    1.818573    0.000097
      7          1           0       -1.374517    1.817516   -0.000003
      8          1           0       -2.051088   -0.847720   -0.000003
      9          1           0        2.051812   -0.846191   -0.000003
 ---------------------------------------------------------------------
 Rotational constants (GHZ):      9.4587841      9.2535599      4.6775233
 Leave Link  202 at Fri Jul 23 01:12:20 2021, MaxMem= 17179869184 cpu:         1.9
 (Enter /vol2/users/liuj201281/hxd_yi/bin/Gaussian/g09/l301.exe)
 Standard basis: 6-31G(d,p) (6D, 7F)
 Ernie: Thresh=  0.10000D-02 Tol=  0.10000D-05 Strict=F.
 There are    95 symmetry adapted cartesian basis functions of A   symmetry.
 There are    95 symmetry adapted basis functions of A   symmetry.
    95 basis functions,   168 primitive gaussians,    95 cartesian basis functions
    18 alpha electrons       18 beta electrons
       nuclear repulsion energy       160.7193837899 Hartrees.
 IExCor=  402 DFT=T Ex+Corr=B3LYP ExCW=0 ScaHFX=  0.200000
 ScaDFX=  0.800000  0.720000  1.000000  0.810000 ScalE2=  1.000000  1.000000
 IRadAn=      0 IRanWt=     -1 IRanGd=            0 ICorTp=0 IEmpDi=  4
 NAtoms=    9 NActive=    9 NUniq=    9 SFac= 1.00D+00 NAtFMM=   60 NAOKFM=F Big=F
 Integral buffers will be    131072 words long.
 Raffenetti 2 integral format.
 Two-electron integral symmetry is turned on.
 Leave Link  301 at Fri Jul 23 01:12:20 2021, MaxMem= 17179869184 cpu:         6.8
 (Enter /vol2/users/liuj201281/hxd_yi/bin/Gaussian/g09/l302.exe)
 NPDir=0 NMtPBC=     1 NCelOv=     1 NCel=       1 NClECP=     1 NCelD=      1
         NCelK=      1 NCelE2=     1 NClLst=     1 CellRange=     0.0.
 One-electron integrals computed using PRISM.
 NBasis=    95 RedAO= T EigKep=  1.15D-03  NBF=    95
 NBsUse=    95 1.00D-06 EigRej= -1.00D+00 NBFU=    95
 Precomputing XC quadrature grid using
 IXCGrd= 4 IRadAn=           0 IRanWt=          -1 IRanGd=           0 AccXCQ= 0.00D+00.
 Generated NRdTot=       0 NPtTot=           0 NUsed=           0 NTot=          32
 NSgBfM=    95    95    95    95    95 MxSgAt=     9 MxSgA2=     9.
 Leave Link  302 at Fri Jul 23 01:12:20 2021, MaxMem= 17179869184 cpu:        43.9
 (Enter /vol2/users/liuj201281/hxd_yi/bin/Gaussian/g09/l303.exe)
 DipDrv:  MaxL=1.
 Leave Link  303 at Fri Jul 23 01:12:20 2021, MaxMem= 17179869184 cpu:         4.7
 (Enter /vol2/users/liuj201281/hxd_yi/bin/Gaussian/g09/l401.exe)
 ExpMin= 1.61D-01 ExpMax= 5.48D+03 ExpMxC= 8.25D+02 IAcc=1 IRadAn=         1 AccDes= 0.00D+00
 Harris functional with IExCor=  402 and IRadAn=       1 diagonalized for initial guess.
 HarFok:  IExCor=  402 AccDes= 0.00D+00 IRadAn=         1 IDoV= 1 UseB2=F ITyADJ=14
 ICtDFT=  3500011 ScaDFX=  1.000000  1.000000  1.000000  1.000000
 FoFCou: FMM=F IPFlag=           0 FMFlag=      100000 FMFlg1=           0
         NFxFlg=           0 DoJE=T BraDBF=F KetDBF=T FulRan=T
         wScrn=  0.000000 ICntrl=     500 IOpCl=  0 I1Cent=   200000004 NGrid=           0
         NMat0=    1 NMatS0=      1 NMatT0=    0 NMatD0=    1 NMtDS0=    0 NMtDT0=    0
 Petite list used in FoFCou.
 Harris En= -230.037631879636    
 JPrj=0 DoOrth=F DoCkMO=F.
 Leave Link  401 at Fri Jul 23 01:12:21 2021, MaxMem= 17179869184 cpu:        45.2
 (Enter /vol2/users/liuj201281/hxd_yi/bin/Gaussian/g09/l502.exe)
 Closed shell SCF:
 Using DIIS extrapolation, IDIIS=  1040.
 Integral symmetry usage will be decided dynamically.
 Keep R1 ints in memory in canonical form, NReq=11372434.
 IVT=       58500 IEndB=       58500 NGot= 17179869184 MDV= 17169411605
 LenX= 17169411605 LenY= 17169402139
 Requested convergence on RMS density matrix=1.00D-08 within 128 cycles.
 Requested convergence on MAX density matrix=1.00D-06.
 Requested convergence on             energy=1.00D-06.
 No special actions if energy rises.
 FoFCou: FMM=F IPFlag=           0 FMFlag=           0 FMFlg1=           0
         NFxFlg=           0 DoJE=F BraDBF=F KetDBF=F FulRan=T
         wScrn=  0.000000 ICntrl=     600 IOpCl=  0 I1Cent=           0 NGrid=           0
         NMat0=    1 NMatS0=   4560 NMatT0=    0 NMatD0=    1 NMtDS0=    0 NMtDT0=    0
 Symmetry not used in FoFCou.
 Integral accuracy reduced to 1.0D-05 until final iterations.

 Cycle   1  Pass 0  IDiag  1:
 E= -229.916006845165    
 DIIS: error= 3.86D-02 at cycle   1 NSaved=   1.
 NSaved= 1 IEnMin= 1 EnMin= -229.916006845165     IErMin= 1 ErrMin= 3.86D-02
 ErrMax= 3.86D-02  0.00D+00 EMaxC= 1.00D-01 BMatC= 1.04D-01 BMatP= 1.04D-01
 IDIUse=3 WtCom= 6.14D-01 WtEn= 3.86D-01
 Coeff-Com:  0.100D+01
 Coeff-En:   0.100D+01
 Coeff:      0.100D+01
 Gap=     0.222 Goal=   None    Shift=    0.000
 GapD=    0.222 DampG=1.000 DampE=0.500 DampFc=0.5000 IDamp=-1.
 Damping current iteration by 5.00D-01
 RMSDP=7.45D-03 MaxDP=1.36D-01              OVMax= 2.04D-01

 Cycle   2  Pass 0  IDiag  1:
 E= -229.960846466962     Delta-E=       -0.044839621798 Rises=F Damp=T
 DIIS: error= 1.15D-02 at cycle   2 NSaved=   2.
 NSaved= 2 IEnMin= 2 EnMin= -229.960846466962     IErMin= 2 ErrMin= 1.15D-02
 ErrMax= 1.15D-02  0.00D+00 EMaxC= 1.00D-01 BMatC= 1.10D-02 BMatP= 1.04D-01
 IDIUse=3 WtCom= 8.85D-01 WtEn= 1.15D-01
 Coeff-Com:  0.993D-01 0.901D+00
 Coeff-En:   0.175D+00 0.825D+00
 Coeff:      0.108D+00 0.892D+00
 Gap=     0.235 Goal=   None    Shift=    0.000
 RMSDP=2.37D-03 MaxDP=3.80D-02 DE=-4.48D-02 OVMax= 1.70D-01

 Cycle   3  Pass 0  IDiag  1:
 E= -230.014615070631     Delta-E=       -0.053768603669 Rises=F Damp=F
 DIIS: error= 1.28D-02 at cycle   3 NSaved=   3.
 NSaved= 3 IEnMin= 3 EnMin= -230.014615070631     IErMin= 2 ErrMin= 1.15D-02
 ErrMax= 1.28D-02  0.00D+00 EMaxC= 1.00D-01 BMatC= 1.33D-02 BMatP= 1.10D-02
 IDIUse=2 WtCom= 0.00D+00 WtEn= 1.00D+00
 Coeff-En:   0.000D+00 0.000D+00 0.100D+01
 Coeff:      0.000D+00 0.000D+00 0.100D+01
 Gap=     0.230 Goal=   None    Shift=    0.000
 RMSDP=3.25D-03 MaxDP=6.85D-02 DE=-5.38D-02 OVMax= 1.43D-01

 Cycle   4  Pass 0  IDiag  1:
 E= -229.973411455220     Delta-E=        0.041203615412 Rises=F Damp=F
 DIIS: error= 2.91D-02 at cycle   4 NSaved=   4.
 NSaved= 4 IEnMin= 3 EnMin= -230.014615070631     IErMin= 2 ErrMin= 1.15D-02
 ErrMax= 2.91D-02  0.00D+00 EMaxC= 1.00D-01 BMatC= 5.71D-02 BMatP= 1.10D-02
 IDIUse=2 WtCom= 0.00D+00 WtEn= 1.00D+00
 Coeff-En:   0.000D+00 0.000D+00 0.759D+00 0.241D+00
 Coeff:      0.000D+00 0.000D+00 0.759D+00 0.241D+00
 Gap=     0.239 Goal=   None    Shift=    0.000
 RMSDP=1.64D-03 MaxDP=3.47D-02 DE= 4.12D-02 OVMax= 7.73D-02

 Cycle   5  Pass 0  IDiag  1:
 E= -230.023966405780     Delta-E=       -0.050554950560 Rises=F Damp=F
 DIIS: error= 6.97D-03 at cycle   5 NSaved=   5.
 NSaved= 5 IEnMin= 5 EnMin= -230.023966405780     IErMin= 5 ErrMin= 6.97D-03
 ErrMax= 6.97D-03  0.00D+00 EMaxC= 1.00D-01 BMatC= 3.52D-03 BMatP= 1.10D-02
 IDIUse=3 WtCom= 9.30D-01 WtEn= 6.97D-02
 Coeff-Com: -0.534D-02 0.209D-01 0.219D+00-0.124D+00 0.889D+00
 Coeff-En:   0.000D+00 0.000D+00 0.257D+00 0.000D+00 0.743D+00
 Coeff:     -0.496D-02 0.195D-01 0.222D+00-0.116D+00 0.879D+00
 Gap=     0.243 Goal=   None    Shift=    0.000
 RMSDP=5.81D-04 MaxDP=1.15D-02 DE=-5.06D-02 OVMax= 2.58D-02

 Cycle   6  Pass 0  IDiag  1:
 E= -230.027315503014     Delta-E=       -0.003349097235 Rises=F Damp=F
 DIIS: error= 3.60D-04 at cycle   6 NSaved=   6.
 NSaved= 6 IEnMin= 6 EnMin= -230.027315503014     IErMin= 6 ErrMin= 3.60D-04
 ErrMax= 3.60D-04  0.00D+00 EMaxC= 1.00D-01 BMatC= 9.12D-06 BMatP= 3.52D-03
 IDIUse=3 WtCom= 9.96D-01 WtEn= 3.60D-03
 Coeff-Com: -0.383D-02 0.942D-02 0.941D-01-0.704D-01 0.465D+00 0.506D+00
 Coeff-En:   0.000D+00 0.000D+00 0.000D+00 0.000D+00 0.000D+00 0.100D+01
 Coeff:     -0.381D-02 0.939D-02 0.938D-01-0.701D-01 0.463D+00 0.507D+00
 Gap=     0.244 Goal=   None    Shift=    0.000
 RMSDP=3.15D-05 MaxDP=6.20D-04 DE=-3.35D-03 OVMax= 1.44D-03

 Cycle   7  Pass 0  IDiag  1:
 E= -230.027324878449     Delta-E=       -0.000009375435 Rises=F Damp=F
 DIIS: error= 3.40D-05 at cycle   7 NSaved=   7.
 NSaved= 7 IEnMin= 7 EnMin= -230.027324878449     IErMin= 7 ErrMin= 3.40D-05
 ErrMax= 3.40D-05  0.00D+00 EMaxC= 1.00D-01 BMatC= 1.20D-07 BMatP= 9.12D-06
 IDIUse=1 WtCom= 1.00D+00 WtEn= 0.00D+00
 Coeff-Com: -0.116D-03-0.222D-03 0.110D-01-0.628D-02 0.503D-01 0.150D+00
 Coeff-Com:  0.795D+00
 Coeff:     -0.116D-03-0.222D-03 0.110D-01-0.628D-02 0.503D-01 0.150D+00
 Coeff:      0.795D+00
 Gap=     0.244 Goal=   None    Shift=    0.000
 RMSDP=3.02D-06 MaxDP=4.93D-05 DE=-9.38D-06 OVMax= 8.54D-05

 Initial convergence to 1.0D-05 achieved.  Increase integral accuracy.
 Cycle   8  Pass 1  IDiag  1:
 E= -230.027371847889     Delta-E=       -0.000046969440 Rises=F Damp=F
 DIIS: error= 2.01D-05 at cycle   1 NSaved=   1.
 NSaved= 1 IEnMin= 1 EnMin= -230.027371847889     IErMin= 1 ErrMin= 2.01D-05
 ErrMax= 2.01D-05  0.00D+00 EMaxC= 1.00D-01 BMatC= 1.45D-08 BMatP= 1.45D-08
 IDIUse=1 WtCom= 1.00D+00 WtEn= 0.00D+00
 Coeff-Com:  0.100D+01
 Coeff:      0.100D+01
 Gap=     0.244 Goal=   None    Shift=    0.000
 RMSDP=3.02D-06 MaxDP=4.93D-05 DE=-4.70D-05 OVMax= 5.86D-05

 Cycle   9  Pass 1  IDiag  1:
 E= -230.027371858825     Delta-E=       -0.000000010936 Rises=F Damp=F
 DIIS: error= 7.45D-06 at cycle   2 NSaved=   2.
 NSaved= 2 IEnMin= 2 EnMin= -230.027371858825     IErMin= 2 ErrMin= 7.45D-06
 ErrMax= 7.45D-06  0.00D+00 EMaxC= 1.00D-01 BMatC= 4.38D-09 BMatP= 1.45D-08
 IDIUse=1 WtCom= 1.00D+00 WtEn= 0.00D+00
 Coeff-Com:  0.272D+00 0.728D+00
 Coeff:      0.272D+00 0.728D+00
 Gap=     0.244 Goal=   None    Shift=    0.000
 RMSDP=1.38D-06 MaxDP=2.72D-05 DE=-1.09D-08 OVMax= 5.80D-05

 Cycle  10  Pass 1  IDiag  1:
 E= -230.027371856507     Delta-E=        0.000000002318 Rises=F Damp=F
 DIIS: error= 1.01D-05 at cycle   3 NSaved=   3.
 NSaved= 3 IEnMin= 2 EnMin= -230.027371858825     IErMin= 2 ErrMin= 7.45D-06
 ErrMax= 1.01D-05  0.00D+00 EMaxC= 1.00D-01 BMatC= 6.92D-09 BMatP= 4.38D-09
 IDIUse=1 WtCom= 1.00D+00 WtEn= 0.00D+00
 Coeff-Com: -0.151D-01 0.563D+00 0.452D+00
 Coeff:     -0.151D-01 0.563D+00 0.452D+00
 Gap=     0.244 Goal=   None    Shift=    0.000
 RMSDP=7.82D-07 MaxDP=1.62D-05 DE= 2.32D-09 OVMax= 3.53D-05

 Cycle  11  Pass 1  IDiag  1:
 E= -230.027371863048     Delta-E=       -0.000000006541 Rises=F Damp=F
 DIIS: error= 6.38D-07 at cycle   4 NSaved=   4.
 NSaved= 4 IEnMin= 4 EnMin= -230.027371863048     IErMin= 4 ErrMin= 6.38D-07
 ErrMax= 6.38D-07  0.00D+00 EMaxC= 1.00D-01 BMatC= 4.14D-11 BMatP= 4.38D-09
 IDIUse=1 WtCom= 1.00D+00 WtEn= 0.00D+00
 Coeff-Com: -0.117D-01 0.260D+00 0.217D+00 0.535D+00
 Coeff:     -0.117D-01 0.260D+00 0.217D+00 0.535D+00
 Gap=     0.244 Goal=   None    Shift=    0.000
 RMSDP=5.88D-08 MaxDP=1.12D-06 DE=-6.54D-09 OVMax= 1.72D-06

 Cycle  12  Pass 1  IDiag  1:
 E= -230.027371863081     Delta-E=       -0.000000000033 Rises=F Damp=F
 DIIS: error= 1.78D-07 at cycle   5 NSaved=   5.
 NSaved= 5 IEnMin= 5 EnMin= -230.027371863081     IErMin= 5 ErrMin= 1.78D-07
 ErrMax= 1.78D-07  0.00D+00 EMaxC= 1.00D-01 BMatC= 3.09D-12 BMatP= 4.14D-11
 IDIUse=1 WtCom= 1.00D+00 WtEn= 0.00D+00
 Coeff-Com: -0.305D-02 0.506D-01 0.457D-01 0.239D+00 0.667D+00
 Coeff:     -0.305D-02 0.506D-01 0.457D-01 0.239D+00 0.667D+00
 Gap=     0.244 Goal=   None    Shift=    0.000
 RMSDP=1.88D-08 MaxDP=3.82D-07 DE=-3.27D-11 OVMax= 9.77D-07

 Cycle  13  Pass 1  IDiag  1:
 E= -230.027371863084     Delta-E=       -0.000000000003 Rises=F Damp=F
 DIIS: error= 7.42D-08 at cycle   6 NSaved=   6.
 NSaved= 6 IEnMin= 6 EnMin= -230.027371863084     IErMin= 6 ErrMin= 7.42D-08
 ErrMax= 7.42D-08  0.00D+00 EMaxC= 1.00D-01 BMatC= 5.48D-13 BMatP= 3.09D-12
 IDIUse=1 WtCom= 1.00D+00 WtEn= 0.00D+00
 Coeff-Com: -0.495D-03 0.937D-03 0.247D-02 0.774D-01 0.383D+00 0.537D+00
 Coeff:     -0.495D-03 0.937D-03 0.247D-02 0.774D-01 0.383D+00 0.537D+00
 Gap=     0.244 Goal=   None    Shift=    0.000
 RMSDP=6.65D-09 MaxDP=9.32D-08 DE=-3.07D-12 OVMax= 1.54D-07

 SCF Done:  E(RB3LYP) =  -230.027371863     A.U. after   13 cycles
            NFock= 13  Conv=0.66D-08     -V/T= 2.0094
 KE= 2.278963864633D+02 PE=-8.570781702402D+02 EE= 2.384350281238D+02
 Leave Link  502 at Fri Jul 23 01:12:22 2021, MaxMem= 17179869184 cpu:       137.4
 (Enter /vol2/users/liuj201281/hxd_yi/bin/Gaussian/g09/l601.exe)
 Copying SCF densities to generalized density rwf, IOpCl= 0 IROHF=0.

 **********************************************************************

            Population analysis using the SCF density.

 **********************************************************************

 Orbital symmetries:
       Occupied  (A) (A) (A) (A) (A) (A) (A) (A) (A) (A) (A) (A)
                 (A) (A) (A) (A) (A) (A)
       Virtual   (A) (A) (A) (A) (A) (A) (A) (A) (A) (A) (A) (A)
                 (A) (A) (A) (A) (A) (A) (A) (A) (A) (A) (A) (A)
                 (A) (A) (A) (A) (A) (A) (A) (A) (A) (A) (A) (A)
                 (A) (A) (A) (A) (A) (A) (A) (A) (A) (A) (A) (A)
                 (A) (A) (A) (A) (A) (A) (A) (A) (A) (A) (A) (A)
                 (A) (A) (A) (A) (A) (A) (A) (A) (A) (A) (A) (A)
                 (A) (A) (A) (A) (A)
 The electronic state is 1-A.
 Alpha  occ. eigenvalues --  -19.21167 -10.23191 -10.23190 -10.18462 -10.18420
 Alpha  occ. eigenvalues --   -1.10344  -0.79278  -0.73937  -0.59287  -0.56509
 Alpha  occ. eigenvalues --   -0.53587  -0.44198  -0.44110  -0.40653  -0.39296
 Alpha  occ. eigenvalues --   -0.36655  -0.27388  -0.22497
 Alpha virt. eigenvalues --    0.01855   0.07705   0.11785   0.14104   0.15543
 Alpha virt. eigenvalues --    0.16678   0.19551   0.20484   0.31207   0.37687
 Alpha virt. eigenvalues --    0.43212   0.51290   0.53335   0.58070   0.58156
 Alpha virt. eigenvalues --    0.58472   0.59072   0.61467   0.62568   0.67414
 Alpha virt. eigenvalues --    0.67867   0.78634   0.81372   0.82877   0.88875
 Alpha virt. eigenvalues --    0.90319   0.97873   0.98441   1.01305   1.03158
 Alpha virt. eigenvalues --    1.12898   1.13199   1.27226   1.35521   1.36686
 Alpha virt. eigenvalues --    1.38032   1.44480   1.51678   1.52112   1.55920
 Alpha virt. eigenvalues --    1.66545   1.81548   1.86616   1.88337   1.95468
 Alpha virt. eigenvalues --    1.98907   2.00241   2.08081   2.08384   2.17432
 Alpha virt. eigenvalues --    2.18126   2.29855   2.35906   2.38613   2.41352
 Alpha virt. eigenvalues --    2.43996   2.44091   2.49689   2.56729   2.58295
 Alpha virt. eigenvalues --    2.62496   2.67398   2.75609   2.77031   2.82787
 Alpha virt. eigenvalues --    2.96966   3.07465   3.18632   3.21251   3.34129
 Alpha virt. eigenvalues --    3.57887   3.80928   3.96089   4.22905   4.22925
 Alpha virt. eigenvalues --    4.50175   4.76989
          Condensed to atoms (all electrons):
               1          2          3          4          5          6
     1  C    4.856522   0.502228  -0.057923  -0.059455   0.593067   0.372852
     2  C    0.502228   4.856476   0.593061  -0.059449  -0.057925  -0.035285
     3  C   -0.057923   0.593061   4.771056   0.321398  -0.115395   0.005894
     4  O   -0.059455  -0.059449   0.321398   7.951494   0.321380   0.003482
     5  C    0.593067  -0.057925  -0.115395   0.321380   4.771080  -0.039394
     6  H    0.372852  -0.035285   0.005894   0.003482  -0.039394   0.600509
     7  H   -0.035288   0.372869  -0.039401   0.003482   0.005894  -0.002145
     8  H    0.003723  -0.044450   0.386889  -0.038205   0.005730  -0.000125
     9  H   -0.044444   0.003722   0.005729  -0.038196   0.386882  -0.000568
               7          8          9
     1  C   -0.035288   0.003723  -0.044444
     2  C    0.372869  -0.044450   0.003722
     3  C   -0.039401   0.386889   0.005729
     4  O    0.003482  -0.038205  -0.038196
     5  C    0.005894   0.005730   0.386882
     6  H   -0.002145  -0.000125  -0.000568
     7  H    0.600499  -0.000568  -0.000125
     8  H   -0.000568   0.576427  -0.000178
     9  H   -0.000125  -0.000178   0.576410
 Mulliken charges:
               1
     1  C   -0.131283
     2  C   -0.131247
     3  C    0.128691
     4  O   -0.405932
     5  C    0.128681
     6  H    0.094780
     7  H    0.094783
     8  H    0.110757
     9  H    0.110769
 Sum of Mulliken charges =   0.00000
 Mulliken charges with hydrogens summed into heavy atoms:
               1
     1  C   -0.036502
     2  C   -0.036463
     3  C    0.239448
     4  O   -0.405932
     5  C    0.239450
 Electronic spatial extent (au):  <R**2>=            290.1319
 Charge=              0.0000 electrons
 Dipole moment (field-independent basis, Debye):
    X=             -0.0003    Y=              0.6290    Z=              0.0001  Tot=              0.6290
 Quadrupole moment (field-independent basis, Debye-Ang):
   XX=            -23.7205   YY=            -27.6754   ZZ=            -30.9945
   XY=              0.0012   XZ=              0.0001   YZ=              0.0002
 Traceless Quadrupole moment (field-independent basis, Debye-Ang):
   XX=              3.7430   YY=             -0.2119   ZZ=             -3.5310
   XY=              0.0012   XZ=              0.0001   YZ=              0.0002
 Octapole moment (field-independent basis, Debye-Ang**2):
  XXX=              0.0049  YYY=              1.3578  ZZZ=              0.0001  XYY=             -0.0039
  XXY=             -4.1155  XXZ=              0.0002  XZZ=              0.0008  YZZ=             -2.9983
  YYZ=              0.0003  XYZ=              0.0003
 Hexadecapole moment (field-independent basis, Debye-Ang**3):
 XXXX=           -161.4947 YYYY=           -161.8932 ZZZZ=            -30.2587 XXXY=             -0.0072
 XXXZ=              0.0000 YYYX=              0.0077 YYYZ=              0.0002 ZZZX=             -0.0003
 ZZZY=             -0.0003 XXYY=            -47.6755 XXZZ=            -39.0133 YYZZ=            -34.6580
 XXYZ=              0.0002 YYXZ=              0.0004 ZZXY=             -0.0013
 N-N= 1.607193837899D+02 E-N=-8.570781776209D+02  KE= 2.278963864633D+02
 No NMR shielding tensors so no spin-rotation constants.
 Leave Link  601 at Fri Jul 23 01:12:22 2021, MaxMem= 17179869184 cpu:        35.1
 (Enter /vol2/users/liuj201281/hxd_yi/bin/Gaussian/g09/l701.exe)
 Compute integral first derivatives.
 ... and contract with generalized density number  0.
 Leave Link  701 at Fri Jul 23 01:12:23 2021, MaxMem= 17179869184 cpu:        69.9
 (Enter /vol2/users/liuj201281/hxd_yi/bin/Gaussian/g09/l702.exe)
 L702 exits ... SP integral derivatives will be done elsewhere.
 Leave Link  702 at Fri Jul 23 01:12:23 2021, MaxMem= 17179869184 cpu:         2.8
 (Enter /vol2/users/liuj201281/hxd_yi/bin/Gaussian/g09/l703.exe)
 Compute integral first derivatives, UseDBF=F ICtDFT=           0.
 Integral derivatives from FoFJK, PRISM(SPDF).
 Calling FoFJK, ICntrl=      2127 FMM=F ISym2X=0 I1Cent= 0 IOpClX= 0 NMat=1 NMatS=1 NMatT=0.
 FoFJK:  IHMeth= 1 ICntrl=    2127 DoSepK=F KAlg= 0 I1Cent=   0 FoldK=F
 IRaf=         0 NMat=   1 IRICut=       1 DoRegI=T DoRafI=F ISym2E= 0.
 FoFCou: FMM=F IPFlag=           0 FMFlag=      100000 FMFlg1=         800
         NFxFlg=           0 DoJE=F BraDBF=F KetDBF=F FulRan=T
         wScrn=  0.000000 ICntrl=    2127 IOpCl=  0 I1Cent=           0 NGrid=           0
         NMat0=    1 NMatS0=      1 NMatT0=    0 NMatD0=    1 NMtDS0=    0 NMtDT0=    0
 Symmetry not used in FoFCou.
 Leave Link  703 at Fri Jul 23 01:12:24 2021, MaxMem= 17179869184 cpu:        63.7
 (Enter /vol2/users/liuj201281/hxd_yi/bin/Gaussian/g09/l716.exe)
 Dipole        =-9.96604505D-05 2.47462551D-01 2.67938026D-05
 ***** Axes restored to original set *****
 -------------------------------------------------------------------
 Center     Atomic                   Forces (Hartrees/Bohr)
 Number     Number              X              Y              Z
 -------------------------------------------------------------------
      1        6          -0.000157490   -0.000027816   -0.000005281
      2        6           0.000103178   -0.000070026   -0.000000246
      3        6          -0.000030064    0.000183977    0.000000622
      4        8          -0.000005719   -0.000230083    0.000001736
      5        6           0.000026493    0.000215871   -0.000000505
      6        1           0.000076548   -0.000063046    0.000004250
      7        1          -0.000045797   -0.000018020   -0.000000316
      8        1          -0.000124449    0.000001361    0.000000216
      9        1           0.000157300    0.000007781   -0.000000475
 -------------------------------------------------------------------
 Cartesian Forces:  Max     0.000230083 RMS     0.000092045
 Leave Link  716 at Fri Jul 23 01:12:24 2021, MaxMem= 17179869184 cpu:         4.1
 (Enter /vol2/users/liuj201281/hxd_yi/bin/Gaussian/g09/l103.exe)

 GradGradGradGradGradGradGradGradGradGradGradGradGradGradGradGradGradGrad
 Berny optimization.
 FormGI is forming the generalized inverse of G from B-inverse, IUseBI=4.
 Internal  Forces:  Max     0.000146920 RMS     0.000061237
 Search for a local minimum.
 Step number   1 out of a maximum of   48
 All quantities printed in internal units (Hartrees-Bohrs-Radians)
 RMS Force = .61237D-04 SwitMx=.10000D-02 MixMth= 2
 Mixed Optimization -- En-DIIS/RFO-DIIS
 Second derivative matrix not updated -- first step.
 ITU=  0
     Eigenvalues ---    0.01948   0.02130   0.02198   0.02371   0.02503
     Eigenvalues ---    0.02523   0.16000   0.16000   0.16000   0.16000
     Eigenvalues ---    0.22000   0.22906   0.35936   0.35945   0.36129
     Eigenvalues ---    0.36134   0.38378   0.45305   0.49212   0.52330
     Eigenvalues ---    0.52745
 RFO step:  Lambda=-5.22076439D-07 EMin= 1.94751178D-02
 Linear search not attempted -- first point.
 Iteration  1 RMS(Cart)=  0.00029087 RMS(Int)=  0.00000004
 Iteration  2 RMS(Cart)=  0.00000004 RMS(Int)=  0.00000001
 ITry= 1 IFail=0 DXMaxC= 1.13D-03 DCOld= 1.00D+10 DXMaxT= 3.00D-01 DXLimC= 3.00D+00 Rises=F
 Variable       Old X    -DE/DX   Delta X   Delta X   Delta X     New X
                                 (Linear)    (Quad)   (Total)
    R1        2.71232  -0.00002   0.00000  -0.00005  -0.00005   2.71227
    R2        2.57137  -0.00012   0.00000  -0.00024  -0.00024   2.57114
    R3        2.04182  -0.00010   0.00000  -0.00027  -0.00027   2.04155
    R4        2.57132  -0.00010   0.00000  -0.00018  -0.00018   2.57114
    R5        2.04167  -0.00004   0.00000  -0.00012  -0.00012   2.04155
    R6        2.57773   0.00000   0.00000   0.00001   0.00001   2.57774
    R7        2.03872  -0.00011   0.00000  -0.00031  -0.00031   2.03842
    R8        2.57773   0.00001   0.00000   0.00001   0.00001   2.57774
    R9        2.03880  -0.00014   0.00000  -0.00040  -0.00040   2.03841
    A1        1.85191  -0.00004   0.00000  -0.00019  -0.00019   1.85172
    A2        2.22348  -0.00001   0.00000  -0.00005  -0.00005   2.22343
    A3        2.20779   0.00004   0.00000   0.00024   0.00024   2.20803
    A4        1.85184  -0.00002   0.00000  -0.00011  -0.00011   1.85173
    A5        2.22353  -0.00002   0.00000  -0.00011  -0.00011   2.22343
    A6        2.20781   0.00004   0.00000   0.00022   0.00022   2.20802
    A7        1.92855   0.00009   0.00000   0.00041   0.00041   1.92895
    A8        2.33311   0.00001   0.00000   0.00016   0.00016   2.33326
    A9        2.02153  -0.00010   0.00000  -0.00056  -0.00056   2.02097
   A10        1.86400  -0.00015   0.00000  -0.00060  -0.00060   1.86341
   A11        1.92847   0.00011   0.00000   0.00049   0.00049   1.92896
   A12        2.33305   0.00001   0.00000   0.00018   0.00018   2.33323
   A13        2.02166  -0.00012   0.00000  -0.00066  -0.00066   2.02099
    D1        0.00000   0.00000   0.00000  -0.00003  -0.00003  -0.00003
    D2        3.14159   0.00000   0.00000   0.00000   0.00000  -3.14159
    D3       -3.14148   0.00000   0.00000  -0.00010  -0.00010  -3.14158
    D4        0.00012   0.00000   0.00000  -0.00007  -0.00007   0.00005
    D5        0.00000   0.00000   0.00000   0.00003   0.00003   0.00003
    D6        3.14159   0.00000   0.00000  -0.00002  -0.00002   3.14157
    D7        3.14148   0.00000   0.00000   0.00010   0.00010   3.14158
    D8       -0.00012   0.00000   0.00000   0.00006   0.00006  -0.00006
    D9        0.00000   0.00000   0.00000   0.00001   0.00001   0.00001
   D10        3.14159   0.00000   0.00000   0.00002   0.00002  -3.14157
   D11        3.14159   0.00000   0.00000  -0.00002  -0.00002   3.14158
   D12        0.00000   0.00000   0.00000  -0.00001  -0.00001  -0.00001
   D13        0.00000   0.00000   0.00000   0.00000   0.00000   0.00000
   D14        3.14159   0.00000   0.00000   0.00000   0.00000   3.14159
   D15        0.00000   0.00000   0.00000  -0.00002  -0.00002  -0.00002
   D16        3.14159   0.00000   0.00000   0.00002   0.00002  -3.14158
         Item               Value     Threshold  Converged?
 Maximum Force            0.000147     0.000450     YES
 RMS     Force            0.000061     0.000300     YES
 Maximum Displacement     0.001125     0.001800     YES
 RMS     Displacement     0.000291     0.001200     YES
 Predicted change in Energy=-2.610380D-07
 Optimization completed.
    -- Stationary point found.
                           ----------------------------
                           !   Optimized Parameters   !
                           ! (Angstroms and Degrees)  !
 --------------------------                            --------------------------
 ! Name  Definition              Value          Derivative Info.                !
 --------------------------------------------------------------------------------
 ! R1    R(1,2)                  1.4353         -DE/DX =    0.0                 !
 ! R2    R(1,5)                  1.3607         -DE/DX =   -0.0001              !
 ! R3    R(1,6)                  1.0805         -DE/DX =   -0.0001              !
 ! R4    R(2,3)                  1.3607         -DE/DX =   -0.0001              !
 ! R5    R(2,7)                  1.0804         -DE/DX =    0.0                 !
 ! R6    R(3,4)                  1.3641         -DE/DX =    0.0                 !
 ! R7    R(3,8)                  1.0788         -DE/DX =   -0.0001              !
 ! R8    R(4,5)                  1.3641         -DE/DX =    0.0                 !
 ! R9    R(5,9)                  1.0789         -DE/DX =   -0.0001              !
 ! A1    A(2,1,5)              106.1068         -DE/DX =    0.0                 !
 ! A2    A(2,1,6)              127.3959         -DE/DX =    0.0                 !
 ! A3    A(5,1,6)              126.4973         -DE/DX =    0.0                 !
 ! A4    A(1,2,3)              106.1027         -DE/DX =    0.0                 !
 ! A5    A(1,2,7)              127.3992         -DE/DX =    0.0                 !
 ! A6    A(3,2,7)              126.4981         -DE/DX =    0.0                 !
 ! A7    A(2,3,4)              110.4975         -DE/DX =    0.0001              !
 ! A8    A(2,3,8)              133.6772         -DE/DX =    0.0                 !
 ! A9    A(4,3,8)              115.8253         -DE/DX =   -0.0001              !
 ! A10   A(3,4,5)              106.7995         -DE/DX =   -0.0001              !
 ! A11   A(1,5,4)              110.4935         -DE/DX =    0.0001              !
 ! A12   A(1,5,9)              133.6741         -DE/DX =    0.0                 !
 ! A13   A(4,5,9)              115.8324         -DE/DX =   -0.0001              !
 ! D1    D(5,1,2,3)              0.0            -DE/DX =    0.0                 !
 ! D2    D(5,1,2,7)           -180.0            -DE/DX =    0.0                 !
 ! D3    D(6,1,2,3)           -179.9933         -DE/DX =    0.0                 !
 ! D4    D(6,1,2,7)              0.0067         -DE/DX =    0.0                 !
 ! D5    D(2,1,5,4)              0.0            -DE/DX =    0.0                 !
 ! D6    D(2,1,5,9)            180.0            -DE/DX =    0.0                 !
 ! D7    D(6,1,5,4)            179.9934         -DE/DX =    0.0                 !
 ! D8    D(6,1,5,9)             -0.0066         -DE/DX =    0.0                 !
 ! D9    D(1,2,3,4)              0.0            -DE/DX =    0.0                 !
 ! D10   D(1,2,3,8)           -180.0            -DE/DX =    0.0                 !
 ! D11   D(7,2,3,4)            180.0            -DE/DX =    0.0                 !
 ! D12   D(7,2,3,8)              0.0            -DE/DX =    0.0                 !
 ! D13   D(2,3,4,5)              0.0            -DE/DX =    0.0                 !
 ! D14   D(8,3,4,5)            180.0            -DE/DX =    0.0                 !
 ! D15   D(3,4,5,1)              0.0            -DE/DX =    0.0                 !
 ! D16   D(3,4,5,9)           -180.0            -DE/DX =    0.0                 !
 --------------------------------------------------------------------------------
 Lowest energy point so far.  Saving SCF results.
 GradGradGradGradGradGradGradGradGradGradGradGradGradGradGradGradGradGrad

 Largest change from initial coordinates is atom    6       0.000 Angstoms.
 Leave Link  103 at Fri Jul 23 01:12:24 2021, MaxMem= 17179869184 cpu:        25.7
 (Enter /vol2/users/liuj201281/hxd_yi/bin/Gaussian/g09/l202.exe)
                          Input orientation:                          
 ---------------------------------------------------------------------
 Center     Atomic      Atomic             Coordinates (Angstroms)
 Number     Number       Type             X           Y           Z
 ---------------------------------------------------------------------
      1          6           0       -0.717600    0.959700    0.000000
      2          6           0        0.717700    0.959700    0.000000
      3          6           0        1.095100   -0.347600    0.000000
      4          8           0        0.000000   -1.160900    0.000000
      5          6           0       -1.095100   -0.347600    0.000000
      6          1           0       -1.373800    1.818100   -0.000100
      7          1           0        1.373900    1.818000    0.000000
      8          1           0        2.051400   -0.847000    0.000000
      9          1           0       -2.051500   -0.846900    0.000000
 ---------------------------------------------------------------------
                    Distance matrix (angstroms):
                    1          2          3          4          5
     1  C    0.000000
     2  C    1.435300   0.000000
     3  C    2.234931   1.360685   0.000000
     4  O    2.238726   2.238758   1.364075   0.000000
     5  C    1.360713   2.235012   2.190200   1.364075   0.000000
     6  H    1.080486   2.260801   3.284163   3.280513   2.183559
     7  H    2.260763   1.080406   2.183473   3.280464   3.284172
     8  H    3.306286   2.245645   1.078847   2.075277   3.185885
     9  H    2.245683   3.306399   3.185968   2.075391   1.078889
                    6          7          8          9
     6  H    0.000000
     7  H    2.747700   0.000000
     8  H    4.339902   2.749769   0.000000
     9  H    2.749819   4.339937   4.102900   0.000000
 Stoichiometry    C4H4O
 Framework group  C1[X(C4H4O)]
 Deg. of freedom    21
 Full point group                 C1      NOp   1
 RotChk:  IX=0 Diff= 6.17D-15
 Largest Abelian subgroup         C1      NOp   1
 Largest concise Abelian subgroup C1      NOp   1
                         Standard orientation:                         
 ---------------------------------------------------------------------
 Center     Atomic      Atomic             Coordinates (Angstroms)
 Number     Number       Type             X           Y           Z
 ---------------------------------------------------------------------
      1          6           0        0.717282    0.959944   -0.000003
      2          6           0       -0.718018    0.959444   -0.000003
      3          6           0       -1.094962   -0.347987   -0.000003
      4          8           0        0.000421   -1.160905   -0.000003
      5          6           0        1.095238   -0.347224   -0.000003
      6          1           0        1.373183    1.818573    0.000097
      7          1           0       -1.374517    1.817516   -0.000003
      8          1           0       -2.051088   -0.847720   -0.000003
      9          1           0        2.051812   -0.846191   -0.000003
 ---------------------------------------------------------------------
 Rotational constants (GHZ):      9.4587841      9.2535599      4.6775233
 Leave Link  202 at Fri Jul 23 01:12:24 2021, MaxMem= 17179869184 cpu:         1.5
 (Enter /vol2/users/liuj201281/hxd_yi/bin/Gaussian/g09/l9999.exe)
 1\1\GINC-FN19\FOpt\RB3LYP\6-31G(d,p)\C4H4O1\LIUJ201281\23-Jul-2021\0\\
 #P OPT Freq B3LYP/6-31G**\\Frag_39\\0,1\C,-0.7176,0.9597,0.\C,0.7177,0
 .9597,0.\C,1.0951,-0.3476,0.\O,0.,-1.1609,0.\C,-1.0951,-0.3476,0.\H,-1
 .3738,1.8181,-0.0001\H,1.3739,1.818,0.\H,2.0514,-0.847,0.\H,-2.0515,-0
 .8469,0.\\Version=ES64L-G09RevD.01\State=1-A\HF=-230.0273719\RMSD=6.64
 9e-09\RMSF=9.204e-05\Dipole=0.0000134,0.2474626,-0.0000268\Quadrupole=
 2.7828171,-0.1575721,-2.6252449,0.0001456,0.0000868,-0.0001166\PG=C01 
 [X(C4H4O1)]\\@


 REFRAIN FROM ILLUSIONS, INSIST ON WORK AND NOT WORDS,
 PATIENTLY SEEK DIVINE AND SCIENTIFIC TRUTH.
 LAST WORDS OF MARIA MENDELEEVA TO HER SON DMITRI, C. 1850
 Leave Link 9999 at Fri Jul 23 01:12:24 2021, MaxMem= 17179869184 cpu:         5.0
 Job cpu time:       0 days  0 hours  8 minutes 53.1 seconds.
 File lengths (MBytes):  RWF=      6 Int=      0 D2E=      0 Chk=      2 Scr=      1
 Normal termination of Gaussian 09 at Fri Jul 23 01:12:24 2021.
 (Enter /vol2/users/liuj201281/hxd_yi/bin/Gaussian/g09/l1.exe)
 Link1:  Proceeding to internal job step number  2.
 ----------------------------------------------------------------------
 #P Geom=AllCheck Guess=TCheck SCRF=Check GenChk RB3LYP/6-31G(d,p) Freq
 ----------------------------------------------------------------------
 1/10=4,29=7,30=1,38=1,40=1/1,3;
 2/12=2,40=1/2;
 3/5=1,6=6,7=101,11=2,14=-4,16=1,25=1,30=1,70=2,71=2,74=-5,116=1,140=1/1,2,3;
 4/5=101/1;
 5/5=2,98=1/2;
 8/6=4,10=90,11=11/1;
 11/6=1,8=1,9=11,15=111,16=1/1,2,10;
 10/6=1/2;
 6/7=2,8=2,9=2,10=2,18=1,28=1/1;
 7/8=1,10=1,25=1/1,2,3,16;
 1/10=4,30=1/3;
 99//99;
 Leave Link    1 at Fri Jul 23 01:12:24 2021, MaxMem= 17179869184 cpu:         4.8
 (Enter /vol2/users/liuj201281/hxd_yi/bin/Gaussian/g09/l101.exe)
 Structure from the checkpoint file:  "/vol2/users/liuj201281/HOFBenchmark/IsodesmicSplit/Sample60/Ring26/Running/Gau-268978.chk"
 -------
 Frag_39
 -------
 Charge =  0 Multiplicity = 1
 Redundant internal coordinates found in file.
 C,0,-0.7176,0.9597,0.
 C,0,0.7177,0.9597,0.
 C,0,1.0951,-0.3476,0.
 O,0,0.,-1.1609,0.
 C,0,-1.0951,-0.3476,0.
 H,0,-1.3738,1.8181,-0.0001
 H,0,1.3739,1.818,0.
 H,0,2.0514,-0.847,0.
 H,0,-2.0515,-0.8469,0.
 Recover connectivity data from disk.
 NAtoms=      9 NQM=        9 NQMF=       0 NMMI=      0 NMMIF=      0
                NMic=       0 NMicF=      0.
                    Isotopes and Nuclear Properties:
 (Nuclear quadrupole moments (NQMom) in fm**2, nuclear magnetic moments (NMagM)
  in nuclear magnetons)

  Atom         1           2           3           4           5           6           7           8           9
 IAtWgt=          12          12          12          16          12           1           1           1           1
 AtmWgt=  12.0000000  12.0000000  12.0000000  15.9949146  12.0000000   1.0078250   1.0078250   1.0078250   1.0078250
 NucSpn=           0           0           0           0           0           1           1           1           1
 AtZEff=  -3.6000000  -3.6000000  -3.6000000  -5.6000000  -3.6000000  -1.0000000  -1.0000000  -1.0000000  -1.0000000
 NQMom=    0.0000000   0.0000000   0.0000000   0.0000000   0.0000000   0.0000000   0.0000000   0.0000000   0.0000000
 NMagM=    0.0000000   0.0000000   0.0000000   0.0000000   0.0000000   2.7928460   2.7928460   2.7928460   2.7928460
 AtZNuc=   6.0000000   6.0000000   6.0000000   8.0000000   6.0000000   1.0000000   1.0000000   1.0000000   1.0000000
 Leave Link  101 at Fri Jul 23 01:12:25 2021, MaxMem= 17179869184 cpu:        53.7
 (Enter /vol2/users/liuj201281/hxd_yi/bin/Gaussian/g09/l103.exe)

 GradGradGradGradGradGradGradGradGradGradGradGradGradGradGradGradGradGrad
 Berny optimization.
 Initialization pass.
                           ----------------------------
                           !    Initial Parameters    !
                           ! (Angstroms and Degrees)  !
 --------------------------                            --------------------------
 ! Name  Definition              Value          Derivative Info.                !
 --------------------------------------------------------------------------------
 ! R1    R(1,2)                  1.4353         calculate D2E/DX2 analytically  !
 ! R2    R(1,5)                  1.3607         calculate D2E/DX2 analytically  !
 ! R3    R(1,6)                  1.0805         calculate D2E/DX2 analytically  !
 ! R4    R(2,3)                  1.3607         calculate D2E/DX2 analytically  !
 ! R5    R(2,7)                  1.0804         calculate D2E/DX2 analytically  !
 ! R6    R(3,4)                  1.3641         calculate D2E/DX2 analytically  !
 ! R7    R(3,8)                  1.0788         calculate D2E/DX2 analytically  !
 ! R8    R(4,5)                  1.3641         calculate D2E/DX2 analytically  !
 ! R9    R(5,9)                  1.0789         calculate D2E/DX2 analytically  !
 ! A1    A(2,1,5)              106.1068         calculate D2E/DX2 analytically  !
 ! A2    A(2,1,6)              127.3959         calculate D2E/DX2 analytically  !
 ! A3    A(5,1,6)              126.4973         calculate D2E/DX2 analytically  !
 ! A4    A(1,2,3)              106.1027         calculate D2E/DX2 analytically  !
 ! A5    A(1,2,7)              127.3992         calculate D2E/DX2 analytically  !
 ! A6    A(3,2,7)              126.4981         calculate D2E/DX2 analytically  !
 ! A7    A(2,3,4)              110.4975         calculate D2E/DX2 analytically  !
 ! A8    A(2,3,8)              133.6772         calculate D2E/DX2 analytically  !
 ! A9    A(4,3,8)              115.8253         calculate D2E/DX2 analytically  !
 ! A10   A(3,4,5)              106.7995         calculate D2E/DX2 analytically  !
 ! A11   A(1,5,4)              110.4935         calculate D2E/DX2 analytically  !
 ! A12   A(1,5,9)              133.6741         calculate D2E/DX2 analytically  !
 ! A13   A(4,5,9)              115.8324         calculate D2E/DX2 analytically  !
 ! D1    D(5,1,2,3)              0.0            calculate D2E/DX2 analytically  !
 ! D2    D(5,1,2,7)            180.0            calculate D2E/DX2 analytically  !
 ! D3    D(6,1,2,3)           -179.9933         calculate D2E/DX2 analytically  !
 ! D4    D(6,1,2,7)              0.0067         calculate D2E/DX2 analytically  !
 ! D5    D(2,1,5,4)              0.0            calculate D2E/DX2 analytically  !
 ! D6    D(2,1,5,9)            180.0            calculate D2E/DX2 analytically  !
 ! D7    D(6,1,5,4)            179.9934         calculate D2E/DX2 analytically  !
 ! D8    D(6,1,5,9)             -0.0066         calculate D2E/DX2 analytically  !
 ! D9    D(1,2,3,4)              0.0            calculate D2E/DX2 analytically  !
 ! D10   D(1,2,3,8)            180.0            calculate D2E/DX2 analytically  !
 ! D11   D(7,2,3,4)            180.0            calculate D2E/DX2 analytically  !
 ! D12   D(7,2,3,8)              0.0            calculate D2E/DX2 analytically  !
 ! D13   D(2,3,4,5)              0.0            calculate D2E/DX2 analytically  !
 ! D14   D(8,3,4,5)            180.0            calculate D2E/DX2 analytically  !
 ! D15   D(3,4,5,1)              0.0            calculate D2E/DX2 analytically  !
 ! D16   D(3,4,5,9)            180.0            calculate D2E/DX2 analytically  !
 --------------------------------------------------------------------------------
 Trust Radius=3.00D-01 FncErr=1.00D-07 GrdErr=1.00D-07
 Number of steps in this run=      2 maximum allowed number of steps=      2.
 GradGradGradGradGradGradGradGradGradGradGradGradGradGradGradGradGradGrad

 Leave Link  103 at Fri Jul 23 01:12:25 2021, MaxMem= 17179869184 cpu:         1.5
 (Enter /vol2/users/liuj201281/hxd_yi/bin/Gaussian/g09/l202.exe)
                          Input orientation:                          
 ---------------------------------------------------------------------
 Center     Atomic      Atomic             Coordinates (Angstroms)
 Number     Number       Type             X           Y           Z
 ---------------------------------------------------------------------
      1          6           0       -0.717600    0.959700    0.000000
      2          6           0        0.717700    0.959700    0.000000
      3          6           0        1.095100   -0.347600    0.000000
      4          8           0        0.000000   -1.160900    0.000000
      5          6           0       -1.095100   -0.347600    0.000000
      6          1           0       -1.373800    1.818100   -0.000100
      7          1           0        1.373900    1.818000    0.000000
      8          1           0        2.051400   -0.847000    0.000000
      9          1           0       -2.051500   -0.846900    0.000000
 ---------------------------------------------------------------------
                    Distance matrix (angstroms):
                    1          2          3          4          5
     1  C    0.000000
     2  C    1.435300   0.000000
     3  C    2.234931   1.360685   0.000000
     4  O    2.238726   2.238758   1.364075   0.000000
     5  C    1.360713   2.235012   2.190200   1.364075   0.000000
     6  H    1.080486   2.260801   3.284163   3.280513   2.183559
     7  H    2.260763   1.080406   2.183473   3.280464   3.284172
     8  H    3.306286   2.245645   1.078847   2.075277   3.185885
     9  H    2.245683   3.306399   3.185968   2.075391   1.078889
                    6          7          8          9
     6  H    0.000000
     7  H    2.747700   0.000000
     8  H    4.339902   2.749769   0.000000
     9  H    2.749819   4.339937   4.102900   0.000000
 Stoichiometry    C4H4O
 Framework group  C1[X(C4H4O)]
 Deg. of freedom    21
 Full point group                 C1      NOp   1
 RotChk:  IX=0 Diff= 3.20D-15
 Largest Abelian subgroup         C1      NOp   1
 Largest concise Abelian subgroup C1      NOp   1
                         Standard orientation:                         
 ---------------------------------------------------------------------
 Center     Atomic      Atomic             Coordinates (Angstroms)
 Number     Number       Type             X           Y           Z
 ---------------------------------------------------------------------
      1          6           0        0.717282    0.959944   -0.000003
      2          6           0       -0.718018    0.959444   -0.000003
      3          6           0       -1.094962   -0.347987   -0.000003
      4          8           0        0.000421   -1.160905   -0.000003
      5          6           0        1.095238   -0.347224   -0.000003
      6          1           0        1.373183    1.818573    0.000097
      7          1           0       -1.374517    1.817516   -0.000003
      8          1           0       -2.051088   -0.847720   -0.000003
      9          1           0        2.051812   -0.846191   -0.000003
 ---------------------------------------------------------------------
 Rotational constants (GHZ):      9.4587841      9.2535599      4.6775233
 Leave Link  202 at Fri Jul 23 01:12:25 2021, MaxMem= 17179869184 cpu:         1.5
 (Enter /vol2/users/liuj201281/hxd_yi/bin/Gaussian/g09/l301.exe)
 Standard basis: 6-31G(d,p) (6D, 7F)
 Ernie: Thresh=  0.10000D-02 Tol=  0.10000D-05 Strict=F.
 There are    95 symmetry adapted cartesian basis functions of A   symmetry.
 There are    95 symmetry adapted basis functions of A   symmetry.
    95 basis functions,   168 primitive gaussians,    95 cartesian basis functions
    18 alpha electrons       18 beta electrons
       nuclear repulsion energy       160.7193837899 Hartrees.
 IExCor=  402 DFT=T Ex+Corr=B3LYP ExCW=0 ScaHFX=  0.200000
 ScaDFX=  0.800000  0.720000  1.000000  0.810000 ScalE2=  1.000000  1.000000
 IRadAn=      0 IRanWt=     -1 IRanGd=            0 ICorTp=0 IEmpDi=  4
 NAtoms=    9 NActive=    9 NUniq=    9 SFac= 1.00D+00 NAtFMM=   60 NAOKFM=F Big=F
 Integral buffers will be    131072 words long.
 Raffenetti 2 integral format.
 Two-electron integral symmetry is turned on.
 Leave Link  301 at Fri Jul 23 01:12:25 2021, MaxMem= 17179869184 cpu:         6.0
 (Enter /vol2/users/liuj201281/hxd_yi/bin/Gaussian/g09/l302.exe)
 NPDir=0 NMtPBC=     1 NCelOv=     1 NCel=       1 NClECP=     1 NCelD=      1
         NCelK=      1 NCelE2=     1 NClLst=     1 CellRange=     0.0.
 One-electron integrals computed using PRISM.
 NBasis=    95 RedAO= T EigKep=  1.15D-03  NBF=    95
 NBsUse=    95 1.00D-06 EigRej= -1.00D+00 NBFU=    95
 Precomputing XC quadrature grid using
 IXCGrd= 4 IRadAn=           0 IRanWt=          -1 IRanGd=           0 AccXCQ= 0.00D+00.
 Generated NRdTot=       0 NPtTot=           0 NUsed=           0 NTot=          32
 NSgBfM=    95    95    95    95    95 MxSgAt=     9 MxSgA2=     9.
 Leave Link  302 at Fri Jul 23 01:12:25 2021, MaxMem= 17179869184 cpu:        46.0
 (Enter /vol2/users/liuj201281/hxd_yi/bin/Gaussian/g09/l303.exe)
 DipDrv:  MaxL=1.
 Leave Link  303 at Fri Jul 23 01:12:26 2021, MaxMem= 17179869184 cpu:        11.0
 (Enter /vol2/users/liuj201281/hxd_yi/bin/Gaussian/g09/l401.exe)
 Initial guess from the checkpoint file:  "/vol2/users/liuj201281/HOFBenchmark/IsodesmicSplit/Sample60/Ring26/Running/Gau-268978.chk"
 B after Tr=     0.000000    0.000000    0.000000
         Rot=    1.000000    0.000000    0.000000    0.000000 Ang=   0.00 deg.
 Guess basis will be translated and rotated to current coordinates.
 JPrj=2 DoOrth=T DoCkMO=T.
 Leave Link  401 at Fri Jul 23 01:12:26 2021, MaxMem= 17179869184 cpu:        47.2
 (Enter /vol2/users/liuj201281/hxd_yi/bin/Gaussian/g09/l502.exe)
 Closed shell SCF:
 Using DIIS extrapolation, IDIIS=  1040.
 Integral symmetry usage will be decided dynamically.
 Keep R1 ints in memory in canonical form, NReq=11372434.
 IVT=       58500 IEndB=       58500 NGot= 17179869184 MDV= 17169411605
 LenX= 17169411605 LenY= 17169402139
 Requested convergence on RMS density matrix=1.00D-08 within 128 cycles.
 Requested convergence on MAX density matrix=1.00D-06.
 Requested convergence on             energy=1.00D-06.
 No special actions if energy rises.
 FoFCou: FMM=F IPFlag=           0 FMFlag=           0 FMFlg1=           0
         NFxFlg=           0 DoJE=F BraDBF=F KetDBF=F FulRan=T
         wScrn=  0.000000 ICntrl=     600 IOpCl=  0 I1Cent=           0 NGrid=           0
         NMat0=    1 NMatS0=   4560 NMatT0=    0 NMatD0=    1 NMtDS0=    0 NMtDT0=    0
 Symmetry not used in FoFCou.

 Cycle   1  Pass 1  IDiag  1:
 E= -230.027371863083    
 DIIS: error= 7.33D-09 at cycle   1 NSaved=   1.
 NSaved= 1 IEnMin= 1 EnMin= -230.027371863083     IErMin= 1 ErrMin= 7.33D-09
 ErrMax= 7.33D-09  0.00D+00 EMaxC= 1.00D-01 BMatC= 4.65D-15 BMatP= 4.65D-15
 IDIUse=1 WtCom= 1.00D+00 WtEn= 0.00D+00
 Coeff-Com:  0.100D+01
 Coeff:      0.100D+01
 Gap=     0.244 Goal=   None    Shift=    0.000
 RMSDP=1.30D-09 MaxDP=2.10D-08              OVMax= 4.48D-08

 SCF Done:  E(RB3LYP) =  -230.027371863     A.U. after    1 cycles
            NFock=  1  Conv=0.13D-08     -V/T= 2.0094
 KE= 2.278963861851D+02 PE=-8.570781773427D+02 EE= 2.384350355046D+02
 Leave Link  502 at Fri Jul 23 01:12:27 2021, MaxMem= 17179869184 cpu:        59.6
 (Enter /vol2/users/liuj201281/hxd_yi/bin/Gaussian/g09/l801.exe)
 DoSCS=F DFT=T ScalE2(SS,OS)=  1.000000  1.000000
 Range of M.O.s used for correlation:     1    95
 NBasis=    95 NAE=    18 NBE=    18 NFC=     0 NFV=     0
 NROrb=     95 NOA=    18 NOB=    18 NVA=    77 NVB=    77
 Leave Link  801 at Fri Jul 23 01:12:27 2021, MaxMem= 17179869184 cpu:         3.0
 (Enter /vol2/users/liuj201281/hxd_yi/bin/Gaussian/g09/l1101.exe)
 Using compressed storage, NAtomX=     9.
 Will process     10 centers per pass.
 Leave Link 1101 at Fri Jul 23 01:12:29 2021, MaxMem= 17179869184 cpu:       240.3
 (Enter /vol2/users/liuj201281/hxd_yi/bin/Gaussian/g09/l1102.exe)
 Symmetrizing basis deriv contribution to polar:
 IMax=3 JMax=2 DiffMx= 0.00D+00
 Leave Link 1102 at Fri Jul 23 01:12:35 2021, MaxMem= 17179869184 cpu:        10.9
 (Enter /vol2/users/liuj201281/hxd_yi/bin/Gaussian/g09/l1110.exe)
 Forming Gx(P) for the SCF density, NAtomX=     9.
 Integral derivatives from FoFJK, PRISM(SPDF).
 Do as many integral derivatives as possible in FoFJK.
 G2DrvN: MDV=   17179869008.
 G2DrvN: will do    10 centers at a time, making    1 passes.
 Calling FoFCou, ICntrl=  3107 FMM=F I1Cent=   0 AccDes= 0.00D+00.
 FoFJK:  IHMeth= 1 ICntrl=    3107 DoSepK=F KAlg= 0 I1Cent=   0 FoldK=F
 IRaf=         0 NMat=   1 IRICut=       1 DoRegI=T DoRafI=F ISym2E= 0.
 FoFCou: FMM=F IPFlag=           0 FMFlag=      100000 FMFlg1=           0
         NFxFlg=           0 DoJE=F BraDBF=F KetDBF=F FulRan=T
         wScrn=  0.000000 ICntrl=    3107 IOpCl=  0 I1Cent=           0 NGrid=           0
         NMat0=    1 NMatS0=      1 NMatT0=    0 NMatD0=    1 NMtDS0=    0 NMtDT0=    0
 Symmetry not used in FoFCou.
 End of G2Drv F.D. properties file   721 does not exist.
 End of G2Drv F.D. properties file   722 does not exist.
 End of G2Drv F.D. properties file   788 does not exist.
 Leave Link 1110 at Fri Jul 23 01:12:37 2021, MaxMem= 17179869184 cpu:       175.0
 (Enter /vol2/users/liuj201281/hxd_yi/bin/Gaussian/g09/l1002.exe)
 Minotr:  Closed shell wavefunction.
          IDoAtm=111111111
          Direct CPHF calculation.
          Differentiating once with respect to electric field.
                with respect to dipole field.
          Differentiating once with respect to nuclear coordinates.
          Requested convergence is 1.0D-08 RMS, and 1.0D-07 maximum.
          Secondary convergence is 1.0D-12 RMS, and 1.0D-12 maximum.
          NewPWx=T KeepS1=F KeepF1=F KeepIn=T MapXYZ=F SortEE=F KeepMc=T.
          MDV=   17179868995 using IRadAn=       2.
 Generate precomputed XC quadrature information.
 Keep R1 ints in memory in canonical form, NReq=11315287.
 FoFCou: FMM=F IPFlag=           0 FMFlag=           0 FMFlg1=           0
         NFxFlg=           0 DoJE=F BraDBF=F KetDBF=F FulRan=T
         wScrn=  0.000000 ICntrl=     600 IOpCl=  0 I1Cent=           0 NGrid=           0
         NMat0=    1 NMatS0=   4560 NMatT0=    0 NMatD0=    1 NMtDS0=    0 NMtDT0=    0
 Symmetry not used in FoFCou.
          Solving linear equations simultaneously, MaxMat=       0.
          There are    30 degrees of freedom in the 1st order CPHF.  IDoFFX=6 NUNeed=     3.
     27 vectors produced by pass  0 Test12= 4.62D-15 3.33D-09 XBig12= 4.99D+01 4.87D+00.
 AX will form    27 AO Fock derivatives at one time.
     27 vectors produced by pass  1 Test12= 4.62D-15 3.33D-09 XBig12= 1.29D+01 8.19D-01.
     27 vectors produced by pass  2 Test12= 4.62D-15 3.33D-09 XBig12= 9.76D-02 7.19D-02.
     27 vectors produced by pass  3 Test12= 4.62D-15 3.33D-09 XBig12= 1.77D-04 3.15D-03.
     27 vectors produced by pass  4 Test12= 4.62D-15 3.33D-09 XBig12= 3.83D-07 2.56D-04.
     20 vectors produced by pass  5 Test12= 4.62D-15 3.33D-09 XBig12= 3.44D-10 4.31D-06.
      3 vectors produced by pass  6 Test12= 4.62D-15 3.33D-09 XBig12= 2.11D-13 7.50D-08.
 InvSVY:  IOpt=1 It=  1 EMax= 3.55D-15
 Solved reduced A of dimension   158 with    30 vectors.
 FullF1:  Do perturbations    1 to     3.
 Isotropic polarizability for W=    0.000000       37.37 Bohr**3.
 End of Minotr F.D. properties file   721 does not exist.
 End of Minotr F.D. properties file   722 does not exist.
 End of Minotr F.D. properties file   788 does not exist.
 Leave Link 1002 at Fri Jul 23 01:12:38 2021, MaxMem= 17179869184 cpu:       201.1
 (Enter /vol2/users/liuj201281/hxd_yi/bin/Gaussian/g09/l601.exe)
 Copying SCF densities to generalized density rwf, IOpCl= 0 IROHF=0.

 **********************************************************************

            Population analysis using the SCF density.

 **********************************************************************

 Orbital symmetries:
       Occupied  (A) (A) (A) (A) (A) (A) (A) (A) (A) (A) (A) (A)
                 (A) (A) (A) (A) (A) (A)
       Virtual   (A) (A) (A) (A) (A) (A) (A) (A) (A) (A) (A) (A)
                 (A) (A) (A) (A) (A) (A) (A) (A) (A) (A) (A) (A)
                 (A) (A) (A) (A) (A) (A) (A) (A) (A) (A) (A) (A)
                 (A) (A) (A) (A) (A) (A) (A) (A) (A) (A) (A) (A)
                 (A) (A) (A) (A) (A) (A) (A) (A) (A) (A) (A) (A)
                 (A) (A) (A) (A) (A) (A) (A) (A) (A) (A) (A) (A)
                 (A) (A) (A) (A) (A)
 The electronic state is 1-A.
 Alpha  occ. eigenvalues --  -19.21167 -10.23191 -10.23190 -10.18462 -10.18420
 Alpha  occ. eigenvalues --   -1.10344  -0.79278  -0.73937  -0.59287  -0.56509
 Alpha  occ. eigenvalues --   -0.53587  -0.44198  -0.44110  -0.40653  -0.39296
 Alpha  occ. eigenvalues --   -0.36655  -0.27388  -0.22497
 Alpha virt. eigenvalues --    0.01855   0.07705   0.11785   0.14104   0.15543
 Alpha virt. eigenvalues --    0.16678   0.19551   0.20484   0.31207   0.37687
 Alpha virt. eigenvalues --    0.43212   0.51290   0.53335   0.58070   0.58156
 Alpha virt. eigenvalues --    0.58472   0.59072   0.61467   0.62568   0.67414
 Alpha virt. eigenvalues --    0.67867   0.78634   0.81372   0.82878   0.88875
 Alpha virt. eigenvalues --    0.90319   0.97873   0.98441   1.01305   1.03158
 Alpha virt. eigenvalues --    1.12898   1.13199   1.27226   1.35521   1.36686
 Alpha virt. eigenvalues --    1.38032   1.44480   1.51678   1.52112   1.55920
 Alpha virt. eigenvalues --    1.66545   1.81548   1.86616   1.88337   1.95468
 Alpha virt. eigenvalues --    1.98907   2.00241   2.08081   2.08384   2.17432
 Alpha virt. eigenvalues --    2.18126   2.29855   2.35906   2.38613   2.41352
 Alpha virt. eigenvalues --    2.43996   2.44091   2.49689   2.56729   2.58295
 Alpha virt. eigenvalues --    2.62496   2.67398   2.75609   2.77031   2.82787
 Alpha virt. eigenvalues --    2.96966   3.07465   3.18632   3.21251   3.34129
 Alpha virt. eigenvalues --    3.57887   3.80928   3.96089   4.22905   4.22925
 Alpha virt. eigenvalues --    4.50175   4.76989
          Condensed to atoms (all electrons):
               1          2          3          4          5          6
     1  C    4.856522   0.502228  -0.057923  -0.059455   0.593067   0.372852
     2  C    0.502228   4.856476   0.593061  -0.059449  -0.057925  -0.035285
     3  C   -0.057923   0.593061   4.771056   0.321398  -0.115395   0.005894
     4  O   -0.059455  -0.059449   0.321398   7.951495   0.321380   0.003482
     5  C    0.593067  -0.057925  -0.115395   0.321380   4.771080  -0.039394
     6  H    0.372852  -0.035285   0.005894   0.003482  -0.039394   0.600509
     7  H   -0.035288   0.372869  -0.039401   0.003482   0.005894  -0.002145
     8  H    0.003723  -0.044450   0.386889  -0.038205   0.005730  -0.000125
     9  H   -0.044444   0.003722   0.005729  -0.038196   0.386882  -0.000568
               7          8          9
     1  C   -0.035288   0.003723  -0.044444
     2  C    0.372869  -0.044450   0.003722
     3  C   -0.039401   0.386889   0.005729
     4  O    0.003482  -0.038205  -0.038196
     5  C    0.005894   0.005730   0.386882
     6  H   -0.002145  -0.000125  -0.000568
     7  H    0.600499  -0.000568  -0.000125
     8  H   -0.000568   0.576427  -0.000178
     9  H   -0.000125  -0.000178   0.576410
 Mulliken charges:
               1
     1  C   -0.131283
     2  C   -0.131247
     3  C    0.128691
     4  O   -0.405933
     5  C    0.128681
     6  H    0.094780
     7  H    0.094783
     8  H    0.110757
     9  H    0.110769
 Sum of Mulliken charges =   0.00000
 Mulliken charges with hydrogens summed into heavy atoms:
               1
     1  C   -0.036503
     2  C   -0.036463
     3  C    0.239448
     4  O   -0.405933
     5  C    0.239450
 APT charges:
               1
     1  C   -0.066268
     2  C   -0.066325
     3  C    0.146014
     4  O   -0.429630
     5  C    0.145998
     6  H    0.063025
     7  H    0.063057
     8  H    0.072060
     9  H    0.072069
 Sum of APT charges =   0.00000
 APT charges with hydrogens summed into heavy atoms:
               1
     1  C   -0.003243
     2  C   -0.003268
     3  C    0.218074
     4  O   -0.429630
     5  C    0.218067
 Electronic spatial extent (au):  <R**2>=            290.1319
 Charge=              0.0000 electrons
 Dipole moment (field-independent basis, Debye):
    X=             -0.0003    Y=              0.6290    Z=              0.0001  Tot=              0.6290
 Quadrupole moment (field-independent basis, Debye-Ang):
   XX=            -23.7205   YY=            -27.6754   ZZ=            -30.9945
   XY=              0.0012   XZ=              0.0001   YZ=              0.0002
 Traceless Quadrupole moment (field-independent basis, Debye-Ang):
   XX=              3.7430   YY=             -0.2119   ZZ=             -3.5310
   XY=              0.0012   XZ=              0.0001   YZ=              0.0002
 Octapole moment (field-independent basis, Debye-Ang**2):
  XXX=              0.0049  YYY=              1.3578  ZZZ=              0.0001  XYY=             -0.0039
  XXY=             -4.1155  XXZ=              0.0002  XZZ=              0.0008  YZZ=             -2.9983
  YYZ=              0.0003  XYZ=              0.0003
 Hexadecapole moment (field-independent basis, Debye-Ang**3):
 XXXX=           -161.4947 YYYY=           -161.8933 ZZZZ=            -30.2587 XXXY=             -0.0072
 XXXZ=              0.0000 YYYX=              0.0077 YYYZ=              0.0002 ZZZX=             -0.0003
 ZZZY=             -0.0003 XXYY=            -47.6755 XXZZ=            -39.0133 YYZZ=            -34.6580
 XXYZ=              0.0002 YYXZ=              0.0004 ZZXY=             -0.0013
 N-N= 1.607193837899D+02 E-N=-8.570781765247D+02  KE= 2.278963861851D+02
  Exact polarizability:  49.095   0.001  45.532   0.000   0.000  17.474
 Approx polarizability:  74.399  -0.003  79.841   0.000   0.000  25.779
 No NMR shielding tensors so no spin-rotation constants.
 Leave Link  601 at Fri Jul 23 01:12:39 2021, MaxMem= 17179869184 cpu:        40.2
 (Enter /vol2/users/liuj201281/hxd_yi/bin/Gaussian/g09/l701.exe)
 Compute integral second derivatives.
 ... and contract with generalized density number  0.
 Leave Link  701 at Fri Jul 23 01:12:39 2021, MaxMem= 17179869184 cpu:        62.5
 (Enter /vol2/users/liuj201281/hxd_yi/bin/Gaussian/g09/l702.exe)
 L702 exits ... SP integral derivatives will be done elsewhere.
 Leave Link  702 at Fri Jul 23 01:12:39 2021, MaxMem= 17179869184 cpu:         2.7
 (Enter /vol2/users/liuj201281/hxd_yi/bin/Gaussian/g09/l703.exe)
 Compute integral second derivatives, UseDBF=F ICtDFT=           0.
 Integral derivatives from FoFJK, PRISM(SPDF).
 Calling FoFJK, ICntrl=    100127 FMM=F ISym2X=0 I1Cent= 0 IOpClX= 0 NMat=1 NMatS=1 NMatT=0.
 FoFJK:  IHMeth= 1 ICntrl=  100127 DoSepK=F KAlg= 0 I1Cent=   0 FoldK=F
 IRaf=         0 NMat=   1 IRICut=       1 DoRegI=T DoRafI=F ISym2E= 0.
 FoFCou: FMM=F IPFlag=           0 FMFlag=      100000 FMFlg1=         800
         NFxFlg=           0 DoJE=F BraDBF=F KetDBF=F FulRan=T
         wScrn=  0.000000 ICntrl=  100127 IOpCl=  0 I1Cent=           0 NGrid=           0
         NMat0=    1 NMatS0=      1 NMatT0=    0 NMatD0=    1 NMtDS0=    0 NMtDT0=    0
 Symmetry not used in FoFCou.
 Leave Link  703 at Fri Jul 23 01:12:41 2021, MaxMem= 17179869184 cpu:       170.0
 (Enter /vol2/users/liuj201281/hxd_yi/bin/Gaussian/g09/l716.exe)
 Dipole        =-9.96923773D-05 2.47462364D-01 2.67934308D-05
 Polarizability= 4.90948556D+01 1.22895385D-03 4.55316003D+01
                 2.23397747D-04 1.93852808D-04 1.74737022D+01
 Full mass-weighted force constant matrix:
 Low frequencies ---  -11.1035   -6.4841   -0.0013   -0.0010   -0.0007    9.8903
 Low frequencies ---  614.2449  622.9898  727.7578
 Diagonal vibrational polarizability:
        0.3745109       2.0419209       4.8310953
 Harmonic frequencies (cm**-1), IR intensities (KM/Mole), Raman scattering
 activities (A**4/AMU), depolarization ratios for plane and unpolarized
 incident light, reduced masses (AMU), force constants (mDyne/A),
 and normal coordinates:
                      1                      2                      3
                      A                      A                      A
 Frequencies --    614.2449               622.9897               727.7576
 Red. masses --      3.0763                 3.7890                 1.3145
 Frc consts  --      0.6839                 0.8664                 0.4102
 IR Inten    --      0.0000                17.2124                 0.0009
  Atom  AN      X      Y      Z        X      Y      Z        X      Y      Z
     1   6     0.00   0.00   0.26     0.00   0.00   0.11     0.00   0.00  -0.02
     2   6     0.00   0.00  -0.27     0.00   0.00   0.11     0.00   0.00   0.02
     3   6     0.00   0.00   0.15     0.00   0.00  -0.24     0.00   0.00   0.12
     4   8     0.00   0.00   0.00     0.00   0.00   0.29     0.00   0.00   0.00
     5   6     0.00   0.00  -0.15     0.00   0.00  -0.24     0.00   0.00  -0.12
     6   1     0.00   0.00   0.47     0.00   0.00  -0.04     0.00   0.00   0.28
     7   1     0.00   0.00  -0.47     0.00   0.00  -0.04     0.00   0.00  -0.28
     8   1     0.00   0.00   0.44     0.00   0.00  -0.62     0.00   0.00  -0.64
     9   1     0.00   0.00  -0.43     0.00   0.00  -0.62     0.00   0.00   0.64
                      4                      5                      6
                      A                      A                      A
 Frequencies --    760.9198               838.8199               879.4733
 Red. masses --      1.2366                 1.2557                 1.2937
 Frc consts  --      0.4218                 0.5205                 0.5895
 IR Inten    --     77.9859                 0.3366                 0.0001
  Atom  AN      X      Y      Z        X      Y      Z        X      Y      Z
     1   6     0.00   0.00   0.03     0.00   0.00   0.08     0.00   0.00  -0.11
     2   6     0.00   0.00   0.03     0.00   0.00   0.08     0.00   0.00   0.11
     3   6     0.00   0.00   0.09     0.00   0.00  -0.07     0.00   0.00  -0.04
     4   8     0.00   0.00  -0.05     0.00   0.00  -0.01     0.00   0.00   0.00
     5   6     0.00   0.00   0.09     0.00   0.00  -0.07     0.00   0.00   0.04
     6   1     0.00   0.00  -0.49     0.00   0.00  -0.53     0.00   0.00   0.66
     7   1     0.00   0.00  -0.49     0.00   0.00  -0.53     0.00   0.00  -0.65
     8   1     0.00   0.00  -0.50     0.00   0.00   0.46     0.00   0.00   0.24
     9   1     0.00   0.00  -0.50     0.00   0.00   0.45     0.00   0.00  -0.24
                      7                      8                      9
                      A                      A                      A
 Frequencies --    885.8151               890.0495              1022.5481
 Red. masses --      4.8999                 6.0204                 1.4668
 Frc consts  --      2.2653                 2.8100                 0.9036
 IR Inten    --     15.6789                 0.3771                37.6241
  Atom  AN      X      Y      Z        X      Y      Z        X      Y      Z
     1   6     0.03  -0.15   0.00     0.26   0.30   0.00     0.09   0.01   0.00
     2   6    -0.03  -0.15   0.00     0.26  -0.30   0.00    -0.09   0.01   0.00
     3   6    -0.22  -0.07   0.00    -0.16  -0.18   0.00     0.07  -0.03   0.00
     4   8     0.00   0.38   0.00    -0.13   0.00   0.00     0.00   0.10   0.00
     5   6     0.22  -0.07   0.00    -0.16   0.18   0.00    -0.07  -0.03   0.00
     6   1    -0.34   0.13   0.00     0.13   0.40   0.00     0.55  -0.34   0.00
     7   1     0.34   0.13   0.00     0.14  -0.40   0.00    -0.55  -0.34   0.00
     8   1    -0.03  -0.46   0.00    -0.30   0.07   0.00     0.16  -0.20   0.00
     9   1     0.03  -0.46   0.00    -0.30  -0.07   0.00    -0.16  -0.20   0.00
                     10                     11                     12
                      A                      A                      A
 Frequencies --   1071.0281              1098.1683              1172.5994
 Red. masses --      1.6006                 2.8678                 1.7979
 Frc consts  --      1.0817                 2.0377                 1.4565
 IR Inten    --      1.1302                11.8310                 0.3517
  Atom  AN      X      Y      Z        X      Y      Z        X      Y      Z
     1   6    -0.01   0.03   0.00    -0.15   0.00   0.00     0.11   0.12   0.00
     2   6    -0.01  -0.03   0.00     0.15   0.00   0.00    -0.11   0.12   0.00
     3   6     0.13   0.03   0.00     0.23  -0.06   0.00    -0.04  -0.04   0.00
     4   8    -0.11   0.00   0.00     0.00   0.11   0.00     0.00  -0.10   0.00
     5   6     0.13  -0.03   0.00    -0.23  -0.06   0.00     0.04  -0.04   0.00
     6   1    -0.45   0.37   0.00    -0.39   0.17   0.00    -0.12   0.32   0.00
     7   1    -0.45  -0.37   0.00     0.39   0.17   0.00     0.11   0.32   0.00
     8   1    -0.04   0.37   0.00     0.37  -0.31   0.00     0.21  -0.55   0.00
     9   1    -0.04  -0.37   0.00    -0.37  -0.31   0.00    -0.21  -0.55   0.00
                     13                     14                     15
                      A                      A                      A
 Frequencies --   1220.0368              1295.9492              1430.0720
 Red. masses --      2.8421                 1.2621                 2.9767
 Frc consts  --      2.4925                 1.2489                 3.5867
 IR Inten    --     17.3933                 0.1726                 3.7347
  Atom  AN      X      Y      Z        X      Y      Z        X      Y      Z
     1   6     0.01   0.01   0.00     0.06  -0.03   0.00     0.25  -0.09   0.00
     2   6     0.01  -0.01   0.00     0.06   0.03   0.00    -0.25  -0.09   0.00
     3   6    -0.14   0.12   0.00    -0.05   0.07   0.00     0.13   0.00   0.00
     4   8     0.27   0.00   0.00    -0.02   0.00   0.00     0.00   0.04   0.00
     5   6    -0.14  -0.12   0.00    -0.05  -0.07   0.00    -0.13   0.00   0.00
     6   1    -0.29   0.24   0.00    -0.33   0.26   0.00    -0.34   0.37   0.00
     7   1    -0.29  -0.24   0.00    -0.32  -0.26   0.00     0.34   0.36   0.00
     8   1    -0.30   0.44   0.00     0.25  -0.50   0.00    -0.06   0.40   0.00
     9   1    -0.30  -0.44   0.00     0.25   0.50   0.00     0.06   0.40   0.00
                     16                     17                     18
                      A                      A                      A
 Frequencies --   1528.2259              1612.7032              3258.8795
[...]
     36  0.000000D+00  0.000000D+00  0.000000D+00  0.000000D+00  0.000000D+00
     37  0.000000D+00  0.000000D+00  0.000000D+00  0.000000D+00  0.000000D+00
     38  0.199869D-05 -0.190259D-05  0.000000D+00  0.000000D+00  0.000000D+00
               16            17            18            19            20 
     16  0.111370D+00
     17 -0.483916D-01  0.785362D-01
     18 -0.629786D-01 -0.301445D-01  0.931231D-01
     19 -0.776409D-01  0.348613D-01  0.427796D-01  0.132140D+00
     20  0.192961D-01 -0.501631D-02 -0.142798D-01 -0.776423D-01  0.111370D+00
     21 -0.501639D-02  0.190330D-02  0.311309D-02  0.348630D-01 -0.483951D-01
     22 -0.142797D-01  0.311301D-02  0.111667D-01  0.427793D-01 -0.629753D-01
     23  0.000000D+00  0.000000D+00  0.000000D+00  0.000000D+00  0.000000D+00
     24  0.000000D+00  0.000000D+00  0.000000D+00  0.000000D+00  0.000000D+00
     25  0.000000D+00  0.000000D+00  0.000000D+00  0.000000D+00  0.000000D+00
     26  0.000000D+00  0.000000D+00  0.000000D+00  0.000000D+00  0.000000D+00
     27  0.000000D+00  0.000000D+00  0.000000D+00  0.000000D+00  0.000000D+00
     28  0.000000D+00  0.000000D+00  0.000000D+00  0.000000D+00  0.000000D+00
     29  0.000000D+00  0.000000D+00  0.000000D+00  0.000000D+00  0.000000D+00
     30  0.000000D+00  0.000000D+00  0.000000D+00  0.000000D+00  0.000000D+00
     31  0.000000D+00  0.000000D+00  0.000000D+00  0.000000D+00  0.000000D+00
     32  0.000000D+00  0.000000D+00  0.000000D+00  0.000000D+00  0.000000D+00
     33  0.000000D+00  0.000000D+00  0.000000D+00  0.000000D+00  0.000000D+00
     34  0.000000D+00  0.000000D+00  0.000000D+00  0.000000D+00  0.000000D+00
     35  0.000000D+00  0.000000D+00  0.000000D+00  0.000000D+00  0.000000D+00
     36  0.000000D+00  0.000000D+00  0.000000D+00  0.000000D+00  0.000000D+00
     37  0.000000D+00  0.000000D+00  0.000000D+00  0.000000D+00  0.000000D+00
     38  0.000000D+00  0.000000D+00  0.000000D+00  0.000000D+00  0.000000D+00
               21            22            23            24            25 
     21  0.785335D-01
     22 -0.301384D-01  0.931137D-01
     23  0.000000D+00  0.000000D+00  0.162561D-01
     24  0.000000D+00  0.000000D+00  0.673313D-02  0.872600D-02
     25  0.000000D+00  0.000000D+00  0.673371D-02 -0.278423D-03  0.872588D-02
     26  0.000000D+00  0.000000D+00 -0.278926D-02  0.171444D-02  0.171375D-02
     27  0.000000D+00  0.000000D+00 -0.134901D-01 -0.658750D-02 -0.458802D-02
     28  0.000000D+00  0.000000D+00 -0.616632D-02 -0.435902D-02  0.843706D-03
     29  0.000000D+00  0.000000D+00 -0.407937D-02  0.341828D-03 -0.655683D-02
     30  0.000000D+00  0.000000D+00  0.324440D-02  0.257031D-02 -0.112510D-02
     31  0.000000D+00  0.000000D+00 -0.134896D-01 -0.458721D-02 -0.658770D-02
     32  0.000000D+00  0.000000D+00 -0.616641D-02  0.844033D-03 -0.435925D-02
     33  0.000000D+00  0.000000D+00 -0.407859D-02 -0.655664D-02  0.341978D-03
     34  0.000000D+00  0.000000D+00  0.324458D-02 -0.112539D-02  0.257042D-02
     35  0.000000D+00  0.000000D+00  0.546315D-02  0.651293D-03  0.387432D-02
     36  0.000000D+00  0.000000D+00 -0.420934D-03 -0.371265D-02  0.208379D-02
     37  0.000000D+00  0.000000D+00  0.546353D-02  0.387436D-02  0.651876D-03
     38  0.000000D+00  0.000000D+00 -0.421696D-03  0.208360D-02 -0.371295D-02
               26            27            28            29            30 
     26  0.621745D-02
     27  0.231457D-02  0.166388D-01
     28  0.265100D-02  0.471223D-02  0.994321D-02
     29 -0.213564D-02  0.784110D-02 -0.221559D-02  0.102895D-01
     30 -0.179920D-02 -0.408545D-02  0.301539D-02  0.232821D-03  0.733366D-02
     31  0.231467D-02  0.575009D-02  0.552180D-02 -0.107084D-02 -0.129914D-02
     32  0.265119D-02  0.552202D-02  0.711491D-03  0.373605D-02 -0.107447D-02
     33 -0.213607D-02 -0.107132D-02  0.373575D-02 -0.544005D-02 -0.632970D-03
     34 -0.179955D-02 -0.129940D-02 -0.107455D-02 -0.633153D-03 -0.408305D-03
     35 -0.937533D-03  0.423924D-02 -0.272474D-02  0.580943D-02 -0.115455D-02
     36 -0.120792D-02  0.442249D-02  0.114029D-02  0.194715D-02 -0.133506D-02
     37 -0.937292D-03 -0.133063D-01 -0.142003D-02 -0.855108D-02  0.333519D-02
     38 -0.120765D-02 -0.372238D-02 -0.562354D-02 -0.469730D-03 -0.237089D-02
               31            32            33            34            35 
     31  0.166382D-01
     32  0.471214D-02  0.994334D-02
     33  0.784052D-02 -0.221587D-02  0.102894D-01
     34 -0.408554D-02  0.301533D-02  0.233042D-03  0.733392D-02
     35 -0.133065D-01 -0.141996D-02 -0.855118D-02  0.333531D-02  0.159729D-01
     36 -0.372399D-02 -0.562317D-02 -0.470988D-03 -0.237016D-02  0.642227D-02
     37  0.423891D-02 -0.272482D-02  0.580939D-02 -0.115434D-02 -0.123002D-01
     38  0.442236D-02  0.114082D-02  0.194652D-02 -0.133502D-02 -0.670406D-02
               36            37            38 
     36  0.794823D-02
     37 -0.670489D-02  0.159719D-01
     38 -0.406738D-02  0.642031D-02  0.794804D-02
 Leave Link  716 at Fri Jul 23 01:12:41 2021, MaxMem= 17179869184 cpu:         6.9
 (Enter /vol2/users/liuj201281/hxd_yi/bin/Gaussian/g09/l103.exe)

 GradGradGradGradGradGradGradGradGradGradGradGradGradGradGradGradGradGrad
 Berny optimization.
 Red2BG is reusing G-inverse.
 Internal  Forces:  Max     0.000146906 RMS     0.000061238
 Search for a local minimum.
 Step number   1 out of a maximum of    2
 All quantities printed in internal units (Hartrees-Bohrs-Radians)
 Second derivative matrix not updated -- analytic derivatives used.
 ITU=  0
     Eigenvalues ---    0.01142   0.01322   0.01528   0.02576   0.05391
     Eigenvalues ---    0.05660   0.09297   0.10155   0.10624   0.11584
     Eigenvalues ---    0.20792   0.24754   0.33126   0.36290   0.37618
     Eigenvalues ---    0.37954   0.38034   0.38927   0.43396   0.47407
     Eigenvalues ---    0.55633
 Angle between quadratic step and forces=  30.65 degrees.
 Linear search not attempted -- first point.
 Iteration  1 RMS(Cart)=  0.00026422 RMS(Int)=  0.00000005
 Iteration  2 RMS(Cart)=  0.00000006 RMS(Int)=  0.00000001
 ITry= 1 IFail=0 DXMaxC= 9.79D-04 DCOld= 1.00D+10 DXMaxT= 3.00D-01 DXLimC= 3.00D+00 Rises=F
 Variable       Old X    -DE/DX   Delta X   Delta X   Delta X     New X
                                 (Linear)    (Quad)   (Total)
    R1        2.71232  -0.00002   0.00000   0.00016   0.00016   2.71248
    R2        2.57137  -0.00012   0.00000  -0.00034  -0.00034   2.57103
    R3        2.04182  -0.00010   0.00000  -0.00027  -0.00027   2.04155
    R4        2.57132  -0.00010   0.00000  -0.00029  -0.00029   2.57103
    R5        2.04167  -0.00004   0.00000  -0.00012  -0.00012   2.04155
    R6        2.57773   0.00000   0.00000   0.00014   0.00014   2.57787
    R7        2.03872  -0.00011   0.00000  -0.00027  -0.00027   2.03845
    R8        2.57773   0.00001   0.00000   0.00015   0.00015   2.57787
    R9        2.03880  -0.00014   0.00000  -0.00035  -0.00035   2.03845
    A1        1.85191  -0.00004   0.00000  -0.00013  -0.00013   1.85179
    A2        2.22348  -0.00001   0.00000  -0.00018  -0.00018   2.22330
    A3        2.20779   0.00004   0.00000   0.00031   0.00031   2.20810
    A4        1.85184  -0.00002   0.00000  -0.00005  -0.00005   1.85179
    A5        2.22353  -0.00002   0.00000  -0.00024  -0.00024   2.22329
    A6        2.20781   0.00004   0.00000   0.00029   0.00029   2.20810
    A7        1.92855   0.00009   0.00000   0.00028   0.00028   1.92883
    A8        2.33311   0.00001   0.00000   0.00031   0.00031   2.33342
    A9        2.02153  -0.00010   0.00000  -0.00059  -0.00059   2.02094
   A10        1.86400  -0.00015   0.00000  -0.00045  -0.00045   1.86355
   A11        1.92847   0.00011   0.00000   0.00035   0.00035   1.92883
   A12        2.33305   0.00001   0.00000   0.00037   0.00037   2.33342
   A13        2.02166  -0.00012   0.00000  -0.00072  -0.00072   2.02094
    D1        0.00000   0.00000   0.00000   0.00000   0.00000   0.00000
    D2        3.14159   0.00000   0.00000   0.00000   0.00000  -3.14159
    D3       -3.14148   0.00000   0.00000  -0.00012  -0.00012   3.14159
    D4        0.00012   0.00000   0.00000  -0.00012  -0.00012   0.00000
    D5        0.00000   0.00000   0.00000   0.00000   0.00000   0.00000
    D6        3.14159   0.00000   0.00000   0.00000   0.00000  -3.14159
    D7        3.14148   0.00000   0.00000   0.00012   0.00012  -3.14159
    D8       -0.00012   0.00000   0.00000   0.00012   0.00012   0.00000
    D9        0.00000   0.00000   0.00000   0.00000   0.00000   0.00000
   D10        3.14159   0.00000   0.00000   0.00000   0.00000   3.14159
   D11        3.14159   0.00000   0.00000   0.00000   0.00000   3.14159
   D12        0.00000   0.00000   0.00000   0.00000   0.00000   0.00000
   D13        0.00000   0.00000   0.00000   0.00000   0.00000   0.00000
   D14        3.14159   0.00000   0.00000   0.00000   0.00000  -3.14159
   D15        0.00000   0.00000   0.00000   0.00000   0.00000   0.00000
   D16        3.14159   0.00000   0.00000   0.00000   0.00000   3.14159
         Item               Value     Threshold  Converged?
 Maximum Force            0.000147     0.000450     YES
 RMS     Force            0.000061     0.000300     YES
 Maximum Displacement     0.000979     0.001800     YES
 RMS     Displacement     0.000264     0.001200     YES
 Predicted change in Energy=-2.520035D-07
 Optimization completed.
    -- Stationary point found.
                           ----------------------------
                           !   Optimized Parameters   !
                           ! (Angstroms and Degrees)  !
 --------------------------                            --------------------------
 ! Name  Definition              Value          Derivative Info.                !
 --------------------------------------------------------------------------------
 ! R1    R(1,2)                  1.4353         -DE/DX =    0.0                 !
 ! R2    R(1,5)                  1.3607         -DE/DX =   -0.0001              !
 ! R3    R(1,6)                  1.0805         -DE/DX =   -0.0001              !
 ! R4    R(2,3)                  1.3607         -DE/DX =   -0.0001              !
 ! R5    R(2,7)                  1.0804         -DE/DX =    0.0                 !
 ! R6    R(3,4)                  1.3641         -DE/DX =    0.0                 !
 ! R7    R(3,8)                  1.0788         -DE/DX =   -0.0001              !
 ! R8    R(4,5)                  1.3641         -DE/DX =    0.0                 !
 ! R9    R(5,9)                  1.0789         -DE/DX =   -0.0001              !
 ! A1    A(2,1,5)              106.1068         -DE/DX =    0.0                 !
 ! A2    A(2,1,6)              127.3959         -DE/DX =    0.0                 !
 ! A3    A(5,1,6)              126.4973         -DE/DX =    0.0                 !
 ! A4    A(1,2,3)              106.1027         -DE/DX =    0.0                 !
 ! A5    A(1,2,7)              127.3992         -DE/DX =    0.0                 !
 ! A6    A(3,2,7)              126.4981         -DE/DX =    0.0                 !
 ! A7    A(2,3,4)              110.4975         -DE/DX =    0.0001              !
 ! A8    A(2,3,8)              133.6772         -DE/DX =    0.0                 !
 ! A9    A(4,3,8)              115.8253         -DE/DX =   -0.0001              !
 ! A10   A(3,4,5)              106.7995         -DE/DX =   -0.0001              !
 ! A11   A(1,5,4)              110.4935         -DE/DX =    0.0001              !
 ! A12   A(1,5,9)              133.6741         -DE/DX =    0.0                 !
 ! A13   A(4,5,9)              115.8324         -DE/DX =   -0.0001              !
 ! D1    D(5,1,2,3)              0.0            -DE/DX =    0.0                 !
 ! D2    D(5,1,2,7)           -180.0            -DE/DX =    0.0                 !
 ! D3    D(6,1,2,3)            180.0067         -DE/DX =    0.0                 !
 ! D4    D(6,1,2,7)              0.0067         -DE/DX =    0.0                 !
 ! D5    D(2,1,5,4)              0.0            -DE/DX =    0.0                 !
 ! D6    D(2,1,5,9)           -180.0            -DE/DX =    0.0                 !
 ! D7    D(6,1,5,4)           -180.0066         -DE/DX =    0.0                 !
 ! D8    D(6,1,5,9)             -0.0066         -DE/DX =    0.0                 !
 ! D9    D(1,2,3,4)              0.0            -DE/DX =    0.0                 !
 ! D10   D(1,2,3,8)            180.0            -DE/DX =    0.0                 !
 ! D11   D(7,2,3,4)            180.0            -DE/DX =    0.0                 !
 ! D12   D(7,2,3,8)              0.0            -DE/DX =    0.0                 !
 ! D13   D(2,3,4,5)              0.0            -DE/DX =    0.0                 !
 ! D14   D(8,3,4,5)           -180.0            -DE/DX =    0.0                 !
 ! D15   D(3,4,5,1)              0.0            -DE/DX =    0.0                 !
 ! D16   D(3,4,5,9)            180.0            -DE/DX =    0.0                 !
 --------------------------------------------------------------------------------
 GradGradGradGradGradGradGradGradGradGradGradGradGradGradGradGradGradGrad

 Leave Link  103 at Fri Jul 23 01:12:42 2021, MaxMem= 17179869184 cpu:        38.7
 (Enter /vol2/users/liuj201281/hxd_yi/bin/Gaussian/g09/l9999.exe)
 1\1\GINC-FN19\Freq\RB3LYP\6-31G(d,p)\C4H4O1\LIUJ201281\23-Jul-2021\0\\
 #P Geom=AllCheck Guess=TCheck SCRF=Check GenChk RB3LYP/6-31G(d,p) Freq
 \\Frag_39\\0,1\C,-0.7176,0.9597,0.\C,0.7177,0.9597,0.\C,1.0951,-0.3476
 ,0.\O,0.,-1.1609,0.\C,-1.0951,-0.3476,0.\H,-1.3738,1.8181,-0.0001\H,1.
 3739,1.818,0.\H,2.0514,-0.847,0.\H,-2.0515,-0.8469,0.\\Version=ES64L-G
 09RevD.01\State=1-A\HF=-230.0273719\RMSD=1.300e-09\RMSF=9.204e-05\Zero
 Point=0.0701514\Thermal=0.073862\Dipole=0.0000134,0.2474624,-0.0000268
 \DipoleDeriv=0.0362993,-0.0877563,0.000013,-0.0786024,-0.0676147,-0.00
 00171,0.0000261,-0.0000588,-0.1674881,0.0362112,0.087714,-0.0000043,0.
 0785766,-0.0677094,0.0000074,-0.0000012,0.0000193,-0.1674773,0.1007949
 ,0.0972225,-0.0000031,0.0898381,0.4016454,-0.0000044,0.0000031,-0.0000
 004,-0.0643984,-0.3293085,0.0000152,0.0000061,-0.000023,-0.816744,0.00
 00019,0.0000036,0.0000007,-0.1428377,0.1007866,-0.0972191,-0.0000085,-
 0.0898359,0.4016262,0.0000054,-0.0000134,0.0000118,-0.0644193,0.021112
 6,0.0765261,-0.000003,0.06714,0.0261878,0.0000048,-0.0000171,0.0000312
 ,0.1417746,0.0211412,-0.0765015,0.,-0.0671124,0.0262452,0.0000003,0.,-
 0.0000021,0.1417853,0.0064795,0.0269805,0.0000001,0.0467113,0.0481746,
 0.0000007,-0.000003,-0.0000019,0.1615255,0.0064832,-0.0269813,-0.00000
 03,-0.0466924,0.048189,0.000001,0.0000018,0.0000003,0.1615355\Polar=49
 .094856,0.0000129,45.5315999,0.0002235,-0.0001938,17.4737022\PG=C01 [X
 (C4H4O1)]\NImag=0\\0.61971317,-0.10935314,0.84005097,0.00001999,-0.000
 02915,0.11454794,-0.27076260,0.01715535,-0.00000231,0.61975990,-0.0171
 5296,-0.10987438,0.00000262,0.10944332,0.84022192,0.00000002,0.0000019
 4,-0.05601072,0.00000116,-0.00000211,0.11452049,-0.03151397,0.01396739
 ,-0.00000144,-0.12344866,0.09710668,0.00000066,0.74543817,0.07714418,-
 0.00011777,-0.00000156,0.08328983,-0.40905252,0.00000063,-0.18069018,0
 .72909671,-0.00000055,-0.00000044,0.01165714,0.00000062,-0.00000017,-0
 .05979622,0.00000029,0.00000061,0.11601378,-0.02377335,0.05158498,0.00
 000225,-0.02377300,-0.05158343,-0.00000077,-0.18924253,-0.10625668,-0.
 00000023,0.47541466,0.00582368,-0.07764917,0.00000087,-0.00582298,-0.0
 7763995,0.00000035,-0.06123208,-0.16235446,-0.00000036,-0.00000291,0.4
 6512236,0.00000112,0.00000066,0.01237071,-0.00000056,0.00000014,0.0123
 6919,0.,-0.00000034,-0.06341221,0.00000053,-0.00000069,0.09588175,-0.1
 2346031,-0.09710557,-0.00000226,-0.03150769,-0.01396138,0.00000033,-0.
 11682700,-0.01315262,0.00000019,-0.18923951,0.06123266,-0.00000019,0.7
 4540788,-0.08329850,-0.40896150,0.00000447,-0.07713182,-0.00011428,-0.
 00000041,0.01315376,-0.01095380,0.00000028,0.10626166,-0.16236122,-0.0
 0000039,0.18062059,0.72896632,-0.00000144,0.00000159,-0.05980310,0.000
 00039,0.00000007,0.01165422,0.00000019,0.00000026,0.01490533,-0.000001
 32,0.00000046,-0.06340817,0.00000168,-0.00000340,0.11602768,-0.1676294
 2,0.14574233,-0.00001644,-0.00611784,0.02350388,-0.00000156,-0.0066641
 3,-0.00107870,-0.00000020,0.00162292,-0.00441827,-0.00000072,0.0101987
 2,-0.00781374,0.00000082,0.16765066,0.14350503,-0.24855515,0.00002256,
 -0.00426631,0.00788861,-0.00000059,-0.00352523,-0.00126764,0.00000030,
 0.00085209,-0.00507416,0.00000055,0.02055595,-0.00915041,0.00000115,-0
 .15730043,0.25555668,-0.00001902,0.00002632,-0.02794700,0.00000125,-0.
 00000091,-0.00130009,0.00000050,0.00000078,0.00328933,-0.00000068,-0.0
 0000058,0.00918593,0.00000024,-0.00000178,-0.00267322,0.00001773,-0.00
 002368,0.02248917,-0.00611752,-0.02350303,0.00000010,-0.16769708,-0.14
 584376,0.00000019,0.01019976,0.00781533,-0.00000008,0.00162312,0.00441
 844,0.,-0.00666359,0.00107899,-0.00000005,0.00086667,0.00067794,-0.000
 00002,0.16771649,0.00426781,0.00789137,-0.00000003,-0.14360408,-0.2486
 4446,0.00000016,-0.02055807,-0.00915132,0.00000006,-0.00085147,-0.0050
 7363,0.,0.00352585,-0.00126726,-0.00000004,-0.00067792,-0.00010934,0.,
 0.15739876,0.25564286,0.00000057,0.00000026,-0.00130104,-0.00000057,0.
 00000026,-0.02792381,0.00000007,-0.00000019,-0.00267226,0.,0.00000019,
 0.00918654,-0.00000007,-0.00000019,0.00328973,0.00000019,-0.00000016,-
 0.00167349,-0.00000019,-0.00000016,0.02246580,0.00079893,0.00012220,0.
 00000004,0.00274808,-0.00138980,-0.00000003,-0.28816777,0.12747391,-0.
 00000003,-0.02632106,0.01037172,-0.00000011,0.00022474,-0.00545518,0.,
 0.00028170,0.00010429,0.,-0.00020940,0.00060340,-0.00000001,0.31138386
 ,0.00097873,-0.00536286,0.00000029,0.02191600,0.00257714,0.,0.13882281
 ,-0.13186029,-0.00000027,-0.02591607,0.01251448,0.00000001,-0.00295580
 ,-0.00433779,0.,0.00141043,0.00058448,-0.00000012,-0.00063241,0.000127
 13,0.,-0.13272718,0.12480270,-0.00000024,-0.00000031,0.00507310,0.0000
 0007,-0.00000002,0.00141450,-0.00000015,-0.00000023,-0.02250713,0.0000
 0031,0.00000004,-0.00608544,-0.00000023,0.00000023,0.00252207,0.000000
 09,0.00000017,0.00114503,0.,0.00000001,-0.00251637,0.00000012,0.000000
 10,0.01903775,0.00274506,0.00138949,0.00000006,0.00079887,-0.00012255,
 0.,0.00022612,0.00545493,-0.00000001,-0.02631125,-0.01037025,-0.000000
 06,-0.28813325,-0.12741575,-0.00000026,-0.00020928,-0.00060334,0.00000
 001,0.00028155,-0.00010429,0.00000001,-0.00073907,-0.00089653,0.000000
 01,0.31134126,-0.02191483,0.00257849,-0.00000008,-0.00097931,-0.005362
 07,0.00000003,0.00295491,-0.00433892,0.,0.02591182,0.01251577,0.000000
 05,-0.13875969,-0.13182005,-0.00000011,0.00063243,0.00012692,-0.000000
 03,-0.00141025,0.00058465,0.,0.00089664,0.00095501,0.,0.13266828,0.124
 76020,-0.00000045,-0.00000088,0.00141297,-0.00000005,0.00000012,0.0050
 7244,-0.00000012,0.00000003,0.00252224,-0.00000008,-0.00000028,-0.0060
 8831,0.00000031,0.00000118,-0.02251454,0.00000009,-0.00000030,-0.00251
 566,0.00000003,0.,0.00114490,0.00000004,0.,0.00191648,0.00000024,0.000
 00015,0.01904948\\0.00015748,0.00002784,0.00000528,-0.00010317,0.00007
 005,0.00000025,0.00003005,-0.00018398,-0.00000062,0.00000572,0.0002300
 5,-0.00000174,-0.00002648,-0.00021587,0.00000051,-0.00007655,0.0000630
 4,-0.00000425,0.00004580,0.00001802,0.00000032,0.00012446,-0.00000137,
 -0.00000022,-0.00015731,-0.00000779,0.00000048\\\@


 ADAM SMITH SAID, "THE REAL PRICE OF ANYTHING IS THE TOIL AND TROUBLE
 OF ACQUIRING IT."  BUT IN ALL UNDERTAKINGS WITH NATURE WE SHOULD FIRST
 READ CAREFULLY THE SMALL PRINT IN THE CONTRACT. THIS MIGHT DISCLOSE
 THAT THE REAL PRICE IS TO BE PAID BY THOSE WHO INHERIT THE DEPLETION
 AND DESPOILATION THAT FOLLOWS.
                               -- E. R. HARRISON IN "COSMOLOGY" (1980)
 Job cpu time:       0 days  0 hours 20 minutes 29.8 seconds.
 File lengths (MBytes):  RWF=     13 Int=      0 D2E=      0 Chk=      2 Scr=      1
 Normal termination of Gaussian 09 at Fri Jul 23 01:12:42 2021.
