 Entering Gaussian System, Link 0=g09
 Input=B3LYP6-31Gxx.Frag_176.gjf
 Output=B3LYP6-31Gxx.Frag_176.log
 Initial command:
 /public/home/users/caep010/software/Gaussian09/g09/l1.exe "/public/home/users/caep010/.cache/gau_scr/Gau-98438.inp" -scrdir="/public/home/users/caep010/.cache/gau_scr/"
 Entering Link 1 = /public/home/users/caep010/software/Gaussian09/g09/l1.exe PID=     98439.
  
 Copyright (c) 1988,1990,1992,1993,1995,1998,2003,2009,2015,
            Gaussian, Inc.  All Rights Reserved.
  
 This is part of the Gaussian(R) 09 program.  It is based on
 the Gaussian(R) 03 system (copyright 2003, Gaussian, Inc.),
 the Gaussian(R) 98 system (copyright 1998, Gaussian, Inc.),
 the Gaussian(R) 94 system (copyright 1995, Gaussian, Inc.),
 the Gaussian 92(TM) system (copyright 1992, Gaussian, Inc.),
 the Gaussian 90(TM) system (copyright 1990, Gaussian, Inc.),
 the Gaussian 88(TM) system (copyright 1988, Gaussian, Inc.),
 the Gaussian 86(TM) system (copyright 1986, Carnegie Mellon
 University), and the Gaussian 82(TM) system (copyright 1983,
 Carnegie Mellon University). Gaussian is a federally registered
 trademark of Gaussian, Inc.
  
 This software contains proprietary and confidential information,
 including trade secrets, belonging to Gaussian, Inc.
  
 This software is provided under written license and may be
 used, copied, transmitted, or stored only in accord with that
 written license.
  
 The following legend is applicable only to US Government
 contracts under FAR:
  
                    RESTRICTED RIGHTS LEGEND
  
 Use, reproduction and disclosure by the US Government is
 subject to restrictions as set forth in subparagraphs (a)
 and (c) of the Commercial Computer Software - Restricted
 Rights clause in FAR 52.227-19.
  
 Gaussian, Inc.
 340 Quinnipiac St., Bldg. 40, Wallingford CT 06492
  
  
 ---------------------------------------------------------------
 Warning -- This program may not be used in any manner that
 competes with the business of Gaussian, Inc. or will provide
 assistance to any competitor of Gaussian, Inc.  The licensee
 of this program is prohibited from giving any competitor of
 Gaussian, Inc. access to this program.  By using this program,
 the user acknowledges that Gaussian, Inc. is engaged in the
 business of creating and licensing software in the field of
 computational chemistry and represents and warrants to the
 licensee that it is not a competitor of Gaussian, Inc. and that
 it will not use this program in any manner prohibited above.
 ---------------------------------------------------------------
  

 Cite this work as:
 Gaussian 09, Revision E.01,
 M. J. Frisch, G. W. Trucks, H. B. Schlegel, G. E. Scuseria, 
 M. A. Robb, J. R. Cheeseman, G. Scalmani, V. Barone, B. Mennucci, 
 G. A. Petersson, H. Nakatsuji, M. Caricato, X. Li, H. P. Hratchian, 
 A. F. Izmaylov, J. Bloino, G. Zheng, J. L. Sonnenberg, M. Hada, 
 M. Ehara, K. Toyota, R. Fukuda, J. Hasegawa, M. Ishida, T. Nakajima, 
 Y. Honda, O. Kitao, H. Nakai, T. Vreven, J. A. Montgomery, Jr., 
 J. E. Peralta, F. Ogliaro, M. Bearpark, J. J. Heyd, E. Brothers, 
 K. N. Kudin, V. N. Staroverov, T. Keith, R. Kobayashi, J. Normand, 
 K. Raghavachari, A. Rendell, J. C. Burant, S. S. Iyengar, J. Tomasi, 
 M. Cossi, N. Rega, J. M. Millam, M. Klene, J. E. Knox, J. B. Cross, 
 V. Bakken, C. Adamo, J. Jaramillo, R. Gomperts, R. E. Stratmann, 
 O. Yazyev, A. J. Austin, R. Cammi, C. Pomelli, J. W. Ochterski, 
 R. L. Martin, K. Morokuma, V. G. Zakrzewski, G. A. Voth, 
 P. Salvador, J. J. Dannenberg, S. Dapprich, A. D. Daniels, 
 O. Farkas, J. B. Foresman, J. V. Ortiz, J. Cioslowski, 
 and D. J. Fox, Gaussian, Inc., Wallingford CT, 2013.
 
 ******************************************
 Gaussian 09:  ES64L-G09RevE.01 30-Nov-2015
                21-Aug-2021 
 ******************************************
 %nproc=32
 Will use up to   32 processors via shared memory.
 %mem=180GB
 -------------------------
 #P OPT Freq B3LYP/6-31G**
 -------------------------
 1/14=-1,18=20,19=15,26=3,38=1/1,3;
 2/9=110,12=2,17=6,18=5,40=1/2;
 3/5=1,6=6,7=101,11=2,16=1,25=1,30=1,71=1,74=-5/1,2,3;
 4//1;
 5/5=2,38=5/2;
 6/7=2,8=2,9=2,10=2,28=1/1;
 7//1,2,3,16;
 1/14=-1,18=20,19=15,26=3/3(2);
 2/9=110/2;
 99//99;
 2/9=110/2;
 3/5=1,6=6,7=101,11=2,16=1,25=1,30=1,71=1,74=-5/1,2,3;
 4/5=5,16=3,69=1/1;
 5/5=2,38=5/2;
 7//1,2,3,16;
 1/14=-1,18=20,19=15,26=3/3(-5);
 2/9=110/2;
 6/7=2,8=2,9=2,10=2,19=2,28=1/1;
 99/9=1/99;
 Leave Link    1 at Sat Aug 21 01:39:02 2021, MaxMem= 24159191040 cpu:         2.4
 (Enter /public/home/users/caep010/software/Gaussian09/g09/l101.exe)
 --------
 Frag_176
 --------
 Symbolic Z-matrix:
 Charge =  0 Multiplicity = 1
 C                     1.3395   -0.7137    0.064 
 C                     0.4988    0.522    -0.0382 
 N                     1.0702    1.6835    0.0118 
 N                    -0.9278    0.4272   -0.1644 
 N                    -1.5713   -0.8206   -0.2029 
 H                     1.1271   -1.2291    1.0237 
 H                     1.1061   -1.3972   -0.7789 
 H                     2.4211   -0.4617    0.0248 
 H                     0.5209    2.5699   -0.0464 
 H                    -1.4934    1.3012   -0.2673 
 H                    -1.504    -1.2324    0.7555 
 H                    -2.5872   -0.6493   -0.3816 
 
 NAtoms=     12 NQM=       12 NQMF=       0 NMMI=      0 NMMIF=      0
                NMic=       0 NMicF=      0.
                    Isotopes and Nuclear Properties:
 (Nuclear quadrupole moments (NQMom) in fm**2, nuclear magnetic moments (NMagM)
  in nuclear magnetons)

  Atom         1           2           3           4           5           6           7           8           9          10
 IAtWgt=          12          12          14          14          14           1           1           1           1           1
 AtmWgt=  12.0000000  12.0000000  14.0030740  14.0030740  14.0030740   1.0078250   1.0078250   1.0078250   1.0078250   1.0078250
 NucSpn=           0           0           2           2           2           1           1           1           1           1
 AtZEff=   0.0000000   0.0000000   0.0000000   0.0000000   0.0000000   0.0000000   0.0000000   0.0000000   0.0000000   0.0000000
 NQMom=    0.0000000   0.0000000   2.0440000   2.0440000   2.0440000   0.0000000   0.0000000   0.0000000   0.0000000   0.0000000
 NMagM=    0.0000000   0.0000000   0.4037610   0.4037610   0.4037610   2.7928460   2.7928460   2.7928460   2.7928460   2.7928460
 AtZNuc=   6.0000000   6.0000000   7.0000000   7.0000000   7.0000000   1.0000000   1.0000000   1.0000000   1.0000000   1.0000000

  Atom        11          12
 IAtWgt=           1           1
 AtmWgt=   1.0078250   1.0078250
 NucSpn=           1           1
 AtZEff=   0.0000000   0.0000000
 NQMom=    0.0000000   0.0000000
 NMagM=    2.7928460   2.7928460
 AtZNuc=   1.0000000   1.0000000
 Leave Link  101 at Sat Aug 21 01:39:03 2021, MaxMem= 24159191040 cpu:        10.7
 (Enter /public/home/users/caep010/software/Gaussian09/g09/l103.exe)

 GradGradGradGradGradGradGradGradGradGradGradGradGradGradGradGradGradGrad
 Berny optimization.
 Initialization pass.
                           ----------------------------
                           !    Initial Parameters    !
                           ! (Angstroms and Degrees)  !
 --------------------------                            --------------------------
 ! Name  Definition              Value          Derivative Info.                !
 --------------------------------------------------------------------------------
 ! R1    R(1,2)                  1.4981         estimate D2E/DX2                !
 ! R2    R(1,6)                  1.1099         estimate D2E/DX2                !
 ! R3    R(1,7)                  1.11           estimate D2E/DX2                !
 ! R4    R(1,8)                  1.1113         estimate D2E/DX2                !
 ! R5    R(2,3)                  1.2954         estimate D2E/DX2                !
 ! R6    R(2,4)                  1.4353         estimate D2E/DX2                !
 ! R7    R(3,9)                  1.0444         estimate D2E/DX2                !
 ! R8    R(4,5)                  1.4045         estimate D2E/DX2                !
 ! R9    R(4,10)                 1.0461         estimate D2E/DX2                !
 ! R10   R(5,11)                 1.0453         estimate D2E/DX2                !
 ! R11   R(5,12)                 1.0456         estimate D2E/DX2                !
 ! A1    A(2,1,6)              109.5512         estimate D2E/DX2                !
 ! A2    A(2,1,7)              109.762          estimate D2E/DX2                !
 ! A3    A(2,1,8)              110.9009         estimate D2E/DX2                !
 ! A4    A(6,1,7)              109.2952         estimate D2E/DX2                !
 ! A5    A(6,1,8)              108.7888         estimate D2E/DX2                !
 ! A6    A(7,1,8)              108.5121         estimate D2E/DX2                !
 ! A7    A(1,2,3)              119.3029         estimate D2E/DX2                !
 ! A8    A(1,2,4)              120.6177         estimate D2E/DX2                !
 ! A9    A(3,2,4)              120.0686         estimate D2E/DX2                !
 ! A10   A(2,3,9)              121.7913         estimate D2E/DX2                !
 ! A11   A(2,4,5)              121.0969         estimate D2E/DX2                !
 ! A12   A(2,4,10)             119.3966         estimate D2E/DX2                !
 ! A13   A(5,4,10)             119.4621         estimate D2E/DX2                !
 ! A14   A(4,5,11)             107.1799         estimate D2E/DX2                !
 ! A15   A(4,5,12)             107.7152         estimate D2E/DX2                !
 ! A16   A(11,5,12)            106.4865         estimate D2E/DX2                !
 ! D1    D(6,1,2,3)            111.6842         estimate D2E/DX2                !
 ! D2    D(6,1,2,4)            -67.1206         estimate D2E/DX2                !
 ! D3    D(7,1,2,3)           -128.3035         estimate D2E/DX2                !
 ! D4    D(7,1,2,4)             52.8916         estimate D2E/DX2                !
 ! D5    D(8,1,2,3)             -8.4135         estimate D2E/DX2                !
 ! D6    D(8,1,2,4)            172.7816         estimate D2E/DX2                !
 ! D7    D(1,2,3,9)           -179.4004         estimate D2E/DX2                !
 ! D8    D(4,2,3,9)             -0.5888         estimate D2E/DX2                !
 ! D9    D(1,2,4,5)             -0.3577         estimate D2E/DX2                !
 ! D10   D(1,2,4,10)          -177.9198         estimate D2E/DX2                !
 ! D11   D(3,2,4,5)           -179.1534         estimate D2E/DX2                !
 ! D12   D(3,2,4,10)             3.2844         estimate D2E/DX2                !
 ! D13   D(2,4,5,11)            70.6439         estimate D2E/DX2                !
 ! D14   D(2,4,5,12)          -175.1143         estimate D2E/DX2                !
 ! D15   D(10,4,5,11)         -111.7955         estimate D2E/DX2                !
 ! D16   D(10,4,5,12)            2.4463         estimate D2E/DX2                !
 --------------------------------------------------------------------------------
 Trust Radius=3.00D-01 FncErr=1.00D-07 GrdErr=1.00D-06
 Number of steps in this run=     53 maximum allowed number of steps=    100.
 GradGradGradGradGradGradGradGradGradGradGradGradGradGradGradGradGradGrad

 Leave Link  103 at Sat Aug 21 01:39:03 2021, MaxMem= 24159191040 cpu:         0.4
 (Enter /public/home/users/caep010/software/Gaussian09/g09/l202.exe)
                          Input orientation:                          
 ---------------------------------------------------------------------
 Center     Atomic      Atomic             Coordinates (Angstroms)
 Number     Number       Type             X           Y           Z
 ---------------------------------------------------------------------
      1          6           0        1.339500   -0.713700    0.064000
      2          6           0        0.498800    0.522000   -0.038200
      3          7           0        1.070200    1.683500    0.011800
      4          7           0       -0.927800    0.427200   -0.164400
      5          7           0       -1.571300   -0.820600   -0.202900
      6          1           0        1.127100   -1.229100    1.023700
      7          1           0        1.106100   -1.397200   -0.778900
      8          1           0        2.421100   -0.461700    0.024800
      9          1           0        0.520900    2.569900   -0.046400
     10          1           0       -1.493400    1.301200   -0.267300
     11          1           0       -1.504000   -1.232400    0.755500
     12          1           0       -2.587200   -0.649300   -0.381600
 ---------------------------------------------------------------------
                    Distance matrix (angstroms):
                    1          2          3          4          5
     1  C    0.000000
     2  C    1.498057   0.000000
     3  N    2.412844   1.295407   0.000000
     4  N    2.548425   1.435305   2.366715   0.000000
     5  N    2.924965   2.472856   3.646112   1.404485   0.000000
     6  H    1.109854   2.142135   3.083897   2.894395   2.992120
     7  H    1.110013   2.144943   3.180756   2.800499   2.798699
     8  H    1.111260   2.160294   2.535149   3.470025   4.014961
     9  H    3.385901   2.048036   1.044425   2.589173   3.987140
    10  H    3.492120   2.151395   2.606932   1.046120   2.124206
    11  H    2.971988   2.778324   3.960059   1.983052   1.045294
    12  H    3.952427   3.318624   4.355834   1.989884   1.045624
                    6          7          8          9         10
     6  H    0.000000
     7  H    1.810543   0.000000
     8  H    1.805863   1.802864   0.000000
     9  H    3.993118   4.076383   3.578607   0.000000
    10  H    3.864728   3.781600   4.303074   2.390774   0.000000
    11  H    2.644736   3.032188   4.066240   4.381866   2.732281
    12  H    4.013360   3.789151   5.028262   4.487304   2.239177
                   11         12
    11  H    0.000000
    12  H    1.675209   0.000000
 Stoichiometry    C2H7N3
 Framework group  C1[X(C2H7N3)]
 Deg. of freedom    30
 Full point group                 C1      NOp   1
 Largest Abelian subgroup         C1      NOp   1
 Largest concise Abelian subgroup C1      NOp   1
                         Standard orientation:                         
 ---------------------------------------------------------------------
 Center     Atomic      Atomic             Coordinates (Angstroms)
 Number     Number       Type             X           Y           Z
 ---------------------------------------------------------------------
      1          6           0       -0.798273    1.381356   -0.029380
      2          6           0       -0.589425   -0.101981   -0.012913
      3          7           0       -1.618881   -0.886659    0.037897
      4          7           0        0.735461   -0.653865   -0.027063
      5          7           0        1.867090    0.177173   -0.064098
      6          1           0       -0.431792    1.818620    0.922601
      7          1           0       -0.240119    1.829559   -0.877735
      8          1           0       -1.875377    1.628794   -0.145654
      9          1           0       -1.517971   -1.925953    0.060409
     10          1           0        0.858891   -1.692462   -0.048253
     11          1           0        1.937488    0.644661    0.868177
     12          1           0        2.709375   -0.436012   -0.152931
 ---------------------------------------------------------------------
 Rotational constants (GHZ):      8.5017394      4.0249795      2.8083449
 Leave Link  202 at Sat Aug 21 01:39:03 2021, MaxMem= 24159191040 cpu:         1.2
 (Enter /public/home/users/caep010/software/Gaussian09/g09/l301.exe)
 Standard basis: 6-31G(d,p) (6D, 7F)
 Ernie: Thresh=  0.10000D-02 Tol=  0.10000D-05 Strict=F.
 There are   110 symmetry adapted cartesian basis functions of A   symmetry.
 There are   110 symmetry adapted basis functions of A   symmetry.
   110 basis functions,   189 primitive gaussians,   110 cartesian basis functions
    20 alpha electrons       20 beta electrons
       nuclear repulsion energy       178.2329658995 Hartrees.
 IExCor=  402 DFT=T Ex+Corr=B3LYP ExCW=0 ScaHFX=  0.200000
 ScaDFX=  0.800000  0.720000  1.000000  0.810000 ScalE2=  1.000000  1.000000
 IRadAn=      0 IRanWt=     -1 IRanGd=            0 ICorTp=0 IEmpDi=  4
 NAtoms=   12 NActive=   12 NUniq=   12 SFac= 1.00D+00 NAtFMM=   60 NAOKFM=F Big=F
 Integral buffers will be    131072 words long.
 Raffenetti 2 integral format.
 Two-electron integral symmetry is turned on.
 Leave Link  301 at Sat Aug 21 01:39:03 2021, MaxMem= 24159191040 cpu:         1.7
 (Enter /public/home/users/caep010/software/Gaussian09/g09/l302.exe)
 NPDir=0 NMtPBC=     1 NCelOv=     1 NCel=       1 NClECP=     1 NCelD=      1
         NCelK=      1 NCelE2=     1 NClLst=     1 CellRange=     0.0.
 One-electron integrals computed using PRISM.
 NBasis=   110 RedAO= T EigKep=  3.42D-03  NBF=   110
 NBsUse=   110 1.00D-06 EigRej= -1.00D+00 NBFU=   110
 Precomputing XC quadrature grid using
 IXCGrd= 4 IRadAn=           0 IRanWt=          -1 IRanGd=           0 AccXCQ= 0.00D+00.
 Generated NRdTot=       0 NPtTot=           0 NUsed=           0 NTot=          32
 NSgBfM=   110   110   110   110   110 MxSgAt=    12 MxSgA2=    12.
 Leave Link  302 at Sat Aug 21 01:39:03 2021, MaxMem= 24159191040 cpu:        10.8
 (Enter /public/home/users/caep010/software/Gaussian09/g09/l303.exe)
 DipDrv:  MaxL=1.
 Leave Link  303 at Sat Aug 21 01:39:04 2021, MaxMem= 24159191040 cpu:         2.2
 (Enter /public/home/users/caep010/software/Gaussian09/g09/l401.exe)
 ExpMin= 1.61D-01 ExpMax= 4.17D+03 ExpMxC= 6.27D+02 IAcc=1 IRadAn=         1 AccDes= 0.00D+00
 Harris functional with IExCor=  402 and IRadAn=       1 diagonalized for initial guess.
 HarFok:  IExCor=  402 AccDes= 0.00D+00 IRadAn=         1 IDoV= 1 UseB2=F ITyADJ=14
 ICtDFT=  3500011 ScaDFX=  1.000000  1.000000  1.000000  1.000000
 FoFCou: FMM=F IPFlag=           0 FMFlag=      100000 FMFlg1=           0
         NFxFlg=           0 DoJE=T BraDBF=F KetDBF=T FulRan=T
         wScrn=  0.000000 ICntrl=     500 IOpCl=  0 I1Cent=   200000004 NGrid=           0
         NMat0=    1 NMatS0=      1 NMatT0=    0 NMatD0=    1 NMtDS0=    0 NMtDT0=    0
 Petite list used in FoFCou.
 Harris En= -244.641688519081    
 JPrj=0 DoOrth=F DoCkMO=F.
 Leave Link  401 at Sat Aug 21 01:39:04 2021, MaxMem= 24159191040 cpu:        10.9
 (Enter /public/home/users/caep010/software/Gaussian09/g09/l502.exe)
 Closed shell SCF:
 Using DIIS extrapolation, IDIIS=  1040.
 Integral symmetry usage will be decided dynamically.
 Keep R1 ints in memory in canonical form, NReq=19629370.
 IVT=       59205 IEndB=       59205 NGot= 24159191040 MDV= 24140493271
 LenX= 24140493271 LenY= 24140480730
 Requested convergence on RMS density matrix=1.00D-08 within 128 cycles.
 Requested convergence on MAX density matrix=1.00D-06.
 Requested convergence on             energy=1.00D-06.
 No special actions if energy rises.
 FoFCou: FMM=F IPFlag=           0 FMFlag=           0 FMFlg1=           0
         NFxFlg=           0 DoJE=F BraDBF=F KetDBF=F FulRan=T
         wScrn=  0.000000 ICntrl=     600 IOpCl=  0 I1Cent=           0 NGrid=           0
         NMat0=    1 NMatS0=   6105 NMatT0=    0 NMatD0=    1 NMtDS0=    0 NMtDT0=    0
 Symmetry not used in FoFCou.
 Integral accuracy reduced to 1.0D-05 until final iterations.

 Cycle   1  Pass 0  IDiag  1:
 E= -244.445781190047    
 DIIS: error= 2.50D-02 at cycle   1 NSaved=   1.
 NSaved= 1 IEnMin= 1 EnMin= -244.445781190047     IErMin= 1 ErrMin= 2.50D-02
 ErrMax= 2.50D-02  0.00D+00 EMaxC= 1.00D-01 BMatC= 1.89D-01 BMatP= 1.89D-01
 IDIUse=3 WtCom= 7.50D-01 WtEn= 2.50D-01
 Coeff-Com:  0.100D+01
 Coeff-En:   0.100D+01
 Coeff:      0.100D+01
 Gap=     0.251 Goal=   None    Shift=    0.000
 GapD=    0.251 DampG=1.000 DampE=0.500 DampFc=0.5000 IDamp=-1.
 Damping current iteration by 5.00D-01
 RMSDP=1.20D-02 MaxDP=2.83D-01              OVMax= 3.72D-01

 Cycle   2  Pass 0  IDiag  1:
 E= -244.495606979942     Delta-E=       -0.049825789894 Rises=F Damp=T
 DIIS: error= 1.30D-02 at cycle   2 NSaved=   2.
 NSaved= 2 IEnMin= 2 EnMin= -244.495606979942     IErMin= 2 ErrMin= 1.30D-02
 ErrMax= 1.30D-02  0.00D+00 EMaxC= 1.00D-01 BMatC= 2.63D-02 BMatP= 1.89D-01
 IDIUse=3 WtCom= 8.70D-01 WtEn= 1.30D-01
 Coeff-Com:  0.208D+00 0.792D+00
 Coeff-En:   0.347D+00 0.653D+00
 Coeff:      0.226D+00 0.774D+00
 Gap=     0.292 Goal=   None    Shift=    0.000
 RMSDP=3.77D-03 MaxDP=1.27D-01 DE=-4.98D-02 OVMax= 2.25D-01

 Cycle   3  Pass 0  IDiag  1:
 E= -244.603088628294     Delta-E=       -0.107481648352 Rises=F Damp=F
 DIIS: error= 1.01D-02 at cycle   3 NSaved=   3.
 NSaved= 3 IEnMin= 3 EnMin= -244.603088628294     IErMin= 3 ErrMin= 1.01D-02
 ErrMax= 1.01D-02  0.00D+00 EMaxC= 1.00D-01 BMatC= 2.47D-02 BMatP= 2.63D-02
 IDIUse=3 WtCom= 8.99D-01 WtEn= 1.01D-01
 Coeff-Com:  0.803D-01 0.487D+00 0.433D+00
 Coeff-En:   0.000D+00 0.000D+00 0.100D+01
 Coeff:      0.722D-01 0.438D+00 0.490D+00
 Gap=     0.236 Goal=   None    Shift=    0.000
 RMSDP=1.84D-03 MaxDP=4.39D-02 DE=-1.07D-01 OVMax= 8.91D-02

 Cycle   4  Pass 0  IDiag  1:
 E= -244.623485224975     Delta-E=       -0.020396596681 Rises=F Damp=F
 DIIS: error= 3.97D-03 at cycle   4 NSaved=   4.
 NSaved= 4 IEnMin= 4 EnMin= -244.623485224975     IErMin= 4 ErrMin= 3.97D-03
 ErrMax= 3.97D-03  0.00D+00 EMaxC= 1.00D-01 BMatC= 3.61D-03 BMatP= 2.47D-02
 IDIUse=3 WtCom= 9.60D-01 WtEn= 3.97D-02
 Coeff-Com:  0.579D-02 0.436D-01 0.281D+00 0.670D+00
 Coeff-En:   0.000D+00 0.000D+00 0.151D+00 0.849D+00
 Coeff:      0.556D-02 0.419D-01 0.276D+00 0.677D+00
 Gap=     0.232 Goal=   None    Shift=    0.000
 RMSDP=5.56D-04 MaxDP=1.37D-02 DE=-2.04D-02 OVMax= 2.13D-02

 Cycle   5  Pass 0  IDiag  1:
 E= -244.626706995155     Delta-E=       -0.003221770180 Rises=F Damp=F
 DIIS: error= 4.22D-04 at cycle   5 NSaved=   5.
 NSaved= 5 IEnMin= 5 EnMin= -244.626706995155     IErMin= 5 ErrMin= 4.22D-04
 ErrMax= 4.22D-04  0.00D+00 EMaxC= 1.00D-01 BMatC= 6.14D-05 BMatP= 3.61D-03
 IDIUse=3 WtCom= 9.96D-01 WtEn= 4.22D-03
 Coeff-Com:  0.241D-03-0.158D-03 0.982D-01 0.281D+00 0.621D+00
 Coeff-En:   0.000D+00 0.000D+00 0.000D+00 0.000D+00 0.100D+01
 Coeff:      0.240D-03-0.157D-03 0.978D-01 0.280D+00 0.622D+00
 Gap=     0.233 Goal=   None    Shift=    0.000
 RMSDP=8.40D-05 MaxDP=1.87D-03 DE=-3.22D-03 OVMax= 3.23D-03

 Cycle   6  Pass 0  IDiag  1:
 E= -244.626750333434     Delta-E=       -0.000043338279 Rises=F Damp=F
 DIIS: error= 2.37D-04 at cycle   6 NSaved=   6.
 NSaved= 6 IEnMin= 6 EnMin= -244.626750333434     IErMin= 6 ErrMin= 2.37D-04
 ErrMax= 2.37D-04  0.00D+00 EMaxC= 1.00D-01 BMatC= 1.26D-05 BMatP= 6.14D-05
 IDIUse=3 WtCom= 9.98D-01 WtEn= 2.37D-03
 Coeff-Com: -0.921D-04-0.483D-02 0.278D-01 0.859D-01 0.351D+00 0.540D+00
 Coeff-En:   0.000D+00 0.000D+00 0.000D+00 0.000D+00 0.155D+00 0.845D+00
 Coeff:     -0.919D-04-0.482D-02 0.277D-01 0.857D-01 0.351D+00 0.541D+00
 Gap=     0.233 Goal=   None    Shift=    0.000
 RMSDP=3.36D-05 MaxDP=6.33D-04 DE=-4.33D-05 OVMax= 6.99D-04

 Cycle   7  Pass 0  IDiag  1:
 E= -244.626761944764     Delta-E=       -0.000011611330 Rises=F Damp=F
 DIIS: error= 3.05D-05 at cycle   7 NSaved=   7.
 NSaved= 7 IEnMin= 7 EnMin= -244.626761944764     IErMin= 7 ErrMin= 3.05D-05
 ErrMax= 3.05D-05  0.00D+00 EMaxC= 1.00D-01 BMatC= 2.35D-07 BMatP= 1.26D-05
 IDIUse=1 WtCom= 1.00D+00 WtEn= 0.00D+00
 Coeff-Com:  0.247D-03-0.133D-02 0.286D-02 0.555D-02 0.540D-01 0.116D+00
 Coeff-Com:  0.823D+00
 Coeff:      0.247D-03-0.133D-02 0.286D-02 0.555D-02 0.540D-01 0.116D+00
 Coeff:      0.823D+00
 Gap=     0.233 Goal=   None    Shift=    0.000
 RMSDP=5.80D-06 MaxDP=1.30D-04 DE=-1.16D-05 OVMax= 1.95D-04

 Initial convergence to 1.0D-05 achieved.  Increase integral accuracy.
 Cycle   8  Pass 1  IDiag  1:
 E= -244.626802876954     Delta-E=       -0.000040932190 Rises=F Damp=F
 DIIS: error= 1.56D-05 at cycle   1 NSaved=   1.
 NSaved= 1 IEnMin= 1 EnMin= -244.626802876954     IErMin= 1 ErrMin= 1.56D-05
 ErrMax= 1.56D-05  0.00D+00 EMaxC= 1.00D-01 BMatC= 8.13D-08 BMatP= 8.13D-08
 IDIUse=1 WtCom= 1.00D+00 WtEn= 0.00D+00
 Coeff-Com:  0.100D+01
 Coeff:      0.100D+01
 Gap=     0.233 Goal=   None    Shift=    0.000
 RMSDP=5.80D-06 MaxDP=1.30D-04 DE=-4.09D-05 OVMax= 1.29D-04

 Cycle   9  Pass 1  IDiag  1:
 E= -244.626802827263     Delta-E=        0.000000049691 Rises=F Damp=F
 DIIS: error= 2.80D-05 at cycle   2 NSaved=   2.
 NSaved= 2 IEnMin= 1 EnMin= -244.626802876954     IErMin= 1 ErrMin= 1.56D-05
 ErrMax= 2.80D-05  0.00D+00 EMaxC= 1.00D-01 BMatC= 1.55D-07 BMatP= 8.13D-08
 IDIUse=1 WtCom= 1.00D+00 WtEn= 0.00D+00
 Coeff-Com:  0.586D+00 0.414D+00
 Coeff:      0.586D+00 0.414D+00
 Gap=     0.233 Goal=   None    Shift=    0.000
 RMSDP=2.98D-06 MaxDP=1.09D-04 DE= 4.97D-08 OVMax= 1.27D-04

 Cycle  10  Pass 1  IDiag  1:
 E= -244.626802951091     Delta-E=       -0.000000123828 Rises=F Damp=F
 DIIS: error= 4.95D-06 at cycle   3 NSaved=   3.
 NSaved= 3 IEnMin= 3 EnMin= -244.626802951091     IErMin= 3 ErrMin= 4.95D-06
 ErrMax= 4.95D-06  0.00D+00 EMaxC= 1.00D-01 BMatC= 3.45D-09 BMatP= 8.13D-08
 IDIUse=1 WtCom= 1.00D+00 WtEn= 0.00D+00
 Coeff-Com:  0.107D+00 0.149D+00 0.743D+00
 Coeff:      0.107D+00 0.149D+00 0.743D+00
 Gap=     0.233 Goal=   None    Shift=    0.000
 RMSDP=9.95D-07 MaxDP=2.63D-05 DE=-1.24D-07 OVMax= 4.12D-05

 Cycle  11  Pass 1  IDiag  1:
 E= -244.626802951129     Delta-E=       -0.000000000038 Rises=F Damp=F
 DIIS: error= 3.67D-06 at cycle   4 NSaved=   4.
 NSaved= 4 IEnMin= 4 EnMin= -244.626802951129     IErMin= 4 ErrMin= 3.67D-06
 ErrMax= 3.67D-06  0.00D+00 EMaxC= 1.00D-01 BMatC= 3.30D-09 BMatP= 3.45D-09
 IDIUse=1 WtCom= 1.00D+00 WtEn= 0.00D+00
 Coeff-Com: -0.153D-01 0.450D-01 0.552D+00 0.418D+00
 Coeff:     -0.153D-01 0.450D-01 0.552D+00 0.418D+00
 Gap=     0.233 Goal=   None    Shift=    0.000
 RMSDP=5.13D-07 MaxDP=1.55D-05 DE=-3.77D-11 OVMax= 2.38D-05

 Cycle  12  Pass 1  IDiag  1:
 E= -244.626802954102     Delta-E=       -0.000000002973 Rises=F Damp=F
 DIIS: error= 4.17D-07 at cycle   5 NSaved=   5.
 NSaved= 5 IEnMin= 5 EnMin= -244.626802954102     IErMin= 5 ErrMin= 4.17D-07
 ErrMax= 4.17D-07  0.00D+00 EMaxC= 1.00D-01 BMatC= 3.58D-11 BMatP= 3.30D-09
 IDIUse=1 WtCom= 1.00D+00 WtEn= 0.00D+00
 Coeff-Com: -0.103D-01 0.189D-01 0.248D+00 0.210D+00 0.533D+00
 Coeff:     -0.103D-01 0.189D-01 0.248D+00 0.210D+00 0.533D+00
 Gap=     0.233 Goal=   None    Shift=    0.000
 RMSDP=5.69D-08 MaxDP=1.13D-06 DE=-2.97D-09 OVMax= 1.55D-06

 Cycle  13  Pass 1  IDiag  1:
 E= -244.626802954132     Delta-E=       -0.000000000030 Rises=F Damp=F
 DIIS: error= 8.01D-08 at cycle   6 NSaved=   6.
 NSaved= 6 IEnMin= 6 EnMin= -244.626802954132     IErMin= 6 ErrMin= 8.01D-08
 ErrMax= 8.01D-08  0.00D+00 EMaxC= 1.00D-01 BMatC= 1.87D-12 BMatP= 3.58D-11
 IDIUse=1 WtCom= 1.00D+00 WtEn= 0.00D+00
 Coeff-Com: -0.261D-02 0.414D-02 0.486D-01 0.492D-01 0.215D+00 0.686D+00
 Coeff:     -0.261D-02 0.414D-02 0.486D-01 0.492D-01 0.215D+00 0.686D+00
 Gap=     0.233 Goal=   None    Shift=    0.000
 RMSDP=1.51D-08 MaxDP=3.07D-07 DE=-3.02D-11 OVMax= 3.17D-07

 Cycle  14  Pass 1  IDiag  1:
 E= -244.626802954137     Delta-E=       -0.000000000005 Rises=F Damp=F
 DIIS: error= 2.64D-08 at cycle   7 NSaved=   7.
 NSaved= 7 IEnMin= 7 EnMin= -244.626802954137     IErMin= 7 ErrMin= 2.64D-08
 ErrMax= 2.64D-08  0.00D+00 EMaxC= 1.00D-01 BMatC= 2.14D-13 BMatP= 1.87D-12
 IDIUse=1 WtCom= 1.00D+00 WtEn= 0.00D+00
 Coeff-Com: -0.204D-03 0.121D-03-0.287D-02 0.249D-02 0.389D-01 0.294D+00
 Coeff-Com:  0.667D+00
 Coeff:     -0.204D-03 0.121D-03-0.287D-02 0.249D-02 0.389D-01 0.294D+00
 Coeff:      0.667D+00
 Gap=     0.233 Goal=   None    Shift=    0.000
 RMSDP=4.85D-09 MaxDP=1.23D-07 DE=-5.17D-12 OVMax= 1.48D-07

 SCF Done:  E(RB3LYP) =  -244.626802954     A.U. after   14 cycles
            NFock= 14  Conv=0.48D-08     -V/T= 2.0109
 KE= 2.419866692887D+02 PE=-9.256931640988D+02 EE= 2.608467259565D+02
 Leave Link  502 at Sat Aug 21 01:39:05 2021, MaxMem= 24159191040 cpu:        32.1
 (Enter /public/home/users/caep010/software/Gaussian09/g09/l601.exe)
 Copying SCF densities to generalized density rwf, IOpCl= 0 IROHF=0.

 **********************************************************************

            Population analysis using the SCF density.

 **********************************************************************

 Orbital symmetries:
       Occupied  (A) (A) (A) (A) (A) (A) (A) (A) (A) (A) (A) (A)
                 (A) (A) (A) (A) (A) (A) (A) (A)
       Virtual   (A) (A) (A) (A) (A) (A) (A) (A) (A) (A) (A) (A)
                 (A) (A) (A) (A) (A) (A) (A) (A) (A) (A) (A) (A)
                 (A) (A) (A) (A) (A) (A) (A) (A) (A) (A) (A) (A)
                 (A) (A) (A) (A) (A) (A) (A) (A) (A) (A) (A) (A)
                 (A) (A) (A) (A) (A) (A) (A) (A) (A) (A) (A) (A)
                 (A) (A) (A) (A) (A) (A) (A) (A) (A) (A) (A) (A)
                 (A) (A) (A) (A) (A) (A) (A) (A) (A) (A) (A) (A)
                 (A) (A) (A) (A) (A) (A)
 The electronic state is 1-A.
 Alpha  occ. eigenvalues --  -14.37029 -14.36697 -14.27772 -10.25488 -10.18631
 Alpha  occ. eigenvalues --   -0.98087  -0.86996  -0.75212  -0.71897  -0.57275
 Alpha  occ. eigenvalues --   -0.52198  -0.50166  -0.46724  -0.42084  -0.39762
 Alpha  occ. eigenvalues --   -0.37879  -0.34616  -0.28234  -0.23012  -0.18956
 Alpha virt. eigenvalues --    0.04302   0.05264   0.07953   0.11369   0.13754
 Alpha virt. eigenvalues --    0.15278   0.17596   0.19499   0.20334   0.25027
 Alpha virt. eigenvalues --    0.32769   0.41634   0.54491   0.56175   0.57054
 Alpha virt. eigenvalues --    0.59405   0.61427   0.64092   0.67688   0.68585
 Alpha virt. eigenvalues --    0.72406   0.75196   0.77692   0.79504   0.82346
 Alpha virt. eigenvalues --    0.82507   0.84930   0.85877   0.88152   0.89082
 Alpha virt. eigenvalues --    0.92146   0.92775   0.99267   1.03975   1.17302
 Alpha virt. eigenvalues --    1.23431   1.27003   1.30555   1.34266   1.37267
 Alpha virt. eigenvalues --    1.41022   1.51942   1.63363   1.67132   1.75935
 Alpha virt. eigenvalues --    1.77090   1.79808   1.84502   1.92132   1.93162
 Alpha virt. eigenvalues --    1.96019   1.98227   2.03845   2.05237   2.10911
 Alpha virt. eigenvalues --    2.12307   2.17776   2.20533   2.23952   2.29426
 Alpha virt. eigenvalues --    2.31451   2.33261   2.36633   2.46839   2.48671
 Alpha virt. eigenvalues --    2.51489   2.51915   2.59951   2.63005   2.66257
 Alpha virt. eigenvalues --    2.70218   2.71232   2.82017   2.84445   2.86997
 Alpha virt. eigenvalues --    2.90236   2.99821   3.05387   3.18152   3.22140
 Alpha virt. eigenvalues --    3.34111   3.39751   3.39812   3.46133   3.50810
 Alpha virt. eigenvalues --    3.84963   4.01254   4.04948   4.29956   4.57960
          Condensed to atoms (all electrons):
               1          2          3          4          5          6
     1  C    5.034641   0.355283  -0.073499  -0.081136   0.006395   0.366692
     2  C    0.355283   4.446116   0.636303   0.278960  -0.039643  -0.029942
     3  N   -0.073499   0.636303   6.809134  -0.098952   0.004951  -0.000281
     4  N   -0.081136   0.278960  -0.098952   6.985020   0.144326   0.000720
     5  N    0.006395  -0.039643   0.004951   0.144326   6.702160  -0.000466
     6  H    0.366692  -0.029942  -0.000281   0.000720  -0.000466   0.602925
     7  H    0.367288  -0.028468   0.001236  -0.000280   0.003876  -0.029320
     8  H    0.363869  -0.018612   0.004769   0.004177   0.000141  -0.023918
     9  H    0.009651  -0.061680   0.303974  -0.016133   0.000445  -0.000284
    10  H    0.005272  -0.026381   0.001816   0.332204  -0.030535  -0.000135
    11  H   -0.000475  -0.002411   0.000051  -0.062846   0.321259   0.001571
    12  H   -0.000192   0.003770  -0.000254  -0.025409   0.324316   0.000033
               7          8          9         10         11         12
     1  C    0.367288   0.363869   0.009651   0.005272  -0.000475  -0.000192
     2  C   -0.028468  -0.018612  -0.061680  -0.026381  -0.002411   0.003770
     3  N    0.001236   0.004769   0.303974   0.001816   0.000051  -0.000254
     4  N   -0.000280   0.004177  -0.016133   0.332204  -0.062846  -0.025409
     5  N    0.003876   0.000141   0.000445  -0.030535   0.321259   0.324316
     6  H   -0.029320  -0.023918  -0.000284  -0.000135   0.001571   0.000033
     7  H    0.571649  -0.023165  -0.000285  -0.000012  -0.000328   0.000024
     8  H   -0.023165   0.548154  -0.000304  -0.000098  -0.000097  -0.000001
     9  H   -0.000285  -0.000304   0.556712   0.008063  -0.000031  -0.000050
    10  H   -0.000012  -0.000098   0.008063   0.465149   0.001953  -0.010621
    11  H   -0.000328  -0.000097  -0.000031   0.001953   0.522042  -0.032961
    12  H    0.000024  -0.000001  -0.000050  -0.010621  -0.032961   0.487923
 Mulliken charges:
               1
     1  C   -0.353790
     2  C    0.486703
     3  N   -0.589249
     4  N   -0.460652
     5  N   -0.437224
     6  H    0.112404
     7  H    0.137783
     8  H    0.145084
     9  H    0.199921
    10  H    0.253324
    11  H    0.252273
    12  H    0.253422
 Sum of Mulliken charges =  -0.00000
 Mulliken charges with hydrogens summed into heavy atoms:
               1
     1  C    0.041482
     2  C    0.486703
     3  N   -0.389328
     4  N   -0.207328
     5  N    0.068471
 Electronic spatial extent (au):  <R**2>=            457.7552
 Charge=             -0.0000 electrons
 Dipole moment (field-independent basis, Debye):
    X=              3.5052    Y=             -0.8630    Z=              1.0443  Tot=              3.7578
 Quadrupole moment (field-independent basis, Debye-Ang):
   XX=            -32.1557   YY=            -25.4607   ZZ=            -31.9872
   XY=             -4.2975   XZ=              2.3661   YZ=              1.2318
 Traceless Quadrupole moment (field-independent basis, Debye-Ang):
   XX=             -2.2878   YY=              4.4072   ZZ=             -2.1193
   XY=             -4.2975   XZ=              2.3661   YZ=              1.2318
 Octapole moment (field-independent basis, Debye-Ang**2):
  XXX=             33.8000  YYY=            -14.3171  ZZZ=              1.5260  XYY=              0.3520
  XXY=             -2.9769  XXZ=              3.4408  XZZ=              2.7606  YZZ=              1.3054
  YYZ=              0.5042  XYZ=              2.8861
 Hexadecapole moment (field-independent basis, Debye-Ang**3):
 XXXX=           -331.5119 YYYY=           -174.1255 ZZZZ=            -39.6962 XXXY=            -24.8414
 XXXZ=              8.3873 YYYX=              2.2015 YYYZ=              0.5558 ZZZX=              2.9285
 ZZZY=              1.4413 XXYY=            -80.8224 XXZZ=            -67.2083 YYZZ=            -38.8903
 XXYZ=              5.0149 YYXZ=              1.1316 ZZXY=              0.4102
 N-N= 1.782329658995D+02 E-N=-9.256931650242D+02  KE= 2.419866692887D+02
 No NMR shielding tensors so no spin-rotation constants.
 Leave Link  601 at Sat Aug 21 01:39:06 2021, MaxMem= 24159191040 cpu:        10.4
 (Enter /public/home/users/caep010/software/Gaussian09/g09/l701.exe)
 Compute integral first derivatives.
 ... and contract with generalized density number  0.
 Leave Link  701 at Sat Aug 21 01:39:06 2021, MaxMem= 24159191040 cpu:        10.5
 (Enter /public/home/users/caep010/software/Gaussian09/g09/l702.exe)
 L702 exits ... SP integral derivatives will be done elsewhere.
 Leave Link  702 at Sat Aug 21 01:39:06 2021, MaxMem= 24159191040 cpu:         0.5
 (Enter /public/home/users/caep010/software/Gaussian09/g09/l703.exe)
 Compute integral first derivatives, UseDBF=F ICtDFT=           0.
 Integral derivatives from FoFJK, PRISM(SPDF).
 Calling FoFJK, ICntrl=      2127 FMM=F ISym2X=0 I1Cent= 0 IOpClX= 0 NMat=1 NMatS=1 NMatT=0.
 FoFJK:  IHMeth= 1 ICntrl=    2127 DoSepK=F KAlg= 0 I1Cent=   0 FoldK=F
 IRaf=         0 NMat=   1 IRICut=       1 DoRegI=T DoRafI=F ISym2E= 0.
 FoFCou: FMM=F IPFlag=           0 FMFlag=      100000 FMFlg1=         800
         NFxFlg=           0 DoJE=F BraDBF=F KetDBF=F FulRan=T
         wScrn=  0.000000 ICntrl=    2127 IOpCl=  0 I1Cent=           0 NGrid=           0
         NMat0=    1 NMatS0=      1 NMatT0=    0 NMatD0=    1 NMtDS0=    0 NMtDT0=    0
 Symmetry not used in FoFCou.
 Leave Link  703 at Sat Aug 21 01:39:07 2021, MaxMem= 24159191040 cpu:         9.3
 (Enter /public/home/users/caep010/software/Gaussian09/g09/l716.exe)
 Dipole        = 1.37903335D+00-3.39520597D-01 4.10857664D-01
 ***** Axes restored to original set *****
 -------------------------------------------------------------------
 Center     Atomic                   Forces (Hartrees/Bohr)
 Number     Number              X              Y              Z
 -------------------------------------------------------------------
      1        6          -0.000160755   -0.012789844   -0.003095441
      2        6          -0.034935736    0.054745071   -0.008513906
      3        7           0.011748214   -0.003038768    0.001022385
      4        7           0.028771428    0.022016977    0.000456419
      5        7          -0.021970301   -0.018400903    0.011278112
      6        1           0.002465710    0.000088354   -0.008918817
      7        1           0.000590052    0.002781488    0.010026796
      8        1          -0.015716053    0.002081593    0.001782640
      9        1          -0.003216774   -0.025425451   -0.000051383
     10        1           0.019213231   -0.023535626    0.006458021
     11        1          -0.009115681    0.006586595   -0.013627542
     12        1           0.022326666   -0.005109486    0.003182717
 -------------------------------------------------------------------
 Cartesian Forces:  Max     0.054745071 RMS     0.016490726
 Leave Link  716 at Sat Aug 21 01:39:07 2021, MaxMem= 24159191040 cpu:         0.8
 (Enter /public/home/users/caep010/software/Gaussian09/g09/l103.exe)

 GradGradGradGradGradGradGradGradGradGradGradGradGradGradGradGradGradGrad
 Berny optimization.
 FormGI is forming the generalized inverse of G from B-inverse, IUseBI=4.
 Internal  Forces:  Max     0.038451089 RMS     0.013006415
 Search for a local minimum.
 Step number   1 out of a maximum of   53
 All quantities printed in internal units (Hartrees-Bohrs-Radians)
 RMS Force = .13006D-01 SwitMx=.10000D-02 MixMth= 1
 Mixed Optimization -- RFO/linear search
 Second derivative matrix not updated -- first step.
 ITU=  0
     Eigenvalues ---    0.00792   0.01225   0.01234   0.01235   0.01314
     Eigenvalues ---    0.03075   0.06493   0.07375   0.07491   0.15991
     Eigenvalues ---    0.16000   0.16000   0.16000   0.16000   0.16000
     Eigenvalues ---    0.16000   0.22002   0.24996   0.24998   0.32467
     Eigenvalues ---    0.32582   0.32599   0.32616   0.40236   0.40419
     Eigenvalues ---    0.40489   0.40536   0.40659   0.44885   0.68485
 RFO step:  Lambda=-2.37429698D-02 EMin= 7.91644991D-03
 Linear search not attempted -- first point.
 Iteration  1 RMS(Cart)=  0.07860221 RMS(Int)=  0.00382031
 Iteration  2 RMS(Cart)=  0.00419287 RMS(Int)=  0.00012393
 Iteration  3 RMS(Cart)=  0.00000965 RMS(Int)=  0.00012369
 Iteration  4 RMS(Cart)=  0.00000000 RMS(Int)=  0.00012369
 ITry= 1 IFail=0 DXMaxC= 2.16D-01 DCOld= 1.00D+10 DXMaxT= 3.00D-01 DXLimC= 3.00D+00 Rises=F
 Variable       Old X    -DE/DX   Delta X   Delta X   Delta X     New X
                                 (Linear)    (Quad)   (Total)
    R1        2.83092  -0.00074   0.00000  -0.00213  -0.00213   2.82879
    R2        2.09732  -0.00823   0.00000  -0.02351  -0.02351   2.07381
    R3        2.09762  -0.00945   0.00000  -0.02702  -0.02702   2.07060
    R4        2.09998  -0.01489   0.00000  -0.04273  -0.04273   2.05725
    R5        2.44797  -0.02172   0.00000  -0.03065  -0.03065   2.41731
    R6        2.71233  -0.03845   0.00000  -0.09024  -0.09024   2.62210
    R7        1.97368  -0.01988   0.00000  -0.04620  -0.04620   1.92747
    R8        2.65409   0.01903   0.00000   0.04026   0.04026   2.69435
    R9        1.97688  -0.03069   0.00000  -0.07171  -0.07171   1.90517
   R10        1.97532  -0.01567   0.00000  -0.03653  -0.03653   1.93879
   R11        1.97594  -0.02307   0.00000  -0.05383  -0.05383   1.92211
    A1        1.91203   0.00573   0.00000   0.02950   0.02950   1.94153
    A2        1.91571   0.00369   0.00000   0.02153   0.02151   1.93722
    A3        1.93559  -0.00916   0.00000  -0.04960  -0.04932   1.88627
    A4        1.90756  -0.00487   0.00000  -0.02699  -0.02726   1.88030
    A5        1.89872   0.00095   0.00000   0.00243   0.00272   1.90144
    A6        1.89389   0.00360   0.00000   0.02278   0.02305   1.91694
    A7        2.08223   0.00371   0.00000   0.01355   0.01355   2.09578
    A8        2.10518  -0.02519   0.00000  -0.09202  -0.09202   2.01315
    A9        2.09559   0.02148   0.00000   0.07849   0.07849   2.17409
   A10        2.12566  -0.03191   0.00000  -0.17368  -0.17368   1.95198
   A11        2.11354   0.00462   0.00000   0.01877   0.01870   2.13224
   A12        2.08386  -0.00594   0.00000  -0.02952  -0.02959   2.05428
   A13        2.08501   0.00130   0.00000   0.00991   0.00982   2.09483
   A14        1.87064   0.00499   0.00000   0.02348   0.02350   1.89414
   A15        1.87999   0.00072   0.00000   0.00027   0.00029   1.88028
   A16        1.85854  -0.00445   0.00000  -0.03296  -0.03291   1.82563
    D1        1.94926  -0.00016   0.00000  -0.00201  -0.00224   1.94702
    D2       -1.17148  -0.00036   0.00000  -0.00386  -0.00408  -1.17556
    D3       -2.23932  -0.00031   0.00000  -0.00360  -0.00339  -2.24271
    D4        0.92313  -0.00052   0.00000  -0.00545  -0.00523   0.91790
    D5       -0.14684   0.00074   0.00000   0.00722   0.00723  -0.13961
    D6        3.01561   0.00054   0.00000   0.00537   0.00539   3.02100
    D7       -3.13113   0.00029   0.00000   0.00214   0.00209  -3.12903
    D8       -0.01028  -0.00007   0.00000   0.00191   0.00196  -0.00831
    D9       -0.00624  -0.00018   0.00000  -0.00531  -0.00520  -0.01144
   D10       -3.10529   0.00057   0.00000   0.01760   0.01745  -3.08783
   D11       -3.12682  -0.00017   0.00000  -0.00638  -0.00623  -3.13305
   D12        0.05732   0.00058   0.00000   0.01652   0.01642   0.07374
   D13        1.23297   0.00549   0.00000   0.13195   0.13209   1.36506
   D14       -3.05632   0.00314   0.00000   0.10548   0.10558  -2.95074
   D15       -1.95120   0.00457   0.00000   0.10808   0.10799  -1.84321
   D16        0.04270   0.00222   0.00000   0.08162   0.08148   0.12417
         Item               Value     Threshold  Converged?
 Maximum Force            0.038451     0.000450     NO 
 RMS     Force            0.013006     0.000300     NO 
 Maximum Displacement     0.216467     0.001800     NO 
 RMS     Displacement     0.079640     0.001200     NO 
 Predicted change in Energy=-1.336737D-02
 Lowest energy point so far.  Saving SCF results.
 GradGradGradGradGradGradGradGradGradGradGradGradGradGradGradGradGradGrad

 Leave Link  103 at Sat Aug 21 01:39:07 2021, MaxMem= 24159191040 cpu:         1.9
 (Enter /public/home/users/caep010/software/Gaussian09/g09/l202.exe)
                          Input orientation:                          
 ---------------------------------------------------------------------
 Center     Atomic      Atomic             Coordinates (Angstroms)
 Number     Number       Type             X           Y           Z
 ---------------------------------------------------------------------
      1          6           0        1.279082   -0.696406    0.052664
      2          6           0        0.505978    0.582427   -0.035086
      3          7           0        1.117093    1.705339    0.008755
      4          7           0       -0.870233    0.438633   -0.138388
      5          7           0       -1.499358   -0.840384   -0.172946
      6          1           0        1.075768   -1.220023    0.995428
      7          1           0        1.014490   -1.372214   -0.768228
      8          1           0        2.339334   -0.454127    0.004468
      9          1           0        0.470296    2.491868   -0.049326
     10          1           0       -1.421994    1.275338   -0.247470
     11          1           0       -1.537805   -1.210703    0.783080
     12          1           0       -2.472651   -0.699949   -0.432851
 ---------------------------------------------------------------------
                    Distance matrix (angstroms):
                    1          2          3          4          5
     1  C    0.000000
     2  C    1.496931   0.000000
     3  N    2.407602   1.279186   0.000000
     4  N    2.438108   1.387553   2.361284   0.000000
     5  N    2.791300   2.462675   3.655070   1.425790   0.000000
     6  H    1.097413   2.153008   3.087551   2.797069   2.853156
     7  H    1.095713   2.148651   3.175778   2.688503   2.637544
     8  H    1.088649   2.106468   2.481368   3.334479   3.862153
     9  H    3.290840   1.909827   1.019974   2.453716   3.872818
    10  H    3.357628   2.059687   2.587956   1.008174   2.118446
    11  H    2.955142   2.839323   4.018876   2.003762   1.025964
    12  H    3.783019   3.267251   4.343580   1.987667   1.017139
                    6          7          8          9         10
     6  H    0.000000
     7  H    1.771270   0.000000
     8  H    1.779100   1.787499   0.000000
     9  H    3.903362   3.967883   3.489282   0.000000
    10  H    3.743051   3.635544   4.147543   2.258311   0.000000
    11  H    2.622202   2.991129   4.026270   4.293530   2.693667
    12  H    3.860276   3.567152   4.838065   4.358408   2.244995
                   11         12
    11  H    0.000000
    12  H    1.616569   0.000000
 Stoichiometry    C2H7N3
 Framework group  C1[X(C2H7N3)]
 Deg. of freedom    30
 Full point group                 C1      NOp   1
 RotChk:  IX=0 Diff= 1.10D-01
 Largest Abelian subgroup         C1      NOp   1
 Largest concise Abelian subgroup C1      NOp   1
                         Standard orientation:                         
 ---------------------------------------------------------------------
 Center     Atomic      Atomic             Coordinates (Angstroms)
 Number     Number       Type             X           Y           Z
 ---------------------------------------------------------------------
      1          6           0       -0.622298    1.392273   -0.030809
      2          6           0       -0.609542   -0.104461   -0.010167
      3          7           0       -1.710398   -0.754438    0.034119
      4          7           0        0.649365   -0.687891   -0.018291
      5          7           0        1.845162    0.087573   -0.058305
      6          1           0       -0.219731    1.806215    0.902415
      7          1           0       -0.014752    1.778686   -0.856739
      8          1           0       -1.654066    1.719700   -0.146582
      9          1           0       -1.555373   -1.762341    0.055242
     10          1           0        0.699318   -1.694231   -0.052917
     11          1           0        2.027250    0.454693    0.882263
     12          1           0        2.619493   -0.546299   -0.240483
 ---------------------------------------------------------------------
 Rotational constants (GHZ):      8.9494442      4.1096807      2.8969361
 Leave Link  202 at Sat Aug 21 01:39:07 2021, MaxMem= 24159191040 cpu:         0.2
 (Enter /public/home/users/caep010/software/Gaussian09/g09/l301.exe)
 Standard basis: 6-31G(d,p) (6D, 7F)
 Ernie: Thresh=  0.10000D-02 Tol=  0.10000D-05 Strict=F.
 There are   110 symmetry adapted cartesian basis functions of A   symmetry.
 There are   110 symmetry adapted basis functions of A   symmetry.
   110 basis functions,   189 primitive gaussians,   110 cartesian basis functions
    20 alpha electrons       20 beta electrons
       nuclear repulsion energy       180.8957989053 Hartrees.
 IExCor=  402 DFT=T Ex+Corr=B3LYP ExCW=0 ScaHFX=  0.200000
 ScaDFX=  0.800000  0.720000  1.000000  0.810000 ScalE2=  1.000000  1.000000
 IRadAn=      0 IRanWt=     -1 IRanGd=            0 ICorTp=0 IEmpDi=  4
 NAtoms=   12 NActive=   12 NUniq=   12 SFac= 1.00D+00 NAtFMM=   60 NAOKFM=F Big=F
 Integral buffers will be    131072 words long.
 Raffenetti 2 integral format.
 Two-electron integral symmetry is turned on.
 Leave Link  301 at Sat Aug 21 01:39:07 2021, MaxMem= 24159191040 cpu:         1.8
 (Enter /public/home/users/caep010/software/Gaussian09/g09/l302.exe)
 NPDir=0 NMtPBC=     1 NCelOv=     1 NCel=       1 NClECP=     1 NCelD=      1
         NCelK=      1 NCelE2=     1 NClLst=     1 CellRange=     0.0.
 One-electron integrals computed using PRISM.
 NBasis=   110 RedAO= T EigKep=  2.80D-03  NBF=   110
 NBsUse=   110 1.00D-06 EigRej= -1.00D+00 NBFU=   110
 Precomputing XC quadrature grid using
 IXCGrd= 4 IRadAn=           0 IRanWt=          -1 IRanGd=           0 AccXCQ= 0.00D+00.
 Generated NRdTot=       0 NPtTot=           0 NUsed=           0 NTot=          32
 NSgBfM=   110   110   110   110   110 MxSgAt=    12 MxSgA2=    12.
 Leave Link  302 at Sat Aug 21 01:39:07 2021, MaxMem= 24159191040 cpu:        11.1
 (Enter /public/home/users/caep010/software/Gaussian09/g09/l303.exe)
 DipDrv:  MaxL=1.
 Leave Link  303 at Sat Aug 21 01:39:08 2021, MaxMem= 24159191040 cpu:         0.6
 (Enter /public/home/users/caep010/software/Gaussian09/g09/l401.exe)
 Initial guess from the checkpoint file:  "/public/home/users/caep010/.cache/gau_scr/Gau-98439.chk"
 B after Tr=     0.000000    0.000000   -0.000000
         Rot=    0.999281   -0.001052   -0.000521    0.037886 Ang=  -4.34 deg.
 Guess basis will be translated and rotated to current coordinates.
 JPrj=2 DoOrth=T DoCkMO=T.
 Generating alternative initial guess.
 ExpMin= 1.61D-01 ExpMax= 4.17D+03 ExpMxC= 6.27D+02 IAcc=1 IRadAn=         1 AccDes= 0.00D+00
 Harris functional with IExCor=  402 and IRadAn=       1 diagonalized for initial guess.
 HarFok:  IExCor=  402 AccDes= 0.00D+00 IRadAn=         1 IDoV= 1 UseB2=F ITyADJ=14
 ICtDFT=  3500011 ScaDFX=  1.000000  1.000000  1.000000  1.000000
 FoFCou: FMM=F IPFlag=           0 FMFlag=      100000 FMFlg1=           0
         NFxFlg=           0 DoJE=T BraDBF=F KetDBF=T FulRan=T
         wScrn=  0.000000 ICntrl=     500 IOpCl=  0 I1Cent=   200000004 NGrid=           0
         NMat0=    1 NMatS0=      1 NMatT0=    0 NMatD0=    1 NMtDS0=    0 NMtDT0=    0
 Petite list used in FoFCou.
 Harris En= -244.661257393237    
 Leave Link  401 at Sat Aug 21 01:39:08 2021, MaxMem= 24159191040 cpu:        13.8
 (Enter /public/home/users/caep010/software/Gaussian09/g09/l502.exe)
 Closed shell SCF:
 Using DIIS extrapolation, IDIIS=  1040.
 Integral symmetry usage will be decided dynamically.
 Keep R1 ints in memory in canonical form, NReq=19629370.
 IVT=       59205 IEndB=       59205 NGot= 24159191040 MDV= 24140493271
 LenX= 24140493271 LenY= 24140480730
 Requested convergence on RMS density matrix=1.00D-08 within 128 cycles.
 Requested convergence on MAX density matrix=1.00D-06.
 Requested convergence on             energy=1.00D-06.
 No special actions if energy rises.
 FoFCou: FMM=F IPFlag=           0 FMFlag=           0 FMFlg1=           0
         NFxFlg=           0 DoJE=F BraDBF=F KetDBF=F FulRan=T
         wScrn=  0.000000 ICntrl=     600 IOpCl=  0 I1Cent=           0 NGrid=           0
         NMat0=    1 NMatS0=   6105 NMatT0=    0 NMatD0=    1 NMtDS0=    0 NMtDT0=    0
 Symmetry not used in FoFCou.
 Integral accuracy reduced to 1.0D-05 until final iterations.

 Cycle   1  Pass 0  IDiag  1:
 E= -244.633351204411    
 DIIS: error= 4.05D-03 at cycle   1 NSaved=   1.
 NSaved= 1 IEnMin= 1 EnMin= -244.633351204411     IErMin= 1 ErrMin= 4.05D-03
 ErrMax= 4.05D-03  0.00D+00 EMaxC= 1.00D-01 BMatC= 4.44D-03 BMatP= 4.44D-03
 IDIUse=3 WtCom= 9.60D-01 WtEn= 4.05D-02
 Coeff-Com:  0.100D+01
 Coeff-En:   0.100D+01
 Coeff:      0.100D+01
 Gap=     1.969 Goal=   None    Shift=    0.000
 GapD=    1.969 DampG=2.000 DampE=1.000 DampFc=2.0000 IDamp=-1.
 RMSDP=1.11D-03 MaxDP=1.61D-02              OVMax= 1.97D-02

 Cycle   2  Pass 0  IDiag  1:
 E= -244.639415540747     Delta-E=       -0.006064336335 Rises=F Damp=F
 DIIS: error= 1.06D-03 at cycle   2 NSaved=   2.
 NSaved= 2 IEnMin= 2 EnMin= -244.639415540747     IErMin= 2 ErrMin= 1.06D-03
 ErrMax= 1.06D-03  0.00D+00 EMaxC= 1.00D-01 BMatC= 3.03D-04 BMatP= 4.44D-03
 IDIUse=3 WtCom= 9.89D-01 WtEn= 1.06D-02
 Coeff-Com:  0.772D-01 0.923D+00
 Coeff-En:   0.000D+00 0.100D+01
 Coeff:      0.764D-01 0.924D+00
 Gap=     0.253 Goal=   None    Shift=    0.000
 RMSDP=3.00D-04 MaxDP=6.71D-03 DE=-6.06D-03 OVMax= 6.45D-03

 Cycle   3  Pass 0  IDiag  1:
 E= -244.639470809069     Delta-E=       -0.000055268323 Rises=F Damp=F
 DIIS: error= 1.00D-03 at cycle   3 NSaved=   3.
 NSaved= 3 IEnMin= 3 EnMin= -244.639470809069     IErMin= 3 ErrMin= 1.00D-03
 ErrMax= 1.00D-03  0.00D+00 EMaxC= 1.00D-01 BMatC= 2.73D-04 BMatP= 3.03D-04
 IDIUse=3 WtCom= 9.90D-01 WtEn= 1.00D-02
 Coeff-Com: -0.188D-01 0.490D+00 0.529D+00
 Coeff-En:   0.000D+00 0.445D+00 0.555D+00
 Coeff:     -0.186D-01 0.490D+00 0.529D+00
 Gap=     0.255 Goal=   None    Shift=    0.000
 RMSDP=1.62D-04 MaxDP=3.36D-03 DE=-5.53D-05 OVMax= 3.39D-03

 Cycle   4  Pass 0  IDiag  1:
 E= -244.639704267488     Delta-E=       -0.000233458418 Rises=F Damp=F
 DIIS: error= 1.84D-04 at cycle   4 NSaved=   4.
 NSaved= 4 IEnMin= 4 EnMin= -244.639704267488     IErMin= 4 ErrMin= 1.84D-04
 ErrMax= 1.84D-04  0.00D+00 EMaxC= 1.00D-01 BMatC= 8.08D-06 BMatP= 2.73D-04
 IDIUse=3 WtCom= 9.98D-01 WtEn= 1.84D-03
 Coeff-Com: -0.122D-01 0.173D+00 0.235D+00 0.604D+00
 Coeff-En:   0.000D+00 0.000D+00 0.000D+00 0.100D+01
 Coeff:     -0.122D-01 0.173D+00 0.234D+00 0.605D+00
 Gap=     0.254 Goal=   None    Shift=    0.000
 RMSDP=2.94D-05 MaxDP=7.07D-04 DE=-2.33D-04 OVMax= 9.22D-04

 Cycle   5  Pass 0  IDiag  1:
 E= -244.639709484167     Delta-E=       -0.000005216680 Rises=F Damp=F
 DIIS: error= 8.19D-05 at cycle   5 NSaved=   5.
 NSaved= 5 IEnMin= 5 EnMin= -244.639709484167     IErMin= 5 ErrMin= 8.19D-05
 ErrMax= 8.19D-05  0.00D+00 EMaxC= 1.00D-01 BMatC= 1.67D-06 BMatP= 8.08D-06
 IDIUse=1 WtCom= 1.00D+00 WtEn= 0.00D+00
 Coeff-Com: -0.521D-02 0.577D-01 0.894D-01 0.353D+00 0.505D+00
 Coeff:     -0.521D-02 0.577D-01 0.894D-01 0.353D+00 0.505D+00
 Gap=     0.254 Goal=   None    Shift=    0.000
 RMSDP=1.38D-05 MaxDP=3.46D-04 DE=-5.22D-06 OVMax= 5.38D-04

 Cycle   6  Pass 0  IDiag  1:
 E= -244.639710851935     Delta-E=       -0.000001367767 Rises=F Damp=F
 DIIS: error= 3.49D-05 at cycle   6 NSaved=   6.
 NSaved= 6 IEnMin= 6 EnMin= -244.639710851935     IErMin= 6 ErrMin= 3.49D-05
 ErrMax= 3.49D-05  0.00D+00 EMaxC= 1.00D-01 BMatC= 2.02D-07 BMatP= 1.67D-06
 IDIUse=1 WtCom= 1.00D+00 WtEn= 0.00D+00
 Coeff-Com: -0.150D-02 0.109D-01 0.215D-01 0.126D+00 0.299D+00 0.544D+00
 Coeff:     -0.150D-02 0.109D-01 0.215D-01 0.126D+00 0.299D+00 0.544D+00
 Gap=     0.254 Goal=   None    Shift=    0.000
 RMSDP=5.09D-06 MaxDP=1.25D-04 DE=-1.37D-06 OVMax= 2.49D-04

 Initial convergence to 1.0D-05 achieved.  Increase integral accuracy.
 Cycle   7  Pass 1  IDiag  1:
 E= -244.639720168403     Delta-E=       -0.000009316468 Rises=F Damp=F
 DIIS: error= 1.19D-05 at cycle   1 NSaved=   1.
 NSaved= 1 IEnMin= 1 EnMin= -244.639720168403     IErMin= 1 ErrMin= 1.19D-05
 ErrMax= 1.19D-05  0.00D+00 EMaxC= 1.00D-01 BMatC= 4.88D-08 BMatP= 4.88D-08
 IDIUse=1 WtCom= 1.00D+00 WtEn= 0.00D+00
 Coeff-Com:  0.100D+01
 Coeff:      0.100D+01
 Gap=     0.254 Goal=   None    Shift=    0.000
 RMSDP=5.09D-06 MaxDP=1.25D-04 DE=-9.32D-06 OVMax= 1.81D-04

 Cycle   8  Pass 1  IDiag  1:
 E= -244.639720141006     Delta-E=        0.000000027397 Rises=F Damp=F
 DIIS: error= 2.58D-05 at cycle   2 NSaved=   2.
 NSaved= 2 IEnMin= 1 EnMin= -244.639720168403     IErMin= 1 ErrMin= 1.19D-05
 ErrMax= 2.58D-05  0.00D+00 EMaxC= 1.00D-01 BMatC= 9.18D-08 BMatP= 4.88D-08
 IDIUse=1 WtCom= 1.00D+00 WtEn= 0.00D+00
 Coeff-Com:  0.590D+00 0.410D+00
 Coeff:      0.590D+00 0.410D+00
 Gap=     0.254 Goal=   None    Shift=    0.000
 RMSDP=3.23D-06 MaxDP=7.96D-05 DE= 2.74D-08 OVMax= 1.46D-04

 Cycle   9  Pass 1  IDiag  1:
 E= -244.639720215300     Delta-E=       -0.000000074294 Rises=F Damp=F
 DIIS: error= 5.36D-06 at cycle   3 NSaved=   3.
 NSaved= 3 IEnMin= 3 EnMin= -244.639720215300     IErMin= 3 ErrMin= 5.36D-06
 ErrMax= 5.36D-06  0.00D+00 EMaxC= 1.00D-01 BMatC= 5.81D-09 BMatP= 4.88D-08
 IDIUse=1 WtCom= 1.00D+00 WtEn= 0.00D+00
 Coeff-Com:  0.110D+00 0.207D+00 0.683D+00
 Coeff:      0.110D+00 0.207D+00 0.683D+00
 Gap=     0.254 Goal=   None    Shift=    0.000
 RMSDP=9.48D-07 MaxDP=2.44D-05 DE=-7.43D-08 OVMax= 4.12D-05

 Cycle  10  Pass 1  IDiag  1:
 E= -244.639720218896     Delta-E=       -0.000000003596 Rises=F Damp=F
 DIIS: error= 2.73D-06 at cycle   4 NSaved=   4.
 NSaved= 4 IEnMin= 4 EnMin= -244.639720218896     IErMin= 4 ErrMin= 2.73D-06
 ErrMax= 2.73D-06  0.00D+00 EMaxC= 1.00D-01 BMatC= 1.84D-09 BMatP= 5.81D-09
 IDIUse=1 WtCom= 1.00D+00 WtEn= 0.00D+00
 Coeff-Com: -0.155D-01 0.725D-01 0.445D+00 0.498D+00
 Coeff:     -0.155D-01 0.725D-01 0.445D+00 0.498D+00
 Gap=     0.254 Goal=   None    Shift=    0.000
 RMSDP=3.49D-07 MaxDP=9.47D-06 DE=-3.60D-09 OVMax= 1.23D-05

 Cycle  11  Pass 1  IDiag  1:
 E= -244.639720220562     Delta-E=       -0.000000001667 Rises=F Damp=F
 DIIS: error= 3.53D-07 at cycle   5 NSaved=   5.
 NSaved= 5 IEnMin= 5 EnMin= -244.639720220562     IErMin= 5 ErrMin= 3.53D-07
 ErrMax= 3.53D-07  0.00D+00 EMaxC= 1.00D-01 BMatC= 3.07D-11 BMatP= 1.84D-09
 IDIUse=1 WtCom= 1.00D+00 WtEn= 0.00D+00
 Coeff-Com: -0.103D-01 0.297D-01 0.202D+00 0.245D+00 0.534D+00
 Coeff:     -0.103D-01 0.297D-01 0.202D+00 0.245D+00 0.534D+00
 Gap=     0.254 Goal=   None    Shift=    0.000
 RMSDP=5.64D-08 MaxDP=1.09D-06 DE=-1.67D-09 OVMax= 1.16D-06

 Cycle  12  Pass 1  IDiag  1:
 E= -244.639720220585     Delta-E=       -0.000000000022 Rises=F Damp=F
 DIIS: error= 6.87D-08 at cycle   6 NSaved=   6.
 NSaved= 6 IEnMin= 6 EnMin= -244.639720220585     IErMin= 6 ErrMin= 6.87D-08
 ErrMax= 6.87D-08  0.00D+00 EMaxC= 1.00D-01 BMatC= 1.26D-12 BMatP= 3.07D-11
 IDIUse=1 WtCom= 1.00D+00 WtEn= 0.00D+00
 Coeff-Com: -0.303D-02 0.665D-02 0.505D-01 0.641D-01 0.218D+00 0.664D+00
 Coeff:     -0.303D-02 0.665D-02 0.505D-01 0.641D-01 0.218D+00 0.664D+00
 Gap=     0.254 Goal=   None    Shift=    0.000
 RMSDP=1.25D-08 MaxDP=2.25D-07 DE=-2.23D-11 OVMax= 2.52D-07

 Cycle  13  Pass 1  IDiag  1:
 E= -244.639720220588     Delta-E=       -0.000000000004 Rises=F Damp=F
 DIIS: error= 8.93D-09 at cycle   7 NSaved=   7.
 NSaved= 7 IEnMin= 7 EnMin= -244.639720220588     IErMin= 7 ErrMin= 8.93D-09
 ErrMax= 8.93D-09  0.00D+00 EMaxC= 1.00D-01 BMatC= 2.66D-14 BMatP= 1.26D-12
 IDIUse=1 WtCom= 1.00D+00 WtEn= 0.00D+00
 Coeff-Com:  0.617D-05-0.583D-03-0.263D-02-0.243D-02 0.869D-02 0.143D+00
 Coeff-Com:  0.854D+00
 Coeff:      0.617D-05-0.583D-03-0.263D-02-0.243D-02 0.869D-02 0.143D+00
 Coeff:      0.854D+00
 Gap=     0.254 Goal=   None    Shift=    0.000
 RMSDP=2.14D-09 MaxDP=3.01D-08 DE=-3.81D-12 OVMax= 4.44D-08

 SCF Done:  E(RB3LYP) =  -244.639720221     A.U. after   13 cycles
            NFock= 13  Conv=0.21D-08     -V/T= 2.0094
 KE= 2.423602778386D+02 PE=-9.311960810497D+02 EE= 2.633002840852D+02
 Leave Link  502 at Sat Aug 21 01:39:10 2021, MaxMem= 24159191040 cpu:        37.1
 (Enter /public/home/users/caep010/software/Gaussian09/g09/l701.exe)
 Compute integral first derivatives.
 ... and contract with generalized density number  0.
 Leave Link  701 at Sat Aug 21 01:39:10 2021, MaxMem= 24159191040 cpu:        10.9
 (Enter /public/home/users/caep010/software/Gaussian09/g09/l702.exe)
 L702 exits ... SP integral derivatives will be done elsewhere.
 Leave Link  702 at Sat Aug 21 01:39:10 2021, MaxMem= 24159191040 cpu:         0.5
 (Enter /public/home/users/caep010/software/Gaussian09/g09/l703.exe)
 Compute integral first derivatives, UseDBF=F ICtDFT=           0.
 Integral derivatives from FoFJK, PRISM(SPDF).
 Calling FoFJK, ICntrl=      2127 FMM=F ISym2X=0 I1Cent= 0 IOpClX= 0 NMat=1 NMatS=1 NMatT=0.
 FoFJK:  IHMeth= 1 ICntrl=    2127 DoSepK=F KAlg= 0 I1Cent=   0 FoldK=F
 IRaf=         0 NMat=   1 IRICut=       1 DoRegI=T DoRafI=F ISym2E= 0.
 FoFCou: FMM=F IPFlag=           0 FMFlag=      100000 FMFlg1=         800
         NFxFlg=           0 DoJE=F BraDBF=F KetDBF=F FulRan=T
         wScrn=  0.000000 ICntrl=    2127 IOpCl=  0 I1Cent=           0 NGrid=           0
         NMat0=    1 NMatS0=      1 NMatT0=    0 NMatD0=    1 NMtDS0=    0 NMtDT0=    0
 Symmetry not used in FoFCou.
 Leave Link  703 at Sat Aug 21 01:39:11 2021, MaxMem= 24159191040 cpu:         9.3
 (Enter /public/home/users/caep010/software/Gaussian09/g09/l716.exe)
 Dipole        = 1.56327413D+00-4.89361633D-01 3.68004226D-01
 ***** Axes restored to original set *****
 -------------------------------------------------------------------
 Center     Atomic                   Forces (Hartrees/Bohr)
 Number     Number              X              Y              Z
 -------------------------------------------------------------------
      1        6           0.003392010   -0.005276781   -0.001385260
      2        6          -0.012436377   -0.002595873   -0.004005925
      3        7           0.007510632    0.003166608    0.000380957
      4        7           0.007692920   -0.000191096    0.001626860
      5        7          -0.000048270   -0.002350487    0.004360115
      6        1           0.000260325   -0.000298651   -0.001092975
      7        1          -0.000331200    0.000369422    0.001826921
      8        1           0.000644611    0.000054741    0.000910304
      9        1          -0.003294503    0.003097129   -0.000292802
     10        1          -0.003884220   -0.000359835    0.002957848
     11        1          -0.001240325    0.003351763   -0.000675070
     12        1           0.001734397    0.001033059   -0.004610972
 -------------------------------------------------------------------
 Cartesian Forces:  Max     0.012436377 RMS     0.003578280
 Leave Link  716 at Sat Aug 21 01:39:11 2021, MaxMem= 24159191040 cpu:         0.6
 (Enter /public/home/users/caep010/software/Gaussian09/g09/l103.exe)

 GradGradGradGradGradGradGradGradGradGradGradGradGradGradGradGradGradGrad
 Berny optimization.
 Using GEDIIS/GDIIS optimizer.
 FormGI is forming the generalized inverse of G from B-inverse, IUseBI=4.
 Internal  Forces:  Max     0.007515773 RMS     0.002361815
 Search for a local minimum.
 Step number   2 out of a maximum of   53
 All quantities printed in internal units (Hartrees-Bohrs-Radians)
 RMS Force = .23618D-02 SwitMx=.10000D-02 MixMth= 1
 Mixed Optimization -- RFO/linear search
 Update second derivatives using D2CorX and points    1    2
 DE= -1.29D-02 DEPred=-1.34D-02 R= 9.66D-01
 TightC=F SS=  1.41D+00  RLast= 3.55D-01 DXNew= 5.0454D-01 1.0649D+00
 Trust test= 9.66D-01 RLast= 3.55D-01 DXMaxT set to 5.05D-01
 ITU=  1  0
 Use linear search instead of GDIIS.
     Eigenvalues ---    0.00792   0.01195   0.01225   0.01239   0.01371
     Eigenvalues ---    0.03075   0.06461   0.07283   0.07556   0.15461
     Eigenvalues ---    0.15990   0.16000   0.16000   0.16000   0.16000
     Eigenvalues ---    0.17264   0.21965   0.24977   0.25616   0.31964
     Eigenvalues ---    0.32547   0.32609   0.33086   0.38814   0.40461
     Eigenvalues ---    0.40469   0.40531   0.42342   0.45598   0.70514
 RFO step:  Lambda=-3.33965077D-03 EMin= 7.91643911D-03
 Quartic linear search produced a step of  0.04954.
 Iteration  1 RMS(Cart)=  0.07107590 RMS(Int)=  0.00867843
 Iteration  2 RMS(Cart)=  0.00946292 RMS(Int)=  0.00013035
 Iteration  3 RMS(Cart)=  0.00011555 RMS(Int)=  0.00008166
 Iteration  4 RMS(Cart)=  0.00000002 RMS(Int)=  0.00008166
 ITry= 1 IFail=0 DXMaxC= 2.78D-01 DCOld= 1.00D+10 DXMaxT= 5.05D-01 DXLimC= 3.00D+00 Rises=F
 Variable       Old X    -DE/DX   Delta X   Delta X   Delta X     New X
                                 (Linear)    (Quad)   (Total)
    R1        2.82879   0.00647  -0.00011   0.02034   0.02024   2.84903
    R2        2.07381  -0.00084  -0.00116  -0.00279  -0.00395   2.06986
    R3        2.07060  -0.00152  -0.00134  -0.00492  -0.00625   2.06434
    R4        2.05725   0.00060  -0.00212   0.00166  -0.00046   2.05679
    R5        2.41731   0.00752  -0.00152   0.01105   0.00954   2.42685
    R6        2.62210  -0.00465  -0.00447  -0.01246  -0.01693   2.60517
    R7        1.92747   0.00449  -0.00229   0.01105   0.00876   1.93623
    R8        2.69435  -0.00200   0.00199  -0.00430  -0.00231   2.69204
    R9        1.90517   0.00151  -0.00355   0.00336  -0.00019   1.90498
   R10        1.93879  -0.00179  -0.00181  -0.00478  -0.00659   1.93220
   R11        1.92211  -0.00034  -0.00267  -0.00122  -0.00388   1.91823
    A1        1.94153   0.00060   0.00146   0.00173   0.00319   1.94472
    A2        1.93722   0.00011   0.00107   0.00096   0.00201   1.93923
    A3        1.88627   0.00031  -0.00244   0.00376   0.00132   1.88760
    A4        1.88030  -0.00097  -0.00135  -0.00948  -0.01084   1.86946
    A5        1.90144  -0.00060   0.00013  -0.00443  -0.00428   1.89716
    A6        1.91694   0.00054   0.00114   0.00750   0.00863   1.92558
    A7        2.09578  -0.00071   0.00067  -0.00283  -0.00216   2.09361
    A8        2.01315   0.00086  -0.00456   0.00322  -0.00134   2.01181
    A9        2.17409  -0.00015   0.00389  -0.00028   0.00360   2.17769
   A10        1.95198  -0.00111  -0.00860  -0.00696  -0.01557   1.93641
   A11        2.13224   0.00095   0.00093   0.00406   0.00483   2.13707
   A12        2.05428   0.00248  -0.00147   0.01594   0.01430   2.06858
   A13        2.09483  -0.00346   0.00049  -0.02179  -0.02144   2.07339
   A14        1.89414  -0.00290   0.00116  -0.01788  -0.01675   1.87739
   A15        1.88028  -0.00203   0.00001  -0.01230  -0.01233   1.86795
   A16        1.82563   0.00223  -0.00163   0.01546   0.01373   1.83936
    D1        1.94702   0.00032  -0.00011   0.01300   0.01287   1.95989
    D2       -1.17556   0.00021  -0.00020   0.00665   0.00644  -1.16911
    D3       -2.24271  -0.00043  -0.00017   0.00282   0.00265  -2.24006
    D4        0.91790  -0.00053  -0.00026  -0.00353  -0.00378   0.91413
    D5       -0.13961   0.00050   0.00036   0.01502   0.01538  -0.12423
    D6        3.02100   0.00039   0.00027   0.00867   0.00896   3.02995
    D7       -3.12903  -0.00007   0.00010  -0.00375  -0.00366  -3.13269
    D8       -0.00831   0.00006   0.00010   0.00325   0.00335  -0.00496
    D9       -0.01144  -0.00022  -0.00026  -0.01101  -0.01141  -0.02286
   D10       -3.08783   0.00040   0.00086   0.02131   0.02233  -3.06550
   D11       -3.13305  -0.00033  -0.00031  -0.01765  -0.01812   3.13202
   D12        0.07374   0.00030   0.00081   0.01467   0.01563   0.08937
   D13        1.36506   0.00344   0.00654   0.22139   0.22773   1.59279
   D14       -2.95074   0.00362   0.00523   0.22452   0.22963  -2.72111
   D15       -1.84321   0.00302   0.00535   0.18974   0.19520  -1.64801
   D16        0.12417   0.00320   0.00404   0.19286   0.19710   0.32127
         Item               Value     Threshold  Converged?
 Maximum Force            0.007516     0.000450     NO 
 RMS     Force            0.002362     0.000300     NO 
 Maximum Displacement     0.278220     0.001800     NO 
 RMS     Displacement     0.076338     0.001200     NO 
 Predicted change in Energy=-2.095274D-03
 Lowest energy point so far.  Saving SCF results.
 GradGradGradGradGradGradGradGradGradGradGradGradGradGradGradGradGradGrad

 Leave Link  103 at Sat Aug 21 01:39:11 2021, MaxMem= 24159191040 cpu:         1.7
 (Enter /public/home/users/caep010/software/Gaussian09/g09/l202.exe)
                          Input orientation:                          
 ---------------------------------------------------------------------
 Center     Atomic      Atomic             Coordinates (Angstroms)
 Number     Number       Type             X           Y           Z
 ---------------------------------------------------------------------
      1          6           0        1.296587   -0.700629    0.036654
      2          6           0        0.507216    0.582255   -0.027216
      3          7           0        1.117185    1.712194   -0.006559
      4          7           0       -0.861346    0.428592   -0.090052
      5          7           0       -1.486050   -0.851301   -0.121882
      6          1           0        1.121820   -1.231449    0.978683
      7          1           0        1.012215   -1.378216   -0.771650
      8          1           0        2.353930   -0.451964   -0.032797
      9          1           0        0.450530    2.489172   -0.047818
     10          1           0       -1.433436    1.251074   -0.201601
     11          1           0       -1.685033   -1.121675    0.843915
     12          1           0       -2.393618   -0.728251   -0.559577
 ---------------------------------------------------------------------
                    Distance matrix (angstroms):
                    1          2          3          4          5
     1  C    0.000000
     2  C    1.507639   0.000000
     3  N    2.419869   1.284232   0.000000
     4  N    2.438825   1.378594   2.359913   0.000000
     5  N    2.791220   2.457062   3.655358   1.424568   0.000000
     6  H    1.095323   2.163120   3.104151   2.798370   2.856001
     7  H    1.092404   2.157001   3.185438   2.690606   2.634610
     8  H    1.088408   2.116599   2.492751   3.334165   3.861717
     9  H    3.301179   1.907872   1.024611   2.443111   3.861941
    10  H    3.364363   2.060064   2.599296   1.008072   2.104544
    11  H    3.117532   2.910017   4.075113   1.988487   1.022477
    12  H    3.738163   3.227332   4.311303   1.976511   1.015084
                    6          7          8          9         10
     6  H    0.000000
     7  H    1.759892   0.000000
     8  H    1.774481   1.789984   0.000000
     9  H    3.917571   3.974433   3.503348   0.000000
    10  H    3.753042   3.635841   4.156078   2.259616   0.000000
    11  H    2.812230   3.154522   4.186927   4.288827   2.605061
    12  H    3.870110   3.473777   4.784667   4.324684   2.228862
                   11         12
    11  H    0.000000
    12  H    1.620698   0.000000
 Stoichiometry    C2H7N3
 Framework group  C1[X(C2H7N3)]
 Deg. of freedom    30
 Full point group                 C1      NOp   1
 RotChk:  IX=0 Diff= 3.11D-02
 Largest Abelian subgroup         C1      NOp   1
 Largest concise Abelian subgroup C1      NOp   1
                         Standard orientation:                         
 ---------------------------------------------------------------------
 Center     Atomic      Atomic             Coordinates (Angstroms)
 Number     Number       Type             X           Y           Z
 ---------------------------------------------------------------------
      1          6           0       -0.628884    1.399322   -0.027965
      2          6           0       -0.607170   -0.107995   -0.005586
      3          7           0       -1.710334   -0.764845    0.023214
      4          7           0        0.647854   -0.678459   -0.002759
      5          7           0        1.840813    0.098887   -0.047229
      6          1           0       -0.231799    1.819033    0.902571
      7          1           0       -0.016135    1.789560   -0.843808
      8          1           0       -1.661980    1.721866   -0.143338
      9          1           0       -1.535266   -1.774175    0.043973
     10          1           0        0.720301   -1.682542   -0.055451
     11          1           0        2.124574    0.284132    0.917459
     12          1           0        2.568292   -0.494916   -0.432675
 ---------------------------------------------------------------------
 Rotational constants (GHZ):      8.8923491      4.1062762      2.8940429
 Leave Link  202 at Sat Aug 21 01:39:11 2021, MaxMem= 24159191040 cpu:         0.3
 (Enter /public/home/users/caep010/software/Gaussian09/g09/l301.exe)
 Standard basis: 6-31G(d,p) (6D, 7F)
 Ernie: Thresh=  0.10000D-02 Tol=  0.10000D-05 Strict=F.
 There are   110 symmetry adapted cartesian basis functions of A   symmetry.
 There are   110 symmetry adapted basis functions of A   symmetry.
   110 basis functions,   189 primitive gaussians,   110 cartesian basis functions
    20 alpha electrons       20 beta electrons
       nuclear repulsion energy       180.7690110818 Hartrees.
 IExCor=  402 DFT=T Ex+Corr=B3LYP ExCW=0 ScaHFX=  0.200000
 ScaDFX=  0.800000  0.720000  1.000000  0.810000 ScalE2=  1.000000  1.000000
 IRadAn=      0 IRanWt=     -1 IRanGd=            0 ICorTp=0 IEmpDi=  4
 NAtoms=   12 NActive=   12 NUniq=   12 SFac= 1.00D+00 NAtFMM=   60 NAOKFM=F Big=F
 Integral buffers will be    131072 words long.
 Raffenetti 2 integral format.
 Two-electron integral symmetry is turned on.
 Leave Link  301 at Sat Aug 21 01:39:11 2021, MaxMem= 24159191040 cpu:         1.7
 (Enter /public/home/users/caep010/software/Gaussian09/g09/l302.exe)
 NPDir=0 NMtPBC=     1 NCelOv=     1 NCel=       1 NClECP=     1 NCelD=      1
         NCelK=      1 NCelE2=     1 NClLst=     1 CellRange=     0.0.
 One-electron integrals computed using PRISM.
 NBasis=   110 RedAO= T EigKep=  2.83D-03  NBF=   110
 NBsUse=   110 1.00D-06 EigRej= -1.00D+00 NBFU=   110
 Precomputing XC quadrature grid using
 IXCGrd= 4 IRadAn=           0 IRanWt=          -1 IRanGd=           0 AccXCQ= 0.00D+00.
 Generated NRdTot=       0 NPtTot=           0 NUsed=           0 NTot=          32
 NSgBfM=   110   110   110   110   110 MxSgAt=    12 MxSgA2=    12.
 Leave Link  302 at Sat Aug 21 01:39:11 2021, MaxMem= 24159191040 cpu:        11.2
 (Enter /public/home/users/caep010/software/Gaussian09/g09/l303.exe)
 DipDrv:  MaxL=1.
 Leave Link  303 at Sat Aug 21 01:39:12 2021, MaxMem= 24159191040 cpu:         0.6
 (Enter /public/home/users/caep010/software/Gaussian09/g09/l401.exe)
 Initial guess from the checkpoint file:  "/public/home/users/caep010/.cache/gau_scr/Gau-98439.chk"
 B after Tr=    -0.000000   -0.000000    0.000000
         Rot=    0.999987   -0.004755   -0.001393   -0.000957 Ang=  -0.58 deg.
 Guess basis will be translated and rotated to current coordinates.
 JPrj=2 DoOrth=T DoCkMO=T.
 Generating alternative initial guess.
 ExpMin= 1.61D-01 ExpMax= 4.17D+03 ExpMxC= 6.27D+02 IAcc=1 IRadAn=         1 AccDes= 0.00D+00
 Harris functional with IExCor=  402 and IRadAn=       1 diagonalized for initial guess.
 HarFok:  IExCor=  402 AccDes= 0.00D+00 IRadAn=         1 IDoV= 1 UseB2=F ITyADJ=14
 ICtDFT=  3500011 ScaDFX=  1.000000  1.000000  1.000000  1.000000
 FoFCou: FMM=F IPFlag=           0 FMFlag=      100000 FMFlg1=           0
         NFxFlg=           0 DoJE=T BraDBF=F KetDBF=T FulRan=T
         wScrn=  0.000000 ICntrl=     500 IOpCl=  0 I1Cent=   200000004 NGrid=           0
         NMat0=    1 NMatS0=      1 NMatT0=    0 NMatD0=    1 NMtDS0=    0 NMtDT0=    0
 Petite list used in FoFCou.
 Harris En= -244.663459108201    
 Leave Link  401 at Sat Aug 21 01:39:12 2021, MaxMem= 24159191040 cpu:        10.6
 (Enter /public/home/users/caep010/software/Gaussian09/g09/l502.exe)
 Closed shell SCF:
 Using DIIS extrapolation, IDIIS=  1040.
 Integral symmetry usage will be decided dynamically.
 Keep R1 ints in memory in canonical form, NReq=19629370.
 IVT=       59205 IEndB=       59205 NGot= 24159191040 MDV= 24140493271
 LenX= 24140493271 LenY= 24140480730
 Requested convergence on RMS density matrix=1.00D-08 within 128 cycles.
 Requested convergence on MAX density matrix=1.00D-06.
 Requested convergence on             energy=1.00D-06.
 No special actions if energy rises.
 FoFCou: FMM=F IPFlag=           0 FMFlag=           0 FMFlg1=           0
         NFxFlg=           0 DoJE=F BraDBF=F KetDBF=F FulRan=T
         wScrn=  0.000000 ICntrl=     600 IOpCl=  0 I1Cent=           0 NGrid=           0
         NMat0=    1 NMatS0=   6105 NMatT0=    0 NMatD0=    1 NMtDS0=    0 NMtDT0=    0
 Symmetry not used in FoFCou.
 Integral accuracy reduced to 1.0D-05 until final iterations.

 Cycle   1  Pass 0  IDiag  1:
 E= -244.634155521478    
 DIIS: error= 5.58D-03 at cycle   1 NSaved=   1.
 NSaved= 1 IEnMin= 1 EnMin= -244.634155521478     IErMin= 1 ErrMin= 5.58D-03
 ErrMax= 5.58D-03  0.00D+00 EMaxC= 1.00D-01 BMatC= 5.34D-03 BMatP= 5.34D-03
 IDIUse=3 WtCom= 9.44D-01 WtEn= 5.58D-02
 Coeff-Com:  0.100D+01
 Coeff-En:   0.100D+01
 Coeff:      0.100D+01
 Gap=     1.935 Goal=   None    Shift=    0.000
 GapD=    1.935 DampG=2.000 DampE=1.000 DampFc=2.0000 IDamp=-1.
 RMSDP=1.09D-03 MaxDP=2.96D-02              OVMax= 3.53D-02

 Cycle   2  Pass 0  IDiag  1:
 E= -244.642562816670     Delta-E=       -0.008407295192 Rises=F Damp=F
 DIIS: error= 5.81D-04 at cycle   2 NSaved=   2.
 NSaved= 2 IEnMin= 2 EnMin= -244.642562816670     IErMin= 2 ErrMin= 5.81D-04
 ErrMax= 5.81D-04  0.00D+00 EMaxC= 1.00D-01 BMatC= 7.93D-05 BMatP= 5.34D-03
 IDIUse=3 WtCom= 9.94D-01 WtEn= 5.81D-03
 Coeff-Com: -0.591D-01 0.106D+01
 Coeff-En:   0.000D+00 0.100D+01
 Coeff:     -0.587D-01 0.106D+01
 Gap=     0.261 Goal=   None    Shift=    0.000
 RMSDP=1.81D-04 MaxDP=2.95D-03 DE=-8.41D-03 OVMax= 5.04D-03

 Cycle   3  Pass 0  IDiag  1:
 E= -244.642609466875     Delta-E=       -0.000046650205 Rises=F Damp=F
 DIIS: error= 7.32D-04 at cycle   3 NSaved=   3.
 NSaved= 3 IEnMin= 3 EnMin= -244.642609466875     IErMin= 2 ErrMin= 5.81D-04
 ErrMax= 7.32D-04  0.00D+00 EMaxC= 1.00D-01 BMatC= 7.86D-05 BMatP= 7.93D-05
 IDIUse=3 WtCom= 9.93D-01 WtEn= 7.32D-03
 Coeff-Com: -0.401D-01 0.569D+00 0.471D+00
 Coeff-En:   0.000D+00 0.258D+00 0.742D+00
 Coeff:     -0.398D-01 0.567D+00 0.473D+00
 Gap=     0.261 Goal=   None    Shift=    0.000
 RMSDP=1.03D-04 MaxDP=2.42D-03 DE=-4.67D-05 OVMax= 4.58D-03

 Cycle   4  Pass 0  IDiag  1:
 E= -244.642670366252     Delta-E=       -0.000060899377 Rises=F Damp=F
 DIIS: error= 2.59D-04 at cycle   4 NSaved=   4.
 NSaved= 4 IEnMin= 4 EnMin= -244.642670366252     IErMin= 4 ErrMin= 2.59D-04
 ErrMax= 2.59D-04  0.00D+00 EMaxC= 1.00D-01 BMatC= 1.06D-05 BMatP= 7.86D-05
 IDIUse=3 WtCom= 9.97D-01 WtEn= 2.59D-03
 Coeff-Com: -0.138D-01 0.177D+00 0.286D+00 0.551D+00
 Coeff-En:   0.000D+00 0.000D+00 0.102D+00 0.898D+00
 Coeff:     -0.138D-01 0.176D+00 0.286D+00 0.552D+00
 Gap=     0.261 Goal=   None    Shift=    0.000
 RMSDP=3.65D-05 MaxDP=8.98D-04 DE=-6.09D-05 OVMax= 1.63D-03

 Cycle   5  Pass 0  IDiag  1:
 E= -244.642678447637     Delta-E=       -0.000008081385 Rises=F Damp=F
 DIIS: error= 7.67D-05 at cycle   5 NSaved=   5.
 NSaved= 5 IEnMin= 5 EnMin= -244.642678447637     IErMin= 5 ErrMin= 7.67D-05
 ErrMax= 7.67D-05  0.00D+00 EMaxC= 1.00D-01 BMatC= 1.48D-06 BMatP= 1.06D-05
 IDIUse=1 WtCom= 1.00D+00 WtEn= 0.00D+00
 Coeff-Com: -0.295D-02 0.300D-01 0.115D+00 0.341D+00 0.517D+00
 Coeff:     -0.295D-02 0.300D-01 0.115D+00 0.341D+00 0.517D+00
 Gap=     0.261 Goal=   None    Shift=    0.000
 RMSDP=1.11D-05 MaxDP=2.81D-04 DE=-8.08D-06 OVMax= 4.00D-04

 Cycle   6  Pass 0  IDiag  1:
 E= -244.642679790583     Delta-E=       -0.000001342946 Rises=F Damp=F
 DIIS: error= 1.48D-05 at cycle   6 NSaved=   6.
 NSaved= 6 IEnMin= 6 EnMin= -244.642679790583     IErMin= 6 ErrMin= 1.48D-05
 ErrMax= 1.48D-05  0.00D+00 EMaxC= 1.00D-01 BMatC= 6.24D-08 BMatP= 1.48D-06
 IDIUse=1 WtCom= 1.00D+00 WtEn= 0.00D+00
 Coeff-Com:  0.871D-04-0.675D-02 0.254D-01 0.105D+00 0.240D+00 0.636D+00
 Coeff:      0.871D-04-0.675D-02 0.254D-01 0.105D+00 0.240D+00 0.636D+00
 Gap=     0.261 Goal=   None    Shift=    0.000
 RMSDP=2.54D-06 MaxDP=5.67D-05 DE=-1.34D-06 OVMax= 7.06D-05

 Initial convergence to 1.0D-05 achieved.  Increase integral accuracy.
 Cycle   7  Pass 1  IDiag  1:
 E= -244.642684774083     Delta-E=       -0.000004983500 Rises=F Damp=F
 DIIS: error= 1.12D-05 at cycle   1 NSaved=   1.
 NSaved= 1 IEnMin= 1 EnMin= -244.642684774083     IErMin= 1 ErrMin= 1.12D-05
 ErrMax= 1.12D-05  0.00D+00 EMaxC= 1.00D-01 BMatC= 2.92D-08 BMatP= 2.92D-08
 IDIUse=1 WtCom= 1.00D+00 WtEn= 0.00D+00
 Coeff-Com:  0.100D+01
 Coeff:      0.100D+01
 Gap=     0.261 Goal=   None    Shift=    0.000
[...]
 Variable       Old X    -DE/DX   Delta X   Delta X   Delta X     New X
                                 (Linear)    (Quad)   (Total)
    R1        2.84629  -0.00000   0.00000  -0.00000  -0.00000   2.84629
    R2        2.06671   0.00000   0.00000   0.00000   0.00000   2.06672
    R3        2.06673   0.00000   0.00000   0.00000   0.00000   2.06673
    R4        2.05880  -0.00000   0.00000  -0.00000  -0.00000   2.05880
    R5        2.42302   0.00001   0.00000   0.00001   0.00001   2.42303
    R6        2.63587  -0.00001   0.00000  -0.00003  -0.00003   2.63584
    R7        1.94026  -0.00000   0.00000  -0.00000  -0.00000   1.94025
    R8        2.65654  -0.00001   0.00000  -0.00003  -0.00003   2.65651
    R9        1.91988  -0.00000   0.00000  -0.00000  -0.00000   1.91988
   R10        1.91957  -0.00000   0.00000  -0.00001  -0.00001   1.91956
   R11        1.92538   0.00000   0.00000  -0.00000  -0.00000   1.92538
    A1        1.93557  -0.00000   0.00000  -0.00002  -0.00002   1.93555
    A2        1.93912   0.00000   0.00000   0.00002   0.00002   1.93915
    A3        1.88740  -0.00000   0.00000  -0.00004  -0.00004   1.88736
    A4        1.86273   0.00000   0.00000   0.00003   0.00003   1.86276
    A5        1.92231   0.00000   0.00000   0.00000   0.00000   1.92231
    A6        1.91701  -0.00000   0.00000   0.00000   0.00000   1.91701
    A7        2.09105  -0.00001   0.00000  -0.00003  -0.00003   2.09102
    A8        2.02590   0.00000   0.00000   0.00002   0.00002   2.02592
    A9        2.16520   0.00000   0.00000   0.00001   0.00001   2.16521
   A10        1.93817   0.00000   0.00000   0.00002   0.00002   1.93818
   A11        2.09968  -0.00000   0.00000  -0.00002  -0.00002   2.09966
   A12        2.00616   0.00000   0.00000  -0.00001  -0.00001   2.00615
   A13        2.05510   0.00000   0.00000   0.00000   0.00000   2.05510
   A14        1.90824  -0.00000   0.00000   0.00001   0.00001   1.90825
   A15        1.94378   0.00000   0.00000   0.00003   0.00003   1.94381
   A16        1.89611   0.00000   0.00000   0.00003   0.00003   1.89614
    D1        2.16251  -0.00000   0.00000  -0.00023  -0.00023   2.16228
    D2       -0.93207  -0.00000   0.00000  -0.00020  -0.00020  -0.93227
    D3       -2.05196   0.00000   0.00000  -0.00019  -0.00019  -2.05215
    D4        1.13664   0.00000   0.00000  -0.00016  -0.00016   1.13648
    D5        0.05309  -0.00000   0.00000  -0.00020  -0.00020   0.05289
    D6       -3.04149  -0.00000   0.00000  -0.00017  -0.00017  -3.04166
    D7        3.13631  -0.00000   0.00000   0.00002   0.00002   3.13633
    D8       -0.05625  -0.00000   0.00000  -0.00001  -0.00001  -0.05627
    D9       -0.32706  -0.00000   0.00000  -0.00004  -0.00004  -0.32709
   D10       -2.94617   0.00000   0.00000   0.00003   0.00003  -2.94614
   D11        2.86377  -0.00000   0.00000  -0.00001  -0.00001   2.86377
   D12        0.24466   0.00000   0.00000   0.00006   0.00006   0.24471
   D13        2.39885  -0.00000   0.00000   0.00002   0.00002   2.39887
   D14       -1.78878   0.00000   0.00000   0.00009   0.00009  -1.78869
   D15       -1.27941  -0.00000   0.00000  -0.00005  -0.00005  -1.27946
   D16        0.81615   0.00000   0.00000   0.00002   0.00002   0.81616
         Item               Value     Threshold  Converged?
 Maximum Force            0.000012     0.000450     YES
 RMS     Force            0.000003     0.000300     YES
 Maximum Displacement     0.000337     0.001800     YES
 RMS     Displacement     0.000102     0.001200     YES
 Predicted change in Energy=-1.272644D-09
 Optimization completed.
    -- Stationary point found.
                           ----------------------------
                           !   Optimized Parameters   !
                           ! (Angstroms and Degrees)  !
 --------------------------                            --------------------------
 ! Name  Definition              Value          Derivative Info.                !
 --------------------------------------------------------------------------------
 ! R1    R(1,2)                  1.5062         -DE/DX =    0.0                 !
 ! R2    R(1,6)                  1.0937         -DE/DX =    0.0                 !
 ! R3    R(1,7)                  1.0937         -DE/DX =    0.0                 !
 ! R4    R(1,8)                  1.0895         -DE/DX =    0.0                 !
 ! R5    R(2,3)                  1.2822         -DE/DX =    0.0                 !
 ! R6    R(2,4)                  1.3948         -DE/DX =    0.0                 !
 ! R7    R(3,9)                  1.0267         -DE/DX =    0.0                 !
 ! R8    R(4,5)                  1.4058         -DE/DX =    0.0                 !
 ! R9    R(4,10)                 1.016          -DE/DX =    0.0                 !
 ! R10   R(5,11)                 1.0158         -DE/DX =    0.0                 !
 ! R11   R(5,12)                 1.0189         -DE/DX =    0.0                 !
 ! A1    A(2,1,6)              110.9            -DE/DX =    0.0                 !
 ! A2    A(2,1,7)              111.1035         -DE/DX =    0.0                 !
 ! A3    A(2,1,8)              108.14           -DE/DX =    0.0                 !
 ! A4    A(6,1,7)              106.7267         -DE/DX =    0.0                 !
 ! A5    A(6,1,8)              110.1403         -DE/DX =    0.0                 !
 ! A6    A(7,1,8)              109.8365         -DE/DX =    0.0                 !
 ! A7    A(1,2,3)              119.8084         -DE/DX =    0.0                 !
 ! A8    A(1,2,4)              116.0754         -DE/DX =    0.0                 !
 ! A9    A(3,2,4)              124.0566         -DE/DX =    0.0                 !
 ! A10   A(2,3,9)              111.0487         -DE/DX =    0.0                 !
 ! A11   A(2,4,5)              120.3027         -DE/DX =    0.0                 !
 ! A12   A(2,4,10)             114.9446         -DE/DX =    0.0                 !
 ! A13   A(5,4,10)             117.7487         -DE/DX =    0.0                 !
 ! A14   A(4,5,11)             109.3343         -DE/DX =    0.0                 !
 ! A15   A(4,5,12)             111.3705         -DE/DX =    0.0                 !
 ! A16   A(11,5,12)            108.639          -DE/DX =    0.0                 !
 ! D1    D(6,1,2,3)            123.9026         -DE/DX =    0.0                 !
 ! D2    D(6,1,2,4)            -53.4039         -DE/DX =    0.0                 !
 ! D3    D(7,1,2,3)           -117.5686         -DE/DX =    0.0                 !
 ! D4    D(7,1,2,4)             65.125          -DE/DX =    0.0                 !
 ! D5    D(8,1,2,3)              3.0418         -DE/DX =    0.0                 !
 ! D6    D(8,1,2,4)           -174.2646         -DE/DX =    0.0                 !
 ! D7    D(1,2,3,9)            179.6973         -DE/DX =    0.0                 !
 ! D8    D(4,2,3,9)             -3.2232         -DE/DX =    0.0                 !
 ! D9    D(1,2,4,5)            -18.7391         -DE/DX =    0.0                 !
 ! D10   D(1,2,4,10)          -168.8034         -DE/DX =    0.0                 !
 ! D11   D(3,2,4,5)            164.082          -DE/DX =    0.0                 !
 ! D12   D(3,2,4,10)            14.0177         -DE/DX =    0.0                 !
 ! D13   D(2,4,5,11)           137.4437         -DE/DX =    0.0                 !
 ! D14   D(2,4,5,12)          -102.4895         -DE/DX =    0.0                 !
 ! D15   D(10,4,5,11)          -73.305          -DE/DX =    0.0                 !
 ! D16   D(10,4,5,12)           46.7618         -DE/DX =    0.0                 !
 --------------------------------------------------------------------------------
 GradGradGradGradGradGradGradGradGradGradGradGradGradGradGradGradGradGrad

 Leave Link  103 at Sat Aug 21 01:40:08 2021, MaxMem= 24159191040 cpu:         1.2
 (Enter /public/home/users/caep010/software/Gaussian09/g09/l9999.exe)
 1\1\GINC-B1411\Freq\RB3LYP\6-31G(d,p)\C2H7N3\ROOT\21-Aug-2021\0\\#P Ge
 om=AllCheck Guess=TCheck SCRF=Check GenChk RB3LYP/6-31G(d,p) Freq\\Fra
 g_176\\0,1\C,1.31508775,-0.7030260199,0.004991768\C,0.5087201842,0.569
 0881164,-0.0058645302\N,1.0988104739,1.6964582011,-0.1635981748\N,-0.8
 605206518,0.4290099617,0.2202936503\N,-1.4830167393,-0.8202143593,0.05
 24758035\H,1.1422545168,-1.2666596772,0.926150489\H,1.028918273,-1.357
 7271303,-0.8230054635\H,2.3683065074,-0.437750377,-0.0804554242\H,0.42
 40902937,2.4703205827,-0.1544054697\H,-1.4127639141,1.2613921229,0.035
 0019244\H,-2.1348083554,-0.9764164902,0.8157620578\H,-1.9950783385,-0.
 864674931,-0.8272466306\\Version=ES64L-G09RevE.01\State=1-A\HF=-244.64
 81166\RMSD=1.214e-09\RMSF=5.195e-06\ZeroPoint=0.103496\Thermal=0.10958
 68\Dipole=-1.6337614,-0.3570461,-0.0910778\DipoleDeriv=0.0084652,0.061
 5877,0.002168,0.1026989,-0.1013502,-0.0030294,0.017342,-0.0024308,0.08
 74539,1.3512318,0.4513464,-0.181973,0.1819526,0.8413117,-0.1019592,-0.
 2082917,-0.150193,0.1737064,-0.6247417,-0.4415899,0.0298941,-0.4363866
 ,-0.8030063,0.0725101,0.0402814,0.0704236,-0.5222822,-0.7342895,-0.234
 0283,0.1354457,-0.060234,-0.0194965,-0.0493212,0.3472082,0.1486913,-0.
 4711759,-0.2310241,0.163609,0.0430814,0.2270006,-0.2650718,0.0506434,-
 0.0587488,-0.0653026,0.0573334,0.060786,0.0056983,0.0479031,0.0135503,
 -0.0057785,0.0625296,0.0250088,0.0887373,-0.0530463,0.0508243,-0.00599
 14,-0.0580683,0.0045763,-0.0235845,-0.0646898,-0.0414356,-0.0824761,-0
 .0293524,-0.0792523,-0.0073512,0.0088284,-0.0522781,0.0632584,0.004768
 1,0.0104602,0.0038402,0.0742047,0.0169153,0.3175022,0.0003969,0.151573
 7,0.0606845,0.0037627,0.0098439,-0.0179241,0.2411336,0.0726056,-0.0264
 779,-0.0096256,-0.0084813,-0.0907732,0.0171579,-0.0933645,0.0432096,0.
 2920731,0.0523091,-0.1359579,0.0859977,-0.0389319,0.1991881,-0.0586262
 ,0.0498845,-0.0214688,0.1020572,0.0561703,-0.1483469,-0.1040485,-0.085
 0404,0.1446182,0.066254,-0.0981884,-0.0151067,0.0478946\Polar=48.57612
 61,6.4226786,51.5788898,-1.6127,-1.8706419,28.5811193\PG=C01 [X(C2H7N3
 )]\NImag=0\\0.58127200,0.05469421,0.52398342,-0.00841387,-0.00401420,0
 .54846317,-0.12894993,0.05817755,-0.00053130,0.63048247,0.05989444,-0.
 16438631,0.00081034,0.09868678,0.86336656,0.00165343,-0.00057072,-0.08
 048682,-0.05567056,-0.05875474,0.21102882,0.01337082,0.01108582,-0.002
 26719,-0.18892773,-0.13951890,0.02328197,0.41669075,-0.00931522,-0.043
 60068,0.00464367,-0.19949961,-0.49503077,0.05466773,0.03505972,0.78271
 790,-0.00054899,0.00228374,-0.00046631,0.02714890,0.04980848,-0.074170
 97,-0.04111399,-0.06368730,0.07955440,-0.02688412,0.00536576,0.0039873
 2,-0.27836025,0.01180479,0.04558792,-0.04047620,-0.03356105,0.00916383
 ,0.68193712,0.03130438,0.00353320,-0.00440810,0.00520062,-0.12495842,0
 .00457844,-0.05337865,-0.01026920,0.01192695,-0.04365940,0.67446589,0.
 00007327,-0.00075020,0.00531413,0.01031722,-0.00108318,-0.04158778,0.0
 1583086,0.01298315,0.02070471,0.02421245,-0.05182849,0.07865657,-0.002
 75301,-0.00017016,0.00088361,-0.01306557,-0.03709927,-0.00591899,-0.00
 561279,-0.00005122,0.00226416,-0.11885087,-0.09991584,-0.00712503,0.45
 027647,0.00323306,0.00045978,0.00060170,-0.01927719,-0.01100005,-0.000
 50493,0.00019135,0.00413044,0.00037601,-0.03946503,-0.21376340,-0.0022
 2850,0.17119936,0.30529137,0.00042209,-0.00007077,-0.00259415,0.006691
 20,0.00975201,-0.01450805,0.00284510,-0.00064850,0.00978900,-0.0143145
 7,-0.02839902,-0.06132980,-0.02330184,-0.02192383,0.67937688,-0.055886
 87,-0.02062206,0.03801594,0.00412599,0.00618964,-0.01825407,-0.0010125
 1,0.00126585,0.00007312,-0.00056524,0.00057051,0.00143544,-0.00040367,
 0.00013058,-0.00030216,0.05406264,-0.02086051,-0.11402928,0.11832148,-
 0.00721152,-0.01532819,0.02536905,0.00291896,-0.00288840,0.00098195,-0
 .00051512,0.00055745,-0.00146009,0.00033777,0.00037390,-0.00004012,0.0
 2228711,0.12593242,0.03679917,0.11747168,-0.23749292,0.00050619,-0.000
 67403,0.00188028,-0.00069604,-0.00029738,0.00015516,0.00005674,0.00056
 871,0.00052166,0.00096693,-0.00069456,0.00051444,-0.04161374,-0.127982
 04,0.25664671,-0.06656656,-0.04060512,-0.05527517,0.00680647,0.0082177
 4,0.01687685,-0.00080745,0.00096871,0.00013412,-0.00045560,0.00050816,
 -0.00041547,-0.00114742,0.00012076,0.00023566,0.00051827,0.00290420,0.
 00414656,0.06736548,-0.04149372,-0.13909217,-0.12430246,-0.00987784,-0
 .01790605,-0.02167159,0.00258714,-0.00248019,-0.00083114,-0.00061779,-
 0.00011278,0.00072527,-0.00010112,0.00047848,0.00066018,0.00433460,0.0
 1076598,0.01313909,0.04464189,0.15313791,-0.05447698,-0.12256581,-0.19
 979145,0.00067830,0.00190887,0.00220486,0.00052937,0.00061431,0.000226
 39,0.00018122,-0.00133720,0.00009854,-0.00129926,0.00052248,0.00081410
 ,-0.00752502,-0.01702064,-0.02156939,0.06122282,0.13361351,0.21555778,
 -0.30873906,-0.06425863,0.02067620,-0.01956866,-0.00689113,0.00201406,
 0.00192710,-0.00208616,-0.00004489,-0.00054268,0.00280617,-0.00060549,
 -0.00003469,0.00061177,0.00023471,-0.00141997,-0.00008190,-0.00002069,
 -0.00517188,-0.00083031,0.00065248,0.33340738,-0.07147657,-0.06540183,
 0.00613615,0.03138640,0.00827073,-0.00285292,-0.00042349,0.00050031,-0
 .00036011,0.00165173,-0.00648087,0.00053840,-0.00193713,0.00006414,0.0
 0011589,-0.01450310,-0.00383399,-0.00111957,-0.01698524,-0.00405780,0.
 00363916,0.07103182,0.06986475,0.02119882,0.00573415,-0.05185992,-0.00
 029018,-0.00042355,-0.00226202,-0.00008560,0.00015073,-0.00059162,0.00
 000308,-0.00016549,0.00148556,-0.00010227,0.00000274,0.00071395,0.0269
 5441,0.00476775,-0.00021163,-0.02480761,-0.00432210,0.00318310,-0.0231
 1701,-0.00579869,0.04938687,0.00060546,0.00068319,0.00158552,-0.000798
 16,-0.02811458,0.00247098,-0.19414874,0.20762490,0.00013799,0.00117314
 ,-0.00451511,-0.00000666,0.00043392,0.00107085,-0.00038847,0.00040007,
 0.00038332,0.00004304,0.00001641,0.00090679,-0.00020532,0.00108904,-0.
 00075669,-0.00003849,0.19080569,-0.00487675,-0.00280637,0.00217814,0.0
 3547373,-0.03879804,-0.00049099,0.14777326,-0.23401480,0.00077026,0.00
 208777,0.00364219,-0.00085621,0.00008726,0.00122119,-0.00058443,0.0005
 9329,-0.00146515,-0.00018888,0.00035426,-0.00085951,0.00012296,-0.0003
 7782,0.00057285,-0.00002623,-0.17819206,0.27281412,0.00153932,0.001375
 29,0.01514367,-0.00219914,0.00574916,0.00219223,0.00506656,-0.00522056
 ,-0.03253937,0.00021116,-0.00107586,-0.00639082,-0.00060586,-0.0008311
 6,-0.00254181,0.00107510,-0.00258827,-0.00026365,-0.00121246,0.0027084
 4,-0.00060086,0.00003256,0.00004007,-0.00023125,-0.00315604,-0.0012874
 5,0.02440809,-0.00505744,-0.00378738,0.00121279,-0.01589677,0.03516298
 ,-0.00951974,0.00317947,0.00018803,0.00127437,-0.18471486,0.16038000,-
 0.03916688,0.01095164,-0.02266853,0.00356238,0.00030637,-0.00029340,-0
 .00019656,-0.00001504,0.00009738,0.00024335,-0.00086097,0.00184145,0.0
 0023316,-0.00006969,-0.00340348,-0.00045594,0.19001332,-0.00165682,0.0
 0111521,0.00017000,-0.00093533,0.00144402,0.00174493,-0.00214446,0.002
 80377,-0.00222550,0.16432296,-0.28570798,0.05482668,0.00430975,-0.0310
 2074,0.00424456,-0.00005864,-0.00027111,-0.00003861,-0.00000727,-0.000
 20810,0.00023899,-0.00011407,0.00038506,0.00004276,0.00096744,-0.00058
 773,0.00124580,-0.16583463,0.31151751,0.00189378,0.00114178,0.00364684
 ,0.01379998,-0.00489636,-0.00518794,-0.00234004,-0.00324878,-0.0018611
 7,-0.05888571,0.07674581,-0.01938139,0.00275186,-0.00987768,-0.0033848
 3,0.00037722,-0.00050053,-0.00009510,-0.00100658,0.00035173,-0.0000731
 1,0.00019005,-0.00035135,0.00051917,-0.00049355,0.00027408,0.00070522,
 0.04217265,-0.06022742,0.02495771,-0.00017249,-0.00040694,0.00035047,0
 .00146275,-0.00517467,0.00356486,-0.00233837,-0.00016267,-0.00076622,-
 0.01698324,0.00015484,0.00535151,-0.19091504,-0.06296423,0.19888405,-0
 .00033544,0.00020293,-0.00011673,0.00014282,-0.00011500,-0.00014101,-0
 .00007330,0.00008124,-0.00020691,0.00038202,0.00026059,0.00018236,0.00
 084268,0.00085171,-0.00075291,0.19839015,0.00038093,0.00010812,-0.0003
 6355,0.00326456,-0.00432529,0.00193933,-0.00254865,-0.00080369,-0.0010
 0978,-0.03553660,-0.02182457,0.02082654,-0.02799544,-0.02729191,0.0047
 9465,0.00016832,-0.00000936,0.00002979,-0.00037144,0.00034122,0.000268
 00,0.00011443,0.00007399,0.00022643,0.00004167,0.00030255,0.00045683,-
 0.00123951,-0.00085498,0.00326316,0.05933027,0.05523790,0.00004687,-0.
 00012883,0.00005235,-0.00086329,-0.00183382,0.00088632,-0.00110562,-0.
 00034574,-0.00038998,-0.00746605,-0.00234325,0.01370745,0.16986198,0.0
 3690405,-0.27741550,-0.00012750,0.00012866,-0.00001081,0.00004434,0.00
 004095,-0.00003767,-0.00006976,0.00002193,-0.00004551,0.00012688,0.000
 11418,0.00008425,0.00014972,-0.00062989,-0.00057299,-0.18645673,-0.033
 77522,0.28946172,-0.00023879,-0.00015623,-0.00022432,0.00268941,-0.003
 15782,-0.00608671,-0.00184435,-0.00043130,0.00227760,-0.01527718,0.000
 54432,-0.00990124,-0.12887896,-0.03218275,-0.17456816,0.00021035,-0.00
 007183,0.00012513,-0.00068550,0.00046799,0.00014005,-0.00001232,0.0000
 8958,0.00025859,0.00011085,0.00021995,-0.00047761,0.00132130,0.0002993
 5,0.00229325,0.00959746,0.00439146,0.02585915,0.13300772,0.00017259,0.
 00011691,0.00022684,0.00461184,-0.00134820,-0.00345359,-0.00160209,-0.
 00106468,0.00196644,-0.03187803,-0.01908151,-0.03169336,-0.00866397,-0
 .02894320,0.03209938,-0.00035609,0.00019572,-0.00021419,0.00025335,-0.
 00000698,-0.00000462,0.00007584,0.00004267,-0.00018850,-0.00009971,-0.
 00002129,-0.00057228,-0.00044292,0.00138507,-0.00267444,0.00794194,-0.
 00095400,0.00184698,0.02998726,0.04967948,-0.00018693,0.00009390,0.000
 07142,0.00041269,-0.00036317,0.00001106,0.00005464,0.00038868,-0.00041
 024,-0.00273739,-0.00426250,0.00820115,-0.13837529,-0.00234632,-0.3294
 3424,-0.00010875,0.00002282,-0.00007474,0.00005694,-0.00011187,-0.0000
 1228,0.00005779,-0.00000896,-0.00008670,-0.00007590,-0.00002544,0.0000
 3429,0.00049069,0.00060772,0.00072758,-0.01989275,0.00334382,-0.025719
 62,0.16030427,0.00266133,0.34669232\\0.00000156,0.00000390,-0.00000506
 ,0.00001482,0.00001084,-0.00000248,-0.00000708,-0.00000317,-0.00000329
 ,-0.00000377,0.00000418,0.00000161,0.00000063,-0.00001276,0.00000161,0
 .00000525,0.00000054,-0.00000501,0.00000026,0.00000327,0.00000034,0.00
 000194,0.00000296,-0.00000399,-0.00000811,0.00000084,0.00000020,-0.000
 00425,-0.00000156,0.00000434,0.00000043,-0.00000570,0.00000599,-0.0000
 0169,-0.00000334,0.00000575\\\@


 THOUGH I SPEAK WITH THE TONGUES OF MEN AND OF ANGELS, 
 AND HAVE NOT LOVE,
 I AM BECOME AS SOUNDING BRASS, A TINKLING CYMBAL.
 AND THOUGH I HAVE THE GIFT OF PROPHECY,
 AND UNDERSTAND ALL MYSTERIES, AND ALL KNOWLEDGE.
 AND THOUGH I HAVE ALL FAITH, SO THAT I COULD REMOVE MOUNTAINS,
 AND HAVE NOT LOVE, I AM NOTHING.
 AND THOUGH I BESTOW ALL MY GOODS TO FEED THE POOR,
 AND THOUGH I GIVE MY BODY TO BE BURNED,
 AND HAVE NOT LOVE IT PROFITETH ME NOTHING.
 LOVE SUFFERETH LONG, AND IS KIND,
 LOVE ENVIETH NOT,
 LOVE VAUNTETH NOT ITSELF, IS NOT PUFFED UP,
 DOTH NOT BEHAVE ITSELF UNSEEMLY, SEEKETH NOT HER OWN,
 IS NOT EASILY PROVOKED, THINKETH NO EVIL,
 REJOICETH NOT IN INIQUITY, BUT REJOICETH IN THE TRUTH,
 BEARETH ALL THINGS, BELIEVETH ALL THINGS,
 HOPETH ALL THINGS, ENDURETH ALL THINGS.
 LOVE NEVER FAILETH, BUT WHETHER THERE BE PROPHECIES, THEY SHALL FAIL, 
 WHETHER THERE BE TONGUES, THEY SHALL CEASE,
 WHETHER THERE BE KNOWLEDGE, IT SHALL VANISH AWAY.
 FOR WE KNOW IN PART, AND WE PROPHESY IN PART.
 BUT WHEN THAT WHICH IS PERFECT IS COME, THEN THAT WHICH IS IN PART 
 SHALL BE DONE AWAY. 
 WHEN I WAS A CHILD, I SPAKE AS A CHILD, I UNDERSTOOD AS A CHILD, 
 I THOUGHT AS A CHILD.
 BUT WHEN I BECAME A MAN, I PUT AWAY CHILDISH THINGS.
 FOR NOW WE SEE THROUGH A GLASS, DARKLY, BUT THEN FACE TO FACE.
 NOW I KNOW IN PART. BUT THEN SHALL I KNOW EVEN AS ALSO I AM KNOWN.
 AND NOW ABIDETH FAITH, HOPE AND LOVE, THESE THREE.
 BUT THE GREATEST OF THESE IS LOVE.

                     I CORINTHIANS 13
 Job cpu time:       0 days  0 hours  3 minutes 55.3 seconds.
 File lengths (MBytes):  RWF=     20 Int=      0 D2E=      0 Chk=      2 Scr=      1
 Normal termination of Gaussian 09 at Sat Aug 21 01:40:08 2021.
