 Entering Gaussian System, Link 0=g09
 Input=B3LYP6-31Gxx.Frag_52.gjf
 Output=B3LYP6-31Gxx.Frag_52.log
 Initial command:
 /vol2/users/liuj201281/hxd_yi/bin/Gaussian/g09/l1.exe "/vol2/users/liuj201281/HOFBenchmark/IsodesmicSplit/Sample60/Ring26/Running/Gau-418678.inp" -scrdir="/vol2/users/liuj201281/HOFBenchmark/IsodesmicSplit/Sample60/Ring26/Running/"
 Entering Link 1 = /vol2/users/liuj201281/hxd_yi/bin/Gaussian/g09/l1.exe PID=    418679.
  
 Copyright (c) 1988,1990,1992,1993,1995,1998,2003,2009,2013,
            Gaussian, Inc.  All Rights Reserved.
  
 This is part of the Gaussian(R) 09 program.  It is based on
 the Gaussian(R) 03 system (copyright 2003, Gaussian, Inc.),
 the Gaussian(R) 98 system (copyright 1998, Gaussian, Inc.),
 the Gaussian(R) 94 system (copyright 1995, Gaussian, Inc.),
 the Gaussian 92(TM) system (copyright 1992, Gaussian, Inc.),
 the Gaussian 90(TM) system (copyright 1990, Gaussian, Inc.),
 the Gaussian 88(TM) system (copyright 1988, Gaussian, Inc.),
 the Gaussian 86(TM) system (copyright 1986, Carnegie Mellon
 University), and the Gaussian 82(TM) system (copyright 1983,
 Carnegie Mellon University). Gaussian is a federally registered
 trademark of Gaussian, Inc.
  
 This software contains proprietary and confidential information,
 including trade secrets, belonging to Gaussian, Inc.
  
 This software is provided under written license and may be
 used, copied, transmitted, or stored only in accord with that
 written license.
  
 The following legend is applicable only to US Government
 contracts under FAR:
  
                    RESTRICTED RIGHTS LEGEND
  
 Use, reproduction and disclosure by the US Government is
 subject to restrictions as set forth in subparagraphs (a)
 and (c) of the Commercial Computer Software - Restricted
 Rights clause in FAR 52.227-19.
  
 Gaussian, Inc.
 340 Quinnipiac St., Bldg. 40, Wallingford CT 06492
  
  
 ---------------------------------------------------------------
 Warning -- This program may not be used in any manner that
 competes with the business of Gaussian, Inc. or will provide
 assistance to any competitor of Gaussian, Inc.  The licensee
 of this program is prohibited from giving any competitor of
 Gaussian, Inc. access to this program.  By using this program,
 the user acknowledges that Gaussian, Inc. is engaged in the
 business of creating and licensing software in the field of
 computational chemistry and represents and warrants to the
 licensee that it is not a competitor of Gaussian, Inc. and that
 it will not use this program in any manner prohibited above.
 ---------------------------------------------------------------
  

 Cite this work as:
 Gaussian 09, Revision D.01,
 M. J. Frisch, G. W. Trucks, H. B. Schlegel, G. E. Scuseria, 
 M. A. Robb, J. R. Cheeseman, G. Scalmani, V. Barone, B. Mennucci, 
 G. A. Petersson, H. Nakatsuji, M. Caricato, X. Li, H. P. Hratchian, 
 A. F. Izmaylov, J. Bloino, G. Zheng, J. L. Sonnenberg, M. Hada, 
 M. Ehara, K. Toyota, R. Fukuda, J. Hasegawa, M. Ishida, T. Nakajima, 
 Y. Honda, O. Kitao, H. Nakai, T. Vreven, J. A. Montgomery, Jr., 
 J. E. Peralta, F. Ogliaro, M. Bearpark, J. J. Heyd, E. Brothers, 
 K. N. Kudin, V. N. Staroverov, T. Keith, R. Kobayashi, J. Normand, 
 K. Raghavachari, A. Rendell, J. C. Burant, S. S. Iyengar, J. Tomasi, 
 M. Cossi, N. Rega, J. M. Millam, M. Klene, J. E. Knox, J. B. Cross, 
 V. Bakken, C. Adamo, J. Jaramillo, R. Gomperts, R. E. Stratmann, 
 O. Yazyev, A. J. Austin, R. Cammi, C. Pomelli, J. W. Ochterski, 
 R. L. Martin, K. Morokuma, V. G. Zakrzewski, G. A. Voth, 
 P. Salvador, J. J. Dannenberg, S. Dapprich, A. D. Daniels, 
 O. Farkas, J. B. Foresman, J. V. Ortiz, J. Cioslowski, 
 and D. J. Fox, Gaussian, Inc., Wallingford CT, 2013.
 
 ******************************************
 Gaussian 09:  ES64L-G09RevD.01 24-Apr-2013
                23-Jul-2021 
 ******************************************
 %nproc=128
 Will use up to  128 processors via shared memory.
 %mem=128GB
 -------------------------
 #P OPT Freq B3LYP/6-31G**
 -------------------------
 1/14=-1,18=20,19=15,26=3,38=1/1,3;
 2/9=110,12=2,17=6,18=5,40=1/2;
 3/5=1,6=6,7=101,11=2,16=1,25=1,30=1,71=1,74=-5/1,2,3;
 4//1;
 5/5=2,38=5/2;
 6/7=2,8=2,9=2,10=2,28=1/1;
 7//1,2,3,16;
 1/14=-1,18=20,19=15,26=3/3(2);
 2/9=110/2;
 99//99;
 2/9=110/2;
 3/5=1,6=6,7=101,11=2,16=1,25=1,30=1,71=1,74=-5/1,2,3;
 4/5=5,16=3,69=1/1;
 5/5=2,38=5/2;
 7//1,2,3,16;
 1/14=-1,18=20,19=15,26=3/3(-5);
 2/9=110/2;
 6/7=2,8=2,9=2,10=2,19=2,28=1/1;
 99/9=1/99;
 Leave Link    1 at Fri Jul 23 17:10:16 2021, MaxMem= 17179869184 cpu:        10.0
 (Enter /vol2/users/liuj201281/hxd_yi/bin/Gaussian/g09/l101.exe)
 -------
 Frag_52
 -------
 Symbolic Z-matrix:
 Charge =  0 Multiplicity = 1
 C                     0.1192    1.4383    0. 
 N                     0.3401   -0.0012   -0.008 
 C                     1.6639   -0.5922    0.0039 
 N                    -0.6979   -0.8435   -0.0043 
 O                    -1.7953   -0.2875    0.0048 
 H                     1.0842    1.9397   -0.0765 
 H                    -0.3886    1.7432    0.9207 
 H                    -0.5214    1.7214   -0.84 
 H                     2.2193   -0.3031    0.9036 
 H                     2.24     -0.2891   -0.8778 
 H                     1.5347   -1.6754   -0.0055 
 
 NAtoms=     11 NQM=       11 NQMF=       0 NMMI=      0 NMMIF=      0
                NMic=       0 NMicF=      0.
                    Isotopes and Nuclear Properties:
 (Nuclear quadrupole moments (NQMom) in fm**2, nuclear magnetic moments (NMagM)
  in nuclear magnetons)

  Atom         1           2           3           4           5           6           7           8           9          10
 IAtWgt=          12          14          12          14          16           1           1           1           1           1
 AtmWgt=  12.0000000  14.0030740  12.0000000  14.0030740  15.9949146   1.0078250   1.0078250   1.0078250   1.0078250   1.0078250
 NucSpn=           0           2           0           2           0           1           1           1           1           1
 AtZEff=   0.0000000   0.0000000   0.0000000   0.0000000   0.0000000   0.0000000   0.0000000   0.0000000   0.0000000   0.0000000
 NQMom=    0.0000000   2.0440000   0.0000000   2.0440000   0.0000000   0.0000000   0.0000000   0.0000000   0.0000000   0.0000000
 NMagM=    0.0000000   0.4037610   0.0000000   0.4037610   0.0000000   2.7928460   2.7928460   2.7928460   2.7928460   2.7928460
 AtZNuc=   6.0000000   7.0000000   6.0000000   7.0000000   8.0000000   1.0000000   1.0000000   1.0000000   1.0000000   1.0000000

  Atom        11
 IAtWgt=           1
 AtmWgt=   1.0078250
 NucSpn=           1
 AtZEff=   0.0000000
 NQMom=    0.0000000
 NMagM=    2.7928460
 AtZNuc=   1.0000000
 Leave Link  101 at Fri Jul 23 17:10:16 2021, MaxMem= 17179869184 cpu:        55.5
 (Enter /vol2/users/liuj201281/hxd_yi/bin/Gaussian/g09/l103.exe)

 GradGradGradGradGradGradGradGradGradGradGradGradGradGradGradGradGradGrad
 Berny optimization.
 Initialization pass.
                           ----------------------------
                           !    Initial Parameters    !
                           ! (Angstroms and Degrees)  !
 --------------------------                            --------------------------
 ! Name  Definition              Value          Derivative Info.                !
 --------------------------------------------------------------------------------
 ! R1    R(1,2)                  1.4564         estimate D2E/DX2                !
 ! R2    R(1,6)                  1.0902         estimate D2E/DX2                !
 ! R3    R(1,7)                  1.0948         estimate D2E/DX2                !
 ! R4    R(1,8)                  1.0937         estimate D2E/DX2                !
 ! R5    R(2,3)                  1.4498         estimate D2E/DX2                !
 ! R6    R(2,4)                  1.3368         estimate D2E/DX2                !
 ! R7    R(3,9)                  1.0961         estimate D2E/DX2                !
 ! R8    R(3,10)                 1.096          estimate D2E/DX2                !
 ! R9    R(3,11)                 1.0909         estimate D2E/DX2                !
 ! R10   R(4,5)                  1.2302         estimate D2E/DX2                !
 ! A1    A(2,1,6)              108.6599         estimate D2E/DX2                !
 ! A2    A(2,1,7)              110.5029         estimate D2E/DX2                !
 ! A3    A(2,1,8)              109.906          estimate D2E/DX2                !
 ! A4    A(6,1,7)              109.9687         estimate D2E/DX2                !
 ! A5    A(6,1,8)              110.2142         estimate D2E/DX2                !
 ! A6    A(7,1,8)              107.5871         estimate D2E/DX2                !
 ! A7    A(1,2,3)              122.7774         estimate D2E/DX2                !
 ! A8    A(1,2,4)              120.3321         estimate D2E/DX2                !
 ! A9    A(3,2,4)              116.8814         estimate D2E/DX2                !
 ! A10   A(2,3,9)              111.2158         estimate D2E/DX2                !
 ! A11   A(2,3,10)             111.139          estimate D2E/DX2                !
 ! A12   A(2,3,11)             107.2506         estimate D2E/DX2                !
 ! A13   A(9,3,10)             108.7257         estimate D2E/DX2                !
 ! A14   A(9,3,11)             109.2057         estimate D2E/DX2                !
 ! A15   A(10,3,11)            109.2641         estimate D2E/DX2                !
 ! A16   A(2,4,5)              114.0732         estimate D2E/DX2                !
 ! D1    D(6,1,2,3)              5.1162         estimate D2E/DX2                !
 ! D2    D(6,1,2,4)           -176.0137         estimate D2E/DX2                !
 ! D3    D(7,1,2,3)           -115.6218         estimate D2E/DX2                !
 ! D4    D(7,1,2,4)             63.2483         estimate D2E/DX2                !
 ! D5    D(8,1,2,3)            125.7909         estimate D2E/DX2                !
 ! D6    D(8,1,2,4)            -55.3391         estimate D2E/DX2                !
 ! D7    D(1,2,3,9)             60.6427         estimate D2E/DX2                !
 ! D8    D(1,2,3,10)           -60.644          estimate D2E/DX2                !
 ! D9    D(1,2,3,11)           179.9858         estimate D2E/DX2                !
 ! D10   D(4,2,3,9)           -118.2639         estimate D2E/DX2                !
 ! D11   D(4,2,3,10)           120.4494         estimate D2E/DX2                !
 ! D12   D(4,2,3,11)             1.0792         estimate D2E/DX2                !
 ! D13   D(1,2,4,5)              0.0641         estimate D2E/DX2                !
 ! D14   D(3,2,4,5)            178.999          estimate D2E/DX2                !
 --------------------------------------------------------------------------------
 Trust Radius=3.00D-01 FncErr=1.00D-07 GrdErr=1.00D-06
 Number of steps in this run=     50 maximum allowed number of steps=    100.
 GradGradGradGradGradGradGradGradGradGradGradGradGradGradGradGradGradGrad

 Leave Link  103 at Fri Jul 23 17:10:16 2021, MaxMem= 17179869184 cpu:         1.9
 (Enter /vol2/users/liuj201281/hxd_yi/bin/Gaussian/g09/l202.exe)
                          Input orientation:                          
 ---------------------------------------------------------------------
 Center     Atomic      Atomic             Coordinates (Angstroms)
 Number     Number       Type             X           Y           Z
 ---------------------------------------------------------------------
      1          6           0        0.119200    1.438300    0.000000
      2          7           0        0.340100   -0.001200   -0.008000
      3          6           0        1.663900   -0.592200    0.003900
      4          7           0       -0.697900   -0.843500   -0.004300
      5          8           0       -1.795300   -0.287500    0.004800
      6          1           0        1.084200    1.939700   -0.076500
      7          1           0       -0.388600    1.743200    0.920700
      8          1           0       -0.521400    1.721400   -0.840000
      9          1           0        2.219300   -0.303100    0.903600
     10          1           0        2.240000   -0.289100   -0.877800
     11          1           0        1.534700   -1.675400   -0.005500
 ---------------------------------------------------------------------
                    Distance matrix (angstroms):
                    1          2          3          4          5
     1  C    0.000000
     2  N    1.456373   0.000000
     3  C    2.551283   1.449782   0.000000
     4  N    2.423692   1.336760   2.375146   0.000000
     5  O    2.577541   2.154545   3.472594   1.230246   0.000000
     6  H    1.090174   2.079776   2.598660   3.305646   3.641229
     7  H    1.094766   2.106281   3.241508   2.764473   2.634658
     8  H    1.093670   2.098036   3.292484   2.703379   2.524319
     9  H    2.873915   2.110344   1.096133   3.102639   4.114012
    10  H    2.872671   2.109279   1.095972   3.114742   4.130694
    11  H    3.420351   2.056701   1.090919   2.382554   3.607669
                    6          7          8          9         10
     6  H    0.000000
     7  H    1.789458   0.000000
     8  H    1.791239   1.765836   0.000000
     9  H    2.697999   3.314933   3.827555   0.000000
    10  H    2.635433   3.778146   3.415973   1.781575   0.000000
    11  H    3.643753   4.030354   4.057362   1.782792   1.783307
                   11
    11  H    0.000000
 Stoichiometry    C2H6N2O
 Framework group  C1[X(C2H6N2O)]
 Deg. of freedom    27
 Full point group                 C1      NOp   1
 Largest Abelian subgroup         C1      NOp   1
 Largest concise Abelian subgroup C1      NOp   1
                         Standard orientation:                         
 ---------------------------------------------------------------------
 Center     Atomic      Atomic             Coordinates (Angstroms)
 Number     Number       Type             X           Y           Z
 ---------------------------------------------------------------------
      1          6           0        0.119214    1.438289   -0.000005
      2          7           0        0.340105   -0.001212   -0.008005
      3          6           0        1.663901   -0.592220    0.003895
      4          7           0       -0.697900   -0.843506   -0.004305
      5          8           0       -1.795297   -0.287499    0.004795
      6          1           0        1.084217    1.939683   -0.076505
      7          1           0       -0.388584    1.743192    0.920695
      8          1           0       -0.521384    1.721393   -0.840005
      9          1           0        2.219303   -0.303124    0.903595
     10          1           0        2.240003   -0.289124   -0.877805
     11          1           0        1.534695   -1.675420   -0.005505
 ---------------------------------------------------------------------
 Rotational constants (GHZ):      9.0196706      4.5845426      3.1601757
 Leave Link  202 at Fri Jul 23 17:10:16 2021, MaxMem= 17179869184 cpu:         1.9
 (Enter /vol2/users/liuj201281/hxd_yi/bin/Gaussian/g09/l301.exe)
 Standard basis: 6-31G(d,p) (6D, 7F)
 Ernie: Thresh=  0.10000D-02 Tol=  0.10000D-05 Strict=F.
 There are   105 symmetry adapted cartesian basis functions of A   symmetry.
 There are   105 symmetry adapted basis functions of A   symmetry.
   105 basis functions,   182 primitive gaussians,   105 cartesian basis functions
    20 alpha electrons       20 beta electrons
       nuclear repulsion energy       183.9563672611 Hartrees.
 IExCor=  402 DFT=T Ex+Corr=B3LYP ExCW=0 ScaHFX=  0.200000
 ScaDFX=  0.800000  0.720000  1.000000  0.810000 ScalE2=  1.000000  1.000000
 IRadAn=      0 IRanWt=     -1 IRanGd=            0 ICorTp=0 IEmpDi=  4
 NAtoms=   11 NActive=   11 NUniq=   11 SFac= 1.00D+00 NAtFMM=   60 NAOKFM=F Big=F
 Integral buffers will be    131072 words long.
 Raffenetti 2 integral format.
 Two-electron integral symmetry is turned on.
 Leave Link  301 at Fri Jul 23 17:10:16 2021, MaxMem= 17179869184 cpu:         7.0
 (Enter /vol2/users/liuj201281/hxd_yi/bin/Gaussian/g09/l302.exe)
 NPDir=0 NMtPBC=     1 NCelOv=     1 NCel=       1 NClECP=     1 NCelD=      1
         NCelK=      1 NCelE2=     1 NClLst=     1 CellRange=     0.0.
 One-electron integrals computed using PRISM.
 NBasis=   105 RedAO= T EigKep=  3.45D-03  NBF=   105
 NBsUse=   105 1.00D-06 EigRej= -1.00D+00 NBFU=   105
 Precomputing XC quadrature grid using
 IXCGrd= 4 IRadAn=           0 IRanWt=          -1 IRanGd=           0 AccXCQ= 0.00D+00.
 Generated NRdTot=       0 NPtTot=           0 NUsed=           0 NTot=          32
 NSgBfM=   105   105   105   105   105 MxSgAt=    11 MxSgA2=    11.
 Leave Link  302 at Fri Jul 23 17:10:17 2021, MaxMem= 17179869184 cpu:        47.0
 (Enter /vol2/users/liuj201281/hxd_yi/bin/Gaussian/g09/l303.exe)
 DipDrv:  MaxL=1.
 Leave Link  303 at Fri Jul 23 17:10:17 2021, MaxMem= 17179869184 cpu:         4.4
 (Enter /vol2/users/liuj201281/hxd_yi/bin/Gaussian/g09/l401.exe)
 ExpMin= 1.61D-01 ExpMax= 5.48D+03 ExpMxC= 8.25D+02 IAcc=1 IRadAn=         1 AccDes= 0.00D+00
 Harris functional with IExCor=  402 and IRadAn=       1 diagonalized for initial guess.
 HarFok:  IExCor=  402 AccDes= 0.00D+00 IRadAn=         1 IDoV= 1 UseB2=F ITyADJ=14
 ICtDFT=  3500011 ScaDFX=  1.000000  1.000000  1.000000  1.000000
 FoFCou: FMM=F IPFlag=           0 FMFlag=      100000 FMFlg1=           0
         NFxFlg=           0 DoJE=T BraDBF=F KetDBF=T FulRan=T
         wScrn=  0.000000 ICntrl=     500 IOpCl=  0 I1Cent=   200000004 NGrid=           0
         NMat0=    1 NMatS0=      1 NMatT0=    0 NMatD0=    1 NMtDS0=    0 NMtDT0=    0
 Petite list used in FoFCou.
 Harris En= -264.486525929039    
 JPrj=0 DoOrth=F DoCkMO=F.
 Leave Link  401 at Fri Jul 23 17:10:17 2021, MaxMem= 17179869184 cpu:        46.0
 (Enter /vol2/users/liuj201281/hxd_yi/bin/Gaussian/g09/l502.exe)
 Closed shell SCF:
 Using DIIS extrapolation, IDIIS=  1040.
 Integral symmetry usage will be decided dynamically.
 Keep R1 ints in memory in canonical form, NReq=16480569.
 IVT=       65860 IEndB=       65860 NGot= 17179869184 MDV= 17164315930
 LenX= 17164315930 LenY= 17164304464
 Requested convergence on RMS density matrix=1.00D-08 within 128 cycles.
 Requested convergence on MAX density matrix=1.00D-06.
 Requested convergence on             energy=1.00D-06.
 No special actions if energy rises.
 FoFCou: FMM=F IPFlag=           0 FMFlag=           0 FMFlg1=           0
         NFxFlg=           0 DoJE=F BraDBF=F KetDBF=F FulRan=T
         wScrn=  0.000000 ICntrl=     600 IOpCl=  0 I1Cent=           0 NGrid=           0
         NMat0=    1 NMatS0=   5565 NMatT0=    0 NMatD0=    1 NMtDS0=    0 NMtDT0=    0
 Symmetry not used in FoFCou.
 Integral accuracy reduced to 1.0D-05 until final iterations.

 Cycle   1  Pass 0  IDiag  1:
 E= -264.342097879056    
 DIIS: error= 3.20D-02 at cycle   1 NSaved=   1.
 NSaved= 1 IEnMin= 1 EnMin= -264.342097879056     IErMin= 1 ErrMin= 3.20D-02
 ErrMax= 3.20D-02  0.00D+00 EMaxC= 1.00D-01 BMatC= 1.59D-01 BMatP= 1.59D-01
 IDIUse=3 WtCom= 6.80D-01 WtEn= 3.20D-01
 Coeff-Com:  0.100D+01
 Coeff-En:   0.100D+01
 Coeff:      0.100D+01
 Gap=     0.133 Goal=   None    Shift=    0.000
 GapD=    0.133 DampG=1.000 DampE=0.500 DampFc=0.5000 IDamp=-1.
 Damping current iteration by 5.00D-01
 RMSDP=8.93D-03 MaxDP=2.40D-01              OVMax= 3.65D-01

 Cycle   2  Pass 0  IDiag  1:
 E= -264.342341527745     Delta-E=       -0.000243648689 Rises=F Damp=T
 DIIS: error= 2.33D-02 at cycle   2 NSaved=   2.
 NSaved= 2 IEnMin= 2 EnMin= -264.342341527745     IErMin= 2 ErrMin= 2.33D-02
 ErrMax= 2.33D-02  0.00D+00 EMaxC= 1.00D-01 BMatC= 6.15D-02 BMatP= 1.59D-01
 IDIUse=3 WtCom= 7.67D-01 WtEn= 2.33D-01
 Coeff-Com:  0.349D+00 0.651D+00
 Coeff-En:   0.499D+00 0.501D+00
 Coeff:      0.384D+00 0.616D+00
 Gap=     0.186 Goal=   None    Shift=    0.000
 RMSDP=3.50D-03 MaxDP=8.98D-02 DE=-2.44D-04 OVMax= 2.71D-01

 Cycle   3  Pass 0  IDiag  1:
 E= -264.450489385678     Delta-E=       -0.108147857933 Rises=F Damp=F
 DIIS: error= 1.58D-02 at cycle   3 NSaved=   3.
 NSaved= 3 IEnMin= 3 EnMin= -264.450489385678     IErMin= 3 ErrMin= 1.58D-02
 ErrMax= 1.58D-02  0.00D+00 EMaxC= 1.00D-01 BMatC= 3.27D-02 BMatP= 6.15D-02
 IDIUse=3 WtCom= 8.42D-01 WtEn= 1.58D-01
 Coeff-Com:  0.137D+00 0.401D+00 0.462D+00
 Coeff-En:   0.000D+00 0.000D+00 0.100D+01
 Coeff:      0.115D+00 0.338D+00 0.547D+00
 Gap=     0.188 Goal=   None    Shift=    0.000
 RMSDP=2.45D-03 MaxDP=5.25D-02 DE=-1.08D-01 OVMax= 1.17D-01

 Cycle   4  Pass 0  IDiag  1:
 E= -264.471899773220     Delta-E=       -0.021410387541 Rises=F Damp=F
 DIIS: error= 7.91D-03 at cycle   4 NSaved=   4.
 NSaved= 4 IEnMin= 4 EnMin= -264.471899773220     IErMin= 4 ErrMin= 7.91D-03
 ErrMax= 7.91D-03  0.00D+00 EMaxC= 1.00D-01 BMatC= 1.05D-02 BMatP= 3.27D-02
 IDIUse=3 WtCom= 9.21D-01 WtEn= 7.91D-02
 Coeff-Com:  0.514D-01 0.100D+00 0.354D+00 0.494D+00
 Coeff-En:   0.000D+00 0.000D+00 0.276D+00 0.724D+00
 Coeff:      0.473D-01 0.923D-01 0.348D+00 0.512D+00
 Gap=     0.194 Goal=   None    Shift=    0.000
 RMSDP=1.15D-03 MaxDP=2.97D-02 DE=-2.14D-02 OVMax= 5.58D-02

 Cycle   5  Pass 0  IDiag  1:
 E= -264.480536063365     Delta-E=       -0.008636290145 Rises=F Damp=F
 DIIS: error= 2.06D-03 at cycle   5 NSaved=   5.
 NSaved= 5 IEnMin= 5 EnMin= -264.480536063365     IErMin= 5 ErrMin= 2.06D-03
 ErrMax= 2.06D-03  0.00D+00 EMaxC= 1.00D-01 BMatC= 8.71D-04 BMatP= 1.05D-02
 IDIUse=3 WtCom= 9.79D-01 WtEn= 2.06D-02
 Coeff-Com:  0.130D-01 0.941D-02 0.156D+00 0.329D+00 0.493D+00
 Coeff-En:   0.000D+00 0.000D+00 0.000D+00 0.384D-01 0.962D+00
 Coeff:      0.127D-01 0.922D-02 0.153D+00 0.323D+00 0.502D+00
 Gap=     0.196 Goal=   None    Shift=    0.000
 RMSDP=2.57D-04 MaxDP=8.11D-03 DE=-8.64D-03 OVMax= 1.30D-02

 Cycle   6  Pass 0  IDiag  1:
 E= -264.481245655690     Delta-E=       -0.000709592325 Rises=F Damp=F
 DIIS: error= 4.41D-04 at cycle   6 NSaved=   6.
 NSaved= 6 IEnMin= 6 EnMin= -264.481245655690     IErMin= 6 ErrMin= 4.41D-04
 ErrMax= 4.41D-04  0.00D+00 EMaxC= 1.00D-01 BMatC= 3.30D-05 BMatP= 8.71D-04
 IDIUse=3 WtCom= 9.96D-01 WtEn= 4.41D-03
 Coeff-Com:  0.135D-02-0.484D-02 0.323D-01 0.827D-01 0.227D+00 0.661D+00
 Coeff-En:   0.000D+00 0.000D+00 0.000D+00 0.000D+00 0.000D+00 0.100D+01
 Coeff:      0.135D-02-0.482D-02 0.322D-01 0.823D-01 0.226D+00 0.663D+00
 Gap=     0.196 Goal=   None    Shift=    0.000
 RMSDP=4.19D-05 MaxDP=1.35D-03 DE=-7.10D-04 OVMax= 1.10D-03

 Cycle   7  Pass 0  IDiag  1:
 E= -264.481269016693     Delta-E=       -0.000023361003 Rises=F Damp=F
 DIIS: error= 1.30D-04 at cycle   7 NSaved=   7.
 NSaved= 7 IEnMin= 7 EnMin= -264.481269016693     IErMin= 7 ErrMin= 1.30D-04
 ErrMax= 1.30D-04  0.00D+00 EMaxC= 1.00D-01 BMatC= 1.75D-06 BMatP= 3.30D-05
 IDIUse=3 WtCom= 9.99D-01 WtEn= 1.30D-03
 Coeff-Com:  0.172D-03-0.282D-02 0.687D-02 0.187D-01 0.822D-01 0.303D+00
 Coeff-Com:  0.592D+00
 Coeff-En:   0.000D+00 0.000D+00 0.000D+00 0.000D+00 0.000D+00 0.000D+00
 Coeff-En:   0.100D+01
 Coeff:      0.172D-03-0.282D-02 0.686D-02 0.187D-01 0.821D-01 0.303D+00
 Coeff:      0.592D+00
 Gap=     0.196 Goal=   None    Shift=    0.000
 RMSDP=1.66D-05 MaxDP=2.67D-04 DE=-2.34D-05 OVMax= 3.69D-04

 Cycle   8  Pass 0  IDiag  1:
 E= -264.481270562405     Delta-E=       -0.000001545712 Rises=F Damp=F
 DIIS: error= 2.19D-05 at cycle   8 NSaved=   8.
 NSaved= 8 IEnMin= 8 EnMin= -264.481270562405     IErMin= 8 ErrMin= 2.19D-05
 ErrMax= 2.19D-05  0.00D+00 EMaxC= 1.00D-01 BMatC= 7.67D-08 BMatP= 1.75D-06
 IDIUse=1 WtCom= 1.00D+00 WtEn= 0.00D+00
 Coeff-Com:  0.711D-04-0.365D-03-0.460D-03-0.240D-02 0.272D-02 0.104D-01
 Coeff-Com:  0.124D+00 0.866D+00
 Coeff:      0.711D-04-0.365D-03-0.460D-03-0.240D-02 0.272D-02 0.104D-01
 Coeff:      0.124D+00 0.866D+00
 Gap=     0.196 Goal=   None    Shift=    0.000
 RMSDP=3.23D-06 MaxDP=1.01D-04 DE=-1.55D-06 OVMax= 7.16D-05

 Initial convergence to 1.0D-05 achieved.  Increase integral accuracy.
 Cycle   9  Pass 1  IDiag  1:
 E= -264.481300113541     Delta-E=       -0.000029551136 Rises=F Damp=F
 DIIS: error= 8.10D-06 at cycle   1 NSaved=   1.
 NSaved= 1 IEnMin= 1 EnMin= -264.481300113541     IErMin= 1 ErrMin= 8.10D-06
 ErrMax= 8.10D-06  0.00D+00 EMaxC= 1.00D-01 BMatC= 1.15D-08 BMatP= 1.15D-08
 IDIUse=1 WtCom= 1.00D+00 WtEn= 0.00D+00
 Coeff-Com:  0.100D+01
 Coeff:      0.100D+01
 Gap=     0.196 Goal=   None    Shift=    0.000
 RMSDP=3.23D-06 MaxDP=1.01D-04 DE=-2.96D-05 OVMax= 4.17D-05

 Cycle  10  Pass 1  IDiag  1:
 E= -264.481300122525     Delta-E=       -0.000000008984 Rises=F Damp=F
 DIIS: error= 5.74D-06 at cycle   2 NSaved=   2.
 NSaved= 2 IEnMin= 2 EnMin= -264.481300122525     IErMin= 2 ErrMin= 5.74D-06
 ErrMax= 5.74D-06  0.00D+00 EMaxC= 1.00D-01 BMatC= 4.58D-09 BMatP= 1.15D-08
 IDIUse=1 WtCom= 1.00D+00 WtEn= 0.00D+00
 Coeff-Com:  0.321D+00 0.679D+00
 Coeff:      0.321D+00 0.679D+00
 Gap=     0.196 Goal=   None    Shift=    0.000
 RMSDP=1.38D-06 MaxDP=3.70D-05 DE=-8.98D-09 OVMax= 7.45D-05

 Cycle  11  Pass 1  IDiag  1:
 E= -264.481300117882     Delta-E=        0.000000004643 Rises=F Damp=F
 DIIS: error= 8.99D-06 at cycle   3 NSaved=   3.
 NSaved= 3 IEnMin= 2 EnMin= -264.481300122525     IErMin= 2 ErrMin= 5.74D-06
 ErrMax= 8.99D-06  0.00D+00 EMaxC= 1.00D-01 BMatC= 1.04D-08 BMatP= 4.58D-09
 IDIUse=1 WtCom= 1.00D+00 WtEn= 0.00D+00
 Coeff-Com: -0.167D-02 0.603D+00 0.398D+00
 Coeff:     -0.167D-02 0.603D+00 0.398D+00
 Gap=     0.196 Goal=   None    Shift=    0.000
 RMSDP=8.95D-07 MaxDP=2.40D-05 DE= 4.64D-09 OVMax= 4.59D-05

 Cycle  12  Pass 1  IDiag  1:
 E= -264.481300126293     Delta-E=       -0.000000008410 Rises=F Damp=F
 DIIS: error= 7.11D-07 at cycle   4 NSaved=   4.
 NSaved= 4 IEnMin= 4 EnMin= -264.481300126293     IErMin= 4 ErrMin= 7.11D-07
 ErrMax= 7.11D-07  0.00D+00 EMaxC= 1.00D-01 BMatC= 8.99D-11 BMatP= 4.58D-09
 IDIUse=1 WtCom= 1.00D+00 WtEn= 0.00D+00
 Coeff-Com: -0.140D-01 0.271D+00 0.194D+00 0.549D+00
 Coeff:     -0.140D-01 0.271D+00 0.194D+00 0.549D+00
 Gap=     0.196 Goal=   None    Shift=    0.000
 RMSDP=8.40D-08 MaxDP=2.04D-06 DE=-8.41D-09 OVMax= 2.20D-06

 Cycle  13  Pass 1  IDiag  1:
 E= -264.481300126350     Delta-E=       -0.000000000057 Rises=F Damp=F
 DIIS: error= 4.11D-07 at cycle   5 NSaved=   5.
 NSaved= 5 IEnMin= 5 EnMin= -264.481300126350     IErMin= 5 ErrMin= 4.11D-07
 ErrMax= 4.11D-07  0.00D+00 EMaxC= 1.00D-01 BMatC= 1.38D-11 BMatP= 8.99D-11
 IDIUse=1 WtCom= 1.00D+00 WtEn= 0.00D+00
 Coeff-Com: -0.757D-02 0.112D+00 0.818D-01 0.331D+00 0.483D+00
 Coeff:     -0.757D-02 0.112D+00 0.818D-01 0.331D+00 0.483D+00
 Gap=     0.196 Goal=   None    Shift=    0.000
 RMSDP=2.91D-08 MaxDP=8.25D-07 DE=-5.75D-11 OVMax= 9.66D-07

 Cycle  14  Pass 1  IDiag  1:
 E= -264.481300126362     Delta-E=       -0.000000000012 Rises=F Damp=F
 DIIS: error= 6.90D-08 at cycle   6 NSaved=   6.
 NSaved= 6 IEnMin= 6 EnMin= -264.481300126362     IErMin= 6 ErrMin= 6.90D-08
 ErrMax= 6.90D-08  0.00D+00 EMaxC= 1.00D-01 BMatC= 7.21D-13 BMatP= 1.38D-11
 IDIUse=1 WtCom= 1.00D+00 WtEn= 0.00D+00
 Coeff-Com: -0.289D-02 0.383D-01 0.275D-01 0.131D+00 0.257D+00 0.550D+00
 Coeff:     -0.289D-02 0.383D-01 0.275D-01 0.131D+00 0.257D+00 0.550D+00
 Gap=     0.196 Goal=   None    Shift=    0.000
 RMSDP=9.26D-09 MaxDP=1.90D-07 DE=-1.17D-11 OVMax= 2.14D-07

 SCF Done:  E(RB3LYP) =  -264.481300126     A.U. after   14 cycles
            NFock= 14  Conv=0.93D-08     -V/T= 2.0092
 KE= 2.620697823522D+02 PE=-9.850561442468D+02 EE= 2.745486945072D+02
 Leave Link  502 at Fri Jul 23 17:10:19 2021, MaxMem= 17179869184 cpu:       214.8
 (Enter /vol2/users/liuj201281/hxd_yi/bin/Gaussian/g09/l601.exe)
 Copying SCF densities to generalized density rwf, IOpCl= 0 IROHF=0.

 **********************************************************************

            Population analysis using the SCF density.

 **********************************************************************

 Orbital symmetries:
       Occupied  (A) (A) (A) (A) (A) (A) (A) (A) (A) (A) (A) (A)
                 (A) (A) (A) (A) (A) (A) (A) (A)
       Virtual   (A) (A) (A) (A) (A) (A) (A) (A) (A) (A) (A) (A)
                 (A) (A) (A) (A) (A) (A) (A) (A) (A) (A) (A) (A)
                 (A) (A) (A) (A) (A) (A) (A) (A) (A) (A) (A) (A)
                 (A) (A) (A) (A) (A) (A) (A) (A) (A) (A) (A) (A)
                 (A) (A) (A) (A) (A) (A) (A) (A) (A) (A) (A) (A)
                 (A) (A) (A) (A) (A) (A) (A) (A) (A) (A) (A) (A)
                 (A) (A) (A) (A) (A) (A) (A) (A) (A) (A) (A) (A)
                 (A)
 The electronic state is 1-A.
 Alpha  occ. eigenvalues --  -19.15052 -14.44500 -14.40319 -10.23592 -10.22982
 Alpha  occ. eigenvalues --   -1.13415  -0.95855  -0.75336  -0.73924  -0.58105
 Alpha  occ. eigenvalues --   -0.50744  -0.50111  -0.49647  -0.42519  -0.42302
 Alpha  occ. eigenvalues --   -0.40538  -0.40351  -0.37572  -0.25679  -0.22107
 Alpha virt. eigenvalues --   -0.02522   0.08847   0.12653   0.12895   0.13858
 Alpha virt. eigenvalues --    0.14443   0.15357   0.18005   0.21682   0.30434
 Alpha virt. eigenvalues --    0.33739   0.46960   0.50802   0.54669   0.55792
 Alpha virt. eigenvalues --    0.57539   0.63234   0.65487   0.70457   0.72077
 Alpha virt. eigenvalues --    0.76997   0.78821   0.80846   0.82188   0.83496
 Alpha virt. eigenvalues --    0.87962   0.88848   0.89431   0.91176   0.93442
 Alpha virt. eigenvalues --    0.99858   1.00806   1.14258   1.15210   1.25573
 Alpha virt. eigenvalues --    1.26574   1.29950   1.32569   1.53245   1.59180
 Alpha virt. eigenvalues --    1.60350   1.69831   1.78807   1.83547   1.84261
 Alpha virt. eigenvalues --    1.85177   1.88699   1.92198   1.94145   2.00826
 Alpha virt. eigenvalues --    2.01316   2.03658   2.04066   2.06588   2.10390
 Alpha virt. eigenvalues --    2.17884   2.26830   2.28236   2.30680   2.36357
 Alpha virt. eigenvalues --    2.46997   2.49201   2.51607   2.58799   2.62736
 Alpha virt. eigenvalues --    2.63723   2.67488   2.69715   2.81657   2.82604
 Alpha virt. eigenvalues --    2.86309   2.89168   3.03194   3.08886   3.17166
 Alpha virt. eigenvalues --    3.22732   3.39181   3.40576   3.41044   3.43399
 Alpha virt. eigenvalues --    3.56576   3.71882   3.99325   4.42475   4.50636
          Condensed to atoms (all electrons):
               1          2          3          4          5          6
     1  C    4.838663   0.223487  -0.042578  -0.024031   0.017304   0.380221
     2  N    0.223487   6.971298   0.289604   0.104153  -0.124715  -0.033503
     3  C   -0.042578   0.289604   4.816409  -0.050319   0.005437  -0.001045
     4  N   -0.024031   0.104153  -0.050319   6.537742   0.274513   0.003876
     5  O    0.017304  -0.124715   0.005437   0.274513   8.195846   0.001138
     6  H    0.380221  -0.033503  -0.001045   0.003876   0.001138   0.590447
     7  H    0.388491  -0.039393   0.002231  -0.003580   0.006322  -0.030620
     8  H    0.387461  -0.039159   0.002801  -0.004287   0.009343  -0.027731
     9  H   -0.000027  -0.043490   0.384026   0.001145  -0.000049   0.000022
    10  H   -0.000383  -0.043022   0.383865   0.001392  -0.000066   0.001042
    11  H    0.005723  -0.041801   0.380196   0.017478  -0.000116   0.000210
               7          8          9         10         11
     1  C    0.388491   0.387461  -0.000027  -0.000383   0.005723
     2  N   -0.039393  -0.039159  -0.043490  -0.043022  -0.041801
     3  C    0.002231   0.002801   0.384026   0.383865   0.380196
     4  N   -0.003580  -0.004287   0.001145   0.001392   0.017478
     5  O    0.006322   0.009343  -0.000049  -0.000066  -0.000116
     6  H   -0.030620  -0.027731   0.000022   0.001042   0.000210
     7  H    0.568083  -0.037022   0.001378  -0.000461  -0.000177
     8  H   -0.037022   0.559316  -0.000393   0.000999  -0.000170
     9  H    0.001378  -0.000393   0.602931  -0.046475  -0.025325
    10  H   -0.000461   0.000999  -0.046475   0.602238  -0.024937
    11  H   -0.000177  -0.000170  -0.025325  -0.024937   0.539061
 Mulliken charges:
               1
     1  C   -0.174330
     2  N   -0.223459
     3  C   -0.170626
     4  N    0.141918
     5  O   -0.384957
     6  H    0.115944
     7  H    0.144748
     8  H    0.148840
     9  H    0.126256
    10  H    0.125809
    11  H    0.149857
 Sum of Mulliken charges =   0.00000
 Mulliken charges with hydrogens summed into heavy atoms:
               1
     1  C    0.235202
     2  N   -0.223459
     3  C    0.231296
     4  N    0.141918
     5  O   -0.384957
 Electronic spatial extent (au):  <R**2>=            412.8052
 Charge=              0.0000 electrons
 Dipole moment (field-independent basis, Debye):
    X=              3.7657    Y=              1.5958    Z=              0.0019  Tot=              4.0899
 Quadrupole moment (field-independent basis, Debye-Ang):
   XX=            -32.5448   YY=            -29.0468   ZZ=            -29.4200
   XY=             -1.9412   XZ=              0.0269   YZ=             -0.0271
 Traceless Quadrupole moment (field-independent basis, Debye-Ang):
   XX=             -2.2076   YY=              1.2904   ZZ=              0.9172
   XY=             -1.9412   XZ=              0.0269   YZ=             -0.0271
 Octapole moment (field-independent basis, Debye-Ang**2):
  XXX=              8.4611  YYY=              2.2905  ZZZ=              0.1571  XYY=              0.4645
  XXY=              0.4865  XXZ=             -0.1807  XZZ=             -2.3389  YZZ=              0.1921
  YYZ=             -0.0229  XYZ=             -0.0086
 Hexadecapole moment (field-independent basis, Debye-Ang**3):
 XXXX=           -306.5810 YYYY=           -179.1630 ZZZZ=            -39.2936 XXXY=             -2.3531
 XXXZ=             -0.0646 YYYX=             -1.9195 YYYZ=             -0.0612 ZZZX=              0.0399
 ZZZY=              0.2017 XXYY=            -77.5134 XXZZ=            -52.8508 YYZZ=            -36.3393
 XXYZ=             -0.3013 YYXZ=             -0.0837 ZZXY=             -0.0394
 N-N= 1.839563672611D+02 E-N=-9.850561456142D+02  KE= 2.620697823522D+02
 No NMR shielding tensors so no spin-rotation constants.
 Leave Link  601 at Fri Jul 23 17:10:25 2021, MaxMem= 17179869184 cpu:        48.7
 (Enter /vol2/users/liuj201281/hxd_yi/bin/Gaussian/g09/l701.exe)
 Compute integral first derivatives.
 ... and contract with generalized density number  0.
 Leave Link  701 at Fri Jul 23 17:10:25 2021, MaxMem= 17179869184 cpu:        44.9
 (Enter /vol2/users/liuj201281/hxd_yi/bin/Gaussian/g09/l702.exe)
 L702 exits ... SP integral derivatives will be done elsewhere.
 Leave Link  702 at Fri Jul 23 17:10:25 2021, MaxMem= 17179869184 cpu:         2.7
 (Enter /vol2/users/liuj201281/hxd_yi/bin/Gaussian/g09/l703.exe)
 Compute integral first derivatives, UseDBF=F ICtDFT=           0.
 Integral derivatives from FoFJK, PRISM(SPDF).
 Calling FoFJK, ICntrl=      2127 FMM=F ISym2X=0 I1Cent= 0 IOpClX= 0 NMat=1 NMatS=1 NMatT=0.
 FoFJK:  IHMeth= 1 ICntrl=    2127 DoSepK=F KAlg= 0 I1Cent=   0 FoldK=F
 IRaf=         0 NMat=   1 IRICut=       1 DoRegI=T DoRafI=F ISym2E= 0.
 FoFCou: FMM=F IPFlag=           0 FMFlag=      100000 FMFlg1=         800
         NFxFlg=           0 DoJE=F BraDBF=F KetDBF=F FulRan=T
         wScrn=  0.000000 ICntrl=    2127 IOpCl=  0 I1Cent=           0 NGrid=           0
         NMat0=    1 NMatS0=      1 NMatT0=    0 NMatD0=    1 NMtDS0=    0 NMtDT0=    0
 Symmetry not used in FoFCou.
 Leave Link  703 at Fri Jul 23 17:10:26 2021, MaxMem= 17179869184 cpu:        69.5
 (Enter /vol2/users/liuj201281/hxd_yi/bin/Gaussian/g09/l716.exe)
 Dipole        = 1.48153377D+00 6.27832115D-01 7.32238024D-04
 ***** Axes restored to original set *****
 -------------------------------------------------------------------
 Center     Atomic                   Forces (Hartrees/Bohr)
 Number     Number              X              Y              Z
 -------------------------------------------------------------------
      1        6          -0.000058580    0.000003277   -0.000035379
      2        7           0.000027712   -0.000023981   -0.000002254
      3        6           0.000009722   -0.000003985   -0.000018949
      4        7          -0.000037039    0.000052702   -0.000011781
      5        8           0.000032514   -0.000029619    0.000003248
      6        1           0.000029764    0.000003231    0.000003200
      7        1           0.000005189   -0.000005161    0.000001964
      8        1           0.000014025   -0.000004372    0.000035093
      9        1           0.000005369    0.000002877    0.000007413
     10        1          -0.000022119   -0.000004067    0.000022162
     11        1          -0.000006554    0.000009098   -0.000004717
 -------------------------------------------------------------------
 Cartesian Forces:  Max     0.000058580 RMS     0.000022288
 Leave Link  716 at Fri Jul 23 17:10:26 2021, MaxMem= 17179869184 cpu:         4.0
 (Enter /vol2/users/liuj201281/hxd_yi/bin/Gaussian/g09/l103.exe)

 GradGradGradGradGradGradGradGradGradGradGradGradGradGradGradGradGradGrad
 Berny optimization.
 FormGI is forming the generalized inverse of G from B-inverse, IUseBI=4.
 Internal  Forces:  Max     0.000043175 RMS     0.000013420
 Search for a local minimum.
 Step number   1 out of a maximum of   50
 All quantities printed in internal units (Hartrees-Bohrs-Radians)
 RMS Force = .13420D-04 SwitMx=.10000D-02 MixMth= 2
 Mixed Optimization -- En-DIIS/RFO-DIIS
 Second derivative matrix not updated -- first step.
 ITU=  0
     Eigenvalues ---    0.00946   0.01033   0.01140   0.02131   0.07382
     Eigenvalues ---    0.07556   0.07631   0.07817   0.16000   0.16000
     Eigenvalues ---    0.16000   0.16000   0.16000   0.16000   0.24996
     Eigenvalues ---    0.24998   0.25000   0.34113   0.34131   0.34268
     Eigenvalues ---    0.34392   0.34707   0.34793   0.37422   0.38273
     Eigenvalues ---    0.57937   0.90984
 RFO step:  Lambda=-3.09893847D-08 EMin= 9.46079287D-03
 Linear search not attempted -- first point.
 Iteration  1 RMS(Cart)=  0.00016237 RMS(Int)=  0.00000002
 Iteration  2 RMS(Cart)=  0.00000002 RMS(Int)=  0.00000000
 ITry= 1 IFail=0 DXMaxC= 4.47D-04 DCOld= 1.00D+10 DXMaxT= 3.00D-01 DXLimC= 3.00D+00 Rises=F
 Variable       Old X    -DE/DX   Delta X   Delta X   Delta X     New X
                                 (Linear)    (Quad)   (Total)
    R1        2.75215   0.00000   0.00000  -0.00001  -0.00001   2.75214
    R2        2.06013   0.00003   0.00000   0.00008   0.00008   2.06021
    R3        2.06881   0.00000   0.00000  -0.00001  -0.00001   2.06880
    R4        2.06674  -0.00003   0.00000  -0.00010  -0.00010   2.06664
    R5        2.73969  -0.00001   0.00000  -0.00003  -0.00003   2.73966
    R6        2.52611  -0.00001   0.00000  -0.00002  -0.00002   2.52609
    R7        2.07139   0.00001   0.00000   0.00003   0.00003   2.07142
    R8        2.07109  -0.00003   0.00000  -0.00009  -0.00009   2.07100
    R9        2.06154  -0.00001   0.00000  -0.00003  -0.00003   2.06151
   R10        2.32483  -0.00004   0.00000  -0.00005  -0.00005   2.32478
    A1        1.89647  -0.00001   0.00000  -0.00010  -0.00010   1.89638
    A2        1.92864  -0.00001   0.00000  -0.00005  -0.00005   1.92859
    A3        1.91822   0.00001   0.00000   0.00008   0.00008   1.91830
    A4        1.91932   0.00000   0.00000   0.00000   0.00000   1.91932
    A5        1.92360   0.00001   0.00000   0.00007   0.00007   1.92367
    A6        1.87775   0.00000   0.00000  -0.00001  -0.00001   1.87774
    A7        2.14287   0.00001   0.00000   0.00002   0.00002   2.14289
    A8        2.10019  -0.00001   0.00000  -0.00005  -0.00005   2.10015
    A9        2.03996   0.00001   0.00000   0.00002   0.00002   2.03999
   A10        1.94108   0.00000   0.00000   0.00002   0.00002   1.94110
   A11        1.93974  -0.00001   0.00000  -0.00007  -0.00007   1.93967
   A12        1.87188  -0.00001   0.00000  -0.00005  -0.00005   1.87183
   A13        1.89762   0.00000   0.00000   0.00002   0.00002   1.89764
   A14        1.90600   0.00001   0.00000   0.00005   0.00005   1.90605
   A15        1.90702   0.00001   0.00000   0.00003   0.00003   1.90705
   A16        1.99095   0.00003   0.00000   0.00012   0.00012   1.99107
    D1        0.08930   0.00000   0.00000   0.00033   0.00033   0.08963
    D2       -3.07202   0.00000   0.00000   0.00023   0.00023  -3.07179
    D3       -2.01798   0.00001   0.00000   0.00042   0.00042  -2.01756
    D4        1.10389   0.00001   0.00000   0.00032   0.00032   1.10421
    D5        2.19546   0.00001   0.00000   0.00041   0.00041   2.19588
    D6       -0.96585   0.00000   0.00000   0.00030   0.00030  -0.96554
    D7        1.05841   0.00000   0.00000  -0.00011  -0.00011   1.05831
    D8       -1.05844   0.00000   0.00000  -0.00010  -0.00010  -1.05854
    D9        3.14135   0.00000   0.00000  -0.00007  -0.00007   3.14128
   D10       -2.06410   0.00000   0.00000   0.00000   0.00000  -2.06410
   D11        2.10224   0.00000   0.00000   0.00000   0.00000   2.10224
   D12        0.01884   0.00000   0.00000   0.00004   0.00004   0.01887
   D13        0.00112   0.00000   0.00000  -0.00019  -0.00019   0.00093
   D14        3.12412  -0.00001   0.00000  -0.00029  -0.00029   3.12383
         Item               Value     Threshold  Converged?
 Maximum Force            0.000043     0.000450     YES
 RMS     Force            0.000013     0.000300     YES
 Maximum Displacement     0.000447     0.001800     YES
 RMS     Displacement     0.000162     0.001200     YES
 Predicted change in Energy=-1.549461D-08
 Optimization completed.
    -- Stationary point found.
                           ----------------------------
                           !   Optimized Parameters   !
                           ! (Angstroms and Degrees)  !
 --------------------------                            --------------------------
 ! Name  Definition              Value          Derivative Info.                !
 --------------------------------------------------------------------------------
 ! R1    R(1,2)                  1.4564         -DE/DX =    0.0                 !
 ! R2    R(1,6)                  1.0902         -DE/DX =    0.0                 !
 ! R3    R(1,7)                  1.0948         -DE/DX =    0.0                 !
 ! R4    R(1,8)                  1.0937         -DE/DX =    0.0                 !
 ! R5    R(2,3)                  1.4498         -DE/DX =    0.0                 !
 ! R6    R(2,4)                  1.3368         -DE/DX =    0.0                 !
 ! R7    R(3,9)                  1.0961         -DE/DX =    0.0                 !
 ! R8    R(3,10)                 1.096          -DE/DX =    0.0                 !
 ! R9    R(3,11)                 1.0909         -DE/DX =    0.0                 !
 ! R10   R(4,5)                  1.2302         -DE/DX =    0.0                 !
 ! A1    A(2,1,6)              108.6599         -DE/DX =    0.0                 !
 ! A2    A(2,1,7)              110.5029         -DE/DX =    0.0                 !
 ! A3    A(2,1,8)              109.906          -DE/DX =    0.0                 !
 ! A4    A(6,1,7)              109.9687         -DE/DX =    0.0                 !
 ! A5    A(6,1,8)              110.2142         -DE/DX =    0.0                 !
 ! A6    A(7,1,8)              107.5871         -DE/DX =    0.0                 !
 ! A7    A(1,2,3)              122.7774         -DE/DX =    0.0                 !
 ! A8    A(1,2,4)              120.3321         -DE/DX =    0.0                 !
 ! A9    A(3,2,4)              116.8814         -DE/DX =    0.0                 !
 ! A10   A(2,3,9)              111.2158         -DE/DX =    0.0                 !
 ! A11   A(2,3,10)             111.139          -DE/DX =    0.0                 !
 ! A12   A(2,3,11)             107.2506         -DE/DX =    0.0                 !
 ! A13   A(9,3,10)             108.7257         -DE/DX =    0.0                 !
 ! A14   A(9,3,11)             109.2057         -DE/DX =    0.0                 !
 ! A15   A(10,3,11)            109.2641         -DE/DX =    0.0                 !
 ! A16   A(2,4,5)              114.0732         -DE/DX =    0.0                 !
 ! D1    D(6,1,2,3)              5.1162         -DE/DX =    0.0                 !
 ! D2    D(6,1,2,4)           -176.0137         -DE/DX =    0.0                 !
 ! D3    D(7,1,2,3)           -115.6218         -DE/DX =    0.0                 !
 ! D4    D(7,1,2,4)             63.2483         -DE/DX =    0.0                 !
 ! D5    D(8,1,2,3)            125.7909         -DE/DX =    0.0                 !
 ! D6    D(8,1,2,4)            -55.3391         -DE/DX =    0.0                 !
 ! D7    D(1,2,3,9)             60.6427         -DE/DX =    0.0                 !
 ! D8    D(1,2,3,10)           -60.644          -DE/DX =    0.0                 !
 ! D9    D(1,2,3,11)           179.9858         -DE/DX =    0.0                 !
 ! D10   D(4,2,3,9)           -118.2639         -DE/DX =    0.0                 !
 ! D11   D(4,2,3,10)           120.4494         -DE/DX =    0.0                 !
 ! D12   D(4,2,3,11)             1.0792         -DE/DX =    0.0                 !
 ! D13   D(1,2,4,5)              0.0641         -DE/DX =    0.0                 !
 ! D14   D(3,2,4,5)            178.999          -DE/DX =    0.0                 !
 --------------------------------------------------------------------------------
 Lowest energy point so far.  Saving SCF results.
 GradGradGradGradGradGradGradGradGradGradGradGradGradGradGradGradGradGrad

 Largest change from initial coordinates is atom   10       0.000 Angstoms.
 Leave Link  103 at Fri Jul 23 17:10:26 2021, MaxMem= 17179869184 cpu:        13.6
 (Enter /vol2/users/liuj201281/hxd_yi/bin/Gaussian/g09/l202.exe)
                          Input orientation:                          
 ---------------------------------------------------------------------
 Center     Atomic      Atomic             Coordinates (Angstroms)
 Number     Number       Type             X           Y           Z
 ---------------------------------------------------------------------
      1          6           0        0.119200    1.438300    0.000000
      2          7           0        0.340100   -0.001200   -0.008000
      3          6           0        1.663900   -0.592200    0.003900
      4          7           0       -0.697900   -0.843500   -0.004300
      5          8           0       -1.795300   -0.287500    0.004800
      6          1           0        1.084200    1.939700   -0.076500
      7          1           0       -0.388600    1.743200    0.920700
      8          1           0       -0.521400    1.721400   -0.840000
      9          1           0        2.219300   -0.303100    0.903600
     10          1           0        2.240000   -0.289100   -0.877800
     11          1           0        1.534700   -1.675400   -0.005500
 ---------------------------------------------------------------------
                    Distance matrix (angstroms):
                    1          2          3          4          5
     1  C    0.000000
     2  N    1.456373   0.000000
     3  C    2.551283   1.449782   0.000000
     4  N    2.423692   1.336760   2.375146   0.000000
     5  O    2.577541   2.154545   3.472594   1.230246   0.000000
     6  H    1.090174   2.079776   2.598660   3.305646   3.641229
     7  H    1.094766   2.106281   3.241508   2.764473   2.634658
     8  H    1.093670   2.098036   3.292484   2.703379   2.524319
     9  H    2.873915   2.110344   1.096133   3.102639   4.114012
    10  H    2.872671   2.109279   1.095972   3.114742   4.130694
    11  H    3.420351   2.056701   1.090919   2.382554   3.607669
                    6          7          8          9         10
     6  H    0.000000
     7  H    1.789458   0.000000
     8  H    1.791239   1.765836   0.000000
     9  H    2.697999   3.314933   3.827555   0.000000
    10  H    2.635433   3.778146   3.415973   1.781575   0.000000
    11  H    3.643753   4.030354   4.057362   1.782792   1.783307
                   11
    11  H    0.000000
 Stoichiometry    C2H6N2O
 Framework group  C1[X(C2H6N2O)]
 Deg. of freedom    27
 Full point group                 C1      NOp   1
 RotChk:  IX=0 Diff= 4.62D-17
 Largest Abelian subgroup         C1      NOp   1
 Largest concise Abelian subgroup C1      NOp   1
                         Standard orientation:                         
 ---------------------------------------------------------------------
 Center     Atomic      Atomic             Coordinates (Angstroms)
 Number     Number       Type             X           Y           Z
 ---------------------------------------------------------------------
      1          6           0        0.119214    1.438289   -0.000005
      2          7           0        0.340105   -0.001212   -0.008005
      3          6           0        1.663901   -0.592220    0.003895
      4          7           0       -0.697900   -0.843506   -0.004305
      5          8           0       -1.795297   -0.287499    0.004795
      6          1           0        1.084217    1.939683   -0.076505
      7          1           0       -0.388584    1.743192    0.920695
      8          1           0       -0.521384    1.721393   -0.840005
      9          1           0        2.219303   -0.303124    0.903595
     10          1           0        2.240003   -0.289124   -0.877805
     11          1           0        1.534695   -1.675420   -0.005505
 ---------------------------------------------------------------------
 Rotational constants (GHZ):      9.0196706      4.5845426      3.1601757
 Leave Link  202 at Fri Jul 23 17:10:26 2021, MaxMem= 17179869184 cpu:         1.5
 (Enter /vol2/users/liuj201281/hxd_yi/bin/Gaussian/g09/l9999.exe)
 1\1\GINC-FN8\FOpt\RB3LYP\6-31G(d,p)\C2H6N2O1\LIUJ201281\23-Jul-2021\0\
 \#P OPT Freq B3LYP/6-31G**\\Frag_52\\0,1\C,0.1192,1.4383,0.\N,0.3401,-
 0.0012,-0.008\C,1.6639,-0.5922,0.0039\N,-0.6979,-0.8435,-0.0043\O,-1.7
 953,-0.2875,0.0048\H,1.0842,1.9397,-0.0765\H,-0.3886,1.7432,0.9207\H,-
 0.5214,1.7214,-0.84\H,2.2193,-0.3031,0.9036\H,2.24,-0.2891,-0.8778\H,1
 .5347,-1.6754,-0.0055\\Version=ES64L-G09RevD.01\State=1-A\HF=-264.4813
 001\RMSD=9.262e-09\RMSF=2.229e-05\Dipole=1.4815298,0.6278414,0.0007322
 \Quadrupole=-1.6412687,0.9593306,0.6819381,-1.4432147,0.0200231,-0.020
 1169\PG=C01 [X(C2H6N2O1)]\\@


 E PUR SI MUOVE    -- GALILEO GALILEI
 Leave Link 9999 at Fri Jul 23 17:10:26 2021, MaxMem= 17179869184 cpu:         5.0
 Job cpu time:       0 days  0 hours 10 minutes  2.9 seconds.
 File lengths (MBytes):  RWF=      7 Int=      0 D2E=      0 Chk=      2 Scr=      1
 Normal termination of Gaussian 09 at Fri Jul 23 17:10:26 2021.
 (Enter /vol2/users/liuj201281/hxd_yi/bin/Gaussian/g09/l1.exe)
 Link1:  Proceeding to internal job step number  2.
 ----------------------------------------------------------------------
 #P Geom=AllCheck Guess=TCheck SCRF=Check GenChk RB3LYP/6-31G(d,p) Freq
 ----------------------------------------------------------------------
 1/10=4,29=7,30=1,38=1,40=1/1,3;
 2/12=2,40=1/2;
 3/5=1,6=6,7=101,11=2,14=-4,16=1,25=1,30=1,70=2,71=2,74=-5,116=1,140=1/1,2,3;
 4/5=101/1;
 5/5=2,98=1/2;
 8/6=4,10=90,11=11/1;
 11/6=1,8=1,9=11,15=111,16=1/1,2,10;
 10/6=1/2;
 6/7=2,8=2,9=2,10=2,18=1,28=1/1;
 7/8=1,10=1,25=1/1,2,3,16;
 1/10=4,30=1/3;
 99//99;
 Leave Link    1 at Fri Jul 23 17:10:26 2021, MaxMem= 17179869184 cpu:         4.9
 (Enter /vol2/users/liuj201281/hxd_yi/bin/Gaussian/g09/l101.exe)
 Structure from the checkpoint file:  "/vol2/users/liuj201281/HOFBenchmark/IsodesmicSplit/Sample60/Ring26/Running/Gau-418679.chk"
 -------
 Frag_52
 -------
 Charge =  0 Multiplicity = 1
 Redundant internal coordinates found in file.
 C,0,0.1192,1.4383,0.
 N,0,0.3401,-0.0012,-0.008
 C,0,1.6639,-0.5922,0.0039
 N,0,-0.6979,-0.8435,-0.0043
 O,0,-1.7953,-0.2875,0.0048
 H,0,1.0842,1.9397,-0.0765
 H,0,-0.3886,1.7432,0.9207
 H,0,-0.5214,1.7214,-0.84
 H,0,2.2193,-0.3031,0.9036
 H,0,2.24,-0.2891,-0.8778
 H,0,1.5347,-1.6754,-0.0055
 Recover connectivity data from disk.
 NAtoms=     11 NQM=       11 NQMF=       0 NMMI=      0 NMMIF=      0
                NMic=       0 NMicF=      0.
                    Isotopes and Nuclear Properties:
 (Nuclear quadrupole moments (NQMom) in fm**2, nuclear magnetic moments (NMagM)
  in nuclear magnetons)

  Atom         1           2           3           4           5           6           7           8           9          10
 IAtWgt=          12          14          12          14          16           1           1           1           1           1
 AtmWgt=  12.0000000  14.0030740  12.0000000  14.0030740  15.9949146   1.0078250   1.0078250   1.0078250   1.0078250   1.0078250
 NucSpn=           0           2           0           2           0           1           1           1           1           1
 AtZEff=  -3.6000000  -4.5500000  -3.6000000  -4.5500000  -5.6000000  -1.0000000  -1.0000000  -1.0000000  -1.0000000  -1.0000000
 NQMom=    0.0000000   2.0440000   0.0000000   2.0440000   0.0000000   0.0000000   0.0000000   0.0000000   0.0000000   0.0000000
 NMagM=    0.0000000   0.4037610   0.0000000   0.4037610   0.0000000   2.7928460   2.7928460   2.7928460   2.7928460   2.7928460
 AtZNuc=   6.0000000   7.0000000   6.0000000   7.0000000   8.0000000   1.0000000   1.0000000   1.0000000   1.0000000   1.0000000

  Atom        11
 IAtWgt=           1
 AtmWgt=   1.0078250
 NucSpn=           1
 AtZEff=  -1.0000000
 NQMom=    0.0000000
 NMagM=    2.7928460
 AtZNuc=   1.0000000
 Leave Link  101 at Fri Jul 23 17:10:27 2021, MaxMem= 17179869184 cpu:        54.8
 (Enter /vol2/users/liuj201281/hxd_yi/bin/Gaussian/g09/l103.exe)

 GradGradGradGradGradGradGradGradGradGradGradGradGradGradGradGradGradGrad
 Berny optimization.
 Initialization pass.
                           ----------------------------
                           !    Initial Parameters    !
                           ! (Angstroms and Degrees)  !
 --------------------------                            --------------------------
 ! Name  Definition              Value          Derivative Info.                !
 --------------------------------------------------------------------------------
 ! R1    R(1,2)                  1.4564         calculate D2E/DX2 analytically  !
 ! R2    R(1,6)                  1.0902         calculate D2E/DX2 analytically  !
 ! R3    R(1,7)                  1.0948         calculate D2E/DX2 analytically  !
 ! R4    R(1,8)                  1.0937         calculate D2E/DX2 analytically  !
 ! R5    R(2,3)                  1.4498         calculate D2E/DX2 analytically  !
 ! R6    R(2,4)                  1.3368         calculate D2E/DX2 analytically  !
 ! R7    R(3,9)                  1.0961         calculate D2E/DX2 analytically  !
 ! R8    R(3,10)                 1.096          calculate D2E/DX2 analytically  !
 ! R9    R(3,11)                 1.0909         calculate D2E/DX2 analytically  !
 ! R10   R(4,5)                  1.2302         calculate D2E/DX2 analytically  !
 ! A1    A(2,1,6)              108.6599         calculate D2E/DX2 analytically  !
 ! A2    A(2,1,7)              110.5029         calculate D2E/DX2 analytically  !
 ! A3    A(2,1,8)              109.906          calculate D2E/DX2 analytically  !
 ! A4    A(6,1,7)              109.9687         calculate D2E/DX2 analytically  !
 ! A5    A(6,1,8)              110.2142         calculate D2E/DX2 analytically  !
 ! A6    A(7,1,8)              107.5871         calculate D2E/DX2 analytically  !
 ! A7    A(1,2,3)              122.7774         calculate D2E/DX2 analytically  !
 ! A8    A(1,2,4)              120.3321         calculate D2E/DX2 analytically  !
 ! A9    A(3,2,4)              116.8814         calculate D2E/DX2 analytically  !
 ! A10   A(2,3,9)              111.2158         calculate D2E/DX2 analytically  !
 ! A11   A(2,3,10)             111.139          calculate D2E/DX2 analytically  !
 ! A12   A(2,3,11)             107.2506         calculate D2E/DX2 analytically  !
 ! A13   A(9,3,10)             108.7257         calculate D2E/DX2 analytically  !
 ! A14   A(9,3,11)             109.2057         calculate D2E/DX2 analytically  !
 ! A15   A(10,3,11)            109.2641         calculate D2E/DX2 analytically  !
 ! A16   A(2,4,5)              114.0732         calculate D2E/DX2 analytically  !
 ! D1    D(6,1,2,3)              5.1162         calculate D2E/DX2 analytically  !
 ! D2    D(6,1,2,4)           -176.0137         calculate D2E/DX2 analytically  !
 ! D3    D(7,1,2,3)           -115.6218         calculate D2E/DX2 analytically  !
 ! D4    D(7,1,2,4)             63.2483         calculate D2E/DX2 analytically  !
 ! D5    D(8,1,2,3)            125.7909         calculate D2E/DX2 analytically  !
 ! D6    D(8,1,2,4)            -55.3391         calculate D2E/DX2 analytically  !
 ! D7    D(1,2,3,9)             60.6427         calculate D2E/DX2 analytically  !
 ! D8    D(1,2,3,10)           -60.644          calculate D2E/DX2 analytically  !
 ! D9    D(1,2,3,11)           179.9858         calculate D2E/DX2 analytically  !
 ! D10   D(4,2,3,9)           -118.2639         calculate D2E/DX2 analytically  !
 ! D11   D(4,2,3,10)           120.4494         calculate D2E/DX2 analytically  !
 ! D12   D(4,2,3,11)             1.0792         calculate D2E/DX2 analytically  !
 ! D13   D(1,2,4,5)              0.0641         calculate D2E/DX2 analytically  !
 ! D14   D(3,2,4,5)            178.999          calculate D2E/DX2 analytically  !
 --------------------------------------------------------------------------------
 Trust Radius=3.00D-01 FncErr=1.00D-07 GrdErr=1.00D-07
 Number of steps in this run=      2 maximum allowed number of steps=      2.
 GradGradGradGradGradGradGradGradGradGradGradGradGradGradGradGradGradGrad

 Leave Link  103 at Fri Jul 23 17:10:27 2021, MaxMem= 17179869184 cpu:         1.5
 (Enter /vol2/users/liuj201281/hxd_yi/bin/Gaussian/g09/l202.exe)
                          Input orientation:                          
 ---------------------------------------------------------------------
 Center     Atomic      Atomic             Coordinates (Angstroms)
 Number     Number       Type             X           Y           Z
 ---------------------------------------------------------------------
      1          6           0        0.119200    1.438300    0.000000
      2          7           0        0.340100   -0.001200   -0.008000
      3          6           0        1.663900   -0.592200    0.003900
      4          7           0       -0.697900   -0.843500   -0.004300
      5          8           0       -1.795300   -0.287500    0.004800
      6          1           0        1.084200    1.939700   -0.076500
      7          1           0       -0.388600    1.743200    0.920700
      8          1           0       -0.521400    1.721400   -0.840000
      9          1           0        2.219300   -0.303100    0.903600
     10          1           0        2.240000   -0.289100   -0.877800
     11          1           0        1.534700   -1.675400   -0.005500
 ---------------------------------------------------------------------
                    Distance matrix (angstroms):
                    1          2          3          4          5
     1  C    0.000000
     2  N    1.456373   0.000000
     3  C    2.551283   1.449782   0.000000
     4  N    2.423692   1.336760   2.375146   0.000000
     5  O    2.577541   2.154545   3.472594   1.230246   0.000000
     6  H    1.090174   2.079776   2.598660   3.305646   3.641229
     7  H    1.094766   2.106281   3.241508   2.764473   2.634658
     8  H    1.093670   2.098036   3.292484   2.703379   2.524319
     9  H    2.873915   2.110344   1.096133   3.102639   4.114012
    10  H    2.872671   2.109279   1.095972   3.114742   4.130694
    11  H    3.420351   2.056701   1.090919   2.382554   3.607669
                    6          7          8          9         10
     6  H    0.000000
     7  H    1.789458   0.000000
     8  H    1.791239   1.765836   0.000000
     9  H    2.697999   3.314933   3.827555   0.000000
    10  H    2.635433   3.778146   3.415973   1.781575   0.000000
    11  H    3.643753   4.030354   4.057362   1.782792   1.783307
                   11
    11  H    0.000000
 Stoichiometry    C2H6N2O
 Framework group  C1[X(C2H6N2O)]
 Deg. of freedom    27
 Full point group                 C1      NOp   1
 RotChk:  IX=0 Diff= 5.87D-16
 Largest Abelian subgroup         C1      NOp   1
 Largest concise Abelian subgroup C1      NOp   1
                         Standard orientation:                         
 ---------------------------------------------------------------------
 Center     Atomic      Atomic             Coordinates (Angstroms)
 Number     Number       Type             X           Y           Z
 ---------------------------------------------------------------------
      1          6           0        0.119214    1.438289   -0.000005
      2          7           0        0.340105   -0.001212   -0.008005
      3          6           0        1.663901   -0.592220    0.003895
      4          7           0       -0.697900   -0.843506   -0.004305
      5          8           0       -1.795297   -0.287499    0.004795
      6          1           0        1.084217    1.939683   -0.076505
      7          1           0       -0.388584    1.743192    0.920695
      8          1           0       -0.521384    1.721393   -0.840005
      9          1           0        2.219303   -0.303124    0.903595
     10          1           0        2.240003   -0.289124   -0.877805
     11          1           0        1.534695   -1.675420   -0.005505
 ---------------------------------------------------------------------
 Rotational constants (GHZ):      9.0196706      4.5845426      3.1601757
 Leave Link  202 at Fri Jul 23 17:10:27 2021, MaxMem= 17179869184 cpu:         1.4
 (Enter /vol2/users/liuj201281/hxd_yi/bin/Gaussian/g09/l301.exe)
 Standard basis: 6-31G(d,p) (6D, 7F)
 Ernie: Thresh=  0.10000D-02 Tol=  0.10000D-05 Strict=F.
 There are   105 symmetry adapted cartesian basis functions of A   symmetry.
 There are   105 symmetry adapted basis functions of A   symmetry.
   105 basis functions,   182 primitive gaussians,   105 cartesian basis functions
    20 alpha electrons       20 beta electrons
       nuclear repulsion energy       183.9563672611 Hartrees.
 IExCor=  402 DFT=T Ex+Corr=B3LYP ExCW=0 ScaHFX=  0.200000
 ScaDFX=  0.800000  0.720000  1.000000  0.810000 ScalE2=  1.000000  1.000000
 IRadAn=      0 IRanWt=     -1 IRanGd=            0 ICorTp=0 IEmpDi=  4
 NAtoms=   11 NActive=   11 NUniq=   11 SFac= 1.00D+00 NAtFMM=   60 NAOKFM=F Big=F
 Integral buffers will be    131072 words long.
 Raffenetti 2 integral format.
 Two-electron integral symmetry is turned on.
 Leave Link  301 at Fri Jul 23 17:10:27 2021, MaxMem= 17179869184 cpu:         6.6
 (Enter /vol2/users/liuj201281/hxd_yi/bin/Gaussian/g09/l302.exe)
 NPDir=0 NMtPBC=     1 NCelOv=     1 NCel=       1 NClECP=     1 NCelD=      1
         NCelK=      1 NCelE2=     1 NClLst=     1 CellRange=     0.0.
 One-electron integrals computed using PRISM.
 NBasis=   105 RedAO= T EigKep=  3.45D-03  NBF=   105
 NBsUse=   105 1.00D-06 EigRej= -1.00D+00 NBFU=   105
 Precomputing XC quadrature grid using
 IXCGrd= 4 IRadAn=           0 IRanWt=          -1 IRanGd=           0 AccXCQ= 0.00D+00.
 Generated NRdTot=       0 NPtTot=           0 NUsed=           0 NTot=          32
 NSgBfM=   105   105   105   105   105 MxSgAt=    11 MxSgA2=    11.
 Leave Link  302 at Fri Jul 23 17:10:27 2021, MaxMem= 17179869184 cpu:        44.4
 (Enter /vol2/users/liuj201281/hxd_yi/bin/Gaussian/g09/l303.exe)
 DipDrv:  MaxL=1.
 Leave Link  303 at Fri Jul 23 17:10:27 2021, MaxMem= 17179869184 cpu:         3.8
 (Enter /vol2/users/liuj201281/hxd_yi/bin/Gaussian/g09/l401.exe)
 Initial guess from the checkpoint file:  "/vol2/users/liuj201281/HOFBenchmark/IsodesmicSplit/Sample60/Ring26/Running/Gau-418679.chk"
 B after Tr=     0.000000    0.000000    0.000000
         Rot=    1.000000    0.000000    0.000000    0.000000 Ang=   0.00 deg.
 Guess basis will be translated and rotated to current coordinates.
 JPrj=2 DoOrth=T DoCkMO=T.
 Leave Link  401 at Fri Jul 23 17:10:36 2021, MaxMem= 17179869184 cpu:        13.9
 (Enter /vol2/users/liuj201281/hxd_yi/bin/Gaussian/g09/l502.exe)
 Closed shell SCF:
 Using DIIS extrapolation, IDIIS=  1040.
 Integral symmetry usage will be decided dynamically.
 Keep R1 ints in memory in canonical form, NReq=16480569.
 IVT=       65860 IEndB=       65860 NGot= 17179869184 MDV= 17164315930
 LenX= 17164315930 LenY= 17164304464
 Requested convergence on RMS density matrix=1.00D-08 within 128 cycles.
 Requested convergence on MAX density matrix=1.00D-06.
 Requested convergence on             energy=1.00D-06.
 No special actions if energy rises.
 FoFCou: FMM=F IPFlag=           0 FMFlag=           0 FMFlg1=           0
         NFxFlg=           0 DoJE=F BraDBF=F KetDBF=F FulRan=T
         wScrn=  0.000000 ICntrl=     600 IOpCl=  0 I1Cent=           0 NGrid=           0
         NMat0=    1 NMatS0=   5565 NMatT0=    0 NMatD0=    1 NMtDS0=    0 NMtDT0=    0
 Symmetry not used in FoFCou.

 Cycle   1  Pass 1  IDiag  1:
 E= -264.481300126361    
 DIIS: error= 1.74D-08 at cycle   1 NSaved=   1.
 NSaved= 1 IEnMin= 1 EnMin= -264.481300126361     IErMin= 1 ErrMin= 1.74D-08
 ErrMax= 1.74D-08  0.00D+00 EMaxC= 1.00D-01 BMatC= 4.33D-14 BMatP= 4.33D-14
 IDIUse=1 WtCom= 1.00D+00 WtEn= 0.00D+00
 Coeff-Com:  0.100D+01
 Coeff:      0.100D+01
 Gap=     0.196 Goal=   None    Shift=    0.000
 RMSDP=3.81D-09 MaxDP=8.33D-08              OVMax= 9.59D-08

 SCF Done:  E(RB3LYP) =  -264.481300126     A.U. after    1 cycles
            NFock=  1  Conv=0.38D-08     -V/T= 2.0092
 KE= 2.620697818027D+02 PE=-9.850561450647D+02 EE= 2.745486958745D+02
 Leave Link  502 at Fri Jul 23 17:10:37 2021, MaxMem= 17179869184 cpu:        65.7
 (Enter /vol2/users/liuj201281/hxd_yi/bin/Gaussian/g09/l801.exe)
 DoSCS=F DFT=T ScalE2(SS,OS)=  1.000000  1.000000
 Range of M.O.s used for correlation:     1   105
 NBasis=   105 NAE=    20 NBE=    20 NFC=     0 NFV=     0
 NROrb=    105 NOA=    20 NOB=    20 NVA=    85 NVB=    85
 Leave Link  801 at Fri Jul 23 17:10:37 2021, MaxMem= 17179869184 cpu:         3.5
 (Enter /vol2/users/liuj201281/hxd_yi/bin/Gaussian/g09/l1101.exe)
 Using compressed storage, NAtomX=    11.
 Will process     12 centers per pass.
 Leave Link 1101 at Fri Jul 23 17:10:38 2021, MaxMem= 17179869184 cpu:        53.6
 (Enter /vol2/users/liuj201281/hxd_yi/bin/Gaussian/g09/l1102.exe)
 Symmetrizing basis deriv contribution to polar:
 IMax=3 JMax=2 DiffMx= 0.00D+00
 Leave Link 1102 at Fri Jul 23 17:10:38 2021, MaxMem= 17179869184 cpu:         3.6
 (Enter /vol2/users/liuj201281/hxd_yi/bin/Gaussian/g09/l1110.exe)
 Forming Gx(P) for the SCF density, NAtomX=    11.
 Integral derivatives from FoFJK, PRISM(SPDF).
 Do as many integral derivatives as possible in FoFJK.
 G2DrvN: MDV=   17179868992.
 G2DrvN: will do    12 centers at a time, making    1 passes.
 Calling FoFCou, ICntrl=  3107 FMM=F I1Cent=   0 AccDes= 0.00D+00.
 FoFJK:  IHMeth= 1 ICntrl=    3107 DoSepK=F KAlg= 0 I1Cent=   0 FoldK=F
 IRaf=         0 NMat=   1 IRICut=       1 DoRegI=T DoRafI=F ISym2E= 0.
 FoFCou: FMM=F IPFlag=           0 FMFlag=      100000 FMFlg1=           0
         NFxFlg=           0 DoJE=F BraDBF=F KetDBF=F FulRan=T
         wScrn=  0.000000 ICntrl=    3107 IOpCl=  0 I1Cent=           0 NGrid=           0
         NMat0=    1 NMatS0=      1 NMatT0=    0 NMatD0=    1 NMtDS0=    0 NMtDT0=    0
 Symmetry not used in FoFCou.
 End of G2Drv F.D. properties file   721 does not exist.
 End of G2Drv F.D. properties file   722 does not exist.
 End of G2Drv F.D. properties file   788 does not exist.
 Leave Link 1110 at Fri Jul 23 17:10:39 2021, MaxMem= 17179869184 cpu:       197.0
 (Enter /vol2/users/liuj201281/hxd_yi/bin/Gaussian/g09/l1002.exe)
 Minotr:  Closed shell wavefunction.
          IDoAtm=11111111111
          Direct CPHF calculation.
          Differentiating once with respect to electric field.
                with respect to dipole field.
          Differentiating once with respect to nuclear coordinates.
          Requested convergence is 1.0D-08 RMS, and 1.0D-07 maximum.
          Secondary convergence is 1.0D-12 RMS, and 1.0D-12 maximum.
          NewPWx=T KeepS1=F KeepF1=F KeepIn=T MapXYZ=F SortEE=F KeepMc=T.
          MDV=   17179868965 using IRadAn=       2.
 Generate precomputed XC quadrature information.
 Keep R1 ints in memory in canonical form, NReq=16416648.
 FoFCou: FMM=F IPFlag=           0 FMFlag=           0 FMFlg1=           0
         NFxFlg=           0 DoJE=F BraDBF=F KetDBF=F FulRan=T
         wScrn=  0.000000 ICntrl=     600 IOpCl=  0 I1Cent=           0 NGrid=           0
         NMat0=    1 NMatS0=   5565 NMatT0=    0 NMatD0=    1 NMtDS0=    0 NMtDT0=    0
 Symmetry not used in FoFCou.
          Solving linear equations simultaneously, MaxMat=       0.
          There are    36 degrees of freedom in the 1st order CPHF.  IDoFFX=6 NUNeed=     3.
     33 vectors produced by pass  0 Test12= 4.72D-15 2.78D-09 XBig12= 6.14D+01 6.07D+00.
 AX will form    33 AO Fock derivatives at one time.
     33 vectors produced by pass  1 Test12= 4.72D-15 2.78D-09 XBig12= 3.52D+01 1.81D+00.
     33 vectors produced by pass  2 Test12= 4.72D-15 2.78D-09 XBig12= 2.74D-01 8.67D-02.
     33 vectors produced by pass  3 Test12= 4.72D-15 2.78D-09 XBig12= 1.17D-03 7.35D-03.
     33 vectors produced by pass  4 Test12= 4.72D-15 2.78D-09 XBig12= 1.27D-06 1.95D-04.
     18 vectors produced by pass  5 Test12= 4.72D-15 2.78D-09 XBig12= 1.19D-09 6.62D-06.
      3 vectors produced by pass  6 Test12= 4.72D-15 2.78D-09 XBig12= 8.55D-13 1.47D-07.
      1 vectors produced by pass  7 Test12= 4.72D-15 2.78D-09 XBig12= 5.87D-16 5.17D-09.
 InvSVY:  IOpt=1 It=  1 EMax= 7.11D-15
 Solved reduced A of dimension   187 with    36 vectors.
 FullF1:  Do perturbations    1 to     3.
 Isotropic polarizability for W=    0.000000       40.22 Bohr**3.
 End of Minotr F.D. properties file   721 does not exist.
 End of Minotr F.D. properties file   722 does not exist.
 End of Minotr F.D. properties file   788 does not exist.
 Leave Link 1002 at Fri Jul 23 17:10:42 2021, MaxMem= 17179869184 cpu:       269.2
 (Enter /vol2/users/liuj201281/hxd_yi/bin/Gaussian/g09/l601.exe)
 Copying SCF densities to generalized density rwf, IOpCl= 0 IROHF=0.

 **********************************************************************

            Population analysis using the SCF density.

 **********************************************************************

 Orbital symmetries:
       Occupied  (A) (A) (A) (A) (A) (A) (A) (A) (A) (A) (A) (A)
                 (A) (A) (A) (A) (A) (A) (A) (A)
       Virtual   (A) (A) (A) (A) (A) (A) (A) (A) (A) (A) (A) (A)
                 (A) (A) (A) (A) (A) (A) (A) (A) (A) (A) (A) (A)
                 (A) (A) (A) (A) (A) (A) (A) (A) (A) (A) (A) (A)
                 (A) (A) (A) (A) (A) (A) (A) (A) (A) (A) (A) (A)
                 (A) (A) (A) (A) (A) (A) (A) (A) (A) (A) (A) (A)
                 (A) (A) (A) (A) (A) (A) (A) (A) (A) (A) (A) (A)
                 (A) (A) (A) (A) (A) (A) (A) (A) (A) (A) (A) (A)
                 (A)
 The electronic state is 1-A.
 Alpha  occ. eigenvalues --  -19.15052 -14.44500 -14.40319 -10.23592 -10.22982
 Alpha  occ. eigenvalues --   -1.13415  -0.95855  -0.75336  -0.73924  -0.58105
 Alpha  occ. eigenvalues --   -0.50744  -0.50111  -0.49647  -0.42519  -0.42302
 Alpha  occ. eigenvalues --   -0.40538  -0.40351  -0.37572  -0.25679  -0.22107
 Alpha virt. eigenvalues --   -0.02522   0.08847   0.12653   0.12895   0.13858
 Alpha virt. eigenvalues --    0.14443   0.15357   0.18005   0.21682   0.30434
 Alpha virt. eigenvalues --    0.33739   0.46960   0.50802   0.54669   0.55792
 Alpha virt. eigenvalues --    0.57539   0.63234   0.65487   0.70457   0.72077
 Alpha virt. eigenvalues --    0.76997   0.78821   0.80846   0.82188   0.83496
 Alpha virt. eigenvalues --    0.87962   0.88848   0.89431   0.91176   0.93442
 Alpha virt. eigenvalues --    0.99858   1.00806   1.14258   1.15210   1.25573
 Alpha virt. eigenvalues --    1.26574   1.29950   1.32569   1.53245   1.59180
 Alpha virt. eigenvalues --    1.60350   1.69831   1.78807   1.83547   1.84261
 Alpha virt. eigenvalues --    1.85177   1.88699   1.92198   1.94145   2.00826
 Alpha virt. eigenvalues --    2.01316   2.03658   2.04066   2.06588   2.10390
 Alpha virt. eigenvalues --    2.17884   2.26830   2.28236   2.30680   2.36357
 Alpha virt. eigenvalues --    2.46997   2.49201   2.51607   2.58799   2.62736
 Alpha virt. eigenvalues --    2.63723   2.67488   2.69715   2.81657   2.82604
 Alpha virt. eigenvalues --    2.86309   2.89168   3.03194   3.08886   3.17166
 Alpha virt. eigenvalues --    3.22732   3.39181   3.40576   3.41044   3.43399
 Alpha virt. eigenvalues --    3.56576   3.71882   3.99325   4.42475   4.50636
          Condensed to atoms (all electrons):
               1          2          3          4          5          6
     1  C    4.838663   0.223487  -0.042578  -0.024031   0.017304   0.380221
     2  N    0.223487   6.971297   0.289604   0.104153  -0.124715  -0.033503
     3  C   -0.042578   0.289604   4.816410  -0.050319   0.005437  -0.001045
     4  N   -0.024031   0.104153  -0.050319   6.537741   0.274513   0.003876
     5  O    0.017304  -0.124715   0.005437   0.274513   8.195846   0.001138
     6  H    0.380221  -0.033503  -0.001045   0.003876   0.001138   0.590447
     7  H    0.388491  -0.039393   0.002231  -0.003580   0.006322  -0.030620
     8  H    0.387461  -0.039159   0.002801  -0.004287   0.009343  -0.027731
     9  H   -0.000027  -0.043490   0.384026   0.001145  -0.000049   0.000022
    10  H   -0.000383  -0.043022   0.383865   0.001392  -0.000066   0.001042
    11  H    0.005723  -0.041801   0.380196   0.017478  -0.000116   0.000210
               7          8          9         10         11
     1  C    0.388491   0.387461  -0.000027  -0.000383   0.005723
     2  N   -0.039393  -0.039159  -0.043490  -0.043022  -0.041801
     3  C    0.002231   0.002801   0.384026   0.383865   0.380196
     4  N   -0.003580  -0.004287   0.001145   0.001392   0.017478
     5  O    0.006322   0.009343  -0.000049  -0.000066  -0.000116
     6  H   -0.030620  -0.027731   0.000022   0.001042   0.000210
     7  H    0.568083  -0.037022   0.001378  -0.000461  -0.000177
     8  H   -0.037022   0.559316  -0.000393   0.000999  -0.000170
     9  H    0.001378  -0.000393   0.602931  -0.046475  -0.025325
    10  H   -0.000461   0.000999  -0.046475   0.602238  -0.024937
    11  H   -0.000177  -0.000170  -0.025325  -0.024937   0.539061
 Mulliken charges:
               1
     1  C   -0.174330
     2  N   -0.223459
     3  C   -0.170627
     4  N    0.141918
     5  O   -0.384957
     6  H    0.115944
     7  H    0.144748
     8  H    0.148840
     9  H    0.126257
    10  H    0.125809
    11  H    0.149857
 Sum of Mulliken charges =   0.00000
 Mulliken charges with hydrogens summed into heavy atoms:
               1
     1  C    0.235202
     2  N   -0.223459
     3  C    0.231296
     4  N    0.141918
     5  O   -0.384957
 APT charges:
               1
     1  C    0.238698
     2  N   -0.476105
     3  C    0.328595
     4  N    0.506108
     5  O   -0.560490
     6  H    0.014504
     7  H   -0.013410
     8  H   -0.001401
     9  H   -0.037555
    10  H   -0.036133
    11  H    0.037189
 Sum of APT charges =   0.00000
 APT charges with hydrogens summed into heavy atoms:
               1
     1  C    0.238390
     2  N   -0.476105
     3  C    0.292096
     4  N    0.506108
     5  O   -0.560490
 Electronic spatial extent (au):  <R**2>=            412.8052
 Charge=              0.0000 electrons
 Dipole moment (field-independent basis, Debye):
    X=              3.7657    Y=              1.5958    Z=              0.0019  Tot=              4.0899
 Quadrupole moment (field-independent basis, Debye-Ang):
   XX=            -32.5448   YY=            -29.0468   ZZ=            -29.4200
   XY=             -1.9412   XZ=              0.0269   YZ=             -0.0271
 Traceless Quadrupole moment (field-independent basis, Debye-Ang):
   XX=             -2.2076   YY=              1.2904   ZZ=              0.9172
   XY=             -1.9412   XZ=              0.0269   YZ=             -0.0271
 Octapole moment (field-independent basis, Debye-Ang**2):
  XXX=              8.4611  YYY=              2.2905  ZZZ=              0.1571  XYY=              0.4645
  XXY=              0.4865  XXZ=             -0.1807  XZZ=             -2.3389  YZZ=              0.1921
  YYZ=             -0.0229  XYZ=             -0.0086
 Hexadecapole moment (field-independent basis, Debye-Ang**3):
 XXXX=           -306.5810 YYYY=           -179.1630 ZZZZ=            -39.2936 XXXY=             -2.3531
 XXXZ=             -0.0646 YYYX=             -1.9195 YYYZ=             -0.0612 ZZZX=              0.0399
 ZZZY=              0.2017 XXYY=            -77.5134 XXZZ=            -52.8508 YYZZ=            -36.3393
 XXYZ=             -0.3013 YYXZ=             -0.0837 ZZXY=             -0.0394
 N-N= 1.839563672611D+02 E-N=-9.850561442055D+02  KE= 2.620697818027D+02
  Exact polarizability:  53.064   1.589  39.064  -0.019   0.095  28.541
 Approx polarizability:  89.325   5.880  52.995  -0.121   0.132  39.686
 No NMR shielding tensors so no spin-rotation constants.
 Leave Link  601 at Fri Jul 23 17:10:49 2021, MaxMem= 17179869184 cpu:        64.3
 (Enter /vol2/users/liuj201281/hxd_yi/bin/Gaussian/g09/l701.exe)
 Compute integral second derivatives.
 ... and contract with generalized density number  0.
 Leave Link  701 at Fri Jul 23 17:10:49 2021, MaxMem= 17179869184 cpu:        70.0
 (Enter /vol2/users/liuj201281/hxd_yi/bin/Gaussian/g09/l702.exe)
 L702 exits ... SP integral derivatives will be done elsewhere.
 Leave Link  702 at Fri Jul 23 17:10:50 2021, MaxMem= 17179869184 cpu:         2.8
 (Enter /vol2/users/liuj201281/hxd_yi/bin/Gaussian/g09/l703.exe)
 Compute integral second derivatives, UseDBF=F ICtDFT=           0.
 Integral derivatives from FoFJK, PRISM(SPDF).
 Calling FoFJK, ICntrl=    100127 FMM=F ISym2X=0 I1Cent= 0 IOpClX= 0 NMat=1 NMatS=1 NMatT=0.
 FoFJK:  IHMeth= 1 ICntrl=  100127 DoSepK=F KAlg= 0 I1Cent=   0 FoldK=F
 IRaf=         0 NMat=   1 IRICut=       1 DoRegI=T DoRafI=F ISym2E= 0.
 FoFCou: FMM=F IPFlag=           0 FMFlag=      100000 FMFlg1=         800
         NFxFlg=           0 DoJE=F BraDBF=F KetDBF=F FulRan=T
         wScrn=  0.000000 ICntrl=  100127 IOpCl=  0 I1Cent=           0 NGrid=           0
         NMat0=    1 NMatS0=      1 NMatT0=    0 NMatD0=    1 NMtDS0=    0 NMtDT0=    0
 Symmetry not used in FoFCou.
 Leave Link  703 at Fri Jul 23 17:10:51 2021, MaxMem= 17179869184 cpu:       213.5
 (Enter /vol2/users/liuj201281/hxd_yi/bin/Gaussian/g09/l716.exe)
 Dipole        = 1.48153305D+00 6.27831716D-01 7.32206170D-04
 Polarizability= 5.30638615D+01 1.58936252D+00 3.90644101D+01
                -1.89090301D-02 9.54937441D-02 2.85411699D+01
 Full mass-weighted force constant matrix:
 Low frequencies ---  -17.7406   -2.8365    0.0007    0.0008    0.0013    4.6647
 Low frequencies ---   27.7111  153.2739  219.4019
 Diagonal vibrational polarizability:
       10.8112315       2.2615891      13.7624942
 Harmonic frequencies (cm**-1), IR intensities (KM/Mole), Raman scattering
 activities (A**4/AMU), depolarization ratios for plane and unpolarized
 incident light, reduced masses (AMU), force constants (mDyne/A),
 and normal coordinates:
                      1                      2                      3
                      A                      A                      A
 Frequencies --     22.2609               153.2692               219.3967
 Red. masses --      1.1092                 2.0777                 1.2619
 Frc consts  --      0.0003                 0.0288                 0.0358
 IR Inten    --      0.2653                 0.3777                 2.4128
  Atom  AN      X      Y      Z        X      Y      Z        X      Y      Z
[...]
     38  0.418235D-04 -0.153177D-03  0.116459D-03 -0.177791D-03  0.142334D-03
     39 -0.416946D-03  0.342593D-02 -0.277679D-02 -0.898160D-03  0.105778D-02
     40 -0.522283D-03  0.266222D-02 -0.181770D-02 -0.364921D-03  0.488887D-03
               16            17            18            19            20 
     16  0.592548D-01
     17 -0.389429D-02  0.129863D+00
     18  0.590737D-03 -0.704071D-01  0.172474D+00
     19  0.330334D-02 -0.594489D-01 -0.102070D+00  0.161516D+00
     20  0.187675D-03 -0.645897D-02 -0.139917D-02  0.786570D-02  0.128098D+00
     21  0.206653D-03 -0.641519D-02 -0.162594D-02  0.803183D-02 -0.292805D-01
     22 -0.152052D-02  0.163603D-01 -0.455048D-02 -0.118082D-01 -0.242960D-01
     23  0.200312D-03  0.425142D-02  0.287682D-02 -0.712763D-02 -0.449800D-01
     24  0.490115D-03 -0.387894D-02  0.239333D-02  0.148281D-02 -0.397825D-01
     25  0.438432D-03 -0.386360D-02  0.236547D-02  0.150040D-02  0.908494D-02
     26 -0.319467D-02 -0.213018D-01  0.167070D-02  0.196285D-01  0.496641D-02
     27 -0.497131D-04  0.613281D-03 -0.381294D-03 -0.236431D-03 -0.476940D-03
     28 -0.254889D-04  0.304732D-03 -0.163083D-02  0.133789D-02  0.826688D-04
     29  0.933312D-02  0.157233D-02 -0.163589D-02  0.568786D-04 -0.485682D-03
     30  0.935735D-02  0.126378D-02 -0.288543D-02  0.163120D-02  0.739264D-04
     31 -0.986300D-02 -0.162916D-03  0.127728D-02 -0.112170D-02 -0.228426D-03
     32 -0.983877D-02 -0.471464D-03  0.277376D-04  0.452621D-03  0.331183D-03
     33  0.266841D-03 -0.210469D-02  0.165862D-02  0.455609D-03 -0.105880D-02
     34 -0.260083D-03  0.134403D-02  0.756634D-04 -0.140974D-02 -0.117243D-01
     35  0.284820D-04 -0.393456D-03  0.946355D-03 -0.541398D-03  0.905768D-02
     36  0.268763D-03 -0.159504D-02 -0.458377D-04  0.163470D-02 -0.150858D-02
     37 -0.258161D-03  0.185369D-02 -0.162880D-02 -0.230643D-03 -0.121741D-01
     38  0.304042D-04  0.116201D-03 -0.758104D-03  0.637698D-03  0.860789D-02
     39 -0.378222D-03 -0.347431D-03 -0.843898D-03  0.117266D-02 -0.405507D-02
     40 -0.433140D-03  0.147663D-02 -0.190263D-02  0.422740D-03 -0.367903D-02
               21            22            23            24            25 
     21  0.128184D+00
     22 -0.243205D-01  0.122001D+00
     23 -0.450762D-01  0.938656D-02  0.626336D-01
     24  0.908807D-02 -0.418496D-01  0.914248D-02  0.563361D-01
     25 -0.398223D-01 -0.417034D-01  0.917595D-02  0.853292D-02  0.562394D-01
     26  0.546234D-02  0.268603D-02 -0.486469D-02 -0.413684D-02 -0.432794D-02
     27  0.483264D-03 -0.358832D-04  0.289864D-04  0.374375D-04 -0.380017D-04
     28 -0.608813D-05 -0.692561D-04 -0.119362D-04 -0.118684D-03  0.122268D-03
     29  0.297040D-03  0.208303D-03  0.560172D-04  0.176516D-03 -0.251641D-03
     30 -0.192312D-03  0.174931D-03  0.150946D-04  0.203950D-04 -0.913706D-04
     31  0.422564D-03 -0.100010D-03 -0.465349D-04  0.156427D-03 -0.207622D-03
     32 -0.667882D-04 -0.133383D-03 -0.874576D-04  0.000000D+00 -0.473518D-04
     33  0.117113D-01 -0.107744D-01  0.892658D-02 -0.933858D-02 -0.105013D-03
     34  0.972781D-03  0.107480D-01 -0.887501D-02  0.129295D-03  0.939213D-02
     35 -0.912631D-02 -0.281597D-04  0.313189D-04  0.104179D-01 -0.103546D-01
     36  0.122807D-01 -0.108055D-01  0.886510D-02 -0.919989D-02 -0.272000D-03
     37  0.154217D-02  0.107168D-01 -0.893650D-02  0.267987D-03  0.922514D-02
     38 -0.855692D-02 -0.592943D-04 -0.301680D-04  0.105566D-01 -0.105216D-01
     39  0.414471D-02 -0.128237D-03 -0.137147D-04  0.605111D-03 -0.554747D-03
     40  0.353095D-02  0.147447D-03  0.657811D-04  0.397537D-03 -0.464067D-03
               26            27            28            29            30 
     26  0.570598D+00
     27 -0.162437D-02  0.117629D-01
     28 -0.156053D-02  0.114831D-01  0.122321D-01
     29 -0.412290D-03 -0.585472D-02 -0.627131D-02  0.119265D-01
     30 -0.348447D-03 -0.613454D-02 -0.552233D-02  0.115099D-01  0.121221D-01
     31 -0.184028D-02 -0.579261D-02 -0.626200D-02 -0.512252D-02 -0.559190D-02
     32 -0.177644D-02 -0.607243D-02 -0.551301D-02 -0.553911D-02 -0.497969D-02
     33  0.452607D-03 -0.142527D-03  0.457793D-03 -0.320578D-03  0.279742D-03
     34 -0.530353D-03 -0.184245D-03  0.420298D-03 -0.262382D-03  0.342161D-03
     35 -0.632398D-04 -0.393194D-03  0.317933D-03 -0.255662D-03  0.455465D-03
     36  0.562078D-03  0.130219D-03 -0.235815D-03  0.101365D-03 -0.264669D-03
     37 -0.420882D-03  0.885020D-04 -0.273310D-03  0.159561D-03 -0.202251D-03
     38  0.462315D-04 -0.120448D-03 -0.375676D-03  0.166281D-03 -0.889470D-04
     39 -0.208592D-02  0.170330D-02  0.552604D-03  0.967311D-03 -0.183383D-03
     40 -0.246575D-02  0.144910D-02  0.124965D-02  0.592908D-03  0.393454D-03
               31            32            33            34            35 
     31  0.119731D-01
     32  0.115037D-01  0.120631D-01
     33 -0.275616D-03  0.324705D-03  0.134387D-01
     34 -0.350305D-03  0.254238D-03 -0.528159D-02  0.134301D-01
     35 -0.278485D-03  0.432641D-03 -0.521199D-02 -0.519676D-02  0.126506D-01
     36  0.153478D-03 -0.212556D-03  0.128437D-01 -0.588107D-02 -0.591593D-02
     37  0.787894D-04 -0.283023D-03 -0.587661D-02  0.128307D-01 -0.590069D-02
     38  0.150609D-03 -0.104619D-03 -0.580701D-02 -0.579623D-02  0.119466D-01
     39  0.105307D-02 -0.976211D-04  0.478556D-03  0.430741D-03 -0.119406D-02
     40  0.619241D-03  0.419788D-03  0.101494D-02  0.102997D-02 -0.523348D-03
               36            37            38            39            40 
     36  0.132142D-01
     37 -0.551054D-02  0.131967D-01
     38 -0.554540D-02 -0.553462D-02  0.122082D-01
     39  0.161281D-02  0.156499D-02 -0.598054D-04  0.276899D-01
     40  0.123328D-02  0.124831D-02 -0.305006D-03  0.265900D-01  0.264157D-01
 Leave Link  716 at Fri Jul 23 17:10:58 2021, MaxMem= 17179869184 cpu:        42.6
 (Enter /vol2/users/liuj201281/hxd_yi/bin/Gaussian/g09/l103.exe)

 GradGradGradGradGradGradGradGradGradGradGradGradGradGradGradGradGradGrad
 Berny optimization.
 Red2BG is reusing G-inverse.
 Internal  Forces:  Max     0.000043317 RMS     0.000013427
 Search for a local minimum.
 Step number   1 out of a maximum of    2
 All quantities printed in internal units (Hartrees-Bohrs-Radians)
 Second derivative matrix not updated -- analytic derivatives used.
 ITU=  0
     Eigenvalues ---    0.00002   0.00234   0.00388   0.05247   0.05827
     Eigenvalues ---    0.06096   0.06168   0.06365   0.12843   0.13226
     Eigenvalues ---    0.15059   0.16824   0.17087   0.17880   0.20057
     Eigenvalues ---    0.24618   0.31317   0.33089   0.33401   0.33747
     Eigenvalues ---    0.34921   0.35107   0.35535   0.36976   0.37938
     Eigenvalues ---    0.52546   0.82099
 Quadratic step=4.824D-01 exceeds max=3.000D-01 adjusted using Lamda=-1.032D-05.
 Angle between NR and scaled steps=   0.04 degrees.
 Angle between quadratic step and forces=  84.41 degrees.
 Linear search not attempted -- first point.
 Iteration  1 RMS(Cart)=  0.05896701 RMS(Int)=  0.00256389
 Iteration  2 RMS(Cart)=  0.00268187 RMS(Int)=  0.00003596
 Iteration  3 RMS(Cart)=  0.00000439 RMS(Int)=  0.00003580
 Iteration  4 RMS(Cart)=  0.00000000 RMS(Int)=  0.00003580
 ITry= 1 IFail=0 DXMaxC= 1.90D-01 DCOld= 1.00D+10 DXMaxT= 3.00D-01 DXLimC= 3.00D+00 Rises=F
 Variable       Old X    -DE/DX   Delta X   Delta X   Delta X     New X
                                 (Linear)    (Quad)   (Total)
    R1        2.75215   0.00000   0.00000  -0.00020  -0.00020   2.75195
    R2        2.06013   0.00003   0.00000   0.00026   0.00026   2.06039
    R3        2.06881   0.00000   0.00000   0.00158   0.00158   2.07039
    R4        2.06674  -0.00003   0.00000  -0.00183  -0.00183   2.06491
    R5        2.73969  -0.00001   0.00000  -0.00015  -0.00015   2.73954
    R6        2.52611  -0.00001   0.00000   0.00073   0.00073   2.52684
    R7        2.07139   0.00001   0.00000   0.00040   0.00040   2.07179
    R8        2.07109  -0.00003   0.00000  -0.00037  -0.00037   2.07071
    R9        2.06154  -0.00001   0.00000  -0.00001  -0.00001   2.06153
   R10        2.32483  -0.00004   0.00000  -0.00044  -0.00044   2.32438
    A1        1.89647  -0.00001   0.00000   0.00019   0.00018   1.89666
    A2        1.92864  -0.00001   0.00000   0.00709   0.00710   1.93574
    A3        1.91822   0.00001   0.00000  -0.00809  -0.00808   1.91014
    A4        1.91932   0.00000   0.00000  -0.00329  -0.00329   1.91603
    A5        1.92360   0.00001   0.00000   0.00321   0.00321   1.92681
    A6        1.87775   0.00000   0.00000   0.00089   0.00091   1.87866
    A7        2.14287   0.00001   0.00000  -0.00145  -0.00158   2.14130
    A8        2.10019  -0.00001   0.00000   0.00196   0.00183   2.10202
    A9        2.03996   0.00001   0.00000  -0.00100  -0.00113   2.03884
   A10        1.94108   0.00000   0.00000   0.00092   0.00092   1.94200
   A11        1.93974  -0.00001   0.00000  -0.00123  -0.00123   1.93851
   A12        1.87188  -0.00001   0.00000   0.00016   0.00016   1.87204
   A13        1.89762   0.00000   0.00000  -0.00008  -0.00008   1.89755
   A14        1.90600   0.00001   0.00000  -0.00063  -0.00063   1.90537
   A15        1.90702   0.00001   0.00000   0.00086   0.00086   1.90788
   A16        1.99095   0.00003   0.00000   0.00150   0.00150   1.99245
    D1        0.08930   0.00000   0.00000   0.13489   0.13490   0.22420
    D2       -3.07202   0.00000   0.00000   0.10431   0.10430  -2.96772
    D3       -2.01798   0.00001   0.00000   0.13446   0.13446  -1.88352
    D4        1.10389   0.00001   0.00000   0.10388   0.10386   1.20775
    D5        2.19546   0.00001   0.00000   0.13403   0.13405   2.32951
    D6       -0.96585   0.00000   0.00000   0.10345   0.10345  -0.86240
    D7        1.05841   0.00000   0.00000  -0.00070  -0.00068   1.05773
    D8       -1.05844   0.00000   0.00000  -0.00039  -0.00037  -1.05881
    D9        3.14135   0.00000   0.00000  -0.00083  -0.00081   3.14053
   D10       -2.06410   0.00000   0.00000   0.02886   0.02885  -2.03525
   D11        2.10224   0.00000   0.00000   0.02917   0.02916   2.13140
   D12        0.01884   0.00000   0.00000   0.02873   0.02871   0.04755
   D13        0.00112   0.00000   0.00000   0.00199   0.00200   0.00312
   D14        3.12412  -0.00001   0.00000  -0.02684  -0.02686   3.09726
         Item               Value     Threshold  Converged?
 Maximum Force            0.000043     0.000450     YES
 RMS     Force            0.000013     0.000300     YES
 Maximum Displacement     0.189943     0.001800     NO 
 RMS     Displacement     0.058958     0.001200     NO 
 Predicted change in Energy=-1.704652D-06
 GradGradGradGradGradGradGradGradGradGradGradGradGradGradGradGradGradGrad

 Leave Link  103 at Fri Jul 23 17:10:58 2021, MaxMem= 17179869184 cpu:        16.0
 (Enter /vol2/users/liuj201281/hxd_yi/bin/Gaussian/g09/l9999.exe)
 1\1\GINC-FN8\Freq\RB3LYP\6-31G(d,p)\C2H6N2O1\LIUJ201281\23-Jul-2021\0\
 \#P Geom=AllCheck Guess=TCheck SCRF=Check GenChk RB3LYP/6-31G(d,p) Fre
 q\\Frag_52\\0,1\C,0.1192,1.4383,0.\N,0.3401,-0.0012,-0.008\C,1.6639,-0
 .5922,0.0039\N,-0.6979,-0.8435,-0.0043\O,-1.7953,-0.2875,0.0048\H,1.08
 42,1.9397,-0.0765\H,-0.3886,1.7432,0.9207\H,-0.5214,1.7214,-0.84\H,2.2
 193,-0.3031,0.9036\H,2.24,-0.2891,-0.8778\H,1.5347,-1.6754,-0.0055\\Ve
 rsion=ES64L-G09RevD.01\State=1-A\HF=-264.4813001\RMSD=3.807e-09\RMSF=2
 .230e-05\ZeroPoint=0.0894673\Thermal=0.0956966\Dipole=1.4815291,0.6278
 41,0.0007322\DipoleDeriv=0.1299196,0.0464277,-0.009275,-0.0445153,0.33
 51738,0.0134288,-0.0219,-0.0009109,0.2509999,-0.9426017,-0.1073223,0.0
 019898,-0.4868651,-0.3067464,-0.0066185,0.0199132,0.0104975,-0.1789675
 ,0.5883526,-0.1537898,0.0033357,-0.2063089,0.1060162,-0.000912,-0.0053
 695,-0.0065923,0.2914168,1.6114029,0.5012069,-0.0002968,0.3059718,-0.0
 059421,0.0008366,-0.012706,0.0019958,-0.0871367,-1.2729387,-0.301553,-
 0.002169,0.4762222,-0.200706,0.0003212,0.0101477,0.0010329,-0.2078248,
 -0.0644518,-0.080629,0.0148143,-0.0414636,0.0285566,-0.0009189,0.01559
 84,0.0048181,0.0794081,0.0340058,0.0465071,0.0587965,-0.0182344,-0.017
 9382,0.0014567,0.044141,-0.0564984,-0.056298,0.0255331,0.0573368,-0.06
 74565,-0.0140172,-0.0010216,-0.0084415,-0.0475237,0.0436966,-0.028716,
 -0.0924564,0.0183533,-0.0472595,-0.0039346,0.0594481,-0.0654551,-0.106
 5814,-0.0360194,-0.0796557,-0.0915229,0.0168555,0.0491078,-0.0101588,0
 .0565903,0.067302,0.104524,0.0390127,-0.0734678,0.0747574,-0.0433932,-
 0.0015872,0.0433038,-0.0534307,-0.0009994,-0.0002437,-0.0010325,0.0902
 417\Polar=53.0638416,1.5894502,39.06443,-0.0189096,0.0954936,28.541169
 9\PG=C01 [X(C2H6N2O1)]\NImag=0\\0.61738499,0.03259167,0.46956861,-0.00
 027746,-0.00056508,0.56444633,-0.11634315,0.03264213,-0.00027173,0.680
 93609,0.01939863,-0.19300413,-0.00192871,-0.04189970,0.61000955,-0.000
 20075,-0.00144618,-0.06645313,0.00139990,0.00218844,0.10109166,0.00446
 861,0.00299588,-0.00015906,-0.20646254,0.05032305,-0.00102356,0.516543
 58,0.02613093,-0.00916035,0.00079578,0.04548733,-0.13613781,0.00013731
 ,0.05794505,0.59254341,0.00019727,0.00013109,-0.00580662,-0.00196386,-
 0.00010444,-0.05209491,-0.00092776,0.00027157,0.56653665,0.00596333,-0
 .02450845,0.00172072,-0.14530493,-0.06006276,-0.00121165,-0.04974458,-
 0.00484463,0.00080458,0.64677393,-0.03780024,-0.04636811,-0.00000564,-
 0.05655914,-0.26229309,-0.00047634,0.01018489,0.02073486,0.00008726,-0
 .16149319,0.55732814,0.00003479,-0.00065530,0.02298094,0.00011057,0.00
 040295,-0.02424828,-0.00008139,-0.00008551,-0.01570248,-0.00377490,0.0
 0208219,0.05277314,0.00441030,0.01085485,-0.00053650,-0.15465319,-0.01
 078138,0.00147661,0.00245673,-0.01376052,0.00002036,-0.46275255,0.2317
 4590,0.00388413,0.61881559,-0.00204397,0.00134211,0.00142229,-0.014579
 34,0.05657050,-0.00022400,-0.00642673,0.00041136,0.00027952,0.24183773
 ,-0.25979433,-0.00189028,-0.21565652,0.19237532,0.00019794,0.00055669,
 -0.01429140,0.00104127,0.00014091,0.01186554,-0.00019543,0.00007217,0.
 01238001,0.00342426,-0.00182981,-0.03430684,-0.00501305,0.00116787,0.0
 2385008,-0.27024978,-0.11399020,0.01746110,0.00782326,0.00677039,-0.00
 092442,-0.00008801,0.00171705,-0.00019918,-0.00273237,0.00368851,0.000
 46713,0.00052909,-0.00395276,-0.00010007,0.28798510,-0.10355293,-0.101
 97650,0.00833199,-0.03636473,-0.02350047,0.00209457,-0.00131491,0.0010
 9168,0.00019247,0.00474441,-0.00823018,-0.00010988,0.00178179,0.004201
 53,0.00022456,0.11857786,0.11887358,0.01767797,0.00909790,-0.05191930,
 -0.00032007,0.00004663,-0.00253785,-0.00004487,-0.00001671,0.00118990,
 -0.00066006,-0.00020350,0.00087457,0.00003709,-0.00049569,0.00065196,-
 0.01920577,-0.00922953,0.04771871,-0.10383770,0.02880775,0.10448917,-0
 .00337089,0.00748022,0.00150761,0.00091725,0.00083032,0.00064621,0.001
 20555,-0.00232093,0.00131255,-0.00019569,0.00187751,-0.00065994,-0.010
 76016,0.00790752,0.02390382,0.10796923,0.02899284,-0.06225795,-0.05407
 513,0.01718667,-0.02395362,-0.02986307,-0.00273556,-0.00205836,-0.0023
 4442,0.00880764,0.00088380,0.00407007,-0.00480111,0.00264282,-0.001421
 93,-0.00538719,0.00502480,0.01380380,-0.03919889,0.07648905,0.10439639
 ,-0.05618410,-0.24110174,-0.00330198,-0.00644513,0.00857980,-0.0004889
 3,0.00040398,-0.00037567,0.00342353,0.00092619,-0.00113991,-0.00086762
 ,0.00205737,0.00066263,-0.00117773,0.00109412,0.00043846,-0.11424999,0
 .06357205,0.25535678,-0.13800715,0.03569465,-0.12229076,-0.00370666,0.
 00842540,-0.00027097,0.00080922,0.00099169,-0.00065620,0.00060413,-0.0
 0209494,-0.00186035,-0.00078870,0.00060398,0.00122400,-0.01329988,0.00
 727235,-0.02139753,0.00867225,-0.00422052,0.01207983,0.14640839,0.0348
 4718,-0.06074115,0.04592747,0.02232508,-0.02170538,0.02741132,-0.00274
 732,-0.00293248,0.00224103,0.00845955,0.00132414,-0.00385820,-0.005016
 15,0.00220560,0.00107771,-0.00724965,0.00469515,-0.01303046,-0.0053170
 3,0.00336570,-0.00556870,-0.04662438,0.07397453,-0.12211264,0.04894958
 ,-0.21098233,0.00394081,0.00540042,0.00740375,0.00056182,-0.00059904,-
 0.00046471,-0.00359786,-0.00064838,-0.00057703,0.00103160,-0.00231137,
 0.00025434,0.00365339,-0.00245422,0.00417519,-0.01658617,0.00578520,-0
 .02184335,0.13312837,-0.05385042,0.22251902,0.00063549,-0.00205905,-0.
 00000285,-0.02965203,-0.00899438,-0.02252585,-0.10462368,-0.03369667,-
 0.09926284,0.00264863,0.00538493,-0.00502458,-0.00413913,0.00014307,0.
 00211834,0.00032809,0.00050704,-0.00004753,-0.00029748,0.00023135,0.00
 008183,-0.00011973,0.00033307,-0.00010442,0.12659862,-0.00036501,0.000
 89241,0.00062994,0.01359139,0.00616500,0.01241244,-0.03703745,-0.07198
 420,-0.06118336,-0.00319536,-0.00197142,0.00032136,0.00232379,0.000004
 72,-0.00016543,-0.00004289,-0.00029474,0.00016892,0.00008166,0.0003924
 3,-0.00005477,-0.00027524,-0.00004945,-0.00003861,0.03499851,0.0690239
 8,-0.00059516,-0.00048901,0.00061033,-0.00239988,0.00260819,0.00850258
 ,-0.10245388,-0.06131130,-0.23096402,0.00194104,0.00082201,-0.00007092
 ,-0.00016925,0.00025908,-0.00047244,0.00015011,0.00040409,-0.00024005,
 -0.00008047,0.00033811,-0.00021608,0.00004406,0.00014888,-0.00017739,0
 .11389204,0.06565735,0.24349300,0.00044883,-0.00218588,0.00001316,-0.0
 3000480,-0.00933201,0.02139533,-0.10957041,-0.03658320,0.10172075,0.00
 230655,0.00545249,0.00495097,-0.00416713,0.00004083,-0.00202717,0.0003
 9350,0.00054907,0.00007588,-0.00001089,0.00043785,0.00014355,-0.000228
 43,0.00009269,0.00000515,0.00980451,0.00442723,-0.01211093,0.13221635,
 -0.00012527,0.00103149,-0.00064610,0.01357414,0.00604474,-0.01215699,-
 0.04010150,-0.07389983,0.06277636,-0.00303317,-0.00194151,-0.00024355,
 0.00233097,0.00008799,0.00016521,-0.00011707,-0.00029460,-0.00011796,-
 0.00034161,-0.00008741,0.00006542,0.00008985,0.00040190,-0.00003152,0.
 00444161,0.00307095,-0.00885756,0.03837600,0.07114110,0.00062254,0.000
 52336,0.00043907,0.00166567,-0.00272974,0.00876226,0.10507549,0.062891
 83,-0.22453698,-0.00202613,-0.00076002,0.00000214,0.00011044,-0.000268
 64,-0.00049453,-0.00007650,-0.00048970,-0.00017370,-0.00009316,-0.0001
 2643,-0.00017904,-0.00003987,-0.00028348,-0.00014225,0.01295546,0.0093
 5882,-0.02182013,-0.11608777,-0.06754714,0.23634143,-0.00487377,-0.000
 84336,-0.00014580,0.00073883,0.03867255,0.00037774,-0.05470617,-0.0442
 1734,-0.00037934,0.00103231,0.00381174,-0.00001891,0.00048468,-0.00184
 381,-0.00001015,0.00007116,-0.00010748,-0.00001892,-0.00029147,0.00068
 691,-0.00003891,-0.00034344,0.00089698,0.00007995,-0.00118327,-0.01450
 664,0.00178234,-0.00118809,-0.01509393,-0.00210618,0.06025923,0.001926
 17,0.00067358,0.00011319,0.00459617,-0.01819528,-0.00007748,-0.0310854
 0,-0.31860826,-0.00234708,-0.00671176,0.00032772,-0.00003385,0.0009783
 8,-0.00004762,0.00001204,-0.00001406,0.00040976,-0.00002342,0.00019348
 ,-0.00044124,0.00013357,0.00013718,-0.00053853,-0.00020164,-0.00128947
 ,-0.00524969,0.00042017,-0.00127507,-0.00555483,-0.00056887,0.03254438
 ,0.34722440,0.00005909,0.00008104,0.00207785,0.00009929,0.00042048,-0.
 00087141,-0.00026243,-0.00256009,-0.05016116,-0.00004354,0.00000606,-0
 .00058532,0.00002619,0.00000384,-0.00009934,-0.00004805,-0.00005846,-0
 .00017789,-0.00018961,0.00026174,-0.00018188,0.00003941,-0.00021514,-0
 .00016524,-0.00207961,-0.02710666,0.00135511,0.00192108,0.02659382,0.0
 0180174,0.00047818,0.00257337,0.04700754\\0.00005858,-0.00000324,0.000
 03539,-0.00002760,0.00002394,0.00000226,-0.00000974,0.00000395,0.00001
 895,0.00003714,-0.00005273,0.00001177,-0.00003265,0.00002967,-0.000003
 24,-0.00002978,-0.00000324,-0.00000320,-0.00000519,0.00000516,-0.00000
 196,-0.00001403,0.00000437,-0.00003510,-0.00000539,-0.00000288,-0.0000
 0743,0.00002210,0.00000407,-0.00002215,0.00000656,-0.00000906,0.000004
 72\\\@


 BLESSED ARE THOSE WHO NOUGHT EXPECT,
 FOR THEY SHALL NOT BE DISAPPOINTED..  WALCOT - ODE TO PITT
 Job cpu time:       0 days  0 hours 19 minutes 40.5 seconds.
 File lengths (MBytes):  RWF=     18 Int=      0 D2E=      0 Chk=      2 Scr=      1
 Normal termination of Gaussian 09 at Fri Jul 23 17:10:58 2021.
