 Entering Gaussian System, Link 0=g09
 Input=G4.Frag_793.gjf
 Output=G4.Frag_793.log
 Initial command:
 /public/home/users/caep010/software/Gaussian09/g09/l1.exe "/public/home/users/caep010/.cache/gau_scr/Gau-95431.inp" -scrdir="/public/home/users/caep010/.cache/gau_scr/"
 Entering Link 1 = /public/home/users/caep010/software/Gaussian09/g09/l1.exe PID=     95432.
  
 Copyright (c) 1988,1990,1992,1993,1995,1998,2003,2009,2015,
            Gaussian, Inc.  All Rights Reserved.
  
 This is part of the Gaussian(R) 09 program.  It is based on
 the Gaussian(R) 03 system (copyright 2003, Gaussian, Inc.),
 the Gaussian(R) 98 system (copyright 1998, Gaussian, Inc.),
 the Gaussian(R) 94 system (copyright 1995, Gaussian, Inc.),
 the Gaussian 92(TM) system (copyright 1992, Gaussian, Inc.),
 the Gaussian 90(TM) system (copyright 1990, Gaussian, Inc.),
 the Gaussian 88(TM) system (copyright 1988, Gaussian, Inc.),
 the Gaussian 86(TM) system (copyright 1986, Carnegie Mellon
 University), and the Gaussian 82(TM) system (copyright 1983,
 Carnegie Mellon University). Gaussian is a federally registered
 trademark of Gaussian, Inc.
  
 This software contains proprietary and confidential information,
 including trade secrets, belonging to Gaussian, Inc.
  
 This software is provided under written license and may be
 used, copied, transmitted, or stored only in accord with that
 written license.
  
 The following legend is applicable only to US Government
 contracts under FAR:
  
                    RESTRICTED RIGHTS LEGEND
  
 Use, reproduction and disclosure by the US Government is
 subject to restrictions as set forth in subparagraphs (a)
 and (c) of the Commercial Computer Software - Restricted
 Rights clause in FAR 52.227-19.
  
 Gaussian, Inc.
 340 Quinnipiac St., Bldg. 40, Wallingford CT 06492
  
  
 ---------------------------------------------------------------
 Warning -- This program may not be used in any manner that
 competes with the business of Gaussian, Inc. or will provide
 assistance to any competitor of Gaussian, Inc.  The licensee
 of this program is prohibited from giving any competitor of
 Gaussian, Inc. access to this program.  By using this program,
 the user acknowledges that Gaussian, Inc. is engaged in the
 business of creating and licensing software in the field of
 computational chemistry and represents and warrants to the
 licensee that it is not a competitor of Gaussian, Inc. and that
 it will not use this program in any manner prohibited above.
 ---------------------------------------------------------------
  

 Cite this work as:
 Gaussian 09, Revision E.01,
 M. J. Frisch, G. W. Trucks, H. B. Schlegel, G. E. Scuseria, 
 M. A. Robb, J. R. Cheeseman, G. Scalmani, V. Barone, B. Mennucci, 
 G. A. Petersson, H. Nakatsuji, M. Caricato, X. Li, H. P. Hratchian, 
 A. F. Izmaylov, J. Bloino, G. Zheng, J. L. Sonnenberg, M. Hada, 
 M. Ehara, K. Toyota, R. Fukuda, J. Hasegawa, M. Ishida, T. Nakajima, 
 Y. Honda, O. Kitao, H. Nakai, T. Vreven, J. A. Montgomery, Jr., 
 J. E. Peralta, F. Ogliaro, M. Bearpark, J. J. Heyd, E. Brothers, 
 K. N. Kudin, V. N. Staroverov, T. Keith, R. Kobayashi, J. Normand, 
 K. Raghavachari, A. Rendell, J. C. Burant, S. S. Iyengar, J. Tomasi, 
 M. Cossi, N. Rega, J. M. Millam, M. Klene, J. E. Knox, J. B. Cross, 
 V. Bakken, C. Adamo, J. Jaramillo, R. Gomperts, R. E. Stratmann, 
 O. Yazyev, A. J. Austin, R. Cammi, C. Pomelli, J. W. Ochterski, 
 R. L. Martin, K. Morokuma, V. G. Zakrzewski, G. A. Voth, 
 P. Salvador, J. J. Dannenberg, S. Dapprich, A. D. Daniels, 
 O. Farkas, J. B. Foresman, J. V. Ortiz, J. Cioslowski, 
 and D. J. Fox, Gaussian, Inc., Wallingford CT, 2013.
 
 ******************************************
 Gaussian 09:  ES64L-G09RevE.01 30-Nov-2015
                26-Aug-2022 
 ******************************************
 %nproc=32
 Will use up to   32 processors via shared memory.
 %mem=180GB
 %chk=G4.Frag_793.chk
 -----
 #P G4
 -----
 1/14=-1,18=20,19=15,26=3,38=1/1,3;
 2/9=110,12=2,17=6,18=5,40=1/2;
 3/5=35,7=104,11=2,16=1,25=1,30=1,71=1,74=-5/1,2,3;
 4//1;
 5/5=2,38=5/2;
 6/7=2,8=2,9=2,10=2,28=1/1;
 7//1,2,3,16;
 1/14=-1,18=20,19=15,26=3/3(2);
 2/9=110/2;
 99//99;
 2/9=110/2;
 3/5=35,7=104,11=2,16=1,25=1,30=1,71=1,74=-5/1,2,3;
 4/5=5,16=3,69=1/1;
 5/5=2,38=5/2;
 7//1,2,3,16;
 1/14=-1,18=20,19=15,26=3/3(-5);
 2/9=110/2;
 6/7=2,8=2,9=2,10=2,19=2,28=1/1;
 99/9=1/99;
 Leave Link    1 at Fri Aug 26 08:56:27 2022, MaxMem= 24159191040 cpu:         2.2
 (Enter /public/home/users/caep010/software/Gaussian09/g09/l101.exe)
 --------
 Frag_793
 --------
 Symbolic Z-matrix:
 Charge =  0 Multiplicity = 1
 C                    -0.8927   -0.4845   -0.1155 
 N                     0.2945    0.2722    0.2721 
 O                     1.3563   -0.5678    0.2005 
 O                     0.4908    1.233    -0.6642 
 H                    -0.7732   -0.9163   -1.1343 
 H                    -1.0665   -1.3073    0.6105 
 H                    -1.782     0.1812   -0.1043 
 H                     1.8014   -0.4848    1.0821 
 H                     0.5713    2.0744   -0.1469 
 
 NAtoms=      9 NQM=        9 NQMF=       0 NMMI=      0 NMMIF=      0
                NMic=       0 NMicF=      0.
                    Isotopes and Nuclear Properties:
 (Nuclear quadrupole moments (NQMom) in fm**2, nuclear magnetic moments (NMagM)
  in nuclear magnetons)

  Atom         1           2           3           4           5           6           7           8           9
 IAtWgt=          12          14          16          16           1           1           1           1           1
 AtmWgt=  12.0000000  14.0030740  15.9949146  15.9949146   1.0078250   1.0078250   1.0078250   1.0078250   1.0078250
 NucSpn=           0           2           0           0           1           1           1           1           1
 AtZEff=   0.0000000   0.0000000   0.0000000   0.0000000   0.0000000   0.0000000   0.0000000   0.0000000   0.0000000
 NQMom=    0.0000000   2.0440000   0.0000000   0.0000000   0.0000000   0.0000000   0.0000000   0.0000000   0.0000000
 NMagM=    0.0000000   0.4037610   0.0000000   0.0000000   2.7928460   2.7928460   2.7928460   2.7928460   2.7928460
 AtZNuc=   6.0000000   7.0000000   8.0000000   8.0000000   1.0000000   1.0000000   1.0000000   1.0000000   1.0000000
 Leave Link  101 at Fri Aug 26 08:56:28 2022, MaxMem= 24159191040 cpu:        10.3
 (Enter /public/home/users/caep010/software/Gaussian09/g09/l103.exe)

 GradGradGradGradGradGradGradGradGradGradGradGradGradGradGradGradGradGrad
 Berny optimization.
 Initialization pass.
                           ----------------------------
                           !    Initial Parameters    !
                           ! (Angstroms and Degrees)  !
 --------------------------                            --------------------------
 ! Name  Definition              Value          Derivative Info.                !
 --------------------------------------------------------------------------------
 ! R1    R(1,2)                  1.4602         estimate D2E/DX2                !
 ! R2    R(1,5)                  1.113          estimate D2E/DX2                !
 ! R3    R(1,6)                  1.111          estimate D2E/DX2                !
 ! R4    R(1,7)                  1.1109         estimate D2E/DX2                !
 ! R5    R(2,3)                  1.3558         estimate D2E/DX2                !
 ! R6    R(2,4)                  1.3558         estimate D2E/DX2                !
 ! R7    R(3,8)                  0.9911         estimate D2E/DX2                !
 ! R8    R(4,9)                  0.991          estimate D2E/DX2                !
 ! A1    A(2,1,5)              110.8998         estimate D2E/DX2                !
 ! A2    A(2,1,6)              109.7257         estimate D2E/DX2                !
 ! A3    A(2,1,7)              109.7325         estimate D2E/DX2                !
 ! A4    A(5,1,6)              109.1262         estimate D2E/DX2                !
 ! A5    A(5,1,7)              109.1273         estimate D2E/DX2                !
 ! A6    A(6,1,7)              108.1785         estimate D2E/DX2                !
 ! A7    A(1,2,3)              107.5566         estimate D2E/DX2                !
 ! A8    A(1,2,4)              107.5553         estimate D2E/DX2                !
 ! A9    A(3,2,4)              106.8095         estimate D2E/DX2                !
 ! A10   A(2,3,8)              104.6469         estimate D2E/DX2                !
 ! A11   A(2,4,9)              104.6523         estimate D2E/DX2                !
 ! D1    D(5,1,2,3)            -57.3588         estimate D2E/DX2                !
 ! D2    D(5,1,2,4)             57.364          estimate D2E/DX2                !
 ! D3    D(6,1,2,3)             63.2722         estimate D2E/DX2                !
 ! D4    D(6,1,2,4)            177.995          estimate D2E/DX2                !
 ! D5    D(7,1,2,3)           -177.9957         estimate D2E/DX2                !
 ! D6    D(7,1,2,4)            -63.273          estimate D2E/DX2                !
 ! D7    D(1,2,3,8)           -128.0371         estimate D2E/DX2                !
 ! D8    D(4,2,3,8)            116.745          estimate D2E/DX2                !
 ! D9    D(1,2,4,9)            128.0315         estimate D2E/DX2                !
 ! D10   D(3,2,4,9)           -116.7497         estimate D2E/DX2                !
 --------------------------------------------------------------------------------
 Trust Radius=3.00D-01 FncErr=1.00D-07 GrdErr=1.00D-06
 Number of steps in this run=     39 maximum allowed number of steps=    100.
 GradGradGradGradGradGradGradGradGradGradGradGradGradGradGradGradGradGrad

 Leave Link  103 at Fri Aug 26 08:56:28 2022, MaxMem= 24159191040 cpu:         0.6
 (Enter /public/home/users/caep010/software/Gaussian09/g09/l202.exe)
                          Input orientation:                          
 ---------------------------------------------------------------------
 Center     Atomic      Atomic             Coordinates (Angstroms)
 Number     Number       Type             X           Y           Z
 ---------------------------------------------------------------------
      1          6           0       -0.892700   -0.484500   -0.115500
      2          7           0        0.294500    0.272200    0.272100
      3          8           0        1.356300   -0.567800    0.200500
      4          8           0        0.490800    1.233000   -0.664200
      5          1           0       -0.773200   -0.916300   -1.134300
      6          1           0       -1.066500   -1.307300    0.610500
      7          1           0       -1.782000    0.181200   -0.104300
      8          1           0        1.801400   -0.484800    1.082100
      9          1           0        0.571300    2.074400   -0.146900
 ---------------------------------------------------------------------
                    Distance matrix (angstroms):
                    1          2          3          4          5
     1  C    0.000000
     2  N    1.460230   0.000000
     3  O    2.272619   1.355782   0.000000
     4  O    2.272653   1.355850   2.177080   0.000000
     5  H    1.112962   2.128492   2.537304   2.537357   0.000000
     6  H    1.110983   2.112263   2.566110   3.240859   1.811969
     7  H    1.110917   2.112300   3.240807   2.566202   1.811928
     8  H    2.948291   1.870801   0.991071   2.778142   3.424498
     9  H    2.948262   1.870857   2.778153   0.990976   3.424460
                    6          7          8          9
     6  H    0.000000
     7  H    1.799586   0.000000
     8  H    3.020557   3.832996   0.000000
     9  H    3.833006   3.020603   3.094041   0.000000
 Stoichiometry    CH5NO2
 Framework group  C1[X(CH5NO2)]
 Deg. of freedom    21
 Full point group                 C1      NOp   1
 Largest Abelian subgroup         C1      NOp   1
 Largest concise Abelian subgroup C1      NOp   1
                         Standard orientation:                         
 ---------------------------------------------------------------------
 Center     Atomic      Atomic             Coordinates (Angstroms)
 Number     Number       Type             X           Y           Z
 ---------------------------------------------------------------------
      1          6           0       -1.335630   -0.000193    0.038074
      2          7           0        0.067628    0.000036   -0.365833
      3          8           0        0.653311    1.088619    0.191042
      4          8           0        0.653649   -1.088461    0.191016
      5          1           0       -1.429577   -0.000195    1.147064
      6          1           0       -1.843511    0.899584   -0.370266
      7          1           0       -1.843320   -0.900003   -0.370252
      8          1           0        1.100359    1.547149   -0.565344
      9          1           0        1.100749   -1.546892   -0.565275
 ---------------------------------------------------------------------
 Rotational constants (GHZ):     10.1879084      9.7851626      5.5680374
 Leave Link  202 at Fri Aug 26 08:56:28 2022, MaxMem= 24159191040 cpu:         0.6
 (Enter /public/home/users/caep010/software/Gaussian09/g09/l301.exe)
 Standard basis: GTBas3 (6D, 7F)
 Ernie: Thresh=  0.10000D-02 Tol=  0.10000D-05 Strict=F.
 There are   149 symmetry adapted cartesian basis functions of A   symmetry.
 There are   137 symmetry adapted basis functions of A   symmetry.
   137 basis functions,   211 primitive gaussians,   149 cartesian basis functions
    17 alpha electrons       17 beta electrons
       nuclear repulsion energy       139.5989883899 Hartrees.
 IExCor=  402 DFT=T Ex+Corr=B3LYP ExCW=0 ScaHFX=  0.200000
 ScaDFX=  0.800000  0.720000  1.000000  0.810000 ScalE2=  1.000000  1.000000
 IRadAn=      0 IRanWt=     -1 IRanGd=            0 ICorTp=0 IEmpDi=  4
 NAtoms=    9 NActive=    9 NUniq=    9 SFac= 1.00D+00 NAtFMM=   60 NAOKFM=F Big=F
 Integral buffers will be    131072 words long.
 Raffenetti 2 integral format.
 Two-electron integral symmetry is turned on.
 Leave Link  301 at Fri Aug 26 08:56:28 2022, MaxMem= 24159191040 cpu:         2.0
 (Enter /public/home/users/caep010/software/Gaussian09/g09/l302.exe)
 NPDir=0 NMtPBC=     1 NCelOv=     1 NCel=       1 NClECP=     1 NCelD=      1
         NCelK=      1 NCelE2=     1 NClLst=     1 CellRange=     0.0.
 One-electron integrals computed using PRISM.
 NBasis=   137 RedAO= T EigKep=  5.14D-04  NBF=   137
 NBsUse=   137 1.00D-06 EigRej= -1.00D+00 NBFU=   137
 Precomputing XC quadrature grid using
 IXCGrd= 4 IRadAn=           0 IRanWt=          -1 IRanGd=           0 AccXCQ= 0.00D+00.
 Generated NRdTot=       0 NPtTot=           0 NUsed=           0 NTot=          32
 NSgBfM=   149   149   149   149   149 MxSgAt=     9 MxSgA2=     9.
 Leave Link  302 at Fri Aug 26 08:56:29 2022, MaxMem= 24159191040 cpu:        15.8
 (Enter /public/home/users/caep010/software/Gaussian09/g09/l303.exe)
 DipDrv:  MaxL=1.
 Leave Link  303 at Fri Aug 26 08:56:29 2022, MaxMem= 24159191040 cpu:         0.8
 (Enter /public/home/users/caep010/software/Gaussian09/g09/l401.exe)
 ExpMin= 1.61D-01 ExpMax= 5.48D+03 ExpMxC= 8.25D+02 IAcc=1 IRadAn=         1 AccDes= 0.00D+00
 Harris functional with IExCor=  402 and IRadAn=       1 diagonalized for initial guess.
 HarFok:  IExCor=  402 AccDes= 0.00D+00 IRadAn=         1 IDoV= 1 UseB2=F ITyADJ=14
 ICtDFT=  3500011 ScaDFX=  1.000000  1.000000  1.000000  1.000000
 FoFCou: FMM=F IPFlag=           0 FMFlag=      100000 FMFlg1=           0
         NFxFlg=           0 DoJE=T BraDBF=F KetDBF=T FulRan=T
         wScrn=  0.000000 ICntrl=     500 IOpCl=  0 I1Cent=   200000004 NGrid=           0
         NMat0=    1 NMatS0=      1 NMatT0=    0 NMatD0=    1 NMtDS0=    0 NMtDT0=    0
 Petite list used in FoFCou.
 Harris En= -246.232506464355    
 JPrj=0 DoOrth=F DoCkMO=F.
 Leave Link  401 at Fri Aug 26 08:56:29 2022, MaxMem= 24159191040 cpu:        13.1
 (Enter /public/home/users/caep010/software/Gaussian09/g09/l502.exe)
 Closed shell SCF:
 Using DIIS extrapolation, IDIIS=  1040.
 Integral symmetry usage will be decided dynamically.
 Keep R1 ints in memory in canonical form, NReq=46768720.
 IVT=       91009 IEndB=       91009 NGot= 24159191040 MDV= 24114415701
 LenX= 24114415701 LenY= 24114393059
 Requested convergence on RMS density matrix=1.00D-08 within 128 cycles.
 Requested convergence on MAX density matrix=1.00D-06.
 Requested convergence on             energy=1.00D-06.
 No special actions if energy rises.
 FoFCou: FMM=F IPFlag=           0 FMFlag=           0 FMFlg1=           0
         NFxFlg=           0 DoJE=F BraDBF=F KetDBF=F FulRan=T
         wScrn=  0.000000 ICntrl=     600 IOpCl=  0 I1Cent=           0 NGrid=           0
         NMat0=    1 NMatS0=   9453 NMatT0=    0 NMatD0=    1 NMtDS0=    0 NMtDT0=    0
 Symmetry not used in FoFCou.
 Integral accuracy reduced to 1.0D-05 until final iterations.

 Cycle   1  Pass 0  IDiag  1:
 E= -246.096870632386    
 DIIS: error= 2.59D-02 at cycle   1 NSaved=   1.
 NSaved= 1 IEnMin= 1 EnMin= -246.096870632386     IErMin= 1 ErrMin= 2.59D-02
 ErrMax= 2.59D-02  0.00D+00 EMaxC= 1.00D-01 BMatC= 1.49D-01 BMatP= 1.49D-01
 IDIUse=3 WtCom= 7.41D-01 WtEn= 2.59D-01
 Coeff-Com:  0.100D+01
 Coeff-En:   0.100D+01
 Coeff:      0.100D+01
 Gap=     0.274 Goal=   None    Shift=    0.000
 GapD=    0.274 DampG=1.000 DampE=0.500 DampFc=0.5000 IDamp=-1.
 Damping current iteration by 5.00D-01
 RMSDP=5.04D-03 MaxDP=1.15D-01              OVMax= 1.47D-01

 Cycle   2  Pass 0  IDiag  1:
 E= -246.141902587833     Delta-E=       -0.045031955448 Rises=F Damp=T
 DIIS: error= 8.55D-03 at cycle   2 NSaved=   2.
 NSaved= 2 IEnMin= 2 EnMin= -246.141902587833     IErMin= 2 ErrMin= 8.55D-03
 ErrMax= 8.55D-03  0.00D+00 EMaxC= 1.00D-01 BMatC= 1.35D-02 BMatP= 1.49D-01
 IDIUse=3 WtCom= 9.15D-01 WtEn= 8.55D-02
 Coeff-Com:  0.149D+00 0.851D+00
 Coeff-En:   0.232D+00 0.768D+00
 Coeff:      0.156D+00 0.844D+00
 Gap=     0.345 Goal=   None    Shift=    0.000
 RMSDP=1.03D-03 MaxDP=3.31D-02 DE=-4.50D-02 OVMax= 8.10D-02

 Cycle   3  Pass 0  IDiag  1:
 E= -246.211270140421     Delta-E=       -0.069367552587 Rises=F Damp=F
 DIIS: error= 3.58D-03 at cycle   3 NSaved=   3.
 NSaved= 3 IEnMin= 3 EnMin= -246.211270140421     IErMin= 3 ErrMin= 3.58D-03
 ErrMax= 3.58D-03  0.00D+00 EMaxC= 1.00D-01 BMatC= 3.54D-03 BMatP= 1.35D-02
 IDIUse=3 WtCom= 9.64D-01 WtEn= 3.58D-02
 Coeff-Com:  0.201D-01 0.316D+00 0.664D+00
 Coeff-En:   0.000D+00 0.000D+00 0.100D+01
 Coeff:      0.194D-01 0.305D+00 0.676D+00
 Gap=     0.291 Goal=   None    Shift=    0.000
 RMSDP=5.19D-04 MaxDP=1.66D-02 DE=-6.94D-02 OVMax= 1.67D-02

 Cycle   4  Pass 0  IDiag  1:
 E= -246.213189460116     Delta-E=       -0.001919319695 Rises=F Damp=F
 DIIS: error= 2.55D-03 at cycle   4 NSaved=   4.
 NSaved= 4 IEnMin= 4 EnMin= -246.213189460116     IErMin= 4 ErrMin= 2.55D-03
 ErrMax= 2.55D-03  0.00D+00 EMaxC= 1.00D-01 BMatC= 1.04D-03 BMatP= 3.54D-03
 IDIUse=3 WtCom= 9.75D-01 WtEn= 2.55D-02
 Coeff-Com:  0.957D-03 0.665D-01 0.367D+00 0.566D+00
 Coeff-En:   0.000D+00 0.000D+00 0.247D+00 0.753D+00
 Coeff:      0.933D-03 0.648D-01 0.364D+00 0.570D+00
 Gap=     0.284 Goal=   None    Shift=    0.000
 RMSDP=1.96D-04 MaxDP=6.00D-03 DE=-1.92D-03 OVMax= 7.42D-03

 Cycle   5  Pass 0  IDiag  1:
 E= -246.214067935477     Delta-E=       -0.000878475361 Rises=F Damp=F
 DIIS: error= 3.52D-04 at cycle   5 NSaved=   5.
 NSaved= 5 IEnMin= 5 EnMin= -246.214067935477     IErMin= 5 ErrMin= 3.52D-04
 ErrMax= 3.52D-04  0.00D+00 EMaxC= 1.00D-01 BMatC= 1.95D-05 BMatP= 1.04D-03
 IDIUse=3 WtCom= 9.96D-01 WtEn= 3.52D-03
 Coeff-Com: -0.452D-04 0.141D-02 0.828D-01 0.197D+00 0.719D+00
 Coeff-En:   0.000D+00 0.000D+00 0.000D+00 0.000D+00 0.100D+01
 Coeff:     -0.451D-04 0.141D-02 0.825D-01 0.196D+00 0.720D+00
 Gap=     0.285 Goal=   None    Shift=    0.000
 RMSDP=2.52D-05 MaxDP=6.48D-04 DE=-8.78D-04 OVMax= 1.04D-03

 Cycle   6  Pass 0  IDiag  1:
 E= -246.214083867527     Delta-E=       -0.000015932050 Rises=F Damp=F
 DIIS: error= 4.25D-05 at cycle   6 NSaved=   6.
 NSaved= 6 IEnMin= 6 EnMin= -246.214083867527     IErMin= 6 ErrMin= 4.25D-05
 ErrMax= 4.25D-05  0.00D+00 EMaxC= 1.00D-01 BMatC= 3.20D-07 BMatP= 1.95D-05
 IDIUse=1 WtCom= 1.00D+00 WtEn= 0.00D+00
 Coeff-Com:  0.653D-04-0.101D-02 0.200D-01 0.539D-01 0.240D+00 0.688D+00
 Coeff:      0.653D-04-0.101D-02 0.200D-01 0.539D-01 0.240D+00 0.688D+00
 Gap=     0.285 Goal=   None    Shift=    0.000
 RMSDP=3.81D-06 MaxDP=8.61D-05 DE=-1.59D-05 OVMax= 1.38D-04

 Initial convergence to 1.0D-05 achieved.  Increase integral accuracy.
 Cycle   7  Pass 1  IDiag  1:
 E= -246.214069876140     Delta-E=        0.000013991387 Rises=F Damp=F
 DIIS: error= 1.15D-05 at cycle   1 NSaved=   1.
 NSaved= 1 IEnMin= 1 EnMin= -246.214069876140     IErMin= 1 ErrMin= 1.15D-05
 ErrMax= 1.15D-05  0.00D+00 EMaxC= 1.00D-01 BMatC= 4.25D-08 BMatP= 4.25D-08
 IDIUse=1 WtCom= 1.00D+00 WtEn= 0.00D+00
 Coeff-Com:  0.100D+01
 Coeff:      0.100D+01
 Gap=     0.285 Goal=   None    Shift=    0.000
 RMSDP=3.81D-06 MaxDP=8.61D-05 DE= 1.40D-05 OVMax= 8.67D-05

 Cycle   8  Pass 1  IDiag  1:
 E= -246.214069868765     Delta-E=        0.000000007374 Rises=F Damp=F
 DIIS: error= 1.38D-05 at cycle   2 NSaved=   2.
 NSaved= 2 IEnMin= 1 EnMin= -246.214069876140     IErMin= 1 ErrMin= 1.15D-05
 ErrMax= 1.38D-05  0.00D+00 EMaxC= 1.00D-01 BMatC= 5.12D-08 BMatP= 4.25D-08
 IDIUse=1 WtCom= 1.00D+00 WtEn= 0.00D+00
 Coeff-Com:  0.526D+00 0.474D+00
 Coeff:      0.526D+00 0.474D+00
 Gap=     0.285 Goal=   None    Shift=    0.000
 RMSDP=1.55D-06 MaxDP=3.80D-05 DE= 7.37D-09 OVMax= 4.63D-05

 Cycle   9  Pass 1  IDiag  1:
 E= -246.214069909464     Delta-E=       -0.000000040699 Rises=F Damp=F
 DIIS: error= 1.22D-06 at cycle   3 NSaved=   3.
 NSaved= 3 IEnMin= 3 EnMin= -246.214069909464     IErMin= 3 ErrMin= 1.22D-06
 ErrMax= 1.22D-06  0.00D+00 EMaxC= 1.00D-01 BMatC= 5.58D-10 BMatP= 4.25D-08
 IDIUse=1 WtCom= 1.00D+00 WtEn= 0.00D+00
 Coeff-Com: -0.722D-02 0.869D-01 0.920D+00
 Coeff:     -0.722D-02 0.869D-01 0.920D+00
 Gap=     0.285 Goal=   None    Shift=    0.000
 RMSDP=1.54D-07 MaxDP=4.08D-06 DE=-4.07D-08 OVMax= 4.94D-06

 Cycle  10  Pass 1  IDiag  1:
 E= -246.214069909899     Delta-E=       -0.000000000435 Rises=F Damp=F
 DIIS: error= 1.44D-07 at cycle   4 NSaved=   4.
 NSaved= 4 IEnMin= 4 EnMin= -246.214069909899     IErMin= 4 ErrMin= 1.44D-07
 ErrMax= 1.44D-07  0.00D+00 EMaxC= 1.00D-01 BMatC= 7.00D-12 BMatP= 5.58D-10
 IDIUse=1 WtCom= 1.00D+00 WtEn= 0.00D+00
 Coeff-Com: -0.578D-02 0.203D-01 0.247D+00 0.739D+00
 Coeff:     -0.578D-02 0.203D-01 0.247D+00 0.739D+00
 Gap=     0.285 Goal=   None    Shift=    0.000
 RMSDP=1.98D-08 MaxDP=6.98D-07 DE=-4.35D-10 OVMax= 8.45D-07

 Cycle  11  Pass 1  IDiag  1:
 E= -246.214069909904     Delta-E=       -0.000000000005 Rises=F Damp=F
 DIIS: error= 5.57D-08 at cycle   5 NSaved=   5.
 NSaved= 5 IEnMin= 5 EnMin= -246.214069909904     IErMin= 5 ErrMin= 5.57D-08
 ErrMax= 5.57D-08  0.00D+00 EMaxC= 1.00D-01 BMatC= 1.27D-12 BMatP= 7.00D-12
 IDIUse=1 WtCom= 1.00D+00 WtEn= 0.00D+00
 Coeff-Com: -0.279D-02 0.754D-02 0.962D-01 0.377D+00 0.522D+00
 Coeff:     -0.279D-02 0.754D-02 0.962D-01 0.377D+00 0.522D+00
 Gap=     0.285 Goal=   None    Shift=    0.000
 RMSDP=6.72D-09 MaxDP=2.19D-07 DE=-5.40D-12 OVMax= 2.31D-07

 SCF Done:  E(RB3LYP) =  -246.214069910     A.U. after   11 cycles
            NFock= 11  Conv=0.67D-08     -V/T= 2.0057
 KE= 2.448242425224D+02 PE=-8.581598488849D+02 EE= 2.275225480626D+02
 Leave Link  502 at Fri Aug 26 08:56:31 2022, MaxMem= 24159191040 cpu:        37.3
 (Enter /public/home/users/caep010/software/Gaussian09/g09/l601.exe)
 Copying SCF densities to generalized density rwf, IOpCl= 0 IROHF=0.

 **********************************************************************

            Population analysis using the SCF density.

 **********************************************************************

 Orbital symmetries:
       Occupied  (A) (A) (A) (A) (A) (A) (A) (A) (A) (A) (A) (A)
                 (A) (A) (A) (A) (A)
       Virtual   (A) (A) (A) (A) (A) (A) (A) (A) (A) (A) (A) (A)
                 (A) (A) (A) (A) (A) (A) (A) (A) (A) (A) (A) (A)
                 (A) (A) (A) (A) (A) (A) (A) (A) (A) (A) (A) (A)
                 (A) (A) (A) (A) (A) (A) (A) (A) (A) (A) (A) (A)
                 (A) (A) (A) (A) (A) (A) (A) (A) (A) (A) (A) (A)
                 (A) (A) (A) (A) (A) (A) (A) (A) (A) (A) (A) (A)
                 (A) (A) (A) (A) (A) (A) (A) (A) (A) (A) (A) (A)
                 (A) (A) (A) (A) (A) (A) (A) (A) (A) (A) (A) (A)
                 (A) (A) (A) (A) (A) (A) (A) (A) (A) (A) (A) (A)
                 (A) (A) (A) (A) (A) (A) (A) (A) (A) (A) (A) (A)
 The electronic state is 1-A.
 Alpha  occ. eigenvalues --  -19.16127 -19.16125 -14.40823 -10.20183  -1.13311
 Alpha  occ. eigenvalues --   -1.00991  -0.79089  -0.64368  -0.53487  -0.51540
 Alpha  occ. eigenvalues --   -0.47048  -0.40359  -0.39063  -0.39051  -0.30923
 Alpha  occ. eigenvalues --   -0.28308  -0.22134
 Alpha virt. eigenvalues --    0.06336   0.09732   0.13078   0.15882   0.16534
 Alpha virt. eigenvalues --    0.17845   0.22185   0.24008   0.46384   0.52345
 Alpha virt. eigenvalues --    0.52406   0.55217   0.58781   0.59449   0.65164
 Alpha virt. eigenvalues --    0.67252   0.71223   0.72653   0.74900   0.81531
 Alpha virt. eigenvalues --    0.82093   0.83187   0.86623   0.88963   0.90163
 Alpha virt. eigenvalues --    0.90501   0.91671   0.97068   0.97729   1.03249
 Alpha virt. eigenvalues --    1.09057   1.14851   1.22704   1.31336   1.40911
 Alpha virt. eigenvalues --    1.44232   1.52626   1.55254   1.55409   1.61786
 Alpha virt. eigenvalues --    1.63025   1.65775   1.74839   1.76025   1.81793
 Alpha virt. eigenvalues --    1.93936   1.94253   1.95114   2.09283   2.27772
 Alpha virt. eigenvalues --    2.35040   2.42799   2.45221   2.52123   2.57273
 Alpha virt. eigenvalues --    2.62454   2.67796   2.80370   2.83085   2.85031
 Alpha virt. eigenvalues --    2.88753   2.90891   2.91921   2.96915   3.12076
 Alpha virt. eigenvalues --    3.30646   3.32117   3.40907   3.55632   3.58467
 Alpha virt. eigenvalues --    3.63625   3.70092   3.71480   3.74570   3.91976
 Alpha virt. eigenvalues --    3.98218   4.08188   4.11498   4.19253   4.20451
 Alpha virt. eigenvalues --    4.28487   4.32382   4.35740   4.39858   4.41800
 Alpha virt. eigenvalues --    4.48830   4.49675   4.52527   4.53151   4.66675
 Alpha virt. eigenvalues --    4.69676   4.74199   4.78862   4.78988   4.87747
 Alpha virt. eigenvalues --    5.00685   5.04361   5.18368   5.29253   5.31452
 Alpha virt. eigenvalues --    5.34240   5.36624   5.41046   5.48409   5.50254
 Alpha virt. eigenvalues --    5.60745   5.63003   5.90049   6.02756   6.07979
 Alpha virt. eigenvalues --    6.12505   6.21194   6.27321   7.06555   7.08992
 Alpha virt. eigenvalues --   10.19878  11.38845  11.87665  13.23732  13.45374
          Condensed to atoms (all electrons):
               1          2          3          4          5          6
     1  C    4.897636   0.400072  -0.076450  -0.076446   0.365540   0.365773
     2  N    0.400072   6.382360   0.201348   0.201333  -0.044259  -0.022668
     3  O   -0.076450   0.201348   8.009082  -0.082489   0.005240   0.005035
     4  O   -0.076446   0.201333  -0.082489   8.009105   0.005239   0.003550
     5  H    0.365540  -0.044259   0.005240   0.005239   0.615351  -0.031777
     6  H    0.365773  -0.022668   0.005035   0.003550  -0.031777   0.587196
     7  H    0.365785  -0.022662   0.003550   0.005034  -0.031781  -0.027934
     8  H    0.005133  -0.057832   0.294906   0.005873  -0.000496  -0.000169
     9  H    0.005132  -0.057808   0.005872   0.294924  -0.000496  -0.000423
               7          8          9
     1  C    0.365785   0.005133   0.005132
     2  N   -0.022662  -0.057832  -0.057808
     3  O    0.003550   0.294906   0.005872
     4  O    0.005034   0.005873   0.294924
     5  H   -0.031781  -0.000496  -0.000496
     6  H   -0.027934  -0.000169  -0.000423
     7  H    0.587170  -0.000423  -0.000169
     8  H   -0.000423   0.451333  -0.000330
     9  H   -0.000169  -0.000330   0.451312
 Mulliken charges:
               1
     1  C   -0.252176
     2  N    0.020117
     3  O   -0.366093
     4  O   -0.366123
     5  H    0.117438
     6  H    0.121417
     7  H    0.121429
     8  H    0.302006
     9  H    0.301985
 Sum of Mulliken charges =  -0.00000
 Mulliken charges with hydrogens summed into heavy atoms:
               1
     1  C    0.108108
     2  N    0.020117
     3  O   -0.064088
     4  O   -0.064138
 Electronic spatial extent (au):  <R**2>=            256.6274
 Charge=             -0.0000 electrons
 Dipole moment (field-independent basis, Debye):
    X=              0.1033    Y=              0.0001    Z=             -1.9060  Tot=              1.9088
 Quadrupole moment (field-independent basis, Debye-Ang):
   XX=            -21.0563   YY=            -21.3753   ZZ=            -24.3784
   XY=              0.0003   XZ=             -2.7220   YZ=             -0.0004
 Traceless Quadrupole moment (field-independent basis, Debye-Ang):
   XX=              1.2137   YY=              0.8947   ZZ=             -2.1084
   XY=              0.0003   XZ=             -2.7220   YZ=             -0.0004
 Octapole moment (field-independent basis, Debye-Ang**2):
  XXX=              8.1426  YYY=              0.0024  ZZZ=              1.0792  XYY=              7.6935
  XXY=             -0.0012  XXZ=             -3.7792  XZZ=              3.0033  YZZ=              0.0005
  YYZ=             -6.9105  XYZ=              0.0003
 Hexadecapole moment (field-independent basis, Debye-Ang**3):
 XXXX=           -145.4924 YYYY=           -104.3986 ZZZZ=            -37.0230 XXXY=             -0.0038
 XXXZ=             -2.5848 YYYX=              0.0006 YYYZ=             -0.0019 ZZZX=             -1.9958
 ZZZY=             -0.0002 XXYY=            -34.0723 XXZZ=            -29.5196 YYZZ=            -23.1137
 XXYZ=              0.0010 YYXZ=             -5.3554 ZZXY=             -0.0002
 N-N= 1.395989883899D+02 E-N=-8.581598544753D+02  KE= 2.448242425224D+02
 No NMR shielding tensors so no spin-rotation constants.
 Leave Link  601 at Fri Aug 26 08:56:32 2022, MaxMem= 24159191040 cpu:        12.8
 (Enter /public/home/users/caep010/software/Gaussian09/g09/l701.exe)
 Compute integral first derivatives.
 ... and contract with generalized density number  0.
 Leave Link  701 at Fri Aug 26 08:56:32 2022, MaxMem= 24159191040 cpu:        13.8
 (Enter /public/home/users/caep010/software/Gaussian09/g09/l702.exe)
 L702 exits ... SP integral derivatives will be done elsewhere.
 Leave Link  702 at Fri Aug 26 08:56:32 2022, MaxMem= 24159191040 cpu:         0.5
 (Enter /public/home/users/caep010/software/Gaussian09/g09/l703.exe)
 Compute integral first derivatives, UseDBF=F ICtDFT=           0.
 Integral derivatives from FoFJK, PRISM(SPDF).
 Calling FoFJK, ICntrl=      2127 FMM=F ISym2X=0 I1Cent= 0 IOpClX= 0 NMat=1 NMatS=1 NMatT=0.
 FoFJK:  IHMeth= 1 ICntrl=    2127 DoSepK=F KAlg= 0 I1Cent=   0 FoldK=F
 IRaf=         0 NMat=   1 IRICut=       1 DoRegI=T DoRafI=F ISym2E= 0.
 FoFCou: FMM=F IPFlag=           0 FMFlag=      100000 FMFlg1=         800
         NFxFlg=           0 DoJE=F BraDBF=F KetDBF=F FulRan=T
         wScrn=  0.000000 ICntrl=    2127 IOpCl=  0 I1Cent=           0 NGrid=           0
         NMat0=    1 NMatS0=      1 NMatT0=    0 NMatD0=    1 NMtDS0=    0 NMtDT0=    0
 Symmetry not used in FoFCou.
 Leave Link  703 at Fri Aug 26 08:56:33 2022, MaxMem= 24159191040 cpu:        21.1
 (Enter /public/home/users/caep010/software/Gaussian09/g09/l716.exe)
 Dipole        = 4.06601100D-02 3.64055571D-05-7.49873390D-01
 ***** Axes restored to original set *****
 -------------------------------------------------------------------
 Center     Atomic                   Forces (Hartrees/Bohr)
 Number     Number              X              Y              Z
 -------------------------------------------------------------------
      1        6          -0.011166118   -0.008257397   -0.005924601
      2        7          -0.042227824   -0.000723453    0.040650231
      3        8           0.044489419   -0.030800631    0.020576674
      4        8           0.003657301    0.054033389   -0.020233057
      5        1          -0.001410550    0.002827193    0.007298521
      6        1           0.004588597    0.009201909   -0.006893172
      7        1           0.011344087   -0.004872182   -0.000118813
      8        1          -0.009200530   -0.001242999   -0.022260855
      9        1          -0.000074382   -0.020165829   -0.013094928
 -------------------------------------------------------------------
 Cartesian Forces:  Max     0.054033389 RMS     0.020982082
 Leave Link  716 at Fri Aug 26 08:56:33 2022, MaxMem= 24159191040 cpu:         0.7
 (Enter /public/home/users/caep010/software/Gaussian09/g09/l103.exe)

 GradGradGradGradGradGradGradGradGradGradGradGradGradGradGradGradGradGrad
 Berny optimization.
 FormGI is forming the generalized inverse of G from B-inverse, IUseBI=4.
 Internal  Forces:  Max     0.047580239 RMS     0.014593574
 Search for a local minimum.
 Step number   1 out of a maximum of   39
 All quantities printed in internal units (Hartrees-Bohrs-Radians)
 RMS Force = .14594D-01 SwitMx=.10000D-02 MixMth= 1
 Mixed Optimization -- RFO/linear search
 Second derivative matrix not updated -- first step.
 ITU=  0
     Eigenvalues ---    0.00895   0.01879   0.01880   0.06023   0.07388
     Eigenvalues ---    0.07574   0.16000   0.16000   0.16000   0.16000
     Eigenvalues ---    0.16000   0.18563   0.20744   0.32288   0.32496
     Eigenvalues ---    0.32503   0.36935   0.49293   0.49311   0.53795
     Eigenvalues ---    0.53809
 RFO step:  Lambda=-1.26692418D-02 EMin= 8.95049080D-03
 Linear search not attempted -- first point.
 Iteration  1 RMS(Cart)=  0.03346984 RMS(Int)=  0.00080376
 Iteration  2 RMS(Cart)=  0.00105855 RMS(Int)=  0.00018630
 Iteration  3 RMS(Cart)=  0.00000082 RMS(Int)=  0.00018630
 ITry= 1 IFail=0 DXMaxC= 6.93D-02 DCOld= 1.00D+10 DXMaxT= 3.00D-01 DXLimC= 3.00D+00 Rises=F
 Variable       Old X    -DE/DX   Delta X   Delta X   Delta X     New X
                                 (Linear)    (Quad)   (Total)
    R1        2.75944  -0.00066   0.00000  -0.00173  -0.00173   2.75770
    R2        2.10319  -0.00793   0.00000  -0.02363  -0.02363   2.07956
    R3        2.09945  -0.01204   0.00000  -0.03565  -0.03565   2.06380
    R4        2.09933  -0.01200   0.00000  -0.03554  -0.03554   2.06379
    R5        2.56206   0.04758   0.00000   0.08639   0.08639   2.64845
    R6        2.56218   0.04753   0.00000   0.08633   0.08633   2.64851
    R7        1.87285  -0.02404   0.00000  -0.04755  -0.04755   1.82531
    R8        1.87267  -0.02396   0.00000  -0.04738  -0.04738   1.82529
    A1        1.93557   0.00225   0.00000   0.01367   0.01373   1.94929
    A2        1.91507  -0.00367   0.00000  -0.02159  -0.02168   1.89339
    A3        1.91519  -0.00369   0.00000  -0.02169  -0.02178   1.89341
    A4        1.90461   0.00092   0.00000   0.00600   0.00606   1.91067
    A5        1.90463   0.00093   0.00000   0.00600   0.00606   1.91069
    A6        1.88807   0.00335   0.00000   0.01804   0.01778   1.90585
    A7        1.87722  -0.00452   0.00000  -0.02783  -0.02791   1.84930
    A8        1.87719  -0.00452   0.00000  -0.02783  -0.02792   1.84928
    A9        1.86418   0.00428   0.00000   0.01360   0.01294   1.87712
   A10        1.82643   0.00159   0.00000   0.00919   0.00919   1.83562
   A11        1.82653   0.00156   0.00000   0.00902   0.00902   1.83555
    D1       -1.00110  -0.00025   0.00000   0.00585   0.00562  -0.99548
    D2        1.00119   0.00024   0.00000  -0.00588  -0.00565   0.99554
    D3        1.10431  -0.00006   0.00000   0.00795   0.00759   1.11190
    D4        3.10660   0.00043   0.00000  -0.00378  -0.00368   3.10292
    D5       -3.10661  -0.00043   0.00000   0.00380   0.00371  -3.10290
    D6       -1.10432   0.00006   0.00000  -0.00793  -0.00756  -1.11188
    D7       -2.23467  -0.00427   0.00000  -0.07091  -0.07105  -2.30572
    D8        2.03758   0.00103   0.00000  -0.03202  -0.03188   2.00570
    D9        2.23457   0.00427   0.00000   0.07090   0.07104   2.30561
   D10       -2.03767  -0.00103   0.00000   0.03202   0.03188  -2.00579
         Item               Value     Threshold  Converged?
 Maximum Force            0.047580     0.000450     NO 
 RMS     Force            0.014594     0.000300     NO 
 Maximum Displacement     0.069279     0.001800     NO 
 RMS     Displacement     0.033652     0.001200     NO 
 Predicted change in Energy=-6.577509D-03
 Lowest energy point so far.  Saving SCF results.
 GradGradGradGradGradGradGradGradGradGradGradGradGradGradGradGradGradGrad

 Leave Link  103 at Fri Aug 26 08:56:33 2022, MaxMem= 24159191040 cpu:         2.9
 (Enter /public/home/users/caep010/software/Gaussian09/g09/l202.exe)
                          Input orientation:                          
 ---------------------------------------------------------------------
 Center     Atomic      Atomic             Coordinates (Angstroms)
 Number     Number       Type             X           Y           Z
 ---------------------------------------------------------------------
      1          6           0       -0.897787   -0.488226   -0.118129
      2          7           0        0.270074    0.276942    0.306385
      3          8           0        1.356997   -0.604461    0.229407
      4          8           0        0.458012    1.265903   -0.668772
      5          1           0       -0.764196   -0.908248   -1.126464
      6          1           0       -1.058652   -1.299019    0.595632
      7          1           0       -1.766473    0.173625   -0.111552
      8          1           0        1.823865   -0.504059    1.069012
      9          1           0        0.578061    2.087644   -0.175520
 ---------------------------------------------------------------------
                    Distance matrix (angstroms):
                    1          2          3          4          5
     1  C    0.000000
     2  N    1.459313   0.000000
     3  O    2.284369   1.401498   0.000000
     4  O    2.284374   1.401533   2.261229   0.000000
     5  H    1.100456   2.127779   2.535770   2.535785   0.000000
     6  H    1.092117   2.081546   2.540057   3.236945   1.790257
     7  H    1.092111   2.081555   3.236933   2.540059   1.790266
     8  H    2.969334   1.898902   0.965911   2.831645   3.417827
     9  H    2.969263   1.898876   2.831631   0.965903   3.417794
                    6          7          8          9
     6  H    0.000000
     7  H    1.780394   0.000000
     8  H    3.027367   3.839728   0.000000
     9  H    3.839660   3.027276   3.133339   0.000000
 Stoichiometry    CH5NO2
 Framework group  C1[X(CH5NO2)]
 Deg. of freedom    21
 Full point group                 C1      NOp   1
 RotChk:  IX=3 Diff= 9.36D-03
 Largest Abelian subgroup         C1      NOp   1
 Largest concise Abelian subgroup C1      NOp   1
                         Standard orientation:                         
 ---------------------------------------------------------------------
 Center     Atomic      Atomic             Coordinates (Angstroms)
 Number     Number       Type             X           Y           Z
 ---------------------------------------------------------------------
      1          6           0       -1.331615    0.000061    0.043820
      2          7           0        0.061322    0.000011   -0.391290
      3          8           0        0.647736    1.130578    0.193633
      4          8           0        0.647630   -1.130651    0.193637
      5          1           0       -1.414876    0.000078    1.141121
      6          1           0       -1.819944    0.890284   -0.358370
      7          1           0       -1.820026   -0.890110   -0.358369
      8          1           0        1.126302    1.566616   -0.523186
      9          1           0        1.126057   -1.566723   -0.523242
 ---------------------------------------------------------------------
 Rotational constants (GHZ):      9.8394717      9.5591721      5.4127832
 Leave Link  202 at Fri Aug 26 08:56:33 2022, MaxMem= 24159191040 cpu:         0.2
 (Enter /public/home/users/caep010/software/Gaussian09/g09/l301.exe)
 Standard basis: GTBas3 (6D, 7F)
 Ernie: Thresh=  0.10000D-02 Tol=  0.10000D-05 Strict=F.
 There are   149 symmetry adapted cartesian basis functions of A   symmetry.
 There are   137 symmetry adapted basis functions of A   symmetry.
   137 basis functions,   211 primitive gaussians,   149 cartesian basis functions
    17 alpha electrons       17 beta electrons
       nuclear repulsion energy       137.8101481899 Hartrees.
 IExCor=  402 DFT=T Ex+Corr=B3LYP ExCW=0 ScaHFX=  0.200000
 ScaDFX=  0.800000  0.720000  1.000000  0.810000 ScalE2=  1.000000  1.000000
 IRadAn=      0 IRanWt=     -1 IRanGd=            0 ICorTp=0 IEmpDi=  4
 NAtoms=    9 NActive=    9 NUniq=    9 SFac= 1.00D+00 NAtFMM=   60 NAOKFM=F Big=F
 Integral buffers will be    131072 words long.
 Raffenetti 2 integral format.
 Two-electron integral symmetry is turned on.
 Leave Link  301 at Fri Aug 26 08:56:33 2022, MaxMem= 24159191040 cpu:         1.5
 (Enter /public/home/users/caep010/software/Gaussian09/g09/l302.exe)
 NPDir=0 NMtPBC=     1 NCelOv=     1 NCel=       1 NClECP=     1 NCelD=      1
         NCelK=      1 NCelE2=     1 NClLst=     1 CellRange=     0.0.
 One-electron integrals computed using PRISM.
 NBasis=   137 RedAO= T EigKep=  5.28D-04  NBF=   137
 NBsUse=   137 1.00D-06 EigRej= -1.00D+00 NBFU=   137
 Precomputing XC quadrature grid using
 IXCGrd= 4 IRadAn=           0 IRanWt=          -1 IRanGd=           0 AccXCQ= 0.00D+00.
 Generated NRdTot=       0 NPtTot=           0 NUsed=           0 NTot=          32
 NSgBfM=   149   149   149   149   149 MxSgAt=     9 MxSgA2=     9.
 Leave Link  302 at Fri Aug 26 08:56:34 2022, MaxMem= 24159191040 cpu:        14.2
 (Enter /public/home/users/caep010/software/Gaussian09/g09/l303.exe)
 DipDrv:  MaxL=1.
 Leave Link  303 at Fri Aug 26 08:56:34 2022, MaxMem= 24159191040 cpu:         0.6
 (Enter /public/home/users/caep010/software/Gaussian09/g09/l401.exe)
 Initial guess from the checkpoint file:  "G4.Frag_793.chk"
 B after Tr=    -0.000000    0.000000    0.000000
         Rot=    1.000000    0.000002    0.000872    0.000094 Ang=   0.10 deg.
 Guess basis will be translated and rotated to current coordinates.
 JPrj=2 DoOrth=T DoCkMO=T.
 Generating alternative initial guess.
 ExpMin= 1.61D-01 ExpMax= 5.48D+03 ExpMxC= 8.25D+02 IAcc=1 IRadAn=         1 AccDes= 0.00D+00
 Harris functional with IExCor=  402 and IRadAn=       1 diagonalized for initial guess.
 HarFok:  IExCor=  402 AccDes= 0.00D+00 IRadAn=         1 IDoV= 1 UseB2=F ITyADJ=14
 ICtDFT=  3500011 ScaDFX=  1.000000  1.000000  1.000000  1.000000
 FoFCou: FMM=F IPFlag=           0 FMFlag=      100000 FMFlg1=           0
         NFxFlg=           0 DoJE=T BraDBF=F KetDBF=T FulRan=T
         wScrn=  0.000000 ICntrl=     500 IOpCl=  0 I1Cent=   200000004 NGrid=           0
         NMat0=    1 NMatS0=      1 NMatT0=    0 NMatD0=    1 NMtDS0=    0 NMtDT0=    0
 Petite list used in FoFCou.
 Harris En= -246.246735187601    
 Leave Link  401 at Fri Aug 26 08:56:35 2022, MaxMem= 24159191040 cpu:        14.2
 (Enter /public/home/users/caep010/software/Gaussian09/g09/l502.exe)
 Closed shell SCF:
 Using DIIS extrapolation, IDIIS=  1040.
 Integral symmetry usage will be decided dynamically.
 Keep R1 ints in memory in canonical form, NReq=46768580.
 IVT=       91009 IEndB=       91009 NGot= 24159191040 MDV= 24114415701
 LenX= 24114415701 LenY= 24114393059
 Requested convergence on RMS density matrix=1.00D-08 within 128 cycles.
 Requested convergence on MAX density matrix=1.00D-06.
 Requested convergence on             energy=1.00D-06.
 No special actions if energy rises.
 FoFCou: FMM=F IPFlag=           0 FMFlag=           0 FMFlg1=           0
         NFxFlg=           0 DoJE=F BraDBF=F KetDBF=F FulRan=T
         wScrn=  0.000000 ICntrl=     600 IOpCl=  0 I1Cent=           0 NGrid=           0
         NMat0=    1 NMatS0=   9453 NMatT0=    0 NMatD0=    1 NMtDS0=    0 NMtDT0=    0
 Symmetry not used in FoFCou.
 Integral accuracy reduced to 1.0D-05 until final iterations.

 Cycle   1  Pass 0  IDiag  1:
 E= -246.217747706348    
 DIIS: error= 3.58D-03 at cycle   1 NSaved=   1.
 NSaved= 1 IEnMin= 1 EnMin= -246.217747706348     IErMin= 1 ErrMin= 3.58D-03
 ErrMax= 3.58D-03  0.00D+00 EMaxC= 1.00D-01 BMatC= 3.20D-03 BMatP= 3.20D-03
 IDIUse=3 WtCom= 9.64D-01 WtEn= 3.58D-02
 Coeff-Com:  0.100D+01
 Coeff-En:   0.100D+01
 Coeff:      0.100D+01
 Gap=     1.238 Goal=   None    Shift=    0.000
 GapD=    1.238 DampG=2.000 DampE=1.000 DampFc=2.0000 IDamp=-1.
 RMSDP=6.68D-04 MaxDP=1.71D-02              OVMax= 2.37D-02

 Cycle   2  Pass 0  IDiag  1:
 E= -246.221367747773     Delta-E=       -0.003620041426 Rises=F Damp=F
 DIIS: error= 1.38D-03 at cycle   2 NSaved=   2.
 NSaved= 2 IEnMin= 2 EnMin= -246.221367747773     IErMin= 2 ErrMin= 1.38D-03
 ErrMax= 1.38D-03  0.00D+00 EMaxC= 1.00D-01 BMatC= 3.18D-04 BMatP= 3.20D-03
 IDIUse=3 WtCom= 9.86D-01 WtEn= 1.38D-02
 Coeff-Com:  0.108D+00 0.892D+00
 Coeff-En:   0.000D+00 0.100D+01
 Coeff:      0.106D+00 0.894D+00
 Gap=     0.304 Goal=   None    Shift=    0.000
 RMSDP=2.03D-04 MaxDP=6.07D-03 DE=-3.62D-03 OVMax= 6.97D-03

 Cycle   3  Pass 0  IDiag  1:
 E= -246.221234650312     Delta-E=        0.000133097461 Rises=F Damp=F
 DIIS: error= 1.63D-03 at cycle   3 NSaved=   3.
 NSaved= 3 IEnMin= 2 EnMin= -246.221367747773     IErMin= 2 ErrMin= 1.38D-03
 ErrMax= 1.63D-03  0.00D+00 EMaxC= 1.00D-01 BMatC= 5.38D-04 BMatP= 3.18D-04
 IDIUse=3 WtCom= 1.98D-01 WtEn= 8.02D-01
 Coeff-Com: -0.216D-01 0.575D+00 0.447D+00
 Coeff-En:   0.000D+00 0.592D+00 0.408D+00
 Coeff:     -0.429D-02 0.589D+00 0.415D+00
 Gap=     0.302 Goal=   None    Shift=    0.000
 RMSDP=1.06D-04 MaxDP=4.41D-03 DE= 1.33D-04 OVMax= 4.45D-03

 Cycle   4  Pass 0  IDiag  1:
 E= -246.221619253876     Delta-E=       -0.000384603564 Rises=F Damp=F
 DIIS: error= 2.25D-04 at cycle   4 NSaved=   4.
 NSaved= 4 IEnMin= 4 EnMin= -246.221619253876     IErMin= 4 ErrMin= 2.25D-04
 ErrMax= 2.25D-04  0.00D+00 EMaxC= 1.00D-01 BMatC= 4.48D-06 BMatP= 3.18D-04
 IDIUse=3 WtCom= 9.98D-01 WtEn= 2.25D-03
 Coeff-Com: -0.130D-01 0.200D+00 0.151D+00 0.661D+00
 Coeff-En:   0.000D+00 0.000D+00 0.000D+00 0.100D+01
 Coeff:     -0.130D-01 0.200D+00 0.151D+00 0.662D+00
 Gap=     0.302 Goal=   None    Shift=    0.000
 RMSDP=1.82D-05 MaxDP=6.99D-04 DE=-3.85D-04 OVMax= 7.85D-04

 Cycle   5  Pass 0  IDiag  1:
 E= -246.221622826529     Delta-E=       -0.000003572653 Rises=F Damp=F
 DIIS: error= 9.06D-05 at cycle   5 NSaved=   5.
 NSaved= 5 IEnMin= 5 EnMin= -246.221622826529     IErMin= 5 ErrMin= 9.06D-05
 ErrMax= 9.06D-05  0.00D+00 EMaxC= 1.00D-01 BMatC= 8.10D-07 BMatP= 4.48D-06
 IDIUse=1 WtCom= 1.00D+00 WtEn= 0.00D+00
 Coeff-Com: -0.285D-02 0.206D-01 0.134D-01 0.305D+00 0.663D+00
 Coeff:     -0.285D-02 0.206D-01 0.134D-01 0.305D+00 0.663D+00
 Gap=     0.302 Goal=   None    Shift=    0.000
 RMSDP=6.70D-06 MaxDP=2.09D-04 DE=-3.57D-06 OVMax= 2.34D-04

 Initial convergence to 1.0D-05 achieved.  Increase integral accuracy.
 Cycle   6  Pass 1  IDiag  1:
 E= -246.221611479537     Delta-E=        0.000011346992 Rises=F Damp=F
 DIIS: error= 1.28D-05 at cycle   1 NSaved=   1.
 NSaved= 1 IEnMin= 1 EnMin= -246.221611479537     IErMin= 1 ErrMin= 1.28D-05
 ErrMax= 1.28D-05  0.00D+00 EMaxC= 1.00D-01 BMatC= 5.01D-08 BMatP= 5.01D-08
 IDIUse=1 WtCom= 1.00D+00 WtEn= 0.00D+00
 Coeff-Com:  0.100D+01
 Coeff:      0.100D+01
 Gap=     0.302 Goal=   None    Shift=    0.000
 RMSDP=6.70D-06 MaxDP=2.09D-04 DE= 1.13D-05 OVMax= 7.82D-05

 Cycle   7  Pass 1  IDiag  1:
 E= -246.221611488448     Delta-E=       -0.000000008910 Rises=F Damp=F
 DIIS: error= 1.13D-05 at cycle   2 NSaved=   2.
 NSaved= 2 IEnMin= 2 EnMin= -246.221611488448     IErMin= 2 ErrMin= 1.13D-05
 ErrMax= 1.13D-05  0.00D+00 EMaxC= 1.00D-01 BMatC= 3.69D-08 BMatP= 5.01D-08
 IDIUse=1 WtCom= 1.00D+00 WtEn= 0.00D+00
 Coeff-Com:  0.457D+00 0.543D+00
 Coeff:      0.457D+00 0.543D+00
 Gap=     0.302 Goal=   None    Shift=    0.000
 RMSDP=1.40D-06 MaxDP=3.41D-05 DE=-8.91D-09 OVMax= 4.66D-05

 Cycle   8  Pass 1  IDiag  1:
 E= -246.221611516509     Delta-E=       -0.000000028061 Rises=F Damp=F
 DIIS: error= 2.86D-06 at cycle   3 NSaved=   3.
 NSaved= 3 IEnMin= 3 EnMin= -246.221611516509     IErMin= 3 ErrMin= 2.86D-06
 ErrMax= 2.86D-06  0.00D+00 EMaxC= 1.00D-01 BMatC= 2.19D-09 BMatP= 3.69D-08
 IDIUse=1 WtCom= 1.00D+00 WtEn= 0.00D+00
 Coeff-Com:  0.782D-01 0.218D+00 0.704D+00
 Coeff:      0.782D-01 0.218D+00 0.704D+00
 Gap=     0.302 Goal=   None    Shift=    0.000
 RMSDP=3.14D-07 MaxDP=7.79D-06 DE=-2.81D-08 OVMax= 9.92D-06

 Cycle   9  Pass 1  IDiag  1:
 E= -246.221611518070     Delta-E=       -0.000000001561 Rises=F Damp=F
 DIIS: error= 1.02D-06 at cycle   4 NSaved=   4.
 NSaved= 4 IEnMin= 4 EnMin= -246.221611518070     IErMin= 4 ErrMin= 1.02D-06
 ErrMax= 1.02D-06  0.00D+00 EMaxC= 1.00D-01 BMatC= 2.53D-10 BMatP= 2.19D-09
 IDIUse=1 WtCom= 1.00D+00 WtEn= 0.00D+00
 Coeff-Com: -0.358D-03 0.584D-01 0.332D+00 0.610D+00
 Coeff:     -0.358D-03 0.584D-01 0.332D+00 0.610D+00
 Gap=     0.302 Goal=   None    Shift=    0.000
 RMSDP=1.00D-07 MaxDP=3.66D-06 DE=-1.56D-09 OVMax= 3.85D-06

 Cycle  10  Pass 1  IDiag  1:
 E= -246.221611518236     Delta-E=       -0.000000000165 Rises=F Damp=F
 DIIS: error= 5.16D-07 at cycle   5 NSaved=   5.
 NSaved= 5 IEnMin= 5 EnMin= -246.221611518236     IErMin= 5 ErrMin= 5.16D-07
 ErrMax= 5.16D-07  0.00D+00 EMaxC= 1.00D-01 BMatC= 5.11D-11 BMatP= 2.53D-10
 IDIUse=1 WtCom= 1.00D+00 WtEn= 0.00D+00
 Coeff-Com: -0.606D-02 0.223D-01 0.164D+00 0.385D+00 0.435D+00
 Coeff:     -0.606D-02 0.223D-01 0.164D+00 0.385D+00 0.435D+00
 Gap=     0.302 Goal=   None    Shift=    0.000
 RMSDP=3.32D-08 MaxDP=1.26D-06 DE=-1.65D-10 OVMax= 1.24D-06

 Cycle  11  Pass 1  IDiag  1:
 E= -246.221611518267     Delta-E=       -0.000000000032 Rises=F Damp=F
 DIIS: error= 2.18D-08 at cycle   6 NSaved=   6.
 NSaved= 6 IEnMin= 6 EnMin= -246.221611518267     IErMin= 6 ErrMin= 2.18D-08
 ErrMax= 2.18D-08  0.00D+00 EMaxC= 1.00D-01 BMatC= 8.91D-14 BMatP= 5.11D-11
 IDIUse=1 WtCom= 1.00D+00 WtEn= 0.00D+00
 Coeff-Com: -0.894D-03 0.186D-02 0.137D-01 0.344D-01 0.384D-01 0.912D+00
 Coeff:     -0.894D-03 0.186D-02 0.137D-01 0.344D-01 0.384D-01 0.912D+00
 Gap=     0.302 Goal=   None    Shift=    0.000
 RMSDP=4.36D-09 MaxDP=1.57D-07 DE=-3.17D-11 OVMax= 2.14D-07

 SCF Done:  E(RB3LYP) =  -246.221611518     A.U. after   11 cycles
            NFock= 11  Conv=0.44D-08     -V/T= 2.0058
 KE= 2.447926729522D+02 PE=-8.545925117878D+02 EE= 2.257680791275D+02
 Leave Link  502 at Fri Aug 26 08:56:37 2022, MaxMem= 24159191040 cpu:        38.2
 (Enter /public/home/users/caep010/software/Gaussian09/g09/l701.exe)
 Compute integral first derivatives.
 ... and contract with generalized density number  0.
 Leave Link  701 at Fri Aug 26 08:56:37 2022, MaxMem= 24159191040 cpu:        13.6
 (Enter /public/home/users/caep010/software/Gaussian09/g09/l702.exe)
 L702 exits ... SP integral derivatives will be done elsewhere.
 Leave Link  702 at Fri Aug 26 08:56:37 2022, MaxMem= 24159191040 cpu:         0.5
 (Enter /public/home/users/caep010/software/Gaussian09/g09/l703.exe)
 Compute integral first derivatives, UseDBF=F ICtDFT=           0.
 Integral derivatives from FoFJK, PRISM(SPDF).
 Calling FoFJK, ICntrl=      2127 FMM=F ISym2X=0 I1Cent= 0 IOpClX= 0 NMat=1 NMatS=1 NMatT=0.
 FoFJK:  IHMeth= 1 ICntrl=    2127 DoSepK=F KAlg= 0 I1Cent=   0 FoldK=F
 IRaf=         0 NMat=   1 IRICut=       1 DoRegI=T DoRafI=F ISym2E= 0.
 FoFCou: FMM=F IPFlag=           0 FMFlag=      100000 FMFlg1=         800
         NFxFlg=           0 DoJE=F BraDBF=F KetDBF=F FulRan=T
         wScrn=  0.000000 ICntrl=    2127 IOpCl=  0 I1Cent=           0 NGrid=           0
         NMat0=    1 NMatS0=      1 NMatT0=    0 NMatD0=    1 NMtDS0=    0 NMtDT0=    0
 Symmetry not used in FoFCou.
 Leave Link  703 at Fri Aug 26 08:56:38 2022, MaxMem= 24159191040 cpu:        21.2
 (Enter /public/home/users/caep010/software/Gaussian09/g09/l716.exe)
 Dipole        = 4.29282017D-02 3.86938522D-05-7.04427505D-01
 ***** Axes restored to original set *****
 -------------------------------------------------------------------
 Center     Atomic                   Forces (Hartrees/Bohr)
 Number     Number              X              Y              Z
 -------------------------------------------------------------------
      1        6          -0.000901521   -0.002448827   -0.004178050
      2        7          -0.013825581    0.003297172    0.020678445
      3        8           0.011003901   -0.010284690   -0.004796334
      4        8           0.002275705    0.007861417   -0.013503077
      5        1           0.000334692    0.000765490    0.001256212
      6        1           0.001086654    0.000396877   -0.000004041
      7        1           0.001004259    0.000568652   -0.000085754
      8        1          -0.002401843    0.003894515   -0.001592834
      9        1           0.001423735   -0.004050606    0.002225435
 -------------------------------------------------------------------
 Cartesian Forces:  Max     0.020678445 RMS     0.006680194
 Leave Link  716 at Fri Aug 26 08:56:38 2022, MaxMem= 24159191040 cpu:         0.6
 (Enter /public/home/users/caep010/software/Gaussian09/g09/l103.exe)

 GradGradGradGradGradGradGradGradGradGradGradGradGradGradGradGradGradGrad
 Berny optimization.
 Using GEDIIS/GDIIS optimizer.
 FormGI is forming the generalized inverse of G from B-inverse, IUseBI=4.
 Internal  Forces:  Max     0.011041491 RMS     0.003789438
 Search for a local minimum.
 Step number   2 out of a maximum of   39
 All quantities printed in internal units (Hartrees-Bohrs-Radians)
 RMS Force = .37894D-02 SwitMx=.10000D-02 MixMth= 1
 Mixed Optimization -- RFO/linear search
 Update second derivatives using D2CorX and points    1    2
 DE= -7.54D-03 DEPred=-6.58D-03 R= 1.15D+00
 TightC=F SS=  1.41D+00  RLast= 1.96D-01 DXNew= 5.0454D-01 5.8684D-01
 Trust test= 1.15D+00 RLast= 1.96D-01 DXMaxT set to 5.05D-01
 ITU=  1  0
 Use linear search instead of GDIIS.
     Eigenvalues ---    0.00895   0.01786   0.01879   0.06119   0.07393
     Eigenvalues ---    0.07780   0.15260   0.16000   0.16000   0.16000
     Eigenvalues ---    0.16389   0.18725   0.20716   0.32240   0.32500
     Eigenvalues ---    0.33187   0.36937   0.46087   0.49302   0.50663
     Eigenvalues ---    0.53802
 RFO step:  Lambda=-3.17058554D-03 EMin= 8.95049080D-03
 Quartic linear search produced a step of  0.29164.
 Iteration  1 RMS(Cart)=  0.05952905 RMS(Int)=  0.00379587
 Iteration  2 RMS(Cart)=  0.00379683 RMS(Int)=  0.00056420
 Iteration  3 RMS(Cart)=  0.00000135 RMS(Int)=  0.00056420
 Iteration  4 RMS(Cart)=  0.00000000 RMS(Int)=  0.00056420
 ITry= 1 IFail=0 DXMaxC= 1.73D-01 DCOld= 1.00D+10 DXMaxT= 5.05D-01 DXLimC= 3.00D+00 Rises=F
 Variable       Old X    -DE/DX   Delta X   Delta X   Delta X     New X
                                 (Linear)    (Quad)   (Total)
    R1        2.75770   0.00003  -0.00051   0.00023  -0.00027   2.75743
    R2        2.07956  -0.00140  -0.00689  -0.00390  -0.01080   2.06876
    R3        2.06380  -0.00046  -0.01040   0.00065  -0.00975   2.05405
    R4        2.06379  -0.00045  -0.01036   0.00065  -0.00972   2.05407
    R5        2.64845   0.01104   0.02519   0.01987   0.04506   2.69351
    R6        2.64851   0.01103   0.02518   0.01986   0.04503   2.69355
    R7        1.82531  -0.00214  -0.01387  -0.00211  -0.01597   1.80933
    R8        1.82529  -0.00213  -0.01382  -0.00210  -0.01592   1.80938
    A1        1.94929  -0.00046   0.00400  -0.00512  -0.00113   1.94817
    A2        1.89339  -0.00107  -0.00632  -0.00685  -0.01325   1.88014
    A3        1.89341  -0.00108  -0.00635  -0.00688  -0.01330   1.88011
    A4        1.91067   0.00069   0.00177   0.00436   0.00612   1.91679
    A5        1.91069   0.00069   0.00177   0.00434   0.00610   1.91679
    A6        1.90585   0.00126   0.00519   0.01036   0.01539   1.92124
    A7        1.84930  -0.00054  -0.00814  -0.01926  -0.02879   1.82051
    A8        1.84928  -0.00053  -0.00814  -0.01922  -0.02876   1.82052
    A9        1.87712  -0.00343   0.00378  -0.05321  -0.05104   1.82608
   A10        1.83562  -0.00693   0.00268  -0.05493  -0.05225   1.78337
   A11        1.83555  -0.00692   0.00263  -0.05482  -0.05219   1.78336
    D1       -0.99548   0.00217   0.00164   0.03852   0.03982  -0.95566
    D2        0.99554  -0.00218  -0.00165  -0.03855  -0.03986   0.95567
    D3        1.11190   0.00203   0.00221   0.03621   0.03803   1.14992
    D4        3.10292  -0.00232  -0.00107  -0.04086  -0.04166   3.06126
    D5       -3.10290   0.00232   0.00108   0.04087   0.04168  -3.06123
    D6       -1.11188  -0.00203  -0.00221  -0.03620  -0.03801  -1.14989
    D7       -2.30572  -0.00305  -0.02072  -0.14042  -0.16043  -2.46615
    D8        2.00570  -0.00067  -0.00930  -0.08592  -0.09593   1.90977
    D9        2.30561   0.00306   0.02072   0.14048   0.16049   2.46611
   D10       -2.00579   0.00067   0.00930   0.08596   0.09596  -1.90983
         Item               Value     Threshold  Converged?
 Maximum Force            0.011041     0.000450     NO 
 RMS     Force            0.003789     0.000300     NO 
 Maximum Displacement     0.172750     0.001800     NO 
 RMS     Displacement     0.060434     0.001200     NO 
 Predicted change in Energy=-1.808758D-03
 Lowest energy point so far.  Saving SCF results.
 GradGradGradGradGradGradGradGradGradGradGradGradGradGradGradGradGradGrad

 Leave Link  103 at Fri Aug 26 08:56:38 2022, MaxMem= 24159191040 cpu:         0.9
 (Enter /public/home/users/caep010/software/Gaussian09/g09/l202.exe)
                          Input orientation:                          
 ---------------------------------------------------------------------
 Center     Atomic      Atomic             Coordinates (Angstroms)
 Number     Number       Type             X           Y           Z
 ---------------------------------------------------------------------
      1          6           0       -0.913994   -0.495886   -0.117805
      2          7           0        0.228344    0.279761    0.354008
      3          8           0        1.333994   -0.611368    0.231403
      4          8           0        0.437102    1.254635   -0.664668
      5          1           0       -0.742725   -0.895953   -1.122332
      6          1           0       -1.071437   -1.312351    0.582245
      7          1           0       -1.779738    0.161329   -0.125424
      8          1           0        1.841842   -0.412644    1.018374
      9          1           0        0.666514    2.032577   -0.155802
 ---------------------------------------------------------------------
                    Distance matrix (angstroms):
                    1          2          3          4          5
     1  C    0.000000
     2  N    1.459168   0.000000
     3  O    2.277879   1.425344   0.000000
     4  O    2.277903   1.425363   2.255953   0.000000
     5  H    1.094743   2.122465   2.495265   2.495291   0.000000
     6  H    1.086957   2.067932   2.529934   3.227987   1.785224
     7  H    1.086969   2.067916   3.227958   2.529917   1.785236
     8  H    2.982023   1.877280   0.957458   2.754223   3.390604
     9  H    2.982042   1.877303   2.754252   0.957480   3.390638
                    6          7          8          9
     6  H    0.000000
     7  H    1.781634   0.000000
     8  H    3.080077   3.841036   0.000000
     9  H    3.841059   3.080040   2.956212   0.000000
 Stoichiometry    CH5NO2
 Framework group  C1[X(CH5NO2)]
 Deg. of freedom    21
 Full point group                 C1      NOp   1
 RotChk:  IX=0 Diff= 3.02D-03
 Largest Abelian subgroup         C1      NOp   1
 Largest concise Abelian subgroup C1      NOp   1
                         Standard orientation:                         
 ---------------------------------------------------------------------
 Center     Atomic      Atomic             Coordinates (Angstroms)
 Number     Number       Type             X           Y           Z
 ---------------------------------------------------------------------
      1          6           0       -1.331028   -0.000140    0.051236
      2          7           0        0.045501    0.000009   -0.432851
      3          8           0        0.642080    1.128045    0.202154
      4          8           0        0.642346   -1.127908    0.202161
      5          1           0       -1.373940   -0.000138    1.145137
      6          1           0       -1.818353    0.890605   -0.336786
      7          1           0       -1.818124   -0.891029   -0.336781
      8          1           0        1.201177    1.478226   -0.491755
      9          1           0        1.201495   -1.477986   -0.491788
 ---------------------------------------------------------------------
 Rotational constants (GHZ):      9.7473104      9.5997542      5.4568914
 Leave Link  202 at Fri Aug 26 08:56:38 2022, MaxMem= 24159191040 cpu:         0.2
 (Enter /public/home/users/caep010/software/Gaussian09/g09/l301.exe)
 Standard basis: GTBas3 (6D, 7F)
 Ernie: Thresh=  0.10000D-02 Tol=  0.10000D-05 Strict=F.
 There are   149 symmetry adapted cartesian basis functions of A   symmetry.
 There are   137 symmetry adapted basis functions of A   symmetry.
   137 basis functions,   211 primitive gaussians,   149 cartesian basis functions
    17 alpha electrons       17 beta electrons
       nuclear repulsion energy       137.5529516961 Hartrees.
 IExCor=  402 DFT=T Ex+Corr=B3LYP ExCW=0 ScaHFX=  0.200000
 ScaDFX=  0.800000  0.720000  1.000000  0.810000 ScalE2=  1.000000  1.000000
 IRadAn=      0 IRanWt=     -1 IRanGd=            0 ICorTp=0 IEmpDi=  4
 NAtoms=    9 NActive=    9 NUniq=    9 SFac= 1.00D+00 NAtFMM=   60 NAOKFM=F Big=F
 Integral buffers will be    131072 words long.
 Raffenetti 2 integral format.
 Two-electron integral symmetry is turned on.
 Leave Link  301 at Fri Aug 26 08:56:38 2022, MaxMem= 24159191040 cpu:         1.6
 (Enter /public/home/users/caep010/software/Gaussian09/g09/l302.exe)
 NPDir=0 NMtPBC=     1 NCelOv=     1 NCel=       1 NClECP=     1 NCelD=      1
         NCelK=      1 NCelE2=     1 NClLst=     1 CellRange=     0.0.
 One-electron integrals computed using PRISM.
 NBasis=   137 RedAO= T EigKep=  5.04D-04  NBF=   137
 NBsUse=   137 1.00D-06 EigRej= -1.00D+00 NBFU=   137
 Precomputing XC quadrature grid using
 IXCGrd= 4 IRadAn=           0 IRanWt=          -1 IRanGd=           0 AccXCQ= 0.00D+00.
 Generated NRdTot=       0 NPtTot=           0 NUsed=           0 NTot=          32
 NSgBfM=   149   149   149   149   149 MxSgAt=     9 MxSgA2=     9.
 Leave Link  302 at Fri Aug 26 08:56:39 2022, MaxMem= 24159191040 cpu:        16.1
 (Enter /public/home/users/caep010/software/Gaussian09/g09/l303.exe)
 DipDrv:  MaxL=1.
 Leave Link  303 at Fri Aug 26 08:56:39 2022, MaxMem= 24159191040 cpu:         0.6
 (Enter /public/home/users/caep010/software/Gaussian09/g09/l401.exe)
 Initial guess from the checkpoint file:  "G4.Frag_793.chk"
 B after Tr=     0.000000    0.000000   -0.000000
         Rot=    1.000000    0.000002    0.000068   -0.000081 Ang=   0.01 deg.
 Guess basis will be translated and rotated to current coordinates.
 JPrj=2 DoOrth=T DoCkMO=T.
 Generating alternative initial guess.
 ExpMin= 1.61D-01 ExpMax= 5.48D+03 ExpMxC= 8.25D+02 IAcc=1 IRadAn=         1 AccDes= 0.00D+00
 Harris functional with IExCor=  402 and IRadAn=       1 diagonalized for initial guess.
 HarFok:  IExCor=  402 AccDes= 0.00D+00 IRadAn=         1 IDoV= 1 UseB2=F ITyADJ=14
 ICtDFT=  3500011 ScaDFX=  1.000000  1.000000  1.000000  1.000000
 FoFCou: FMM=F IPFlag=           0 FMFlag=      100000 FMFlg1=           0
         NFxFlg=           0 DoJE=T BraDBF=F KetDBF=T FulRan=T
         wScrn=  0.000000 ICntrl=     500 IOpCl=  0 I1Cent=   200000004 NGrid=           0
         NMat0=    1 NMatS0=      1 NMatT0=    0 NMatD0=    1 NMtDS0=    0 NMtDT0=    0
 Petite list used in FoFCou.
 Harris En= -246.250243560464    
 Leave Link  401 at Fri Aug 26 08:56:39 2022, MaxMem= 24159191040 cpu:        14.8
 (Enter /public/home/users/caep010/software/Gaussian09/g09/l502.exe)
 Closed shell SCF:
 Using DIIS extrapolation, IDIIS=  1040.
 Integral symmetry usage will be decided dynamically.
 Keep R1 ints in memory in canonical form, NReq=46768664.
 IVT=       91009 IEndB=       91009 NGot= 24159191040 MDV= 24114415701
 LenX= 24114415701 LenY= 24114393059
 Requested convergence on RMS density matrix=1.00D-08 within 128 cycles.
 Requested convergence on MAX density matrix=1.00D-06.
 Requested convergence on             energy=1.00D-06.
 No special actions if energy rises.
 FoFCou: FMM=F IPFlag=           0 FMFlag=           0 FMFlg1=           0
         NFxFlg=           0 DoJE=F BraDBF=F KetDBF=F FulRan=T
         wScrn=  0.000000 ICntrl=     600 IOpCl=  0 I1Cent=           0 NGrid=           0
         NMat0=    1 NMatS0=   9453 NMatT0=    0 NMatD0=    1 NMtDS0=    0 NMtDT0=    0
 Symmetry not used in FoFCou.
 Integral accuracy reduced to 1.0D-05 until final iterations.

 Cycle   1  Pass 0  IDiag  1:
 E= -246.217186492277    
 DIIS: error= 6.12D-03 at cycle   1 NSaved=   1.
 NSaved= 1 IEnMin= 1 EnMin= -246.217186492277     IErMin= 1 ErrMin= 6.12D-03
 ErrMax= 6.12D-03  0.00D+00 EMaxC= 1.00D-01 BMatC= 4.77D-03 BMatP= 4.77D-03
 IDIUse=3 WtCom= 9.39D-01 WtEn= 6.12D-02
 Coeff-Com:  0.100D+01
 Coeff-En:   0.100D+01
 Coeff:      0.100D+01
 Gap=     1.255 Goal=   None    Shift=    0.000
 GapD=    1.255 DampG=2.000 DampE=1.000 DampFc=2.0000 IDamp=-1.
 RMSDP=8.87D-04 MaxDP=1.95D-02              OVMax= 2.73D-02

 Cycle   2  Pass 0  IDiag  1:
 E= -246.223117679237     Delta-E=       -0.005931186960 Rises=F Damp=F
 DIIS: error= 5.19D-04 at cycle   2 NSaved=   2.
 NSaved= 2 IEnMin= 2 EnMin= -246.223117679237     IErMin= 2 ErrMin= 5.19D-04
 ErrMax= 5.19D-04  0.00D+00 EMaxC= 1.00D-01 BMatC= 6.92D-05 BMatP= 4.77D-03
 IDIUse=3 WtCom= 9.95D-01 WtEn= 5.19D-03
 Coeff-Com: -0.300D-01 0.103D+01
 Coeff-En:   0.000D+00 0.100D+01
 Coeff:     -0.298D-01 0.103D+01
 Gap=     0.318 Goal=   None    Shift=    0.000
 RMSDP=1.12D-04 MaxDP=3.42D-03 DE=-5.93D-03 OVMax= 4.29D-03

 Cycle   3  Pass 0  IDiag  1:
 E= -246.223188457277     Delta-E=       -0.000070778040 Rises=F Damp=F
 DIIS: error= 3.17D-04 at cycle   3 NSaved=   3.
 NSaved= 3 IEnMin= 3 EnMin= -246.223188457277     IErMin= 3 ErrMin= 3.17D-04
 ErrMax= 3.17D-04  0.00D+00 EMaxC= 1.00D-01 BMatC= 2.92D-05 BMatP= 6.92D-05
 IDIUse=3 WtCom= 9.97D-01 WtEn= 3.17D-03
 Coeff-Com: -0.251D-01 0.400D+00 0.626D+00
 Coeff-En:   0.000D+00 0.000D+00 0.100D+01
 Coeff:     -0.251D-01 0.398D+00 0.627D+00
 Gap=     0.316 Goal=   None    Shift=    0.000
 RMSDP=3.87D-05 MaxDP=1.08D-03 DE=-7.08D-05 OVMax= 1.35D-03

 Cycle   4  Pass 0  IDiag  1:
 E= -246.223208310986     Delta-E=       -0.000019853709 Rises=F Damp=F
 DIIS: error= 1.32D-04 at cycle   4 NSaved=   4.
 NSaved= 4 IEnMin= 4 EnMin= -246.223208310986     IErMin= 4 ErrMin= 1.32D-04
 ErrMax= 1.32D-04  0.00D+00 EMaxC= 1.00D-01 BMatC= 3.94D-06 BMatP= 2.92D-05
 IDIUse=3 WtCom= 9.99D-01 WtEn= 1.32D-03
 Coeff-Com: -0.745D-02 0.863D-01 0.297D+00 0.625D+00
 Coeff-En:   0.000D+00 0.000D+00 0.000D+00 0.100D+01
 Coeff:     -0.744D-02 0.862D-01 0.296D+00 0.625D+00
 Gap=     0.316 Goal=   None    Shift=    0.000
 RMSDP=1.36D-05 MaxDP=3.48D-04 DE=-1.99D-05 OVMax= 5.11D-04

 Cycle   5  Pass 0  IDiag  1:
 E= -246.223211101830     Delta-E=       -0.000002790843 Rises=F Damp=F
 DIIS: error= 4.25D-05 at cycle   5 NSaved=   5.
 NSaved= 5 IEnMin= 5 EnMin= -246.223211101830     IErMin= 5 ErrMin= 4.25D-05
 ErrMax= 4.25D-05  0.00D+00 EMaxC= 1.00D-01 BMatC= 3.85D-07 BMatP= 3.94D-06
 IDIUse=1 WtCom= 1.00D+00 WtEn= 0.00D+00
 Coeff-Com: -0.658D-03-0.439D-02 0.709D-01 0.295D+00 0.639D+00
 Coeff:     -0.658D-03-0.439D-02 0.709D-01 0.295D+00 0.639D+00
 Gap=     0.317 Goal=   None    Shift=    0.000
 RMSDP=4.02D-06 MaxDP=1.35D-04 DE=-2.79D-06 OVMax= 1.56D-04

 Initial convergence to 1.0D-05 achieved.  Increase integral accuracy.
 Cycle   6  Pass 1  IDiag  1:
 E= -246.223202352391     Delta-E=        0.000008749439 Rises=F Damp=F
 DIIS: error= 2.39D-05 at cycle   1 NSaved=   1.
 NSaved= 1 IEnMin= 1 EnMin= -246.223202352391     IErMin= 1 ErrMin= 2.39D-05
 ErrMax= 2.39D-05  0.00D+00 EMaxC= 1.00D-01 BMatC= 1.09D-07 BMatP= 1.09D-07
 IDIUse=1 WtCom= 1.00D+00 WtEn= 0.00D+00
 Coeff-Com:  0.100D+01
 Coeff:      0.100D+01
 Gap=     0.316 Goal=   None    Shift=    0.000
 RMSDP=4.02D-06 MaxDP=1.35D-04 DE= 8.75D-06 OVMax= 1.75D-04

 Cycle   7  Pass 1  IDiag  1:
 E= -246.223202222085     Delta-E=        0.000000130306 Rises=F Damp=F
 DIIS: error= 4.22D-05 at cycle   2 NSaved=   2.
 NSaved= 2 IEnMin= 1 EnMin= -246.223202352391     IErMin= 1 ErrMin= 2.39D-05
 ErrMax= 4.22D-05  0.00D+00 EMaxC= 1.00D-01 BMatC= 2.83D-07 BMatP= 1.09D-07
 IDIUse=1 WtCom= 1.00D+00 WtEn= 0.00D+00
 Coeff-Com:  0.622D+00 0.378D+00
 Coeff:      0.622D+00 0.378D+00
 Gap=     0.316 Goal=   None    Shift=    0.000
 RMSDP=2.70D-06 MaxDP=1.13D-04 DE= 1.30D-07 OVMax= 1.08D-04

 Cycle   8  Pass 1  IDiag  1:
 E= -246.223202434797     Delta-E=       -0.000000212712 Rises=F Damp=F
 DIIS: error= 3.48D-06 at cycle   3 NSaved=   3.
 NSaved= 3 IEnMin= 3 EnMin= -246.223202434797     IErMin= 3 ErrMin= 3.48D-06
 ErrMax= 3.48D-06  0.00D+00 EMaxC= 1.00D-01 BMatC= 2.75D-09 BMatP= 1.09D-07
 IDIUse=1 WtCom= 1.00D+00 WtEn= 0.00D+00
 Coeff-Com:  0.143D+00 0.127D+00 0.730D+00
 Coeff:      0.143D+00 0.127D+00 0.730D+00
 Gap=     0.316 Goal=   None    Shift=    0.000
 RMSDP=3.98D-07 MaxDP=1.12D-05 DE=-2.13D-07 OVMax= 1.36D-05

 Cycle   9  Pass 1  IDiag  1:
 E= -246.223202436096     Delta-E=       -0.000000001300 Rises=F Damp=F
 DIIS: error= 1.93D-06 at cycle   4 NSaved=   4.
 NSaved= 4 IEnMin= 4 EnMin= -246.223202436096     IErMin= 4 ErrMin= 1.93D-06
 ErrMax= 1.93D-06  0.00D+00 EMaxC= 1.00D-01 BMatC= 8.46D-10 BMatP= 2.75D-09
 IDIUse=1 WtCom= 1.00D+00 WtEn= 0.00D+00
 Coeff-Com: -0.524D-02 0.199D-01 0.398D+00 0.587D+00
 Coeff:     -0.524D-02 0.199D-01 0.398D+00 0.587D+00
 Gap=     0.316 Goal=   None    Shift=    0.000
 RMSDP=1.75D-07 MaxDP=4.57D-06 DE=-1.30D-09 OVMax= 5.30D-06

 Cycle  10  Pass 1  IDiag  1:
 E= -246.223202436724     Delta-E=       -0.000000000628 Rises=F Damp=F
 DIIS: error= 1.91D-07 at cycle   5 NSaved=   5.
 NSaved= 5 IEnMin= 5 EnMin= -246.223202436724     IErMin= 5 ErrMin= 1.91D-07
 ErrMax= 1.91D-07  0.00D+00 EMaxC= 1.00D-01 BMatC= 7.94D-12 BMatP= 8.46D-10
 IDIUse=1 WtCom= 1.00D+00 WtEn= 0.00D+00
 Coeff-Com: -0.598D-02 0.328D-02 0.121D+00 0.206D+00 0.676D+00
 Coeff:     -0.598D-02 0.328D-02 0.121D+00 0.206D+00 0.676D+00
 Gap=     0.316 Goal=   None    Shift=    0.000
 RMSDP=1.73D-08 MaxDP=4.52D-07 DE=-6.28D-10 OVMax= 5.31D-07

 Cycle  11  Pass 1  IDiag  1:
 E= -246.223202436730     Delta-E=       -0.000000000006 Rises=F Damp=F
 DIIS: error= 4.55D-08 at cycle   6 NSaved=   6.
 NSaved= 6 IEnMin= 6 EnMin= -246.223202436730     IErMin= 6 ErrMin= 4.55D-08
 ErrMax= 4.55D-08  0.00D+00 EMaxC= 1.00D-01 BMatC= 1.95D-13 BMatP= 7.94D-12
 IDIUse=1 WtCom= 1.00D+00 WtEn= 0.00D+00
 Coeff-Com: -0.104D-02-0.492D-04 0.123D-01 0.233D-01 0.132D+00 0.833D+00
 Coeff:     -0.104D-02-0.492D-04 0.123D-01 0.233D-01 0.132D+00 0.833D+00
 Gap=     0.316 Goal=   None    Shift=    0.000
 RMSDP=5.38D-09 MaxDP=1.70D-07 DE=-5.57D-12 OVMax= 1.84D-07

 SCF Done:  E(RB3LYP) =  -246.223202437     A.U. after   11 cycles
            NFock= 11  Conv=0.54D-08     -V/T= 2.0057
 KE= 2.448217550303D+02 PE=-8.541013199570D+02 EE= 2.255034107939D+02
 Leave Link  502 at Fri Aug 26 08:56:41 2022, MaxMem= 24159191040 cpu:        37.2
 (Enter /public/home/users/caep010/software/Gaussian09/g09/l701.exe)
 Compute integral first derivatives.
 ... and contract with generalized density number  0.
 Leave Link  701 at Fri Aug 26 08:56:42 2022, MaxMem= 24159191040 cpu:        17.8
 (Enter /public/home/users/caep010/software/Gaussian09/g09/l702.exe)
 L702 exits ... SP integral derivatives will be done elsewhere.
 Leave Link  702 at Fri Aug 26 08:56:42 2022, MaxMem= 24159191040 cpu:         0.5
 (Enter /public/home/users/caep010/software/Gaussian09/g09/l703.exe)
 Compute integral first derivatives, UseDBF=F ICtDFT=           0.
 Integral derivatives from FoFJK, PRISM(SPDF).
 Calling FoFJK, ICntrl=      2127 FMM=F ISym2X=0 I1Cent= 0 IOpClX= 0 NMat=1 NMatS=1 NMatT=0.
 FoFJK:  IHMeth= 1 ICntrl=    2127 DoSepK=F KAlg= 0 I1Cent=   0 FoldK=F
 IRaf=         0 NMat=   1 IRICut=       1 DoRegI=T DoRafI=F ISym2E= 0.
 FoFCou: FMM=F IPFlag=           0 FMFlag=      100000 FMFlg1=         800
         NFxFlg=           0 DoJE=F BraDBF=F KetDBF=F FulRan=T
         wScrn=  0.000000 ICntrl=    2127 IOpCl=  0 I1Cent=           0 NGrid=           0
         NMat0=    1 NMatS0=      1 NMatT0=    0 NMatD0=    1 NMtDS0=    0 NMtDT0=    0
 Symmetry not used in FoFCou.
 Leave Link  703 at Fri Aug 26 08:56:43 2022, MaxMem= 24159191040 cpu:        21.7
 (Enter /public/home/users/caep010/software/Gaussian09/g09/l716.exe)
 Dipole        = 9.97156161D-02 2.24269510D-05-6.51455355D-01
 ***** Axes restored to original set *****
 -------------------------------------------------------------------
 Center     Atomic                   Forces (Hartrees/Bohr)
 Number     Number              X              Y              Z
 -------------------------------------------------------------------
      1        6          -0.000329901   -0.000053119    0.000191769
      2        7           0.000941679   -0.001638281   -0.004360130
      3        8          -0.001729131   -0.004734350   -0.000313809
      4        8          -0.004193848    0.000412521   -0.002762294
      5        1           0.001124551    0.000030267   -0.001063275
      6        1          -0.000988090   -0.002239958    0.001661954
      7        1          -0.002669187    0.001259909   -0.000023545
      8        1           0.005210527    0.000816416    0.004625093
      9        1           0.002633399    0.006146594    0.002044237
 -------------------------------------------------------------------
 Cartesian Forces:  Max     0.006146594 RMS     0.002663800
 Leave Link  716 at Fri Aug 26 08:56:43 2022, MaxMem= 24159191040 cpu:         0.6
 (Enter /public/home/users/caep010/software/Gaussian09/g09/l103.exe)

 GradGradGradGradGradGradGradGradGradGradGradGradGradGradGradGradGradGrad
 Berny optimization.
 Using GEDIIS/GDIIS optimizer.
 FormGI is forming the generalized inverse of G from B-inverse, IUseBI=4.
 Internal  Forces:  Max     0.006735869 RMS     0.002822108
 Search for a local minimum.
 Step number   3 out of a maximum of   39
 All quantities printed in internal units (Hartrees-Bohrs-Radians)
 RMS Force = .28221D-02 SwitMx=.10000D-02 MixMth= 1
 Mixed Optimization -- RFO/linear search
 Update second derivatives using D2CorX and points    1    2    3
 DE= -1.59D-03 DEPred=-1.81D-03 R= 8.80D-01
 TightC=F SS=  1.41D+00  RLast= 3.08D-01 DXNew= 8.4853D-01 9.2320D-01
 Trust test= 8.80D-01 RLast= 3.08D-01 DXMaxT set to 8.49D-01
 ITU=  1  1  0
 Use linear search instead of GDIIS.
     Eigenvalues ---    0.00895   0.01404   0.01879   0.07468   0.07888
     Eigenvalues ---    0.08396   0.15416   0.16000   0.16000   0.16213
     Eigenvalues ---    0.16411   0.20144   0.20714   0.32117   0.32500
     Eigenvalues ---    0.33659   0.36761   0.38504   0.49302   0.53802
     Eigenvalues ---    0.56418
 RFO step:  Lambda=-8.25298186D-04 EMin= 8.95049080D-03
 Quartic linear search produced a step of -0.12841.
 Iteration  1 RMS(Cart)=  0.02264168 RMS(Int)=  0.00074504
 Iteration  2 RMS(Cart)=  0.00062794 RMS(Int)=  0.00003821
 Iteration  3 RMS(Cart)=  0.00000053 RMS(Int)=  0.00003821
 ITry= 1 IFail=0 DXMaxC= 6.53D-02 DCOld= 1.00D+10 DXMaxT= 8.49D-01 DXLimC= 3.00D+00 Rises=F
 Variable       Old X    -DE/DX   Delta X   Delta X   Delta X     New X
                                 (Linear)    (Quad)   (Total)
    R1        2.75743   0.00253   0.00004   0.00598   0.00601   2.76344
    R2        2.06876   0.00114   0.00139  -0.00026   0.00113   2.06989
    R3        2.05405   0.00290   0.00125   0.00486   0.00611   2.06016
    R4        2.05407   0.00289   0.00125   0.00484   0.00609   2.06017
    R5        2.69351   0.00478  -0.00579   0.02214   0.01635   2.70986
    R6        2.69355   0.00477  -0.00578   0.02212   0.01634   2.70988
    R7        1.80933   0.00674   0.00205   0.00708   0.00913   1.81846
    R8        1.80938   0.00671   0.00204   0.00705   0.00909   1.81847
    A1        1.94817  -0.00192   0.00014  -0.01167  -0.01152   1.93665
    A2        1.88014   0.00102   0.00170   0.00181   0.00351   1.88365
    A3        1.88011   0.00103   0.00171   0.00183   0.00354   1.88365
    A4        1.91679   0.00026  -0.00079   0.00267   0.00189   1.91868
    A5        1.91679   0.00026  -0.00078   0.00266   0.00188   1.91867
    A6        1.92124  -0.00064  -0.00198   0.00273   0.00075   1.92199
    A7        1.82051  -0.00021   0.00370  -0.00115   0.00263   1.82314
    A8        1.82052  -0.00022   0.00369  -0.00116   0.00261   1.82313
    A9        1.82608   0.00389   0.00655   0.01928   0.02597   1.85205
   A10        1.78337   0.00317   0.00671   0.00074   0.00745   1.79082
   A11        1.78336   0.00317   0.00670   0.00076   0.00746   1.79082
    D1       -0.95566  -0.00205  -0.00511  -0.01012  -0.01520  -0.97086
    D2        0.95567   0.00205   0.00512   0.01012   0.01520   0.97087
    D3        1.14992  -0.00223  -0.00488  -0.01272  -0.01757   1.13235
    D4        3.06126   0.00187   0.00535   0.00752   0.01283   3.07409
    D5       -3.06123  -0.00187  -0.00535  -0.00753  -0.01284  -3.07407
    D6       -1.14989   0.00223   0.00488   0.01271   0.01756  -1.13233
    D7       -2.46615  -0.00024   0.02060  -0.07264  -0.05206  -2.51822
    D8        1.90977  -0.00132   0.01232  -0.07792  -0.06557   1.84420
    D9        2.46611   0.00023  -0.02061   0.07265   0.05207   2.51818
   D10       -1.90983   0.00133  -0.01232   0.07794   0.06559  -1.84423
         Item               Value     Threshold  Converged?
 Maximum Force            0.006736     0.000450     NO 
 RMS     Force            0.002822     0.000300     NO 
 Maximum Displacement     0.065318     0.001800     NO 
 RMS     Displacement     0.022470     0.001200     NO 
 Predicted change in Energy=-4.534786D-04
 Lowest energy point so far.  Saving SCF results.
 GradGradGradGradGradGradGradGradGradGradGradGradGradGradGradGradGradGrad

 Leave Link  103 at Fri Aug 26 08:56:43 2022, MaxMem= 24159191040 cpu:         1.9
 (Enter /public/home/users/caep010/software/Gaussian09/g09/l202.exe)
                          Input orientation:                          
 ---------------------------------------------------------------------
 Center     Atomic      Atomic             Coordinates (Angstroms)
 Number     Number       Type             X           Y           Z
 ---------------------------------------------------------------------
      1          6           0       -0.924071   -0.501563   -0.119561
      2          7           0        0.222064    0.275269    0.350943
      3          8           0        1.332390   -0.626306    0.247557
      4          8           0        0.421069    1.269690   -0.662913
      5          1           0       -0.743157   -0.897310   -1.124759
      6          1           0       -1.082976   -1.322457    0.580008
      7          1           0       -1.793581    0.155982   -0.129950
      8          1           0        1.867081   -0.389505    1.011775
      9          1           0        0.701079    2.036301   -0.153100
 ---------------------------------------------------------------------
                    Distance matrix (angstroms):
                    1          2          3          4          5
     1  C    0.000000
     2  N    1.462350   0.000000
     3  O    2.289531   1.433998   0.000000
     4  O    2.289535   1.434009   2.292218   0.000000
[...]
                 (A) (A) (A) (A) (A) (A) (A) (A) (A) (A) (A) (A)
                 (A) (A) (A) (A) (A) (A) (A) (A) (A) (A) (A) (A)
                 (A) (A) (A) (A) (A) (A) (A) (A) (A) (A) (A) (A)
                 (A) (A) (A) (A) (A) (A) (A) (A) (A) (A) (A) (A)
                 (A) (A) (A) (A) (A) (A) (A) (A) (A) (A) (A) (A)
                 (A) (A) (A) (A) (A) (A) (A) (A) (A) (A) (A) (A)
                 (A) (A) (A) (A) (A) (A) (A) (A) (A) (A) (A) (A)
                 (A) (A) (A) (A) (A) (A) (A) (A) (A) (A) (A) (A)
                 (A) (A) (A) (A) (A) (A) (A) (A) (A) (A) (A) (A)
                 (A) (A) (A) (A) (A) (A) (A) (A) (A) (A) (A) (A)
                 (A) (A) (A) (A) (A) (A) (A) (A) (A) (A) (A) (A)
                 (A) (A) (A) (A) (A) (A) (A) (A) (A) (A) (A) (A)
                 (A) (A) (A)
 The electronic state is 1-A.
 Alpha  occ. eigenvalues --  -20.59302 -20.59300 -15.67822 -11.25081  -1.46105
 Alpha  occ. eigenvalues --   -1.34398  -1.09070  -0.87625  -0.72345  -0.71532
 Alpha  occ. eigenvalues --   -0.64941  -0.60403  -0.56207  -0.55252  -0.51568
 Alpha  occ. eigenvalues --   -0.48558  -0.41400
 Alpha virt. eigenvalues --    0.04570   0.05300   0.05851   0.06259   0.08785
 Alpha virt. eigenvalues --    0.09149   0.10458   0.12513   0.13672   0.15573
 Alpha virt. eigenvalues --    0.16601   0.17104   0.18088   0.19546   0.20552
 Alpha virt. eigenvalues --    0.21002   0.22169   0.23496   0.25505   0.27570
 Alpha virt. eigenvalues --    0.27922   0.28638   0.32263   0.32548   0.35208
 Alpha virt. eigenvalues --    0.39188   0.40281   0.44433   0.45685   0.46029
 Alpha virt. eigenvalues --    0.46811   0.49850   0.50087   0.52303   0.53614
 Alpha virt. eigenvalues --    0.54931   0.55581   0.57021   0.58461   0.59921
 Alpha virt. eigenvalues --    0.60761   0.62730   0.63648   0.68353   0.70244
 Alpha virt. eigenvalues --    0.71457   0.76334   0.76530   0.79059   0.83141
 Alpha virt. eigenvalues --    0.84178   0.88049   0.89279   0.91784   0.93282
 Alpha virt. eigenvalues --    0.94846   0.97255   0.98161   1.00656   1.00674
 Alpha virt. eigenvalues --    1.03829   1.08296   1.08513   1.12538   1.13474
 Alpha virt. eigenvalues --    1.13715   1.16222   1.18726   1.23038   1.23727
 Alpha virt. eigenvalues --    1.24538   1.26832   1.30621   1.35062   1.35439
 Alpha virt. eigenvalues --    1.39110   1.41618   1.41877   1.43835   1.44593
 Alpha virt. eigenvalues --    1.45544   1.46111   1.49657   1.52159   1.53036
 Alpha virt. eigenvalues --    1.54182   1.55590   1.64226   1.65327   1.66797
 Alpha virt. eigenvalues --    1.67975   1.70350   1.74723   1.79097   1.82979
 Alpha virt. eigenvalues --    1.83338   1.85584   1.89640   1.94384   1.99346
 Alpha virt. eigenvalues --    1.99425   2.01288   2.06565   2.06623   2.13674
 Alpha virt. eigenvalues --    2.19093   2.21933   2.22841   2.25272   2.31008
 Alpha virt. eigenvalues --    2.32596   2.35449   2.35928   2.38991   2.39738
 Alpha virt. eigenvalues --    2.40316   2.42610   2.47411   2.49599   2.51085
 Alpha virt. eigenvalues --    2.51391   2.56024   2.61796   2.62671   2.63902
 Alpha virt. eigenvalues --    2.66545   2.67064   2.68390   2.71062   2.74262
 Alpha virt. eigenvalues --    2.79034   2.79376   2.81615   2.83460   2.86308
 Alpha virt. eigenvalues --    2.87573   2.88702   2.90030   2.91886   2.93966
 Alpha virt. eigenvalues --    2.96349   2.97198   2.99075   2.99317   3.01982
 Alpha virt. eigenvalues --    3.04695   3.05645   3.09842   3.10900   3.11088
 Alpha virt. eigenvalues --    3.16673   3.18900   3.19130   3.23869   3.26164
 Alpha virt. eigenvalues --    3.26738   3.28374   3.32523   3.32529   3.33580
 Alpha virt. eigenvalues --    3.38769   3.42244   3.43654   3.47888   3.50163
 Alpha virt. eigenvalues --    3.51070   3.55111   3.57208   3.59380   3.59892
 Alpha virt. eigenvalues --    3.61753   3.63462   3.67446   3.70971   3.73152
 Alpha virt. eigenvalues --    3.74262   3.80514   3.81325   3.84755   3.92537
 Alpha virt. eigenvalues --    3.95955   3.96574   4.04471   4.05740   4.08872
 Alpha virt. eigenvalues --    4.09588   4.13192   4.14984   4.21723   4.24326
 Alpha virt. eigenvalues --    4.25965   4.28346   4.31758   4.36254   4.36873
 Alpha virt. eigenvalues --    4.43623   4.47925   4.52436   4.53272   4.61525
 Alpha virt. eigenvalues --    4.67429   4.70785   4.80499   4.81463   4.96333
 Alpha virt. eigenvalues --    4.98557   4.99312   5.05634   5.06722   5.10029
 Alpha virt. eigenvalues --    5.13777   5.14489   5.16676   5.29390   5.32150
 Alpha virt. eigenvalues --    5.38692   5.42294   5.42627   5.48841   5.53486
 Alpha virt. eigenvalues --    5.62278   5.65563   5.71734   5.74075   5.82064
 Alpha virt. eigenvalues --    5.82999   5.86625   5.93082   5.94735   6.03593
 Alpha virt. eigenvalues --    6.11942   6.12715   6.16330   6.23440   6.25518
 Alpha virt. eigenvalues --    6.32947   6.33761   6.40747   6.42606   6.47749
 Alpha virt. eigenvalues --    6.50003   6.50373   6.56005   6.62056   6.70496
 Alpha virt. eigenvalues --    6.76208   6.83210   6.83537   6.90796   6.92126
 Alpha virt. eigenvalues --    6.94728   7.01946   7.03236   7.13091   7.16752
 Alpha virt. eigenvalues --    7.27354   7.30535   7.34082   7.35414   7.39156
 Alpha virt. eigenvalues --    7.41548   7.44241   7.45912   7.50636   7.55644
 Alpha virt. eigenvalues --    7.56254   7.62332   7.64378   7.66987   7.70827
 Alpha virt. eigenvalues --    7.71971   7.78124   7.82362   7.85702   7.88645
 Alpha virt. eigenvalues --    7.92000   7.93270   7.98941   7.99146   8.07233
 Alpha virt. eigenvalues --    8.11001   8.12077   8.22851   8.24478   8.26158
 Alpha virt. eigenvalues --    8.35079   8.35484   8.39195   8.43740   8.51312
 Alpha virt. eigenvalues --    8.55647   8.58909   8.63123   8.63542   8.65033
 Alpha virt. eigenvalues --    8.71303   8.75156   8.75824   8.78388   8.78834
 Alpha virt. eigenvalues --    8.85091   8.88572   8.89506   8.91250   8.98637
 Alpha virt. eigenvalues --    9.00977   9.02182   9.04003   9.09274   9.16205
 Alpha virt. eigenvalues --    9.17935   9.25046   9.25436   9.33316   9.34456
 Alpha virt. eigenvalues --    9.37851   9.40310   9.44380   9.49855   9.57856
 Alpha virt. eigenvalues --    9.59527   9.62029   9.66002   9.67748   9.79931
 Alpha virt. eigenvalues --    9.86271   9.88013   9.99707  10.04433  10.11715
 Alpha virt. eigenvalues --   10.16729  10.20675  10.22895  10.25615  10.34341
 Alpha virt. eigenvalues --   10.38295  10.42987  10.50499  10.56696  10.68266
 Alpha virt. eigenvalues --   10.70707  10.77952  10.78159  10.81500  10.87993
 Alpha virt. eigenvalues --   11.01015  11.06339  11.07104  11.13826  11.21602
 Alpha virt. eigenvalues --   11.32683  11.33156  11.34633  11.40923  11.41193
 Alpha virt. eigenvalues --   11.51542  11.52223  11.60486  11.64317  11.76024
 Alpha virt. eigenvalues --   11.78826  11.82188  11.92017  11.94540  12.03989
 Alpha virt. eigenvalues --   12.06996  12.11125  12.15157  12.22386  12.37545
 Alpha virt. eigenvalues --   12.52165  12.57634  12.65274  12.70585  12.79456
 Alpha virt. eigenvalues --   12.93603  12.99179  13.24429  13.31058  13.55783
 Alpha virt. eigenvalues --   13.72157  14.09367  14.12957  14.24399  14.25473
 Alpha virt. eigenvalues --   14.26786  14.32854  14.34458  14.47413  14.48616
 Alpha virt. eigenvalues --   14.51527  14.59610  14.65755  14.71152  14.77438
 Alpha virt. eigenvalues --   14.83885  14.93324  15.02619  15.14008  15.17013
 Alpha virt. eigenvalues --   15.28501  15.28902  15.32962  15.36896  15.43009
 Alpha virt. eigenvalues --   15.45973  15.53866  15.55393  15.59718  15.67667
 Alpha virt. eigenvalues --   15.80195  15.83075  15.85187  15.89503  15.91944
 Alpha virt. eigenvalues --   16.09258  16.09382  16.13177  16.15397  16.26650
 Alpha virt. eigenvalues --   16.37922  16.54982  16.58684  16.70756  16.70870
 Alpha virt. eigenvalues --   17.47610  17.55299  17.58511  17.79048  17.83127
 Alpha virt. eigenvalues --   18.32068  18.32413  18.44611  18.57716  18.67571
 Alpha virt. eigenvalues --   18.68840  18.72083  18.84279  18.84564  18.93302
 Alpha virt. eigenvalues --   18.98170  18.99527  19.01395  19.04199  19.18374
 Alpha virt. eigenvalues --   19.23573  19.24100  19.30323  19.32766  19.33436
 Alpha virt. eigenvalues --   19.37320  19.48779  19.54454  19.59626  19.61942
 Alpha virt. eigenvalues --   19.65850  19.74142  19.90410  19.93087  19.95487
 Alpha virt. eigenvalues --   19.98077  20.05978  20.11679  20.30065  20.33295
 Alpha virt. eigenvalues --   21.51990  21.75826  22.37842  22.40195  22.41981
 Alpha virt. eigenvalues --   22.44241  22.80489  22.81162  22.86855  22.88657
 Alpha virt. eigenvalues --   23.59386  23.67756  24.05252  24.26125  40.29617
 Alpha virt. eigenvalues --   50.42183  62.88475  62.89273
          Condensed to atoms (all electrons):
               1          2          3          4          5          6
     1  C    5.070173   0.297704  -0.085689  -0.085689   0.405298   0.397306
     2  N    0.297704   6.548187   0.091793   0.091793  -0.011851  -0.033049
     3  O   -0.085689   0.091793   8.243414  -0.031194  -0.001745   0.000775
     4  O   -0.085689   0.091793  -0.031194   8.243414  -0.001745   0.009522
     5  H    0.405298  -0.011851  -0.001745  -0.001745   0.456986  -0.021322
     6  H    0.397306  -0.033049   0.000775   0.009522  -0.021322   0.483358
     7  H    0.397306  -0.033049   0.009522   0.000774  -0.021322  -0.018204
     8  H    0.007804  -0.029083   0.289515  -0.000717  -0.000704   0.000276
     9  H    0.007804  -0.029083  -0.000717   0.289515  -0.000704  -0.000427
               7          8          9
     1  C    0.397306   0.007804   0.007804
     2  N   -0.033049  -0.029083  -0.029083
     3  O    0.009522   0.289515  -0.000717
     4  O    0.000774  -0.000717   0.289515
     5  H   -0.021322  -0.000704  -0.000704
     6  H   -0.018204   0.000276  -0.000427
     7  H    0.483358  -0.000427   0.000276
     8  H   -0.000427   0.343878   0.001412
     9  H    0.000276   0.001412   0.343878
 Mulliken charges:
               1
     1  C   -0.412018
     2  N    0.106636
     3  O   -0.515675
     4  O   -0.515675
     5  H    0.197109
     6  H    0.181766
     7  H    0.181766
     8  H    0.388045
     9  H    0.388045
 Sum of Mulliken charges =  -0.00000
 Mulliken charges with hydrogens summed into heavy atoms:
               1
     1  C    0.148623
     2  N    0.106636
     3  O   -0.127629
     4  O   -0.127630
 Electronic spatial extent (au):  <R**2>=            263.4275
 Charge=             -0.0000 electrons
 Dipole moment (field-independent basis, Debye):
    X=              0.3076    Y=             -0.0000    Z=             -1.7909  Tot=              1.8172
 Quadrupole moment (field-independent basis, Debye-Ang):
   XX=            -19.1956   YY=            -23.8626   ZZ=            -25.5916
   XY=             -0.0000   XZ=             -3.1719   YZ=              0.0000
 Traceless Quadrupole moment (field-independent basis, Debye-Ang):
   XX=              3.6877   YY=             -0.9794   ZZ=             -2.7083
   XY=             -0.0000   XZ=             -3.1719   YZ=              0.0000
 Octapole moment (field-independent basis, Debye-Ang**2):
  XXX=             10.1593  YYY=             -0.0001  ZZZ=              1.7662  XYY=              7.4022
  XXY=              0.0000  XXZ=             -4.4987  XZZ=              1.9490  YZZ=             -0.0000
  YYZ=             -6.0367  XYZ=              0.0000
 Hexadecapole moment (field-independent basis, Debye-Ang**3):
 XXXX=           -139.1754 YYYY=           -124.3348 ZZZZ=            -41.9335 XXXY=              0.0002
 XXXZ=             -5.3473 YYYX=             -0.0001 YYYZ=              0.0001 ZZZX=             -2.7875
 ZZZY=              0.0000 XXYY=            -32.5702 XXZZ=            -30.2045 YYZZ=            -27.1127
 XXYZ=             -0.0000 YYXZ=             -5.0205 ZZXY=             -0.0000
 N-N= 1.369776146700D+02 E-N=-8.522341304768D+02  KE= 2.445951702850D+02
 No NMR shielding tensors so no spin-rotation constants.
 Leave Link  601 at Fri Aug 26 09:01:11 2022, MaxMem= 24159191040 cpu:        21.6
 (Enter /public/home/users/caep010/software/Gaussian09/g09/l9999.exe)
 1\1\GINC-B1913\SP\RHF\GFHFB2\C1H5N1O2\ROOT\26-Aug-2022\0\\#P Geom=AllC
 heck Guess=TCheck SCRF=Check HF/GFHFB2 SCF=Tight\\Frag_793\\0,1\C,0,-0
 .9268061616,-0.5034188039,-0.1206952451\N,0,0.2129190807,0.2753393906,
 0.3602262848\O,0,1.3181662234,-0.6269288364,0.256445206\O,0,0.40811964
 8,1.2664072332,-0.6527466097\H,0,-0.7382378683,-0.8961341043,-1.127244
 1567\H,0,-1.0888326534,-1.3274582726,0.5755433424\H,0,-1.7994773881,0.
 1510257275,-0.1344348328\H,0,1.8799372902,-0.3612948102,0.9938232753\H
 ,0,0.734111829,2.022562476,-0.1509172643\\Version=ES64L-G09RevE.01\Sta
 te=1-A\HF=-244.9509505\RMSD=7.936e-09\Dipole=-0.0344038,0.2956159,0.65
 00357\Quadrupole=1.143332,0.5282382,-1.6715701,1.9829891,2.2562588,0.6
 314537\PG=C01 [X(C1H5N1O2)]\\@


 IN THE FIGHT BETWEEN YOU AND THE WORLD, BACK THE WORLD

                                        -- FRANZ KAFKA
 Diagonal vibrational polarizability:
        0.0000000       0.0000000       0.0000000

 Temperature=              298.150000 Pressure=                      1.000000
 E(ZPE)=                     0.070903 E(Thermal)=                    0.075977
 E(CCSD(T))=              -245.529004 E(Empiric)=                   -0.090311
 DE(Plus)=                  -0.024935 DE(2DF)=                      -0.202536
 E(Delta-G3XP)=             -0.291304 DE(HF)=                       -0.027053
 G4(0 K)=                 -246.094239 G4 Energy=                  -246.089165
 G4 Enthalpy=             -246.088221 G4 Free Energy=             -246.121239
 1\1\GINC-B1913\Mixed\G4\G4\C1H5N1O2\ROOT\26-Aug-2022\0\\#P Geom=AllChe
 ck Guess=TCheck SCRF=Check HF/GFHFB2 SCF=Tight\\Frag_793\\0,1\C,0,-0.9
 268061616,-0.5034188039,-0.1206952451\N,0,0.2129190807,0.2753393906,0.
 3602262848\O,0,1.3181662234,-0.6269288364,0.256445206\O,0,0.408119648,
 1.2664072332,-0.6527466097\H,0,-0.7382378683,-0.8961341043,-1.12724415
 67\H,0,-1.0888326534,-1.3274582726,0.5755433424\H,0,-1.7994773881,0.15
 10257275,-0.1344348328\H,0,1.8799372902,-0.3612948102,0.9938232753\H,0
 ,0.734111829,2.022562476,-0.1509172643\\Version=ES64L-G09RevE.01\State
 =1-A\MP2/GTBas1=-245.4803012\MP4/GTBas1=-245.5289952\CCSD(T)/G3Bas1=-2
 45.5290037\MP2/GTBas2=-245.5035543\MP4/GTBas2=-245.5539305\MP2/GTBas3=
 -245.6704063\MP4/GTBas3=-245.7315309\HF/GTLargeXP=-244.9250088\MP2/GTL
 argeXP=-245.9849639\HF/GFHFB1=-244.9463917\HF/GFHFB2=-244.9509505\G4=-
 246.0942393\FreqCoord=-1.7514098237,-0.9513236695,-0.2280809589,0.4023
 58751,0.5203160419,0.6807290241,2.4909731599,-1.1847238057,0.484611207
 4,0.7712343642,2.3931628435,-1.2335123264,-1.395067392,-1.6934480354,-
 2.1301827411,-2.0575955195,-2.508532588,1.0876192947,-3.4005194458,0.2
 85397264,-0.2540450167,3.5525666256,-0.6827482445,1.8780538149,1.38727
 03077,3.8220891663,-0.2851922982\PG=C01 [X(C1H5N1O2)]\NImag=0\\0.53435
 278,-0.06217522,0.57882212,-0.03413634,-0.04351259,0.57315779,-0.13948
 005,-0.06821502,-0.07494046,0.42568220,-0.03854334,-0.11421035,-0.0484
 2570,0.06193724,0.35199094,-0.01315118,-0.01872624,-0.09826240,0.02037
 827,0.01049471,0.31863605,-0.04915952,0.03202345,0.00719681,-0.1506197
 1,0.04047314,0.02402197,0.36063176,-0.01162786,0.00561261,0.00268403,0
 .05128857,-0.09496058,-0.03250315,-0.01208498,0.20022212,-0.02183029,0
 .00961795,0.00179546,0.01630453,-0.02977674,-0.07864857,0.23013795,0.1
 3185392,0.38168657,-0.01060513,-0.02689230,0.02986413,-0.07386407,-0.0
 2653126,0.02044667,0.01344503,0.02159612,-0.03003702,0.12827706,-0.013
 89783,-0.03397075,0.03339354,-0.03814425,-0.10172235,0.04512342,0.0255
 5088,-0.04134962,0.02889653,0.16023571,0.48890624,-0.00494961,-0.00422
 590,0.00282429,0.02650435,0.04159883,-0.14864084,-0.02465238,0.0137426
 6,0.00884917,0.08587741,0.12119534,0.32535577,-0.06071880,0.01979490,0
 .05184650,-0.00473623,-0.01911078,-0.03422173,0.00491617,-0.00029136,0
 .00153182,0.00215811,0.00387734,0.00055540,0.06163606,0.01737555,-0.07
 879834,-0.07714631,-0.00566454,-0.01371675,-0.02463075,0.00086558,0.00
 167374,0.00272536,0.00193151,0.00272115,0.00008899,-0.01466542,0.08361
 943,0.04680836,-0.07956793,-0.26265103,-0.00622081,-0.01117190,-0.0162
 0434,0.00025562,0.00172682,0.00187992,0.00018881,0.00029790,0.00359057
 ,-0.04642703,0.09351133,0.28696550,-0.05273968,-0.02185013,0.01901863,
 -0.00481495,-0.02166341,0.01728838,-0.00050839,0.00084199,0.00002166,-
 0.00338244,-0.00585020,-0.00135859,-0.00078001,-0.00418841,0.00440847,
 0.05692542,-0.03013632,-0.19918524,0.12845693,-0.00050988,-0.01694416,
 0.01251340,0.00127436,0.00181765,-0.00030605,-0.00407405,-0.00284804,-
 0.00212502,0.00236805,0.00996620,-0.00766713,0.03532109,0.21932832,0.0
 2513451,0.13509741,-0.16508815,-0.00115063,-0.00849876,0.00642152,-0.0
 0036626,-0.00087024,0.00042589,-0.00261165,-0.00253983,0.00194282,0.00
 309652,0.02213351,-0.01620910,-0.02405858,-0.14305548,0.17171858,-0.21
 496021,0.12581648,-0.00135941,-0.02323342,0.01826968,-0.00192503,-0.00
 525729,-0.00280512,-0.00402880,0.00186166,-0.00056591,0.00093333,-0.00
 311533,0.00327718,-0.00006693,0.00608815,-0.00341145,-0.00011894,0.240
 22508,0.13760401,-0.15322753,0.00125588,-0.01496143,0.00976501,-0.0002
 3492,-0.00497519,0.00080668,-0.00136696,-0.00129495,-0.00016635,0.0001
 5654,0.00733947,-0.00580059,0.00175657,0.01829976,-0.01205222,-0.00188
 281,-0.14106301,0.15986052,-0.00018399,-0.00187999,-0.04882565,-0.0086
 3683,0.00868833,-0.00186909,-0.00359608,-0.00134646,0.00016293,0.00070
 348,0.00042380,0.00003985,0.02335787,-0.01741536,0.00189302,-0.0167660
 8,0.01106045,0.00017247,0.00553128,0.00015869,0.04788693,-0.00710754,0
 .00562760,0.00004081,-0.02620438,-0.00815134,-0.02781107,-0.16955399,-
 0.05125532,-0.19331358,-0.00130067,0.00021526,0.00235105,0.00058636,0.
 00072902,0.00066649,0.00016146,0.00002282,0.00003092,-0.00169619,-0.00
 089733,-0.00040024,0.20442710,0.00306358,-0.00130040,-0.00128697,0.025
 22405,0.00459951,0.02135926,-0.08416673,-0.07151931,-0.14296402,0.0010
 8301,-0.00504181,0.00438769,-0.00018616,-0.00028769,0.00029052,-0.0000
 6257,0.00008817,-0.00013573,0.00036560,0.00062478,0.00033704,0.0536988
 6,0.07344701,0.00115360,-0.00134707,0.00106683,0.01058113,0.00027904,0
 .00632093,-0.23144968,-0.11795250,-0.31468452,0.00005105,0.00060984,-0
 .00132165,0.00044579,0.00045847,0.00055665,0.00012721,0.00001040,-0.00
 000097,0.00096843,0.00024708,0.00056812,0.21891763,0.11757778,0.307262
 07,0.00041816,-0.00412976,0.00246933,-0.00272939,-0.00667993,-0.005026
 29,-0.00389407,0.00433797,0.00121373,-0.05658956,-0.13142101,-0.085260
 97,0.00005365,0.00033953,0.00038702,-0.00094957,-0.00085462,0.00004410
 ,0.00008755,-0.00005133,-0.00000940,0.00068785,0.00098035,-0.00079516,
 0.06291537,-0.00166257,-0.00374212,0.00458118,-0.01095473,-0.02480127,
 -0.01339573,0.00103949,-0.00230328,0.00132001,-0.12605379,-0.30652848,
 -0.17481913,0.00087396,0.00062285,0.00082381,-0.00084812,-0.00017068,-
 0.00024807,0.00011654,0.00018969,-0.00002651,0.00001043,-0.00061026,0.
 00011695,0.13747879,0.33734356,0.00115493,0.00454436,-0.00401714,0.017
 18043,0.03681219,0.01224674,-0.00154795,0.00266492,-0.00146685,-0.1044
 8288,-0.22740055,-0.19263998,-0.00018515,0.00027475,0.00017881,0.00131
 890,0.00111249,0.00061694,0.00006607,-0.00009007,-0.00002858,-0.000482
 00,0.00043443,0.00023254,0.08697764,0.18164748,0.18487752\\0.00011673,
 0.00004183,-0.00003056,0.00002069,0.00003192,0.00004675,-0.00006406,-0
 .00010469,-0.00008011,-0.00008740,-0.00005606,-0.00010363,0.00000405,-
 0.00001121,-0.00002730,-0.00001730,-0.00002623,0.00002829,-0.00003807,
 0.00001676,0.00000757,0.00003301,0.00005328,0.00007978,0.00003234,0.00
 005438,0.00007921\\\@
 Job cpu time:       0 days  0 hours 21 minutes 33.4 seconds.
 File lengths (MBytes):  RWF=    928 Int=      0 D2E=      0 Chk=     17 Scr=      1
 Normal termination of Gaussian 09 at Fri Aug 26 09:01:11 2022.
