 Entering Gaussian System, Link 0=g09
 Input=G4.Frag_792.gjf
 Output=G4.Frag_792.log
 Initial command:
 /public/home/users/caep010/software/Gaussian09/g09/l1.exe "/public/home/users/caep010/.cache/gau_scr/Gau-192328.inp" -scrdir="/public/home/users/caep010/.cache/gau_scr/"
 Entering Link 1 = /public/home/users/caep010/software/Gaussian09/g09/l1.exe PID=    192329.
  
 Copyright (c) 1988,1990,1992,1993,1995,1998,2003,2009,2015,
            Gaussian, Inc.  All Rights Reserved.
  
 This is part of the Gaussian(R) 09 program.  It is based on
 the Gaussian(R) 03 system (copyright 2003, Gaussian, Inc.),
 the Gaussian(R) 98 system (copyright 1998, Gaussian, Inc.),
 the Gaussian(R) 94 system (copyright 1995, Gaussian, Inc.),
 the Gaussian 92(TM) system (copyright 1992, Gaussian, Inc.),
 the Gaussian 90(TM) system (copyright 1990, Gaussian, Inc.),
 the Gaussian 88(TM) system (copyright 1988, Gaussian, Inc.),
 the Gaussian 86(TM) system (copyright 1986, Carnegie Mellon
 University), and the Gaussian 82(TM) system (copyright 1983,
 Carnegie Mellon University). Gaussian is a federally registered
 trademark of Gaussian, Inc.
  
 This software contains proprietary and confidential information,
 including trade secrets, belonging to Gaussian, Inc.
  
 This software is provided under written license and may be
 used, copied, transmitted, or stored only in accord with that
 written license.
  
 The following legend is applicable only to US Government
 contracts under FAR:
  
                    RESTRICTED RIGHTS LEGEND
  
 Use, reproduction and disclosure by the US Government is
 subject to restrictions as set forth in subparagraphs (a)
 and (c) of the Commercial Computer Software - Restricted
 Rights clause in FAR 52.227-19.
  
 Gaussian, Inc.
 340 Quinnipiac St., Bldg. 40, Wallingford CT 06492
  
  
 ---------------------------------------------------------------
 Warning -- This program may not be used in any manner that
 competes with the business of Gaussian, Inc. or will provide
 assistance to any competitor of Gaussian, Inc.  The licensee
 of this program is prohibited from giving any competitor of
 Gaussian, Inc. access to this program.  By using this program,
 the user acknowledges that Gaussian, Inc. is engaged in the
 business of creating and licensing software in the field of
 computational chemistry and represents and warrants to the
 licensee that it is not a competitor of Gaussian, Inc. and that
 it will not use this program in any manner prohibited above.
 ---------------------------------------------------------------
  

 Cite this work as:
 Gaussian 09, Revision E.01,
 M. J. Frisch, G. W. Trucks, H. B. Schlegel, G. E. Scuseria, 
 M. A. Robb, J. R. Cheeseman, G. Scalmani, V. Barone, B. Mennucci, 
 G. A. Petersson, H. Nakatsuji, M. Caricato, X. Li, H. P. Hratchian, 
 A. F. Izmaylov, J. Bloino, G. Zheng, J. L. Sonnenberg, M. Hada, 
 M. Ehara, K. Toyota, R. Fukuda, J. Hasegawa, M. Ishida, T. Nakajima, 
 Y. Honda, O. Kitao, H. Nakai, T. Vreven, J. A. Montgomery, Jr., 
 J. E. Peralta, F. Ogliaro, M. Bearpark, J. J. Heyd, E. Brothers, 
 K. N. Kudin, V. N. Staroverov, T. Keith, R. Kobayashi, J. Normand, 
 K. Raghavachari, A. Rendell, J. C. Burant, S. S. Iyengar, J. Tomasi, 
 M. Cossi, N. Rega, J. M. Millam, M. Klene, J. E. Knox, J. B. Cross, 
 V. Bakken, C. Adamo, J. Jaramillo, R. Gomperts, R. E. Stratmann, 
 O. Yazyev, A. J. Austin, R. Cammi, C. Pomelli, J. W. Ochterski, 
 R. L. Martin, K. Morokuma, V. G. Zakrzewski, G. A. Voth, 
 P. Salvador, J. J. Dannenberg, S. Dapprich, A. D. Daniels, 
 O. Farkas, J. B. Foresman, J. V. Ortiz, J. Cioslowski, 
 and D. J. Fox, Gaussian, Inc., Wallingford CT, 2013.
 
 ******************************************
 Gaussian 09:  ES64L-G09RevE.01 30-Nov-2015
                26-Aug-2022 
 ******************************************
 %nproc=32
 Will use up to   32 processors via shared memory.
 %mem=180GB
 %chk=G4.Frag_792.chk
 -----
 #P G4
 -----
 1/14=-1,18=20,19=15,26=3,38=1/1,3;
 2/9=110,12=2,17=6,18=5,40=1/2;
 3/5=35,7=104,11=2,16=1,25=1,30=1,71=1,74=-5/1,2,3;
 4//1;
 5/5=2,38=5/2;
 6/7=2,8=2,9=2,10=2,28=1/1;
 7//1,2,3,16;
 1/14=-1,18=20,19=15,26=3/3(2);
 2/9=110/2;
 99//99;
 2/9=110/2;
 3/5=35,7=104,11=2,16=1,25=1,30=1,71=1,74=-5/1,2,3;
 4/5=5,16=3,69=1/1;
 5/5=2,38=5/2;
 7//1,2,3,16;
 1/14=-1,18=20,19=15,26=3/3(-5);
 2/9=110/2;
 6/7=2,8=2,9=2,10=2,19=2,28=1/1;
 99/9=1/99;
 Leave Link    1 at Fri Aug 26 06:17:07 2022, MaxMem= 24159191040 cpu:         2.3
 (Enter /public/home/users/caep010/software/Gaussian09/g09/l101.exe)
 --------
 Frag_792
 --------
 Symbolic Z-matrix:
 Charge =  0 Multiplicity = 1
 C                    -0.1045    0.0598    1.5036 
 C                    -0.3462    0.3616    0.0125 
 C                    -1.3848   -0.5992   -0.5741 
 N                     0.8916    0.3149   -0.7866 
 O                     1.7182    1.303    -0.3614 
 O                     1.5302   -0.8626   -0.5655 
 H                    -1.0511    0.1827    2.0719 
 H                     0.2586   -0.9799    1.6482 
 H                     0.6418    0.7646    1.9266 
 H                    -0.7724    1.3876   -0.061 
 H                    -1.0373   -1.6515   -0.4953 
 H                    -2.3493   -0.4989   -0.0318 
 H                    -1.559    -0.3592   -1.6446 
 H                     1.9144    1.833    -1.1753 
 H                     1.6498   -1.2557   -1.4672 
 
 NAtoms=     15 NQM=       15 NQMF=       0 NMMI=      0 NMMIF=      0
                NMic=       0 NMicF=      0.
                    Isotopes and Nuclear Properties:
 (Nuclear quadrupole moments (NQMom) in fm**2, nuclear magnetic moments (NMagM)
  in nuclear magnetons)

  Atom         1           2           3           4           5           6           7           8           9          10
 IAtWgt=          12          12          12          14          16          16           1           1           1           1
 AtmWgt=  12.0000000  12.0000000  12.0000000  14.0030740  15.9949146  15.9949146   1.0078250   1.0078250   1.0078250   1.0078250
 NucSpn=           0           0           0           2           0           0           1           1           1           1
 AtZEff=   0.0000000   0.0000000   0.0000000   0.0000000   0.0000000   0.0000000   0.0000000   0.0000000   0.0000000   0.0000000
 NQMom=    0.0000000   0.0000000   0.0000000   2.0440000   0.0000000   0.0000000   0.0000000   0.0000000   0.0000000   0.0000000
 NMagM=    0.0000000   0.0000000   0.0000000   0.4037610   0.0000000   0.0000000   2.7928460   2.7928460   2.7928460   2.7928460
 AtZNuc=   6.0000000   6.0000000   6.0000000   7.0000000   8.0000000   8.0000000   1.0000000   1.0000000   1.0000000   1.0000000

  Atom        11          12          13          14          15
 IAtWgt=           1           1           1           1           1
 AtmWgt=   1.0078250   1.0078250   1.0078250   1.0078250   1.0078250
 NucSpn=           1           1           1           1           1
 AtZEff=   0.0000000   0.0000000   0.0000000   0.0000000   0.0000000
 NQMom=    0.0000000   0.0000000   0.0000000   0.0000000   0.0000000
 NMagM=    2.7928460   2.7928460   2.7928460   2.7928460   2.7928460
 AtZNuc=   1.0000000   1.0000000   1.0000000   1.0000000   1.0000000
 Leave Link  101 at Fri Aug 26 06:17:07 2022, MaxMem= 24159191040 cpu:        11.2
 (Enter /public/home/users/caep010/software/Gaussian09/g09/l103.exe)

 GradGradGradGradGradGradGradGradGradGradGradGradGradGradGradGradGradGrad
 Berny optimization.
 Initialization pass.
                           ----------------------------
                           !    Initial Parameters    !
                           ! (Angstroms and Degrees)  !
 --------------------------                            --------------------------
 ! Name  Definition              Value          Derivative Info.                !
 --------------------------------------------------------------------------------
 ! R1    R(1,2)                  1.5404         estimate D2E/DX2                !
 ! R2    R(1,7)                  1.1109         estimate D2E/DX2                !
 ! R3    R(1,8)                  1.1107         estimate D2E/DX2                !
 ! R4    R(1,9)                  1.1102         estimate D2E/DX2                !
 ! R5    R(2,3)                  1.5316         estimate D2E/DX2                !
 ! R6    R(2,4)                  1.4741         estimate D2E/DX2                !
 ! R7    R(2,10)                 1.1134         estimate D2E/DX2                !
 ! R8    R(3,11)                 1.111          estimate D2E/DX2                !
 ! R9    R(3,12)                 1.111          estimate D2E/DX2                !
 ! R10   R(3,13)                 1.1108         estimate D2E/DX2                !
 ! R11   R(4,5)                  1.3566         estimate D2E/DX2                !
 ! R12   R(4,6)                  1.3576         estimate D2E/DX2                !
 ! R13   R(5,14)                 0.9909         estimate D2E/DX2                !
 ! R14   R(6,15)                 0.9909         estimate D2E/DX2                !
 ! A1    A(2,1,7)              109.8654         estimate D2E/DX2                !
 ! A2    A(2,1,8)              111.1433         estimate D2E/DX2                !
 ! A3    A(2,1,9)              110.4811         estimate D2E/DX2                !
 ! A4    A(7,1,8)              108.3915         estimate D2E/DX2                !
 ! A5    A(7,1,9)              107.9171         estimate D2E/DX2                !
 ! A6    A(8,1,9)              108.9582         estimate D2E/DX2                !
 ! A7    A(1,2,3)              110.7458         estimate D2E/DX2                !
 ! A8    A(1,2,4)              112.7546         estimate D2E/DX2                !
 ! A9    A(1,2,10)             107.7279         estimate D2E/DX2                !
 ! A10   A(3,2,4)              109.9936         estimate D2E/DX2                !
 ! A11   A(3,2,10)             107.0496         estimate D2E/DX2                !
 ! A12   A(4,2,10)             108.3508         estimate D2E/DX2                !
 ! A13   A(2,3,11)             110.7873         estimate D2E/DX2                !
 ! A14   A(2,3,12)             110.1874         estimate D2E/DX2                !
 ! A15   A(2,3,13)             109.8704         estimate D2E/DX2                !
 ! A16   A(11,3,12)            108.8091         estimate D2E/DX2                !
 ! A17   A(11,3,13)            108.7868         estimate D2E/DX2                !
 ! A18   A(12,3,13)            108.3453         estimate D2E/DX2                !
 ! A19   A(2,4,5)              108.582          estimate D2E/DX2                !
 ! A20   A(2,4,6)              109.5222         estimate D2E/DX2                !
 ! A21   A(5,4,6)              107.1015         estimate D2E/DX2                !
 ! A22   A(4,5,14)             104.6424         estimate D2E/DX2                !
 ! A23   A(4,6,15)             104.6342         estimate D2E/DX2                !
 ! D1    D(7,1,2,3)            -60.5182         estimate D2E/DX2                !
 ! D2    D(7,1,2,4)            175.7469         estimate D2E/DX2                !
 ! D3    D(7,1,2,10)            56.2413         estimate D2E/DX2                !
 ! D4    D(8,1,2,3)             59.4433         estimate D2E/DX2                !
 ! D5    D(8,1,2,4)            -64.2917         estimate D2E/DX2                !
 ! D6    D(8,1,2,10)           176.2027         estimate D2E/DX2                !
 ! D7    D(9,1,2,3)           -179.4737         estimate D2E/DX2                !
 ! D8    D(9,1,2,4)             56.7914         estimate D2E/DX2                !
 ! D9    D(9,1,2,10)           -62.7142         estimate D2E/DX2                !
 ! D10   D(1,2,3,11)           -60.6129         estimate D2E/DX2                !
 ! D11   D(1,2,3,12)            59.8522         estimate D2E/DX2                !
 ! D12   D(1,2,3,13)           179.157          estimate D2E/DX2                !
 ! D13   D(4,2,3,11)            64.6933         estimate D2E/DX2                !
 ! D14   D(4,2,3,12)          -174.8416         estimate D2E/DX2                !
 ! D15   D(4,2,3,13)           -55.5368         estimate D2E/DX2                !
 ! D16   D(10,2,3,11)         -177.7898         estimate D2E/DX2                !
 ! D17   D(10,2,3,12)          -57.3248         estimate D2E/DX2                !
 ! D18   D(10,2,3,13)           61.9801         estimate D2E/DX2                !
 ! D19   D(1,2,4,5)            -64.2643         estimate D2E/DX2                !
 ! D20   D(1,2,4,6)             52.3741         estimate D2E/DX2                !
 ! D21   D(3,2,4,5)            171.5858         estimate D2E/DX2                !
 ! D22   D(3,2,4,6)            -71.7758         estimate D2E/DX2                !
 ! D23   D(10,2,4,5)            54.8802         estimate D2E/DX2                !
 ! D24   D(10,2,4,6)           171.5185         estimate D2E/DX2                !
 ! D25   D(2,4,5,14)          -124.0925         estimate D2E/DX2                !
 ! D26   D(6,4,5,14)           117.7242         estimate D2E/DX2                !
 ! D27   D(2,4,6,15)           124.9791         estimate D2E/DX2                !
 ! D28   D(5,4,6,15)          -117.4514         estimate D2E/DX2                !
 --------------------------------------------------------------------------------
 Trust Radius=3.00D-01 FncErr=1.00D-07 GrdErr=1.00D-06
 Number of steps in this run=     75 maximum allowed number of steps=    100.
 GradGradGradGradGradGradGradGradGradGradGradGradGradGradGradGradGradGrad

 Leave Link  103 at Fri Aug 26 06:17:08 2022, MaxMem= 24159191040 cpu:         0.7
 (Enter /public/home/users/caep010/software/Gaussian09/g09/l202.exe)
                          Input orientation:                          
 ---------------------------------------------------------------------
 Center     Atomic      Atomic             Coordinates (Angstroms)
 Number     Number       Type             X           Y           Z
 ---------------------------------------------------------------------
      1          6           0       -0.104500    0.059800    1.503600
      2          6           0       -0.346200    0.361600    0.012500
      3          6           0       -1.384800   -0.599200   -0.574100
      4          7           0        0.891600    0.314900   -0.786600
      5          8           0        1.718200    1.303000   -0.361400
      6          8           0        1.530200   -0.862600   -0.565500
      7          1           0       -1.051100    0.182700    2.071900
      8          1           0        0.258600   -0.979900    1.648200
      9          1           0        0.641800    0.764600    1.926600
     10          1           0       -0.772400    1.387600   -0.061000
     11          1           0       -1.037300   -1.651500   -0.495300
     12          1           0       -2.349300   -0.498900   -0.031800
     13          1           0       -1.559000   -0.359200   -1.644600
     14          1           0        1.914400    1.833000   -1.175300
     15          1           0        1.649800   -1.255700   -1.467200
 ---------------------------------------------------------------------
                    Distance matrix (angstroms):
                    1          2          3          4          5
     1  C    0.000000
     2  C    1.540416   0.000000
     3  C    2.527902   1.531642   0.000000
     4  N    2.510440   1.474073   2.462262   0.000000
     5  O    2.888946   2.299518   3.645849   1.356615   0.000000
     6  O    2.793607   2.313791   2.926889   1.357646   2.183306
     7  H    1.110910   2.184037   2.779216   3.458697   3.852927
     8  H    1.110733   2.200209   2.790038   2.829390   3.373508
     9  H    1.110241   2.191422   3.495792   2.761537   2.585238
    10  H    2.158035   1.113429   2.141420   2.108572   2.510077
    11  H    2.791821   2.188162   1.110991   2.769881   4.042249
    12  H    2.776459   2.180558   1.111040   3.425701   4.460946
    13  H    3.493178   2.176331   1.110818   2.682539   3.892242
    14  H    3.794298   2.947236   4.142675   1.871319   0.990872
    15  H    3.692392   2.964656   3.230699   1.872129   2.788264
                    6          7          8          9         10
     6  O    0.000000
     7  H    3.835576   0.000000
     8  H    2.555620   1.801798   0.000000
     9  H    3.106058   1.796004   1.807658   0.000000
    10  H    3.258817   2.465506   3.096673   2.517666   0.000000
    11  H    2.686884   3.155154   2.593260   3.810842   3.081382
    12  H    3.932891   2.564265   3.139252   3.791892   2.458932
    13  H    3.310744   3.789986   3.812017   4.342801   2.485526
    14  H    2.790291   4.697019   4.315812   3.518916   2.942608
    15  H    0.990906   4.678577   3.423043   4.076218   3.851167
                   11         12         13         14         15
    11  H    0.000000
    12  H    1.806838   0.000000
    13  H    1.806405   1.801448   0.000000
    14  H    4.616998   4.992443   4.134065   0.000000
    15  H    2.884745   4.315776   3.336402   3.113725   0.000000
 Stoichiometry    C3H9NO2
 Framework group  C1[X(C3H9NO2)]
 Deg. of freedom    39
 Full point group                 C1      NOp   1
 Largest Abelian subgroup         C1      NOp   1
 Largest concise Abelian subgroup C1      NOp   1
                         Standard orientation:                         
 ---------------------------------------------------------------------
 Center     Atomic      Atomic             Coordinates (Angstroms)
 Number     Number       Type             X           Y           Z
 ---------------------------------------------------------------------
      1          6           0       -0.884139    1.326707    0.600127
      2          6           0       -0.615571    0.223635   -0.441019
      3          6           0       -1.700732   -0.855559   -0.380269
      4          7           0        0.715640   -0.391118   -0.289867
      5          8           0        1.658271    0.553663   -0.533257
      6          8           0        0.883089   -0.800807    0.993612
      7          1           0       -1.864270    1.808083    0.395818
      8          1           0       -0.906399    0.909423    1.629255
      9          1           0       -0.100405    2.111216    0.545883
     10          1           0       -0.674161    0.689028   -1.450822
     11          1           0       -1.723525   -1.335857    0.621277
     12          1           0       -2.697159   -0.409376   -0.586337
     13          1           0       -1.501454   -1.634912   -1.146306
     14          1           0        2.215913    0.170465   -1.257152
     15          1           0        1.113753   -1.761796    0.921585
 ---------------------------------------------------------------------
 Rotational constants (GHZ):      4.8417044      2.8878039      2.5229754
 Leave Link  202 at Fri Aug 26 06:17:08 2022, MaxMem= 24159191040 cpu:         1.1
 (Enter /public/home/users/caep010/software/Gaussian09/g09/l301.exe)
 Standard basis: GTBas3 (6D, 7F)
 Ernie: Thresh=  0.10000D-02 Tol=  0.10000D-05 Strict=F.
 There are   231 symmetry adapted cartesian basis functions of A   symmetry.
 There are   213 symmetry adapted basis functions of A   symmetry.
   213 basis functions,   327 primitive gaussians,   231 cartesian basis functions
    25 alpha electrons       25 beta electrons
       nuclear repulsion energy       273.0716915762 Hartrees.
 IExCor=  402 DFT=T Ex+Corr=B3LYP ExCW=0 ScaHFX=  0.200000
 ScaDFX=  0.800000  0.720000  1.000000  0.810000 ScalE2=  1.000000  1.000000
 IRadAn=      0 IRanWt=     -1 IRanGd=            0 ICorTp=0 IEmpDi=  4
 NAtoms=   15 NActive=   15 NUniq=   15 SFac= 1.00D+00 NAtFMM=   60 NAOKFM=F Big=F
 Integral buffers will be    131072 words long.
 Raffenetti 2 integral format.
 Two-electron integral symmetry is turned on.
 Leave Link  301 at Fri Aug 26 06:17:08 2022, MaxMem= 24159191040 cpu:         1.9
 (Enter /public/home/users/caep010/software/Gaussian09/g09/l302.exe)
 NPDir=0 NMtPBC=     1 NCelOv=     1 NCel=       1 NClECP=     1 NCelD=      1
         NCelK=      1 NCelE2=     1 NClLst=     1 CellRange=     0.0.
 One-electron integrals computed using PRISM.
 NBasis=   213 RedAO= T EigKep=  4.10D-04  NBF=   213
 NBsUse=   213 1.00D-06 EigRej= -1.00D+00 NBFU=   213
 Precomputing XC quadrature grid using
 IXCGrd= 4 IRadAn=           0 IRanWt=          -1 IRanGd=           0 AccXCQ= 0.00D+00.
 Generated NRdTot=       0 NPtTot=           0 NUsed=           0 NTot=          32
 NSgBfM=   231   231   231   231   231 MxSgAt=    15 MxSgA2=    15.
 Leave Link  302 at Fri Aug 26 06:17:08 2022, MaxMem= 24159191040 cpu:        14.8
 (Enter /public/home/users/caep010/software/Gaussian09/g09/l303.exe)
 DipDrv:  MaxL=1.
 Leave Link  303 at Fri Aug 26 06:17:08 2022, MaxMem= 24159191040 cpu:         0.8
 (Enter /public/home/users/caep010/software/Gaussian09/g09/l401.exe)
 ExpMin= 1.61D-01 ExpMax= 5.48D+03 ExpMxC= 8.25D+02 IAcc=1 IRadAn=         1 AccDes= 0.00D+00
 Harris functional with IExCor=  402 and IRadAn=       1 diagonalized for initial guess.
 HarFok:  IExCor=  402 AccDes= 0.00D+00 IRadAn=         1 IDoV= 1 UseB2=F ITyADJ=14
 ICtDFT=  3500011 ScaDFX=  1.000000  1.000000  1.000000  1.000000
 FoFCou: FMM=F IPFlag=           0 FMFlag=      100000 FMFlg1=           0
         NFxFlg=           0 DoJE=T BraDBF=F KetDBF=T FulRan=T
         wScrn=  0.000000 ICntrl=     500 IOpCl=  0 I1Cent=   200000004 NGrid=           0
         NMat0=    1 NMatS0=      1 NMatT0=    0 NMatD0=    1 NMtDS0=    0 NMtDT0=    0
 Petite list used in FoFCou.
 Harris En= -324.890191630105    
 JPrj=0 DoOrth=F DoCkMO=F.
 Leave Link  401 at Fri Aug 26 06:17:09 2022, MaxMem= 24159191040 cpu:        13.8
 (Enter /public/home/users/caep010/software/Gaussian09/g09/l502.exe)
 Closed shell SCF:
 Using DIIS extrapolation, IDIIS=  1040.
 Integral symmetry usage will be decided dynamically.
 Keep R1 ints in memory in canonical form, NReq=266157421.
 IVT=      187717 IEndB=      187717 NGot= 24159191040 MDV= 23899277088
 LenX= 23899277088 LenY= 23899223286
 Requested convergence on RMS density matrix=1.00D-08 within 128 cycles.
 Requested convergence on MAX density matrix=1.00D-06.
 Requested convergence on             energy=1.00D-06.
 No special actions if energy rises.
 FoFCou: FMM=F IPFlag=           0 FMFlag=           0 FMFlg1=           0
         NFxFlg=           0 DoJE=F BraDBF=F KetDBF=F FulRan=T
         wScrn=  0.000000 ICntrl=     600 IOpCl=  0 I1Cent=           0 NGrid=           0
         NMat0=    1 NMatS0=  22791 NMatT0=    0 NMatD0=    1 NMtDS0=    0 NMtDT0=    0
 Symmetry not used in FoFCou.
 Integral accuracy reduced to 1.0D-05 until final iterations.

 Cycle   1  Pass 0  IDiag  1:
 E= -324.643427389487    
 DIIS: error= 2.81D-02 at cycle   1 NSaved=   1.
 NSaved= 1 IEnMin= 1 EnMin= -324.643427389487     IErMin= 1 ErrMin= 2.81D-02
 ErrMax= 2.81D-02  0.00D+00 EMaxC= 1.00D-01 BMatC= 2.29D-01 BMatP= 2.29D-01
 IDIUse=3 WtCom= 7.19D-01 WtEn= 2.81D-01
 Coeff-Com:  0.100D+01
 Coeff-En:   0.100D+01
 Coeff:      0.100D+01
 Gap=     0.292 Goal=   None    Shift=    0.000
 GapD=    0.292 DampG=1.000 DampE=0.500 DampFc=0.5000 IDamp=-1.
 Damping current iteration by 5.00D-01
 RMSDP=4.56D-03 MaxDP=1.34D-01              OVMax= 1.73D-01

 Cycle   2  Pass 0  IDiag  1:
 E= -324.726484019194     Delta-E=       -0.083056629707 Rises=F Damp=T
 DIIS: error= 6.30D-03 at cycle   2 NSaved=   2.
 NSaved= 2 IEnMin= 2 EnMin= -324.726484019194     IErMin= 2 ErrMin= 6.30D-03
 ErrMax= 6.30D-03  0.00D+00 EMaxC= 1.00D-01 BMatC= 1.78D-02 BMatP= 2.29D-01
 IDIUse=3 WtCom= 9.37D-01 WtEn= 6.30D-02
 Coeff-Com:  0.134D+00 0.866D+00
 Coeff-En:   0.208D+00 0.792D+00
 Coeff:      0.138D+00 0.862D+00
 Gap=     0.290 Goal=   None    Shift=    0.000
 RMSDP=8.74D-04 MaxDP=3.29D-02 DE=-8.31D-02 OVMax= 9.30D-02

 Cycle   3  Pass 0  IDiag  1:
 E= -324.846961532896     Delta-E=       -0.120477513702 Rises=F Damp=F
 DIIS: error= 2.51D-03 at cycle   3 NSaved=   3.
 NSaved= 3 IEnMin= 3 EnMin= -324.846961532896     IErMin= 3 ErrMin= 2.51D-03
 ErrMax= 2.51D-03  0.00D+00 EMaxC= 1.00D-01 BMatC= 5.16D-03 BMatP= 1.78D-02
 IDIUse=3 WtCom= 9.75D-01 WtEn= 2.51D-02
 Coeff-Com:  0.174D-01 0.328D+00 0.655D+00
 Coeff-En:   0.000D+00 0.000D+00 0.100D+01
 Coeff:      0.170D-01 0.319D+00 0.664D+00
 Gap=     0.282 Goal=   None    Shift=    0.000
 RMSDP=3.88D-04 MaxDP=1.93D-02 DE=-1.20D-01 OVMax= 1.80D-02

 Cycle   4  Pass 0  IDiag  1:
 E= -324.849583773821     Delta-E=       -0.002622240924 Rises=F Damp=F
 DIIS: error= 1.83D-03 at cycle   4 NSaved=   4.
 NSaved= 4 IEnMin= 4 EnMin= -324.849583773821     IErMin= 4 ErrMin= 1.83D-03
 ErrMax= 1.83D-03  0.00D+00 EMaxC= 1.00D-01 BMatC= 1.62D-03 BMatP= 5.16D-03
 IDIUse=3 WtCom= 9.82D-01 WtEn= 1.83D-02
 Coeff-Com: -0.154D-02 0.714D-01 0.374D+00 0.556D+00
 Coeff-En:   0.000D+00 0.000D+00 0.254D+00 0.746D+00
 Coeff:     -0.151D-02 0.701D-01 0.372D+00 0.559D+00
 Gap=     0.275 Goal=   None    Shift=    0.000
 RMSDP=1.59D-04 MaxDP=6.76D-03 DE=-2.62D-03 OVMax= 6.84D-03

 Cycle   5  Pass 0  IDiag  1:
 E= -324.850849268870     Delta-E=       -0.001265495050 Rises=F Damp=F
 DIIS: error= 3.69D-04 at cycle   5 NSaved=   5.
 NSaved= 5 IEnMin= 5 EnMin= -324.850849268870     IErMin= 5 ErrMin= 3.69D-04
 ErrMax= 3.69D-04  0.00D+00 EMaxC= 1.00D-01 BMatC= 4.31D-05 BMatP= 1.62D-03
 IDIUse=3 WtCom= 9.96D-01 WtEn= 3.69D-03
 Coeff-Com: -0.110D-02 0.497D-02 0.104D+00 0.221D+00 0.672D+00
 Coeff-En:   0.000D+00 0.000D+00 0.000D+00 0.000D+00 0.100D+01
 Coeff:     -0.110D-02 0.495D-02 0.103D+00 0.220D+00 0.673D+00
 Gap=     0.275 Goal=   None    Shift=    0.000
 RMSDP=2.93D-05 MaxDP=9.11D-04 DE=-1.27D-03 OVMax= 1.26D-03

 Cycle   6  Pass 0  IDiag  1:
 E= -324.850883761090     Delta-E=       -0.000034492220 Rises=F Damp=F
 DIIS: error= 8.79D-05 at cycle   6 NSaved=   6.
 NSaved= 6 IEnMin= 6 EnMin= -324.850883761090     IErMin= 6 ErrMin= 8.79D-05
 ErrMax= 8.79D-05  0.00D+00 EMaxC= 1.00D-01 BMatC= 2.90D-06 BMatP= 4.31D-05
 IDIUse=1 WtCom= 1.00D+00 WtEn= 0.00D+00
 Coeff-Com: -0.347D-03-0.315D-03 0.367D-01 0.861D-01 0.324D+00 0.553D+00
 Coeff:     -0.347D-03-0.315D-03 0.367D-01 0.861D-01 0.324D+00 0.553D+00
 Gap=     0.275 Goal=   None    Shift=    0.000
 RMSDP=8.56D-06 MaxDP=5.10D-04 DE=-3.45D-05 OVMax= 3.58D-04

 Initial convergence to 1.0D-05 achieved.  Increase integral accuracy.
 Cycle   7  Pass 1  IDiag  1:
 E= -324.850862393836     Delta-E=        0.000021367254 Rises=F Damp=F
 DIIS: error= 2.29D-05 at cycle   1 NSaved=   1.
 NSaved= 1 IEnMin= 1 EnMin= -324.850862393836     IErMin= 1 ErrMin= 2.29D-05
 ErrMax= 2.29D-05  0.00D+00 EMaxC= 1.00D-01 BMatC= 2.74D-07 BMatP= 2.74D-07
 IDIUse=1 WtCom= 1.00D+00 WtEn= 0.00D+00
 Coeff-Com:  0.100D+01
 Coeff:      0.100D+01
 Gap=     0.275 Goal=   None    Shift=    0.000
 RMSDP=8.56D-06 MaxDP=5.10D-04 DE= 2.14D-05 OVMax= 1.64D-04

 Cycle   8  Pass 1  IDiag  1:
 E= -324.850862466714     Delta-E=       -0.000000072878 Rises=F Damp=F
 DIIS: error= 2.14D-05 at cycle   2 NSaved=   2.
 NSaved= 2 IEnMin= 2 EnMin= -324.850862466714     IErMin= 2 ErrMin= 2.14D-05
 ErrMax= 2.14D-05  0.00D+00 EMaxC= 1.00D-01 BMatC= 1.81D-07 BMatP= 2.74D-07
 IDIUse=1 WtCom= 1.00D+00 WtEn= 0.00D+00
 Coeff-Com:  0.437D+00 0.563D+00
 Coeff:      0.437D+00 0.563D+00
 Gap=     0.275 Goal=   None    Shift=    0.000
 RMSDP=2.50D-06 MaxDP=1.36D-04 DE=-7.29D-08 OVMax= 9.44D-05

 Cycle   9  Pass 1  IDiag  1:
 E= -324.850862616428     Delta-E=       -0.000000149714 Rises=F Damp=F
 DIIS: error= 6.44D-06 at cycle   3 NSaved=   3.
 NSaved= 3 IEnMin= 3 EnMin= -324.850862616428     IErMin= 3 ErrMin= 6.44D-06
 ErrMax= 6.44D-06  0.00D+00 EMaxC= 1.00D-01 BMatC= 2.02D-08 BMatP= 1.81D-07
 IDIUse=1 WtCom= 1.00D+00 WtEn= 0.00D+00
 Coeff-Com:  0.186D-01 0.249D+00 0.733D+00
 Coeff:      0.186D-01 0.249D+00 0.733D+00
 Gap=     0.275 Goal=   None    Shift=    0.000
 RMSDP=6.80D-07 MaxDP=2.95D-05 DE=-1.50D-07 OVMax= 2.75D-05

 Cycle  10  Pass 1  IDiag  1:
 E= -324.850862632196     Delta-E=       -0.000000015767 Rises=F Damp=F
 DIIS: error= 2.26D-06 at cycle   4 NSaved=   4.
 NSaved= 4 IEnMin= 4 EnMin= -324.850862632196     IErMin= 4 ErrMin= 2.26D-06
 ErrMax= 2.26D-06  0.00D+00 EMaxC= 1.00D-01 BMatC= 2.03D-09 BMatP= 2.02D-08
 IDIUse=1 WtCom= 1.00D+00 WtEn= 0.00D+00
 Coeff-Com: -0.115D-01 0.108D+00 0.389D+00 0.515D+00
 Coeff:     -0.115D-01 0.108D+00 0.389D+00 0.515D+00
 Gap=     0.275 Goal=   None    Shift=    0.000
 RMSDP=1.81D-07 MaxDP=9.29D-06 DE=-1.58D-08 OVMax= 8.35D-06

 Cycle  11  Pass 1  IDiag  1:
 E= -324.850862633589     Delta-E=       -0.000000001393 Rises=F Damp=F
 DIIS: error= 4.76D-07 at cycle   5 NSaved=   5.
 NSaved= 5 IEnMin= 5 EnMin= -324.850862633589     IErMin= 5 ErrMin= 4.76D-07
 ErrMax= 4.76D-07  0.00D+00 EMaxC= 1.00D-01 BMatC= 1.24D-10 BMatP= 2.03D-09
 IDIUse=1 WtCom= 1.00D+00 WtEn= 0.00D+00
 Coeff-Com: -0.719D-02 0.444D-01 0.169D+00 0.279D+00 0.515D+00
 Coeff:     -0.719D-02 0.444D-01 0.169D+00 0.279D+00 0.515D+00
 Gap=     0.275 Goal=   None    Shift=    0.000
 RMSDP=4.60D-08 MaxDP=1.58D-06 DE=-1.39D-09 OVMax= 2.01D-06

 Cycle  12  Pass 1  IDiag  1:
 E= -324.850862633676     Delta-E=       -0.000000000087 Rises=F Damp=F
 DIIS: error= 7.41D-08 at cycle   6 NSaved=   6.
 NSaved= 6 IEnMin= 6 EnMin= -324.850862633676     IErMin= 6 ErrMin= 7.41D-08
 ErrMax= 7.41D-08  0.00D+00 EMaxC= 1.00D-01 BMatC= 2.16D-12 BMatP= 1.24D-10
 IDIUse=1 WtCom= 1.00D+00 WtEn= 0.00D+00
 Coeff-Com: -0.125D-02 0.550D-02 0.217D-01 0.388D-01 0.142D+00 0.793D+00
 Coeff:     -0.125D-02 0.550D-02 0.217D-01 0.388D-01 0.142D+00 0.793D+00
 Gap=     0.275 Goal=   None    Shift=    0.000
 RMSDP=9.04D-09 MaxDP=2.72D-07 DE=-8.69D-11 OVMax= 3.89D-07

 SCF Done:  E(RB3LYP) =  -324.850862634     A.U. after   12 cycles
            NFock= 12  Conv=0.90D-08     -V/T= 2.0069
 KE= 3.226328259009D+02 PE=-1.306763294044D+03 EE= 3.862079139332D+02
 Leave Link  502 at Fri Aug 26 06:17:17 2022, MaxMem= 24159191040 cpu:        89.0
 (Enter /public/home/users/caep010/software/Gaussian09/g09/l601.exe)
 Copying SCF densities to generalized density rwf, IOpCl= 0 IROHF=0.

 **********************************************************************

            Population analysis using the SCF density.

 **********************************************************************

 Orbital symmetries:
       Occupied  (A) (A) (A) (A) (A) (A) (A) (A) (A) (A) (A) (A)
                 (A) (A) (A) (A) (A) (A) (A) (A) (A) (A) (A) (A)
                 (A)
       Virtual   (A) (A) (A) (A) (A) (A) (A) (A) (A) (A) (A) (A)
                 (A) (A) (A) (A) (A) (A) (A) (A) (A) (A) (A) (A)
                 (A) (A) (A) (A) (A) (A) (A) (A) (A) (A) (A) (A)
                 (A) (A) (A) (A) (A) (A) (A) (A) (A) (A) (A) (A)
                 (A) (A) (A) (A) (A) (A) (A) (A) (A) (A) (A) (A)
                 (A) (A) (A) (A) (A) (A) (A) (A) (A) (A) (A) (A)
                 (A) (A) (A) (A) (A) (A) (A) (A) (A) (A) (A) (A)
                 (A) (A) (A) (A) (A) (A) (A) (A) (A) (A) (A) (A)
                 (A) (A) (A) (A) (A) (A) (A) (A) (A) (A) (A) (A)
                 (A) (A) (A) (A) (A) (A) (A) (A) (A) (A) (A) (A)
                 (A) (A) (A) (A) (A) (A) (A) (A) (A) (A) (A) (A)
                 (A) (A) (A) (A) (A) (A) (A) (A) (A) (A) (A) (A)
                 (A) (A) (A) (A) (A) (A) (A) (A) (A) (A) (A) (A)
                 (A) (A) (A) (A) (A) (A) (A) (A) (A) (A) (A) (A)
                 (A) (A) (A) (A) (A) (A) (A) (A) (A) (A) (A) (A)
                 (A) (A) (A) (A) (A) (A) (A) (A)
 The electronic state is 1-A.
 Alpha  occ. eigenvalues --  -19.16393 -19.16083 -14.40274 -10.20838 -10.17477
 Alpha  occ. eigenvalues --  -10.16495  -1.13076  -1.01012  -0.81421  -0.71101
 Alpha  occ. eigenvalues --   -0.67249  -0.58204  -0.53274  -0.49792  -0.48071
 Alpha  occ. eigenvalues --   -0.42969  -0.40551  -0.39122  -0.37876  -0.36914
 Alpha  occ. eigenvalues --   -0.33369  -0.32932  -0.30411  -0.28528  -0.21553
 Alpha virt. eigenvalues --    0.05970   0.09169   0.11162   0.14209   0.15063
 Alpha virt. eigenvalues --    0.15639   0.17360   0.18773   0.19243   0.19709
 Alpha virt. eigenvalues --    0.22170   0.23577   0.25541   0.27717   0.46214
 Alpha virt. eigenvalues --    0.47971   0.49018   0.49741   0.51860   0.55701
 Alpha virt. eigenvalues --    0.57998   0.61219   0.61919   0.62325   0.65882
 Alpha virt. eigenvalues --    0.67183   0.67668   0.70898   0.73219   0.74022
 Alpha virt. eigenvalues --    0.74531   0.75218   0.76667   0.79758   0.82306
 Alpha virt. eigenvalues --    0.84646   0.85255   0.87391   0.87608   0.89283
 Alpha virt. eigenvalues --    0.89856   0.92563   0.94161   0.96684   0.99588
 Alpha virt. eigenvalues --    1.04423   1.06278   1.09343   1.13856   1.15715
 Alpha virt. eigenvalues --    1.21992   1.27669   1.34091   1.38853   1.40526
 Alpha virt. eigenvalues --    1.43021   1.45360   1.46503   1.49126   1.52448
 Alpha virt. eigenvalues --    1.56107   1.57123   1.63005   1.63900   1.67608
 Alpha virt. eigenvalues --    1.72376   1.74105   1.76825   1.79328   1.82918
 Alpha virt. eigenvalues --    1.84399   1.85264   1.93576   1.95170   1.96149
 Alpha virt. eigenvalues --    1.99793   2.01476   2.14240   2.24407   2.26653
 Alpha virt. eigenvalues --    2.29141   2.31206   2.37845   2.42197   2.42756
 Alpha virt. eigenvalues --    2.49767   2.53932   2.56719   2.62922   2.66214
 Alpha virt. eigenvalues --    2.68457   2.72405   2.76588   2.77384   2.81093
 Alpha virt. eigenvalues --    2.85010   2.85745   2.89277   2.91193   2.92694
 Alpha virt. eigenvalues --    2.94787   2.96081   2.97966   3.02500   3.08646
 Alpha virt. eigenvalues --    3.12908   3.15737   3.30040   3.34407   3.39414
 Alpha virt. eigenvalues --    3.39827   3.45470   3.48939   3.54536   3.55857
 Alpha virt. eigenvalues --    3.60747   3.64078   3.66145   3.67670   3.73750
 Alpha virt. eigenvalues --    3.78740   3.79533   3.81281   3.91216   3.94468
 Alpha virt. eigenvalues --    3.97277   4.07085   4.08959   4.13114   4.16381
 Alpha virt. eigenvalues --    4.21178   4.22604   4.28116   4.36916   4.38605
 Alpha virt. eigenvalues --    4.40411   4.41720   4.46712   4.48012   4.51631
 Alpha virt. eigenvalues --    4.53396   4.55187   4.59256   4.60693   4.63057
 Alpha virt. eigenvalues --    4.66440   4.67216   4.69803   4.72195   4.76118
 Alpha virt. eigenvalues --    4.77871   4.80575   4.81444   4.83453   4.85609
 Alpha virt. eigenvalues --    4.86913   4.93179   4.97536   5.06674   5.09115
 Alpha virt. eigenvalues --    5.27152   5.29734   5.34090   5.34677   5.37724
 Alpha virt. eigenvalues --    5.41249   5.41642   5.47309   5.51569   5.53602
 Alpha virt. eigenvalues --    5.61357   5.62916   5.84686   5.93638   6.04726
 Alpha virt. eigenvalues --    6.10901   6.14824   6.24639   6.28962   7.10841
 Alpha virt. eigenvalues --    7.12884  11.06437  11.37030  11.82361  12.07171
 Alpha virt. eigenvalues --   13.09565  13.32568  13.89682
          Condensed to atoms (all electrons):
               1          2          3          4          5          6
     1  C    5.064240   0.370451  -0.048373  -0.057909  -0.001419  -0.001214
     2  C    0.370451   4.631242   0.370643   0.412861  -0.074173  -0.086739
     3  C   -0.048373   0.370643   5.061946  -0.039518   0.003813   0.004175
     4  N   -0.057909   0.412861  -0.039518   6.446197   0.218990   0.191523
     5  O   -0.001419  -0.074173   0.003813   0.218990   7.968512  -0.071186
     6  O   -0.001214  -0.086739   0.004175   0.191523  -0.071186   8.001977
     7  H    0.366197  -0.019271  -0.003197   0.003198  -0.000056   0.000099
     8  H    0.375823  -0.025032  -0.005431  -0.006248   0.000350   0.007801
     9  H    0.370274  -0.022005   0.004884  -0.005745   0.008056   0.000844
    10  H   -0.047582   0.363678  -0.041320  -0.029261   0.004794   0.003126
    11  H   -0.005377  -0.024508   0.365324  -0.003346   0.000115   0.008270
    12  H   -0.000154  -0.019705   0.365005   0.002640  -0.000068   0.000115
    13  H    0.005859  -0.024737   0.360388   0.003618   0.000066   0.000011
    14  H   -0.000169   0.006533  -0.000668  -0.068224   0.302208   0.005495
    15  H   -0.000355   0.004682   0.000147  -0.061503   0.005466   0.299207
               7          8          9         10         11         12
     1  C    0.366197   0.375823   0.370274  -0.047582  -0.005377  -0.000154
     2  C   -0.019271  -0.025032  -0.022005   0.363678  -0.024508  -0.019705
     3  C   -0.003197  -0.005431   0.004884  -0.041320   0.365324   0.365005
     4  N    0.003198  -0.006248  -0.005745  -0.029261  -0.003346   0.002640
     5  O   -0.000056   0.000350   0.008056   0.004794   0.000115  -0.000068
     6  O    0.000099   0.007801   0.000844   0.003126   0.008270   0.000115
     7  H    0.610293  -0.030827  -0.030020  -0.002869  -0.000036   0.002219
     8  H   -0.030827   0.574155  -0.027658   0.005205   0.004890   0.000084
     9  H   -0.030020  -0.027658   0.577043  -0.002100  -0.000035  -0.000008
    10  H   -0.002869   0.005205  -0.002100   0.664306   0.005766  -0.003176
    11  H   -0.000036   0.004890  -0.000035   0.005766   0.588565  -0.028217
    12  H    0.002219   0.000084  -0.000008  -0.003176  -0.028217   0.595059
    13  H   -0.000068   0.000008  -0.000186  -0.002971  -0.030085  -0.027982
    14  H   -0.000001  -0.000037  -0.000375   0.000058  -0.000008   0.000001
    15  H   -0.000006  -0.000335  -0.000076  -0.000282  -0.000465   0.000006
              13         14         15
     1  C    0.005859  -0.000169  -0.000355
     2  C   -0.024737   0.006533   0.004682
     3  C    0.360388  -0.000668   0.000147
     4  N    0.003618  -0.068224  -0.061503
     5  O    0.000066   0.302208   0.005466
     6  O    0.000011   0.005495   0.299207
     7  H   -0.000068  -0.000001  -0.000006
     8  H    0.000008  -0.000037  -0.000335
     9  H   -0.000186  -0.000375  -0.000076
    10  H   -0.002971   0.000058  -0.000282
    11  H   -0.030085  -0.000008  -0.000465
    12  H   -0.027982   0.000001   0.000006
    13  H    0.607222  -0.000028  -0.000132
    14  H   -0.000028   0.454905  -0.000404
    15  H   -0.000132  -0.000404   0.450175
 Mulliken charges:
               1
     1  C   -0.390290
     2  C    0.136079
     3  C   -0.397817
     4  N   -0.007272
     5  O   -0.365467
     6  O   -0.363503
     7  H    0.104345
     8  H    0.127253
     9  H    0.127107
    10  H    0.082629
    11  H    0.119144
    12  H    0.114181
    13  H    0.109018
    14  H    0.300716
    15  H    0.303877
 Sum of Mulliken charges =  -0.00000
 Mulliken charges with hydrogens summed into heavy atoms:
               1
     1  C   -0.031586
     2  C    0.218708
     3  C   -0.055473
     4  N   -0.007272
     5  O   -0.064751
     6  O   -0.059626
 Electronic spatial extent (au):  <R**2>=            596.2475
 Charge=             -0.0000 electrons
 Dipole moment (field-independent basis, Debye):
    X=              0.1207    Y=             -1.4082    Z=             -1.2224  Tot=              1.8687
 Quadrupole moment (field-independent basis, Debye-Ang):
   XX=            -34.5900   YY=            -35.0894   ZZ=            -36.3568
   XY=             -3.0905   XZ=             -2.3882   YZ=             -1.6182
 Traceless Quadrupole moment (field-independent basis, Debye-Ang):
   XX=              0.7554   YY=              0.2560   ZZ=             -1.0114
   XY=             -3.0905   XZ=             -2.3882   YZ=             -1.6182
 Octapole moment (field-independent basis, Debye-Ang**2):
  XXX=             22.3263  YYY=            -11.4156  ZZZ=             -3.0763  XYY=              8.8121
  XXY=             -3.9781  XXZ=             -7.9044  XZZ=              8.5946  YZZ=             -1.7107
  YYZ=              4.6343  XYZ=             -1.0879
 Hexadecapole moment (field-independent basis, Debye-Ang**3):
 XXXX=           -359.7144 YYYY=           -206.4416 ZZZZ=           -134.2883 XXXY=            -11.5802
 XXXZ=            -20.0273 YYYX=            -11.2451 YYYZ=            -15.1845 ZZZX=             -9.9619
 ZZZY=             -8.4843 XXYY=            -99.0840 XXZZ=            -76.4482 YYZZ=            -57.7066
 XXYZ=             -5.9609 YYXZ=              6.0386 ZZXY=             -0.4656
 N-N= 2.730716915762D+02 E-N=-1.306763303991D+03  KE= 3.226328259009D+02
 No NMR shielding tensors so no spin-rotation constants.
 Leave Link  601 at Fri Aug 26 06:17:17 2022, MaxMem= 24159191040 cpu:        13.5
 (Enter /public/home/users/caep010/software/Gaussian09/g09/l701.exe)
 Compute integral first derivatives.
 ... and contract with generalized density number  0.
 Leave Link  701 at Fri Aug 26 06:17:18 2022, MaxMem= 24159191040 cpu:        13.8
 (Enter /public/home/users/caep010/software/Gaussian09/g09/l702.exe)
 L702 exits ... SP integral derivatives will be done elsewhere.
 Leave Link  702 at Fri Aug 26 06:17:18 2022, MaxMem= 24159191040 cpu:         0.5
 (Enter /public/home/users/caep010/software/Gaussian09/g09/l703.exe)
 Compute integral first derivatives, UseDBF=F ICtDFT=           0.
 Integral derivatives from FoFJK, PRISM(SPDF).
 Calling FoFJK, ICntrl=      2127 FMM=F ISym2X=0 I1Cent= 0 IOpClX= 0 NMat=1 NMatS=1 NMatT=0.
 FoFJK:  IHMeth= 1 ICntrl=    2127 DoSepK=F KAlg= 0 I1Cent=   0 FoldK=F
 IRaf=         0 NMat=   1 IRICut=       1 DoRegI=T DoRafI=F ISym2E= 0.
 FoFCou: FMM=F IPFlag=           0 FMFlag=      100000 FMFlg1=         800
         NFxFlg=           0 DoJE=F BraDBF=F KetDBF=F FulRan=T
         wScrn=  0.000000 ICntrl=    2127 IOpCl=  0 I1Cent=           0 NGrid=           0
         NMat0=    1 NMatS0=      1 NMatT0=    0 NMatD0=    1 NMtDS0=    0 NMtDT0=    0
 Symmetry not used in FoFCou.
 Leave Link  703 at Fri Aug 26 06:17:19 2022, MaxMem= 24159191040 cpu:        47.7
 (Enter /public/home/users/caep010/software/Gaussian09/g09/l716.exe)
 Dipole        = 4.74698962D-02-5.54046874D-01-4.80932964D-01
 ***** Axes restored to original set *****
 -------------------------------------------------------------------
 Center     Atomic                   Forces (Hartrees/Bohr)
 Number     Number              X              Y              Z
 -------------------------------------------------------------------
      1        6           0.001568044    0.001405624    0.009720466
      2        6          -0.010807074   -0.001574317    0.016751149
      3        6          -0.002801097   -0.004212353   -0.007541356
      4        7          -0.047903177    0.012179558   -0.033684879
      5        8           0.029242930    0.047461327   -0.003173683
      6        8           0.018250496   -0.049340952   -0.013050528
      7        1           0.008806677   -0.001558789   -0.004847118
      8        1          -0.003289298    0.010916267   -0.001543596
      9        1          -0.006531958   -0.007752229   -0.003706331
     10        1           0.011542586   -0.008118676   -0.003970541
     11        1          -0.004235040    0.009832549   -0.000897180
     12        1           0.009757694   -0.001660639   -0.005067439
     13        1           0.000562635   -0.003951738    0.009137959
     14        1          -0.002899189   -0.013743748    0.019741321
     15        1          -0.001264229    0.010118117    0.022131758
 -------------------------------------------------------------------
 Cartesian Forces:  Max     0.049340952 RMS     0.016533653
 Leave Link  716 at Fri Aug 26 06:17:19 2022, MaxMem= 24159191040 cpu:         0.7
 (Enter /public/home/users/caep010/software/Gaussian09/g09/l103.exe)

 GradGradGradGradGradGradGradGradGradGradGradGradGradGradGradGradGradGrad
 Berny optimization.
 FormGI is forming the generalized inverse of G from B-inverse, IUseBI=4.
 Internal  Forces:  Max     0.045792628 RMS     0.009803254
 Search for a local minimum.
 Step number   1 out of a maximum of   75
 All quantities printed in internal units (Hartrees-Bohrs-Radians)
 RMS Force = .98033D-02 SwitMx=.10000D-02 MixMth= 1
 Mixed Optimization -- RFO/linear search
 Second derivative matrix not updated -- first step.
 ITU=  0
     Eigenvalues ---    0.00231   0.00347   0.00712   0.01855   0.01869
     Eigenvalues ---    0.03822   0.04830   0.05427   0.05439   0.05586
     Eigenvalues ---    0.05610   0.05698   0.05744   0.16000   0.16000
     Eigenvalues ---    0.16000   0.16000   0.16000   0.16000   0.16000
     Eigenvalues ---    0.16000   0.16770   0.18304   0.19030   0.20936
     Eigenvalues ---    0.28482   0.29272   0.32240   0.32490   0.32495
     Eigenvalues ---    0.32504   0.32514   0.32523   0.32574   0.35257
     Eigenvalues ---    0.49324   0.49330   0.53426   0.53638
 RFO step:  Lambda=-1.49048376D-02 EMin= 2.31321724D-03
 Linear search not attempted -- first point.
 Iteration  1 RMS(Cart)=  0.03435547 RMS(Int)=  0.00106365
 Iteration  2 RMS(Cart)=  0.00134298 RMS(Int)=  0.00032150
 Iteration  3 RMS(Cart)=  0.00000140 RMS(Int)=  0.00032150
 Iteration  4 RMS(Cart)=  0.00000000 RMS(Int)=  0.00032150
 ITry= 1 IFail=0 DXMaxC= 1.28D-01 DCOld= 1.00D+10 DXMaxT= 3.00D-01 DXLimC= 3.00D+00 Rises=F
 Variable       Old X    -DE/DX   Delta X   Delta X   Delta X     New X
                                 (Linear)    (Quad)   (Total)
    R1        2.91096  -0.00087   0.00000  -0.00289  -0.00289   2.90808
    R2        2.09932  -0.01016   0.00000  -0.02989  -0.02989   2.06943
    R3        2.09898  -0.01150   0.00000  -0.03380  -0.03380   2.06518
    R4        2.09805  -0.01072   0.00000  -0.03147  -0.03147   2.06659
    R5        2.89438  -0.00056   0.00000  -0.00181  -0.00181   2.89257
    R6        2.78559   0.00031   0.00000   0.00083   0.00083   2.78643
    R7        2.10408  -0.01164   0.00000  -0.03450  -0.03450   2.06957
    R8        2.09947  -0.01070   0.00000  -0.03148  -0.03148   2.06799
    R9        2.09956  -0.01109   0.00000  -0.03264  -0.03264   2.06692
   R10        2.09914  -0.00975   0.00000  -0.02869  -0.02869   2.07045
   R11        2.56363   0.04579   0.00000   0.08307   0.08307   2.64670
   R12        2.56558   0.04348   0.00000   0.07918   0.07918   2.64476
   R13        1.87248  -0.02413   0.00000  -0.04749  -0.04749   1.82499
   R14        1.87254  -0.02430   0.00000  -0.04783  -0.04783   1.82471
    A1        1.91751   0.00078   0.00000   0.00642   0.00640   1.92391
    A2        1.93982  -0.00051   0.00000  -0.00499  -0.00498   1.93483
    A3        1.92826   0.00092   0.00000   0.00535   0.00532   1.93358
    A4        1.89179  -0.00019   0.00000  -0.00132  -0.00131   1.89048
    A5        1.88351  -0.00025   0.00000   0.00266   0.00261   1.88612
    A6        1.90168  -0.00077   0.00000  -0.00812  -0.00812   1.89356
    A7        1.93288   0.00215   0.00000   0.02709   0.02673   1.95961
    A8        1.96794   0.00279   0.00000   0.01582   0.01600   1.98394
    A9        1.88021  -0.00012   0.00000   0.01170   0.01099   1.89120
   A10        1.91975  -0.00345   0.00000  -0.01710  -0.01743   1.90232
   A11        1.86837   0.00256   0.00000   0.02793   0.02678   1.89514
   A12        1.89108  -0.00399   0.00000  -0.06634  -0.06608   1.82500
   A13        1.93360   0.00062   0.00000   0.00189   0.00185   1.93546
   A14        1.92313  -0.00041   0.00000  -0.00321  -0.00323   1.91990
   A15        1.91760   0.00300   0.00000   0.01964   0.01960   1.93720
   A16        1.89908  -0.00082   0.00000  -0.00942  -0.00943   1.88965
   A17        1.89869  -0.00165   0.00000  -0.00787  -0.00793   1.89076
   A18        1.89098  -0.00082   0.00000  -0.00143  -0.00147   1.88952
   A19        1.89511  -0.00325   0.00000  -0.02639  -0.02688   1.86824
   A20        1.91152  -0.00664   0.00000  -0.04149  -0.04190   1.86962
   A21        1.86927   0.00379   0.00000   0.00334   0.00211   1.87139
   A22        1.82635   0.00098   0.00000   0.00558   0.00558   1.83193
   A23        1.82621   0.00072   0.00000   0.00412   0.00412   1.83033
    D1       -1.05624  -0.00145   0.00000  -0.01362  -0.01348  -1.06972
    D2        3.06736  -0.00060   0.00000  -0.02337  -0.02348   3.04388
    D3        0.98160   0.00274   0.00000   0.04167   0.04170   1.02330
    D4        1.03748  -0.00150   0.00000  -0.01426  -0.01414   1.02335
    D5       -1.12210  -0.00066   0.00000  -0.02401  -0.02414  -1.14624
    D6        3.07532   0.00269   0.00000   0.04104   0.04104   3.11636
    D7       -3.13241  -0.00220   0.00000  -0.02424  -0.02413   3.12665
    D8        0.99120  -0.00136   0.00000  -0.03399  -0.03414   0.95706
    D9       -1.09457   0.00199   0.00000   0.03105   0.03105  -1.06352
   D10       -1.05789   0.00037   0.00000   0.01241   0.01273  -1.04517
   D11        1.04462  -0.00053   0.00000  -0.00026   0.00004   1.04465
   D12        3.12688   0.00008   0.00000   0.00825   0.00854   3.13542
   D13        1.12911   0.00300   0.00000   0.03977   0.03987   1.16898
   D14       -3.05156   0.00210   0.00000   0.02709   0.02718  -3.02438
   D15       -0.96930   0.00271   0.00000   0.03560   0.03569  -0.93361
   D16       -3.10302  -0.00213   0.00000  -0.03249  -0.03287  -3.13589
   D17       -1.00051  -0.00303   0.00000  -0.04516  -0.04556  -1.04607
   D18        1.08176  -0.00242   0.00000  -0.03666  -0.03706   1.04470
   D19       -1.12162   0.00221   0.00000   0.06287   0.06247  -1.05916
   D20        0.91410   0.00123   0.00000   0.02896   0.02930   0.94340
   D21        2.99474  -0.00001   0.00000   0.02897   0.02910   3.02383
   D22       -1.25272  -0.00099   0.00000  -0.00493  -0.00407  -1.25679
   D23        0.95784   0.00112   0.00000   0.04303   0.04219   1.00003
   D24        2.99356   0.00014   0.00000   0.00912   0.00902   3.00258
   D25       -2.16582  -0.00554   0.00000  -0.08408  -0.08418  -2.25000
   D26        2.05467   0.00195   0.00000  -0.02296  -0.02286   2.03181
   D27        2.18130   0.00416   0.00000   0.07152   0.07152   2.25282
   D28       -2.04991  -0.00110   0.00000   0.01999   0.01999  -2.02992
         Item               Value     Threshold  Converged?
 Maximum Force            0.045793     0.000450     NO 
 RMS     Force            0.009803     0.000300     NO 
 Maximum Displacement     0.128251     0.001800     NO 
 RMS     Displacement     0.034444     0.001200     NO 
 Predicted change in Energy=-7.984450D-03
 Lowest energy point so far.  Saving SCF results.
 GradGradGradGradGradGradGradGradGradGradGradGradGradGradGradGradGradGrad

 Leave Link  103 at Fri Aug 26 06:17:20 2022, MaxMem= 24159191040 cpu:         2.6
 (Enter /public/home/users/caep010/software/Gaussian09/g09/l202.exe)
                          Input orientation:                          
 ---------------------------------------------------------------------
 Center     Atomic      Atomic             Coordinates (Angstroms)
 Number     Number       Type             X           Y           Z
 ---------------------------------------------------------------------
      1          6           0       -0.095822    0.072670    1.505286
      2          6           0       -0.361198    0.352099    0.015431
      3          6           0       -1.390743   -0.610777   -0.581144
      4          7           0        0.855657    0.329701   -0.817006
      5          8           0        1.704469    1.331795   -0.330257
      6          8           0        1.488993   -0.897154   -0.588006
      7          1           0       -1.016451    0.200372    2.084394
      8          1           0        0.263025   -0.949156    1.651632
      9          1           0        0.653171    0.763551    1.902317
     10          1           0       -0.742252    1.374278   -0.081255
     11          1           0       -1.049334   -1.647229   -0.498850
     12          1           0       -2.341327   -0.519538   -0.047857
     13          1           0       -1.568160   -0.389388   -1.639412
     14          1           0        1.949897    1.849889   -1.107432
     15          1           0        1.650076   -1.260911   -1.467841
 ---------------------------------------------------------------------
                    Distance matrix (angstroms):
                    1          2          3          4          5
     1  C    0.000000
     2  C    1.538888   0.000000
     3  C    2.548943   1.530684   0.000000
     4  N    2.522780   1.474513   2.446721   0.000000
     5  O    2.862807   2.312204   3.662905   1.400572   0.000000
     6  O    2.798941   2.312570   2.893949   1.399546   2.254125
     7  H    1.095094   2.175543   2.811253   3.455378   3.809733
     8  H    1.092848   2.181759   2.799060   2.842685   3.347892
     9  H    1.093590   2.181417   3.497705   2.761150   2.532295
    10  H    2.151550   1.095171   2.147294   2.045919   2.459726
    11  H    2.807811   2.176081   1.094333   2.763777   4.060350
    12  H    2.793789   2.164409   1.093769   3.396102   4.458212
    13  H    3.502914   2.178317   1.095637   2.658633   3.922558
    14  H    3.764276   2.974115   4.182312   1.895437   0.965743
    15  H    3.696767   2.974411   3.233495   1.893339   2.831816
                    6          7          8          9         10
     6  O    0.000000
     7  H    3.824073   0.000000
     8  H    2.553758   1.773628   0.000000
     9  H    3.107773   1.771429   1.774379   0.000000
    10  H    3.224075   2.478563   3.067869   2.500951   0.000000
    11  H    2.648333   3.176139   2.614223   3.804732   3.065647
    12  H    3.886607   2.611524   3.139344   3.796909   2.478850
    13  H    3.272532   3.810371   3.807564   4.336753   2.494092
    14  H    2.833458   4.659172   4.276988   3.452568   2.920088
    15  H    0.965597   4.675905   3.428150   4.055889   3.819696
                   11         12         13         14         15
    11  H    0.000000
    12  H    1.773225   0.000000
    13  H    1.775451   1.774197   0.000000
    14  H    4.647107   5.015127   4.204057   0.000000
    15  H    2.893959   4.300848   3.338567   3.145929   0.000000
 Stoichiometry    C3H9NO2
 Framework group  C1[X(C3H9NO2)]
 Deg. of freedom    39
 Full point group                 C1      NOp   1
 RotChk:  IX=0 Diff= 5.36D-02
 Largest Abelian subgroup         C1      NOp   1
 Largest concise Abelian subgroup C1      NOp   1
                         Standard orientation:                         
 ---------------------------------------------------------------------
 Center     Atomic      Atomic             Coordinates (Angstroms)
 Number     Number       Type             X           Y           Z
 ---------------------------------------------------------------------
      1          6           0       -0.829841    1.347443    0.625294
      2          6           0       -0.611000    0.250488   -0.431575
      3          6           0       -1.716068   -0.808370   -0.406300
      4          7           0        0.698269   -0.419628   -0.326944
      5          8           0        1.678529    0.563769   -0.510309
      6          8           0        0.819019   -0.885092    0.987397
      7          1           0       -1.771687    1.873135    0.436070
      8          1           0       -0.872089    0.917663    1.629197
      9          1           0       -0.019863    2.081623    0.596082
     10          1           0       -0.601219    0.721219   -1.420371
     11          1           0       -1.763095   -1.300160    0.570172
     12          1           0       -2.685757   -0.341881   -0.602314
     13          1           0       -1.543041   -1.574608   -1.170081
     14          1           0        2.264258    0.208126   -1.190823
     15          1           0        1.065690   -1.814499    0.899461
 ---------------------------------------------------------------------
 Rotational constants (GHZ):      4.7167771      2.9155060      2.5107471
 Leave Link  202 at Fri Aug 26 06:17:20 2022, MaxMem= 24159191040 cpu:         0.3
 (Enter /public/home/users/caep010/software/Gaussian09/g09/l301.exe)
 Standard basis: GTBas3 (6D, 7F)
 Ernie: Thresh=  0.10000D-02 Tol=  0.10000D-05 Strict=F.
 There are   231 symmetry adapted cartesian basis functions of A   symmetry.
 There are   213 symmetry adapted basis functions of A   symmetry.
   213 basis functions,   327 primitive gaussians,   231 cartesian basis functions
    25 alpha electrons       25 beta electrons
       nuclear repulsion energy       271.9632481043 Hartrees.
 IExCor=  402 DFT=T Ex+Corr=B3LYP ExCW=0 ScaHFX=  0.200000
 ScaDFX=  0.800000  0.720000  1.000000  0.810000 ScalE2=  1.000000  1.000000
 IRadAn=      0 IRanWt=     -1 IRanGd=            0 ICorTp=0 IEmpDi=  4
 NAtoms=   15 NActive=   15 NUniq=   15 SFac= 1.00D+00 NAtFMM=   60 NAOKFM=F Big=F
 Integral buffers will be    131072 words long.
 Raffenetti 2 integral format.
 Two-electron integral symmetry is turned on.
 Leave Link  301 at Fri Aug 26 06:17:20 2022, MaxMem= 24159191040 cpu:         1.7
 (Enter /public/home/users/caep010/software/Gaussian09/g09/l302.exe)
 NPDir=0 NMtPBC=     1 NCelOv=     1 NCel=       1 NClECP=     1 NCelD=      1
         NCelK=      1 NCelE2=     1 NClLst=     1 CellRange=     0.0.
 One-electron integrals computed using PRISM.
 NBasis=   213 RedAO= T EigKep=  4.16D-04  NBF=   213
 NBsUse=   213 1.00D-06 EigRej= -1.00D+00 NBFU=   213
 Precomputing XC quadrature grid using
 IXCGrd= 4 IRadAn=           0 IRanWt=          -1 IRanGd=           0 AccXCQ= 0.00D+00.
 Generated NRdTot=       0 NPtTot=           0 NUsed=           0 NTot=          32
 NSgBfM=   231   231   231   231   231 MxSgAt=    15 MxSgA2=    15.
 Leave Link  302 at Fri Aug 26 06:17:20 2022, MaxMem= 24159191040 cpu:        14.7
 (Enter /public/home/users/caep010/software/Gaussian09/g09/l303.exe)
 DipDrv:  MaxL=1.
 Leave Link  303 at Fri Aug 26 06:17:20 2022, MaxMem= 24159191040 cpu:         0.8
 (Enter /public/home/users/caep010/software/Gaussian09/g09/l401.exe)
 Initial guess from the checkpoint file:  "G4.Frag_792.chk"
 B after Tr=     0.000000    0.000000    0.000000
         Rot=    0.999785   -0.014547    0.003672    0.014305 Ang=  -2.38 deg.
 Guess basis will be translated and rotated to current coordinates.
 JPrj=2 DoOrth=T DoCkMO=T.
 Generating alternative initial guess.
 ExpMin= 1.61D-01 ExpMax= 5.48D+03 ExpMxC= 8.25D+02 IAcc=1 IRadAn=         1 AccDes= 0.00D+00
 Harris functional with IExCor=  402 and IRadAn=       1 diagonalized for initial guess.
 HarFok:  IExCor=  402 AccDes= 0.00D+00 IRadAn=         1 IDoV= 1 UseB2=F ITyADJ=14
 ICtDFT=  3500011 ScaDFX=  1.000000  1.000000  1.000000  1.000000
 FoFCou: FMM=F IPFlag=           0 FMFlag=      100000 FMFlg1=           0
         NFxFlg=           0 DoJE=T BraDBF=F KetDBF=T FulRan=T
         wScrn=  0.000000 ICntrl=     500 IOpCl=  0 I1Cent=   200000004 NGrid=           0
         NMat0=    1 NMatS0=      1 NMatT0=    0 NMatD0=    1 NMtDS0=    0 NMtDT0=    0
 Petite list used in FoFCou.
 Harris En= -324.910212221451    
 Leave Link  401 at Fri Aug 26 06:17:21 2022, MaxMem= 24159191040 cpu:        16.2
 (Enter /public/home/users/caep010/software/Gaussian09/g09/l502.exe)
 Closed shell SCF:
 Using DIIS extrapolation, IDIIS=  1040.
 Integral symmetry usage will be decided dynamically.
 Keep R1 ints in memory in canonical form, NReq=266157421.
 IVT=      187717 IEndB=      187717 NGot= 24159191040 MDV= 23899277088
 LenX= 23899277088 LenY= 23899223286
 Requested convergence on RMS density matrix=1.00D-08 within 128 cycles.
 Requested convergence on MAX density matrix=1.00D-06.
 Requested convergence on             energy=1.00D-06.
 No special actions if energy rises.
 FoFCou: FMM=F IPFlag=           0 FMFlag=           0 FMFlg1=           0
         NFxFlg=           0 DoJE=F BraDBF=F KetDBF=F FulRan=T
         wScrn=  0.000000 ICntrl=     600 IOpCl=  0 I1Cent=           0 NGrid=           0
         NMat0=    1 NMatS0=  22791 NMatT0=    0 NMatD0=    1 NMtDS0=    0 NMtDT0=    0
 Symmetry not used in FoFCou.
 Integral accuracy reduced to 1.0D-05 until final iterations.

 Cycle   1  Pass 0  IDiag  1:
 E= -324.854866018143    
 DIIS: error= 2.44D-03 at cycle   1 NSaved=   1.
 NSaved= 1 IEnMin= 1 EnMin= -324.854866018143     IErMin= 1 ErrMin= 2.44D-03
 ErrMax= 2.44D-03  0.00D+00 EMaxC= 1.00D-01 BMatC= 3.92D-03 BMatP= 3.92D-03
 IDIUse=3 WtCom= 9.76D-01 WtEn= 2.44D-02
 Coeff-Com:  0.100D+01
 Coeff-En:   0.100D+01
 Coeff:      0.100D+01
 Gap=     1.137 Goal=   None    Shift=    0.000
 GapD=    1.137 DampG=2.000 DampE=1.000 DampFc=2.0000 IDamp=-1.
 RMSDP=4.97D-04 MaxDP=1.44D-02              OVMax= 2.69D-02

 Cycle   2  Pass 0  IDiag  1:
 E= -324.859569177603     Delta-E=       -0.004703159460 Rises=F Damp=F
 DIIS: error= 7.04D-04 at cycle   2 NSaved=   2.
 NSaved= 2 IEnMin= 2 EnMin= -324.859569177603     IErMin= 2 ErrMin= 7.04D-04
 ErrMax= 7.04D-04  0.00D+00 EMaxC= 1.00D-01 BMatC= 3.24D-04 BMatP= 3.92D-03
 IDIUse=3 WtCom= 9.93D-01 WtEn= 7.04D-03
 Coeff-Com:  0.819D-01 0.918D+00
 Coeff-En:   0.000D+00 0.100D+01
 Coeff:      0.813D-01 0.919D+00
 Gap=     0.297 Goal=   None    Shift=    0.000
 RMSDP=1.44D-04 MaxDP=6.23D-03 DE=-4.70D-03 OVMax= 5.72D-03

 Cycle   3  Pass 0  IDiag  1:
 E= -324.859431689271     Delta-E=        0.000137488331 Rises=F Damp=F
 DIIS: error= 8.97D-04 at cycle   3 NSaved=   3.
 NSaved= 3 IEnMin= 2 EnMin= -324.859569177603     IErMin= 2 ErrMin= 7.04D-04
 ErrMax= 8.97D-04  0.00D+00 EMaxC= 1.00D-01 BMatC= 5.54D-04 BMatP= 3.24D-04
 IDIUse=3 WtCom= 2.50D-01 WtEn= 7.50D-01
 Coeff-Com: -0.236D-01 0.579D+00 0.445D+00
 Coeff-En:   0.000D+00 0.590D+00 0.410D+00
 Coeff:     -0.591D-02 0.587D+00 0.419D+00
 Gap=     0.294 Goal=   None    Shift=    0.000
 RMSDP=7.59D-05 MaxDP=4.03D-03 DE= 1.37D-04 OVMax= 4.60D-03

 Cycle   4  Pass 0  IDiag  1:
 E= -324.859848221653     Delta-E=       -0.000416532382 Rises=F Damp=F
 DIIS: error= 1.33D-04 at cycle   4 NSaved=   4.
 NSaved= 4 IEnMin= 4 EnMin= -324.859848221653     IErMin= 4 ErrMin= 1.33D-04
 ErrMax= 1.33D-04  0.00D+00 EMaxC= 1.00D-01 BMatC= 6.38D-06 BMatP= 3.24D-04
 IDIUse=3 WtCom= 9.99D-01 WtEn= 1.33D-03
 Coeff-Com: -0.135D-01 0.198D+00 0.167D+00 0.649D+00
 Coeff-En:   0.000D+00 0.000D+00 0.000D+00 0.100D+01
 Coeff:     -0.135D-01 0.198D+00 0.166D+00 0.649D+00
 Gap=     0.294 Goal=   None    Shift=    0.000
 RMSDP=1.48D-05 MaxDP=5.13D-04 DE=-4.17D-04 OVMax= 6.38D-04

 Cycle   5  Pass 0  IDiag  1:
 E= -324.859853004459     Delta-E=       -0.000004782805 Rises=F Damp=F
 DIIS: error= 5.95D-05 at cycle   5 NSaved=   5.
 NSaved= 5 IEnMin= 5 EnMin= -324.859853004459     IErMin= 5 ErrMin= 5.95D-05
 ErrMax= 5.95D-05  0.00D+00 EMaxC= 1.00D-01 BMatC= 1.27D-06 BMatP= 6.38D-06
 IDIUse=1 WtCom= 1.00D+00 WtEn= 0.00D+00
 Coeff-Com: -0.351D-02 0.267D-01 0.278D-01 0.320D+00 0.629D+00
 Coeff:     -0.351D-02 0.267D-01 0.278D-01 0.320D+00 0.629D+00
 Gap=     0.294 Goal=   None    Shift=    0.000
 RMSDP=5.51D-06 MaxDP=1.81D-04 DE=-4.78D-06 OVMax= 2.84D-04

 Initial convergence to 1.0D-05 achieved.  Increase integral accuracy.
 Cycle   6  Pass 1  IDiag  1:
 E= -324.859874105846     Delta-E=       -0.000021101387 Rises=F Damp=F
 DIIS: error= 2.48D-05 at cycle   1 NSaved=   1.
 NSaved= 1 IEnMin= 1 EnMin= -324.859874105846     IErMin= 1 ErrMin= 2.48D-05
 ErrMax= 2.48D-05  0.00D+00 EMaxC= 1.00D-01 BMatC= 2.09D-07 BMatP= 2.09D-07
 IDIUse=1 WtCom= 1.00D+00 WtEn= 0.00D+00
 Coeff-Com:  0.100D+01
 Coeff:      0.100D+01
 Gap=     0.294 Goal=   None    Shift=    0.000
 RMSDP=5.51D-06 MaxDP=1.81D-04 DE=-2.11D-05 OVMax= 1.18D-04

 Cycle   7  Pass 1  IDiag  1:
 E= -324.859874220798     Delta-E=       -0.000000114952 Rises=F Damp=F
 DIIS: error= 1.59D-05 at cycle   2 NSaved=   2.
 NSaved= 2 IEnMin= 2 EnMin= -324.859874220798     IErMin= 2 ErrMin= 1.59D-05
 ErrMax= 1.59D-05  0.00D+00 EMaxC= 1.00D-01 BMatC= 7.43D-08 BMatP= 2.09D-07
 IDIUse=1 WtCom= 1.00D+00 WtEn= 0.00D+00
 Coeff-Com:  0.328D+00 0.672D+00
 Coeff:      0.328D+00 0.672D+00
 Gap=     0.294 Goal=   None    Shift=    0.000
 RMSDP=1.81D-06 MaxDP=7.92D-05 DE=-1.15D-07 OVMax= 7.79D-05

 Cycle   8  Pass 1  IDiag  1:
 E= -324.859874262397     Delta-E=       -0.000000041598 Rises=F Damp=F
 DIIS: error= 8.46D-06 at cycle   3 NSaved=   3.
 NSaved= 3 IEnMin= 3 EnMin= -324.859874262397     IErMin= 3 ErrMin= 8.46D-06
 ErrMax= 8.46D-06  0.00D+00 EMaxC= 1.00D-01 BMatC= 2.65D-08 BMatP= 7.43D-08
 IDIUse=1 WtCom= 1.00D+00 WtEn= 0.00D+00
 Coeff-Com: -0.166D-02 0.371D+00 0.631D+00
 Coeff:     -0.166D-02 0.371D+00 0.631D+00
 Gap=     0.294 Goal=   None    Shift=    0.000
 RMSDP=7.11D-07 MaxDP=3.26D-05 DE=-4.16D-08 OVMax= 2.66D-05

 Cycle   9  Pass 1  IDiag  1:
 E= -324.859874283994     Delta-E=       -0.000000021597 Rises=F Damp=F
 DIIS: error= 1.38D-06 at cycle   4 NSaved=   4.
 NSaved= 4 IEnMin= 4 EnMin= -324.859874283994     IErMin= 4 ErrMin= 1.38D-06
 ErrMax= 1.38D-06  0.00D+00 EMaxC= 1.00D-01 BMatC= 9.94D-10 BMatP= 2.65D-08
 IDIUse=1 WtCom= 1.00D+00 WtEn= 0.00D+00
 Coeff-Com: -0.113D-01 0.161D+00 0.314D+00 0.536D+00
 Coeff:     -0.113D-01 0.161D+00 0.314D+00 0.536D+00
 Gap=     0.294 Goal=   None    Shift=    0.000
 RMSDP=1.33D-07 MaxDP=7.33D-06 DE=-2.16D-08 OVMax= 7.21D-06

 Cycle  10  Pass 1  IDiag  1:
 E= -324.859874284671     Delta-E=       -0.000000000677 Rises=F Damp=F
 DIIS: error= 5.82D-07 at cycle   5 NSaved=   5.
 NSaved= 5 IEnMin= 5 EnMin= -324.859874284671     IErMin= 5 ErrMin= 5.82D-07
 ErrMax= 5.82D-07  0.00D+00 EMaxC= 1.00D-01 BMatC= 1.45D-10 BMatP= 9.94D-10
 IDIUse=1 WtCom= 1.00D+00 WtEn= 0.00D+00
 Coeff-Com: -0.656D-02 0.649D-01 0.135D+00 0.323D+00 0.484D+00
 Coeff:     -0.656D-02 0.649D-01 0.135D+00 0.323D+00 0.484D+00
 Gap=     0.294 Goal=   None    Shift=    0.000
 RMSDP=4.06D-08 MaxDP=2.02D-06 DE=-6.77D-10 OVMax= 2.23D-06

 Cycle  11  Pass 1  IDiag  1:
 E= -324.859874284785     Delta-E=       -0.000000000114 Rises=F Damp=F
 DIIS: error= 4.64D-08 at cycle   6 NSaved=   6.
 NSaved= 6 IEnMin= 6 EnMin= -324.859874284785     IErMin= 6 ErrMin= 4.64D-08
 ErrMax= 4.64D-08  0.00D+00 EMaxC= 1.00D-01 BMatC= 7.56D-13 BMatP= 1.45D-10
 IDIUse=1 WtCom= 1.00D+00 WtEn= 0.00D+00
 Coeff-Com: -0.438D-03 0.102D-02 0.338D-02 0.256D-01 0.771D-01 0.893D+00
 Coeff:     -0.438D-03 0.102D-02 0.338D-02 0.256D-01 0.771D-01 0.893D+00
 Gap=     0.294 Goal=   None    Shift=    0.000
 RMSDP=5.48D-09 MaxDP=1.67D-07 DE=-1.14D-10 OVMax= 3.65D-07

 SCF Done:  E(RB3LYP) =  -324.859874285     A.U. after   11 cycles
            NFock= 11  Conv=0.55D-08     -V/T= 2.0067
 KE= 3.227088447039D+02 PE=-1.304640740385D+03 EE= 3.851087732920D+02
 Leave Link  502 at Fri Aug 26 06:17:28 2022, MaxMem= 24159191040 cpu:        80.1
 (Enter /public/home/users/caep010/software/Gaussian09/g09/l701.exe)
 Compute integral first derivatives.
 ... and contract with generalized density number  0.
 Leave Link  701 at Fri Aug 26 06:17:28 2022, MaxMem= 24159191040 cpu:        13.8
 (Enter /public/home/users/caep010/software/Gaussian09/g09/l702.exe)
 L702 exits ... SP integral derivatives will be done elsewhere.
 Leave Link  702 at Fri Aug 26 06:17:28 2022, MaxMem= 24159191040 cpu:         0.6
 (Enter /public/home/users/caep010/software/Gaussian09/g09/l703.exe)
 Compute integral first derivatives, UseDBF=F ICtDFT=           0.
 Integral derivatives from FoFJK, PRISM(SPDF).
 Calling FoFJK, ICntrl=      2127 FMM=F ISym2X=0 I1Cent= 0 IOpClX= 0 NMat=1 NMatS=1 NMatT=0.
 FoFJK:  IHMeth= 1 ICntrl=    2127 DoSepK=F KAlg= 0 I1Cent=   0 FoldK=F
 IRaf=         0 NMat=   1 IRICut=       1 DoRegI=T DoRafI=F ISym2E= 0.
 FoFCou: FMM=F IPFlag=           0 FMFlag=      100000 FMFlg1=         800
         NFxFlg=           0 DoJE=F BraDBF=F KetDBF=F FulRan=T
         wScrn=  0.000000 ICntrl=    2127 IOpCl=  0 I1Cent=           0 NGrid=           0
         NMat0=    1 NMatS0=      1 NMatT0=    0 NMatD0=    1 NMtDS0=    0 NMtDT0=    0
 Symmetry not used in FoFCou.
 Leave Link  703 at Fri Aug 26 06:17:30 2022, MaxMem= 24159191040 cpu:        49.9
 (Enter /public/home/users/caep010/software/Gaussian09/g09/l716.exe)
 Dipole        = 4.27517887D-02-5.02868298D-01-4.59936278D-01
 ***** Axes restored to original set *****
 -------------------------------------------------------------------
 Center     Atomic                   Forces (Hartrees/Bohr)
 Number     Number              X              Y              Z
 -------------------------------------------------------------------
      1        6           0.000482229    0.000794377   -0.000435407
      2        6          -0.003827333   -0.001509921    0.008698503
      3        6           0.001172425    0.000130099   -0.001312795
      4        7          -0.016176203    0.005035785   -0.018558397
      5        8           0.009447243    0.009798040    0.008915345
      6        8           0.008124834   -0.014120396    0.004752654
      7        1           0.000023893   -0.000115121   -0.000885839
      8        1          -0.000012968    0.000171378   -0.000166924
      9        1          -0.000333779   -0.000528138   -0.000802434
     10        1           0.001516007    0.000249687   -0.001630505
     11        1          -0.000018541    0.000577756    0.000230241
     12        1           0.000044222   -0.000107249    0.000203604
     13        1           0.000321650   -0.000035014    0.000800174
     14        1          -0.000928289   -0.004700120   -0.000529384
     15        1           0.000164608    0.004358836    0.000721162
 -------------------------------------------------------------------
 Cartesian Forces:  Max     0.018558397 RMS     0.005440182
 Leave Link  716 at Fri Aug 26 06:17:30 2022, MaxMem= 24159191040 cpu:         0.6
 (Enter /public/home/users/caep010/software/Gaussian09/g09/l103.exe)

 GradGradGradGradGradGradGradGradGradGradGradGradGradGradGradGradGradGrad
 Berny optimization.
 Using GEDIIS/GDIIS optimizer.
 FormGI is forming the generalized inverse of G from B-inverse, IUseBI=4.
 Internal  Forces:  Max     0.013207060 RMS     0.002709269
 Search for a local minimum.
 Step number   2 out of a maximum of   75
 All quantities printed in internal units (Hartrees-Bohrs-Radians)
 RMS Force = .27093D-02 SwitMx=.10000D-02 MixMth= 1
 Mixed Optimization -- RFO/linear search
 Update second derivatives using D2CorX and points    1    2
 DE= -9.01D-03 DEPred=-7.98D-03 R= 1.13D+00
 TightC=F SS=  1.41D+00  RLast= 2.67D-01 DXNew= 5.0454D-01 8.0036D-01
 Trust test= 1.13D+00 RLast= 2.67D-01 DXMaxT set to 5.05D-01
 ITU=  1  0
 Use linear search instead of GDIIS.
     Eigenvalues ---    0.00231   0.00347   0.00714   0.01787   0.01863
     Eigenvalues ---    0.03634   0.04621   0.05461   0.05523   0.05543
     Eigenvalues ---    0.05625   0.05773   0.06120   0.15654   0.16000
     Eigenvalues ---    0.16000   0.16000   0.16000   0.16000   0.16000
     Eigenvalues ---    0.16141   0.17127   0.18434   0.19020   0.20857
     Eigenvalues ---    0.28366   0.29234   0.32284   0.32465   0.32499
     Eigenvalues ---    0.32506   0.32514   0.32559   0.33605   0.35478
     Eigenvalues ---    0.44216   0.49327   0.50812   0.53631
 RFO step:  Lambda=-2.70127171D-03 EMin= 2.31346257D-03
 Quartic linear search produced a step of  0.29050.
 Iteration  1 RMS(Cart)=  0.04613387 RMS(Int)=  0.00252753
 Iteration  2 RMS(Cart)=  0.00274083 RMS(Int)=  0.00030624
 Iteration  3 RMS(Cart)=  0.00000346 RMS(Int)=  0.00030622
 Iteration  4 RMS(Cart)=  0.00000000 RMS(Int)=  0.00030622
 ITry= 1 IFail=0 DXMaxC= 1.68D-01 DCOld= 1.00D+10 DXMaxT= 5.05D-01 DXLimC= 3.00D+00 Rises=F
 Variable       Old X    -DE/DX   Delta X   Delta X   Delta X     New X
                                 (Linear)    (Quad)   (Total)
    R1        2.90808  -0.00225  -0.00084  -0.00962  -0.01046   2.89761
    R2        2.06943  -0.00050  -0.00868   0.00234  -0.00635   2.06308
    R3        2.06518  -0.00019  -0.00982   0.00411  -0.00571   2.05947
    R4        2.06659  -0.00085  -0.00914   0.00120  -0.00794   2.05865
    R5        2.89257  -0.00134  -0.00053  -0.00555  -0.00607   2.88650
    R6        2.78643   0.00317   0.00024   0.01130   0.01154   2.79797
    R7        2.06957  -0.00015  -0.01002   0.00437  -0.00566   2.06392
    R8        2.06799  -0.00053  -0.00914   0.00245  -0.00669   2.06130
    R9        2.06692   0.00005  -0.00948   0.00489  -0.00459   2.06233
   R10        2.07045  -0.00084  -0.00833   0.00086  -0.00747   2.06298
   R11        2.64670   0.01172   0.02413   0.01609   0.04022   2.68692
   R12        2.64476   0.01321   0.02300   0.02030   0.04330   2.68806
   R13        1.82499  -0.00233  -0.01380   0.00072  -0.01307   1.81192
   R14        1.82471  -0.00228  -0.01389   0.00091  -0.01299   1.81172
    A1        1.92391  -0.00086   0.00186  -0.00767  -0.00583   1.91809
    A2        1.93483   0.00004  -0.00145   0.00071  -0.00074   1.93409
    A3        1.93358  -0.00048   0.00155  -0.00431  -0.00278   1.93081
    A4        1.89048   0.00039  -0.00038   0.00279   0.00241   1.89289
    A5        1.88612   0.00076   0.00076   0.00622   0.00696   1.89307
    A6        1.89356   0.00021  -0.00236   0.00271   0.00035   1.89391
    A7        1.95961   0.00023   0.00777   0.00155   0.00913   1.96874
    A8        1.98394   0.00054   0.00465   0.00020   0.00497   1.98891
    A9        1.89120   0.00031   0.00319   0.00903   0.01187   1.90307
   A10        1.90232  -0.00070  -0.00506  -0.00490  -0.01007   1.89226
   A11        1.89514   0.00046   0.00778   0.00447   0.01159   1.90673
   A12        1.82500  -0.00090  -0.01919  -0.01074  -0.02980   1.79520
   A13        1.93546  -0.00038   0.00054  -0.00394  -0.00342   1.93204
   A14        1.91990   0.00002  -0.00094   0.00070  -0.00025   1.91965
   A15        1.93720  -0.00018   0.00569  -0.00376   0.00192   1.93912
   A16        1.88965   0.00006  -0.00274   0.00070  -0.00205   1.88760
   A17        1.89076   0.00029  -0.00230   0.00335   0.00104   1.89179
   A18        1.88952   0.00022  -0.00043   0.00326   0.00282   1.89233
   A19        1.86824  -0.00101  -0.00781  -0.01647  -0.02526   1.84298
   A20        1.86962   0.00129  -0.01217  -0.00016  -0.01346   1.85616
   A21        1.87139  -0.00332   0.00061  -0.04651  -0.04707   1.82432
   A22        1.83193  -0.00664   0.00162  -0.05308  -0.05145   1.78048
   A23        1.83033  -0.00574   0.00120  -0.04582  -0.04463   1.78571
    D1       -1.06972  -0.00037  -0.00392  -0.00438  -0.00827  -1.07799
    D2        3.04388  -0.00005  -0.00682   0.00082  -0.00605   3.03783
    D3        1.02330   0.00056   0.01211   0.00814   0.02028   1.04358
    D4        1.02335  -0.00042  -0.00411  -0.00544  -0.00952   1.01383
    D5       -1.14624  -0.00010  -0.00701  -0.00024  -0.00731  -1.15355
    D6        3.11636   0.00050   0.01192   0.00708   0.01903   3.13539
    D7        3.12665  -0.00045  -0.00701  -0.00442  -0.01141   3.11524
    D8        0.95706  -0.00013  -0.00992   0.00078  -0.00920   0.94786
    D9       -1.06352   0.00047   0.00902   0.00809   0.01713  -1.04639
   D10       -1.04517   0.00022   0.00370   0.00589   0.00973  -1.03544
   D11        1.04465   0.00006   0.00001   0.00470   0.00485   1.04950
   D12        3.13542   0.00022   0.00248   0.00681   0.00943  -3.13833
   D13        1.16898   0.00056   0.01158   0.00353   0.01516   1.18415
   D14       -3.02438   0.00040   0.00790   0.00234   0.01028  -3.01410
   D15       -0.93361   0.00057   0.01037   0.00445   0.01486  -0.91875
   D16       -3.13589  -0.00062  -0.00955  -0.00930  -0.01903   3.12826
   D17       -1.04607  -0.00078  -0.01324  -0.01049  -0.02392  -1.06999
   D18        1.04470  -0.00061  -0.01076  -0.00838  -0.01933   1.02537
   D19       -1.05916   0.00218   0.01815   0.06052   0.07844  -0.98071
   D20        0.94340  -0.00150   0.00851  -0.00100   0.00773   0.95113
   D21        3.02383   0.00202   0.00845   0.06221   0.07069   3.09452
   D22       -1.25679  -0.00166  -0.00118   0.00068  -0.00002  -1.25682
   D23        1.00003   0.00226   0.01226   0.06477   0.07655   1.07658
   D24        3.00258  -0.00142   0.00262   0.00324   0.00584   3.00842
   D25       -2.25000  -0.00218  -0.02445  -0.11646  -0.14029  -2.39029
   D26        2.03181  -0.00160  -0.00664  -0.08602  -0.09328   1.93853
   D27        2.25282   0.00293   0.02078   0.12280   0.14316   2.39598
   D28       -2.02992   0.00080   0.00581   0.08138   0.08760  -1.94232
         Item               Value     Threshold  Converged?
 Maximum Force            0.013207     0.000450     NO 
 RMS     Force            0.002709     0.000300     NO 
 Maximum Displacement     0.168226     0.001800     NO 
 RMS     Displacement     0.046436     0.001200     NO 
 Predicted change in Energy=-1.802081D-03
 Lowest energy point so far.  Saving SCF results.
 GradGradGradGradGradGradGradGradGradGradGradGradGradGradGradGradGradGrad

 Leave Link  103 at Fri Aug 26 06:17:30 2022, MaxMem= 24159191040 cpu:         2.7
 (Enter /public/home/users/caep010/software/Gaussian09/g09/l202.exe)
                          Input orientation:                          
 ---------------------------------------------------------------------
 Center     Atomic      Atomic             Coordinates (Angstroms)
 Number     Number       Type             X           Y           Z
 ---------------------------------------------------------------------
      1          6           0       -0.094903    0.086380    1.497829
      2          6           0       -0.385733    0.352531    0.016024
      3          6           0       -1.405653   -0.621164   -0.571208
      4          7           0        0.819268    0.343036   -0.844282
      5          8           0        1.697365    1.310226   -0.282887
      6          8           0        1.466161   -0.902642   -0.613612
      7          1           0       -1.007312    0.212128    2.083990
      8          1           0        0.271890   -0.929384    1.644145
      9          1           0        0.654748    0.782217    1.872802
     10          1           0       -0.756607    1.373638   -0.096431
     11          1           0       -1.052090   -1.649316   -0.483299
     12          1           0       -2.351715   -0.539808   -0.033281
     13          1           0       -1.589321   -0.409107   -1.626228
     14          1           0        2.020581    1.763354   -1.063627
     15          1           0        1.713322   -1.171890   -1.499934
 ---------------------------------------------------------------------
                    Distance matrix (angstroms):
                    1          2          3          4          5
     1  C    0.000000
     2  C    1.533351   0.000000
     3  C    2.549432   1.527469   0.000000
     4  N    2.527264   1.480623   2.440189   0.000000
     5  O    2.807308   2.312105   3.666350   1.421857   0.000000
     6  O    2.805934   2.324094   2.885886   1.422460   2.249360
     7  H    1.091736   2.163921   2.811251   3.453738   3.758086
     8  H    1.089826   2.174063   2.795879   2.847971   3.280440
     9  H    1.089390   2.171372   3.491120   2.757262   2.452110
    10  H    2.153265   1.092178   2.150793   2.026031   2.461863
    11  H    2.802448   2.168121   1.090793   2.757128   4.044572
    12  H    2.798145   2.159580   1.091338   3.390025   4.458698
    13  H    3.498361   2.173870   1.091682   2.641677   3.944994
    14  H    3.721367   2.991056   4.203271   1.873118   0.958826
    15  H    3.720148   3.004667   3.300581   1.877289   2.764482
                    6          7          8          9         10
     6  O    0.000000
     7  H    3.825942   0.000000
     8  H    2.554303   1.769992   0.000000
     9  H    3.111173   1.769759   1.768740   0.000000
    10  H    3.223294   2.483182   3.064526   2.493909   0.000000
    11  H    2.629846   3.171427   2.607152   3.791684   3.061899
    12  H    3.878738   2.618332   3.138285   3.797332   2.491914
    13  H    3.256522   3.806624   3.798701   4.324155   2.492362
    14  H    2.759970   4.634861   4.200094   3.383895   2.966500
    15  H    0.958723   4.707639   3.467242   4.039117   3.814457
                   11         12         13         14         15
    11  H    0.000000
    12  H    1.767074   0.000000
    13  H    1.770035   1.770822   0.000000
    14  H    4.628651   5.048084   4.250588   0.000000
    15  H    2.984793   4.367508   3.391937   2.983359   0.000000
 Stoichiometry    C3H9NO2
 Framework group  C1[X(C3H9NO2)]
 Deg. of freedom    39
[...]
    12  H    0.000638   0.000133   0.000078  -0.005467  -0.019854   0.493891
    13  H    0.000131  -0.000330  -0.000505  -0.003971  -0.022848  -0.018091
    14  H    0.000066   0.000028   0.000381   0.000291   0.000000   0.000030
    15  H    0.000068   0.000327  -0.000033  -0.000449  -0.000710   0.000021
              13         14         15
     1  C    0.009535  -0.000109  -0.000035
     2  C   -0.032074   0.004537   0.004334
     3  C    0.408591  -0.000241   0.001149
     4  N   -0.000287  -0.028236  -0.031953
     5  O   -0.000720   0.289797  -0.002208
     6  O   -0.001473  -0.001375   0.295411
     7  H    0.000131   0.000066   0.000068
     8  H   -0.000330   0.000028   0.000327
     9  H   -0.000505   0.000381  -0.000033
    10  H   -0.003971   0.000291  -0.000449
    11  H   -0.022848   0.000000  -0.000710
    12  H   -0.018091   0.000030   0.000021
    13  H    0.487482   0.000003  -0.000016
    14  H    0.000003   0.338968   0.001822
    15  H   -0.000016   0.001822   0.333505
 Mulliken charges:
               1
     1  C   -0.548221
     2  C    0.105572
     3  C   -0.573736
     4  N    0.066816
     5  O   -0.534648
     6  O   -0.536168
     7  H    0.164348
     8  H    0.185700
     9  H    0.189488
    10  H    0.163386
    11  H    0.183573
    12  H    0.166509
    13  H    0.174575
    14  H    0.394039
    15  H    0.398767
 Sum of Mulliken charges =  -0.00000
 Mulliken charges with hydrogens summed into heavy atoms:
               1
     1  C   -0.008686
     2  C    0.268958
     3  C   -0.049079
     4  N    0.066816
     5  O   -0.140609
     6  O   -0.137401
 Electronic spatial extent (au):  <R**2>=            599.6655
 Charge=             -0.0000 electrons
 Dipole moment (field-independent basis, Debye):
    X=              0.1956    Y=             -1.3237    Z=             -1.1207  Tot=              1.7454
 Quadrupole moment (field-independent basis, Debye-Ang):
   XX=            -33.3688   YY=            -35.9520   ZZ=            -38.5670
   XY=             -4.0028   XZ=             -1.8270   YZ=             -0.9877
 Traceless Quadrupole moment (field-independent basis, Debye-Ang):
   XX=              2.5938   YY=              0.0105   ZZ=             -2.6044
   XY=             -4.0028   XZ=             -1.8270   YZ=             -0.9877
 Octapole moment (field-independent basis, Debye-Ang**2):
  XXX=             26.8387  YYY=            -11.5866  ZZZ=             -1.8644  XYY=              8.3356
  XXY=             -6.2358  XXZ=             -7.2031  XZZ=              5.8170  YZZ=             -1.0412
  YYZ=              4.2687  XYZ=             -1.0532
 Hexadecapole moment (field-independent basis, Debye-Ang**3):
 XXXX=           -345.6918 YYYY=           -216.9049 ZZZZ=           -142.0096 XXXY=            -15.8561
 XXXZ=            -21.2224 YYYX=            -14.2286 YYYZ=            -13.9484 ZZZX=             -6.1973
 ZZZY=             -7.5002 XXYY=            -98.5098 XXZZ=            -82.0196 YYZZ=            -61.5902
 XXYZ=             -5.7960 YYXZ=              6.9946 ZZXY=             -0.8640
 N-N= 2.710485839492D+02 E-N=-1.302021662537D+03  KE= 3.226110103315D+02
 No NMR shielding tensors so no spin-rotation constants.
 Leave Link  601 at Fri Aug 26 06:38:18 2022, MaxMem= 24159191040 cpu:        29.0
 (Enter /public/home/users/caep010/software/Gaussian09/g09/l9999.exe)
 1\1\GINC-B1368\SP\RHF\GFHFB2\C3H9N1O2\ROOT\26-Aug-2022\0\\#P Geom=AllC
 heck Guess=TCheck SCRF=Check HF/GFHFB2 SCF=Tight\\Frag_792\\0,1\C,0,-0
 .0967478786,0.0818456467,1.4980420144\C,0,-0.3969778215,0.3550352193,0
 .0206245439\C,0,-1.4166201916,-0.6203755331,-0.5655779919\N,0,0.805508
 2533,0.3495363633,-0.8491124888\O,0,1.666273731,1.3508049955,-0.303352
 503\O,0,1.4551248673,-0.9048039952,-0.6118917089\H,0,-1.0124372994,0.1
 963327171,2.086258817\H,0,0.2769728079,-0.9352086642,1.6375101065\H,0,
 0.6488354257,0.7818341777,1.8795734027\H,0,-0.7756811079,1.3768065101,
 -0.0863723693\H,0,-1.0539689824,-1.6486226137,-0.4883385404\H,0,-2.362
 0033642,-0.546411347,-0.020100222\H,0,-1.6080654324,-0.3991551806,-1.6
 196891715\H,0,2.0977148037,1.7072734461,-1.0879573383\H,0,1.7720721892
 ,-1.1446917418,-1.4896165506\\Version=ES64L-G09RevE.01\State=1-A\HF=-3
 23.0539984\RMSD=7.338e-09\Dipole=-0.1226185,0.0739592,-0.6715768\Quadr
 upole=0.1218854,-0.7023274,0.580442,0.2638413,-3.8055491,-0.0237941\PG
 =C01 [X(C3H9N1O2)]\\@


 Luck is a matter of preparation meeting opportunity.
                                    -- Oprah Winfrey
 Diagonal vibrational polarizability:
        0.0000000       0.0000000       0.0000000

 Temperature=              298.150000 Pressure=                      1.000000
 E(ZPE)=                     0.126321 E(Thermal)=                    0.134086
 E(CCSD(T))=              -323.899208 E(Empiric)=                   -0.131993
 DE(Plus)=                  -0.028065 DE(2DF)=                      -0.282116
 E(Delta-G3XP)=             -0.407339 DE(HF)=                       -0.034393
 G4(0 K)=                 -324.656793 G4 Energy=                  -324.649029
 G4 Enthalpy=             -324.648085 G4 Free Energy=             -324.687683
 1\1\GINC-B1368\Mixed\G4\G4\C3H9N1O2\ROOT\26-Aug-2022\0\\#P Geom=AllChe
 ck Guess=TCheck SCRF=Check HF/GFHFB2 SCF=Tight\\Frag_792\\0,1\C,0,-0.0
 967478786,0.0818456467,1.4980420144\C,0,-0.3969778215,0.3550352193,0.0
 206245439\C,0,-1.4166201916,-0.6203755331,-0.5655779919\N,0,0.80550825
 33,0.3495363633,-0.8491124888\O,0,1.666273731,1.3508049955,-0.30335250
 3\O,0,1.4551248673,-0.9048039952,-0.6118917089\H,0,-1.0124372994,0.196
 3327171,2.086258817\H,0,0.2769728079,-0.9352086642,1.6375101065\H,0,0.
 6488354257,0.7818341777,1.8795734027\H,0,-0.7756811079,1.3768065101,-0
 .0863723693\H,0,-1.0539689824,-1.6486226137,-0.4883385404\H,0,-2.36200
 33642,-0.546411347,-0.020100222\H,0,-1.6080654324,-0.3991551806,-1.619
 6891715\H,0,2.0977148037,1.7072734461,-1.0879573383\H,0,1.7720721892,-
 1.1446917418,-1.4896165506\\Version=ES64L-G09RevE.01\State=1-A\MP2/GTB
 as1=-323.8186746\MP4/GTBas1=-323.8988349\CCSD(T)/G3Bas1=-323.8992083\M
 P2/GTBas2=-323.8445489\MP4/GTBas2=-323.9269\MP2/GTBas3=-324.0840283\MP
 4/GTBas3=-324.1809508\HF/GTLargeXP=-323.0210167\MP2/GTLargeXP=-324.517
 2417\HF/GFHFB1=-323.0482057\HF/GFHFB2=-323.0539984\G4=-324.6567931\Fre
 qCoord=-0.1828269945,0.1546658574,2.8308891429,-0.7501793635,0.6709193
 319,0.0389747397,-2.6770241964,-1.1723398571,-1.0687875114,1.522189996
 5,0.6605280001,-1.6045900598,3.148801014,2.5526515005,-0.5732531524,2.
 7497874883,-1.709831755,-1.1563077528,-1.9132292226,0.3710150662,3.942
 4578064,0.5234027531,-1.7672882524,3.0944456412,1.22612126,1.477452477
 1,3.5518789778,-1.4658248604,2.6017872421,-0.1632201235,-1.9917127293,
 -3.1154452364,-0.9228261014,-4.4635394834,-1.0325678018,-0.0379839148,
 -3.0388032711,-0.7542939759,-3.0607689545,3.964106484,3.226279247,-2.0
 559414137,3.3487311253,-2.1631538985,-2.8149673237\PG=C01 [X(C3H9N1O2)
 ]\NImag=0\\0.57631716,0.00750659,0.57524085,-0.01710213,0.02118315,0.4
 6482394,-0.08636434,0.00642588,-0.02607857,0.47468011,0.00634565,-0.08
 605901,0.01874522,-0.03343887,0.61547476,-0.02767440,0.02126817,-0.163
 48843,0.02984088,-0.00815887,0.45828928,-0.00471119,-0.00550392,-0.008
 48643,-0.11934525,-0.04111133,-0.02717385,0.52773634,0.00389269,0.0043
 9904,-0.00033906,-0.04705242,-0.12811575,-0.02891513,-0.04495269,0.529
 60614,-0.02505869,-0.02232479,-0.01655790,-0.02985998,-0.03099171,-0.0
 9593582,-0.02888542,-0.02718024,0.56274141,-0.00249146,-0.00059674,0.0
 1224656,-0.11584570,-0.00459997,0.08248664,-0.03043270,-0.00600234,0.0
 0903213,0.42150160,-0.00615783,0.00311656,0.00355014,0.00215903,-0.070
 63003,-0.00129627,-0.02316640,-0.00003592,0.01239479,0.00097439,0.3205
 7686,0.04133138,-0.00115884,-0.03163182,0.01316327,0.00398180,-0.12040
 551,-0.00660398,0.00167012,0.00798492,-0.03761904,0.00904193,0.3213555
 1,0.00213505,-0.00006066,-0.00000561,-0.03419171,-0.03007215,-0.021674
 96,-0.00464483,0.00149006,0.00739885,-0.12771069,-0.04344686,-0.033337
 95,0.23830741,0.00004384,-0.00012574,0.00051230,-0.01284870,-0.0136717
 8,-0.00596970,-0.00231605,0.00238736,0.00325267,-0.05495814,-0.0859196
 4,-0.03073257,0.17170839,0.23807734,-0.00084347,0.00102138,-0.00008123
 ,0.02083467,0.01515522,0.00708229,0.00273892,0.00027809,-0.00174768,-0
 .03187536,-0.02910072,-0.10738551,-0.15551571,-0.10048679,0.46785361,0
 .00229518,-0.00166825,-0.00004338,-0.02034929,0.03643787,-0.01096367,-
 0.00267950,-0.00034928,0.00165259,-0.10395040,0.04842811,-0.01555413,0
 .02974623,-0.01067230,0.01320871,0.15815707,-0.00042990,0.00123794,0.0
 0015901,0.01018043,-0.01961424,0.00227490,-0.00077979,-0.00224594,-0.0
 0033427,0.06395115,-0.12126439,0.03199923,-0.00979787,-0.05974244,-0.0
 0285777,-0.11589995,0.25077498,-0.00066426,-0.00077928,-0.00053383,0.0
 1817912,-0.02502846,0.00346178,-0.00026589,0.00018018,0.00042835,-0.01
 173729,0.02876193,-0.09003035,0.01213471,-0.02054267,0.01041526,-0.150
 48696,0.08538187,0.52991730,-0.23299037,0.02401277,0.11846587,0.005057
 86,-0.00102809,-0.00462194,0.00003649,-0.00005571,-0.00008957,0.000565
 20,0.00001833,-0.00305837,0.00003588,0.00006724,0.00054051,0.00001822,
 -0.00011601,0.00028412,0.25241022,0.02405331,-0.04908940,-0.01523450,-
 0.00577478,-0.00084393,0.00351311,0.00020162,-0.00001071,-0.00031874,-
 0.00018442,-0.00139638,0.00222813,0.00024659,0.00037777,0.00023795,0.0
 0009550,0.00048600,-0.00078001,-0.02642716,0.04907574,0.11673510,-0.01
 508845,-0.11984381,0.02859877,-0.00443991,-0.01545553,0.00094265,-0.00
 014600,0.00117252,-0.00051171,0.00150300,-0.00972667,-0.00076172,-0.00
 033828,0.00116510,-0.00095309,0.00033417,0.00124620,-0.12879168,0.0155
 1770,0.13174008,-0.07820811,0.08491456,-0.01213102,-0.00315951,0.00606
 410,-0.00071646,0.00002064,0.00082634,0.00048370,-0.00006244,-0.000376
 04,-0.00015143,-0.00004506,0.00004682,0.00025926,-0.00058533,-0.000136
 20,0.00126780,-0.00885976,0.02553057,-0.00405309,0.08128775,0.08436294
 ,-0.28039255,0.02942474,0.00147556,-0.00629209,0.00204512,-0.00045940,
 0.00083520,-0.00041695,0.00099945,-0.00144826,0.00013562,-0.00024892,0
 .00027520,0.00024429,0.00043648,0.00048973,-0.00172937,-0.00008815,-0.
 00184145,-0.00018935,-0.09480372,0.30397432,-0.01073594,0.02704114,-0.
 04964771,-0.01297895,0.03269417,-0.00420779,0.00082722,0.00105982,0.00
 160289,-0.00075401,0.00097069,0.00192132,0.00006795,-0.00029965,-0.000
 21825,0.00183040,-0.00160675,-0.00052699,0.00483723,-0.01689890,0.0017
 2718,0.01344546,-0.03263408,0.05474071,-0.17311440,-0.11884096,-0.0649
 0690,-0.00454437,-0.00317608,-0.00164443,0.00034586,0.00090120,-0.0012
 6432,-0.00026744,-0.00025948,-0.00038816,-0.00067825,-0.00021489,0.002
 03264,0.00003816,-0.00012548,0.00011223,-0.01741414,-0.01734240,-0.009
 70736,0.00892075,0.00815983,0.00482921,0.18640425,-0.11909328,-0.16134
 942,-0.06053119,0.00630696,0.00433387,0.00130961,0.00002479,0.00033701
 ,0.00115770,-0.00097241,-0.00023386,-0.00115433,-0.00076315,-0.0004600
 8,0.00150806,0.00023010,0.00010666,0.00004565,0.00389334,0.00255307,0.
 00241261,-0.02143573,-0.01785258,-0.00972384,0.13134219,0.17123545,-0.
 06208132,-0.05839408,-0.07801584,-0.02312002,-0.02242894,-0.01042875,0
 .00012865,0.00266132,-0.00642333,-0.00145630,-0.00187529,0.00185455,0.
 00168018,0.00104196,-0.00023037,0.00035133,0.00037581,-0.00037468,0.01
 161444,0.01245162,0.00619490,0.00318382,0.00219957,0.00071932,0.070727
 99,0.06442732,0.08545836,-0.00170092,0.00646479,-0.00193239,-0.0755799
 7,0.07664970,-0.00790463,0.00733907,-0.02307501,0.00079056,-0.01463140
 ,0.02933378,0.00149844,-0.00011136,-0.00105406,-0.00072471,-0.00519736
 ,0.00211453,0.00510214,0.00046418,-0.00037061,-0.00006060,0.00063031,0
 .00002043,-0.00117457,-0.00007533,0.00023668,0.00024340,0.09144513,0.0
 0192237,-0.00498032,0.00125403,0.08666576,-0.27120073,0.02305231,0.005
 54383,-0.02016121,0.00087414,0.00159875,-0.00578188,-0.00045303,-0.002
 47011,0.00167189,0.00077021,-0.00067421,0.00213228,-0.00138768,-0.0002
 9284,0.00022038,0.00044311,-0.00012615,0.00115363,0.00091586,0.0000423
 2,0.00061230,0.00027118,-0.08933923,0.29598323,-0.01228720,0.03081108,
 -0.00612920,-0.00912793,0.02844105,-0.05075705,0.00332065,-0.01237724,
 0.00047933,0.00818221,-0.01926563,-0.00056753,-0.00018931,0.00005545,0
 .00056112,0.00483443,-0.00179720,-0.00203167,0.00066016,-0.00039027,0.
 00133569,-0.00131568,0.00102498,-0.00640359,0.00003426,-0.00055793,0.0
 0114439,0.00615878,-0.02431755,0.06140089,0.00089861,0.00011385,0.0011
 7406,0.00804386,-0.02261978,0.00161332,-0.07649696,0.08769015,-0.00736
 571,0.00146032,-0.00105768,0.00020416,0.00008204,0.00086235,0.00005838
 ,-0.00158558,0.00041036,-0.00013253,-0.00001727,0.00013916,-0.00004429
 ,0.00004192,0.00033498,-0.00035602,-0.00003318,0.00008277,0.00020066,-
 0.00293039,-0.00311131,-0.00162868,0.08184429,0.00059319,0.00087331,0.
 00110393,0.00725875,-0.02288958,0.00192814,0.08483195,-0.27979726,0.01
 883239,0.00161140,-0.00188383,-0.00064560,-0.00054633,0.00055659,0.000
 28229,0.00142490,0.00246738,-0.00012219,-0.00005624,0.00001081,-0.0000
 1591,-0.00035972,0.00047367,-0.00095252,-0.00017435,0.00036656,0.00010
 551,-0.00357948,-0.00127959,-0.00171334,-0.09265214,0.30691724,0.00111
 602,-0.00081647,0.00089484,0.00535224,-0.01279935,0.00022701,-0.007645
 07,0.01991047,-0.05003683,0.00032963,0.00073499,0.00005028,-0.00013209
 ,-0.00003885,0.00000232,-0.00008911,-0.00031926,-0.00024162,-0.0000257
 3,-0.00007537,-0.00006329,-0.00043609,0.00022989,-0.00023904,-0.000039
 03,0.00030339,0.00009563,-0.00205130,-0.00174365,-0.00028381,0.0092896
 7,-0.01904616,0.04996492,0.00039864,0.00067651,0.00089069,-0.01769796,
 0.00427154,0.01264423,-0.24275699,0.01648142,0.11352685,-0.00086137,-0
 .00265799,-0.00232750,-0.00162777,-0.00078593,0.00044817,-0.00061049,-
 0.00035362,0.00008730,0.00032166,-0.00020037,-0.00098649,-0.00006943,0
 .00000354,-0.00000014,0.00042763,-0.00013794,-0.00004756,0.00095559,-0
 .00019841,0.00016167,-0.00879418,0.00007512,0.00503590,0.26446930,0.00
 047941,0.00042209,0.00047952,-0.01844865,0.00158361,0.01236694,0.01790
 136,-0.04761068,-0.01082061,-0.00196482,-0.00403602,-0.00207005,-0.002
 04528,-0.00080259,0.00041432,0.00081133,0.00153891,-0.00007218,0.00003
 456,0.00022665,-0.00030882,0.00009584,0.00000870,-0.00011606,0.0001367
 6,-0.00016256,0.00023538,0.00069895,0.00070945,0.00072758,0.02593044,-
 0.00066400,-0.01641552,-0.01656396,0.04950683,-0.00008712,0.00018261,0
 .00034856,-0.01152686,0.00207302,0.00562941,0.11565595,-0.01007380,-0.
 11372290,-0.00099265,-0.00113799,-0.00115118,-0.00060230,-0.00044438,0
 .00090693,-0.00016111,-0.00002050,0.00029188,-0.00027490,-0.00026161,-
 0.00031626,-0.00005430,0.00003402,-0.00002471,0.00011411,0.00007241,0.
 00023367,0.00055902,0.00042849,0.00033621,-0.00347081,0.00017754,0.000
 83445,-0.12575595,0.01235490,0.12096158,-0.00310668,-0.00350813,-0.000
 38052,-0.00472228,0.00609971,-0.02213120,-0.05364702,0.00946527,-0.041
 59083,0.00103646,0.00075781,-0.00111582,0.00069461,0.00038384,0.000692
 93,-0.00001879,-0.00005923,0.00053645,0.00026354,-0.00008404,-0.000197
 53,0.00011657,-0.00009714,0.00034203,0.00003906,0.00001189,-0.00155479
 ,0.00073356,0.00010376,0.00067643,-0.00237982,0.00194558,-0.01102869,0
 .00598239,-0.00648543,0.02708314,0.05544037,-0.00326941,-0.00270707,-0
 .00054293,-0.00306821,0.00446020,-0.02277940,0.01018267,-0.06027835,0.
 05557056,0.00056346,0.00065976,0.00008988,0.00055757,0.00014881,0.0000
 6856,0.00018824,-0.00014541,-0.00000939,0.00004653,-0.00012384,0.00030
 496,-0.00028084,0.00019830,-0.00023924,-0.00053522,0.00050328,-0.00133
 338,0.00083258,0.00081832,0.00002927,0.00372777,-0.00514003,0.02982226
 ,-0.00058610,-0.00052863,-0.00323640,-0.00848038,0.06199878,-0.0022059
 9,-0.00291957,0.00030832,-0.00114221,0.00324180,-0.01285613,-0.0435508
 8,0.05339528,-0.29113708,0.00103175,0.00060590,0.00072863,0.00023159,-
 0.00006882,0.00062138,-0.00012717,0.00006161,0.00018737,0.00011305,0.0
 0007527,0.00040559,0.00012914,0.00005925,0.00018292,-0.00015534,0.0003
 7892,-0.00093058,0.00026124,-0.00037928,0.00038851,0.00034835,0.000032
 83,-0.00116307,-0.00323879,0.00343875,-0.01413018,0.04865682,-0.057882
 66,0.31745608,0.00045065,-0.00015496,-0.00098175,-0.00396212,-0.006205
 92,-0.00230368,-0.00119139,0.00017778,0.00117918,-0.01752095,-0.014006
 95,0.02293078,-0.09910780,-0.08758163,0.15107179,-0.00211366,0.0024762
 9,-0.00200534,0.00005606,0.00011307,-0.00013890,-0.00008974,-0.0000037
 8,0.00002383,0.00003320,0.00018962,0.00007089,0.00011956,0.00003371,-0
 .00009545,-0.00003821,0.00000555,-0.00000709,-0.00027031,-0.00032591,-
 0.00031605,-0.00010229,0.00000059,-0.00013912,0.12271349,0.00077957,-0
 .00005637,-0.00084311,-0.00295723,-0.00168423,-0.00236293,-0.00037865,
 0.00033028,0.00044157,-0.01943852,-0.01500896,0.02170992,-0.08348525,-
 0.07665874,0.11379104,0.00090778,-0.00559805,0.00043644,0.00006721,0.0
 0014923,-0.00024962,0.00005563,0.00002080,0.00005844,0.00008269,-0.000
 02559,0.00036265,0.00016522,0.00015634,-0.00008023,0.00002681,-0.00006
 006,0.00002244,-0.00000533,-0.00013348,-0.00019394,-0.00008257,0.00003
 047,-0.00000901,0.10503968,0.09947453,-0.00026704,-0.00039325,-0.00047
 249,-0.00176930,-0.00259103,-0.00118781,-0.00088778,0.00004395,0.00080
 974,-0.01831973,-0.01364572,0.01601288,0.18999458,0.15244904,-0.379579
 81,0.00036345,-0.00286908,-0.00015257,0.00023060,0.00027370,0.00022613
 ,0.00010905,0.00009165,-0.00001641,0.00025130,0.00031680,0.00073369,-0
 .00012530,0.00007875,0.00000172,0.00012576,0.00001940,-0.00000791,-0.0
 0030202,-0.00020016,-0.00011476,0.00006024,0.00006285,-0.00000286,-0.1
 6960972,-0.13314445,0.36354800,0.00019218,0.00021868,-0.00072846,-0.00
 201933,0.00638362,0.00022413,0.00042745,0.00056255,0.00005067,-0.01078
 902,0.00945778,0.02102835,-0.00288375,-0.00268076,-0.00292674,-0.05316
 446,0.04856527,0.12758841,0.00005223,0.00000396,-0.00007006,0.00006146
 ,-0.00009209,-0.00020369,-0.00008180,0.00008416,0.00005862,-0.00146067
 ,0.00030174,0.00061565,-0.00009544,-0.00037817,0.00033073,0.00013329,-
 0.00025459,-0.00017016,-0.00032966,0.00012075,-0.00021244,0.00102351,-
 0.00077704,0.00014589,0.06893400,-0.00102913,-0.00052991,0.00107874,0.
 00311650,-0.00485108,0.00172401,-0.00001798,0.00036079,-0.00013652,0.0
 1901876,-0.01671399,-0.03464220,-0.00106603,-0.00611396,-0.00132614,0.
 04030368,-0.05062340,-0.06435482,-0.00007578,0.00020607,0.00026080,-0.
 00001546,0.00039739,-0.00026908,0.00000387,0.00003588,-0.00010063,0.00
 090172,-0.00005408,-0.00059002,0.00012229,0.00004879,0.00023119,-0.000
 01849,-0.00005828,0.00004564,0.00002906,0.00010541,-0.00003027,0.00024
 285,-0.00093616,-0.00049246,-0.06151585,0.07872655,-0.00017494,0.00036
 720,0.00002660,-0.00036514,0.00210600,0.00003305,-0.00011474,-0.000167
 77,0.00034236,-0.01004284,0.00875824,0.01099047,0.00071179,0.00161030,
 0.00063485,0.15613769,-0.11078176,-0.45205643,0.00011619,-0.00033809,0
 .00019216,-0.00002017,-0.00051937,0.00039015,0.00000380,0.00003484,-0.
 00003095,-0.00064007,0.00019311,0.00052500,-0.00001632,0.00001370,-0.0
 0003388,-0.00013635,-0.00001400,-0.00008270,-0.00004865,0.00007506,-0.
 00005891,0.00032065,0.00006077,0.00020244,-0.14573091,0.09860176,0.438
 92578\\-0.00000423,0.00000324,0.00001813,-0.00001569,0.00000664,-0.000
 00326,0.00000389,0.00000105,-0.00000907,0.00000203,-0.00003328,0.00000
 252,0.00000773,0.00002239,-0.00000130,0.00000448,0.00001407,-0.0000257
 6,-0.00000181,0.00000403,-0.00001026,-0.00000449,0.00001151,-0.0000001
 6,-0.00000734,0.00000323,-0.00000420,0.00000503,-0.00000550,-0.0000058
 3,0.00000228,0.00000210,0.00000258,0.00000575,-0.00000660,-0.00000606,
 0.00000516,-0.00001093,0.00000175,-0.00000679,-0.00000733,0.00001498,0
 .00000400,-0.00000463,0.00002594\\\@
 Job cpu time:       0 days  3 hours 37 minutes 24.8 seconds.
 File lengths (MBytes):  RWF=   6085 Int=      0 D2E=      0 Chk=     39 Scr=      1
 Normal termination of Gaussian 09 at Fri Aug 26 06:38:19 2022.
