 Entering Gaussian System, Link 0=g09
 Input=G4.Frag_984.gjf
 Output=G4.Frag_984.log
 Initial command:
 /public/home/users/caep010/software/Gaussian09/g09/l1.exe "/public/home/users/caep010/.cache/gau_scr/Gau-11333.inp" -scrdir="/public/home/users/caep010/.cache/gau_scr/"
 Entering Link 1 = /public/home/users/caep010/software/Gaussian09/g09/l1.exe PID=     11334.
  
 Copyright (c) 1988,1990,1992,1993,1995,1998,2003,2009,2015,
            Gaussian, Inc.  All Rights Reserved.
  
 This is part of the Gaussian(R) 09 program.  It is based on
 the Gaussian(R) 03 system (copyright 2003, Gaussian, Inc.),
 the Gaussian(R) 98 system (copyright 1998, Gaussian, Inc.),
 the Gaussian(R) 94 system (copyright 1995, Gaussian, Inc.),
 the Gaussian 92(TM) system (copyright 1992, Gaussian, Inc.),
 the Gaussian 90(TM) system (copyright 1990, Gaussian, Inc.),
 the Gaussian 88(TM) system (copyright 1988, Gaussian, Inc.),
 the Gaussian 86(TM) system (copyright 1986, Carnegie Mellon
 University), and the Gaussian 82(TM) system (copyright 1983,
 Carnegie Mellon University). Gaussian is a federally registered
 trademark of Gaussian, Inc.
  
 This software contains proprietary and confidential information,
 including trade secrets, belonging to Gaussian, Inc.
  
 This software is provided under written license and may be
 used, copied, transmitted, or stored only in accord with that
 written license.
  
 The following legend is applicable only to US Government
 contracts under FAR:
  
                    RESTRICTED RIGHTS LEGEND
  
 Use, reproduction and disclosure by the US Government is
 subject to restrictions as set forth in subparagraphs (a)
 and (c) of the Commercial Computer Software - Restricted
 Rights clause in FAR 52.227-19.
  
 Gaussian, Inc.
 340 Quinnipiac St., Bldg. 40, Wallingford CT 06492
  
  
 ---------------------------------------------------------------
 Warning -- This program may not be used in any manner that
 competes with the business of Gaussian, Inc. or will provide
 assistance to any competitor of Gaussian, Inc.  The licensee
 of this program is prohibited from giving any competitor of
 Gaussian, Inc. access to this program.  By using this program,
 the user acknowledges that Gaussian, Inc. is engaged in the
 business of creating and licensing software in the field of
 computational chemistry and represents and warrants to the
 licensee that it is not a competitor of Gaussian, Inc. and that
 it will not use this program in any manner prohibited above.
 ---------------------------------------------------------------
  

 Cite this work as:
 Gaussian 09, Revision E.01,
 M. J. Frisch, G. W. Trucks, H. B. Schlegel, G. E. Scuseria, 
 M. A. Robb, J. R. Cheeseman, G. Scalmani, V. Barone, B. Mennucci, 
 G. A. Petersson, H. Nakatsuji, M. Caricato, X. Li, H. P. Hratchian, 
 A. F. Izmaylov, J. Bloino, G. Zheng, J. L. Sonnenberg, M. Hada, 
 M. Ehara, K. Toyota, R. Fukuda, J. Hasegawa, M. Ishida, T. Nakajima, 
 Y. Honda, O. Kitao, H. Nakai, T. Vreven, J. A. Montgomery, Jr., 
 J. E. Peralta, F. Ogliaro, M. Bearpark, J. J. Heyd, E. Brothers, 
 K. N. Kudin, V. N. Staroverov, T. Keith, R. Kobayashi, J. Normand, 
 K. Raghavachari, A. Rendell, J. C. Burant, S. S. Iyengar, J. Tomasi, 
 M. Cossi, N. Rega, J. M. Millam, M. Klene, J. E. Knox, J. B. Cross, 
 V. Bakken, C. Adamo, J. Jaramillo, R. Gomperts, R. E. Stratmann, 
 O. Yazyev, A. J. Austin, R. Cammi, C. Pomelli, J. W. Ochterski, 
 R. L. Martin, K. Morokuma, V. G. Zakrzewski, G. A. Voth, 
 P. Salvador, J. J. Dannenberg, S. Dapprich, A. D. Daniels, 
 O. Farkas, J. B. Foresman, J. V. Ortiz, J. Cioslowski, 
 and D. J. Fox, Gaussian, Inc., Wallingford CT, 2013.
 
 ******************************************
 Gaussian 09:  ES64L-G09RevE.01 30-Nov-2015
                26-Aug-2022 
 ******************************************
 %nproc=32
 Will use up to   32 processors via shared memory.
 %mem=180GB
 %chk=G4.Frag_984.chk
 -----
 #P G4
 -----
 1/14=-1,18=20,19=15,26=3,38=1/1,3;
 2/9=110,12=2,17=6,18=5,40=1/2;
 3/5=35,7=104,11=2,16=1,25=1,30=1,71=1,74=-5/1,2,3;
 4//1;
 5/5=2,38=5/2;
 6/7=2,8=2,9=2,10=2,28=1/1;
 7//1,2,3,16;
 1/14=-1,18=20,19=15,26=3/3(2);
 2/9=110/2;
 99//99;
 2/9=110/2;
 3/5=35,7=104,11=2,16=1,25=1,30=1,71=1,74=-5/1,2,3;
 4/5=5,16=3,69=1/1;
 5/5=2,38=5/2;
 7//1,2,3,16;
 1/14=-1,18=20,19=15,26=3/3(-5);
 2/9=110/2;
 6/7=2,8=2,9=2,10=2,19=2,28=1/1;
 99/9=1/99;
 Leave Link    1 at Fri Aug 26 05:27:18 2022, MaxMem= 24159191040 cpu:         2.6
 (Enter /public/home/users/caep010/software/Gaussian09/g09/l101.exe)
 --------
 Frag_984
 --------
 Symbolic Z-matrix:
 Charge =  0 Multiplicity = 1
 C                    -0.8669    1.2057    0.5695 
 C                    -0.3147    0.0812    0.1003 
 C                    -1.1893   -1.1184   -0.1443 
 N                     1.0747    0.0464   -0.2826 
 N                     1.4443   -0.711    -1.2363 
 N                     2.0384    0.8115    0.3955 
 H                    -1.9204    1.2457    0.8181 
 H                    -0.2904    2.1133    0.6844 
 H                    -2.0026   -1.1804    0.6107 
 H                    -0.5899   -2.0502   -0.0741 
 H                    -1.637    -1.0507   -1.1579 
 H                     2.4459   -0.765    -1.529 
 H                     1.8078    1.3719    1.2455 
 
 NAtoms=     13 NQM=       13 NQMF=       0 NMMI=      0 NMMIF=      0
                NMic=       0 NMicF=      0.
                    Isotopes and Nuclear Properties:
 (Nuclear quadrupole moments (NQMom) in fm**2, nuclear magnetic moments (NMagM)
  in nuclear magnetons)

  Atom         1           2           3           4           5           6           7           8           9          10
 IAtWgt=          12          12          12          14          14          14           1           1           1           1
 AtmWgt=  12.0000000  12.0000000  12.0000000  14.0030740  14.0030740  14.0030740   1.0078250   1.0078250   1.0078250   1.0078250
 NucSpn=           0           0           0           2           2           2           1           1           1           1
 AtZEff=   0.0000000   0.0000000   0.0000000   0.0000000   0.0000000   0.0000000   0.0000000   0.0000000   0.0000000   0.0000000
 NQMom=    0.0000000   0.0000000   0.0000000   2.0440000   2.0440000   2.0440000   0.0000000   0.0000000   0.0000000   0.0000000
 NMagM=    0.0000000   0.0000000   0.0000000   0.4037610   0.4037610   0.4037610   2.7928460   2.7928460   2.7928460   2.7928460
 AtZNuc=   6.0000000   6.0000000   6.0000000   7.0000000   7.0000000   7.0000000   1.0000000   1.0000000   1.0000000   1.0000000

  Atom        11          12          13
 IAtWgt=           1           1           1
 AtmWgt=   1.0078250   1.0078250   1.0078250
 NucSpn=           1           1           1
 AtZEff=   0.0000000   0.0000000   0.0000000
 NQMom=    0.0000000   0.0000000   0.0000000
 NMagM=    2.7928460   2.7928460   2.7928460
 AtZNuc=   1.0000000   1.0000000   1.0000000
 Leave Link  101 at Fri Aug 26 05:27:19 2022, MaxMem= 24159191040 cpu:        10.0
 (Enter /public/home/users/caep010/software/Gaussian09/g09/l103.exe)

 GradGradGradGradGradGradGradGradGradGradGradGradGradGradGradGradGradGrad
 Berny optimization.
 Initialization pass.
                           ----------------------------
                           !    Initial Parameters    !
                           ! (Angstroms and Degrees)  !
 --------------------------                            --------------------------
 ! Name  Definition              Value          Derivative Info.                !
 --------------------------------------------------------------------------------
 ! R1    R(1,2)                  1.3377         estimate D2E/DX2                !
 ! R2    R(1,7)                  1.0832         estimate D2E/DX2                !
 ! R3    R(1,8)                  1.0813         estimate D2E/DX2                !
 ! R4    R(2,3)                  1.5046         estimate D2E/DX2                !
 ! R5    R(2,4)                  1.4416         estimate D2E/DX2                !
 ! R6    R(3,9)                  1.1115         estimate D2E/DX2                !
 ! R7    R(3,10)                 1.1102         estimate D2E/DX2                !
 ! R8    R(3,11)                 1.1101         estimate D2E/DX2                !
 ! R9    R(4,5)                  1.2727         estimate D2E/DX2                !
 ! R10   R(4,6)                  1.405          estimate D2E/DX2                !
 ! R11   R(5,12)                 1.0449         estimate D2E/DX2                !
 ! R12   R(6,13)                 1.0439         estimate D2E/DX2                !
 ! A1    A(2,1,7)              120.8649         estimate D2E/DX2                !
 ! A2    A(2,1,8)              121.5157         estimate D2E/DX2                !
 ! A3    A(7,1,8)              117.5904         estimate D2E/DX2                !
 ! A4    A(1,2,3)              119.1614         estimate D2E/DX2                !
 ! A5    A(1,2,4)              120.7492         estimate D2E/DX2                !
 ! A6    A(3,2,4)              119.8551         estimate D2E/DX2                !
 ! A7    A(2,3,9)              111.0632         estimate D2E/DX2                !
 ! A8    A(2,3,10)             110.186          estimate D2E/DX2                !
 ! A9    A(2,3,11)             109.526          estimate D2E/DX2                !
 ! A10   A(9,3,10)             107.7768         estimate D2E/DX2                !
 ! A11   A(9,3,11)             109.1791         estimate D2E/DX2                !
 ! A12   A(10,3,11)            109.0663         estimate D2E/DX2                !
 ! A13   A(2,4,5)              119.5563         estimate D2E/DX2                !
 ! A14   A(2,4,6)              121.315          estimate D2E/DX2                !
 ! A15   A(5,4,6)              119.1141         estimate D2E/DX2                !
 ! A16   A(4,5,12)             121.2677         estimate D2E/DX2                !
 ! A17   A(4,6,13)             122.2638         estimate D2E/DX2                !
 ! D1    D(7,1,2,3)              2.9519         estimate D2E/DX2                !
 ! D2    D(7,1,2,4)            177.3818         estimate D2E/DX2                !
 ! D3    D(8,1,2,3)           -175.0431         estimate D2E/DX2                !
 ! D4    D(8,1,2,4)             -0.6132         estimate D2E/DX2                !
 ! D5    D(1,2,3,9)            -34.8762         estimate D2E/DX2                !
 ! D6    D(1,2,3,10)          -154.2282         estimate D2E/DX2                !
 ! D7    D(1,2,3,11)            85.7946         estimate D2E/DX2                !
 ! D8    D(4,2,3,9)            150.6432         estimate D2E/DX2                !
 ! D9    D(4,2,3,10)            31.2912         estimate D2E/DX2                !
 ! D10   D(4,2,3,11)           -88.6861         estimate D2E/DX2                !
 ! D11   D(1,2,4,5)           -147.533          estimate D2E/DX2                !
 ! D12   D(1,2,4,6)             33.8677         estimate D2E/DX2                !
 ! D13   D(3,2,4,5)             26.8585         estimate D2E/DX2                !
 ! D14   D(3,2,4,6)           -151.7408         estimate D2E/DX2                !
 ! D15   D(2,4,5,12)          -179.3211         estimate D2E/DX2                !
 ! D16   D(6,4,5,12)            -0.6908         estimate D2E/DX2                !
 ! D17   D(2,4,6,13)             5.0781         estimate D2E/DX2                !
 ! D18   D(5,4,6,13)          -173.5273         estimate D2E/DX2                !
 --------------------------------------------------------------------------------
 Trust Radius=3.00D-01 FncErr=1.00D-07 GrdErr=1.00D-06
 Number of steps in this run=     57 maximum allowed number of steps=    100.
 GradGradGradGradGradGradGradGradGradGradGradGradGradGradGradGradGradGrad

 Leave Link  103 at Fri Aug 26 05:27:19 2022, MaxMem= 24159191040 cpu:         0.5
 (Enter /public/home/users/caep010/software/Gaussian09/g09/l202.exe)
                          Input orientation:                          
 ---------------------------------------------------------------------
 Center     Atomic      Atomic             Coordinates (Angstroms)
 Number     Number       Type             X           Y           Z
 ---------------------------------------------------------------------
      1          6           0       -0.866900    1.205700    0.569500
      2          6           0       -0.314700    0.081200    0.100300
      3          6           0       -1.189300   -1.118400   -0.144300
      4          7           0        1.074700    0.046400   -0.282600
      5          7           0        1.444300   -0.711000   -1.236300
      6          7           0        2.038400    0.811500    0.395500
      7          1           0       -1.920400    1.245700    0.818100
      8          1           0       -0.290400    2.113300    0.684400
      9          1           0       -2.002600   -1.180400    0.610700
     10          1           0       -0.589900   -2.050200   -0.074100
     11          1           0       -1.637000   -1.050700   -1.157900
     12          1           0        2.445900   -0.765000   -1.529000
     13          1           0        1.807800    1.371900    1.245500
 ---------------------------------------------------------------------
                    Distance matrix (angstroms):
                    1          2          3          4          5
     1  C    0.000000
     2  C    1.337750   0.000000
     3  C    2.452528   1.504591   0.000000
     4  N    2.416581   1.441616   2.549820   0.000000
     5  N    3.503755   2.346947   2.879981   1.272715   0.000000
     6  N    2.937080   2.481443   3.799203   1.404961   2.309487
     7  H    1.083173   2.109400   2.655125   3.408883   4.401186
     8  H    1.081338   2.114520   3.455235   2.659072   3.830789
     9  H    2.642912   2.168213   1.111452   3.431151   3.938637
    10  H    3.330441   2.156158   1.110162   2.685162   2.698543
    11  H    2.944199   2.147730   1.110137   3.053374   3.100960
    12  H    4.388850   3.315356   3.906016   2.022887   1.044888
    13  H    2.763805   2.735397   4.137118   2.151622   3.260358
                    6          7          8          9         10
     6  N    0.000000
     7  H    4.004899   0.000000
     8  H    2.683553   1.851352   0.000000
     9  H    4.510394   2.436336   3.712886   0.000000
    10  H    3.913798   3.664588   4.242612   1.794777   0.000000
    11  H    4.403340   3.042753   3.901064   1.810644   1.808325
    12  H    2.520934   5.349427   4.546547   4.953789   3.603409
    13  H    1.043899   3.754740   2.294984   4.629941   4.381903
                   11         12         13
    11  H    0.000000
    12  H    4.109673   0.000000
    13  H    4.848914   3.559686   0.000000
 Stoichiometry    C3H7N3
 Framework group  C1[X(C3H7N3)]
 Deg. of freedom    33
 Full point group                 C1      NOp   1
 Largest Abelian subgroup         C1      NOp   1
 Largest concise Abelian subgroup C1      NOp   1
                         Standard orientation:                         
 ---------------------------------------------------------------------
 Center     Atomic      Atomic             Coordinates (Angstroms)
 Number     Number       Type             X           Y           Z
 ---------------------------------------------------------------------
      1          6           0       -1.135826    1.365371   -0.305473
      2          6           0       -0.662291    0.153637    0.006040
      3          6           0       -1.631251   -0.968446    0.262633
      4          7           0        0.754196   -0.113126   -0.019599
      5          7           0        1.168839   -1.273523   -0.337960
      6          7           0        1.689845    0.875441    0.328553
      7          1           0       -2.201760    1.556566   -0.327726
      8          1           0       -0.475473    2.178328   -0.574409
      9          1           0       -2.552222   -0.594978    0.760286
     10          1           0       -1.170362   -1.727849    0.928477
     11          1           0       -1.905950   -1.448837   -0.699744
     12          1           0        2.188931   -1.499159   -0.355037
     13          1           0        1.402890    1.811011    0.691996
 ---------------------------------------------------------------------
 Rotational constants (GHZ):      5.3854737      3.3447237      2.2083008
 Leave Link  202 at Fri Aug 26 05:27:19 2022, MaxMem= 24159191040 cpu:         0.4
 (Enter /public/home/users/caep010/software/Gaussian09/g09/l301.exe)
 Standard basis: GTBas3 (6D, 7F)
 Ernie: Thresh=  0.10000D-02 Tol=  0.10000D-05 Strict=F.
 There are   221 symmetry adapted cartesian basis functions of A   symmetry.
 There are   203 symmetry adapted basis functions of A   symmetry.
   203 basis functions,   313 primitive gaussians,   221 cartesian basis functions
    23 alpha electrons       23 beta electrons
       nuclear repulsion energy       229.9470967391 Hartrees.
 IExCor=  402 DFT=T Ex+Corr=B3LYP ExCW=0 ScaHFX=  0.200000
 ScaDFX=  0.800000  0.720000  1.000000  0.810000 ScalE2=  1.000000  1.000000
 IRadAn=      0 IRanWt=     -1 IRanGd=            0 ICorTp=0 IEmpDi=  4
 NAtoms=   13 NActive=   13 NUniq=   13 SFac= 1.00D+00 NAtFMM=   60 NAOKFM=F Big=F
 Integral buffers will be    131072 words long.
 Raffenetti 2 integral format.
 Two-electron integral symmetry is turned on.
 Leave Link  301 at Fri Aug 26 05:27:19 2022, MaxMem= 24159191040 cpu:         2.6
 (Enter /public/home/users/caep010/software/Gaussian09/g09/l302.exe)
 NPDir=0 NMtPBC=     1 NCelOv=     1 NCel=       1 NClECP=     1 NCelD=      1
         NCelK=      1 NCelE2=     1 NClLst=     1 CellRange=     0.0.
 One-electron integrals computed using PRISM.
 NBasis=   203 RedAO= T EigKep=  2.89D-04  NBF=   203
 NBsUse=   203 1.00D-06 EigRej= -1.00D+00 NBFU=   203
 Precomputing XC quadrature grid using
 IXCGrd= 4 IRadAn=           0 IRanWt=          -1 IRanGd=           0 AccXCQ= 0.00D+00.
 Generated NRdTot=       0 NPtTot=           0 NUsed=           0 NTot=          32
 NSgBfM=   221   221   221   221   221 MxSgAt=    13 MxSgA2=    13.
 Leave Link  302 at Fri Aug 26 05:27:20 2022, MaxMem= 24159191040 cpu:        15.1
 (Enter /public/home/users/caep010/software/Gaussian09/g09/l303.exe)
 DipDrv:  MaxL=1.
 Leave Link  303 at Fri Aug 26 05:27:20 2022, MaxMem= 24159191040 cpu:         3.8
 (Enter /public/home/users/caep010/software/Gaussian09/g09/l401.exe)
 ExpMin= 1.61D-01 ExpMax= 4.17D+03 ExpMxC= 6.27D+02 IAcc=1 IRadAn=         1 AccDes= 0.00D+00
 Harris functional with IExCor=  402 and IRadAn=       1 diagonalized for initial guess.
 HarFok:  IExCor=  402 AccDes= 0.00D+00 IRadAn=         1 IDoV= 1 UseB2=F ITyADJ=14
 ICtDFT=  3500011 ScaDFX=  1.000000  1.000000  1.000000  1.000000
 FoFCou: FMM=F IPFlag=           0 FMFlag=      100000 FMFlg1=           0
         NFxFlg=           0 DoJE=T BraDBF=F KetDBF=T FulRan=T
         wScrn=  0.000000 ICntrl=     500 IOpCl=  0 I1Cent=   200000004 NGrid=           0
         NMat0=    1 NMatS0=      1 NMatT0=    0 NMatD0=    1 NMtDS0=    0 NMtDT0=    0
 Petite list used in FoFCou.
 Harris En= -282.687438226493    
 JPrj=0 DoOrth=F DoCkMO=F.
 Leave Link  401 at Fri Aug 26 05:27:20 2022, MaxMem= 24159191040 cpu:        13.1
 (Enter /public/home/users/caep010/software/Gaussian09/g09/l502.exe)
 Closed shell SCF:
 Using DIIS extrapolation, IDIIS=  1040.
 Integral symmetry usage will be decided dynamically.
 Keep R1 ints in memory in canonical form, NReq=220023741.
 IVT=      173757 IEndB=      173757 NGot= 24159191040 MDV= 23944637713
 LenX= 23944637713 LenY= 23944588431
 Requested convergence on RMS density matrix=1.00D-08 within 128 cycles.
 Requested convergence on MAX density matrix=1.00D-06.
 Requested convergence on             energy=1.00D-06.
 No special actions if energy rises.
 FoFCou: FMM=F IPFlag=           0 FMFlag=           0 FMFlg1=           0
         NFxFlg=           0 DoJE=F BraDBF=F KetDBF=F FulRan=T
         wScrn=  0.000000 ICntrl=     600 IOpCl=  0 I1Cent=           0 NGrid=           0
         NMat0=    1 NMatS0=  20706 NMatT0=    0 NMatD0=    1 NMtDS0=    0 NMtDT0=    0
 Symmetry not used in FoFCou.
 Integral accuracy reduced to 1.0D-05 until final iterations.

 Cycle   1  Pass 0  IDiag  1:
 E= -282.437073901508    
 DIIS: error= 2.07D-02 at cycle   1 NSaved=   1.
 NSaved= 1 IEnMin= 1 EnMin= -282.437073901508     IErMin= 1 ErrMin= 2.07D-02
 ErrMax= 2.07D-02  0.00D+00 EMaxC= 1.00D-01 BMatC= 2.54D-01 BMatP= 2.54D-01
 IDIUse=3 WtCom= 7.93D-01 WtEn= 2.07D-01
 Coeff-Com:  0.100D+01
 Coeff-En:   0.100D+01
 Coeff:      0.100D+01
 Gap=     0.098 Goal=   None    Shift=    0.000
 GapD=    0.098 DampG=0.500 DampE=0.500 DampFc=0.2500 IDamp=-1.
 Damping current iteration by 2.50D-01
 RMSDP=5.39D-03 MaxDP=2.02D-01              OVMax= 2.84D-01

 Cycle   2  Pass 0  IDiag  1:
 E= -282.516599393623     Delta-E=       -0.079525492114 Rises=F Damp=T
 DIIS: error= 1.02D-02 at cycle   2 NSaved=   2.
 NSaved= 2 IEnMin= 2 EnMin= -282.516599393623     IErMin= 2 ErrMin= 1.02D-02
 ErrMax= 1.02D-02  0.00D+00 EMaxC= 1.00D-01 BMatC= 4.73D-02 BMatP= 2.54D-01
 IDIUse=3 WtCom= 8.98D-01 WtEn= 1.02D-01
 Coeff-Com: -0.461D+00 0.146D+01
 Coeff-En:   0.000D+00 0.100D+01
 Coeff:     -0.414D+00 0.141D+01
 Gap=     0.121 Goal=   None    Shift=    0.000
 RMSDP=2.10D-03 MaxDP=9.18D-02 DE=-7.95D-02 OVMax= 3.50D-01

 Cycle   3  Pass 0  IDiag  1:
 E= -282.584686290241     Delta-E=       -0.068086896618 Rises=F Damp=F
 DIIS: error= 1.38D-02 at cycle   3 NSaved=   3.
 NSaved= 3 IEnMin= 3 EnMin= -282.584686290241     IErMin= 2 ErrMin= 1.02D-02
 ErrMax= 1.38D-02  0.00D+00 EMaxC= 1.00D-01 BMatC= 7.42D-02 BMatP= 4.73D-02
 IDIUse=2 WtCom= 0.00D+00 WtEn= 1.00D+00
 Coeff-En:   0.000D+00 0.167D+00 0.833D+00
 Coeff:      0.000D+00 0.167D+00 0.833D+00
 Gap=     0.093 Goal=   None    Shift=    0.000
 RMSDP=4.46D-03 MaxDP=2.21D-01 DE=-6.81D-02 OVMax= 5.73D-01

 Cycle   4  Pass 0  IDiag  1:
 E= -282.090925608226     Delta-E=        0.493760682015 Rises=F Damp=F
 DIIS: error= 3.32D-02 at cycle   4 NSaved=   4.
 NSaved= 4 IEnMin= 3 EnMin= -282.584686290241     IErMin= 2 ErrMin= 1.02D-02
 ErrMax= 3.32D-02  0.00D+00 EMaxC= 1.00D-01 BMatC= 5.40D-01 BMatP= 4.73D-02
 IDIUse=2 WtCom= 0.00D+00 WtEn= 1.00D+00
 Coeff-En:   0.000D+00 0.000D+00 0.805D+00 0.195D+00
 Coeff:      0.000D+00 0.000D+00 0.805D+00 0.195D+00
 Gap=     0.159 Goal=   None    Shift=    0.000
 RMSDP=2.42D-03 MaxDP=1.22D-01 DE= 4.94D-01 OVMax= 3.38D-01

 Cycle   5  Pass 0  IDiag  1:
 E= -282.606922422992     Delta-E=       -0.515996814767 Rises=F Damp=F
 DIIS: error= 1.07D-02 at cycle   5 NSaved=   5.
 NSaved= 5 IEnMin= 5 EnMin= -282.606922422992     IErMin= 2 ErrMin= 1.02D-02
 ErrMax= 1.07D-02  0.00D+00 EMaxC= 1.00D-01 BMatC= 5.47D-02 BMatP= 4.73D-02
 IDIUse=2 WtCom= 0.00D+00 WtEn= 1.00D+00
 Coeff-En:   0.000D+00 0.000D+00 0.442D+00 0.000D+00 0.558D+00
 Coeff:      0.000D+00 0.000D+00 0.442D+00 0.000D+00 0.558D+00
 Gap=     0.140 Goal=   None    Shift=    0.000
 RMSDP=1.24D-03 MaxDP=7.45D-02 DE=-5.16D-01 OVMax= 1.70D-01

 Cycle   6  Pass 0  IDiag  1:
 E= -282.657773650063     Delta-E=       -0.050851227071 Rises=F Damp=F
 DIIS: error= 2.33D-03 at cycle   6 NSaved=   6.
 NSaved= 6 IEnMin= 6 EnMin= -282.657773650063     IErMin= 6 ErrMin= 2.33D-03
 ErrMax= 2.33D-03  0.00D+00 EMaxC= 1.00D-01 BMatC= 3.50D-03 BMatP= 4.73D-02
 IDIUse=3 WtCom= 9.77D-01 WtEn= 2.33D-02
 Coeff-Com: -0.339D-01 0.456D-01 0.208D+00-0.473D-01 0.433D+00 0.395D+00
 Coeff-En:   0.000D+00 0.000D+00 0.000D+00 0.000D+00 0.592D-01 0.941D+00
 Coeff:     -0.331D-01 0.445D-01 0.203D+00-0.462D-01 0.424D+00 0.408D+00
 Gap=     0.146 Goal=   None    Shift=    0.000
 RMSDP=3.25D-04 MaxDP=1.93D-02 DE=-5.09D-02 OVMax= 3.99D-02

 Cycle   7  Pass 0  IDiag  1:
 E= -282.660413693483     Delta-E=       -0.002640043420 Rises=F Damp=F
 DIIS: error= 7.73D-04 at cycle   7 NSaved=   7.
 NSaved= 7 IEnMin= 7 EnMin= -282.660413693483     IErMin= 7 ErrMin= 7.73D-04
 ErrMax= 7.73D-04  0.00D+00 EMaxC= 1.00D-01 BMatC= 4.83D-04 BMatP= 3.50D-03
 IDIUse=3 WtCom= 9.92D-01 WtEn= 7.73D-03
 Coeff-Com: -0.197D-01 0.291D-01 0.798D-01-0.319D-01 0.194D+00 0.270D+00
 Coeff-Com:  0.478D+00
 Coeff-En:   0.000D+00 0.000D+00 0.000D+00 0.000D+00 0.000D+00 0.176D+00
 Coeff-En:   0.824D+00
 Coeff:     -0.196D-01 0.288D-01 0.792D-01-0.317D-01 0.193D+00 0.269D+00
 Coeff:      0.481D+00
 Gap=     0.148 Goal=   None    Shift=    0.000
 RMSDP=9.80D-05 MaxDP=4.17D-03 DE=-2.64D-03 OVMax= 1.03D-02

 Cycle   8  Pass 0  IDiag  1:
 E= -282.660846195161     Delta-E=       -0.000432501678 Rises=F Damp=F
 DIIS: error= 3.35D-04 at cycle   8 NSaved=   8.
 NSaved= 8 IEnMin= 8 EnMin= -282.660846195161     IErMin= 8 ErrMin= 3.35D-04
 ErrMax= 3.35D-04  0.00D+00 EMaxC= 1.00D-01 BMatC= 4.86D-05 BMatP= 4.83D-04
 IDIUse=3 WtCom= 9.97D-01 WtEn= 3.35D-03
 Coeff-Com:  0.113D-01-0.175D-01 0.975D-03-0.104D-02-0.202D-03 0.112D+00
 Coeff-Com:  0.234D+00 0.661D+00
 Coeff-En:   0.000D+00 0.000D+00 0.000D+00 0.000D+00 0.000D+00 0.000D+00
 Coeff-En:   0.000D+00 0.100D+01
 Coeff:      0.113D-01-0.175D-01 0.972D-03-0.104D-02-0.202D-03 0.111D+00
 Coeff:      0.233D+00 0.662D+00
 Gap=     0.148 Goal=   None    Shift=    0.000
 RMSDP=3.00D-05 MaxDP=1.46D-03 DE=-4.33D-04 OVMax= 2.86D-03

 Cycle   9  Pass 0  IDiag  1:
 E= -282.660895949058     Delta-E=       -0.000049753897 Rises=F Damp=F
 DIIS: error= 4.12D-05 at cycle   9 NSaved=   9.
 NSaved= 9 IEnMin= 9 EnMin= -282.660895949058     IErMin= 9 ErrMin= 4.12D-05
 ErrMax= 4.12D-05  0.00D+00 EMaxC= 1.00D-01 BMatC= 4.87D-07 BMatP= 4.86D-05
 IDIUse=1 WtCom= 1.00D+00 WtEn= 0.00D+00
 Coeff-Com:  0.457D-02-0.676D-02-0.168D-02 0.464D-03-0.594D-02 0.368D-01
 Coeff-Com:  0.795D-01 0.263D+00 0.630D+00
 Coeff:      0.457D-02-0.676D-02-0.168D-02 0.464D-03-0.594D-02 0.368D-01
 Coeff:      0.795D-01 0.263D+00 0.630D+00
 Gap=     0.148 Goal=   None    Shift=    0.000
 RMSDP=5.19D-06 MaxDP=2.07D-04 DE=-4.98D-05 OVMax= 4.14D-04

 Initial convergence to 1.0D-05 achieved.  Increase integral accuracy.
 Cycle  10  Pass 1  IDiag  1:
 E= -282.660930368451     Delta-E=       -0.000034419393 Rises=F Damp=F
 DIIS: error= 1.70D-05 at cycle   1 NSaved=   1.
 NSaved= 1 IEnMin= 1 EnMin= -282.660930368451     IErMin= 1 ErrMin= 1.70D-05
 ErrMax= 1.70D-05  0.00D+00 EMaxC= 1.00D-01 BMatC= 1.61D-07 BMatP= 1.61D-07
 IDIUse=1 WtCom= 1.00D+00 WtEn= 0.00D+00
 Coeff-Com:  0.100D+01
 Coeff:      0.100D+01
 Gap=     0.148 Goal=   None    Shift=    0.000
 RMSDP=5.19D-06 MaxDP=2.07D-04 DE=-3.44D-05 OVMax= 6.02D-04

 Cycle  11  Pass 1  IDiag  1:
 E= -282.660929779153     Delta-E=        0.000000589298 Rises=F Damp=F
 DIIS: error= 4.77D-05 at cycle   2 NSaved=   2.
 NSaved= 2 IEnMin= 1 EnMin= -282.660930368451     IErMin= 1 ErrMin= 1.70D-05
 ErrMax= 4.77D-05  0.00D+00 EMaxC= 1.00D-01 BMatC= 7.54D-07 BMatP= 1.61D-07
 IDIUse=1 WtCom= 1.00D+00 WtEn= 0.00D+00
 Coeff-Com:  0.701D+00 0.299D+00
 Coeff:      0.701D+00 0.299D+00
 Gap=     0.148 Goal=   None    Shift=    0.000
 RMSDP=5.04D-06 MaxDP=2.80D-04 DE= 5.89D-07 OVMax= 7.03D-04

 Cycle  12  Pass 1  IDiag  1:
 E= -282.660930428674     Delta-E=       -0.000000649522 Rises=F Damp=F
 DIIS: error= 1.34D-05 at cycle   3 NSaved=   3.
 NSaved= 3 IEnMin= 3 EnMin= -282.660930428674     IErMin= 3 ErrMin= 1.34D-05
 ErrMax= 1.34D-05  0.00D+00 EMaxC= 1.00D-01 BMatC= 9.85D-08 BMatP= 1.61D-07
 IDIUse=1 WtCom= 1.00D+00 WtEn= 0.00D+00
 Coeff-Com:  0.360D+00 0.244D+00 0.396D+00
 Coeff:      0.360D+00 0.244D+00 0.396D+00
 Gap=     0.148 Goal=   None    Shift=    0.000
 RMSDP=1.61D-06 MaxDP=8.56D-05 DE=-6.50D-07 OVMax= 1.94D-04

 Cycle  13  Pass 1  IDiag  1:
 E= -282.660930521620     Delta-E=       -0.000000092946 Rises=F Damp=F
 DIIS: error= 2.12D-06 at cycle   4 NSaved=   4.
 NSaved= 4 IEnMin= 4 EnMin= -282.660930521620     IErMin= 4 ErrMin= 2.12D-06
 ErrMax= 2.12D-06  0.00D+00 EMaxC= 1.00D-01 BMatC= 2.44D-09 BMatP= 9.85D-08
 IDIUse=1 WtCom= 1.00D+00 WtEn= 0.00D+00
 Coeff-Com: -0.184D-01 0.463D-01 0.161D+00 0.811D+00
 Coeff:     -0.184D-01 0.463D-01 0.161D+00 0.811D+00
 Gap=     0.148 Goal=   None    Shift=    0.000
 RMSDP=2.85D-07 MaxDP=1.06D-05 DE=-9.29D-08 OVMax= 1.60D-05

 Cycle  14  Pass 1  IDiag  1:
 E= -282.660930524007     Delta-E=       -0.000000002387 Rises=F Damp=F
 DIIS: error= 3.52D-07 at cycle   5 NSaved=   5.
 NSaved= 5 IEnMin= 5 EnMin= -282.660930524007     IErMin= 5 ErrMin= 3.52D-07
 ErrMax= 3.52D-07  0.00D+00 EMaxC= 1.00D-01 BMatC= 5.95D-11 BMatP= 2.44D-09
 IDIUse=1 WtCom= 1.00D+00 WtEn= 0.00D+00
 Coeff-Com: -0.105D-01 0.201D-01 0.645D-01 0.359D+00 0.567D+00
 Coeff:     -0.105D-01 0.201D-01 0.645D-01 0.359D+00 0.567D+00
 Gap=     0.148 Goal=   None    Shift=    0.000
 RMSDP=4.48D-08 MaxDP=2.35D-06 DE=-2.39D-09 OVMax= 4.30D-06

 Cycle  15  Pass 1  IDiag  1:
 E= -282.660930524030     Delta-E=       -0.000000000023 Rises=F Damp=F
 DIIS: error= 2.30D-07 at cycle   6 NSaved=   6.
 NSaved= 6 IEnMin= 6 EnMin= -282.660930524030     IErMin= 6 ErrMin= 2.30D-07
 ErrMax= 2.30D-07  0.00D+00 EMaxC= 1.00D-01 BMatC= 2.04D-11 BMatP= 5.95D-11
 IDIUse=1 WtCom= 1.00D+00 WtEn= 0.00D+00
 Coeff-Com: -0.287D-02 0.384D-02 0.460D-02 0.598D-01 0.363D+00 0.571D+00
 Coeff:     -0.287D-02 0.384D-02 0.460D-02 0.598D-01 0.363D+00 0.571D+00
 Gap=     0.148 Goal=   None    Shift=    0.000
 RMSDP=1.95D-08 MaxDP=1.09D-06 DE=-2.32D-11 OVMax= 2.27D-06

 Cycle  16  Pass 1  IDiag  1:
 E= -282.660930524054     Delta-E=       -0.000000000024 Rises=F Damp=F
 DIIS: error= 5.71D-08 at cycle   7 NSaved=   7.
 NSaved= 7 IEnMin= 7 EnMin= -282.660930524054     IErMin= 7 ErrMin= 5.71D-08
 ErrMax= 5.71D-08  0.00D+00 EMaxC= 1.00D-01 BMatC= 1.37D-12 BMatP= 2.04D-11
 IDIUse=1 WtCom= 1.00D+00 WtEn= 0.00D+00
 Coeff-Com:  0.307D-03-0.392D-03-0.651D-02-0.185D-01 0.405D-01 0.173D+00
 Coeff-Com:  0.812D+00
 Coeff:      0.307D-03-0.392D-03-0.651D-02-0.185D-01 0.405D-01 0.173D+00
 Coeff:      0.812D+00
 Gap=     0.148 Goal=   None    Shift=    0.000
 RMSDP=5.75D-09 MaxDP=1.88D-07 DE=-2.35D-11 OVMax= 3.40D-07

 SCF Done:  E(RB3LYP) =  -282.660930524     A.U. after   16 cycles
            NFock= 16  Conv=0.57D-08     -V/T= 2.0092
 KE= 2.800873468992D+02 PE=-1.116994838794D+03 EE= 3.242994646321D+02
 Leave Link  502 at Fri Aug 26 05:27:28 2022, MaxMem= 24159191040 cpu:        94.1
 (Enter /public/home/users/caep010/software/Gaussian09/g09/l601.exe)
 Copying SCF densities to generalized density rwf, IOpCl= 0 IROHF=0.

 **********************************************************************

            Population analysis using the SCF density.

 **********************************************************************

 Orbital symmetries:
       Occupied  (A) (A) (A) (A) (A) (A) (A) (A) (A) (A) (A) (A)
                 (A) (A) (A) (A) (A) (A) (A) (A) (A) (A) (A)
       Virtual   (A) (A) (A) (A) (A) (A) (A) (A) (A) (A) (A) (A)
                 (A) (A) (A) (A) (A) (A) (A) (A) (A) (A) (A) (A)
                 (A) (A) (A) (A) (A) (A) (A) (A) (A) (A) (A) (A)
                 (A) (A) (A) (A) (A) (A) (A) (A) (A) (A) (A) (A)
                 (A) (A) (A) (A) (A) (A) (A) (A) (A) (A) (A) (A)
                 (A) (A) (A) (A) (A) (A) (A) (A) (A) (A) (A) (A)
                 (A) (A) (A) (A) (A) (A) (A) (A) (A) (A) (A) (A)
                 (A) (A) (A) (A) (A) (A) (A) (A) (A) (A) (A) (A)
                 (A) (A) (A) (A) (A) (A) (A) (A) (A) (A) (A) (A)
                 (A) (A) (A) (A) (A) (A) (A) (A) (A) (A) (A) (A)
                 (A) (A) (A) (A) (A) (A) (A) (A) (A) (A) (A) (A)
                 (A) (A) (A) (A) (A) (A) (A) (A) (A) (A) (A) (A)
                 (A) (A) (A) (A) (A) (A) (A) (A) (A) (A) (A) (A)
                 (A) (A) (A) (A) (A) (A) (A) (A) (A) (A) (A) (A)
                 (A) (A) (A) (A) (A) (A) (A) (A) (A) (A) (A) (A)
 The electronic state is 1-A.
 Alpha  occ. eigenvalues --  -14.49120 -14.33879 -14.31819 -10.25275 -10.20487
 Alpha  occ. eigenvalues --  -10.20169  -1.06358  -0.84373  -0.81636  -0.70196
 Alpha  occ. eigenvalues --   -0.69450  -0.56492  -0.53548  -0.50596  -0.47158
 Alpha  occ. eigenvalues --   -0.43748  -0.41934  -0.40540  -0.37966  -0.28535
 Alpha  occ. eigenvalues --   -0.27879  -0.25413  -0.21056
 Alpha virt. eigenvalues --   -0.06292   0.01991   0.09267   0.09787   0.10850
 Alpha virt. eigenvalues --    0.13591   0.14419   0.16641   0.17644   0.19325
 Alpha virt. eigenvalues --    0.23324   0.28372   0.31968   0.34231   0.41439
 Alpha virt. eigenvalues --    0.45434   0.46773   0.49450   0.52383   0.53089
 Alpha virt. eigenvalues --    0.53687   0.54514   0.57638   0.59757   0.62239
 Alpha virt. eigenvalues --    0.64510   0.65834   0.67184   0.72350   0.72834
 Alpha virt. eigenvalues --    0.73172   0.74753   0.75934   0.76795   0.78290
 Alpha virt. eigenvalues --    0.81210   0.81976   0.83421   0.84475   0.86637
 Alpha virt. eigenvalues --    0.88494   0.89613   0.96748   0.98437   1.02433
 Alpha virt. eigenvalues --    1.03898   1.05348   1.10501   1.15348   1.17147
 Alpha virt. eigenvalues --    1.22218   1.26411   1.29744   1.34269   1.38058
 Alpha virt. eigenvalues --    1.39598   1.42465   1.46531   1.50707   1.52501
 Alpha virt. eigenvalues --    1.55228   1.61228   1.62100   1.67767   1.68603
 Alpha virt. eigenvalues --    1.71758   1.72838   1.75315   1.82995   1.86850
 Alpha virt. eigenvalues --    1.88796   1.92901   1.96759   2.01486   2.07160
 Alpha virt. eigenvalues --    2.09716   2.14127   2.19351   2.25725   2.35603
 Alpha virt. eigenvalues --    2.39286   2.42429   2.43839   2.47069   2.54391
 Alpha virt. eigenvalues --    2.65182   2.71536   2.74231   2.76849   2.79202
 Alpha virt. eigenvalues --    2.82422   2.87861   2.88605   2.90855   2.93480
 Alpha virt. eigenvalues --    2.94574   2.97274   3.01356   3.04096   3.08937
 Alpha virt. eigenvalues --    3.14713   3.17764   3.20432   3.27237   3.31332
 Alpha virt. eigenvalues --    3.34275   3.35865   3.38526   3.41774   3.44419
 Alpha virt. eigenvalues --    3.49166   3.49693   3.52448   3.60798   3.63146
 Alpha virt. eigenvalues --    3.64608   3.67065   3.69886   3.75074   3.76242
 Alpha virt. eigenvalues --    3.78370   3.78782   3.84764   3.91991   3.93689
 Alpha virt. eigenvalues --    4.03795   4.05083   4.07733   4.08179   4.12634
 Alpha virt. eigenvalues --    4.15559   4.16263   4.18697   4.21646   4.22602
 Alpha virt. eigenvalues --    4.25141   4.30525   4.33932   4.34993   4.36498
 Alpha virt. eigenvalues --    4.41342   4.44301   4.47204   4.49343   4.51509
 Alpha virt. eigenvalues --    4.53841   4.55895   4.58619   4.61700   4.65051
 Alpha virt. eigenvalues --    4.66301   4.68296   4.71973   4.74624   4.77152
 Alpha virt. eigenvalues --    4.78082   4.85955   4.92952   5.03087   5.07716
 Alpha virt. eigenvalues --    5.09135   5.14166   5.18509   5.28286   5.31816
 Alpha virt. eigenvalues --    5.38693   5.49327   5.60282   5.62463   5.78491
 Alpha virt. eigenvalues --    6.06384   6.15657   7.26858  10.26591  11.18429
 Alpha virt. eigenvalues --   11.31827  11.39673  11.43102  11.84291  15.86543
          Condensed to atoms (all electrons):
               1          2          3          4          5          6
     1  C    5.128457   0.596726  -0.074397  -0.003803   0.001750  -0.007344
     2  C    0.596726   4.486000   0.381247   0.295490  -0.040180  -0.062259
     3  C   -0.074397   0.381247   5.098635  -0.036813  -0.005961   0.005988
     4  N   -0.003803   0.295490  -0.036813   5.781534   0.491840   0.489371
     5  N    0.001750  -0.040180  -0.005961   0.491840   6.739325  -0.108555
     6  N   -0.007344  -0.062259   0.005988   0.489371  -0.108555   6.877186
     7  H    0.368680  -0.014805  -0.010067   0.003403  -0.000110   0.000136
     8  H    0.341708  -0.005709   0.007349  -0.012581  -0.000464   0.009862
     9  H   -0.002991  -0.024671   0.371396   0.000938   0.000462  -0.000103
    10  H    0.004695  -0.016359   0.358975  -0.004362   0.008096   0.000130
    11  H   -0.004874  -0.016295   0.367062  -0.000102   0.001489  -0.000045
    12  H   -0.000222   0.005608  -0.000749  -0.062033   0.324368   0.003525
    13  H    0.001666  -0.007768   0.000083  -0.049056   0.005547   0.292003
               7          8          9         10         11         12
     1  C    0.368680   0.341708  -0.002991   0.004695  -0.004874  -0.000222
     2  C   -0.014805  -0.005709  -0.024671  -0.016359  -0.016295   0.005608
     3  C   -0.010067   0.007349   0.371396   0.358975   0.367062  -0.000749
     4  N    0.003403  -0.012581   0.000938  -0.004362  -0.000102  -0.062033
     5  N   -0.000110  -0.000464   0.000462   0.008096   0.001489   0.324368
     6  N    0.000136   0.009862  -0.000103   0.000130  -0.000045   0.003525
     7  H    0.551462  -0.036545   0.001874   0.000188   0.000505   0.000004
     8  H   -0.036545   0.565223   0.000148  -0.000181  -0.000207  -0.000025
     9  H    0.001874   0.000148   0.574731  -0.026189  -0.029191  -0.000002
    10  H    0.000188  -0.000181  -0.026189   0.554574  -0.026592  -0.000290
    11  H    0.000505  -0.000207  -0.029191  -0.026592   0.554789   0.000004
    12  H    0.000004  -0.000025  -0.000002  -0.000290   0.000004   0.462535
    13  H    0.000104   0.001872  -0.000042  -0.000029   0.000002  -0.000195
              13
     1  C    0.001666
     2  C   -0.007768
     3  C    0.000083
     4  N   -0.049056
     5  N    0.005547
     6  N    0.292003
     7  H    0.000104
     8  H    0.001872
     9  H   -0.000042
    10  H   -0.000029
    11  H    0.000002
    12  H   -0.000195
    13  H    0.521283
 Mulliken charges:
               1
     1  C   -0.350051
     2  C    0.422974
     3  C   -0.462749
     4  N    0.106173
     5  N   -0.417608
     6  N   -0.499896
     7  H    0.135172
     8  H    0.129549
     9  H    0.133639
    10  H    0.147342
    11  H    0.153454
    12  H    0.267472
    13  H    0.234530
 Sum of Mulliken charges =  -0.00000
 Mulliken charges with hydrogens summed into heavy atoms:
               1
     1  C   -0.085331
     2  C    0.422974
     3  C   -0.028313
     4  N    0.106173
     5  N   -0.150136
     6  N   -0.265366
 Electronic spatial extent (au):  <R**2>=            582.0046
 Charge=             -0.0000 electrons
 Dipole moment (field-independent basis, Debye):
    X=             -2.4567    Y=              0.7699    Z=              0.2500  Tot=              2.5867
 Quadrupole moment (field-independent basis, Debye-Ang):
   XX=            -35.8230   YY=            -34.2230   ZZ=            -37.3375
   XY=             -2.5689   XZ=             -0.5265   YZ=             -0.3882
 Traceless Quadrupole moment (field-independent basis, Debye-Ang):
   XX=             -0.0285   YY=              1.5715   ZZ=             -1.5430
   XY=             -2.5689   XZ=             -0.5265   YZ=             -0.3882
 Octapole moment (field-independent basis, Debye-Ang**2):
  XXX=             -6.5810  YYY=             10.1156  ZZZ=              0.6632  XYY=              4.5769
  XXY=             -9.4480  XXZ=             -2.7850  XZZ=              0.8470  YZZ=             -0.6554
  YYZ=              2.0873  XYZ=              2.0641
 Hexadecapole moment (field-independent basis, Debye-Ang**3):
 XXXX=           -419.4088 YYYY=           -265.6329 ZZZZ=            -61.4716 XXXY=            -36.7126
 XXXZ=             -9.2151 YYYX=              0.9708 YYYZ=              0.5827 ZZZX=             -0.5748
 ZZZY=              1.0586 XXYY=           -100.3855 XXZZ=            -81.8438 YYZZ=            -55.0734
 XXYZ=              4.8616 YYXZ=              4.6167 ZZXY=              2.3341
 N-N= 2.299470967391D+02 E-N=-1.116994834673D+03  KE= 2.800873468992D+02
 No NMR shielding tensors so no spin-rotation constants.
 Leave Link  601 at Fri Aug 26 05:27:29 2022, MaxMem= 24159191040 cpu:        13.3
 (Enter /public/home/users/caep010/software/Gaussian09/g09/l701.exe)
 Compute integral first derivatives.
 ... and contract with generalized density number  0.
 Leave Link  701 at Fri Aug 26 05:27:29 2022, MaxMem= 24159191040 cpu:        15.0
 (Enter /public/home/users/caep010/software/Gaussian09/g09/l702.exe)
 L702 exits ... SP integral derivatives will be done elsewhere.
 Leave Link  702 at Fri Aug 26 05:27:30 2022, MaxMem= 24159191040 cpu:         0.6
 (Enter /public/home/users/caep010/software/Gaussian09/g09/l703.exe)
 Compute integral first derivatives, UseDBF=F ICtDFT=           0.
 Integral derivatives from FoFJK, PRISM(SPDF).
 Calling FoFJK, ICntrl=      2127 FMM=F ISym2X=0 I1Cent= 0 IOpClX= 0 NMat=1 NMatS=1 NMatT=0.
 FoFJK:  IHMeth= 1 ICntrl=    2127 DoSepK=F KAlg= 0 I1Cent=   0 FoldK=F
 IRaf=         0 NMat=   1 IRICut=       1 DoRegI=T DoRafI=F ISym2E= 0.
 FoFCou: FMM=F IPFlag=           0 FMFlag=      100000 FMFlg1=         800
         NFxFlg=           0 DoJE=F BraDBF=F KetDBF=F FulRan=T
         wScrn=  0.000000 ICntrl=    2127 IOpCl=  0 I1Cent=           0 NGrid=           0
         NMat0=    1 NMatS0=      1 NMatT0=    0 NMatD0=    1 NMtDS0=    0 NMtDT0=    0
 Symmetry not used in FoFCou.
 Leave Link  703 at Fri Aug 26 05:27:31 2022, MaxMem= 24159191040 cpu:        44.2
 (Enter /public/home/users/caep010/software/Gaussian09/g09/l716.exe)
 Dipole        =-9.66558560D-01 3.02917128D-01 9.83750806D-02
 ***** Axes restored to original set *****
 -------------------------------------------------------------------
 Center     Atomic                   Forces (Hartrees/Bohr)
 Number     Number              X              Y              Z
 -------------------------------------------------------------------
      1        6           0.014825539    0.000417230   -0.002040694
      2        6          -0.026324680    0.006485914    0.000764780
      3        6           0.005924500   -0.016734724   -0.003090156
      4        7           0.088639730    0.050029924    0.049895130
      5        7          -0.032004957   -0.020598850   -0.019989779
      6        7          -0.015925169   -0.027120984   -0.033375292
      7        1           0.001200428   -0.002149770    0.000919389
      8        1           0.000152503    0.001648060   -0.000128385
      9        1           0.008692343    0.004080464   -0.008943301
     10        1          -0.007562941    0.008012705   -0.004091913
     11        1           0.004358280   -0.004961962    0.008954717
     12        1          -0.014867759    0.020308701    0.028281772
     13        1          -0.027107818   -0.019416709   -0.017156267
 -------------------------------------------------------------------
 Cartesian Forces:  Max     0.088639730 RMS     0.023407548
 Leave Link  716 at Fri Aug 26 05:27:31 2022, MaxMem= 24159191040 cpu:         0.9
 (Enter /public/home/users/caep010/software/Gaussian09/g09/l103.exe)

 GradGradGradGradGradGradGradGradGradGradGradGradGradGradGradGradGradGrad
 Berny optimization.
 FormGI is forming the generalized inverse of G from B-inverse, IUseBI=4.
 Internal  Forces:  Max     0.079248623 RMS     0.019376464
 Search for a local minimum.
 Step number   1 out of a maximum of   57
 All quantities printed in internal units (Hartrees-Bohrs-Radians)
 RMS Force = .19376D-01 SwitMx=.10000D-02 MixMth= 1
 Mixed Optimization -- RFO/linear search
 Second derivative matrix not updated -- first step.
 ITU=  0
     Eigenvalues ---    0.00705   0.01141   0.01229   0.01481   0.01610
     Eigenvalues ---    0.02912   0.02916   0.02979   0.07290   0.07405
     Eigenvalues ---    0.16000   0.16000   0.16000   0.16000   0.16000
     Eigenvalues ---    0.16000   0.16000   0.24902   0.24930   0.24997
     Eigenvalues ---    0.24998   0.31900   0.32447   0.32583   0.32586
     Eigenvalues ---    0.35614   0.35833   0.39365   0.40593   0.40734
     Eigenvalues ---    0.44808   0.57712   0.75378
 RFO step:  Lambda=-5.77930741D-02 EMin= 7.05215539D-03
 Linear search not attempted -- first point.
 Maximum step size (   0.300) exceeded in Quadratic search.
    -- Step size scaled by   0.647
 Iteration  1 RMS(Cart)=  0.08364385 RMS(Int)=  0.00504113
 Iteration  2 RMS(Cart)=  0.00472717 RMS(Int)=  0.00005245
 Iteration  3 RMS(Cart)=  0.00000481 RMS(Int)=  0.00005235
 Iteration  4 RMS(Cart)=  0.00000000 RMS(Int)=  0.00005235
 ITry= 1 IFail=0 DXMaxC= 3.57D-01 DCOld= 1.00D+10 DXMaxT= 3.00D-01 DXLimC= 3.00D+00 Rises=F
 Variable       Old X    -DE/DX   Delta X   Delta X   Delta X     New X
                                 (Linear)    (Quad)   (Total)
    R1        2.52798  -0.00719   0.00000  -0.00732  -0.00732   2.52066
    R2        2.04690  -0.00104   0.00000  -0.00162  -0.00162   2.04528
    R3        2.04343   0.00145   0.00000   0.00225   0.00225   2.04569
    R4        2.84327   0.00219   0.00000   0.00376   0.00376   2.84702
    R5        2.72426  -0.00333   0.00000  -0.00477  -0.00477   2.71949
    R6        2.10034  -0.01266   0.00000  -0.02142  -0.02142   2.07892
    R7        2.09790  -0.01107   0.00000  -0.01865  -0.01865   2.07925
    R8        2.09785  -0.01024   0.00000  -0.01726  -0.01726   2.08060
    R9        2.40508  -0.01966   0.00000  -0.01566  -0.01566   2.38942
   R10        2.65499  -0.07925   0.00000  -0.10130  -0.10130   2.55369
   R11        1.97455  -0.02322   0.00000  -0.03238  -0.03238   1.94217
   R12        1.97268  -0.01840   0.00000  -0.02559  -0.02559   1.94710
    A1        2.10949  -0.00271   0.00000  -0.00800  -0.00801   2.10148
    A2        2.12085   0.00199   0.00000   0.00596   0.00595   2.12680
    A3        2.05234   0.00075   0.00000   0.00226   0.00225   2.05460
    A4        2.07976   0.02361   0.00000   0.04989   0.04989   2.12965
    A5        2.10747  -0.00795   0.00000  -0.01656  -0.01657   2.09090
    A6        2.09187  -0.01558   0.00000  -0.03266  -0.03268   2.05919
    A7        1.93842  -0.00467   0.00000  -0.01332  -0.01328   1.92514
    A8        1.92311   0.00389   0.00000   0.01207   0.01206   1.93517
    A9        1.91159   0.00464   0.00000   0.01274   0.01274   1.92433
   A10        1.88106   0.00165   0.00000   0.00691   0.00695   1.88801
   A11        1.90553  -0.00065   0.00000  -0.00288  -0.00284   1.90269
   A12        1.90357  -0.00502   0.00000  -0.01598  -0.01603   1.88753
   A13        2.08665  -0.02347   0.00000  -0.04927  -0.04928   2.03737
   A14        2.11735   0.00175   0.00000   0.00372   0.00371   2.12106
   A15        2.07893   0.02174   0.00000   0.04573   0.04572   2.12465
   A16        2.11652  -0.05901   0.00000  -0.17521  -0.17521   1.94131
   A17        2.13391  -0.06444   0.00000  -0.19134  -0.19134   1.94256
    D1        0.05152   0.00147   0.00000   0.00815   0.00808   0.05960
    D2        3.09590   0.00153   0.00000   0.01422   0.01429   3.11018
    D3       -3.05508   0.00045   0.00000   0.00051   0.00045  -3.05463
    D4       -0.01070   0.00051   0.00000   0.00659   0.00665  -0.00405
    D5       -0.60870   0.00166   0.00000   0.01368   0.01369  -0.59501
    D6       -2.69179   0.00005   0.00000   0.00574   0.00579  -2.68600
    D7        1.49740   0.00090   0.00000   0.00993   0.00991   1.50731
    D8        2.62922   0.00119   0.00000   0.00680   0.00679   2.63601
    D9        0.54613  -0.00042   0.00000  -0.00114  -0.00112   0.54502
   D10       -1.54786   0.00044   0.00000   0.00305   0.00301  -1.54486
   D11       -2.57494  -0.00068   0.00000  -0.00233  -0.00232  -2.57726
   D12        0.59110  -0.00186   0.00000  -0.01124  -0.01107   0.58003
   D13        0.46877   0.00155   0.00000   0.00836   0.00820   0.47697
   D14       -2.64838   0.00037   0.00000  -0.00055  -0.00055  -2.64893
   D15       -3.12974   0.00041   0.00000   0.00229   0.00228  -3.12746
   D16       -0.01206   0.00131   0.00000   0.01045   0.01046  -0.00160
   D17        0.08863  -0.00018   0.00000  -0.00047  -0.00033   0.08830
   D18       -3.02862  -0.00074   0.00000  -0.00804  -0.00818  -3.03681
         Item               Value     Threshold  Converged?
 Maximum Force            0.079249     0.000450     NO 
 RMS     Force            0.019376     0.000300     NO 
 Maximum Displacement     0.356982     0.001800     NO 
 RMS     Displacement     0.084885     0.001200     NO 
 Predicted change in Energy=-2.791989D-02
 Lowest energy point so far.  Saving SCF results.
 GradGradGradGradGradGradGradGradGradGradGradGradGradGradGradGradGradGrad

 Leave Link  103 at Fri Aug 26 05:27:31 2022, MaxMem= 24159191040 cpu:         3.1
 (Enter /public/home/users/caep010/software/Gaussian09/g09/l202.exe)
                          Input orientation:                          
 ---------------------------------------------------------------------
 Center     Atomic      Atomic             Coordinates (Angstroms)
 Number     Number       Type             X           Y           Z
 ---------------------------------------------------------------------
      1          6           0       -0.822678    1.232163    0.577356
      2          6           0       -0.304922    0.097011    0.105571
      3          6           0       -1.152222   -1.122581   -0.148324
      4          7           0        1.080342    0.049293   -0.281398
      5          7           0        1.377521   -0.722879   -1.237542
      6          7           0        2.018661    0.780699    0.359506
      7          1           0       -1.870191    1.287243    0.843990
      8          1           0       -0.227980    2.130374    0.684232
      9          1           0       -1.961107   -1.186797    0.594534
     10          1           0       -0.549168   -2.040294   -0.079255
     11          1           0       -1.593388   -1.077174   -1.156054
     12          1           0        2.386138   -0.701146   -1.433737
     13          1           0        1.618893    1.274089    1.170920
 ---------------------------------------------------------------------
                    Distance matrix (angstroms):
                    1          2          3          4          5
     1  C    0.000000
     2  C    1.333875   0.000000
     3  C    2.485967   1.506580   0.000000
     4  N    2.399610   1.439090   2.524944   0.000000
     5  N    3.457878   2.303646   2.783120   1.264427   0.000000
     6  N    2.885219   2.435355   3.732943   1.351353   2.285250
     7  H    1.082317   2.100472   2.703225   3.391853   4.349828
     8  H    1.082531   2.115499   3.482684   2.641031   3.796301
     9  H    2.673514   2.151788   1.100116   3.397880   3.836425
    10  H    3.348869   2.159141   1.100291   2.657544   2.605637
    11  H    2.988602   2.151872   1.101004   3.030311   2.993070
    12  H    4.251904   3.201301   3.788124   1.896351   1.027751
    13  H    2.513036   2.494304   3.894035   1.974687   3.137966
                    6          7          8          9         10
     6  N    0.000000
     7  H    3.951517   0.000000
     8  H    2.640921   1.852904   0.000000
     9  H    4.445766   2.488246   3.743714   0.000000
    10  H    3.839826   3.697295   4.252123   1.782139   0.000000
    11  H    4.335380   3.109223   3.941999   1.792147   1.782552
    12  H    2.355127   5.220927   4.397375   4.821647   3.499137
    13  H    1.030359   3.504393   2.093091   4.382303   4.153139
                   11         12         13
    11  H    0.000000
    12  H    4.006886   0.000000
    13  H    4.611074   3.357745   0.000000
 Stoichiometry    C3H7N3
 Framework group  C1[X(C3H7N3)]
 Deg. of freedom    33
 Full point group                 C1      NOp   1
 RotChk:  IX=0 Diff= 1.99D-02
 Largest Abelian subgroup         C1      NOp   1
 Largest concise Abelian subgroup C1      NOp   1
                         Standard orientation:                         
 ---------------------------------------------------------------------
 Center     Atomic      Atomic             Coordinates (Angstroms)
 Number     Number       Type             X           Y           Z
 ---------------------------------------------------------------------
      1          6           0       -1.099868    1.387937   -0.293232
      2          6           0       -0.652758    0.167108    0.004916
      3          6           0       -1.588076   -0.987626    0.253013
      4          7           0        0.761020   -0.100992   -0.013387
      5          7           0        1.114435   -1.267346   -0.350272
      6          7           0        1.663895    0.843617    0.331121
      7          1           0       -2.162437    1.592996   -0.310829
      8          1           0       -0.426730    2.196381   -0.548527
      9          1           0       -2.508630   -0.635072    0.741419
     10          1           0       -1.119098   -1.738750    0.906094
     11          1           0       -1.851025   -1.476278   -0.697928
     12          1           0        2.136713   -1.369312   -0.321576
     13          1           0        1.199970    1.698572    0.670925
 ---------------------------------------------------------------------
 Rotational constants (GHZ):      5.4059714      3.5145505      2.2811037
 Leave Link  202 at Fri Aug 26 05:27:31 2022, MaxMem= 24159191040 cpu:         0.3
 (Enter /public/home/users/caep010/software/Gaussian09/g09/l301.exe)
 Standard basis: GTBas3 (6D, 7F)
 Ernie: Thresh=  0.10000D-02 Tol=  0.10000D-05 Strict=F.
 There are   221 symmetry adapted cartesian basis functions of A   symmetry.
 There are   203 symmetry adapted basis functions of A   symmetry.
   203 basis functions,   313 primitive gaussians,   221 cartesian basis functions
    23 alpha electrons       23 beta electrons
       nuclear repulsion energy       233.2205807940 Hartrees.
 IExCor=  402 DFT=T Ex+Corr=B3LYP ExCW=0 ScaHFX=  0.200000
 ScaDFX=  0.800000  0.720000  1.000000  0.810000 ScalE2=  1.000000  1.000000
 IRadAn=      0 IRanWt=     -1 IRanGd=            0 ICorTp=0 IEmpDi=  4
 NAtoms=   13 NActive=   13 NUniq=   13 SFac= 1.00D+00 NAtFMM=   60 NAOKFM=F Big=F
 Integral buffers will be    131072 words long.
 Raffenetti 2 integral format.
 Two-electron integral symmetry is turned on.
 Leave Link  301 at Fri Aug 26 05:27:32 2022, MaxMem= 24159191040 cpu:         1.9
 (Enter /public/home/users/caep010/software/Gaussian09/g09/l302.exe)
 NPDir=0 NMtPBC=     1 NCelOv=     1 NCel=       1 NClECP=     1 NCelD=      1
         NCelK=      1 NCelE2=     1 NClLst=     1 CellRange=     0.0.
 One-electron integrals computed using PRISM.
 NBasis=   203 RedAO= T EigKep=  2.64D-04  NBF=   203
 NBsUse=   203 1.00D-06 EigRej= -1.00D+00 NBFU=   203
 Precomputing XC quadrature grid using
 IXCGrd= 4 IRadAn=           0 IRanWt=          -1 IRanGd=           0 AccXCQ= 0.00D+00.
 Generated NRdTot=       0 NPtTot=           0 NUsed=           0 NTot=          32
 NSgBfM=   221   221   221   221   221 MxSgAt=    13 MxSgA2=    13.
 Leave Link  302 at Fri Aug 26 05:27:32 2022, MaxMem= 24159191040 cpu:        14.4
 (Enter /public/home/users/caep010/software/Gaussian09/g09/l303.exe)
 DipDrv:  MaxL=1.
 Leave Link  303 at Fri Aug 26 05:27:32 2022, MaxMem= 24159191040 cpu:         0.7
 (Enter /public/home/users/caep010/software/Gaussian09/g09/l401.exe)
 Initial guess from the checkpoint file:  "G4.Frag_984.chk"
 B after Tr=     0.000000   -0.000000   -0.000000
         Rot=    0.999984   -0.005648    0.000536    0.000503 Ang=  -0.65 deg.
 Guess basis will be translated and rotated to current coordinates.
 JPrj=2 DoOrth=T DoCkMO=T.
 Generating alternative initial guess.
 ExpMin= 1.61D-01 ExpMax= 4.17D+03 ExpMxC= 6.27D+02 IAcc=1 IRadAn=         1 AccDes= 0.00D+00
 Harris functional with IExCor=  402 and IRadAn=       1 diagonalized for initial guess.
 HarFok:  IExCor=  402 AccDes= 0.00D+00 IRadAn=         1 IDoV= 1 UseB2=F ITyADJ=14
 ICtDFT=  3500011 ScaDFX=  1.000000  1.000000  1.000000  1.000000
 FoFCou: FMM=F IPFlag=           0 FMFlag=      100000 FMFlg1=           0
         NFxFlg=           0 DoJE=T BraDBF=F KetDBF=T FulRan=T
         wScrn=  0.000000 ICntrl=     500 IOpCl=  0 I1Cent=   200000004 NGrid=           0
         NMat0=    1 NMatS0=      1 NMatT0=    0 NMatD0=    1 NMtDS0=    0 NMtDT0=    0
 Petite list used in FoFCou.
 Harris En= -282.709224716577    
 Leave Link  401 at Fri Aug 26 05:27:33 2022, MaxMem= 24159191040 cpu:        16.4
 (Enter /public/home/users/caep010/software/Gaussian09/g09/l502.exe)
 Closed shell SCF:
 Using DIIS extrapolation, IDIIS=  1040.
 Integral symmetry usage will be decided dynamically.
 Keep R1 ints in memory in canonical form, NReq=220023741.
 IVT=      173757 IEndB=      173757 NGot= 24159191040 MDV= 23944637713
 LenX= 23944637713 LenY= 23944588431
 Requested convergence on RMS density matrix=1.00D-08 within 128 cycles.
 Requested convergence on MAX density matrix=1.00D-06.
 Requested convergence on             energy=1.00D-06.
 No special actions if energy rises.
 FoFCou: FMM=F IPFlag=           0 FMFlag=           0 FMFlg1=           0
         NFxFlg=           0 DoJE=F BraDBF=F KetDBF=F FulRan=T
         wScrn=  0.000000 ICntrl=     600 IOpCl=  0 I1Cent=           0 NGrid=           0
         NMat0=    1 NMatS0=  20706 NMatT0=    0 NMatD0=    1 NMtDS0=    0 NMtDT0=    0
 Symmetry not used in FoFCou.
 Integral accuracy reduced to 1.0D-05 until final iterations.

 Cycle   1  Pass 0  IDiag  1:
 E= -282.682017723834    
 DIIS: error= 2.91D-03 at cycle   1 NSaved=   1.
 NSaved= 1 IEnMin= 1 EnMin= -282.682017723834     IErMin= 1 ErrMin= 2.91D-03
 ErrMax= 2.91D-03  0.00D+00 EMaxC= 1.00D-01 BMatC= 5.69D-03 BMatP= 5.69D-03
 IDIUse=3 WtCom= 9.71D-01 WtEn= 2.91D-02
 Coeff-Com:  0.100D+01
 Coeff-En:   0.100D+01
 Coeff:      0.100D+01
 Gap=     1.089 Goal=   None    Shift=    0.000
 GapD=    1.089 DampG=2.000 DampE=1.000 DampFc=2.0000 IDamp=-1.
 RMSDP=7.00D-04 MaxDP=2.13D-02              OVMax= 2.66D-02

 Cycle   2  Pass 0  IDiag  1:
 E= -282.687365655695     Delta-E=       -0.005347931861 Rises=F Damp=F
 DIIS: error= 1.55D-03 at cycle   2 NSaved=   2.
 NSaved= 2 IEnMin= 2 EnMin= -282.687365655695     IErMin= 2 ErrMin= 1.55D-03
 ErrMax= 1.55D-03  0.00D+00 EMaxC= 1.00D-01 BMatC= 9.99D-04 BMatP= 5.69D-03
 IDIUse=3 WtCom= 9.85D-01 WtEn= 1.55D-02
 Coeff-Com:  0.187D+00 0.813D+00
 Coeff-En:   0.000D+00 0.100D+01
 Coeff:      0.184D+00 0.816D+00
 Gap=     0.155 Goal=   None    Shift=    0.000
 RMSDP=4.39D-04 MaxDP=2.60D-02 DE=-5.35D-03 OVMax= 5.80D-02

 Cycle   3  Pass 0  IDiag  1:
 E= -282.683974956130     Delta-E=        0.003390699566 Rises=F Damp=F
 DIIS: error= 3.31D-03 at cycle   3 NSaved=   3.
 NSaved= 3 IEnMin= 2 EnMin= -282.687365655695     IErMin= 2 ErrMin= 1.55D-03
 ErrMax= 3.31D-03  0.00D+00 EMaxC= 1.00D-01 BMatC= 4.50D-03 BMatP= 9.99D-04
 IDIUse=3 WtCom= 1.48D-01 WtEn= 8.52D-01
 Coeff-Com:  0.970D-02 0.682D+00 0.308D+00
 Coeff-En:   0.000D+00 0.756D+00 0.244D+00
 Coeff:      0.144D-02 0.745D+00 0.253D+00
 Gap=     0.157 Goal=   None    Shift=    0.000
 RMSDP=2.57D-04 MaxDP=1.37D-02 DE= 3.39D-03 OVMax= 3.62D-02

 Cycle   4  Pass 0  IDiag  1:
 E= -282.688146696746     Delta-E=       -0.004171740617 Rises=F Damp=F
 DIIS: error= 5.52D-04 at cycle   4 NSaved=   4.
 NSaved= 4 IEnMin= 4 EnMin= -282.688146696746     IErMin= 4 ErrMin= 5.52D-04
 ErrMax= 5.52D-04  0.00D+00 EMaxC= 1.00D-01 BMatC= 1.70D-04 BMatP= 9.99D-04
 IDIUse=3 WtCom= 9.94D-01 WtEn= 5.52D-03
 Coeff-Com: -0.146D-01 0.348D+00 0.594D-01 0.607D+00
 Coeff-En:   0.000D+00 0.169D+00 0.000D+00 0.831D+00
 Coeff:     -0.145D-01 0.347D+00 0.591D-01 0.608D+00
 Gap=     0.159 Goal=   None    Shift=    0.000
 RMSDP=7.46D-05 MaxDP=3.65D-03 DE=-4.17D-03 OVMax= 5.92D-03

 Cycle   5  Pass 0  IDiag  1:
 E= -282.688298741050     Delta-E=       -0.000152044304 Rises=F Damp=F
 DIIS: error= 7.58D-05 at cycle   5 NSaved=   5.
 NSaved= 5 IEnMin= 5 EnMin= -282.688298741050     IErMin= 5 ErrMin= 7.58D-05
 ErrMax= 7.58D-05  0.00D+00 EMaxC= 1.00D-01 BMatC= 3.15D-06 BMatP= 1.70D-04
 IDIUse=1 WtCom= 1.00D+00 WtEn= 0.00D+00
 Coeff-Com: -0.626D-02 0.876D-01 0.549D-02 0.243D+00 0.670D+00
 Coeff:     -0.626D-02 0.876D-01 0.549D-02 0.243D+00 0.670D+00
 Gap=     0.159 Goal=   None    Shift=    0.000
 RMSDP=1.39D-05 MaxDP=3.97D-04 DE=-1.52D-04 OVMax= 7.81D-04

 Cycle   6  Pass 0  IDiag  1:
 E= -282.688301354284     Delta-E=       -0.000002613234 Rises=F Damp=F
 DIIS: error= 3.88D-05 at cycle   6 NSaved=   6.
 NSaved= 6 IEnMin= 6 EnMin= -282.688301354284     IErMin= 6 ErrMin= 3.88D-05
 ErrMax= 3.88D-05  0.00D+00 EMaxC= 1.00D-01 BMatC= 5.11D-07 BMatP= 3.15D-06
 IDIUse=1 WtCom= 1.00D+00 WtEn= 0.00D+00
 Coeff-Com: -0.220D-02 0.195D-01-0.960D-03 0.808D-01 0.357D+00 0.546D+00
 Coeff:     -0.220D-02 0.195D-01-0.960D-03 0.808D-01 0.357D+00 0.546D+00
 Gap=     0.159 Goal=   None    Shift=    0.000
 RMSDP=3.95D-06 MaxDP=2.49D-04 DE=-2.61D-06 OVMax= 3.89D-04

 Initial convergence to 1.0D-05 achieved.  Increase integral accuracy.
 Cycle   7  Pass 1  IDiag  1:
 E= -282.688301021673     Delta-E=        0.000000332611 Rises=F Damp=F
 DIIS: error= 1.45D-05 at cycle   1 NSaved=   1.
 NSaved= 1 IEnMin= 1 EnMin= -282.688301021673     IErMin= 1 ErrMin= 1.45D-05
 ErrMax= 1.45D-05  0.00D+00 EMaxC= 1.00D-01 BMatC= 1.01D-07 BMatP= 1.01D-07
 IDIUse=1 WtCom= 1.00D+00 WtEn= 0.00D+00
 Coeff-Com:  0.100D+01
 Coeff:      0.100D+01
 Gap=     0.159 Goal=   None    Shift=    0.000
 RMSDP=3.95D-06 MaxDP=2.49D-04 DE= 3.33D-07 OVMax= 2.82D-04

 Cycle   8  Pass 1  IDiag  1:
 E= -282.688300895145     Delta-E=        0.000000126527 Rises=F Damp=F
 DIIS: error= 2.78D-05 at cycle   2 NSaved=   2.
 NSaved= 2 IEnMin= 1 EnMin= -282.688301021673     IErMin= 1 ErrMin= 1.45D-05
 ErrMax= 2.78D-05  0.00D+00 EMaxC= 1.00D-01 BMatC= 2.21D-07 BMatP= 1.01D-07
 IDIUse=1 WtCom= 1.00D+00 WtEn= 0.00D+00
 Coeff-Com:  0.609D+00 0.391D+00
 Coeff:      0.609D+00 0.391D+00
 Gap=     0.159 Goal=   None    Shift=    0.000
 RMSDP=2.25D-06 MaxDP=1.38D-04 DE= 1.27D-07 OVMax= 2.21D-04

 Cycle   9  Pass 1  IDiag  1:
 E= -282.688301110001     Delta-E=       -0.000000214855 Rises=F Damp=F
 DIIS: error= 5.08D-06 at cycle   3 NSaved=   3.
 NSaved= 3 IEnMin= 3 EnMin= -282.688301110001     IErMin= 3 ErrMin= 5.08D-06
 ErrMax= 5.08D-06  0.00D+00 EMaxC= 1.00D-01 BMatC= 1.05D-08 BMatP= 1.01D-07
 IDIUse=1 WtCom= 1.00D+00 WtEn= 0.00D+00
 Coeff-Com:  0.140D+00 0.190D+00 0.670D+00
 Coeff:      0.140D+00 0.190D+00 0.670D+00
 Gap=     0.159 Goal=   None    Shift=    0.000
 RMSDP=9.29D-07 MaxDP=4.10D-05 DE=-2.15D-07 OVMax= 1.11D-04

 Cycle  10  Pass 1  IDiag  1:
 E= -282.688301107547     Delta-E=        0.000000002454 Rises=F Damp=F
 DIIS: error= 5.47D-06 at cycle   4 NSaved=   4.
 NSaved= 4 IEnMin= 3 EnMin= -282.688301110001     IErMin= 3 ErrMin= 5.08D-06
 ErrMax= 5.47D-06  0.00D+00 EMaxC= 1.00D-01 BMatC= 1.37D-08 BMatP= 1.05D-08
 IDIUse=1 WtCom= 1.00D+00 WtEn= 0.00D+00
 Coeff-Com:  0.905D-02 0.909D-01 0.566D+00 0.334D+00
 Coeff:      0.905D-02 0.909D-01 0.566D+00 0.334D+00
 Gap=     0.159 Goal=   None    Shift=    0.000
 RMSDP=5.79D-07 MaxDP=3.17D-05 DE= 2.45D-09 OVMax= 8.11D-05

 Cycle  11  Pass 1  IDiag  1:
 E= -282.688301120112     Delta-E=       -0.000000012565 Rises=F Damp=F
 DIIS: error= 1.03D-06 at cycle   5 NSaved=   5.
 NSaved= 5 IEnMin= 5 EnMin= -282.688301120112     IErMin= 5 ErrMin= 1.03D-06
 ErrMax= 1.03D-06  0.00D+00 EMaxC= 1.00D-01 BMatC= 5.34D-10 BMatP= 1.05D-08
 IDIUse=1 WtCom= 1.00D+00 WtEn= 0.00D+00
 Coeff-Com: -0.866D-02 0.401D-01 0.302D+00 0.219D+00 0.447D+00
 Coeff:     -0.866D-02 0.401D-01 0.302D+00 0.219D+00 0.447D+00
 Gap=     0.159 Goal=   None    Shift=    0.000
 RMSDP=1.21D-07 MaxDP=4.73D-06 DE=-1.26D-08 OVMax= 1.16D-05

 Cycle  12  Pass 1  IDiag  1:
 E= -282.688301120586     Delta-E=       -0.000000000474 Rises=F Damp=F
 DIIS: error= 2.21D-07 at cycle   6 NSaved=   6.
 NSaved= 6 IEnMin= 6 EnMin= -282.688301120586     IErMin= 6 ErrMin= 2.21D-07
 ErrMax= 2.21D-07  0.00D+00 EMaxC= 1.00D-01 BMatC= 3.78D-11 BMatP= 5.34D-10
 IDIUse=1 WtCom= 1.00D+00 WtEn= 0.00D+00
 Coeff-Com: -0.625D-02 0.165D-01 0.134D+00 0.106D+00 0.275D+00 0.475D+00
 Coeff:     -0.625D-02 0.165D-01 0.134D+00 0.106D+00 0.275D+00 0.475D+00
 Gap=     0.159 Goal=   None    Shift=    0.000
 RMSDP=2.54D-08 MaxDP=1.35D-06 DE=-4.74D-10 OVMax= 1.56D-06

 Cycle  13  Pass 1  IDiag  1:
 E= -282.688301120615     Delta-E=       -0.000000000028 Rises=F Damp=F
 DIIS: error= 5.74D-08 at cycle   7 NSaved=   7.
 NSaved= 7 IEnMin= 7 EnMin= -282.688301120615     IErMin= 7 ErrMin= 5.74D-08
 ErrMax= 5.74D-08  0.00D+00 EMaxC= 1.00D-01 BMatC= 1.77D-12 BMatP= 3.78D-11
 IDIUse=1 WtCom= 1.00D+00 WtEn= 0.00D+00
 Coeff-Com: -0.211D-02 0.442D-02 0.369D-01 0.322D-01 0.929D-01 0.231D+00
 Coeff-Com:  0.605D+00
 Coeff:     -0.211D-02 0.442D-02 0.369D-01 0.322D-01 0.929D-01 0.231D+00
 Coeff:      0.605D+00
 Gap=     0.159 Goal=   None    Shift=    0.000
 RMSDP=8.59D-09 MaxDP=3.36D-07 DE=-2.81D-11 OVMax= 3.59D-07

 SCF Done:  E(RB3LYP) =  -282.688301121     A.U. after   13 cycles
            NFock= 13  Conv=0.86D-08     -V/T= 2.0082
 KE= 2.803933244566D+02 PE=-1.123652485637D+03 EE= 3.273502792656D+02
 Leave Link  502 at Fri Aug 26 05:27:39 2022, MaxMem= 24159191040 cpu:        80.8
 (Enter /public/home/users/caep010/software/Gaussian09/g09/l701.exe)
 Compute integral first derivatives.
 ... and contract with generalized density number  0.
 Leave Link  701 at Fri Aug 26 05:27:40 2022, MaxMem= 24159191040 cpu:        14.4
 (Enter /public/home/users/caep010/software/Gaussian09/g09/l702.exe)
 L702 exits ... SP integral derivatives will be done elsewhere.
 Leave Link  702 at Fri Aug 26 05:27:40 2022, MaxMem= 24159191040 cpu:         0.6
 (Enter /public/home/users/caep010/software/Gaussian09/g09/l703.exe)
 Compute integral first derivatives, UseDBF=F ICtDFT=           0.
 Integral derivatives from FoFJK, PRISM(SPDF).
 Calling FoFJK, ICntrl=      2127 FMM=F ISym2X=0 I1Cent= 0 IOpClX= 0 NMat=1 NMatS=1 NMatT=0.
 FoFJK:  IHMeth= 1 ICntrl=    2127 DoSepK=F KAlg= 0 I1Cent=   0 FoldK=F
 IRaf=         0 NMat=   1 IRICut=       1 DoRegI=T DoRafI=F ISym2E= 0.
 FoFCou: FMM=F IPFlag=           0 FMFlag=      100000 FMFlg1=         800
         NFxFlg=           0 DoJE=F BraDBF=F KetDBF=F FulRan=T
         wScrn=  0.000000 ICntrl=    2127 IOpCl=  0 I1Cent=           0 NGrid=           0
         NMat0=    1 NMatS0=      1 NMatT0=    0 NMatD0=    1 NMtDS0=    0 NMtDT0=    0
 Symmetry not used in FoFCou.
 Leave Link  703 at Fri Aug 26 05:27:42 2022, MaxMem= 24159191040 cpu:        43.9
 (Enter /public/home/users/caep010/software/Gaussian09/g09/l716.exe)
 Dipole        =-1.02040397D+00 3.62137540D-01 1.20280100D-01
 ***** Axes restored to original set *****
 -------------------------------------------------------------------
 Center     Atomic                   Forces (Hartrees/Bohr)
 Number     Number              X              Y              Z
 -------------------------------------------------------------------
      1        6           0.007206144   -0.000855229   -0.000635237
      2        6          -0.022987669    0.004210800    0.001421369
      3        6           0.004943016   -0.007883685   -0.000119836
      4        7           0.054758383    0.035267838    0.037388569
      5        7          -0.013906740   -0.018202223   -0.020939781
      6        7          -0.020141637   -0.015695191   -0.016243473
      7        1           0.000188283   -0.000856716    0.000826164
      8        1          -0.001026114    0.000770617   -0.000584560
      9        1           0.002933225    0.002850037   -0.004238339
     10        1          -0.003430814    0.004551436   -0.002158565
     11        1           0.002474641   -0.002467185    0.003970112
     12        1          -0.003740003    0.007972457    0.010689144
     13        1          -0.007270716   -0.009662957   -0.009375566
 -------------------------------------------------------------------
 Cartesian Forces:  Max     0.054758383 RMS     0.014966898
 Leave Link  716 at Fri Aug 26 05:27:42 2022, MaxMem= 24159191040 cpu:         0.7
 (Enter /public/home/users/caep010/software/Gaussian09/g09/l103.exe)

 GradGradGradGradGradGradGradGradGradGradGradGradGradGradGradGradGradGrad
 Berny optimization.
 Using GEDIIS/GDIIS optimizer.
 FormGI is forming the generalized inverse of G from B-inverse, IUseBI=4.
 Internal  Forces:  Max     0.044910743 RMS     0.009349076
 Search for a local minimum.
 Step number   2 out of a maximum of   57
 All quantities printed in internal units (Hartrees-Bohrs-Radians)
 RMS Force = .93491D-02 SwitMx=.10000D-02 MixMth= 1
 Mixed Optimization -- RFO/linear search
 Update second derivatives using D2CorX and points    1    2
 DE= -2.74D-02 DEPred=-2.79D-02 R= 9.80D-01
 TightC=F SS=  1.41D+00  RLast= 3.02D-01 DXNew= 5.0454D-01 9.0528D-01
 Trust test= 9.80D-01 RLast= 3.02D-01 DXMaxT set to 5.05D-01
 ITU=  1  0
 Use linear search instead of GDIIS.
     Eigenvalues ---    0.00705   0.01141   0.01230   0.01493   0.01615
     Eigenvalues ---    0.02911   0.02916   0.02979   0.07286   0.07318
     Eigenvalues ---    0.15885   0.16000   0.16000   0.16000   0.16000
     Eigenvalues ---    0.16000   0.19218   0.23852   0.24961   0.24993
     Eigenvalues ---    0.25376   0.31930   0.32317   0.32510   0.32589
     Eigenvalues ---    0.35616   0.35838   0.38329   0.40442   0.41417
     Eigenvalues ---    0.41909   0.57693   0.79502
 RFO step:  Lambda=-4.58034841D-03 EMin= 7.04754916D-03
 Quartic linear search produced a step of  0.59351.
 Iteration  1 RMS(Cart)=  0.09479373 RMS(Int)=  0.00403972
 Iteration  2 RMS(Cart)=  0.00431663 RMS(Int)=  0.00021650
 Iteration  3 RMS(Cart)=  0.00000962 RMS(Int)=  0.00021634
 Iteration  4 RMS(Cart)=  0.00000000 RMS(Int)=  0.00021634
 ITry= 1 IFail=0 DXMaxC= 3.97D-01 DCOld= 1.00D+10 DXMaxT= 5.05D-01 DXLimC= 3.00D+00 Rises=F
 Variable       Old X    -DE/DX   Delta X   Delta X   Delta X     New X
                                 (Linear)    (Quad)   (Total)
    R1        2.52066  -0.00341  -0.00435  -0.00255  -0.00689   2.51376
    R2        2.04528  -0.00002  -0.00096   0.00154   0.00058   2.04586
    R3        2.04569   0.00002   0.00134  -0.00220  -0.00087   2.04482
    R4        2.84702  -0.00108   0.00223  -0.00924  -0.00701   2.84001
    R5        2.71949   0.00894  -0.00283   0.04050   0.03767   2.75715
    R6        2.07892  -0.00518  -0.01271  -0.00271  -0.01543   2.06349
    R7        2.07925  -0.00582  -0.01107  -0.00857  -0.01964   2.05961
    R8        2.08060  -0.00473  -0.01024  -0.00478  -0.01502   2.06558
    R9        2.38942   0.00986  -0.00930   0.03464   0.02535   2.41477
   R10        2.55369  -0.04491  -0.06013  -0.05965  -0.11978   2.43391
   R11        1.94217  -0.00554  -0.01922   0.01057  -0.00865   1.93352
   R12        1.94710  -0.00919  -0.01519  -0.01021  -0.02539   1.92170
    A1        2.10148  -0.00145  -0.00476  -0.00361  -0.00842   2.09306
    A2        2.12680   0.00173   0.00353   0.00884   0.01233   2.13913
    A3        2.05460  -0.00028   0.00134  -0.00575  -0.00446   2.05014
    A4        2.12965   0.00986   0.02961   0.00599   0.03560   2.16525
    A5        2.09090  -0.00049  -0.00984   0.01574   0.00589   2.09679
    A6        2.05919  -0.00933  -0.01939  -0.02157  -0.04099   2.01820
    A7        1.92514  -0.00244  -0.00788  -0.00418  -0.01202   1.91311
    A8        1.93517   0.00122   0.00716  -0.00256   0.00460   1.93977
    A9        1.92433   0.00209   0.00756   0.00003   0.00759   1.93192
   A10        1.88801   0.00178   0.00412   0.01474   0.01890   1.90691
   A11        1.90269  -0.00032  -0.00169  -0.00214  -0.00379   1.89890
   A12        1.88753  -0.00236  -0.00952  -0.00565  -0.01520   1.87234
   A13        2.03737  -0.01321  -0.02925  -0.02710  -0.05655   1.98082
   A14        2.12106   0.00201   0.00220   0.00858   0.01058   2.13163
   A15        2.12465   0.01121   0.02713   0.01897   0.04589   2.17054
   A16        1.94131  -0.02463  -0.10399  -0.00803  -0.11201   1.82930
   A17        1.94256  -0.02379  -0.11356   0.02122  -0.09235   1.85021
    D1        0.05960   0.00091   0.00480   0.00568   0.01035   0.06995
    D2        3.11018   0.00097   0.00848   0.00659   0.01521   3.12539
    D3       -3.05463   0.00084   0.00026   0.02854   0.02867  -3.02596
    D4       -0.00405   0.00090   0.00395   0.02945   0.03353   0.02948
    D5       -0.59501   0.00168   0.00813   0.05815   0.06626  -0.52875
    D6       -2.68600   0.00026   0.00343   0.04411   0.04756  -2.63845
    D7        1.50731   0.00106   0.00588   0.05280   0.05865   1.56595
    D8        2.63601   0.00120   0.00403   0.05542   0.05946   2.69547
    D9        0.54502  -0.00022  -0.00066   0.04138   0.04076   0.58578
   D10       -1.54486   0.00058   0.00178   0.05007   0.05185  -1.49300
   D11       -2.57726   0.00081  -0.00138   0.10480   0.10310  -2.47416
   D12        0.58003  -0.00022  -0.00657   0.07307   0.06706   0.64709
   D13        0.47697   0.00185   0.00486   0.10700   0.11131   0.58828
   D14       -2.64893   0.00081  -0.00033   0.07528   0.07528  -2.57366
   D15       -3.12746  -0.00008   0.00135  -0.01898  -0.01766   3.13806
   D16       -0.00160   0.00087   0.00621   0.01271   0.01894   0.01734
   D17        0.08830   0.00095  -0.00019   0.09090   0.09147   0.17977
   D18       -3.03681   0.00009  -0.00486   0.05801   0.05239  -2.98442
         Item               Value     Threshold  Converged?
 Maximum Force            0.044911     0.000450     NO 
 RMS     Force            0.009349     0.000300     NO 
 Maximum Displacement     0.397209     0.001800     NO 
 RMS     Displacement     0.095247     0.001200     NO 
 Predicted change in Energy=-8.634112D-03
 Lowest energy point so far.  Saving SCF results.
 GradGradGradGradGradGradGradGradGradGradGradGradGradGradGradGradGradGrad

 Leave Link  103 at Fri Aug 26 05:27:42 2022, MaxMem= 24159191040 cpu:         2.3
 (Enter /public/home/users/caep010/software/Gaussian09/g09/l202.exe)
                          Input orientation:                          
 ---------------------------------------------------------------------
 Center     Atomic      Atomic             Coordinates (Angstroms)
 Number     Number       Type             X           Y           Z
 ---------------------------------------------------------------------
      1          6           0       -0.826370    1.270078    0.558082
      2          6           0       -0.308747    0.127058    0.116410
      3          6           0       -1.108862   -1.122461   -0.122620
      4          7           0        1.096592    0.060273   -0.269993
      5          7           0        1.308556   -0.671305   -1.296026
      6          7           0        2.012970    0.705578    0.364592
      7          1           0       -1.873218    1.319596    0.829621
      8          1           0       -0.250253    2.183739    0.622847
      9          1           0       -1.953499   -1.154709    0.568690
     10          1           0       -0.496840   -2.013616    0.015776
     11          1           0       -1.490627   -1.146634   -1.146557
     12          1           0        2.319073   -0.621491   -1.448530
     13          1           0        1.571123    1.063895    1.207508
 ---------------------------------------------------------------------
                    Distance matrix (angstroms):
                    1          2          3          4          5
     1  C    0.000000
     2  C    1.330227   0.000000
     3  C    2.503478   1.502869   0.000000
     4  N    2.418082   1.459022   2.506912   0.000000
     5  N    3.429955   2.290857   2.724763   1.277841   0.000000
     6  N    2.901370   2.405546   3.650334   1.287969   2.269285
     7  H    1.082625   2.092459   2.730319   3.408051   4.313437
     8  H    1.082072   2.118924   3.496268   2.668382   3.776670
     9  H    2.673971   2.133703   1.091953   3.388602   3.788383
    10  H    3.344448   2.151276   1.089900   2.630913   2.604242
    11  H    3.031094   2.148072   1.093057   2.986418   2.843186
    12  H    4.183102   3.148778   3.709413   1.829812   1.023173
    13  H    2.492436   2.366870   3.705633   1.848092   3.057375
                    6          7          8          9         10
     6  N    0.000000
     7  H    3.961783   0.000000
     8  H    2.715481   1.850274   0.000000
     9  H    4.385795   2.489319   3.748227   0.000000
    10  H    3.716831   3.696898   4.248191   1.779126   0.000000
    11  H    4.241397   3.183385   3.969975   1.776623   1.757921
    12  H    2.267647   5.151028   4.331438   4.754826   3.465771
    13  H    1.016921   3.474430   2.216594   4.213460   3.894582
                   11         12         13
    11  H    0.000000
    12  H    3.857561   0.000000
    13  H    4.449986   3.233341   0.000000
 Stoichiometry    C3H7N3
 Framework group  C1[X(C3H7N3)]
 Deg. of freedom    33
 Full point group                 C1      NOp   1
 RotChk:  IX=0 Diff= 6.17D-02
 Largest Abelian subgroup         C1      NOp   1
 Largest concise Abelian subgroup C1      NOp   1
                         Standard orientation:                         
 ---------------------------------------------------------------------
 Center     Atomic      Atomic             Coordinates (Angstroms)
 Number     Number       Type             X           Y           Z
 ---------------------------------------------------------------------
      1          6           0       -1.153270    1.356877   -0.328638
      2          6           0       -0.660166    0.166805    0.003145
      3          6           0       -1.503696   -1.043036    0.291861
      4          7           0        0.781902   -0.054970    0.001387
      5          7           0        1.119043   -1.210496   -0.427535
      6          7           0        1.614969    0.852056    0.378439
      7          1           0       -2.224464    1.513319   -0.340737
      8          1           0       -0.524743    2.183473   -0.632894
      9          1           0       -2.461922   -0.730074    0.711645
     10          1           0       -1.005031   -1.711564    0.993492
     11          1           0       -1.688865   -1.611974   -0.622905
     12          1           0        2.140843   -1.220905   -0.375560
     13          1           0        1.055575    1.587720    0.802710
 ---------------------------------------------------------------------
 Rotational constants (GHZ):      5.4024148      3.5648630      2.3484822
 Leave Link  202 at Fri Aug 26 05:27:42 2022, MaxMem= 24159191040 cpu:         0.2
 (Enter /public/home/users/caep010/software/Gaussian09/g09/l301.exe)
 Standard basis: GTBas3 (6D, 7F)
 Ernie: Thresh=  0.10000D-02 Tol=  0.10000D-05 Strict=F.
 There are   221 symmetry adapted cartesian basis functions of A   symmetry.
 There are   203 symmetry adapted basis functions of A   symmetry.
   203 basis functions,   313 primitive gaussians,   221 cartesian basis functions
    23 alpha electrons       23 beta electrons
       nuclear repulsion energy       235.0491790676 Hartrees.
 IExCor=  402 DFT=T Ex+Corr=B3LYP ExCW=0 ScaHFX=  0.200000
 ScaDFX=  0.800000  0.720000  1.000000  0.810000 ScalE2=  1.000000  1.000000
 IRadAn=      0 IRanWt=     -1 IRanGd=            0 ICorTp=0 IEmpDi=  4
 NAtoms=   13 NActive=   13 NUniq=   13 SFac= 1.00D+00 NAtFMM=   60 NAOKFM=F Big=F
 Integral buffers will be    131072 words long.
 Raffenetti 2 integral format.
 Two-electron integral symmetry is turned on.
 Leave Link  301 at Fri Aug 26 05:27:42 2022, MaxMem= 24159191040 cpu:         1.6
 (Enter /public/home/users/caep010/software/Gaussian09/g09/l302.exe)
 NPDir=0 NMtPBC=     1 NCelOv=     1 NCel=       1 NClECP=     1 NCelD=      1
         NCelK=      1 NCelE2=     1 NClLst=     1 CellRange=     0.0.
 One-electron integrals computed using PRISM.
 NBasis=   203 RedAO= T EigKep=  2.51D-04  NBF=   203
 NBsUse=   203 1.00D-06 EigRej= -1.00D+00 NBFU=   203
 Precomputing XC quadrature grid using
 IXCGrd= 4 IRadAn=           0 IRanWt=          -1 IRanGd=           0 AccXCQ= 0.00D+00.
 Generated NRdTot=       0 NPtTot=           0 NUsed=           0 NTot=          32
 NSgBfM=   221   221   221   221   221 MxSgAt=    13 MxSgA2=    13.
 Leave Link  302 at Fri Aug 26 05:27:42 2022, MaxMem= 24159191040 cpu:        15.6
 (Enter /public/home/users/caep010/software/Gaussian09/g09/l303.exe)
 DipDrv:  MaxL=1.
 Leave Link  303 at Fri Aug 26 05:27:42 2022, MaxMem= 24159191040 cpu:         0.7
 (Enter /public/home/users/caep010/software/Gaussian09/g09/l401.exe)
[...]
 Alpha virt. eigenvalues --   12.83363  12.85870  12.87129  12.94333  12.97988
 Alpha virt. eigenvalues --   13.00763  13.08485  13.10818  13.13238  13.19186
 Alpha virt. eigenvalues --   13.21316  13.23021  13.25896  13.30973  13.34019
 Alpha virt. eigenvalues --   13.39948  13.43194  13.48615  13.50786  13.55452
 Alpha virt. eigenvalues --   13.66354  13.70108  13.71098  13.75302  13.87772
 Alpha virt. eigenvalues --   13.96747  14.09507  14.15415  14.18804  14.38638
 Alpha virt. eigenvalues --   14.40845  14.41500  14.43388  14.46047  14.49437
 Alpha virt. eigenvalues --   14.51163  14.55105  14.59258  14.60215  14.62297
 Alpha virt. eigenvalues --   14.64217  14.69395  14.70851  14.74865  14.77351
 Alpha virt. eigenvalues --   14.80251  14.82875  14.83714  14.88392  14.94221
 Alpha virt. eigenvalues --   14.99548  15.00225  15.01149  15.08033  15.11205
 Alpha virt. eigenvalues --   15.13077  15.13234  15.17880  15.19826  15.23429
 Alpha virt. eigenvalues --   15.24015  15.28294  15.36386  15.39689  15.45894
 Alpha virt. eigenvalues --   15.52503  15.57648  15.59893  15.73795  15.78863
 Alpha virt. eigenvalues --   15.84403  15.89995  15.99231  16.06213  16.21767
 Alpha virt. eigenvalues --   16.35031  16.39702  16.47744  16.75780  16.96122
 Alpha virt. eigenvalues --   17.19129  17.29812  17.40638  17.53798  17.58002
 Alpha virt. eigenvalues --   17.63064  17.81526  17.93561  17.99792  18.12261
 Alpha virt. eigenvalues --   18.35721  18.36454  18.42166  18.43473  18.52202
 Alpha virt. eigenvalues --   18.61098  18.69238  18.86644  18.93477  19.05156
 Alpha virt. eigenvalues --   19.13181  19.29211  19.63272  19.70786  19.92988
 Alpha virt. eigenvalues --   20.20809  20.88182  21.17566  21.37315  38.91722
 Alpha virt. eigenvalues --   40.57316  41.32825  50.32265  51.31718  53.67994
          Condensed to atoms (all electrons):
               1          2          3          4          5          6
     1  C    5.100568   0.652716  -0.062851  -0.072364  -0.003297   0.032620
     2  C    0.652716   4.906638   0.373706   0.259760  -0.138420  -0.098608
     3  C   -0.062851   0.373706   5.039802  -0.037065  -0.009753   0.003683
     4  N   -0.072364   0.259760  -0.037065   5.675240   0.404192   0.339935
     5  N   -0.003297  -0.138420  -0.009753   0.404192   7.216175  -0.175221
     6  N    0.032620  -0.098608   0.003683   0.339935  -0.175221   7.292481
     7  H    0.416885  -0.036968  -0.003329   0.004596  -0.001429   0.002958
     8  H    0.406879  -0.015794   0.003262  -0.005320   0.000033  -0.000721
     9  H   -0.009544  -0.032129   0.411594   0.006242   0.000910  -0.000387
    10  H    0.004911  -0.035161   0.405380  -0.005891   0.003831  -0.000994
    11  H   -0.001492  -0.020237   0.406231   0.002119  -0.016613   0.000898
    12  H   -0.001073   0.013318   0.000065  -0.017769   0.312049  -0.005497
    13  H   -0.011626  -0.000495  -0.001843  -0.020781   0.012848   0.297956
               7          8          9         10         11         12
     1  C    0.416885   0.406879  -0.009544   0.004911  -0.001492  -0.001073
     2  C   -0.036968  -0.015794  -0.032129  -0.035161  -0.020237   0.013318
     3  C   -0.003329   0.003262   0.411594   0.405380   0.406231   0.000065
     4  N    0.004596  -0.005320   0.006242  -0.005891   0.002119  -0.017769
     5  N   -0.001429   0.000033   0.000910   0.003831  -0.016613   0.312049
     6  N    0.002958  -0.000721  -0.000387  -0.000994   0.000898  -0.005497
     7  H    0.432789  -0.020296   0.000235   0.000323   0.000367   0.000059
     8  H   -0.020296   0.407626   0.000310  -0.000282  -0.000284  -0.000060
     9  H    0.000235   0.000310   0.489583  -0.020616  -0.019337   0.000015
    10  H    0.000323  -0.000282  -0.020616   0.474734  -0.018941   0.000011
    11  H    0.000367  -0.000284  -0.019337  -0.018941   0.433431   0.000351
    12  H    0.000059  -0.000060   0.000015   0.000011   0.000351   0.387370
    13  H   -0.000533   0.000945  -0.000133   0.000452  -0.000040  -0.000024
              13
     1  C   -0.011626
     2  C   -0.000495
     3  C   -0.001843
     4  N   -0.020781
     5  N    0.012848
     6  N    0.297956
     7  H   -0.000533
     8  H    0.000945
     9  H   -0.000133
    10  H    0.000452
    11  H   -0.000040
    12  H   -0.000024
    13  H    0.424722
 Mulliken charges:
               1
     1  C   -0.452332
     2  C    0.171675
     3  C   -0.528881
     4  N    0.467108
     5  N   -0.605304
     6  N   -0.689102
     7  H    0.204344
     8  H    0.223703
     9  H    0.173259
    10  H    0.192244
    11  H    0.233548
    12  H    0.311185
    13  H    0.298553
 Sum of Mulliken charges =  -0.00000
 Mulliken charges with hydrogens summed into heavy atoms:
               1
     1  C   -0.024285
     2  C    0.171675
     3  C    0.070170
     4  N    0.467108
     5  N   -0.294119
     6  N   -0.390549
 Electronic spatial extent (au):  <R**2>=            558.9090
 Charge=             -0.0000 electrons
 Dipole moment (field-independent basis, Debye):
    X=             -2.9985    Y=              1.1084    Z=              0.5126  Tot=              3.2376
 Quadrupole moment (field-independent basis, Debye-Ang):
   XX=            -37.3713   YY=            -36.0129   ZZ=            -39.2596
   XY=             -2.2675   XZ=             -0.9099   YZ=             -1.6322
 Traceless Quadrupole moment (field-independent basis, Debye-Ang):
   XX=              0.1766   YY=              1.5350   ZZ=             -1.7117
   XY=             -2.2675   XZ=             -0.9099   YZ=             -1.6322
 Octapole moment (field-independent basis, Debye-Ang**2):
  XXX=             -8.8603  YYY=              9.9203  ZZZ=              3.1422  XYY=             -2.4614
  XXY=             -8.6693  XXZ=             -4.8382  XZZ=              0.1881  YZZ=              0.8206
  YYZ=              1.6699  XYZ=              1.1252
 Hexadecapole moment (field-independent basis, Debye-Ang**3):
 XXXX=           -385.7732 YYYY=           -263.7389 ZZZZ=            -85.3093 XXXY=            -34.2165
 XXXZ=            -11.6077 YYYX=              1.8526 YYYZ=             -1.4284 ZZZX=             -1.9402
 ZZZY=             -2.0558 XXYY=           -107.0767 XXZZ=            -86.0632 YYZZ=            -57.5742
 XXYZ=             -0.9313 YYXZ=              4.4222 ZZXY=              2.8483
 N-N= 2.345596799106D+02 E-N=-1.125338994042D+03  KE= 2.805405448280D+02
 No NMR shielding tensors so no spin-rotation constants.
 Leave Link  601 at Fri Aug 26 05:45:18 2022, MaxMem= 24159191040 cpu:        32.8
 (Enter /public/home/users/caep010/software/Gaussian09/g09/l9999.exe)
 1\1\GINC-B1814\SP\RHF\GFHFB2\C3H7N3\ROOT\26-Aug-2022\0\\#P Geom=AllChe
 ck Guess=TCheck SCRF=Check HF/GFHFB2 SCF=Tight\\Frag_984\\0,1\C,0,-0.8
 125969402,1.2740446618,0.5840097627\C,0,-0.3375214389,0.131197445,0.10
 39856367\C,0,-1.099957595,-1.139715452,-0.0920203882\N,0,1.0729835573,
 0.0797202165,-0.3190695608\N,0,1.2476507767,-0.5338233617,-1.43405975\
 N,0,2.009295017,0.61877912,0.388150438\H,0,-1.8442678992,1.3431295658,
 0.90574256\H,0,-0.2047832747,2.1678614493,0.6497950797\H,0,-2.11871759
 18,-1.0246672654,0.2835952868\H,0,-0.6178608687,-1.969897952,0.4351342
 519\H,0,-1.125968177,-1.4053681045,-1.1511437971\H,0,2.2599019631,-0.5
 016143453,-1.5979249096\H,0,1.5717424713,0.9603540226,1.2436053897\\Ve
 rsion=ES64L-G09RevE.01\State=1-A\HF=-281.0101804\RMSD=7.097e-09\Dipole
 =-1.0723759,0.1501284,0.670817\Quadrupole=-0.4728558,1.3345266,-0.8616
 708,-0.9758762,-1.8234226,0.7687362\PG=C01 [X(C3H7N3)]\\@


 THE WORLD OF CHEMICAL REACTIONS IS LIKE A STAGE,
 ON WHICH SCENE AFTER SCENE IS CEASELESSLY PLAYED.
 THE ACTORS ON IT ARE THE ELEMENTS.
   -- CLEMENS WINKLER   BER. 30,13(1897)
 (DISCOVERER OF GERMANIUM, FEB 6, 1886)
 Diagonal vibrational polarizability:
        0.0000000       0.0000000       0.0000000

 Temperature=              298.150000 Pressure=                      1.000000
 E(ZPE)=                     0.106323 E(Thermal)=                    0.112740
 E(CCSD(T))=              -281.851107 E(Empiric)=                   -0.118099
 DE(Plus)=                  -0.022691 DE(2DF)=                      -0.228236
 E(Delta-G3XP)=             -0.374116 DE(HF)=                       -0.027544
 G4(0 K)=                 -282.515470 G4 Energy=                  -282.509053
 G4 Enthalpy=             -282.508109 G4 Free Energy=             -282.545454
 1\1\GINC-B1814\Mixed\G4\G4\C3H7N3\ROOT\26-Aug-2022\0\\#P Geom=AllCheck
  Guess=TCheck SCRF=Check HF/GFHFB2 SCF=Tight\\Frag_984\\0,1\C,0,-0.812
 5969402,1.2740446618,0.5840097627\C,0,-0.3375214389,0.131197445,0.1039
 856367\C,0,-1.099957595,-1.139715452,-0.0920203882\N,0,1.0729835573,0.
 0797202165,-0.3190695608\N,0,1.2476507767,-0.5338233617,-1.43405975\N,
 0,2.009295017,0.61877912,0.388150438\H,0,-1.8442678992,1.3431295658,0.
 90574256\H,0,-0.2047832747,2.1678614493,0.6497950797\H,0,-2.1187175918
 ,-1.0246672654,0.2835952868\H,0,-0.6178608687,-1.969897952,0.435134251
 9\H,0,-1.125968177,-1.4053681045,-1.1511437971\H,0,2.2599019631,-0.501
 6143453,-1.5979249096\H,0,1.5717424713,0.9603540226,1.2436053897\\Vers
 ion=ES64L-G09RevE.01\State=1-A\MP2/GTBas1=-281.7762223\MP4/GTBas1=-281
 .8540758\CCSD(T)/G3Bas1=-281.8511073\MP2/GTBas2=-281.7982994\MP4/GTBas
 2=-281.8767663\MP2/GTBas3=-281.9923511\MP4/GTBas3=-282.0823117\HF/GTLa
 rgeXP=-280.9837058\MP2/GTLargeXP=-282.3885442\HF/GFHFB1=-281.0057922\H
 F/GFHFB2=-281.0101804\G4=-282.5154699\FreqCoord=-1.5355856733,2.407595
 4918,1.1036185105,-0.6378230835,0.2479272404,0.1965043752,-2.078618612
 3,-2.1537500737,-0.1738933323,2.0276450683,0.1506493765,-0.6029540873,
 2.3577182774,-1.008779957,-2.7099801856,3.7970173022,1.1693230735,0.73
 34980262,-3.4851612451,2.5381470403,1.7116053853,-0.3869843057,4.09666
 44332,1.2279347432,-4.0037960014,-1.936340509,0.5359174247,-1.16758783
 ,-3.722567639,0.8222845671,-2.1277714888,-2.6557608333,-2.1753465161,4
 .2705957973,-0.947913737,-3.01964046,2.9701628222,1.8148060933,2.35007
 3604\PG=C01 [X(C3H7N3)]\NImag=0\\0.64607318,-0.02295547,0.77043404,-0.
 16489913,0.19787299,0.21363595,-0.15547740,0.12913838,0.06582866,0.467
 84184,0.12776626,-0.43988161,-0.15020189,-0.05786016,0.76418228,0.0662
 6173,-0.15655158,-0.11714751,-0.09676450,0.22070732,0.29130438,0.01070
 874,0.00797935,0.00217104,-0.11065951,-0.05977709,-0.00641066,0.563916
 26,-0.01469786,-0.02726131,-0.00804958,-0.05819016,-0.18209941,-0.0194
 9518,-0.03826730,0.50583285,-0.00541563,-0.01239364,0.00603525,-0.0047
 6925,-0.01917567,-0.07828304,-0.02321306,0.00061779,0.54880039,-0.0260
 7408,0.01441477,0.01505204,-0.14220914,-0.00656272,0.01399364,-0.02910
 405,-0.00333394,0.00578554,0.64618472,0.03554833,0.00234923,-0.0129295
 2,-0.00638543,-0.09927869,-0.00873211,-0.02806998,0.00474881,0.0102301
 2,0.06123382,0.40639901,0.01462079,-0.00335045,-0.00727777,0.01750939,
 -0.00658990,-0.08052480,-0.00070539,0.00328751,0.00415903,-0.01805968,
 0.29219611,0.69016440,-0.00559754,-0.00263360,0.00151130,-0.01400826,0
 .02365204,0.03907468,-0.00438797,-0.00033551,0.00156371,-0.15482696,0.
 03700315,0.09269490,0.55265745,0.00025076,0.00213805,0.00146200,0.0132
 8772,-0.00613675,-0.01000262,-0.00327455,-0.00068942,0.00052731,0.0005
 5469,-0.15709166,-0.13786131,0.00736163,0.18992364,0.00067472,0.001770
 97,0.00327356,0.02206987,-0.01071590,-0.02325899,0.00010986,-0.0004970
 2,-0.00005109,0.02622402,-0.15046425,-0.34560179,-0.09688448,0.2071059
 5,0.45926805,-0.00184966,-0.00334041,-0.00176647,-0.03901754,-0.018919
 42,-0.01922666,-0.00386674,0.00326885,0.00159255,-0.28519596,-0.076169
 33,-0.06695458,0.02005189,-0.00859213,-0.01974595,0.43538201,0.0011427
 8,-0.00428485,-0.00227109,-0.01212710,0.01420605,-0.00462774,0.0015528
 3,-0.00022721,-0.00068657,-0.10056698,-0.12508448,-0.09553682,-0.02601
 740,-0.00784050,-0.04346282,0.06662999,0.17926262,0.00435329,-0.001417
 20,0.00030038,-0.00760193,-0.00424430,0.00932912,0.00162461,0.00001379
 ,-0.00029757,-0.12115887,-0.10523389,-0.20439946,-0.04612113,-0.048426
 73,-0.05258089,-0.00745586,0.25365042,0.53329242,-0.31815878,0.0168561
 2,0.08804492,-0.00842986,-0.00331216,0.00184819,-0.00037941,-0.0006582
 2,-0.00231990,0.00173870,-0.00048458,0.00246293,-0.00091457,0.00043674
 ,0.00081358,0.00053351,0.00089242,0.00014459,0.33414984,0.01058876,-0.
 05390049,-0.00868400,0.02681646,0.00122595,-0.00702461,0.00170706,0.00
 046227,0.00182994,-0.00159736,-0.00402991,-0.00532583,0.00202484,-0.00
 007623,-0.00033332,-0.00016450,0.00096876,0.00020206,-0.01737103,0.051
 55185,0.08664518,-0.01048955,-0.06152339,0.01087112,-0.00045391,-0.002
 45927,-0.00172502,0.00252314,-0.00635917,0.00373326,-0.00544252,0.0107
 0831,-0.00155976,0.00018892,0.00139247,0.00088185,0.00063991,-0.001019
 34,-0.09595090,0.01292983,0.05511337,-0.14568957,-0.13877708,-0.005193
 46,0.00895525,0.01051618,0.00221049,-0.00018349,0.00031060,0.00413760,
 -0.00056124,0.00114663,-0.00186803,0.00053606,-0.00046078,-0.00070868,
 -0.00126641,0.00003927,0.00048106,-0.00980254,-0.02152697,-0.00253734,
 0.14840182,-0.13294096,-0.24994227,-0.01994785,-0.01888367,-0.01830263
 ,-0.00147417,0.00228202,-0.00003225,-0.00423018,-0.00251123,-0.0009353
 4,0.00072861,0.00002058,0.00056512,0.00120523,0.00100440,0.00196358,0.
 00047468,0.00361175,0.00472480,-0.00036188,0.14667355,0.26379279,-0.00
 352538,-0.01618932,-0.03810694,-0.00464847,-0.01160700,0.00466896,0.00
 438289,-0.00397709,0.01044296,-0.00487727,0.00220549,-0.00647006,0.001
 28637,-0.00033709,-0.00135886,-0.00051997,0.00090283,0.00077256,0.0043
 8618,0.00689964,0.00269791,0.00467746,0.02261743,0.02875365,0.00085050
 ,0.00176009,0.00016993,-0.01624670,0.00306248,0.00580062,-0.28081966,0
 .02653504,0.08619117,-0.00008391,-0.00202823,0.00070351,-0.00021286,-0
 .00056558,-0.00058867,-0.00090772,-0.00004155,-0.00000120,0.00078810,-
 0.00050255,-0.00019752,0.00030975,0.00019351,-0.00024347,0.30519997,-0
 .00018855,0.00075176,0.00036681,-0.02654754,0.00337296,0.01116386,0.03
 085331,-0.05183577,-0.01145594,-0.00299121,-0.00541393,-0.00222516,0.0
 0018335,0.00074156,-0.00026569,-0.00148263,0.00069985,0.00052828,0.000
 20099,-0.00055341,-0.00036821,0.00021235,0.00039013,0.00015907,-0.0288
 6875,0.05536667,-0.00030483,-0.00001784,-0.00007317,-0.00575936,-0.000
 18385,-0.00037969,0.08776191,-0.00946584,-0.07895962,-0.00061494,-0.00
 264482,-0.00004154,0.00113155,0.00030009,-0.00013051,0.00021595,0.0007
 2048,0.00049186,-0.00000855,-0.00010181,0.00043534,-0.00014773,0.00017
 158,-0.00025223,-0.09575155,0.01280380,0.08046899,-0.00129003,-0.00159
 595,-0.00082868,0.00823388,-0.01349096,0.01077236,-0.10074774,0.087424
 96,-0.05702799,0.00162541,-0.00033107,0.00021170,-0.00004837,0.0001201
 1,0.00003367,0.00004057,0.00026454,-0.00038060,0.00019818,-0.00020524,
 0.00007450,0.00003650,-0.00003520,-0.00108861,-0.01153496,0.02138012,-
 0.01549247,0.10450429,-0.00350426,-0.00146000,0.00033098,0.01161779,-0
 .02622369,0.01206489,0.08764965,-0.19170498,0.09759725,0.00190717,0.00
 022884,-0.00162645,-0.00028364,0.00087328,0.00049676,-0.00055276,0.000
 09467,-0.00011197,0.00018631,-0.00018371,0.00096433,-0.00030449,-0.000
 20259,-0.00205890,0.00062046,-0.00161008,0.00064918,-0.09443576,0.2144
 0662,-0.00047189,-0.00079535,0.00012561,0.00307878,-0.00601854,0.00273
 095,-0.05666660,0.09777579,-0.10513916,0.00021331,0.00107334,0.0011953
 8,0.00036362,-0.00101222,-0.00021786,-0.00002131,0.00001121,-0.0004972
 0,0.00008729,-0.00018425,0.00062301,-0.00032473,-0.00010206,-0.0009441
 8,0.00482554,-0.00995608,0.00536059,0.06381272,-0.10506558,0.11208432,
 -0.00134236,-0.00103963,0.00034623,-0.00011313,-0.00351960,-0.01733189
 ,-0.04482216,-0.00242446,-0.00579231,0.00103826,-0.00084157,-0.0016426
 7,-0.00255370,-0.00011939,0.00099811,0.00066105,0.00093262,0.00139856,
 0.00002344,0.00000974,-0.00025805,0.00057912,-0.00049168,0.00072245,0.
 00243073,0.00699525,0.02885187,-0.00111226,-0.00302987,-0.01486404,0.0
 4453947,-0.00302175,-0.00140063,0.00073497,-0.00125167,-0.01206330,-0.
 03107662,-0.00204112,-0.05718879,-0.06267095,0.00100341,-0.00034699,-0
 .00078363,0.00026437,-0.00020383,0.00064013,0.00017668,0.00051969,0.00
 035985,-0.00041120,0.00032611,-0.00118939,0.00085578,-0.00138687,0.001
 98515,-0.00007513,-0.00181631,-0.00260781,0.00093624,0.00598230,0.0243
 6060,0.00320975,0.06722782,-0.00080855,0.00115167,0.00060605,-0.001536
 11,-0.00499387,-0.00240086,-0.00651902,-0.06197193,-0.30068982,-0.0000
 4489,-0.00135218,-0.00138678,0.00267397,0.00124455,-0.00054004,0.00015
 361,0.00020583,0.00012509,0.00000234,0.00005522,0.00017078,-0.00004769
 ,0.00006395,-0.00019764,-0.00089357,-0.00095517,-0.00731129,-0.0000477
 4,-0.00346383,-0.01536715,0.00699028,0.06973814,0.32649438,-0.00007387
 ,-0.00026292,0.00043318,0.00218519,-0.00030731,0.00230635,-0.00006444,
 0.00024143,-0.00056417,-0.01641752,-0.00067696,0.00411818,-0.38823008,
 -0.00366197,0.07128091,0.00012683,-0.00242645,-0.00590643,-0.00001024,
 0.00026448,-0.00020907,-0.00000037,0.00012278,0.00006097,0.00006555,0.
 00005113,0.00017066,0.00000478,-0.00003108,0.00005937,0.00036887,0.000
 22938,0.00025656,0.40229748,-0.00054258,0.00005806,-0.00011894,-0.0021
 3043,0.00621341,-0.00607498,-0.00006023,0.00016341,-0.00026355,0.03067
 458,0.00107308,-0.01911762,-0.03608514,-0.03422257,0.00055085,0.001120
 52,-0.00461496,0.00453646,0.00037058,-0.00008562,0.00114927,0.00009977
 ,0.00016186,-0.00074156,-0.00005272,0.00006057,0.00048193,0.00008643,-
 0.00008072,-0.00005099,0.00036939,0.00028467,0.00030609,0.00651056,0.0
 3291969,0.00214351,0.00042502,-0.00046043,-0.00050625,-0.00851676,-0.0
 0325420,-0.00099494,-0.00034821,-0.00005140,0.06177129,-0.00784855,-0.
 02072454,0.00937341,-0.00744912,-0.04658048,-0.00005651,0.00463274,0.0
 0122317,0.00011116,-0.00055367,-0.00025313,-0.00015527,-0.00009504,0.0
 0014904,-0.00002464,0.00003747,0.00024775,0.00001444,0.00011359,0.0000
 8451,0.00039934,0.00033620,0.00033132,-0.07097110,0.01760865,0.0692689
 0,-0.00207913,0.00045634,-0.00086955,-0.00105461,-0.00124755,-0.002534
 37,0.00041018,0.00012659,-0.00016825,0.00388576,-0.01994478,-0.0430910
 3,-0.00246509,-0.00533724,-0.00427696,-0.12469183,0.06972504,0.1806239
 1,0.00026363,-0.00004370,0.00023176,-0.00131488,0.00095415,-0.00061314
 ,0.00016123,0.00020218,-0.00005253,0.00008974,0.00016047,-0.00009206,0
 .00030266,0.00012527,-0.00017919,-0.00025217,-0.00036073,-0.00110443,0
 .12674450,0.00255453,0.00240002,0.00143511,0.00251581,-0.00521458,0.00
 112355,-0.00053396,-0.00016819,0.00007407,0.00777500,-0.02261796,-0.02
 379505,-0.00515466,0.01201930,-0.00603087,0.03702074,-0.05566323,-0.10
 033146,-0.00031772,-0.00043038,-0.00008996,0.00121519,-0.00079632,0.00
 014134,-0.00003705,-0.00015400,-0.00010509,-0.00011823,-0.00011993,-0.
 00003586,-0.00005055,0.00006613,-0.00002846,-0.00005307,-0.00193086,0.
 00165769,-0.04481604,0.07260999,0.00072619,-0.00001570,0.00061240,0.00
 222804,0.00199426,-0.00032505,0.00018437,-0.00041316,0.00039324,0.0179
 8255,-0.01105722,-0.03980037,-0.00510814,-0.00573973,0.00638643,0.1129
 0336,-0.11417837,-0.28674013,0.00037818,0.00029079,0.00047312,-0.00052
 368,0.00094969,-0.00015515,0.00000986,0.00016696,0.00014353,-0.0000533
 1,0.00010974,-0.00003881,0.00018211,0.00017336,0.00016597,-0.00103539,
 0.00173439,0.00001950,-0.12787415,0.12598497,0.31886532\\-0.00002206,0
 .00000544,0.00000892,-0.00007242,-0.00002468,0.00003565,0.00002142,0.0
 0004284,-0.00001872,0.00004386,-0.00009988,-0.00024109,0.00002210,0.00
 010676,0.00017224,0.00003464,0.00000099,0.00003897,0.00000104,0.000007
 04,-0.00000681,0.00001050,-0.00001142,-0.00000573,-0.00001051,-0.00002
 576,0.00000637,-0.00001220,-0.00000859,0.00001624,-0.00000078,0.000014
 07,0.00000063,-0.00002030,-0.00000442,0.00000938,0.00000470,-0.0000023
 8,-0.00001606\\\@
 Job cpu time:       0 days  3 hours 35 minutes 20.0 seconds.
 File lengths (MBytes):  RWF=   4201 Int=      0 D2E=      0 Chk=     35 Scr=      1
 Normal termination of Gaussian 09 at Fri Aug 26 05:45:19 2022.
