 Entering Gaussian System, Link 0=g09
 Input=G4.Frag_531.gjf
 Output=G4.Frag_531.log
 Initial command:
 /public/home/users/caep010/software/Gaussian09/g09/l1.exe "/public/home/users/caep010/.cache/gau_scr/Gau-81963.inp" -scrdir="/public/home/users/caep010/.cache/gau_scr/"
 Entering Link 1 = /public/home/users/caep010/software/Gaussian09/g09/l1.exe PID=     81964.
  
 Copyright (c) 1988,1990,1992,1993,1995,1998,2003,2009,2015,
            Gaussian, Inc.  All Rights Reserved.
  
 This is part of the Gaussian(R) 09 program.  It is based on
 the Gaussian(R) 03 system (copyright 2003, Gaussian, Inc.),
 the Gaussian(R) 98 system (copyright 1998, Gaussian, Inc.),
 the Gaussian(R) 94 system (copyright 1995, Gaussian, Inc.),
 the Gaussian 92(TM) system (copyright 1992, Gaussian, Inc.),
 the Gaussian 90(TM) system (copyright 1990, Gaussian, Inc.),
 the Gaussian 88(TM) system (copyright 1988, Gaussian, Inc.),
 the Gaussian 86(TM) system (copyright 1986, Carnegie Mellon
 University), and the Gaussian 82(TM) system (copyright 1983,
 Carnegie Mellon University). Gaussian is a federally registered
 trademark of Gaussian, Inc.
  
 This software contains proprietary and confidential information,
 including trade secrets, belonging to Gaussian, Inc.
  
 This software is provided under written license and may be
 used, copied, transmitted, or stored only in accord with that
 written license.
  
 The following legend is applicable only to US Government
 contracts under FAR:
  
                    RESTRICTED RIGHTS LEGEND
  
 Use, reproduction and disclosure by the US Government is
 subject to restrictions as set forth in subparagraphs (a)
 and (c) of the Commercial Computer Software - Restricted
 Rights clause in FAR 52.227-19.
  
 Gaussian, Inc.
 340 Quinnipiac St., Bldg. 40, Wallingford CT 06492
  
  
 ---------------------------------------------------------------
 Warning -- This program may not be used in any manner that
 competes with the business of Gaussian, Inc. or will provide
 assistance to any competitor of Gaussian, Inc.  The licensee
 of this program is prohibited from giving any competitor of
 Gaussian, Inc. access to this program.  By using this program,
 the user acknowledges that Gaussian, Inc. is engaged in the
 business of creating and licensing software in the field of
 computational chemistry and represents and warrants to the
 licensee that it is not a competitor of Gaussian, Inc. and that
 it will not use this program in any manner prohibited above.
 ---------------------------------------------------------------
  

 Cite this work as:
 Gaussian 09, Revision E.01,
 M. J. Frisch, G. W. Trucks, H. B. Schlegel, G. E. Scuseria, 
 M. A. Robb, J. R. Cheeseman, G. Scalmani, V. Barone, B. Mennucci, 
 G. A. Petersson, H. Nakatsuji, M. Caricato, X. Li, H. P. Hratchian, 
 A. F. Izmaylov, J. Bloino, G. Zheng, J. L. Sonnenberg, M. Hada, 
 M. Ehara, K. Toyota, R. Fukuda, J. Hasegawa, M. Ishida, T. Nakajima, 
 Y. Honda, O. Kitao, H. Nakai, T. Vreven, J. A. Montgomery, Jr., 
 J. E. Peralta, F. Ogliaro, M. Bearpark, J. J. Heyd, E. Brothers, 
 K. N. Kudin, V. N. Staroverov, T. Keith, R. Kobayashi, J. Normand, 
 K. Raghavachari, A. Rendell, J. C. Burant, S. S. Iyengar, J. Tomasi, 
 M. Cossi, N. Rega, J. M. Millam, M. Klene, J. E. Knox, J. B. Cross, 
 V. Bakken, C. Adamo, J. Jaramillo, R. Gomperts, R. E. Stratmann, 
 O. Yazyev, A. J. Austin, R. Cammi, C. Pomelli, J. W. Ochterski, 
 R. L. Martin, K. Morokuma, V. G. Zakrzewski, G. A. Voth, 
 P. Salvador, J. J. Dannenberg, S. Dapprich, A. D. Daniels, 
 O. Farkas, J. B. Foresman, J. V. Ortiz, J. Cioslowski, 
 and D. J. Fox, Gaussian, Inc., Wallingford CT, 2013.
 
 ******************************************
 Gaussian 09:  ES64L-G09RevE.01 30-Nov-2015
                30-Aug-2022 
 ******************************************
 %nproc=32
 Will use up to   32 processors via shared memory.
 %mem=180GB
 %chk=G4.Frag_531.chk
 -----
 #P G4
 -----
 1/14=-1,18=20,19=15,26=3,38=1/1,3;
 2/9=110,12=2,17=6,18=5,40=1/2;
 3/5=35,7=104,11=2,16=1,25=1,30=1,71=1,74=-5/1,2,3;
 4//1;
 5/5=2,38=5/2;
 6/7=2,8=2,9=2,10=2,28=1/1;
 7//1,2,3,16;
 1/14=-1,18=20,19=15,26=3/3(2);
 2/9=110/2;
 99//99;
 2/9=110/2;
 3/5=35,7=104,11=2,16=1,25=1,30=1,71=1,74=-5/1,2,3;
 4/5=5,16=3,69=1/1;
 5/5=2,38=5/2;
 7//1,2,3,16;
 1/14=-1,18=20,19=15,26=3/3(-5);
 2/9=110/2;
 6/7=2,8=2,9=2,10=2,19=2,28=1/1;
 99/9=1/99;
 Leave Link    1 at Tue Aug 30 12:14:03 2022, MaxMem= 24159191040 cpu:         2.8
 (Enter /public/home/users/caep010/software/Gaussian09/g09/l101.exe)
 --------
 Frag_531
 --------
 Symbolic Z-matrix:
 Charge =  0 Multiplicity = 1
 C                    -0.84075   0.04225   0.00203 
 N                     0.37579  -0.78964   0.12789 
 N                     1.44716  -0.19779  -0.01628 
 N                     2.49793   0.23114  -0.11791 
 H                    -1.57578   0.07605   0.7638 
 H                    -0.61375   1.10603   0.1552 
 H                    -1.2907   -0.46804  -0.99983 
 
 NAtoms=      7 NQM=        7 NQMF=       0 NMMI=      0 NMMIF=      0
                NMic=       0 NMicF=      0.
                    Isotopes and Nuclear Properties:
 (Nuclear quadrupole moments (NQMom) in fm**2, nuclear magnetic moments (NMagM)
  in nuclear magnetons)

  Atom         1           2           3           4           5           6           7
 IAtWgt=          12          14          14          14           1           1           1
 AtmWgt=  12.0000000  14.0030740  14.0030740  14.0030740   1.0078250   1.0078250   1.0078250
 NucSpn=           0           2           2           2           1           1           1
 AtZEff=   0.0000000   0.0000000   0.0000000   0.0000000   0.0000000   0.0000000   0.0000000
 NQMom=    0.0000000   2.0440000   2.0440000   2.0440000   0.0000000   0.0000000   0.0000000
 NMagM=    0.0000000   0.4037610   0.4037610   0.4037610   2.7928460   2.7928460   2.7928460
 AtZNuc=   6.0000000   7.0000000   7.0000000   7.0000000   1.0000000   1.0000000   1.0000000
 Leave Link  101 at Tue Aug 30 12:14:04 2022, MaxMem= 24159191040 cpu:         9.9
 (Enter /public/home/users/caep010/software/Gaussian09/g09/l103.exe)

 GradGradGradGradGradGradGradGradGradGradGradGradGradGradGradGradGradGrad
 Berny optimization.
 Initialization pass.
                           ----------------------------
                           !    Initial Parameters    !
                           ! (Angstroms and Degrees)  !
 --------------------------                            --------------------------
 ! Name  Definition              Value          Derivative Info.                !
 --------------------------------------------------------------------------------
 ! R1    R(1,2)                  1.4791         estimate D2E/DX2                !
 ! R2    R(1,5)                  1.0591         estimate D2E/DX2                !
 ! R3    R(1,6)                  1.0985         estimate D2E/DX2                !
 ! R4    R(1,7)                  1.211          estimate D2E/DX2                !
 ! R5    R(2,3)                  1.2324         estimate D2E/DX2                !
 ! R6    R(3,4)                  1.1395         estimate D2E/DX2                !
 ! A1    A(2,1,5)              121.8404         estimate D2E/DX2                !
 ! A2    A(2,1,6)              111.2737         estimate D2E/DX2                !
 ! A3    A(2,1,7)               97.99           estimate D2E/DX2                !
 ! A4    A(5,1,6)               90.6996         estimate D2E/DX2                !
 ! A5    A(5,1,7)              110.5248         estimate D2E/DX2                !
 ! A6    A(6,1,7)              126.8849         estimate D2E/DX2                !
 ! A7    A(1,2,3)              115.7814         estimate D2E/DX2                !
 ! A8    L(2,3,4,6,-1)         186.6459         estimate D2E/DX2                !
 ! A9    L(2,3,4,6,-2)         177.9589         estimate D2E/DX2                !
 ! D1    D(5,1,2,3)           -125.3577         estimate D2E/DX2                !
 ! D2    D(6,1,2,3)            -20.4529         estimate D2E/DX2                !
 ! D3    D(7,1,2,3)            114.3819         estimate D2E/DX2                !
 --------------------------------------------------------------------------------
 Trust Radius=3.00D-01 FncErr=1.00D-07 GrdErr=1.00D-06
 Number of steps in this run=     28 maximum allowed number of steps=    100.
 GradGradGradGradGradGradGradGradGradGradGradGradGradGradGradGradGradGrad

 Leave Link  103 at Tue Aug 30 12:14:04 2022, MaxMem= 24159191040 cpu:         0.7
 (Enter /public/home/users/caep010/software/Gaussian09/g09/l202.exe)
                          Input orientation:                          
 ---------------------------------------------------------------------
 Center     Atomic      Atomic             Coordinates (Angstroms)
 Number     Number       Type             X           Y           Z
 ---------------------------------------------------------------------
      1          6           0       -0.840746    0.042245    0.002027
      2          7           0        0.375793   -0.789635    0.127885
      3          7           0        1.447156   -0.197786   -0.016284
      4          7           0        2.497931    0.231140   -0.117905
      5          1           0       -1.575783    0.076051    0.763798
      6          1           0       -0.613746    1.106027    0.155204
      7          1           0       -1.290704   -0.468041   -0.999826
 ---------------------------------------------------------------------
                    Distance matrix (angstroms):
                    1          2          3          4          5
     1  C    0.000000
     2  N    1.479132   0.000000
     3  N    2.300532   1.232432   0.000000
     4  N    3.346166   2.367671   1.139488   0.000000
     5  H    1.059112   2.227655   3.133955   4.170923   0.000000
     6  H    1.098465   2.138567   2.444720   3.243848   1.535172
     7  H    1.211018   2.037736   2.921690   3.952264   1.867532
                    6          7
     6  H    0.000000
     7  H    2.066412   0.000000
 Stoichiometry    CH3N3
 Framework group  C1[X(CH3N3)]
 Deg. of freedom    15
 Full point group                 C1      NOp   1
 Largest Abelian subgroup         C1      NOp   1
 Largest concise Abelian subgroup C1      NOp   1
                         Standard orientation:                         
 ---------------------------------------------------------------------
 Center     Atomic      Atomic             Coordinates (Angstroms)
 Number     Number       Type             X           Y           Z
 ---------------------------------------------------------------------
      1          6           0        1.550676    0.277205    0.044103
      2          7           0        0.389306   -0.626786   -0.103723
      3          7           0       -0.718813   -0.095349   -0.011332
      4          7           0       -1.795489    0.273736    0.043227
      5          1           0        2.309594    0.336846   -0.692242
      6          1           0        1.268587    1.322268   -0.142694
      7          1           0        1.992733   -0.183552    1.073108
 ---------------------------------------------------------------------
 Rotational constants (GHZ):     44.8120545      5.2811582      4.8904512
 Leave Link  202 at Tue Aug 30 12:14:04 2022, MaxMem= 24159191040 cpu:         0.8
 (Enter /public/home/users/caep010/software/Gaussian09/g09/l301.exe)
 Standard basis: GTBas3 (6D, 7F)
 Ernie: Thresh=  0.10000D-02 Tol=  0.10000D-05 Strict=F.
 There are   139 symmetry adapted cartesian basis functions of A   symmetry.
 There are   127 symmetry adapted basis functions of A   symmetry.
   127 basis functions,   197 primitive gaussians,   139 cartesian basis functions
    15 alpha electrons       15 beta electrons
       nuclear repulsion energy       107.6149731784 Hartrees.
 IExCor=  402 DFT=T Ex+Corr=B3LYP ExCW=0 ScaHFX=  0.200000
 ScaDFX=  0.800000  0.720000  1.000000  0.810000 ScalE2=  1.000000  1.000000
 IRadAn=      0 IRanWt=     -1 IRanGd=            0 ICorTp=0 IEmpDi=  4
 NAtoms=    7 NActive=    7 NUniq=    7 SFac= 1.00D+00 NAtFMM=   60 NAOKFM=F Big=F
 Integral buffers will be    131072 words long.
 Raffenetti 2 integral format.
 Two-electron integral symmetry is turned on.
 Leave Link  301 at Tue Aug 30 12:14:04 2022, MaxMem= 24159191040 cpu:         2.0
 (Enter /public/home/users/caep010/software/Gaussian09/g09/l302.exe)
 NPDir=0 NMtPBC=     1 NCelOv=     1 NCel=       1 NClECP=     1 NCelD=      1
         NCelK=      1 NCelE2=     1 NClLst=     1 CellRange=     0.0.
 One-electron integrals computed using PRISM.
 NBasis=   127 RedAO= T EigKep=  2.99D-04  NBF=   127
 NBsUse=   127 1.00D-06 EigRej= -1.00D+00 NBFU=   127
 Precomputing XC quadrature grid using
 IXCGrd= 4 IRadAn=           0 IRanWt=          -1 IRanGd=           0 AccXCQ= 0.00D+00.
 Generated NRdTot=       0 NPtTot=           0 NUsed=           0 NTot=          32
 NSgBfM=   139   139   139   139   139 MxSgAt=     7 MxSgA2=     7.
 Leave Link  302 at Tue Aug 30 12:14:05 2022, MaxMem= 24159191040 cpu:        14.2
 (Enter /public/home/users/caep010/software/Gaussian09/g09/l303.exe)
 DipDrv:  MaxL=1.
 Leave Link  303 at Tue Aug 30 12:14:05 2022, MaxMem= 24159191040 cpu:         0.7
 (Enter /public/home/users/caep010/software/Gaussian09/g09/l401.exe)
 ExpMin= 1.61D-01 ExpMax= 4.17D+03 ExpMxC= 6.27D+02 IAcc=1 IRadAn=         1 AccDes= 0.00D+00
 Harris functional with IExCor=  402 and IRadAn=       1 diagonalized for initial guess.
 HarFok:  IExCor=  402 AccDes= 0.00D+00 IRadAn=         1 IDoV= 1 UseB2=F ITyADJ=14
 ICtDFT=  3500011 ScaDFX=  1.000000  1.000000  1.000000  1.000000
 FoFCou: FMM=F IPFlag=           0 FMFlag=      100000 FMFlg1=           0
         NFxFlg=           0 DoJE=T BraDBF=F KetDBF=T FulRan=T
         wScrn=  0.000000 ICntrl=     500 IOpCl=  0 I1Cent=   200000004 NGrid=           0
         NMat0=    1 NMatS0=      1 NMatT0=    0 NMatD0=    1 NMtDS0=    0 NMtDT0=    0
 Petite list used in FoFCou.
 Harris En= -204.058232992327    
 JPrj=0 DoOrth=F DoCkMO=F.
 Leave Link  401 at Tue Aug 30 12:14:05 2022, MaxMem= 24159191040 cpu:        12.2
 (Enter /public/home/users/caep010/software/Gaussian09/g09/l502.exe)
 Closed shell SCF:
 Using DIIS extrapolation, IDIIS=  1040.
 Integral symmetry usage will be decided dynamically.
 Keep R1 ints in memory in canonical form, NReq=35099404.
 IVT=       81969 IEndB=       81969 NGot= 24159191040 MDV= 24126072816
 LenX= 24126072816 LenY= 24126053054
 Requested convergence on RMS density matrix=1.00D-08 within 128 cycles.
 Requested convergence on MAX density matrix=1.00D-06.
 Requested convergence on             energy=1.00D-06.
 No special actions if energy rises.
 FoFCou: FMM=F IPFlag=           0 FMFlag=           0 FMFlg1=           0
         NFxFlg=           0 DoJE=F BraDBF=F KetDBF=F FulRan=T
         wScrn=  0.000000 ICntrl=     600 IOpCl=  0 I1Cent=           0 NGrid=           0
         NMat0=    1 NMatS0=   8128 NMatT0=    0 NMatD0=    1 NMtDS0=    0 NMtDT0=    0
 Symmetry not used in FoFCou.
 Integral accuracy reduced to 1.0D-05 until final iterations.

 Cycle   1  Pass 0  IDiag  1:
 E= -203.995505188003    
 DIIS: error= 2.15D-02 at cycle   1 NSaved=   1.
 NSaved= 1 IEnMin= 1 EnMin= -203.995505188003     IErMin= 1 ErrMin= 2.15D-02
 ErrMax= 2.15D-02  0.00D+00 EMaxC= 1.00D-01 BMatC= 9.56D-02 BMatP= 9.56D-02
 IDIUse=3 WtCom= 7.85D-01 WtEn= 2.15D-01
 Coeff-Com:  0.100D+01
 Coeff-En:   0.100D+01
 Coeff:      0.100D+01
 Gap=     0.185 Goal=   None    Shift=    0.000
 GapD=    0.185 DampG=1.000 DampE=0.500 DampFc=0.5000 IDamp=-1.
 Damping current iteration by 5.00D-01
 RMSDP=4.48D-03 MaxDP=1.02D-01              OVMax= 1.66D-01

 Cycle   2  Pass 0  IDiag  1:
 E= -204.019018967845     Delta-E=       -0.023513779842 Rises=F Damp=T
 DIIS: error= 8.02D-03 at cycle   2 NSaved=   2.
 NSaved= 2 IEnMin= 2 EnMin= -204.019018967845     IErMin= 2 ErrMin= 8.02D-03
 ErrMax= 8.02D-03  0.00D+00 EMaxC= 1.00D-01 BMatC= 1.61D-02 BMatP= 9.56D-02
 IDIUse=3 WtCom= 9.20D-01 WtEn= 8.02D-02
 Coeff-Com:  0.220D+00 0.780D+00
 Coeff-En:   0.338D+00 0.662D+00
 Coeff:      0.230D+00 0.770D+00
 Gap=     0.229 Goal=   None    Shift=    0.000
 RMSDP=1.01D-03 MaxDP=4.11D-02 DE=-2.35D-02 OVMax= 1.13D-01

 Cycle   3  Pass 0  IDiag  1:
 E= -204.073022739835     Delta-E=       -0.054003771989 Rises=F Damp=F
 DIIS: error= 3.73D-03 at cycle   3 NSaved=   3.
 NSaved= 3 IEnMin= 3 EnMin= -204.073022739835     IErMin= 3 ErrMin= 3.73D-03
 ErrMax= 3.73D-03  0.00D+00 EMaxC= 1.00D-01 BMatC= 4.46D-03 BMatP= 1.61D-02
 IDIUse=3 WtCom= 9.63D-01 WtEn= 3.73D-02
 Coeff-Com:  0.414D-01 0.326D+00 0.633D+00
 Coeff-En:   0.000D+00 0.000D+00 0.100D+01
 Coeff:      0.399D-01 0.314D+00 0.647D+00
 Gap=     0.221 Goal=   None    Shift=    0.000
 RMSDP=7.16D-04 MaxDP=1.79D-02 DE=-5.40D-02 OVMax= 3.69D-02

 Cycle   4  Pass 0  IDiag  1:
 E= -204.074575022181     Delta-E=       -0.001552282346 Rises=F Damp=F
 DIIS: error= 4.25D-03 at cycle   4 NSaved=   4.
 NSaved= 4 IEnMin= 4 EnMin= -204.074575022181     IErMin= 3 ErrMin= 3.73D-03
 ErrMax= 4.25D-03  0.00D+00 EMaxC= 1.00D-01 BMatC= 2.55D-03 BMatP= 4.46D-03
 IDIUse=3 WtCom= 9.58D-01 WtEn= 4.25D-02
 Coeff-Com:  0.575D-02 0.130D+00 0.434D+00 0.430D+00
 Coeff-En:   0.000D+00 0.000D+00 0.385D+00 0.615D+00
 Coeff:      0.550D-02 0.124D+00 0.432D+00 0.438D+00
 Gap=     0.227 Goal=   None    Shift=    0.000
 RMSDP=4.63D-04 MaxDP=1.53D-02 DE=-1.55D-03 OVMax= 2.94D-02

 Cycle   5  Pass 0  IDiag  1:
 E= -204.075886910600     Delta-E=       -0.001311888420 Rises=F Damp=F
 DIIS: error= 2.60D-03 at cycle   5 NSaved=   5.
 NSaved= 5 IEnMin= 5 EnMin= -204.075886910600     IErMin= 5 ErrMin= 2.60D-03
 ErrMax= 2.60D-03  0.00D+00 EMaxC= 1.00D-01 BMatC= 1.05D-03 BMatP= 2.55D-03
 IDIUse=3 WtCom= 9.74D-01 WtEn= 2.60D-02
 Coeff-Com: -0.163D-02 0.331D-01 0.228D+00 0.373D+00 0.367D+00
 Coeff-En:   0.000D+00 0.000D+00 0.000D+00 0.334D+00 0.666D+00
 Coeff:     -0.158D-02 0.323D-01 0.222D+00 0.372D+00 0.375D+00
 Gap=     0.226 Goal=   None    Shift=    0.000
 RMSDP=2.13D-04 MaxDP=6.60D-03 DE=-1.31D-03 OVMax= 1.22D-02

 Cycle   6  Pass 0  IDiag  1:
 E= -204.076791682109     Delta-E=       -0.000904771509 Rises=F Damp=F
 DIIS: error= 3.51D-04 at cycle   6 NSaved=   6.
 NSaved= 6 IEnMin= 6 EnMin= -204.076791682109     IErMin= 6 ErrMin= 3.51D-04
 ErrMax= 3.51D-04  0.00D+00 EMaxC= 1.00D-01 BMatC= 2.88D-05 BMatP= 1.05D-03
 IDIUse=3 WtCom= 9.96D-01 WtEn= 3.51D-03
 Coeff-Com: -0.202D-02 0.625D-02 0.768D-01 0.159D+00 0.215D+00 0.546D+00
 Coeff-En:   0.000D+00 0.000D+00 0.000D+00 0.000D+00 0.000D+00 0.100D+01
 Coeff:     -0.202D-02 0.622D-02 0.765D-01 0.158D+00 0.214D+00 0.547D+00
 Gap=     0.226 Goal=   None    Shift=    0.000
 RMSDP=3.66D-05 MaxDP=9.55D-04 DE=-9.05D-04 OVMax= 1.51D-03

 Cycle   7  Pass 0  IDiag  1:
 E= -204.076816921490     Delta-E=       -0.000025239381 Rises=F Damp=F
 DIIS: error= 4.44D-05 at cycle   7 NSaved=   7.
 NSaved= 7 IEnMin= 7 EnMin= -204.076816921490     IErMin= 7 ErrMin= 4.44D-05
 ErrMax= 4.44D-05  0.00D+00 EMaxC= 1.00D-01 BMatC= 3.44D-07 BMatP= 2.88D-05
 IDIUse=1 WtCom= 1.00D+00 WtEn= 0.00D+00
 Coeff-Com: -0.809D-03 0.933D-03 0.156D-01 0.389D-01 0.594D-01 0.188D+00
 Coeff-Com:  0.698D+00
 Coeff:     -0.809D-03 0.933D-03 0.156D-01 0.389D-01 0.594D-01 0.188D+00
 Coeff:      0.698D+00
 Gap=     0.226 Goal=   None    Shift=    0.000
 RMSDP=6.26D-06 MaxDP=1.33D-04 DE=-2.52D-05 OVMax= 2.33D-04

 Initial convergence to 1.0D-05 achieved.  Increase integral accuracy.
 Cycle   8  Pass 1  IDiag  1:
 E= -204.076828373498     Delta-E=       -0.000011452008 Rises=F Damp=F
 DIIS: error= 7.55D-06 at cycle   1 NSaved=   1.
 NSaved= 1 IEnMin= 1 EnMin= -204.076828373498     IErMin= 1 ErrMin= 7.55D-06
 ErrMax= 7.55D-06  0.00D+00 EMaxC= 1.00D-01 BMatC= 1.91D-08 BMatP= 1.91D-08
 IDIUse=1 WtCom= 1.00D+00 WtEn= 0.00D+00
 Coeff-Com:  0.100D+01
 Coeff:      0.100D+01
 Gap=     0.226 Goal=   None    Shift=    0.000
 RMSDP=6.26D-06 MaxDP=1.33D-04 DE=-1.15D-05 OVMax= 1.43D-04

 Cycle   9  Pass 1  IDiag  1:
 E= -204.076828359308     Delta-E=        0.000000014191 Rises=F Damp=F
 DIIS: error= 1.38D-05 at cycle   2 NSaved=   2.
 NSaved= 2 IEnMin= 1 EnMin= -204.076828373498     IErMin= 1 ErrMin= 7.55D-06
 ErrMax= 1.38D-05  0.00D+00 EMaxC= 1.00D-01 BMatC= 3.82D-08 BMatP= 1.91D-08
 IDIUse=1 WtCom= 1.00D+00 WtEn= 0.00D+00
 Coeff-Com:  0.607D+00 0.393D+00
 Coeff:      0.607D+00 0.393D+00
 Gap=     0.226 Goal=   None    Shift=    0.000
 RMSDP=1.89D-06 MaxDP=6.99D-05 DE= 1.42D-08 OVMax= 1.12D-04

 Cycle  10  Pass 1  IDiag  1:
 E= -204.076828380348     Delta-E=       -0.000000021041 Rises=F Damp=F
 DIIS: error= 9.71D-06 at cycle   3 NSaved=   3.
 NSaved= 3 IEnMin= 3 EnMin= -204.076828380348     IErMin= 1 ErrMin= 7.55D-06
 ErrMax= 9.71D-06  0.00D+00 EMaxC= 1.00D-01 BMatC= 1.57D-08 BMatP= 1.91D-08
 IDIUse=1 WtCom= 1.00D+00 WtEn= 0.00D+00
 Coeff-Com:  0.245D+00 0.340D+00 0.414D+00
 Coeff:      0.245D+00 0.340D+00 0.414D+00
 Gap=     0.226 Goal=   None    Shift=    0.000
 RMSDP=8.44D-07 MaxDP=2.74D-05 DE=-2.10D-08 OVMax= 4.61D-05

 Cycle  11  Pass 1  IDiag  1:
 E= -204.076828393492     Delta-E=       -0.000000013144 Rises=F Damp=F
 DIIS: error= 1.95D-06 at cycle   4 NSaved=   4.
 NSaved= 4 IEnMin= 4 EnMin= -204.076828393492     IErMin= 4 ErrMin= 1.95D-06
 ErrMax= 1.95D-06  0.00D+00 EMaxC= 1.00D-01 BMatC= 6.05D-10 BMatP= 1.57D-08
 IDIUse=1 WtCom= 1.00D+00 WtEn= 0.00D+00
 Coeff-Com:  0.179D-01 0.105D+00 0.212D+00 0.666D+00
 Coeff:      0.179D-01 0.105D+00 0.212D+00 0.666D+00
 Gap=     0.226 Goal=   None    Shift=    0.000
 RMSDP=2.24D-07 MaxDP=9.56D-06 DE=-1.31D-08 OVMax= 1.30D-05

 Cycle  12  Pass 1  IDiag  1:
 E= -204.076828393910     Delta-E=       -0.000000000418 Rises=F Damp=F
 DIIS: error= 7.48D-07 at cycle   5 NSaved=   5.
 NSaved= 5 IEnMin= 5 EnMin= -204.076828393910     IErMin= 5 ErrMin= 7.48D-07
 ErrMax= 7.48D-07  0.00D+00 EMaxC= 1.00D-01 BMatC= 1.50D-10 BMatP= 6.05D-10
 IDIUse=1 WtCom= 1.00D+00 WtEn= 0.00D+00
 Coeff-Com: -0.110D-01 0.319D-01 0.880D-01 0.422D+00 0.469D+00
 Coeff:     -0.110D-01 0.319D-01 0.880D-01 0.422D+00 0.469D+00
 Gap=     0.226 Goal=   None    Shift=    0.000
 RMSDP=7.51D-08 MaxDP=2.71D-06 DE=-4.18D-10 OVMax= 3.53D-06

 Cycle  13  Pass 1  IDiag  1:
 E= -204.076828394034     Delta-E=       -0.000000000124 Rises=F Damp=F
 DIIS: error= 1.58D-07 at cycle   6 NSaved=   6.
 NSaved= 6 IEnMin= 6 EnMin= -204.076828394034     IErMin= 6 ErrMin= 1.58D-07
 ErrMax= 1.58D-07  0.00D+00 EMaxC= 1.00D-01 BMatC= 4.99D-12 BMatP= 1.50D-10
 IDIUse=1 WtCom= 1.00D+00 WtEn= 0.00D+00
 Coeff-Com: -0.681D-02 0.481D-02 0.213D-01 0.138D+00 0.209D+00 0.634D+00
 Coeff:     -0.681D-02 0.481D-02 0.213D-01 0.138D+00 0.209D+00 0.634D+00
 Gap=     0.226 Goal=   None    Shift=    0.000
 RMSDP=2.00D-08 MaxDP=5.21D-07 DE=-1.24D-10 OVMax= 1.17D-06

 Cycle  14  Pass 1  IDiag  1:
 E= -204.076828394036     Delta-E=       -0.000000000002 Rises=F Damp=F
 DIIS: error= 7.21D-08 at cycle   7 NSaved=   7.
 NSaved= 7 IEnMin= 7 EnMin= -204.076828394036     IErMin= 7 ErrMin= 7.21D-08
 ErrMax= 7.21D-08  0.00D+00 EMaxC= 1.00D-01 BMatC= 7.94D-13 BMatP= 4.99D-12
 IDIUse=1 WtCom= 1.00D+00 WtEn= 0.00D+00
 Coeff-Com: -0.974D-03-0.361D-02-0.679D-02-0.100D-01 0.329D-02 0.280D+00
 Coeff-Com:  0.738D+00
 Coeff:     -0.974D-03-0.361D-02-0.679D-02-0.100D-01 0.329D-02 0.280D+00
 Coeff:      0.738D+00
 Gap=     0.226 Goal=   None    Shift=    0.000
 RMSDP=8.88D-09 MaxDP=2.15D-07 DE=-1.93D-12 OVMax= 5.44D-07

 SCF Done:  E(RB3LYP) =  -204.076828394     A.U. after   14 cycles
            NFock= 14  Conv=0.89D-08     -V/T= 2.0082
 KE= 2.024209189068D+02 PE=-6.904176397968D+02 EE= 1.763049193176D+02
 Leave Link  502 at Tue Aug 30 12:14:07 2022, MaxMem= 24159191040 cpu:        35.5
 (Enter /public/home/users/caep010/software/Gaussian09/g09/l601.exe)
 Copying SCF densities to generalized density rwf, IOpCl= 0 IROHF=0.

 **********************************************************************

            Population analysis using the SCF density.

 **********************************************************************

 Orbital symmetries:
       Occupied  (A) (A) (A) (A) (A) (A) (A) (A) (A) (A) (A) (A)
                 (A) (A) (A)
       Virtual   (A) (A) (A) (A) (A) (A) (A) (A) (A) (A) (A) (A)
                 (A) (A) (A) (A) (A) (A) (A) (A) (A) (A) (A) (A)
                 (A) (A) (A) (A) (A) (A) (A) (A) (A) (A) (A) (A)
                 (A) (A) (A) (A) (A) (A) (A) (A) (A) (A) (A) (A)
                 (A) (A) (A) (A) (A) (A) (A) (A) (A) (A) (A) (A)
                 (A) (A) (A) (A) (A) (A) (A) (A) (A) (A) (A) (A)
                 (A) (A) (A) (A) (A) (A) (A) (A) (A) (A) (A) (A)
                 (A) (A) (A) (A) (A) (A) (A) (A) (A) (A) (A) (A)
                 (A) (A) (A) (A) (A) (A) (A) (A) (A) (A) (A) (A)
                 (A) (A) (A) (A)
 The electronic state is 1-A.
 Alpha  occ. eigenvalues --  -14.50339 -14.39906 -14.38024 -10.24630  -1.13683
 Alpha  occ. eigenvalues --   -0.97724  -0.74692  -0.55786  -0.51540  -0.51026
 Alpha  occ. eigenvalues --   -0.45172  -0.42249  -0.40048  -0.30056  -0.25145
 Alpha virt. eigenvalues --   -0.02547   0.02056   0.07036   0.11938   0.13890
 Alpha virt. eigenvalues --    0.16723   0.27005   0.40045   0.41421   0.45437
 Alpha virt. eigenvalues --    0.49328   0.54242   0.57683   0.60574   0.61419
 Alpha virt. eigenvalues --    0.62290   0.64057   0.65531   0.67503   0.68633
 Alpha virt. eigenvalues --    0.71569   0.74622   0.77244   0.82335   0.84514
 Alpha virt. eigenvalues --    0.87031   0.91634   0.95375   1.02406   1.08447
 Alpha virt. eigenvalues --    1.14063   1.23288   1.24416   1.31671   1.34568
 Alpha virt. eigenvalues --    1.38537   1.41714   1.49831   1.54833   1.57491
 Alpha virt. eigenvalues --    1.70558   1.73083   1.77032   1.77897   1.87121
 Alpha virt. eigenvalues --    1.91003   2.06891   2.11748   2.29623   2.34896
 Alpha virt. eigenvalues --    2.44958   2.54405   2.60918   2.71271   2.74026
 Alpha virt. eigenvalues --    2.85224   3.03683   3.09631   3.16655   3.17726
 Alpha virt. eigenvalues --    3.24339   3.27969   3.32936   3.35330   3.42156
 Alpha virt. eigenvalues --    3.45906   3.47668   3.53100   3.56876   3.59384
 Alpha virt. eigenvalues --    3.63693   3.67906   3.70606   3.76491   3.77017
 Alpha virt. eigenvalues --    3.83841   3.92047   4.03843   4.05613   4.07327
 Alpha virt. eigenvalues --    4.13463   4.15206   4.18074   4.18671   4.27526
 Alpha virt. eigenvalues --    4.29380   4.35502   4.42366   4.45217   4.49328
 Alpha virt. eigenvalues --    4.52286   4.57931   4.63441   4.71229   4.77437
 Alpha virt. eigenvalues --    4.91188   4.96446   5.05698   5.25598   5.27615
 Alpha virt. eigenvalues --    5.31221   5.40248   5.53011   5.54785   5.72423
 Alpha virt. eigenvalues --    6.41833   7.03601  11.01106  11.13255  11.41255
 Alpha virt. eigenvalues --   11.67828  12.34200
          Condensed to atoms (all electrons):
               1          2          3          4          5          6
     1  C    4.919737   0.364269  -0.088344  -0.000864   0.375036   0.371181
     2  N    0.364269   6.489270   0.595947  -0.076961  -0.014302  -0.036928
     3  N   -0.088344   0.595947   5.237252   0.832952  -0.000076   0.002354
     4  N   -0.000864  -0.076961   0.832952   6.513817  -0.000026   0.004706
     5  H    0.375036  -0.014302  -0.000076  -0.000026   0.574489  -0.056872
     6  H    0.371181  -0.036928   0.002354   0.004706  -0.056872   0.584250
     7  H    0.369614  -0.042913  -0.000090   0.000274  -0.036723  -0.010450
               7
     1  C    0.369614
     2  N   -0.042913
     3  N   -0.000090
     4  N    0.000274
     5  H   -0.036723
     6  H   -0.010450
     7  H    0.577616
 Mulliken charges:
               1
     1  C   -0.310630
     2  N   -0.278382
     3  N    0.420005
     4  N   -0.273898
     5  H    0.158474
     6  H    0.141760
     7  H    0.142672
 Sum of Mulliken charges =  -0.00000
 Mulliken charges with hydrogens summed into heavy atoms:
               1
     1  C    0.132276
     2  N   -0.278382
     3  N    0.420005
     4  N   -0.273898
 Electronic spatial extent (au):  <R**2>=            267.2247
 Charge=             -0.0000 electrons
 Dipole moment (field-independent basis, Debye):
    X=              2.1303    Y=              0.9314    Z=             -0.0134  Tot=              2.3251
 Quadrupole moment (field-independent basis, Debye-Ang):
   XX=            -24.2381   YY=            -23.8956   ZZ=            -22.9411
   XY=              2.0578   XZ=              0.0237   YZ=             -1.0272
 Traceless Quadrupole moment (field-independent basis, Debye-Ang):
   XX=             -0.5465   YY=             -0.2040   ZZ=              0.7505
   XY=              2.0578   XZ=              0.0237   YZ=             -1.0272
 Octapole moment (field-independent basis, Debye-Ang**2):
  XXX=             11.1910  YYY=              1.9843  ZZZ=              0.1359  XYY=             -0.8339
  XXY=             -1.6698  XXZ=             -1.0761  XZZ=              0.3497  YZZ=             -0.3016
  YYZ=             -0.4647  XYZ=             -1.5752
 Hexadecapole moment (field-independent basis, Debye-Ang**3):
 XXXX=           -281.7382 YYYY=            -48.0627 ZZZZ=            -27.8432 XXXY=              6.4439
 XXXZ=             -1.8246 YYYX=              2.0521 YYYZ=             -1.2837 ZZZX=              0.3729
 ZZZY=             -1.2473 XXYY=            -52.3984 XXZZ=            -47.8833 YYZZ=            -13.0210
 XXYZ=             -3.0160 YYXZ=             -0.8751 ZZXY=             -0.2853
 N-N= 1.076149731784D+02 E-N=-6.904176449771D+02  KE= 2.024209189068D+02
 No NMR shielding tensors so no spin-rotation constants.
 Leave Link  601 at Tue Aug 30 12:14:07 2022, MaxMem= 24159191040 cpu:        16.7
 (Enter /public/home/users/caep010/software/Gaussian09/g09/l701.exe)
 Compute integral first derivatives.
 ... and contract with generalized density number  0.
 Leave Link  701 at Tue Aug 30 12:14:08 2022, MaxMem= 24159191040 cpu:        13.8
 (Enter /public/home/users/caep010/software/Gaussian09/g09/l702.exe)
 L702 exits ... SP integral derivatives will be done elsewhere.
 Leave Link  702 at Tue Aug 30 12:14:08 2022, MaxMem= 24159191040 cpu:         0.5
 (Enter /public/home/users/caep010/software/Gaussian09/g09/l703.exe)
 Compute integral first derivatives, UseDBF=F ICtDFT=           0.
 Integral derivatives from FoFJK, PRISM(SPDF).
 Calling FoFJK, ICntrl=      2127 FMM=F ISym2X=0 I1Cent= 0 IOpClX= 0 NMat=1 NMatS=1 NMatT=0.
 FoFJK:  IHMeth= 1 ICntrl=    2127 DoSepK=F KAlg= 0 I1Cent=   0 FoldK=F
 IRaf=         0 NMat=   1 IRICut=       1 DoRegI=T DoRafI=F ISym2E= 0.
 FoFCou: FMM=F IPFlag=           0 FMFlag=      100000 FMFlg1=         800
         NFxFlg=           0 DoJE=F BraDBF=F KetDBF=F FulRan=T
         wScrn=  0.000000 ICntrl=    2127 IOpCl=  0 I1Cent=           0 NGrid=           0
         NMat0=    1 NMatS0=      1 NMatT0=    0 NMatD0=    1 NMtDS0=    0 NMtDT0=    0
 Symmetry not used in FoFCou.
 Leave Link  703 at Tue Aug 30 12:14:09 2022, MaxMem= 24159191040 cpu:        20.0
 (Enter /public/home/users/caep010/software/Gaussian09/g09/l716.exe)
 Dipole        = 8.38130678D-01 3.66448587D-01-5.25414707D-03
 ***** Axes restored to original set *****
 -------------------------------------------------------------------
 Center     Atomic                   Forces (Hartrees/Bohr)
 Number     Number              X              Y              Z
 -------------------------------------------------------------------
      1        6           0.003799007   -0.016059726   -0.054491897
      2        7           0.002590727    0.002982292    0.017445414
      3        7          -0.001754216   -0.000464058    0.005854317
      4        7          -0.004990130   -0.002312489   -0.001802869
      5        1          -0.014929578   -0.035392284    0.026754767
      6        1           0.007674359    0.004882651   -0.033967695
      7        1           0.007609832    0.046363613    0.040207963
 -------------------------------------------------------------------
 Cartesian Forces:  Max     0.054491897 RMS     0.022766690
 Leave Link  716 at Tue Aug 30 12:14:09 2022, MaxMem= 24159191040 cpu:         0.7
 (Enter /public/home/users/caep010/software/Gaussian09/g09/l103.exe)

 GradGradGradGradGradGradGradGradGradGradGradGradGradGradGradGradGradGrad
 Berny optimization.
 FormGI is forming the generalized inverse of G from B-inverse, IUseBI=4.
 Internal  Forces:  Max     0.055626946 RMS     0.023401183
 Search for a local minimum.
 Step number   1 out of a maximum of   28
 All quantities printed in internal units (Hartrees-Bohrs-Radians)
 RMS Force = .23401D-01 SwitMx=.10000D-02 MixMth= 1
 Mixed Optimization -- RFO/linear search
 Second derivative matrix not updated -- first step.
 The second derivative matrix:
                          R1        R2        R3        R4        R5
           R1           0.34669
           R2           0.00000   0.38641
           R3           0.00000   0.00000   0.33852
           R4           0.00000   0.00000   0.00000   0.23878
           R5           0.00000   0.00000   0.00000   0.00000   0.90081
           R6           0.00000   0.00000   0.00000   0.00000   0.00000
           A1           0.00000   0.00000   0.00000   0.00000   0.00000
           A2           0.00000   0.00000   0.00000   0.00000   0.00000
           A3           0.00000   0.00000   0.00000   0.00000   0.00000
           A4           0.00000   0.00000   0.00000   0.00000   0.00000
           A5           0.00000   0.00000   0.00000   0.00000   0.00000
           A6           0.00000   0.00000   0.00000   0.00000   0.00000
           A7           0.00000   0.00000   0.00000   0.00000   0.00000
           A8           0.00000   0.00000   0.00000   0.00000   0.00000
           A9           0.00000   0.00000   0.00000   0.00000   0.00000
           D1           0.00000   0.00000   0.00000   0.00000   0.00000
           D2           0.00000   0.00000   0.00000   0.00000   0.00000
           D3           0.00000   0.00000   0.00000   0.00000   0.00000
                          R6        A1        A2        A3        A4
           R6           1.42215
           A1           0.00000   0.16000
           A2           0.00000   0.00000   0.16000
           A3           0.00000   0.00000   0.00000   0.16000
           A4           0.00000   0.00000   0.00000   0.00000   0.16000
           A5           0.00000   0.00000   0.00000   0.00000   0.00000
           A6           0.00000   0.00000   0.00000   0.00000   0.00000
           A7           0.00000   0.00000   0.00000   0.00000   0.00000
           A8           0.00000   0.00000   0.00000   0.00000   0.00000
           A9           0.00000   0.00000   0.00000   0.00000   0.00000
           D1           0.00000   0.00000   0.00000   0.00000   0.00000
           D2           0.00000   0.00000   0.00000   0.00000   0.00000
           D3           0.00000   0.00000   0.00000   0.00000   0.00000
                          A5        A6        A7        A8        A9
           A5           0.16000
           A6           0.00000   0.16000
           A7           0.00000   0.00000   0.25000
           A8           0.00000   0.00000   0.00000   0.04741
           A9           0.00000   0.00000   0.00000   0.00000   0.04741
           D1           0.00000   0.00000   0.00000   0.00000   0.00000
           D2           0.00000   0.00000   0.00000   0.00000   0.00000
           D3           0.00000   0.00000   0.00000   0.00000   0.00000
                          D1        D2        D3
           D1           0.00645
           D2           0.00000   0.00645
           D3           0.00000   0.00000   0.00645
 ITU=  0
     Eigenvalues ---    0.00645   0.04741   0.04741   0.09345   0.10181
     Eigenvalues ---    0.16000   0.16000   0.16000   0.23878   0.25000
     Eigenvalues ---    0.33852   0.34669   0.38641   0.90081   1.42215
 RFO step:  Lambda=-4.32481272D-02 EMin= 6.45014594D-03
 Linear search not attempted -- first point.
 Maximum step size (   0.300) exceeded in Quadratic search.
    -- Step size scaled by   0.688
 Iteration  1 RMS(Cart)=  0.09132200 RMS(Int)=  0.00454031
 Iteration  2 RMS(Cart)=  0.00425028 RMS(Int)=  0.00133750
 Iteration  3 RMS(Cart)=  0.00000284 RMS(Int)=  0.00133750
 Iteration  4 RMS(Cart)=  0.00000000 RMS(Int)=  0.00133750
 ITry= 1 IFail=0 DXMaxC= 2.27D-01 DCOld= 1.00D+10 DXMaxT= 3.00D-01 DXLimC= 3.00D+00 Rises=F
 Variable       Old X    -DE/DX   Delta X   Delta X   Delta X     New X
                                 (Linear)    (Quad)   (Total)
    R1        2.79515  -0.00172   0.00000  -0.00304  -0.00304   2.79211
    R2        2.00143   0.02847   0.00000   0.04556   0.04556   2.04699
    R3        2.07580   0.00159   0.00000   0.00286   0.00286   2.07866
    R4        2.28849  -0.05563   0.00000  -0.13560  -0.13560   2.15289
    R5        2.32896  -0.00765   0.00000  -0.00557  -0.00557   2.32339
    R6        2.15332  -0.00531   0.00000  -0.00249  -0.00249   2.15083
    A1        2.12652  -0.04566   0.00000  -0.14726  -0.14482   1.98170
    A2        1.94209   0.00129   0.00000   0.00844   0.01013   1.95222
    A3        1.71025   0.03357   0.00000   0.10277   0.10455   1.81480
    A4        1.58301   0.03519   0.00000   0.13889   0.14159   1.72460
    A5        1.92902  -0.00549   0.00000  -0.02212  -0.01947   1.90956
    A6        2.21456  -0.03333   0.00000  -0.12796  -0.12730   2.08726
    A7        2.02077  -0.00097   0.00000  -0.00228  -0.00228   2.01848
    A8        3.25758   0.00066   0.00000   0.00502   0.00502   3.26261
    A9        3.10597   0.00399   0.00000   0.03023   0.03023   3.13620
    D1       -2.18790  -0.00758   0.00000  -0.03145  -0.03147  -2.21937
    D2       -0.35697   0.01343   0.00000   0.07273   0.07108  -0.28589
    D3        1.99634  -0.00344   0.00000  -0.00797  -0.00630   1.99004
         Item               Value     Threshold  Converged?
 Maximum Force            0.055627     0.000450     NO 
 RMS     Force            0.023401     0.000300     NO 
 Maximum Displacement     0.226815     0.001800     NO 
 RMS     Displacement     0.091339     0.001200     NO 
 Predicted change in Energy=-2.156314D-02
 Lowest energy point so far.  Saving SCF results.
 GradGradGradGradGradGradGradGradGradGradGradGradGradGradGradGradGradGrad

 Leave Link  103 at Tue Aug 30 12:14:09 2022, MaxMem= 24159191040 cpu:         1.2
 (Enter /public/home/users/caep010/software/Gaussian09/g09/l202.exe)
                          Input orientation:                          
 ---------------------------------------------------------------------
 Center     Atomic      Atomic             Coordinates (Angstroms)
 Number     Number       Type             X           Y           Z
 ---------------------------------------------------------------------
      1          6           0       -0.838755    0.042950   -0.023884
      2          7           0        0.372718   -0.785208    0.148045
      3          7           0        1.443523   -0.196474    0.012407
      4          7           0        2.494679    0.225131   -0.100504
      5          1           0       -1.531523   -0.026243    0.805970
      6          1           0       -0.611860    1.117650    0.035179
      7          1           0       -1.328881   -0.377806   -0.962315
 ---------------------------------------------------------------------
                    Distance matrix (angstroms):
                    1          2          3          4          5
     1  C    0.000000
     2  N    1.477523   0.000000
     3  N    2.295089   1.229483   0.000000
     4  N    3.339288   2.363320   1.138169   0.000000
     5  H    1.083223   2.152911   3.083767   4.134632   0.000000
     6  H    1.099977   2.145461   2.439680   3.235056   1.657827
     7  H    1.139260   2.072273   2.944348   3.965585   1.814248
                    6          7
     6  H    0.000000
     7  H    1.935331   0.000000
 Stoichiometry    CH3N3
 Framework group  C1[X(CH3N3)]
 Deg. of freedom    15
 Full point group                 C1      NOp   1
 RotChk:  IX=0 Diff= 1.59D-01
 Largest Abelian subgroup         C1      NOp   1
 Largest concise Abelian subgroup C1      NOp   1
                         Standard orientation:                         
 ---------------------------------------------------------------------
 Center     Atomic      Atomic             Coordinates (Angstroms)
 Number     Number       Type             X           Y           Z
 ---------------------------------------------------------------------
      1          6           0        1.546664    0.282795    0.029630
      2          7           0        0.389249   -0.632207   -0.049336
      3          7           0       -0.716553   -0.096067   -0.012152
      4          7           0       -1.792607    0.272892    0.025362
      5          1           0        2.262469    0.145180   -0.771655
      6          1           0        1.260064    1.324388   -0.177481
      7          1           0        2.036860    0.021334    1.024245
 ---------------------------------------------------------------------
 Rotational constants (GHZ):     45.2523222      5.3081103      4.9106935
 Leave Link  202 at Tue Aug 30 12:14:09 2022, MaxMem= 24159191040 cpu:         0.2
 (Enter /public/home/users/caep010/software/Gaussian09/g09/l301.exe)
 Standard basis: GTBas3 (6D, 7F)
 Ernie: Thresh=  0.10000D-02 Tol=  0.10000D-05 Strict=F.
 There are   139 symmetry adapted cartesian basis functions of A   symmetry.
 There are   127 symmetry adapted basis functions of A   symmetry.
   127 basis functions,   197 primitive gaussians,   139 cartesian basis functions
    15 alpha electrons       15 beta electrons
       nuclear repulsion energy       107.9017437475 Hartrees.
 IExCor=  402 DFT=T Ex+Corr=B3LYP ExCW=0 ScaHFX=  0.200000
 ScaDFX=  0.800000  0.720000  1.000000  0.810000 ScalE2=  1.000000  1.000000
 IRadAn=      0 IRanWt=     -1 IRanGd=            0 ICorTp=0 IEmpDi=  4
 NAtoms=    7 NActive=    7 NUniq=    7 SFac= 1.00D+00 NAtFMM=   60 NAOKFM=F Big=F
 Integral buffers will be    131072 words long.
 Raffenetti 2 integral format.
 Two-electron integral symmetry is turned on.
 Leave Link  301 at Tue Aug 30 12:14:09 2022, MaxMem= 24159191040 cpu:         1.6
 (Enter /public/home/users/caep010/software/Gaussian09/g09/l302.exe)
 NPDir=0 NMtPBC=     1 NCelOv=     1 NCel=       1 NClECP=     1 NCelD=      1
         NCelK=      1 NCelE2=     1 NClLst=     1 CellRange=     0.0.
 One-electron integrals computed using PRISM.
 NBasis=   127 RedAO= T EigKep=  2.97D-04  NBF=   127
 NBsUse=   127 1.00D-06 EigRej= -1.00D+00 NBFU=   127
 Precomputing XC quadrature grid using
 IXCGrd= 4 IRadAn=           0 IRanWt=          -1 IRanGd=           0 AccXCQ= 0.00D+00.
 Generated NRdTot=       0 NPtTot=           0 NUsed=           0 NTot=          32
 NSgBfM=   139   139   139   139   139 MxSgAt=     7 MxSgA2=     7.
 Leave Link  302 at Tue Aug 30 12:14:09 2022, MaxMem= 24159191040 cpu:        13.2
 (Enter /public/home/users/caep010/software/Gaussian09/g09/l303.exe)
 DipDrv:  MaxL=1.
 Leave Link  303 at Tue Aug 30 12:14:10 2022, MaxMem= 24159191040 cpu:         0.7
 (Enter /public/home/users/caep010/software/Gaussian09/g09/l401.exe)
 Initial guess from the checkpoint file:  "G4.Frag_531.chk"
 B after Tr=    -0.000000    0.000000    0.000000
         Rot=    0.998811    0.048722   -0.001515   -0.000494 Ang=   5.59 deg.
 Guess basis will be translated and rotated to current coordinates.
 JPrj=2 DoOrth=T DoCkMO=T.
 Generating alternative initial guess.
 ExpMin= 1.61D-01 ExpMax= 4.17D+03 ExpMxC= 6.27D+02 IAcc=1 IRadAn=         1 AccDes= 0.00D+00
 Harris functional with IExCor=  402 and IRadAn=       1 diagonalized for initial guess.
 HarFok:  IExCor=  402 AccDes= 0.00D+00 IRadAn=         1 IDoV= 1 UseB2=F ITyADJ=14
 ICtDFT=  3500011 ScaDFX=  1.000000  1.000000  1.000000  1.000000
 FoFCou: FMM=F IPFlag=           0 FMFlag=      100000 FMFlg1=           0
         NFxFlg=           0 DoJE=T BraDBF=F KetDBF=T FulRan=T
         wScrn=  0.000000 ICntrl=     500 IOpCl=  0 I1Cent=   200000004 NGrid=           0
         NMat0=    1 NMatS0=      1 NMatT0=    0 NMatD0=    1 NMtDS0=    0 NMtDT0=    0
 Petite list used in FoFCou.
 Harris En= -204.081362315654    
 Leave Link  401 at Tue Aug 30 12:14:10 2022, MaxMem= 24159191040 cpu:        13.6
 (Enter /public/home/users/caep010/software/Gaussian09/g09/l502.exe)
 Closed shell SCF:
 Using DIIS extrapolation, IDIIS=  1040.
 Integral symmetry usage will be decided dynamically.
 Keep R1 ints in memory in canonical form, NReq=35099445.
 IVT=       81969 IEndB=       81969 NGot= 24159191040 MDV= 24126072816
 LenX= 24126072816 LenY= 24126053054
 Requested convergence on RMS density matrix=1.00D-08 within 128 cycles.
 Requested convergence on MAX density matrix=1.00D-06.
 Requested convergence on             energy=1.00D-06.
 No special actions if energy rises.
 FoFCou: FMM=F IPFlag=           0 FMFlag=           0 FMFlg1=           0
         NFxFlg=           0 DoJE=F BraDBF=F KetDBF=F FulRan=T
         wScrn=  0.000000 ICntrl=     600 IOpCl=  0 I1Cent=           0 NGrid=           0
         NMat0=    1 NMatS0=   8128 NMatT0=    0 NMatD0=    1 NMtDS0=    0 NMtDT0=    0
 Symmetry not used in FoFCou.
 Integral accuracy reduced to 1.0D-05 until final iterations.

 Cycle   1  Pass 0  IDiag  1:
 E= -204.096412680320    
 DIIS: error= 2.98D-03 at cycle   1 NSaved=   1.
 NSaved= 1 IEnMin= 1 EnMin= -204.096412680320     IErMin= 1 ErrMin= 2.98D-03
 ErrMax= 2.98D-03  0.00D+00 EMaxC= 1.00D-01 BMatC= 1.86D-03 BMatP= 1.86D-03
 IDIUse=3 WtCom= 9.70D-01 WtEn= 2.98D-02
 Coeff-Com:  0.100D+01
 Coeff-En:   0.100D+01
 Coeff:      0.100D+01
 Gap=     1.137 Goal=   None    Shift=    0.000
 GapD=    1.137 DampG=2.000 DampE=1.000 DampFc=2.0000 IDamp=-1.
 RMSDP=5.12D-04 MaxDP=1.05D-02              OVMax= 1.91D-02

 Cycle   2  Pass 0  IDiag  1:
 E= -204.098835254030     Delta-E=       -0.002422573711 Rises=F Damp=F
 DIIS: error= 1.03D-03 at cycle   2 NSaved=   2.
 NSaved= 2 IEnMin= 2 EnMin= -204.098835254030     IErMin= 2 ErrMin= 1.03D-03
 ErrMax= 1.03D-03  0.00D+00 EMaxC= 1.00D-01 BMatC= 1.50D-04 BMatP= 1.86D-03
 IDIUse=3 WtCom= 9.90D-01 WtEn= 1.03D-02
 Coeff-Com:  0.931D-01 0.907D+00
 Coeff-En:   0.000D+00 0.100D+01
 Coeff:      0.922D-01 0.908D+00
 Gap=     0.228 Goal=   None    Shift=    0.000
 RMSDP=1.93D-04 MaxDP=5.14D-03 DE=-2.42D-03 OVMax= 8.84D-03

 Cycle   3  Pass 0  IDiag  1:
 E= -204.098664480529     Delta-E=        0.000170773502 Rises=F Damp=F
 DIIS: error= 1.70D-03 at cycle   3 NSaved=   3.
 NSaved= 3 IEnMin= 2 EnMin= -204.098835254030     IErMin= 2 ErrMin= 1.03D-03
 ErrMax= 1.70D-03  0.00D+00 EMaxC= 1.00D-01 BMatC= 3.42D-04 BMatP= 1.50D-04
 IDIUse=3 WtCom= 1.95D-01 WtEn= 8.05D-01
 Coeff-Com:  0.219D-02 0.612D+00 0.386D+00
 Coeff-En:   0.000D+00 0.657D+00 0.343D+00
 Coeff:      0.427D-03 0.648D+00 0.351D+00
 Gap=     0.230 Goal=   None    Shift=    0.000
 RMSDP=1.48D-04 MaxDP=4.36D-03 DE= 1.71D-04 OVMax= 8.99D-03

 Cycle   4  Pass 0  IDiag  1:
 E= -204.098945189588     Delta-E=       -0.000280709059 Rises=F Damp=F
 DIIS: error= 6.16D-04 at cycle   4 NSaved=   4.
 NSaved= 4 IEnMin= 4 EnMin= -204.098945189588     IErMin= 4 ErrMin= 6.16D-04
 ErrMax= 6.16D-04  0.00D+00 EMaxC= 1.00D-01 BMatC= 6.36D-05 BMatP= 1.50D-04
 IDIUse=3 WtCom= 9.94D-01 WtEn= 6.16D-03
 Coeff-Com: -0.138D-01 0.350D+00 0.278D+00 0.386D+00
 Coeff-En:   0.000D+00 0.000D+00 0.137D+00 0.863D+00
 Coeff:     -0.137D-01 0.348D+00 0.277D+00 0.389D+00
 Gap=     0.229 Goal=   None    Shift=    0.000
 RMSDP=5.24D-05 MaxDP=1.61D-03 DE=-2.81D-04 OVMax= 2.79D-03

 Cycle   5  Pass 0  IDiag  1:
 E= -204.098999081838     Delta-E=       -0.000053892250 Rises=F Damp=F
 DIIS: error= 8.14D-05 at cycle   5 NSaved=   5.
 NSaved= 5 IEnMin= 5 EnMin= -204.098999081838     IErMin= 5 ErrMin= 8.14D-05
 ErrMax= 8.14D-05  0.00D+00 EMaxC= 1.00D-01 BMatC= 1.56D-06 BMatP= 6.36D-05
 IDIUse=1 WtCom= 1.00D+00 WtEn= 0.00D+00
 Coeff-Com: -0.631D-02 0.702D-01 0.737D-01 0.168D+00 0.694D+00
 Coeff:     -0.631D-02 0.702D-01 0.737D-01 0.168D+00 0.694D+00
 Gap=     0.229 Goal=   None    Shift=    0.000
 RMSDP=9.20D-06 MaxDP=2.95D-04 DE=-5.39D-05 OVMax= 3.60D-04

 Initial convergence to 1.0D-05 achieved.  Increase integral accuracy.
 Cycle   6  Pass 1  IDiag  1:
 E= -204.099003616590     Delta-E=       -0.000004534751 Rises=F Damp=F
 DIIS: error= 3.18D-05 at cycle   1 NSaved=   1.
 NSaved= 1 IEnMin= 1 EnMin= -204.099003616590     IErMin= 1 ErrMin= 3.18D-05
 ErrMax= 3.18D-05  0.00D+00 EMaxC= 1.00D-01 BMatC= 3.26D-07 BMatP= 3.26D-07
 IDIUse=1 WtCom= 1.00D+00 WtEn= 0.00D+00
 Coeff-Com:  0.100D+01
 Coeff:      0.100D+01
 Gap=     0.229 Goal=   None    Shift=    0.000
 RMSDP=9.20D-06 MaxDP=2.95D-04 DE=-4.53D-06 OVMax= 3.88D-04

 Cycle   7  Pass 1  IDiag  1:
 E= -204.099003088829     Delta-E=        0.000000527761 Rises=F Damp=F
 DIIS: error= 5.95D-05 at cycle   2 NSaved=   2.
 NSaved= 2 IEnMin= 1 EnMin= -204.099003616590     IErMin= 1 ErrMin= 3.18D-05
 ErrMax= 5.95D-05  0.00D+00 EMaxC= 1.00D-01 BMatC= 1.06D-06 BMatP= 3.26D-07
 IDIUse=1 WtCom= 1.00D+00 WtEn= 0.00D+00
 Coeff-Com:  0.646D+00 0.354D+00
 Coeff:      0.646D+00 0.354D+00
 Gap=     0.229 Goal=   None    Shift=    0.000
 RMSDP=4.97D-06 MaxDP=2.17D-04 DE= 5.28D-07 OVMax= 2.59D-04

 Cycle   8  Pass 1  IDiag  1:
 E= -204.099003888257     Delta-E=       -0.000000799429 Rises=F Damp=F
 DIIS: error= 5.90D-06 at cycle   3 NSaved=   3.
 NSaved= 3 IEnMin= 3 EnMin= -204.099003888257     IErMin= 3 ErrMin= 5.90D-06
 ErrMax= 5.90D-06  0.00D+00 EMaxC= 1.00D-01 BMatC= 5.02D-09 BMatP= 3.26D-07
 IDIUse=1 WtCom= 1.00D+00 WtEn= 0.00D+00
 Coeff-Com:  0.223D+00 0.138D+00 0.639D+00
 Coeff:      0.223D+00 0.138D+00 0.639D+00
 Gap=     0.229 Goal=   None    Shift=    0.000
 RMSDP=8.10D-07 MaxDP=2.29D-05 DE=-7.99D-07 OVMax= 3.39D-05

 Cycle   9  Pass 1  IDiag  1:
 E= -204.099003891971     Delta-E=       -0.000000003714 Rises=F Damp=F
 DIIS: error= 3.36D-06 at cycle   4 NSaved=   4.
 NSaved= 4 IEnMin= 4 EnMin= -204.099003891971     IErMin= 4 ErrMin= 3.36D-06
 ErrMax= 3.36D-06  0.00D+00 EMaxC= 1.00D-01 BMatC= 1.43D-09 BMatP= 5.02D-09
 IDIUse=1 WtCom= 1.00D+00 WtEn= 0.00D+00
 Coeff-Com:  0.578D-01 0.400D-01 0.354D+00 0.548D+00
 Coeff:      0.578D-01 0.400D-01 0.354D+00 0.548D+00
 Gap=     0.229 Goal=   None    Shift=    0.000
 RMSDP=5.01D-07 MaxDP=1.63D-05 DE=-3.71D-09 OVMax= 3.29D-05

 Cycle  10  Pass 1  IDiag  1:
 E= -204.099003891758     Delta-E=        0.000000000213 Rises=F Damp=F
 DIIS: error= 4.17D-06 at cycle   5 NSaved=   5.
 NSaved= 5 IEnMin= 4 EnMin= -204.099003891971     IErMin= 4 ErrMin= 3.36D-06
 ErrMax= 4.17D-06  0.00D+00 EMaxC= 1.00D-01 BMatC= 1.89D-09 BMatP= 1.43D-09
 IDIUse=1 WtCom= 1.00D+00 WtEn= 0.00D+00
 Coeff-Com: -0.341D-01-0.165D-01 0.886D-01 0.552D+00 0.410D+00
 Coeff:     -0.341D-01-0.165D-01 0.886D-01 0.552D+00 0.410D+00
 Gap=     0.229 Goal=   None    Shift=    0.000
 RMSDP=2.80D-07 MaxDP=8.84D-06 DE= 2.13D-10 OVMax= 1.84D-05

 Cycle  11  Pass 1  IDiag  1:
 E= -204.099003893497     Delta-E=       -0.000000001739 Rises=F Damp=F
 DIIS: error= 1.45D-07 at cycle   6 NSaved=   6.
 NSaved= 6 IEnMin= 6 EnMin= -204.099003893497     IErMin= 6 ErrMin= 1.45D-07
 ErrMax= 1.45D-07  0.00D+00 EMaxC= 1.00D-01 BMatC= 3.57D-12 BMatP= 1.43D-09
 IDIUse=1 WtCom= 1.00D+00 WtEn= 0.00D+00
 Coeff-Com: -0.855D-02-0.498D-02-0.807D-02 0.520D-01 0.465D-01 0.923D+00
 Coeff:     -0.855D-02-0.498D-02-0.807D-02 0.520D-01 0.465D-01 0.923D+00
 Gap=     0.229 Goal=   None    Shift=    0.000
 RMSDP=4.16D-08 MaxDP=9.62D-07 DE=-1.74D-09 OVMax= 3.38D-06

 Cycle  12  Pass 1  IDiag  1:
 E= -204.099003893507     Delta-E=       -0.000000000010 Rises=F Damp=F
 DIIS: error= 5.83D-08 at cycle   7 NSaved=   7.
 NSaved= 7 IEnMin= 7 EnMin= -204.099003893507     IErMin= 7 ErrMin= 5.83D-08
 ErrMax= 5.83D-08  0.00D+00 EMaxC= 1.00D-01 BMatC= 4.65D-13 BMatP= 3.57D-12
 IDIUse=1 WtCom= 1.00D+00 WtEn= 0.00D+00
 Coeff-Com:  0.110D-02 0.364D-03-0.114D-01-0.436D-01-0.274D-01 0.234D+00
 Coeff-Com:  0.846D+00
 Coeff:      0.110D-02 0.364D-03-0.114D-01-0.436D-01-0.274D-01 0.234D+00
 Coeff:      0.846D+00
 Gap=     0.229 Goal=   None    Shift=    0.000
 RMSDP=1.22D-08 MaxDP=2.80D-07 DE=-9.83D-12 OVMax= 9.57D-07

 Cycle  13  Pass 1  IDiag  1:
 E= -204.099003893504     Delta-E=        0.000000000003 Rises=F Damp=F
 DIIS: error= 7.45D-09 at cycle   8 NSaved=   8.
 NSaved= 8 IEnMin= 7 EnMin= -204.099003893507     IErMin= 8 ErrMin= 7.45D-09
 ErrMax= 7.45D-09  0.00D+00 EMaxC= 1.00D-01 BMatC= 1.36D-14 BMatP= 4.65D-13
 IDIUse=1 WtCom= 1.00D+00 WtEn= 0.00D+00
 Coeff-Com:  0.519D-03 0.222D-03-0.289D-02-0.130D-01-0.815D-02 0.511D-01
 Coeff-Com:  0.245D+00 0.727D+00
 Coeff:      0.519D-03 0.222D-03-0.289D-02-0.130D-01-0.815D-02 0.511D-01
 Coeff:      0.245D+00 0.727D+00
 Gap=     0.229 Goal=   None    Shift=    0.000
 RMSDP=8.25D-10 MaxDP=1.09D-08 DE= 2.61D-12 OVMax= 3.91D-08

 SCF Done:  E(RB3LYP) =  -204.099003894     A.U. after   13 cycles
            NFock= 13  Conv=0.83D-09     -V/T= 2.0080
 KE= 2.024796442833D+02 PE=-6.910689598738D+02 EE= 1.765885679495D+02
 Leave Link  502 at Tue Aug 30 12:14:12 2022, MaxMem= 24159191040 cpu:        36.5
 (Enter /public/home/users/caep010/software/Gaussian09/g09/l701.exe)
 Compute integral first derivatives.
 ... and contract with generalized density number  0.
 Leave Link  701 at Tue Aug 30 12:14:12 2022, MaxMem= 24159191040 cpu:        14.7
 (Enter /public/home/users/caep010/software/Gaussian09/g09/l702.exe)
 L702 exits ... SP integral derivatives will be done elsewhere.
 Leave Link  702 at Tue Aug 30 12:14:12 2022, MaxMem= 24159191040 cpu:         0.5
 (Enter /public/home/users/caep010/software/Gaussian09/g09/l703.exe)
 Compute integral first derivatives, UseDBF=F ICtDFT=           0.
 Integral derivatives from FoFJK, PRISM(SPDF).
 Calling FoFJK, ICntrl=      2127 FMM=F ISym2X=0 I1Cent= 0 IOpClX= 0 NMat=1 NMatS=1 NMatT=0.
 FoFJK:  IHMeth= 1 ICntrl=    2127 DoSepK=F KAlg= 0 I1Cent=   0 FoldK=F
 IRaf=         0 NMat=   1 IRICut=       1 DoRegI=T DoRafI=F ISym2E= 0.
 FoFCou: FMM=F IPFlag=           0 FMFlag=      100000 FMFlg1=         800
         NFxFlg=           0 DoJE=F BraDBF=F KetDBF=F FulRan=T
         wScrn=  0.000000 ICntrl=    2127 IOpCl=  0 I1Cent=           0 NGrid=           0
         NMat0=    1 NMatS0=      1 NMatT0=    0 NMatD0=    1 NMtDS0=    0 NMtDT0=    0
 Symmetry not used in FoFCou.
 Leave Link  703 at Tue Aug 30 12:14:13 2022, MaxMem= 24159191040 cpu:        22.9
 (Enter /public/home/users/caep010/software/Gaussian09/g09/l716.exe)
 Dipole        = 8.39954947D-01 3.61837474D-01-6.83636914D-03
 ***** Axes restored to original set *****
 -------------------------------------------------------------------
 Center     Atomic                   Forces (Hartrees/Bohr)
 Number     Number              X              Y              Z
 -------------------------------------------------------------------
      1        6          -0.003297689   -0.005598624   -0.016137834
      2        7           0.000414960    0.003339963    0.008301863
      3        7           0.000919984   -0.001497599   -0.000103025
      4        7          -0.002436900   -0.000560714    0.000573026
      5        1          -0.003045764   -0.017537428    0.007504544
      6        1           0.001744960   -0.002099547   -0.019648980
      7        1           0.005700449    0.023953949    0.019510405
 -------------------------------------------------------------------
 Cartesian Forces:  Max     0.023953949 RMS     0.010109432
 Leave Link  716 at Tue Aug 30 12:14:13 2022, MaxMem= 24159191040 cpu:         0.5
 (Enter /public/home/users/caep010/software/Gaussian09/g09/l103.exe)

 GradGradGradGradGradGradGradGradGradGradGradGradGradGradGradGradGradGrad
 Berny optimization.
 Using GEDIIS/GDIIS optimizer.
 FormGI is forming the generalized inverse of G from B-inverse, IUseBI=4.
 Internal  Forces:  Max     0.027370331 RMS     0.011232610
 Search for a local minimum.
 Step number   2 out of a maximum of   28
 All quantities printed in internal units (Hartrees-Bohrs-Radians)
 RMS Force = .11233D-01 SwitMx=.10000D-02 MixMth= 1
 Mixed Optimization -- RFO/linear search
 Update second derivatives using D2CorX and points    1    2
 DE= -2.22D-02 DEPred=-2.16D-02 R= 1.03D+00
 TightC=F SS=  1.41D+00  RLast= 3.10D-01 DXNew= 5.0454D-01 9.3040D-01
 Trust test= 1.03D+00 RLast= 3.10D-01 DXMaxT set to 5.05D-01
 The second derivative matrix:
                          R1        R2        R3        R4        R5
           R1           0.34671
           R2          -0.00030   0.39252
           R3          -0.00026   0.00450   0.33969
           R4          -0.00002  -0.00115  -0.00605   0.22639
           R5           0.00006  -0.00134  -0.00119  -0.00025   0.90108
           R6          -0.00002   0.00025  -0.00058  -0.00190  -0.00013
           A1           0.00050  -0.00989  -0.00633   0.00417   0.00226
           A2           0.00008  -0.00124   0.00002   0.00249   0.00036
           A3          -0.00015   0.00335   0.00373   0.00244  -0.00061
           A4           0.00025  -0.00322   0.00334   0.01446   0.00126
           A5           0.00002  -0.00057  -0.00068  -0.00054   0.00010
           A6          -0.00025   0.00346  -0.00288  -0.01381  -0.00128
           A7           0.00017  -0.00302  -0.00077   0.00409   0.00080
           A8          -0.00009   0.00159   0.00039  -0.00219  -0.00042
           A9          -0.00024   0.00433   0.00121  -0.00560  -0.00114
           D1           0.00021  -0.00360  -0.00083   0.00509   0.00097
           D2          -0.00036   0.00629   0.00147  -0.00885  -0.00169
           D3           0.00005  -0.00085  -0.00020   0.00121   0.00023
                          R6        A1        A2        A3        A4
           R6           1.42189
           A1          -0.00007   0.17558
           A2           0.00028   0.00159   0.15985
           A3           0.00059  -0.00598  -0.00123   0.16108
           A4           0.00190   0.00268  -0.00182  -0.00514   0.14648
           A5          -0.00012   0.00103   0.00023  -0.00015   0.00101
           A6          -0.00179  -0.00319   0.00165   0.00510   0.01263
           A7           0.00039   0.00424  -0.00002  -0.00251  -0.00228
           A8          -0.00021  -0.00223   0.00001   0.00133   0.00123
           A9          -0.00052  -0.00613  -0.00002   0.00354   0.00297
           D1           0.00050   0.00502  -0.00006  -0.00305  -0.00295
           D2          -0.00087  -0.00878   0.00009   0.00531   0.00510
           D3           0.00012   0.00119  -0.00001  -0.00072  -0.00070
                          A5        A6        A7        A8        A9
           A5           0.16002
           A6          -0.00099   0.14823
           A7           0.00046   0.00197   0.25051
           A8          -0.00024  -0.00107  -0.00026   0.04754
           A9          -0.00064  -0.00254  -0.00080   0.00041   0.04866
           D1           0.00056   0.00256   0.00055  -0.00028  -0.00087
           D2          -0.00097  -0.00443  -0.00097   0.00049   0.00155
           D3           0.00013   0.00061   0.00013  -0.00007  -0.00021
                          D1        D2        D3
           D1           0.00703
           D2          -0.00103   0.00827
           D3           0.00014  -0.00024   0.00648
 ITU=  1  0
 Use linear search instead of GDIIS.
     Eigenvalues ---    0.00646   0.04740   0.04773   0.09323   0.10182
     Eigenvalues ---    0.15369   0.16000   0.16678   0.22734   0.25132
     Eigenvalues ---    0.33995   0.34671   0.39338   0.90109   1.42189
 RFO step:  Lambda=-1.72789073D-03 EMin= 6.46152302D-03
 Quartic linear search produced a step of  0.83943.
 Iteration  1 RMS(Cart)=  0.08340130 RMS(Int)=  0.00435724
 Iteration  2 RMS(Cart)=  0.00362886 RMS(Int)=  0.00188590
 Iteration  3 RMS(Cart)=  0.00000608 RMS(Int)=  0.00188590
 Iteration  4 RMS(Cart)=  0.00000001 RMS(Int)=  0.00188590
 ITry= 1 IFail=0 DXMaxC= 2.16D-01 DCOld= 1.00D+10 DXMaxT= 5.05D-01 DXLimC= 3.00D+00 Rises=F
 Variable       Old X    -DE/DX   Delta X   Delta X   Delta X     New X
                                 (Linear)    (Quad)   (Total)
    R1        2.79211  -0.00060  -0.00255   0.00095  -0.00160   2.79051
    R2        2.04699   0.00882   0.03825  -0.01877   0.01948   2.06647
    R3        2.07866  -0.00275   0.00240  -0.01872  -0.01632   2.06233
    R4        2.15289  -0.02737  -0.11383  -0.01501  -0.12884   2.02405
    R5        2.32339  -0.00236  -0.00468   0.00206  -0.00262   2.32077
    R6        2.15083  -0.00252  -0.00209  -0.00024  -0.00234   2.14849
    A1        1.98170  -0.01834  -0.12156   0.03311  -0.08479   1.89691
    A2        1.95222   0.00089   0.00850  -0.00320   0.00766   1.95988
    A3        1.81480   0.01682   0.08776   0.00194   0.09248   1.90728
    A4        1.72460   0.01857   0.11885   0.02859   0.15064   1.87524
    A5        1.90956  -0.00241  -0.01634  -0.00281  -0.01503   1.89453
    A6        2.08726  -0.01883  -0.10686  -0.05339  -0.15879   1.92847
    A7        2.01848   0.00187  -0.00192   0.01691   0.01499   2.03347
    A8        3.26261  -0.00078   0.00421  -0.04189  -0.03768   3.22493
    A9        3.13620  -0.00061   0.02537  -0.09824  -0.07286   3.06333
    D1       -2.21937  -0.00460  -0.02642  -0.05564  -0.08291  -2.30228
    D2       -0.28589   0.00812   0.05967  -0.00243   0.05580  -0.23009
    D3        1.99004  -0.00274  -0.00529  -0.07082  -0.07382   1.91622
         Item               Value     Threshold  Converged?
 Maximum Force            0.027370     0.000450     NO 
 RMS     Force            0.011233     0.000300     NO 
 Maximum Displacement     0.215591     0.001800     NO 
 RMS     Displacement     0.083222     0.001200     NO 
 Predicted change in Energy=-7.593562D-03
 Lowest energy point so far.  Saving SCF results.
 GradGradGradGradGradGradGradGradGradGradGradGradGradGradGradGradGradGrad

 Leave Link  103 at Tue Aug 30 12:14:13 2022, MaxMem= 24159191040 cpu:         0.9
 (Enter /public/home/users/caep010/software/Gaussian09/g09/l202.exe)
                          Input orientation:                          
 ---------------------------------------------------------------------
 Center     Atomic      Atomic             Coordinates (Angstroms)
 Number     Number       Type             X           Y           Z
 ---------------------------------------------------------------------
      1          6           0       -0.841076    0.041618   -0.024274
      2          7           0        0.370961   -0.778033    0.174985
      3          7           0        1.448330   -0.214523    0.001911
      4          7           0        2.490803    0.232862   -0.073683
      5          1           0       -1.509635   -0.108679    0.827927
      6          1           0       -0.615354    1.107960   -0.078907
      7          1           0       -1.344128   -0.281204   -0.913060
 ---------------------------------------------------------------------
                    Distance matrix (angstroms):
                    1          2          3          4          5
     1  C    0.000000
     2  N    1.476675   0.000000
     3  N    2.303840   1.228097   0.000000
     4  N    3.337729   2.361667   1.136933   0.000000
     5  H    1.093529   2.100240   3.072957   4.114979   0.000000
     6  H    1.091339   2.143421   2.452405   3.227078   1.761334
     7  H    1.071081   2.090984   2.939293   3.959231   1.757326
                    6          7
     6  H    0.000000
     7  H    1.776710   0.000000
 Stoichiometry    CH3N3
 Framework group  C1[X(CH3N3)]
 Deg. of freedom    15
 Full point group                 C1      NOp   1
 RotChk:  IX=0 Diff= 1.24D-01
 Largest Abelian subgroup         C1      NOp   1
 Largest concise Abelian subgroup C1      NOp   1
                         Standard orientation:                         
 ---------------------------------------------------------------------
 Center     Atomic      Atomic             Coordinates (Angstroms)
 Number     Number       Type             X           Y           Z
 ---------------------------------------------------------------------
      1          6           0        1.548611    0.284127    0.006723
      2          7           0        0.389651   -0.630698   -0.015055
      3          7           0       -0.721423   -0.108803    0.021871
      4          7           0       -1.789072    0.280684   -0.010395
      5          1           0        2.241606   -0.009435   -0.786616
      6          1           0        1.261246    1.320803   -0.176977
      7          1           0        2.051390    0.195594    0.948312
 ---------------------------------------------------------------------
 Rotational constants (GHZ):     45.6022343      5.3188022      4.9088131
 Leave Link  202 at Tue Aug 30 12:14:14 2022, MaxMem= 24159191040 cpu:         0.2
 (Enter /public/home/users/caep010/software/Gaussian09/g09/l301.exe)
 Standard basis: GTBas3 (6D, 7F)
 Ernie: Thresh=  0.10000D-02 Tol=  0.10000D-05 Strict=F.
 There are   139 symmetry adapted cartesian basis functions of A   symmetry.
 There are   127 symmetry adapted basis functions of A   symmetry.
   127 basis functions,   197 primitive gaussians,   139 cartesian basis functions
    15 alpha electrons       15 beta electrons
       nuclear repulsion energy       108.1566057500 Hartrees.
 IExCor=  402 DFT=T Ex+Corr=B3LYP ExCW=0 ScaHFX=  0.200000
 ScaDFX=  0.800000  0.720000  1.000000  0.810000 ScalE2=  1.000000  1.000000
 IRadAn=      0 IRanWt=     -1 IRanGd=            0 ICorTp=0 IEmpDi=  4
 NAtoms=    7 NActive=    7 NUniq=    7 SFac= 1.00D+00 NAtFMM=   60 NAOKFM=F Big=F
 Integral buffers will be    131072 words long.
 Raffenetti 2 integral format.
 Two-electron integral symmetry is turned on.
 Leave Link  301 at Tue Aug 30 12:14:14 2022, MaxMem= 24159191040 cpu:         1.6
 (Enter /public/home/users/caep010/software/Gaussian09/g09/l302.exe)
 NPDir=0 NMtPBC=     1 NCelOv=     1 NCel=       1 NClECP=     1 NCelD=      1
         NCelK=      1 NCelE2=     1 NClLst=     1 CellRange=     0.0.
 One-electron integrals computed using PRISM.
 NBasis=   127 RedAO= T EigKep=  2.95D-04  NBF=   127
 NBsUse=   127 1.00D-06 EigRej= -1.00D+00 NBFU=   127
 Precomputing XC quadrature grid using
 IXCGrd= 4 IRadAn=           0 IRanWt=          -1 IRanGd=           0 AccXCQ= 0.00D+00.
 Generated NRdTot=       0 NPtTot=           0 NUsed=           0 NTot=          32
 NSgBfM=   139   139   139   139   139 MxSgAt=     7 MxSgA2=     7.
 Leave Link  302 at Tue Aug 30 12:14:14 2022, MaxMem= 24159191040 cpu:        13.8
 (Enter /public/home/users/caep010/software/Gaussian09/g09/l303.exe)
 DipDrv:  MaxL=1.
 Leave Link  303 at Tue Aug 30 12:14:14 2022, MaxMem= 24159191040 cpu:         0.7
 (Enter /public/home/users/caep010/software/Gaussian09/g09/l401.exe)
 Initial guess from the checkpoint file:  "G4.Frag_531.chk"
 B after Tr=    -0.000000   -0.000000    0.000000
         Rot=    0.999188    0.040297   -0.000567    0.000235 Ang=   4.62 deg.
 Guess basis will be translated and rotated to current coordinates.
 JPrj=2 DoOrth=T DoCkMO=T.
 Generating alternative initial guess.
 ExpMin= 1.61D-01 ExpMax= 4.17D+03 ExpMxC= 6.27D+02 IAcc=1 IRadAn=         1 AccDes= 0.00D+00
 Harris functional with IExCor=  402 and IRadAn=       1 diagonalized for initial guess.
 HarFok:  IExCor=  402 AccDes= 0.00D+00 IRadAn=         1 IDoV= 1 UseB2=F ITyADJ=14
 ICtDFT=  3500011 ScaDFX=  1.000000  1.000000  1.000000  1.000000
 FoFCou: FMM=F IPFlag=           0 FMFlag=      100000 FMFlg1=           0
         NFxFlg=           0 DoJE=T BraDBF=F KetDBF=T FulRan=T
         wScrn=  0.000000 ICntrl=     500 IOpCl=  0 I1Cent=   200000004 NGrid=           0
         NMat0=    1 NMatS0=      1 NMatT0=    0 NMatD0=    1 NMtDS0=    0 NMtDT0=    0
 Petite list used in FoFCou.
 Harris En= -204.091999137078    
 Leave Link  401 at Tue Aug 30 12:14:15 2022, MaxMem= 24159191040 cpu:        13.3
 (Enter /public/home/users/caep010/software/Gaussian09/g09/l502.exe)
 Closed shell SCF:
 Using DIIS extrapolation, IDIIS=  1040.
 Integral symmetry usage will be decided dynamically.
 Keep R1 ints in memory in canonical form, NReq=35099487.
 IVT=       81969 IEndB=       81969 NGot= 24159191040 MDV= 24126072816
 LenX= 24126072816 LenY= 24126053054
 Requested convergence on RMS density matrix=1.00D-08 within 128 cycles.
 Requested convergence on MAX density matrix=1.00D-06.
 Requested convergence on             energy=1.00D-06.
 No special actions if energy rises.
 FoFCou: FMM=F IPFlag=           0 FMFlag=           0 FMFlg1=           0
         NFxFlg=           0 DoJE=F BraDBF=F KetDBF=F FulRan=T
         wScrn=  0.000000 ICntrl=     600 IOpCl=  0 I1Cent=           0 NGrid=           0
         NMat0=    1 NMatS0=   8128 NMatT0=    0 NMatD0=    1 NMtDS0=    0 NMtDT0=    0
 Symmetry not used in FoFCou.
 Integral accuracy reduced to 1.0D-05 until final iterations.

 Cycle   1  Pass 0  IDiag  1:
 E= -204.101639657840    
 DIIS: error= 3.76D-03 at cycle   1 NSaved=   1.
 NSaved= 1 IEnMin= 1 EnMin= -204.101639657840     IErMin= 1 ErrMin= 3.76D-03
 ErrMax= 3.76D-03  0.00D+00 EMaxC= 1.00D-01 BMatC= 3.02D-03 BMatP= 3.02D-03
 IDIUse=3 WtCom= 9.62D-01 WtEn= 3.76D-02
 Coeff-Com:  0.100D+01
 Coeff-En:   0.100D+01
 Coeff:      0.100D+01
 Gap=     1.138 Goal=   None    Shift=    0.000
 GapD=    1.138 DampG=2.000 DampE=1.000 DampFc=2.0000 IDamp=-1.
 RMSDP=6.17D-04 MaxDP=1.04D-02              OVMax= 2.27D-02

 Cycle   2  Pass 0  IDiag  1:
 E= -204.105182190990     Delta-E=       -0.003542533150 Rises=F Damp=F
 DIIS: error= 1.01D-03 at cycle   2 NSaved=   2.
 NSaved= 2 IEnMin= 2 EnMin= -204.105182190990     IErMin= 2 ErrMin= 1.01D-03
 ErrMax= 1.01D-03  0.00D+00 EMaxC= 1.00D-01 BMatC= 1.76D-04 BMatP= 3.02D-03
 IDIUse=3 WtCom= 9.90D-01 WtEn= 1.01D-02
 Coeff-Com:  0.558D-01 0.944D+00
 Coeff-En:   0.000D+00 0.100D+01
 Coeff:      0.552D-01 0.945D+00
 Gap=     0.230 Goal=   None    Shift=    0.000
 RMSDP=2.03D-04 MaxDP=5.41D-03 DE=-3.54D-03 OVMax= 8.58D-03

 Cycle   3  Pass 0  IDiag  1:
 E= -204.105048029182     Delta-E=        0.000134161808 Rises=F Damp=F
 DIIS: error= 1.57D-03 at cycle   3 NSaved=   3.
 NSaved= 3 IEnMin= 2 EnMin= -204.105182190990     IErMin= 2 ErrMin= 1.01D-03
 ErrMax= 1.57D-03  0.00D+00 EMaxC= 1.00D-01 BMatC= 3.25D-04 BMatP= 1.76D-04
 IDIUse=3 WtCom= 2.01D-01 WtEn= 7.99D-01
 Coeff-Com: -0.108D-01 0.590D+00 0.421D+00
 Coeff-En:   0.000D+00 0.626D+00 0.374D+00
 Coeff:     -0.218D-02 0.619D+00 0.383D+00
 Gap=     0.232 Goal=   None    Shift=    0.000
 RMSDP=1.55D-04 MaxDP=4.29D-03 DE= 1.34D-04 OVMax= 9.17D-03

 Cycle   4  Pass 0  IDiag  1:
 E= -204.105300117873     Delta-E=       -0.000252088691 Rises=F Damp=F
 DIIS: error= 7.98D-04 at cycle   4 NSaved=   4.
 NSaved= 4 IEnMin= 4 EnMin= -204.105300117873     IErMin= 4 ErrMin= 7.98D-04
 ErrMax= 7.98D-04  0.00D+00 EMaxC= 1.00D-01 BMatC= 8.38D-05 BMatP= 1.76D-04
 IDIUse=3 WtCom= 9.92D-01 WtEn= 7.98D-03
 Coeff-Com: -0.168D-01 0.343D+00 0.311D+00 0.363D+00
 Coeff-En:   0.000D+00 0.000D+00 0.190D+00 0.810D+00
 Coeff:     -0.166D-01 0.340D+00 0.310D+00 0.367D+00
 Gap=     0.231 Goal=   None    Shift=    0.000
 RMSDP=6.24D-05 MaxDP=1.99D-03 DE=-2.52D-04 OVMax= 3.63D-03

 Cycle   5  Pass 0  IDiag  1:
 E= -204.105370457757     Delta-E=       -0.000070339883 Rises=F Damp=F
 DIIS: error= 1.32D-04 at cycle   5 NSaved=   5.
 NSaved= 5 IEnMin= 5 EnMin= -204.105370457757     IErMin= 5 ErrMin= 1.32D-04
 ErrMax= 1.32D-04  0.00D+00 EMaxC= 1.00D-01 BMatC= 3.30D-06 BMatP= 8.38D-05
 IDIUse=3 WtCom= 9.99D-01 WtEn= 1.32D-03
 Coeff-Com: -0.719D-02 0.857D-01 0.993D-01 0.197D+00 0.625D+00
 Coeff-En:   0.000D+00 0.000D+00 0.000D+00 0.127D-02 0.999D+00
 Coeff:     -0.719D-02 0.856D-01 0.991D-01 0.197D+00 0.626D+00
 Gap=     0.231 Goal=   None    Shift=    0.000
 RMSDP=1.12D-05 MaxDP=3.80D-04 DE=-7.03D-05 OVMax= 4.36D-04

 Cycle   6  Pass 0  IDiag  1:
 E= -204.105372898356     Delta-E=       -0.000002440599 Rises=F Damp=F
 DIIS: error= 3.78D-05 at cycle   6 NSaved=   6.
 NSaved= 6 IEnMin= 6 EnMin= -204.105372898356     IErMin= 6 ErrMin= 3.78D-05
 ErrMax= 3.78D-05  0.00D+00 EMaxC= 1.00D-01 BMatC= 4.19D-07 BMatP= 3.30D-06
 IDIUse=1 WtCom= 1.00D+00 WtEn= 0.00D+00
 Coeff-Com: -0.300D-02 0.263D-01 0.366D-01 0.918D-01 0.366D+00 0.482D+00
 Coeff:     -0.300D-02 0.263D-01 0.366D-01 0.918D-01 0.366D+00 0.482D+00
 Gap=     0.231 Goal=   None    Shift=    0.000
 RMSDP=3.92D-06 MaxDP=1.60D-04 DE=-2.44D-06 OVMax= 1.92D-04

 Initial convergence to 1.0D-05 achieved.  Increase integral accuracy.
 Cycle   7  Pass 1  IDiag  1:
 E= -204.105384048724     Delta-E=       -0.000011150369 Rises=F Damp=F
 DIIS: error= 1.24D-05 at cycle   1 NSaved=   1.
 NSaved= 1 IEnMin= 1 EnMin= -204.105384048724     IErMin= 1 ErrMin= 1.24D-05
 ErrMax= 1.24D-05  0.00D+00 EMaxC= 1.00D-01 BMatC= 4.13D-08 BMatP= 4.13D-08
 IDIUse=1 WtCom= 1.00D+00 WtEn= 0.00D+00
 Coeff-Com:  0.100D+01
 Coeff:      0.100D+01
 Gap=     0.231 Goal=   None    Shift=    0.000
 RMSDP=3.92D-06 MaxDP=1.60D-04 DE=-1.12D-05 OVMax= 1.16D-04

 Cycle   8  Pass 1  IDiag  1:
 E= -204.105384011796     Delta-E=        0.000000036929 Rises=F Damp=F
 DIIS: error= 2.12D-05 at cycle   2 NSaved=   2.
 NSaved= 2 IEnMin= 1 EnMin= -204.105384048724     IErMin= 1 ErrMin= 1.24D-05
 ErrMax= 2.12D-05  0.00D+00 EMaxC= 1.00D-01 BMatC= 9.73D-08 BMatP= 4.13D-08
 IDIUse=1 WtCom= 1.00D+00 WtEn= 0.00D+00
 Coeff-Com:  0.614D+00 0.386D+00
 Coeff:      0.614D+00 0.386D+00
 Gap=     0.231 Goal=   None    Shift=    0.000
 RMSDP=1.67D-06 MaxDP=6.21D-05 DE= 3.69D-08 OVMax= 8.17D-05

 Cycle   9  Pass 1  IDiag  1:
 E= -204.105384082436     Delta-E=       -0.000000070641 Rises=F Damp=F
 DIIS: error= 2.67D-06 at cycle   3 NSaved=   3.
 NSaved= 3 IEnMin= 3 EnMin= -204.105384082436     IErMin= 3 ErrMin= 2.67D-06
 ErrMax= 2.67D-06  0.00D+00 EMaxC= 1.00D-01 BMatC= 1.77D-09 BMatP= 4.13D-08
 IDIUse=1 WtCom= 1.00D+00 WtEn= 0.00D+00
 Coeff-Com:  0.111D+00 0.143D+00 0.747D+00
 Coeff:      0.111D+00 0.143D+00 0.747D+00
 Gap=     0.231 Goal=   None    Shift=    0.000
 RMSDP=3.87D-07 MaxDP=1.17D-05 DE=-7.06D-08 OVMax= 1.40D-05

 Cycle  10  Pass 1  IDiag  1:
 E= -204.105384083397     Delta-E=       -0.000000000961 Rises=F Damp=F
 DIIS: error= 1.62D-06 at cycle   4 NSaved=   4.
 NSaved= 4 IEnMin= 4 EnMin= -204.105384083397     IErMin= 4 ErrMin= 1.62D-06
 ErrMax= 1.62D-06  0.00D+00 EMaxC= 1.00D-01 BMatC= 6.76D-10 BMatP= 1.77D-09
 IDIUse=1 WtCom= 1.00D+00 WtEn= 0.00D+00
 Coeff-Com:  0.118D-01 0.518D-01 0.464D+00 0.472D+00
 Coeff:      0.118D-01 0.518D-01 0.464D+00 0.472D+00
 Gap=     0.231 Goal=   None    Shift=    0.000
 RMSDP=2.35D-07 MaxDP=7.58D-06 DE=-9.61D-10 OVMax= 1.42D-05

 Cycle  11  Pass 1  IDiag  1:
 E= -204.105384083694     Delta-E=       -0.000000000297 Rises=F Damp=F
 DIIS: error= 1.78D-06 at cycle   5 NSaved=   5.
 NSaved= 5 IEnMin= 5 EnMin= -204.105384083694     IErMin= 4 ErrMin= 1.62D-06
 ErrMax= 1.78D-06  0.00D+00 EMaxC= 1.00D-01 BMatC= 3.16D-10 BMatP= 6.76D-10
 IDIUse=1 WtCom= 1.00D+00 WtEn= 0.00D+00
 Coeff-Com: -0.125D-01 0.153D-01 0.243D+00 0.394D+00 0.360D+00
 Coeff:     -0.125D-01 0.153D-01 0.243D+00 0.394D+00 0.360D+00
 Gap=     0.231 Goal=   None    Shift=    0.000
 RMSDP=1.32D-07 MaxDP=4.23D-06 DE=-2.97D-10 OVMax= 8.21D-06

 Cycle  12  Pass 1  IDiag  1:
 E= -204.105384083976     Delta-E=       -0.000000000282 Rises=F Damp=F
 DIIS: error= 2.49D-07 at cycle   6 NSaved=   6.
 NSaved= 6 IEnMin= 6 EnMin= -204.105384083976     IErMin= 6 ErrMin= 2.49D-07
 ErrMax= 2.49D-07  0.00D+00 EMaxC= 1.00D-01 BMatC= 1.05D-11 BMatP= 3.16D-10
 IDIUse=1 WtCom= 1.00D+00 WtEn= 0.00D+00
 Coeff-Com: -0.799D-02 0.160D-03 0.564D-01 0.129D+00 0.202D+00 0.621D+00
 Coeff:     -0.799D-02 0.160D-03 0.564D-01 0.129D+00 0.202D+00 0.621D+00
 Gap=     0.231 Goal=   None    Shift=    0.000
 RMSDP=2.86D-08 MaxDP=6.10D-07 DE=-2.82D-10 OVMax= 1.84D-06

 Cycle  13  Pass 1  IDiag  1:
 E= -204.105384083986     Delta-E=       -0.000000000011 Rises=F Damp=F
 DIIS: error= 4.07D-08 at cycle   7 NSaved=   7.
 NSaved= 7 IEnMin= 7 EnMin= -204.105384083986     IErMin= 7 ErrMin= 4.07D-08
 ErrMax= 4.07D-08  0.00D+00 EMaxC= 1.00D-01 BMatC= 3.21D-13 BMatP= 1.05D-11
 IDIUse=1 WtCom= 1.00D+00 WtEn= 0.00D+00
 Coeff-Com: -0.296D-03-0.225D-02-0.206D-01-0.258D-01-0.763D-02 0.122D+00
 Coeff-Com:  0.934D+00
 Coeff:     -0.296D-03-0.225D-02-0.206D-01-0.258D-01-0.763D-02 0.122D+00
 Coeff:      0.934D+00
 Gap=     0.231 Goal=   None    Shift=    0.000
 RMSDP=1.16D-08 MaxDP=2.85D-07 DE=-1.06D-11 OVMax= 9.57D-07

 Cycle  14  Pass 1  IDiag  1:
 E= -204.105384083988     Delta-E=       -0.000000000002 Rises=F Damp=F
 DIIS: error= 1.35D-08 at cycle   8 NSaved=   8.
 NSaved= 8 IEnMin= 8 EnMin= -204.105384083988     IErMin= 8 ErrMin= 1.35D-08
 ErrMax= 1.35D-08  0.00D+00 EMaxC= 1.00D-01 BMatC= 4.82D-14 BMatP= 3.21D-13
 IDIUse=1 WtCom= 1.00D+00 WtEn= 0.00D+00
 Coeff-Com:  0.582D-03-0.781D-03-0.117D-01-0.196D-01-0.213D-01-0.525D-02
 Coeff-Com:  0.350D+00 0.708D+00
 Coeff:      0.582D-03-0.781D-03-0.117D-01-0.196D-01-0.213D-01-0.525D-02
 Coeff:      0.350D+00 0.708D+00
 Gap=     0.231 Goal=   None    Shift=    0.000
 RMSDP=2.81D-09 MaxDP=5.08D-08 DE=-2.27D-12 OVMax= 1.75D-07

 SCF Done:  E(RB3LYP) =  -204.105384084     A.U. after   14 cycles
            NFock= 14  Conv=0.28D-08     -V/T= 2.0076
 KE= 2.025656087781D+02 PE=-6.916440694605D+02 EE= 1.768164708485D+02
 Leave Link  502 at Tue Aug 30 12:14:17 2022, MaxMem= 24159191040 cpu:        37.9
 (Enter /public/home/users/caep010/software/Gaussian09/g09/l701.exe)
 Compute integral first derivatives.
 ... and contract with generalized density number  0.
 Leave Link  701 at Tue Aug 30 12:14:17 2022, MaxMem= 24159191040 cpu:        13.6
 (Enter /public/home/users/caep010/software/Gaussian09/g09/l702.exe)
 L702 exits ... SP integral derivatives will be done elsewhere.
 Leave Link  702 at Tue Aug 30 12:14:17 2022, MaxMem= 24159191040 cpu:         0.6
 (Enter /public/home/users/caep010/software/Gaussian09/g09/l703.exe)
 Compute integral first derivatives, UseDBF=F ICtDFT=           0.
 Integral derivatives from FoFJK, PRISM(SPDF).
 Calling FoFJK, ICntrl=      2127 FMM=F ISym2X=0 I1Cent= 0 IOpClX= 0 NMat=1 NMatS=1 NMatT=0.
 FoFJK:  IHMeth= 1 ICntrl=    2127 DoSepK=F KAlg= 0 I1Cent=   0 FoldK=F
 IRaf=         0 NMat=   1 IRICut=       1 DoRegI=T DoRafI=F ISym2E= 0.
 FoFCou: FMM=F IPFlag=           0 FMFlag=      100000 FMFlg1=         800
         NFxFlg=           0 DoJE=F BraDBF=F KetDBF=F FulRan=T
         wScrn=  0.000000 ICntrl=    2127 IOpCl=  0 I1Cent=           0 NGrid=           0
         NMat0=    1 NMatS0=      1 NMatT0=    0 NMatD0=    1 NMtDS0=    0 NMtDT0=    0
 Symmetry not used in FoFCou.
 Leave Link  703 at Tue Aug 30 12:14:18 2022, MaxMem= 24159191040 cpu:        25.9
 (Enter /public/home/users/caep010/software/Gaussian09/g09/l716.exe)
 Dipole        = 8.46464038D-01 3.59247793D-01 2.05190653D-02
 ***** Axes restored to original set *****
 -------------------------------------------------------------------
 Center     Atomic                   Forces (Hartrees/Bohr)
 Number     Number              X              Y              Z
 -------------------------------------------------------------------
      1        6           0.007335980    0.003297494    0.014078086
      2        7           0.001242660   -0.001179430   -0.001356502
      3        7          -0.004312843    0.003922840    0.006446718
      4        7           0.001396138   -0.002248121   -0.003528730
      5        1           0.000901622   -0.002479111    0.000061865
      6        1           0.000975472    0.001803779   -0.002377199
      7        1          -0.007539028   -0.003117452   -0.013324238
 -------------------------------------------------------------------
 Cartesian Forces:  Max     0.014078086 RMS     0.005449213
 Leave Link  716 at Tue Aug 30 12:14:18 2022, MaxMem= 24159191040 cpu:         0.5
 (Enter /public/home/users/caep010/software/Gaussian09/g09/l103.exe)

[...]
 Coeff-Com:  0.813D+00
 Coeff:     -0.408D-04 0.137D-02-0.124D-01-0.278D-01-0.242D-01 0.250D+00
 Coeff:      0.813D+00
 Gap=     0.422 Goal=   None    Shift=    0.000
 RMSDP=1.12D-08 MaxDP=7.55D-07 DE=-1.46D-10 OVMax= 3.15D-06

 Cycle   8  Pass 1  IDiag  1:
 E= -202.958562481178     Delta-E=       -0.000000000038 Rises=F Damp=F
 DIIS: error= 2.24D-07 at cycle   8 NSaved=   8.
 NSaved= 8 IEnMin= 8 EnMin= -202.958562481178     IErMin= 8 ErrMin= 2.24D-07
 ErrMax= 2.24D-07  0.00D+00 EMaxC= 1.00D-01 BMatC= 3.66D-12 BMatP= 1.55D-11
 IDIUse=1 WtCom= 1.00D+00 WtEn= 0.00D+00
 Coeff-Com:  0.205D-04-0.753D-03 0.103D-01 0.690D-02-0.264D-01-0.241D+00
 Coeff-Com: -0.165D+00 0.142D+01
 Coeff:      0.205D-04-0.753D-03 0.103D-01 0.690D-02-0.264D-01-0.241D+00
 Coeff:     -0.165D+00 0.142D+01
 Gap=     0.422 Goal=   None    Shift=    0.000
 RMSDP=9.45D-09 MaxDP=4.71D-07 DE=-3.81D-11 OVMax= 3.00D-06

 SCF Done:  E(RHF) =  -202.958562481     A.U. after    8 cycles
            NFock=  8  Conv=0.94D-08     -V/T= 2.0019
 KE= 2.025650361266D+02 PE=-6.909154349323D+02 EE= 1.772582645537D+02
 Leave Link  502 at Tue Aug 30 12:19:10 2022, MaxMem= 24159191040 cpu:       845.5
 (Enter /public/home/users/caep010/software/Gaussian09/g09/l601.exe)
 Copying SCF densities to generalized density rwf, IOpCl= 0 IROHF=0.

 **********************************************************************

            Population analysis using the SCF density.

 **********************************************************************

 Orbital symmetries:
       Occupied  (A) (A) (A) (A) (A) (A) (A) (A) (A) (A) (A) (A)
                 (A) (A) (A)
       Virtual   (A) (A) (A) (A) (A) (A) (A) (A) (A) (A) (A) (A)
                 (A) (A) (A) (A) (A) (A) (A) (A) (A) (A) (A) (A)
                 (A) (A) (A) (A) (A) (A) (A) (A) (A) (A) (A) (A)
                 (A) (A) (A) (A) (A) (A) (A) (A) (A) (A) (A) (A)
                 (A) (A) (A) (A) (A) (A) (A) (A) (A) (A) (A) (A)
                 (A) (A) (A) (A) (A) (A) (A) (A) (A) (A) (A) (A)
                 (A) (A) (A) (A) (A) (A) (A) (A) (A) (A) (A) (A)
                 (A) (A) (A) (A) (A) (A) (A) (A) (A) (A) (A) (A)
                 (A) (A) (A) (A) (A) (A) (A) (A) (A) (A) (A) (A)
                 (A) (A) (A) (A) (A) (A) (A) (A) (A) (A) (A) (A)
                 (A) (A) (A) (A) (A) (A) (A) (A) (A) (A) (A) (A)
                 (A) (A) (A) (A) (A) (A) (A) (A) (A) (A) (A) (A)
                 (A) (A) (A) (A) (A) (A) (A) (A) (A) (A) (A) (A)
                 (A) (A) (A) (A) (A) (A) (A) (A) (A) (A) (A) (A)
                 (A) (A) (A) (A) (A) (A) (A) (A) (A) (A) (A) (A)
                 (A) (A) (A) (A) (A) (A) (A) (A) (A) (A) (A) (A)
                 (A) (A) (A) (A) (A) (A) (A) (A) (A) (A) (A) (A)
                 (A) (A) (A) (A) (A) (A) (A) (A) (A) (A) (A) (A)
                 (A) (A) (A) (A) (A) (A) (A) (A) (A) (A) (A) (A)
                 (A) (A) (A) (A) (A) (A) (A) (A) (A) (A) (A) (A)
                 (A) (A) (A) (A) (A) (A) (A) (A) (A) (A) (A) (A)
                 (A) (A) (A) (A) (A) (A) (A) (A) (A) (A) (A) (A)
                 (A) (A) (A) (A) (A) (A) (A) (A) (A) (A) (A) (A)
                 (A) (A) (A) (A) (A) (A) (A) (A) (A) (A) (A) (A)
                 (A) (A) (A) (A) (A) (A) (A) (A) (A) (A) (A) (A)
                 (A) (A) (A) (A) (A) (A) (A) (A) (A) (A) (A) (A)
                 (A) (A) (A) (A) (A) (A) (A) (A) (A) (A) (A) (A)
                 (A) (A) (A) (A) (A) (A) (A) (A) (A) (A) (A) (A)
                 (A) (A) (A) (A) (A) (A) (A) (A) (A) (A) (A) (A)
                 (A) (A) (A) (A) (A) (A) (A) (A) (A) (A) (A) (A)
                 (A) (A) (A) (A) (A) (A) (A) (A) (A) (A) (A) (A)
                 (A) (A) (A) (A) (A) (A) (A) (A) (A) (A) (A) (A)
                 (A) (A) (A) (A) (A) (A) (A) (A) (A) (A) (A) (A)
                 (A) (A) (A) (A) (A) (A) (A) (A) (A) (A) (A) (A)
                 (A) (A) (A) (A) (A) (A) (A) (A) (A) (A) (A) (A)
                 (A) (A) (A) (A) (A) (A) (A) (A) (A) (A) (A) (A)
                 (A) (A) (A) (A) (A)
 The electronic state is 1-A.
 Alpha  occ. eigenvalues --  -15.78038 -15.66318 -15.60618 -11.27925  -1.50080
 Alpha  occ. eigenvalues --   -1.28996  -0.99608  -0.73891  -0.70724  -0.70287
 Alpha  occ. eigenvalues --   -0.66679  -0.59240  -0.57410  -0.44082  -0.37798
 Alpha virt. eigenvalues --    0.04415   0.05063   0.05402   0.05482   0.08183
 Alpha virt. eigenvalues --    0.09302   0.09691   0.11342   0.12401   0.12667
 Alpha virt. eigenvalues --    0.14063   0.14790   0.15840   0.17761   0.17945
 Alpha virt. eigenvalues --    0.19826   0.21402   0.21467   0.23156   0.23707
 Alpha virt. eigenvalues --    0.26039   0.26831   0.28706   0.30220   0.40306
 Alpha virt. eigenvalues --    0.41105   0.41389   0.42480   0.43749   0.45887
 Alpha virt. eigenvalues --    0.46138   0.47093   0.47101   0.49508   0.51684
 Alpha virt. eigenvalues --    0.52236   0.55055   0.56219   0.57189   0.58223
 Alpha virt. eigenvalues --    0.66124   0.67147   0.67741   0.69000   0.70394
 Alpha virt. eigenvalues --    0.73111   0.76257   0.77388   0.79811   0.83928
 Alpha virt. eigenvalues --    0.91135   0.91578   0.91822   0.95342   0.98054
 Alpha virt. eigenvalues --    0.98766   1.00270   1.01991   1.05387   1.06631
 Alpha virt. eigenvalues --    1.07957   1.14347   1.15137   1.15678   1.18302
 Alpha virt. eigenvalues --    1.19063   1.21854   1.24603   1.27197   1.28497
 Alpha virt. eigenvalues --    1.33508   1.34097   1.37314   1.39268   1.41099
 Alpha virt. eigenvalues --    1.41459   1.42241   1.42989   1.45682   1.46574
 Alpha virt. eigenvalues --    1.51630   1.53291   1.53347   1.55427   1.58388
 Alpha virt. eigenvalues --    1.65337   1.69442   1.71848   1.73941   1.74520
 Alpha virt. eigenvalues --    1.77837   1.82324   1.82952   1.85578   1.88320
 Alpha virt. eigenvalues --    1.89474   2.03848   2.04494   2.06912   2.09871
 Alpha virt. eigenvalues --    2.12474   2.17410   2.18840   2.18871   2.22789
 Alpha virt. eigenvalues --    2.24325   2.27487   2.31272   2.34280   2.36260
 Alpha virt. eigenvalues --    2.38970   2.40689   2.41267   2.42521   2.46442
 Alpha virt. eigenvalues --    2.49029   2.51353   2.55943   2.58134   2.58293
 Alpha virt. eigenvalues --    2.61909   2.63206   2.66951   2.68426   2.71574
 Alpha virt. eigenvalues --    2.78251   2.78693   2.79373   2.84226   2.84377
 Alpha virt. eigenvalues --    2.86327   2.89120   2.90812   2.92890   2.94999
 Alpha virt. eigenvalues --    2.98505   2.99820   3.03451   3.06476   3.08775
 Alpha virt. eigenvalues --    3.13591   3.17311   3.20236   3.22116   3.22931
 Alpha virt. eigenvalues --    3.27813   3.29367   3.31880   3.37750   3.38691
 Alpha virt. eigenvalues --    3.43072   3.54205   3.55798   3.57345   3.58173
 Alpha virt. eigenvalues --    3.64517   3.65984   3.72201   3.78157   3.79091
 Alpha virt. eigenvalues --    3.80551   3.84973   3.85348   3.94270   3.94815
 Alpha virt. eigenvalues --    3.99577   4.08739   4.10523   4.12019   4.20663
 Alpha virt. eigenvalues --    4.22738   4.24189   4.28374   4.35502   4.38070
 Alpha virt. eigenvalues --    4.43789   4.43890   4.48739   4.50542   4.55965
 Alpha virt. eigenvalues --    4.59950   4.70509   4.70628   4.79834   4.81224
 Alpha virt. eigenvalues --    4.86851   4.88741   4.91041   4.92848   4.92857
 Alpha virt. eigenvalues --    4.96999   4.99442   5.03116   5.05989   5.10999
 Alpha virt. eigenvalues --    5.11018   5.17583   5.19576   5.21212   5.22380
 Alpha virt. eigenvalues --    5.30584   5.32330   5.34442   5.38703   5.42710
 Alpha virt. eigenvalues --    5.44630   5.48517   5.51223   5.54686   5.54742
 Alpha virt. eigenvalues --    5.56890   5.63641   5.65274   5.68512   5.71652
 Alpha virt. eigenvalues --    5.72588   5.75955   5.81183   5.85851   5.86958
 Alpha virt. eigenvalues --    5.94028   5.94559   5.96283   6.03668   6.04311
 Alpha virt. eigenvalues --    6.07037   6.13101   6.20245   6.26188   6.26496
 Alpha virt. eigenvalues --    6.31384   6.36794   6.41985   6.43859   6.49941
 Alpha virt. eigenvalues --    6.52029   6.62587   6.70572   6.72827   6.76230
 Alpha virt. eigenvalues --    6.93653   6.98928   7.12152   7.16703   7.23539
 Alpha virt. eigenvalues --    7.28093   7.32514   7.43962   7.53777   7.59282
 Alpha virt. eigenvalues --    7.68508   7.69745   7.78051   7.84539   7.85344
 Alpha virt. eigenvalues --    7.93766   7.96018   7.97748   7.99095   8.12065
 Alpha virt. eigenvalues --    8.23948   8.32863   8.33839   8.40620   8.44517
 Alpha virt. eigenvalues --    8.47042   8.48130   8.52124   8.60362   8.71326
 Alpha virt. eigenvalues --    8.79910   8.86389   8.89566   8.90890   8.93507
 Alpha virt. eigenvalues --    8.97353   9.00069   9.03599   9.20916   9.30551
 Alpha virt. eigenvalues --    9.32881   9.35546   9.36389   9.40934   9.44245
 Alpha virt. eigenvalues --    9.48569   9.59530   9.67877   9.83760   9.89437
 Alpha virt. eigenvalues --    9.99621  10.01583  10.05891  10.15834  10.24629
 Alpha virt. eigenvalues --   10.28004  10.33722  10.42156  10.44367  10.48864
 Alpha virt. eigenvalues --   10.55040  10.63806  10.64627  10.69726  10.70988
 Alpha virt. eigenvalues --   10.73505  10.82288  10.87486  10.90575  10.90793
 Alpha virt. eigenvalues --   10.97777  11.02664  11.06555  11.11822  11.19594
 Alpha virt. eigenvalues --   11.20471  11.26856  11.31093  11.32127  11.35678
 Alpha virt. eigenvalues --   11.37882  11.40605  11.46741  11.51559  11.52781
 Alpha virt. eigenvalues --   11.61591  11.65536  11.71049  11.72060  11.78041
 Alpha virt. eigenvalues --   11.88617  11.93076  11.93405  11.97286  11.99869
 Alpha virt. eigenvalues --   12.09259  12.16106  12.17092  12.20373  12.35965
 Alpha virt. eigenvalues --   12.39198  12.41973  12.44419  12.51461  12.51689
 Alpha virt. eigenvalues --   12.61494  12.69320  12.73333  12.85499  12.91008
 Alpha virt. eigenvalues --   12.96992  13.01604  13.14332  13.14487  13.16971
 Alpha virt. eigenvalues --   13.32292  13.45064  13.47967  13.51965  13.52980
 Alpha virt. eigenvalues --   13.63827  13.73865  13.90399  13.91282  13.92215
 Alpha virt. eigenvalues --   14.02717  14.04705  14.06107  14.09537  14.10616
 Alpha virt. eigenvalues --   14.12006  14.22338  14.22660  14.30528  14.30737
 Alpha virt. eigenvalues --   14.39584  14.39890  14.51568  14.55727  14.58447
 Alpha virt. eigenvalues --   14.60289  14.66806  14.68344  14.73285  14.76952
 Alpha virt. eigenvalues --   14.79044  14.98385  15.04600  15.09949  15.15424
 Alpha virt. eigenvalues --   15.21119  15.26696  15.30232  15.40790  15.51928
 Alpha virt. eigenvalues --   15.61358  15.65360  15.85952  15.86785  16.00660
 Alpha virt. eigenvalues --   16.01595  16.12283  16.26953  16.65902  16.75377
 Alpha virt. eigenvalues --   16.93976  17.08708  17.11509  17.25131  17.28682
 Alpha virt. eigenvalues --   17.46904  17.54125  17.55724  17.61494  17.73802
 Alpha virt. eigenvalues --   17.83846  17.86715  17.92692  17.99176  18.22638
 Alpha virt. eigenvalues --   18.43914  18.74703  19.09172  19.09566  19.20026
 Alpha virt. eigenvalues --   19.65361  20.00001  20.14493  20.32056  21.84659
 Alpha virt. eigenvalues --   21.92882  23.53467  24.03665  40.20779  48.75768
 Alpha virt. eigenvalues --   53.24966  54.89494
          Condensed to atoms (all electrons):
               1          2          3          4          5          6
     1  C    4.925111   0.220482  -0.004215   0.001044   0.417893   0.417870
     2  N    0.220482   7.237151   0.271693  -0.172654  -0.032200  -0.032166
     3  N   -0.004215   0.271693   5.506044   0.638743  -0.007303  -0.007326
     4  N    0.001044  -0.172654   0.638743   6.835981   0.002329   0.002323
     5  H    0.417893  -0.032200  -0.007303   0.002329   0.499921  -0.035467
     6  H    0.417870  -0.032166  -0.007326   0.002323  -0.035467   0.499935
     7  H    0.420661  -0.053364   0.011861   0.000184  -0.023143  -0.023132
               7
     1  C    0.420661
     2  N   -0.053364
     3  N    0.011861
     4  N    0.000184
     5  H   -0.023143
     6  H   -0.023132
     7  H    0.467637
 Mulliken charges:
               1
     1  C   -0.398845
     2  N   -0.438943
     3  N    0.590505
     4  N   -0.307949
     5  H    0.177970
     6  H    0.177964
     7  H    0.199297
 Sum of Mulliken charges =  -0.00000
 Mulliken charges with hydrogens summed into heavy atoms:
               1
     1  C    0.156387
     2  N   -0.438943
     3  N    0.590505
     4  N   -0.307949
 Electronic spatial extent (au):  <R**2>=            266.3904
 Charge=             -0.0000 electrons
 Dipole moment (field-independent basis, Debye):
    X=              1.7383    Y=             -1.2008    Z=             -0.0000  Tot=              2.1127
 Quadrupole moment (field-independent basis, Debye-Ang):
   XX=            -23.9394   YY=            -25.0451   ZZ=            -23.6250
   XY=             -1.8045   XZ=              0.0000   YZ=             -0.0000
 Traceless Quadrupole moment (field-independent basis, Debye-Ang):
   XX=              0.2638   YY=             -0.8420   ZZ=              0.5782
   XY=             -1.8045   XZ=              0.0000   YZ=             -0.0000
 Octapole moment (field-independent basis, Debye-Ang**2):
  XXX=             11.4234  YYY=             -2.2771  ZZZ=              0.0005  XYY=             -0.9635
  XXY=              2.9525  XXZ=             -0.0001  XZZ=              0.0378  YZZ=             -1.0420
  YYZ=             -0.0003  XYZ=             -0.0002
 Hexadecapole moment (field-independent basis, Debye-Ang**3):
 XXXX=           -276.7984 YYYY=            -54.2369 ZZZZ=            -29.2922 XXXY=             -1.2471
 XXXZ=             -0.0010 YYYX=             -1.4922 YYYZ=              0.0005 ZZZX=              0.0009
 ZZZY=             -0.0003 XXYY=            -52.6965 XXZZ=            -51.5126 YYZZ=            -13.2191
 XXYZ=             -0.0009 YYXZ=             -0.0004 ZZXY=             -1.6971
 N-N= 1.081335717709D+02 E-N=-6.909154308777D+02  KE= 2.025650361266D+02
 No NMR shielding tensors so no spin-rotation constants.
 Leave Link  601 at Tue Aug 30 12:19:11 2022, MaxMem= 24159191040 cpu:        20.4
 (Enter /public/home/users/caep010/software/Gaussian09/g09/l9999.exe)
 1\1\GINC-B1858\SP\RHF\GFHFB2\C1H3N3\ROOT\30-Aug-2022\0\\#P Geom=AllChe
 ck Guess=TCheck SCRF=Check HF/GFHFB2 SCF=Tight\\Frag_531\\0,1\C,0,-0.8
 312770884,0.0729388984,-0.0967373686\N,0,0.3906200354,-0.6989334228,-0
 .3801862353\N,0,1.4351504275,-0.2315973525,0.069033002\N,0,2.462654727
 1,0.0945089953,0.4289981047\H,0,-1.0183912384,0.1533992768,0.980404226
 7\H,0,-0.7833663287,1.0794934344,-0.5283638355\H,0,-1.6554895345,-0.46
 98088295,-0.5582488941\\Version=ES64L-G09RevE.01\State=1-A\HF=-202.958
 5625\RMSD=9.449e-09\Dipole=-0.7178334,0.3976188,0.1322549\Quadrupole=0
 .432919,-0.3634404,-0.0694786,-1.0518443,-0.6448734,-0.6503582\PG=C01 
 [X(C1H3N3)]\\@


 A MUSTACHE HAIR ACROSS A CHIP IS LIKE A REDWOOD
 TREE FALLING THROUGH A HOUSING PROJECT.
 - AN IBM MANAGER IN EAST FISHKILL, NEW YORK
   AS QUOTED IN "FROM SANDS TO CIRCUITS", IBM INNOVATION JANUARY 1985.
 Diagonal vibrational polarizability:
        0.0000000       0.0000000       0.0000000

 Temperature=              298.150000 Pressure=                      1.000000
 E(ZPE)=                     0.049578 E(Thermal)=                    0.054067
 E(CCSD(T))=              -203.535205 E(Empiric)=                   -0.076417
 DE(Plus)=                  -0.012320 DE(2DF)=                      -0.144230
 E(Delta-G3XP)=             -0.259488 DE(HF)=                       -0.020345
 G4(0 K)=                 -203.998427 G4 Energy=                  -203.993938
 G4 Enthalpy=             -203.992994 G4 Free Energy=             -204.025082
 1\1\GINC-B1858\Mixed\G4\G4\C1H3N3\ROOT\30-Aug-2022\0\\#P Geom=AllCheck
  Guess=TCheck SCRF=Check HF/GFHFB2 SCF=Tight\\Frag_531\\0,1\C,0,-0.831
 2770884,0.0729388984,-0.0967373686\N,0,0.3906200354,-0.6989334228,-0.3
 801862353\N,0,1.4351504275,-0.2315973525,0.069033002\N,0,2.4626547271,
 0.0945089953,0.4289981047\H,0,-1.0183912384,0.1533992768,0.9804042267\
 H,0,-0.7833663287,1.0794934344,-0.5283638355\H,0,-1.6554895345,-0.4698
 088295,-0.5582488941\\Version=ES64L-G09RevE.01\State=1-A\MP2/GTBas1=-2
 03.5008919\MP4/GTBas1=-203.5457937\CCSD(T)/G3Bas1=-203.535205\MP2/GTBa
 s2=-203.512514\MP4/GTBas2=-203.5581137\MP2/GTBas3=-203.6366316\MP4/GTB
 as3=-203.6900234\HF/GTLargeXP=-202.938957\MP2/GTLargeXP=-203.9077418\H
 F/GFHFB1=-202.9555288\HF/GFHFB2=-202.9585625\G4=-203.9984267\FreqCoord
 =-1.5708860376,0.1378345424,-0.1828071334,0.7381648889,-1.3207927542,-
 0.7184478642,2.7120412675,-0.4376555694,0.130453468,4.653742994,0.1785
 961182,0.8106889294,-1.9244805367,0.2898826221,1.852695488,-1.48034782
 3,2.0399469533,-0.9984629476,-3.1284218361,-0.8878100226,-1.0549375237
 \PG=C01 [X(C1H3N3)]\NImag=0\\0.49339393,0.07559729,0.52679342,0.037641
 80,-0.00218116,0.55407197,-0.13223675,0.08314133,0.03675523,0.70429878
 ,0.04623375,-0.08975763,-0.02294829,0.06485740,0.21264439,0.01411308,-
 0.01720896,-0.04898440,0.14118972,0.10832014,0.14094991,-0.08614604,-0
 .03036438,-0.02970080,-0.45863133,-0.10117067,-0.12577775,1.46709397,0
 .00494669,-0.00423475,0.00739047,-0.14544209,-0.12515184,-0.06928323,0
 .39406447,0.27368483,-0.00803221,0.00189769,-0.01511774,-0.15294337,-0
 .06239640,-0.11117490,0.45039824,0.15176579,0.28944784,0.02195915,-0.0
 0151674,0.00148263,-0.05272625,-0.03761111,-0.03533028,-0.93612019,-0.
 26877019,-0.30024332,0.97510408,0.00642052,-0.00013060,-0.00305038,-0.
 04320064,0.01303248,-0.01468592,-0.26051448,-0.14315430,-0.08768271,0.
 30279240,0.12892787,0.00635027,-0.00428566,0.00483143,-0.03875465,-0.0
 1381544,0.01150555,-0.29518310,-0.08896810,-0.16682837,0.33204591,0.10
 470104,0.15097427,-0.05230327,-0.00123382,0.03273527,-0.02097349,0.006
 82864,0.02486090,0.01109810,0.00490143,0.00935957,-0.00423645,-0.00168
 559,-0.00370467,0.05992294,0.00027997,-0.04894560,-0.01244426,0.011829
 24,-0.00313449,-0.01619652,-0.00490118,-0.00098616,-0.00242195,0.00183
 919,0.00042074,0.00085104,-0.00746698,0.04976448,0.03416410,-0.0129409
 7,-0.30132307,0.00704490,-0.00410640,-0.00000794,-0.00252942,-0.000910
 23,0.00212102,0.00205227,0.00070298,-0.00061416,-0.04279367,0.01752044
 ,0.32342385,-0.04930238,-0.02246526,0.00715128,-0.01459986,0.02855524,
 -0.01036479,0.01199873,0.00930110,0.00228260,-0.00439236,-0.00353167,-
 0.00056418,0.00089746,-0.00403251,0.00022199,0.05529857,-0.02045318,-0
 .26097580,0.09590198,0.01239362,-0.01428307,0.00263986,-0.00564625,-0.
 00054062,-0.00278582,0.00305356,0.00035708,0.00147403,-0.00113709,0.00
 319479,-0.00115988,0.01331533,0.28540793,0.00788402,0.09585054,-0.0922
 7779,0.00059945,-0.00771194,0.00476195,-0.00101330,-0.00044470,0.00077
 980,-0.00011908,0.00004804,-0.00039454,0.00325618,0.02938629,-0.011519
 84,-0.00994328,-0.10353496,0.09238662,-0.19536464,-0.10315842,-0.08606
 542,-0.02513109,-0.00769326,-0.00869088,-0.00929324,0.00099859,-0.0008
 2152,0.00041202,-0.00028054,-0.00018958,0.00559471,0.00245226,0.001839
 82,0.00009984,-0.00152598,-0.00066400,0.22368240,-0.11302503,-0.122749
 06,-0.06266837,0.01642112,0.00665017,0.00641464,0.00853248,0.00038284,
 0.00162340,0.00021288,0.00054672,0.00004310,-0.00020658,-0.00031378,0.
 00089406,-0.02114224,-0.01316031,-0.01359327,0.10920736,0.12864342,-0.
 09212106,-0.06113148,-0.10120041,0.00610871,0.00265832,0.00294983,0.00
 380613,0.00045000,0.00077236,0.00011185,-0.00003304,0.00052582,-0.0237
 1358,-0.01669503,-0.01207987,0.01121638,0.00746479,0.00626378,0.094591
 56,0.06728644,0.10276848\\-0.00002646,0.00001378,0.00001355,0.00002111
 ,-0.00001004,-0.00000103,-0.00001821,-0.00000476,-0.00001257,0.0000045
 9,-0.00000069,0.00000357,0.00000285,-0.00000138,-0.00000884,0.00000461
 ,-0.00000039,0.00000008,0.00001151,0.00000349,0.00000524\\\@
 Job cpu time:       0 days  0 hours 15 minutes 30.3 seconds.
 File lengths (MBytes):  RWF=    628 Int=      0 D2E=      0 Chk=     13 Scr=      1
 Normal termination of Gaussian 09 at Tue Aug 30 12:19:11 2022.
