 Entering Gaussian System, Link 0=g09
 Input=G4.Frag_877.gjf
 Output=G4.Frag_877.log
 Initial command:
 /public/home/users/caep010/software/Gaussian09/g09/l1.exe "/public/home/users/caep010/.cache/gau_scr/Gau-220947.inp" -scrdir="/public/home/users/caep010/.cache/gau_scr/"
 Entering Link 1 = /public/home/users/caep010/software/Gaussian09/g09/l1.exe PID=    220948.
  
 Copyright (c) 1988,1990,1992,1993,1995,1998,2003,2009,2015,
            Gaussian, Inc.  All Rights Reserved.
  
 This is part of the Gaussian(R) 09 program.  It is based on
 the Gaussian(R) 03 system (copyright 2003, Gaussian, Inc.),
 the Gaussian(R) 98 system (copyright 1998, Gaussian, Inc.),
 the Gaussian(R) 94 system (copyright 1995, Gaussian, Inc.),
 the Gaussian 92(TM) system (copyright 1992, Gaussian, Inc.),
 the Gaussian 90(TM) system (copyright 1990, Gaussian, Inc.),
 the Gaussian 88(TM) system (copyright 1988, Gaussian, Inc.),
 the Gaussian 86(TM) system (copyright 1986, Carnegie Mellon
 University), and the Gaussian 82(TM) system (copyright 1983,
 Carnegie Mellon University). Gaussian is a federally registered
 trademark of Gaussian, Inc.
  
 This software contains proprietary and confidential information,
 including trade secrets, belonging to Gaussian, Inc.
  
 This software is provided under written license and may be
 used, copied, transmitted, or stored only in accord with that
 written license.
  
 The following legend is applicable only to US Government
 contracts under FAR:
  
                    RESTRICTED RIGHTS LEGEND
  
 Use, reproduction and disclosure by the US Government is
 subject to restrictions as set forth in subparagraphs (a)
 and (c) of the Commercial Computer Software - Restricted
 Rights clause in FAR 52.227-19.
  
 Gaussian, Inc.
 340 Quinnipiac St., Bldg. 40, Wallingford CT 06492
  
  
 ---------------------------------------------------------------
 Warning -- This program may not be used in any manner that
 competes with the business of Gaussian, Inc. or will provide
 assistance to any competitor of Gaussian, Inc.  The licensee
 of this program is prohibited from giving any competitor of
 Gaussian, Inc. access to this program.  By using this program,
 the user acknowledges that Gaussian, Inc. is engaged in the
 business of creating and licensing software in the field of
 computational chemistry and represents and warrants to the
 licensee that it is not a competitor of Gaussian, Inc. and that
 it will not use this program in any manner prohibited above.
 ---------------------------------------------------------------
  

 Cite this work as:
 Gaussian 09, Revision E.01,
 M. J. Frisch, G. W. Trucks, H. B. Schlegel, G. E. Scuseria, 
 M. A. Robb, J. R. Cheeseman, G. Scalmani, V. Barone, B. Mennucci, 
 G. A. Petersson, H. Nakatsuji, M. Caricato, X. Li, H. P. Hratchian, 
 A. F. Izmaylov, J. Bloino, G. Zheng, J. L. Sonnenberg, M. Hada, 
 M. Ehara, K. Toyota, R. Fukuda, J. Hasegawa, M. Ishida, T. Nakajima, 
 Y. Honda, O. Kitao, H. Nakai, T. Vreven, J. A. Montgomery, Jr., 
 J. E. Peralta, F. Ogliaro, M. Bearpark, J. J. Heyd, E. Brothers, 
 K. N. Kudin, V. N. Staroverov, T. Keith, R. Kobayashi, J. Normand, 
 K. Raghavachari, A. Rendell, J. C. Burant, S. S. Iyengar, J. Tomasi, 
 M. Cossi, N. Rega, J. M. Millam, M. Klene, J. E. Knox, J. B. Cross, 
 V. Bakken, C. Adamo, J. Jaramillo, R. Gomperts, R. E. Stratmann, 
 O. Yazyev, A. J. Austin, R. Cammi, C. Pomelli, J. W. Ochterski, 
 R. L. Martin, K. Morokuma, V. G. Zakrzewski, G. A. Voth, 
 P. Salvador, J. J. Dannenberg, S. Dapprich, A. D. Daniels, 
 O. Farkas, J. B. Foresman, J. V. Ortiz, J. Cioslowski, 
 and D. J. Fox, Gaussian, Inc., Wallingford CT, 2013.
 
 ******************************************
 Gaussian 09:  ES64L-G09RevE.01 30-Nov-2015
                26-Aug-2022 
 ******************************************
 %nproc=32
 Will use up to   32 processors via shared memory.
 %mem=180GB
 %chk=G4.Frag_877.chk
 -----
 #P G4
 -----
 1/14=-1,18=20,19=15,26=3,38=1/1,3;
 2/9=110,12=2,17=6,18=5,40=1/2;
 3/5=35,7=104,11=2,16=1,25=1,30=1,71=1,74=-5/1,2,3;
 4//1;
 5/5=2,38=5/2;
 6/7=2,8=2,9=2,10=2,28=1/1;
 7//1,2,3,16;
 1/14=-1,18=20,19=15,26=3/3(2);
 2/9=110/2;
 99//99;
 2/9=110/2;
 3/5=35,7=104,11=2,16=1,25=1,30=1,71=1,74=-5/1,2,3;
 4/5=5,16=3,69=1/1;
 5/5=2,38=5/2;
 7//1,2,3,16;
 1/14=-1,18=20,19=15,26=3/3(-5);
 2/9=110/2;
 6/7=2,8=2,9=2,10=2,19=2,28=1/1;
 99/9=1/99;
 Leave Link    1 at Fri Aug 26 06:34:04 2022, MaxMem= 24159191040 cpu:         2.3
 (Enter /public/home/users/caep010/software/Gaussian09/g09/l101.exe)
 --------
 Frag_877
 --------
 Symbolic Z-matrix:
 Charge =  0 Multiplicity = 1
 N                     2.592    -0.2588    0.0402 
 C                     1.5349    0.2071    0.108 
 N                     0.2538    0.7718    0.1902 
 N                    -0.888    -0.0384    0.2656 
 H                    -0.828    -0.6311    1.1248 
 H                    -0.9394   -0.634    -0.5921 
 H                    -1.7254    0.5834    0.3189 
 
 NAtoms=      7 NQM=        7 NQMF=       0 NMMI=      0 NMMIF=      0
                NMic=       0 NMicF=      0.
                    Isotopes and Nuclear Properties:
 (Nuclear quadrupole moments (NQMom) in fm**2, nuclear magnetic moments (NMagM)
  in nuclear magnetons)

  Atom         1           2           3           4           5           6           7
 IAtWgt=          14          12          14          14           1           1           1
 AtmWgt=  14.0030740  12.0000000  14.0030740  14.0030740   1.0078250   1.0078250   1.0078250
 NucSpn=           2           0           2           2           1           1           1
 AtZEff=   0.0000000   0.0000000   0.0000000   0.0000000   0.0000000   0.0000000   0.0000000
 NQMom=    2.0440000   0.0000000   2.0440000   2.0440000   0.0000000   0.0000000   0.0000000
 NMagM=    0.4037610   0.0000000   0.4037610   0.4037610   2.7928460   2.7928460   2.7928460
 AtZNuc=   7.0000000   6.0000000   7.0000000   7.0000000   1.0000000   1.0000000   1.0000000
 Leave Link  101 at Fri Aug 26 06:34:05 2022, MaxMem= 24159191040 cpu:        10.3
 (Enter /public/home/users/caep010/software/Gaussian09/g09/l103.exe)

 GradGradGradGradGradGradGradGradGradGradGradGradGradGradGradGradGradGrad
 Berny optimization.
 Initialization pass.
                           ----------------------------
                           !    Initial Parameters    !
                           ! (Angstroms and Degrees)  !
 --------------------------                            --------------------------
 ! Name  Definition              Value          Derivative Info.                !
 --------------------------------------------------------------------------------
 ! R1    R(1,2)                  1.1572         estimate D2E/DX2                !
 ! R2    R(2,3)                  1.4024         estimate D2E/DX2                !
 ! R3    R(3,4)                  1.4021         estimate D2E/DX2                !
 ! R4    R(4,5)                  1.0455         estimate D2E/DX2                !
 ! R5    R(4,6)                  1.0455         estimate D2E/DX2                !
 ! R6    R(4,7)                  1.0444         estimate D2E/DX2                !
 ! A1    A(2,3,4)              120.9558         estimate D2E/DX2                !
 ! A2    A(3,4,5)              108.9682         estimate D2E/DX2                !
 ! A3    A(3,4,6)              108.9728         estimate D2E/DX2                !
 ! A4    A(3,4,7)              108.1601         estimate D2E/DX2                !
 ! A5    A(5,4,6)              110.7355         estimate D2E/DX2                !
 ! A6    A(5,4,7)              109.9739         estimate D2E/DX2                !
 ! A7    A(6,4,7)              109.9763         estimate D2E/DX2                !
 ! A8    L(1,2,3,5,-1)         180.0019         estimate D2E/DX2                !
 ! A9    L(1,2,3,5,-2)         179.9966         estimate D2E/DX2                !
 ! D1    D(2,3,4,5)             60.471          estimate D2E/DX2                !
 ! D2    D(2,3,4,6)            -60.4633         estimate D2E/DX2                !
 ! D3    D(2,3,4,7)           -179.9989         estimate D2E/DX2                !
 --------------------------------------------------------------------------------
 Trust Radius=3.00D-01 FncErr=1.00D-07 GrdErr=1.00D-06
 Number of steps in this run=     28 maximum allowed number of steps=    100.
 GradGradGradGradGradGradGradGradGradGradGradGradGradGradGradGradGradGrad

 Leave Link  103 at Fri Aug 26 06:34:05 2022, MaxMem= 24159191040 cpu:         0.3
 (Enter /public/home/users/caep010/software/Gaussian09/g09/l202.exe)
                          Input orientation:                          
 ---------------------------------------------------------------------
 Center     Atomic      Atomic             Coordinates (Angstroms)
 Number     Number       Type             X           Y           Z
 ---------------------------------------------------------------------
      1          7           0        2.592000   -0.258800    0.040200
      2          6           0        1.534900    0.207100    0.108000
      3          7           0        0.253800    0.771800    0.190200
      4          7           0       -0.888000   -0.038400    0.265600
      5          1           0       -0.828000   -0.631100    1.124800
      6          1           0       -0.939400   -0.634000   -0.592100
      7          1           0       -1.725400    0.583400    0.318900
 ---------------------------------------------------------------------
                    Distance matrix (angstroms):
                    1          2          3          4          5
     1  N    0.000000
     2  C    1.157204   0.000000
     3  N    2.559651   1.402448   0.000000
     4  N    3.494250   2.440400   1.402076   0.000000
     5  H    3.607127   2.705505   2.002972   1.045523   0.000000
     6  H    3.607127   2.705504   2.002996   1.045481   1.720513
     7  H    4.407598   3.288714   1.992308   1.044373   1.711669
                    6          7
     6  H    0.000000
     7  H    1.711660   0.000000
 Stoichiometry    CH3N3
 Framework group  C1[X(CH3N3)]
 Deg. of freedom    15
 Full point group                 C1      NOp   1
 Largest Abelian subgroup         C1      NOp   1
 Largest concise Abelian subgroup C1      NOp   1
                         Standard orientation:                         
 ---------------------------------------------------------------------
 Center     Atomic      Atomic             Coordinates (Angstroms)
 Number     Number       Type             X           Y           Z
 ---------------------------------------------------------------------
      1          7           0        1.970111   -0.258298    0.000005
      2          6           0        0.882303    0.136410   -0.000011
      3          7           0       -0.436019    0.614831    0.000003
      4          7           0       -1.524121   -0.269392   -0.000009
      5          1           0       -1.480526   -0.861920    0.860298
      6          1           0       -1.480532   -0.861993   -0.860214
      7          1           0       -2.402562    0.295459   -0.000014
 ---------------------------------------------------------------------
 Rotational constants (GHZ):     48.2667301      4.5880098      4.2960035
 Leave Link  202 at Fri Aug 26 06:34:05 2022, MaxMem= 24159191040 cpu:         0.6
 (Enter /public/home/users/caep010/software/Gaussian09/g09/l301.exe)
 Standard basis: GTBas3 (6D, 7F)
 Ernie: Thresh=  0.10000D-02 Tol=  0.10000D-05 Strict=F.
 There are   139 symmetry adapted cartesian basis functions of A   symmetry.
 There are   127 symmetry adapted basis functions of A   symmetry.
   127 basis functions,   197 primitive gaussians,   139 cartesian basis functions
    15 alpha electrons       15 beta electrons
       nuclear repulsion energy       103.5292951340 Hartrees.
 IExCor=  402 DFT=T Ex+Corr=B3LYP ExCW=0 ScaHFX=  0.200000
 ScaDFX=  0.800000  0.720000  1.000000  0.810000 ScalE2=  1.000000  1.000000
 IRadAn=      0 IRanWt=     -1 IRanGd=            0 ICorTp=0 IEmpDi=  4
 NAtoms=    7 NActive=    7 NUniq=    7 SFac= 1.00D+00 NAtFMM=   60 NAOKFM=F Big=F
 Integral buffers will be    131072 words long.
 Raffenetti 2 integral format.
 Two-electron integral symmetry is turned on.
 Leave Link  301 at Fri Aug 26 06:34:05 2022, MaxMem= 24159191040 cpu:         1.8
 (Enter /public/home/users/caep010/software/Gaussian09/g09/l302.exe)
 NPDir=0 NMtPBC=     1 NCelOv=     1 NCel=       1 NClECP=     1 NCelD=      1
         NCelK=      1 NCelE2=     1 NClLst=     1 CellRange=     0.0.
 One-electron integrals computed using PRISM.
 NBasis=   127 RedAO= T EigKep=  1.46D-04  NBF=   127
 NBsUse=   127 1.00D-06 EigRej= -1.00D+00 NBFU=   127
 Precomputing XC quadrature grid using
 IXCGrd= 4 IRadAn=           0 IRanWt=          -1 IRanGd=           0 AccXCQ= 0.00D+00.
 Generated NRdTot=       0 NPtTot=           0 NUsed=           0 NTot=          32
 NSgBfM=   139   139   139   139   139 MxSgAt=     7 MxSgA2=     7.
 Leave Link  302 at Fri Aug 26 06:34:05 2022, MaxMem= 24159191040 cpu:        13.4
 (Enter /public/home/users/caep010/software/Gaussian09/g09/l303.exe)
 DipDrv:  MaxL=1.
 Leave Link  303 at Fri Aug 26 06:34:06 2022, MaxMem= 24159191040 cpu:         0.6
 (Enter /public/home/users/caep010/software/Gaussian09/g09/l401.exe)
 ExpMin= 1.61D-01 ExpMax= 4.17D+03 ExpMxC= 6.27D+02 IAcc=1 IRadAn=         1 AccDes= 0.00D+00
 Harris functional with IExCor=  402 and IRadAn=       1 diagonalized for initial guess.
 HarFok:  IExCor=  402 AccDes= 0.00D+00 IRadAn=         1 IDoV= 1 UseB2=F ITyADJ=14
 ICtDFT=  3500011 ScaDFX=  1.000000  1.000000  1.000000  1.000000
 FoFCou: FMM=F IPFlag=           0 FMFlag=      100000 FMFlg1=           0
         NFxFlg=           0 DoJE=T BraDBF=F KetDBF=T FulRan=T
         wScrn=  0.000000 ICntrl=     500 IOpCl=  0 I1Cent=   200000004 NGrid=           0
         NMat0=    1 NMatS0=      1 NMatT0=    0 NMatD0=    1 NMtDS0=    0 NMtDT0=    0
 Petite list used in FoFCou.
 Harris En= -204.088536785373    
 JPrj=0 DoOrth=F DoCkMO=F.
 Leave Link  401 at Fri Aug 26 06:34:06 2022, MaxMem= 24159191040 cpu:        12.0
 (Enter /public/home/users/caep010/software/Gaussian09/g09/l502.exe)
 Closed shell SCF:
 Using DIIS extrapolation, IDIIS=  1040.
 Integral symmetry usage will be decided dynamically.
 Keep R1 ints in memory in canonical form, NReq=35099105.
 IVT=       81969 IEndB=       81969 NGot= 24159191040 MDV= 24126072816
 LenX= 24126072816 LenY= 24126053054
 Requested convergence on RMS density matrix=1.00D-08 within 128 cycles.
 Requested convergence on MAX density matrix=1.00D-06.
 Requested convergence on             energy=1.00D-06.
 No special actions if energy rises.
 FoFCou: FMM=F IPFlag=           0 FMFlag=           0 FMFlg1=           0
         NFxFlg=           0 DoJE=F BraDBF=F KetDBF=F FulRan=T
         wScrn=  0.000000 ICntrl=     600 IOpCl=  0 I1Cent=           0 NGrid=           0
         NMat0=    1 NMatS0=   8128 NMatT0=    0 NMatD0=    1 NMtDS0=    0 NMtDT0=    0
 Symmetry not used in FoFCou.
 Integral accuracy reduced to 1.0D-05 until final iterations.

 Cycle   1  Pass 0  IDiag  1:
 E= -203.918910386256    
 DIIS: error= 2.89D-02 at cycle   1 NSaved=   1.
 NSaved= 1 IEnMin= 1 EnMin= -203.918910386256     IErMin= 1 ErrMin= 2.89D-02
 ErrMax= 2.89D-02  0.00D+00 EMaxC= 1.00D-01 BMatC= 1.34D-01 BMatP= 1.34D-01
 IDIUse=3 WtCom= 7.11D-01 WtEn= 2.89D-01
 Coeff-Com:  0.100D+01
 Coeff-En:   0.100D+01
 Coeff:      0.100D+01
 Gap=     0.273 Goal=   None    Shift=    0.000
 GapD=    0.273 DampG=1.000 DampE=0.500 DampFc=0.5000 IDamp=-1.
 Damping current iteration by 5.00D-01
 RMSDP=1.04D-02 MaxDP=2.41D-01              OVMax= 3.70D-01

 Cycle   2  Pass 0  IDiag  1:
 E= -203.931252650095     Delta-E=       -0.012342263839 Rises=F Damp=T
 DIIS: error= 2.04D-02 at cycle   2 NSaved=   2.
 NSaved= 2 IEnMin= 2 EnMin= -203.931252650095     IErMin= 2 ErrMin= 2.04D-02
 ErrMax= 2.04D-02  0.00D+00 EMaxC= 1.00D-01 BMatC= 3.49D-02 BMatP= 1.34D-01
 IDIUse=3 WtCom= 7.96D-01 WtEn= 2.04D-01
 Coeff-Com:  0.282D+00 0.718D+00
 Coeff-En:   0.459D+00 0.541D+00
 Coeff:      0.318D+00 0.682D+00
 Gap=     0.156 Goal=   None    Shift=    0.000
 RMSDP=3.02D-03 MaxDP=8.50D-02 DE=-1.23D-02 OVMax= 2.26D-01

 Cycle   3  Pass 0  IDiag  1:
 E= -204.028943682926     Delta-E=       -0.097691032831 Rises=F Damp=F
 DIIS: error= 1.26D-02 at cycle   3 NSaved=   3.
 NSaved= 3 IEnMin= 3 EnMin= -204.028943682926     IErMin= 3 ErrMin= 1.26D-02
 ErrMax= 1.26D-02  0.00D+00 EMaxC= 1.00D-01 BMatC= 2.30D-02 BMatP= 3.49D-02
 IDIUse=3 WtCom= 8.74D-01 WtEn= 1.26D-01
 Coeff-Com:  0.789D-01 0.437D+00 0.484D+00
 Coeff-En:   0.000D+00 0.000D+00 0.100D+01
 Coeff:      0.690D-01 0.382D+00 0.549D+00
 Gap=     0.195 Goal=   None    Shift=    0.000
 RMSDP=1.57D-03 MaxDP=4.23D-02 DE=-9.77D-02 OVMax= 6.96D-02

 Cycle   4  Pass 0  IDiag  1:
 E= -204.045954593878     Delta-E=       -0.017010910952 Rises=F Damp=F
 DIIS: error= 5.07D-03 at cycle   4 NSaved=   4.
 NSaved= 4 IEnMin= 4 EnMin= -204.045954593878     IErMin= 4 ErrMin= 5.07D-03
 ErrMax= 5.07D-03  0.00D+00 EMaxC= 1.00D-01 BMatC= 5.33D-03 BMatP= 2.30D-02
 IDIUse=3 WtCom= 9.49D-01 WtEn= 5.07D-02
 Coeff-Com:  0.715D-02 0.722D-01 0.338D+00 0.583D+00
 Coeff-En:   0.000D+00 0.000D+00 0.223D+00 0.777D+00
 Coeff:      0.679D-02 0.685D-01 0.332D+00 0.593D+00
 Gap=     0.181 Goal=   None    Shift=    0.000
 RMSDP=5.60D-04 MaxDP=1.78D-02 DE=-1.70D-02 OVMax= 2.47D-02

 Cycle   5  Pass 0  IDiag  1:
 E= -204.050392566183     Delta-E=       -0.004437972305 Rises=F Damp=F
 DIIS: error= 1.15D-03 at cycle   5 NSaved=   5.
 NSaved= 5 IEnMin= 5 EnMin= -204.050392566183     IErMin= 5 ErrMin= 1.15D-03
 ErrMax= 1.15D-03  0.00D+00 EMaxC= 1.00D-01 BMatC= 2.85D-04 BMatP= 5.33D-03
 IDIUse=3 WtCom= 9.88D-01 WtEn= 1.15D-02
 Coeff-Com: -0.402D-02-0.961D-03 0.147D+00 0.336D+00 0.523D+00
 Coeff-En:   0.000D+00 0.000D+00 0.000D+00 0.000D+00 0.100D+01
 Coeff:     -0.397D-02-0.949D-03 0.145D+00 0.332D+00 0.528D+00
 Gap=     0.182 Goal=   None    Shift=    0.000
 RMSDP=1.13D-04 MaxDP=3.24D-03 DE=-4.44D-03 OVMax= 4.66D-03

 Cycle   6  Pass 0  IDiag  1:
 E= -204.050625710287     Delta-E=       -0.000233144104 Rises=F Damp=F
 DIIS: error= 1.62D-04 at cycle   6 NSaved=   6.
 NSaved= 6 IEnMin= 6 EnMin= -204.050625710287     IErMin= 6 ErrMin= 1.62D-04
 ErrMax= 1.62D-04  0.00D+00 EMaxC= 1.00D-01 BMatC= 6.31D-06 BMatP= 2.85D-04
 IDIUse=3 WtCom= 9.98D-01 WtEn= 1.62D-03
 Coeff-Com: -0.523D-03-0.383D-02 0.210D-01 0.398D-01 0.145D+00 0.799D+00
 Coeff-En:   0.000D+00 0.000D+00 0.000D+00 0.000D+00 0.000D+00 0.100D+01
 Coeff:     -0.522D-03-0.382D-02 0.209D-01 0.397D-01 0.144D+00 0.799D+00
 Gap=     0.182 Goal=   None    Shift=    0.000
 RMSDP=1.98D-05 MaxDP=4.00D-04 DE=-2.33D-04 OVMax= 8.57D-04

 Cycle   7  Pass 0  IDiag  1:
 E= -204.050631478921     Delta-E=       -0.000005768634 Rises=F Damp=F
 DIIS: error= 2.49D-05 at cycle   7 NSaved=   7.
 NSaved= 7 IEnMin= 7 EnMin= -204.050631478921     IErMin= 7 ErrMin= 2.49D-05
 ErrMax= 2.49D-05  0.00D+00 EMaxC= 1.00D-01 BMatC= 9.30D-08 BMatP= 6.31D-06
 IDIUse=1 WtCom= 1.00D+00 WtEn= 0.00D+00
 Coeff-Com:  0.150D-03-0.549D-03-0.853D-03-0.552D-02 0.953D-02 0.156D+00
 Coeff-Com:  0.841D+00
 Coeff:      0.150D-03-0.549D-03-0.853D-03-0.552D-02 0.953D-02 0.156D+00
 Coeff:      0.841D+00
 Gap=     0.182 Goal=   None    Shift=    0.000
 RMSDP=3.85D-06 MaxDP=7.35D-05 DE=-5.77D-06 OVMax= 1.51D-04

 Initial convergence to 1.0D-05 achieved.  Increase integral accuracy.
 Cycle   8  Pass 1  IDiag  1:
 E= -204.050638676744     Delta-E=       -0.000007197823 Rises=F Damp=F
 DIIS: error= 1.55D-05 at cycle   1 NSaved=   1.
 NSaved= 1 IEnMin= 1 EnMin= -204.050638676744     IErMin= 1 ErrMin= 1.55D-05
 ErrMax= 1.55D-05  0.00D+00 EMaxC= 1.00D-01 BMatC= 4.20D-08 BMatP= 4.20D-08
 IDIUse=1 WtCom= 1.00D+00 WtEn= 0.00D+00
 Coeff-Com:  0.100D+01
 Coeff:      0.100D+01
 Gap=     0.182 Goal=   None    Shift=    0.000
 RMSDP=3.85D-06 MaxDP=7.35D-05 DE=-7.20D-06 OVMax= 1.14D-04

 Cycle   9  Pass 1  IDiag  1:
 E= -204.050638637415     Delta-E=        0.000000039329 Rises=F Damp=F
 DIIS: error= 2.08D-05 at cycle   2 NSaved=   2.
 NSaved= 2 IEnMin= 1 EnMin= -204.050638676744     IErMin= 1 ErrMin= 1.55D-05
 ErrMax= 2.08D-05  0.00D+00 EMaxC= 1.00D-01 BMatC= 8.84D-08 BMatP= 4.20D-08
 IDIUse=1 WtCom= 1.00D+00 WtEn= 0.00D+00
 Coeff-Com:  0.596D+00 0.404D+00
 Coeff:      0.596D+00 0.404D+00
 Gap=     0.182 Goal=   None    Shift=    0.000
 RMSDP=1.85D-06 MaxDP=4.88D-05 DE= 3.93D-08 OVMax= 6.55D-05

 Cycle  10  Pass 1  IDiag  1:
 E= -204.050638715519     Delta-E=       -0.000000078104 Rises=F Damp=F
 DIIS: error= 1.42D-06 at cycle   3 NSaved=   3.
 NSaved= 3 IEnMin= 3 EnMin= -204.050638715519     IErMin= 3 ErrMin= 1.42D-06
 ErrMax= 1.42D-06  0.00D+00 EMaxC= 1.00D-01 BMatC= 4.91D-10 BMatP= 4.20D-08
 IDIUse=1 WtCom= 1.00D+00 WtEn= 0.00D+00
 Coeff-Com:  0.956D-01 0.935D-01 0.811D+00
 Coeff:      0.956D-01 0.935D-01 0.811D+00
 Gap=     0.182 Goal=   None    Shift=    0.000
 RMSDP=3.49D-07 MaxDP=9.91D-06 DE=-7.81D-08 OVMax= 1.51D-05

 Cycle  11  Pass 1  IDiag  1:
 E= -204.050638715309     Delta-E=        0.000000000210 Rises=F Damp=F
 DIIS: error= 2.37D-06 at cycle   4 NSaved=   4.
 NSaved= 4 IEnMin= 3 EnMin= -204.050638715519     IErMin= 3 ErrMin= 1.42D-06
 ErrMax= 2.37D-06  0.00D+00 EMaxC= 1.00D-01 BMatC= 7.61D-10 BMatP= 4.91D-10
 IDIUse=1 WtCom= 1.00D+00 WtEn= 0.00D+00
 Coeff-Com:  0.392D-02 0.244D-01 0.582D+00 0.390D+00
 Coeff:      0.392D-02 0.244D-01 0.582D+00 0.390D+00
 Gap=     0.182 Goal=   None    Shift=    0.000
 RMSDP=2.08D-07 MaxDP=6.15D-06 DE= 2.10D-10 OVMax= 1.04D-05

 Cycle  12  Pass 1  IDiag  1:
 E= -204.050638715936     Delta-E=       -0.000000000627 Rises=F Damp=F
 DIIS: error= 7.69D-07 at cycle   5 NSaved=   5.
 NSaved= 5 IEnMin= 5 EnMin= -204.050638715936     IErMin= 5 ErrMin= 7.69D-07
 ErrMax= 7.69D-07  0.00D+00 EMaxC= 1.00D-01 BMatC= 5.59D-11 BMatP= 4.91D-10
 IDIUse=1 WtCom= 1.00D+00 WtEn= 0.00D+00
 Coeff-Com: -0.843D-02 0.495D-02 0.273D+00 0.259D+00 0.472D+00
 Coeff:     -0.843D-02 0.495D-02 0.273D+00 0.259D+00 0.472D+00
 Gap=     0.182 Goal=   None    Shift=    0.000
 RMSDP=6.15D-08 MaxDP=1.95D-06 DE=-6.27D-10 OVMax= 2.46D-06

 Cycle  13  Pass 1  IDiag  1:
 E= -204.050638715988     Delta-E=       -0.000000000051 Rises=F Damp=F
 DIIS: error= 9.63D-08 at cycle   6 NSaved=   6.
 NSaved= 6 IEnMin= 6 EnMin= -204.050638715988     IErMin= 6 ErrMin= 9.63D-08
 ErrMax= 9.63D-08  0.00D+00 EMaxC= 1.00D-01 BMatC= 2.19D-12 BMatP= 5.59D-11
 IDIUse=1 WtCom= 1.00D+00 WtEn= 0.00D+00
 Coeff-Com: -0.509D-02 0.995D-03 0.106D+00 0.116D+00 0.237D+00 0.545D+00
 Coeff:     -0.509D-02 0.995D-03 0.106D+00 0.116D+00 0.237D+00 0.545D+00
 Gap=     0.182 Goal=   None    Shift=    0.000
 RMSDP=1.12D-08 MaxDP=3.31D-07 DE=-5.13D-11 OVMax= 4.46D-07

 Cycle  14  Pass 1  IDiag  1:
 E= -204.050638715989     Delta-E=       -0.000000000001 Rises=F Damp=F
 DIIS: error= 3.38D-08 at cycle   7 NSaved=   7.
 NSaved= 7 IEnMin= 7 EnMin= -204.050638715989     IErMin= 7 ErrMin= 3.38D-08
 ErrMax= 3.38D-08  0.00D+00 EMaxC= 1.00D-01 BMatC= 1.61D-13 BMatP= 2.19D-12
 IDIUse=1 WtCom= 1.00D+00 WtEn= 0.00D+00
 Coeff-Com: -0.465D-03-0.410D-03-0.608D-02 0.139D-02-0.146D-02 0.195D+00
 Coeff-Com:  0.812D+00
 Coeff:     -0.465D-03-0.410D-03-0.608D-02 0.139D-02-0.146D-02 0.195D+00
 Coeff:      0.812D+00
 Gap=     0.182 Goal=   None    Shift=    0.000
 RMSDP=5.34D-09 MaxDP=1.48D-07 DE=-1.25D-12 OVMax= 2.56D-07

 SCF Done:  E(RB3LYP) =  -204.050638716     A.U. after   14 cycles
            NFock= 14  Conv=0.53D-08     -V/T= 2.0075
 KE= 2.025301394384D+02 PE=-6.834737408483D+02 EE= 1.733636675599D+02
 Leave Link  502 at Fri Aug 26 06:34:08 2022, MaxMem= 24159191040 cpu:        39.4
 (Enter /public/home/users/caep010/software/Gaussian09/g09/l601.exe)
 Copying SCF densities to generalized density rwf, IOpCl= 0 IROHF=0.

 **********************************************************************

            Population analysis using the SCF density.

 **********************************************************************

 Orbital symmetries:
       Occupied  (A) (A) (A) (A) (A) (A) (A) (A) (A) (A) (A) (A)
                 (A) (A) (A)
       Virtual   (A) (A) (A) (A) (A) (A) (A) (A) (A) (A) (A) (A)
                 (A) (A) (A) (A) (A) (A) (A) (A) (A) (A) (A) (A)
                 (A) (A) (A) (A) (A) (A) (A) (A) (A) (A) (A) (A)
                 (A) (A) (A) (A) (A) (A) (A) (A) (A) (A) (A) (A)
                 (A) (A) (A) (A) (A) (A) (A) (A) (A) (A) (A) (A)
                 (A) (A) (A) (A) (A) (A) (A) (A) (A) (A) (A) (A)
                 (A) (A) (A) (A) (A) (A) (A) (A) (A) (A) (A) (A)
                 (A) (A) (A) (A) (A) (A) (A) (A) (A) (A) (A) (A)
                 (A) (A) (A) (A) (A) (A) (A) (A) (A) (A) (A) (A)
                 (A) (A) (A) (A)
 The electronic state is 1-A.
 Alpha  occ. eigenvalues --  -14.51167 -14.31808 -14.27049 -10.19954  -1.05414
 Alpha  occ. eigenvalues --   -0.86038  -0.78701  -0.61735  -0.61172  -0.55789
 Alpha  occ. eigenvalues --   -0.33504  -0.32589  -0.31316  -0.24605  -0.19648
 Alpha virt. eigenvalues --   -0.01444   0.05154   0.05203   0.07112   0.14727
 Alpha virt. eigenvalues --    0.15175   0.24606   0.38995   0.43042   0.47034
 Alpha virt. eigenvalues --    0.49193   0.53783   0.55550   0.60775   0.62918
 Alpha virt. eigenvalues --    0.64724   0.67007   0.69340   0.71036   0.72464
 Alpha virt. eigenvalues --    0.74193   0.75234   0.80610   0.84707   0.86268
 Alpha virt. eigenvalues --    0.89408   0.91568   0.96349   1.00239   1.11471
 Alpha virt. eigenvalues --    1.16797   1.19574   1.25168   1.37555   1.41820
 Alpha virt. eigenvalues --    1.45948   1.46588   1.52345   1.61399   1.73030
 Alpha virt. eigenvalues --    1.73908   1.75779   1.80405   1.89595   1.97186
 Alpha virt. eigenvalues --    1.98865   2.05008   2.27629   2.34666   2.37452
 Alpha virt. eigenvalues --    2.43555   2.66413   2.71204   2.79687   2.81844
 Alpha virt. eigenvalues --    2.84005   2.84034   2.86326   2.94302   2.94607
 Alpha virt. eigenvalues --    3.00864   3.16626   3.20718   3.46844   3.57515
 Alpha virt. eigenvalues --    3.60593   3.62133   3.71202   3.72933   3.73733
 Alpha virt. eigenvalues --    3.74714   3.74765   3.76640   3.94459   4.03453
 Alpha virt. eigenvalues --    4.06968   4.08585   4.12054   4.16805   4.20177
 Alpha virt. eigenvalues --    4.22150   4.26147   4.27889   4.30821   4.33456
 Alpha virt. eigenvalues --    4.35671   4.39183   4.44792   4.48285   4.51309
 Alpha virt. eigenvalues --    4.52884   4.56948   4.58226   4.69547   4.70125
 Alpha virt. eigenvalues --    4.78426   4.99942   5.00399   5.08682   5.16490
 Alpha virt. eigenvalues --    5.26604   5.40326   5.49947   5.58049   6.24173
 Alpha virt. eigenvalues --    8.32371  10.37752  11.09035  11.43062  11.49076
 Alpha virt. eigenvalues --   14.34322  22.15138
          Condensed to atoms (all electrons):
               1          2          3          4          5          6
     1  N    6.393861   0.974180  -0.015940  -0.002757   0.001654   0.001654
     2  C    0.974180   4.338540   0.531732  -0.079106   0.004100   0.004100
     3  N   -0.015940   0.531732   6.842719   0.250280  -0.037222  -0.037211
     4  N   -0.002757  -0.079106   0.250280   6.217622   0.298782   0.298787
     5  H    0.001654   0.004100  -0.037222   0.298782   0.470569  -0.027122
     6  H    0.001654   0.004100  -0.037211   0.298787  -0.027122   0.470557
     7  H   -0.000026   0.002251  -0.037261   0.350378  -0.022005  -0.022004
               7
     1  N   -0.000026
     2  C    0.002251
     3  N   -0.037261
     4  N    0.350378
     5  H   -0.022005
     6  H   -0.022004
     7  H    0.391647
 Mulliken charges:
               1
     1  N   -0.352626
     2  C    0.224204
     3  N   -0.497098
     4  N   -0.333986
     5  H    0.311244
     6  H    0.311240
     7  H    0.337021
 Sum of Mulliken charges =  -0.00000
 Mulliken charges with hydrogens summed into heavy atoms:
               1
     1  N   -0.352626
     2  C    0.224204
     3  N   -0.497098
     4  N    0.625520
 Electronic spatial extent (au):  <R**2>=            286.7724
 Charge=             -0.0000 electrons
 Dipole moment (field-independent basis, Debye):
    X=             -8.3330    Y=             -2.3913    Z=              0.0000  Tot=              8.6693
 Quadrupole moment (field-independent basis, Debye-Ang):
   XX=            -21.1624   YY=            -23.7138   ZZ=            -22.0352
   XY=              4.1213   XZ=             -0.0001   YZ=              0.0000
 Traceless Quadrupole moment (field-independent basis, Debye-Ang):
   XX=              1.1414   YY=             -1.4100   ZZ=              0.2686
   XY=              4.1213   XZ=             -0.0001   YZ=              0.0000
 Octapole moment (field-independent basis, Debye-Ang**2):
  XXX=            -53.2864  YYY=             -5.0918  ZZZ=              0.0003  XYY=             -4.7281
  XXY=              2.6336  XXZ=             -0.0001  XZZ=             -6.0976  YZZ=             -3.0607
  YYZ=             -0.0001  XYZ=             -0.0000
 Hexadecapole moment (field-independent basis, Debye-Ang**3):
 XXXX=           -283.8835 YYYY=            -46.1907 ZZZZ=            -23.8758 XXXY=              6.4616
 XXXZ=              0.0002 YYYX=              6.3560 YYYZ=              0.0003 ZZZX=             -0.0003
 ZZZY=             -0.0001 XXYY=            -53.5782 XXZZ=            -49.5371 YYZZ=            -10.5991
 XXYZ=              0.0002 YYXZ=              0.0002 ZZXY=              4.0410
 N-N= 1.035292951340D+02 E-N=-6.834737437974D+02  KE= 2.025301394384D+02
 No NMR shielding tensors so no spin-rotation constants.
 Leave Link  601 at Fri Aug 26 06:34:09 2022, MaxMem= 24159191040 cpu:        13.2
 (Enter /public/home/users/caep010/software/Gaussian09/g09/l701.exe)
 Compute integral first derivatives.
 ... and contract with generalized density number  0.
 Leave Link  701 at Fri Aug 26 06:34:09 2022, MaxMem= 24159191040 cpu:        13.9
 (Enter /public/home/users/caep010/software/Gaussian09/g09/l702.exe)
 L702 exits ... SP integral derivatives will be done elsewhere.
 Leave Link  702 at Fri Aug 26 06:34:09 2022, MaxMem= 24159191040 cpu:         0.5
 (Enter /public/home/users/caep010/software/Gaussian09/g09/l703.exe)
 Compute integral first derivatives, UseDBF=F ICtDFT=           0.
 Integral derivatives from FoFJK, PRISM(SPDF).
 Calling FoFJK, ICntrl=      2127 FMM=F ISym2X=0 I1Cent= 0 IOpClX= 0 NMat=1 NMatS=1 NMatT=0.
 FoFJK:  IHMeth= 1 ICntrl=    2127 DoSepK=F KAlg= 0 I1Cent=   0 FoldK=F
 IRaf=         0 NMat=   1 IRICut=       1 DoRegI=T DoRafI=F ISym2E= 0.
 FoFCou: FMM=F IPFlag=           0 FMFlag=      100000 FMFlg1=         800
         NFxFlg=           0 DoJE=F BraDBF=F KetDBF=F FulRan=T
         wScrn=  0.000000 ICntrl=    2127 IOpCl=  0 I1Cent=           0 NGrid=           0
         NMat0=    1 NMatS0=      1 NMatT0=    0 NMatD0=    1 NMtDS0=    0 NMtDT0=    0
 Symmetry not used in FoFCou.
 Leave Link  703 at Fri Aug 26 06:34:10 2022, MaxMem= 24159191040 cpu:        20.0
 (Enter /public/home/users/caep010/software/Gaussian09/g09/l716.exe)
 Dipole        =-3.27845172D+00-9.40820827D-01 1.01220548D-05
 ***** Axes restored to original set *****
 -------------------------------------------------------------------
 Center     Atomic                   Forces (Hartrees/Bohr)
 Number     Number              X              Y              Z
 -------------------------------------------------------------------
      1        7           0.028066156   -0.006317268   -0.001811240
      2        6          -0.108010298    0.007908892    0.006996374
      3        7           0.071472831    0.039966903   -0.004708597
      4        7           0.017146354   -0.027544349   -0.001035391
      5        1          -0.013847242   -0.001791351   -0.011353594
      6        1          -0.012261496   -0.001761131    0.013028207
      7        1           0.017433695   -0.010461696   -0.001115760
 -------------------------------------------------------------------
 Cartesian Forces:  Max     0.108010298 RMS     0.031961239
 Leave Link  716 at Fri Aug 26 06:34:10 2022, MaxMem= 24159191040 cpu:         0.7
 (Enter /public/home/users/caep010/software/Gaussian09/g09/l103.exe)

 GradGradGradGradGradGradGradGradGradGradGradGradGradGradGradGradGradGrad
 Berny optimization.
 FormGI is forming the generalized inverse of G from B-inverse, IUseBI=4.
 Internal  Forces:  Max     0.073971648 RMS     0.027261039
 Search for a local minimum.
 Step number   1 out of a maximum of   28
 All quantities printed in internal units (Hartrees-Bohrs-Radians)
 RMS Force = .27261D-01 SwitMx=.10000D-02 MixMth= 1
 Mixed Optimization -- RFO/linear search
 Second derivative matrix not updated -- first step.
 The second derivative matrix:
                          R1        R2        R3        R4        R5
           R1           1.29641
           R2           0.00000   0.45217
           R3           0.00000   0.00000   0.45278
           R4           0.00000   0.00000   0.00000   0.40503
           R5           0.00000   0.00000   0.00000   0.00000   0.40509
           R6           0.00000   0.00000   0.00000   0.00000   0.00000
           A1           0.00000   0.00000   0.00000   0.00000   0.00000
           A2           0.00000   0.00000   0.00000   0.00000   0.00000
           A3           0.00000   0.00000   0.00000   0.00000   0.00000
           A4           0.00000   0.00000   0.00000   0.00000   0.00000
           A5           0.00000   0.00000   0.00000   0.00000   0.00000
           A6           0.00000   0.00000   0.00000   0.00000   0.00000
           A7           0.00000   0.00000   0.00000   0.00000   0.00000
           A8           0.00000   0.00000   0.00000   0.00000   0.00000
           A9           0.00000   0.00000   0.00000   0.00000   0.00000
           D1           0.00000   0.00000   0.00000   0.00000   0.00000
           D2           0.00000   0.00000   0.00000   0.00000   0.00000
           D3           0.00000   0.00000   0.00000   0.00000   0.00000
                          R6        A1        A2        A3        A4
           R6           0.40666
           A1           0.00000   0.25000
           A2           0.00000   0.00000   0.16000
           A3           0.00000   0.00000   0.00000   0.16000
           A4           0.00000   0.00000   0.00000   0.00000   0.16000
           A5           0.00000   0.00000   0.00000   0.00000   0.00000
           A6           0.00000   0.00000   0.00000   0.00000   0.00000
           A7           0.00000   0.00000   0.00000   0.00000   0.00000
           A8           0.00000   0.00000   0.00000   0.00000   0.00000
           A9           0.00000   0.00000   0.00000   0.00000   0.00000
           D1           0.00000   0.00000   0.00000   0.00000   0.00000
           D2           0.00000   0.00000   0.00000   0.00000   0.00000
           D3           0.00000   0.00000   0.00000   0.00000   0.00000
                          A5        A6        A7        A8        A9
           A5           0.16000
           A6           0.00000   0.16000
           A7           0.00000   0.00000   0.16000
           A8           0.00000   0.00000   0.00000   0.01659
           A9           0.00000   0.00000   0.00000   0.00000   0.01659
           D1           0.00000   0.00000   0.00000   0.00000   0.00000
           D2           0.00000   0.00000   0.00000   0.00000   0.00000
           D3           0.00000   0.00000   0.00000   0.00000   0.00000
                          D1        D2        D3
           D1           0.01267
           D2           0.00000   0.01267
           D3           0.00000   0.00000   0.01267
 ITU=  0
     Eigenvalues ---    0.01267   0.01659   0.01659   0.10411   0.10529
     Eigenvalues ---    0.16000   0.16000   0.16000   0.25000   0.40503
     Eigenvalues ---    0.40509   0.40666   0.45217   0.45278   1.29641
 RFO step:  Lambda=-3.92422654D-02 EMin= 1.26734654D-02
 Linear search not attempted -- first point.
 Maximum step size (   0.300) exceeded in Quadratic search.
    -- Step size scaled by   0.750
 Iteration  1 RMS(Cart)=  0.08438513 RMS(Int)=  0.00506586
 Iteration  2 RMS(Cart)=  0.00551919 RMS(Int)=  0.00131543
 Iteration  3 RMS(Cart)=  0.00001124 RMS(Int)=  0.00131540
 Iteration  4 RMS(Cart)=  0.00000002 RMS(Int)=  0.00131540
 ITry= 1 IFail=0 DXMaxC= 2.00D-01 DCOld= 1.00D+10 DXMaxT= 3.00D-01 DXLimC= 3.00D+00 Rises=F
 Variable       Old X    -DE/DX   Delta X   Delta X   Delta X     New X
                                 (Linear)    (Quad)   (Total)
    R1        2.18680   0.02829   0.00000   0.01588   0.01588   2.20268
    R2        2.65024  -0.07397   0.00000  -0.11288  -0.11288   2.53736
    R3        2.64954   0.01709   0.00000   0.02605   0.02605   2.67559
    R4        1.97575  -0.00911   0.00000  -0.01538  -0.01538   1.96038
    R5        1.97567  -0.00908   0.00000  -0.01533  -0.01533   1.96035
    R6        1.97358  -0.02026   0.00000  -0.03408  -0.03408   1.93950
    A1        2.11108  -0.06951   0.00000  -0.18022  -0.18022   1.93086
    A2        1.90185   0.02022   0.00000   0.07796   0.07625   1.97810
    A3        1.90193   0.02021   0.00000   0.07791   0.07619   1.97812
    A4        1.88775  -0.01112   0.00000  -0.04553  -0.04510   1.84265
    A5        1.93270  -0.01382   0.00000  -0.04465  -0.04785   1.88485
    A6        1.91941  -0.00743   0.00000  -0.03176  -0.03136   1.88805
    A7        1.91945  -0.00743   0.00000  -0.03177  -0.03137   1.88808
    A8        3.14163   0.01087   0.00000   0.14595   0.14595   3.28757
    A9        3.14153  -0.00385   0.00000  -0.05172  -0.05172   3.08981
    D1        1.05542   0.00384   0.00000   0.02007   0.02276   1.07818
    D2       -1.05528  -0.00384   0.00000  -0.02008  -0.02277  -1.07806
    D3       -3.14157   0.00000   0.00000   0.00002   0.00002  -3.14156
         Item               Value     Threshold  Converged?
 Maximum Force            0.073972     0.000450     NO 
 RMS     Force            0.027261     0.000300     NO 
 Maximum Displacement     0.199518     0.001800     NO 
 RMS     Displacement     0.086932     0.001200     NO 
 Predicted change in Energy=-2.018435D-02
 Lowest energy point so far.  Saving SCF results.
 GradGradGradGradGradGradGradGradGradGradGradGradGradGradGradGradGradGrad

 Leave Link  103 at Fri Aug 26 06:34:10 2022, MaxMem= 24159191040 cpu:         2.1
 (Enter /public/home/users/caep010/software/Gaussian09/g09/l202.exe)
                          Input orientation:                          
 ---------------------------------------------------------------------
 Center     Atomic      Atomic             Coordinates (Angstroms)
 Number     Number       Type             X           Y           Z
 ---------------------------------------------------------------------
      1          7           0        2.506638   -0.261296    0.032757
      2          6           0        1.429320    0.173706    0.126559
      3          7           0        0.273442    0.853754    0.192646
      4          7           0       -0.825644   -0.036128    0.261757
      5          1           0       -0.812019   -0.641370    1.104175
      6          1           0       -0.911795   -0.648290   -0.571293
      7          1           0       -1.660042    0.559624    0.309000
 ---------------------------------------------------------------------
                    Distance matrix (angstroms):
                    1          2          3          4          5
     1  N    0.000000
     2  C    1.165608   0.000000
     3  N    2.501213   1.342715   0.000000
     4  N    3.347723   2.268738   1.415859   0.000000
     5  H    3.507974   2.577534   2.060220   1.037386   0.000000
     6  H    3.492896   2.577497   2.060224   1.037370   1.678451
     7  H    4.255755   3.118714   1.959187   1.026339   1.671476
                    6          7
     6  H    0.000000
     7  H    1.671480   0.000000
 Stoichiometry    CH3N3
 Framework group  C1[X(CH3N3)]
 Deg. of freedom    15
 Full point group                 C1      NOp   1
 RotChk:  IX=0 Diff= 2.14D-02
 Largest Abelian subgroup         C1      NOp   1
 Largest concise Abelian subgroup C1      NOp   1
                         Standard orientation:                         
 ---------------------------------------------------------------------
 Center     Atomic      Atomic             Coordinates (Angstroms)
 Number     Number       Type             X           Y           Z
 ---------------------------------------------------------------------
      1          7           0        1.907701   -0.255001   -0.005889
      2          6           0        0.796150    0.095372    0.012445
      3          7           0       -0.410620    0.683856   -0.004194
      4          7           0       -1.439851   -0.288423   -0.000569
      5          1           0       -1.435875   -0.887904    0.846058
      6          1           0       -1.422578   -0.908263   -0.832217
      7          1           0       -2.319054    0.240913   -0.013944
 ---------------------------------------------------------------------
 Rotational constants (GHZ):     43.0224889      5.0282438      4.6191092
 Leave Link  202 at Fri Aug 26 06:34:10 2022, MaxMem= 24159191040 cpu:         0.2
 (Enter /public/home/users/caep010/software/Gaussian09/g09/l301.exe)
 Standard basis: GTBas3 (6D, 7F)
 Ernie: Thresh=  0.10000D-02 Tol=  0.10000D-05 Strict=F.
 There are   139 symmetry adapted cartesian basis functions of A   symmetry.
 There are   127 symmetry adapted basis functions of A   symmetry.
   127 basis functions,   197 primitive gaussians,   139 cartesian basis functions
    15 alpha electrons       15 beta electrons
       nuclear repulsion energy       105.4971820269 Hartrees.
 IExCor=  402 DFT=T Ex+Corr=B3LYP ExCW=0 ScaHFX=  0.200000
 ScaDFX=  0.800000  0.720000  1.000000  0.810000 ScalE2=  1.000000  1.000000
 IRadAn=      0 IRanWt=     -1 IRanGd=            0 ICorTp=0 IEmpDi=  4
 NAtoms=    7 NActive=    7 NUniq=    7 SFac= 1.00D+00 NAtFMM=   60 NAOKFM=F Big=F
 Integral buffers will be    131072 words long.
 Raffenetti 2 integral format.
 Two-electron integral symmetry is turned on.
 Leave Link  301 at Fri Aug 26 06:34:10 2022, MaxMem= 24159191040 cpu:         1.7
 (Enter /public/home/users/caep010/software/Gaussian09/g09/l302.exe)
 NPDir=0 NMtPBC=     1 NCelOv=     1 NCel=       1 NClECP=     1 NCelD=      1
         NCelK=      1 NCelE2=     1 NClLst=     1 CellRange=     0.0.
 One-electron integrals computed using PRISM.
 NBasis=   127 RedAO= T EigKep=  1.51D-04  NBF=   127
 NBsUse=   127 1.00D-06 EigRej= -1.00D+00 NBFU=   127
 Precomputing XC quadrature grid using
 IXCGrd= 4 IRadAn=           0 IRanWt=          -1 IRanGd=           0 AccXCQ= 0.00D+00.
 Generated NRdTot=       0 NPtTot=           0 NUsed=           0 NTot=          32
 NSgBfM=   139   139   139   139   139 MxSgAt=     7 MxSgA2=     7.
 Leave Link  302 at Fri Aug 26 06:34:11 2022, MaxMem= 24159191040 cpu:        13.5
 (Enter /public/home/users/caep010/software/Gaussian09/g09/l303.exe)
 DipDrv:  MaxL=1.
 Leave Link  303 at Fri Aug 26 06:34:11 2022, MaxMem= 24159191040 cpu:         0.8
 (Enter /public/home/users/caep010/software/Gaussian09/g09/l401.exe)
 Initial guess from the checkpoint file:  "G4.Frag_877.chk"
 B after Tr=     0.000000    0.000000    0.000000
         Rot=    0.999997    0.002086    0.000240   -0.001036 Ang=   0.27 deg.
 Guess basis will be translated and rotated to current coordinates.
 JPrj=2 DoOrth=T DoCkMO=T.
 Generating alternative initial guess.
 ExpMin= 1.61D-01 ExpMax= 4.17D+03 ExpMxC= 6.27D+02 IAcc=1 IRadAn=         1 AccDes= 0.00D+00
 Harris functional with IExCor=  402 and IRadAn=       1 diagonalized for initial guess.
 HarFok:  IExCor=  402 AccDes= 0.00D+00 IRadAn=         1 IDoV= 1 UseB2=F ITyADJ=14
 ICtDFT=  3500011 ScaDFX=  1.000000  1.000000  1.000000  1.000000
 FoFCou: FMM=F IPFlag=           0 FMFlag=      100000 FMFlg1=           0
         NFxFlg=           0 DoJE=T BraDBF=F KetDBF=T FulRan=T
         wScrn=  0.000000 ICntrl=     500 IOpCl=  0 I1Cent=   200000004 NGrid=           0
         NMat0=    1 NMatS0=      1 NMatT0=    0 NMatD0=    1 NMtDS0=    0 NMtDT0=    0
 Petite list used in FoFCou.
 Harris En= -204.102887935543    
 Leave Link  401 at Fri Aug 26 06:34:11 2022, MaxMem= 24159191040 cpu:        14.0
 (Enter /public/home/users/caep010/software/Gaussian09/g09/l502.exe)
 Closed shell SCF:
 Using DIIS extrapolation, IDIIS=  1040.
 Integral symmetry usage will be decided dynamically.
 Keep R1 ints in memory in canonical form, NReq=35099401.
 IVT=       81969 IEndB=       81969 NGot= 24159191040 MDV= 24126072816
 LenX= 24126072816 LenY= 24126053054
 Requested convergence on RMS density matrix=1.00D-08 within 128 cycles.
 Requested convergence on MAX density matrix=1.00D-06.
 Requested convergence on             energy=1.00D-06.
 No special actions if energy rises.
 FoFCou: FMM=F IPFlag=           0 FMFlag=           0 FMFlg1=           0
         NFxFlg=           0 DoJE=F BraDBF=F KetDBF=F FulRan=T
         wScrn=  0.000000 ICntrl=     600 IOpCl=  0 I1Cent=           0 NGrid=           0
         NMat0=    1 NMatS0=   8128 NMatT0=    0 NMatD0=    1 NMtDS0=    0 NMtDT0=    0
 Symmetry not used in FoFCou.
 Integral accuracy reduced to 1.0D-05 until final iterations.

 Cycle   1  Pass 0  IDiag  1:
 E= -204.059170244050    
 DIIS: error= 1.53D-02 at cycle   1 NSaved=   1.
 NSaved= 1 IEnMin= 1 EnMin= -204.059170244050     IErMin= 1 ErrMin= 1.53D-02
 ErrMax= 1.53D-02  0.00D+00 EMaxC= 1.00D-01 BMatC= 1.35D-02 BMatP= 1.35D-02
 IDIUse=3 WtCom= 8.47D-01 WtEn= 1.53D-01
 Coeff-Com:  0.100D+01
 Coeff-En:   0.100D+01
 Coeff:      0.100D+01
 Recover alternate guess density for next cycle.
 RMSDP=3.83D-03 MaxDP=8.13D-02              OVMax= 0.00D+00

 Cycle   2  Pass 0  IDiag  1:
 E= -203.932830678307     Delta-E=        0.126339565743 Rises=F Damp=F
 Switch densities from cycles 1 and 2 for lowest energy.
 DIIS: error= 3.01D-02 at cycle   2 NSaved=   2.
 NSaved= 2 IEnMin= 1 EnMin= -204.059170244050     IErMin= 1 ErrMin= 1.53D-02
 ErrMax= 3.01D-02  0.00D+00 EMaxC= 1.00D+00 BMatC= 1.35D-01 BMatP= 1.35D-02
 IDIUse=1 WtCom= 1.00D+00 WtEn= 0.00D+00
 Coeff-Com:  0.908D+00 0.921D-01
 Coeff:      0.908D+00 0.921D-01
 Gap=     0.254 Goal=   None    Shift=    0.000
 RMSDP=1.51D-03 MaxDP=2.20D-02 DE= 1.26D-01 OVMax= 1.56D-01

 Cycle   3  Pass 0  IDiag  1:
 E= -204.063413458599     Delta-E=       -0.130582780291 Rises=F Damp=F
 DIIS: error= 7.99D-03 at cycle   3 NSaved=   3.
 NSaved= 3 IEnMin= 3 EnMin= -204.063413458599     IErMin= 3 ErrMin= 7.99D-03
 ErrMax= 7.99D-03  0.00D+00 EMaxC= 1.00D+00 BMatC= 5.42D-03 BMatP= 1.35D-02
 IDIUse=1 WtCom= 1.00D+00 WtEn= 0.00D+00
 Coeff-Com:  0.137D+00 0.122D+00 0.741D+00
 Coeff:      0.137D+00 0.122D+00 0.741D+00
 Gap=     0.182 Goal=   None    Shift=    0.000
 RMSDP=7.94D-04 MaxDP=2.58D-02 DE=-1.31D-01 OVMax= 3.70D-02

 Cycle   4  Pass 0  IDiag  1:
 E= -204.064521308797     Delta-E=       -0.001107850198 Rises=F Damp=F
 DIIS: error= 5.88D-03 at cycle   4 NSaved=   4.
 NSaved= 4 IEnMin= 4 EnMin= -204.064521308797     IErMin= 4 ErrMin= 5.88D-03
 ErrMax= 5.88D-03  0.00D+00 EMaxC= 1.00D+00 BMatC= 4.11D-03 BMatP= 5.42D-03
 IDIUse=1 WtCom= 1.00D+00 WtEn= 0.00D+00
 Coeff-Com: -0.221D-02 0.542D-01 0.526D+00 0.422D+00
 Coeff:     -0.221D-02 0.542D-01 0.526D+00 0.422D+00
 Gap=     0.189 Goal=   None    Shift=    0.000
 RMSDP=4.34D-04 MaxDP=1.04D-02 DE=-1.11D-03 OVMax= 2.10D-02

 Cycle   5  Pass 0  IDiag  1:
 E= -204.068127781852     Delta-E=       -0.003606473055 Rises=F Damp=F
 DIIS: error= 6.36D-04 at cycle   5 NSaved=   5.
 NSaved= 5 IEnMin= 5 EnMin= -204.068127781852     IErMin= 5 ErrMin= 6.36D-04
 ErrMax= 6.36D-04  0.00D+00 EMaxC= 1.00D+00 BMatC= 6.10D-05 BMatP= 4.11D-03
 IDIUse=1 WtCom= 1.00D+00 WtEn= 0.00D+00
 Coeff-Com: -0.426D-02 0.130D-01 0.169D+00 0.187D+00 0.636D+00
 Coeff:     -0.426D-02 0.130D-01 0.169D+00 0.187D+00 0.636D+00
 Gap=     0.188 Goal=   None    Shift=    0.000
 RMSDP=7.19D-05 MaxDP=2.55D-03 DE=-3.61D-03 OVMax= 3.37D-03

 Cycle   6  Pass 0  IDiag  1:
 E= -204.068170105480     Delta-E=       -0.000042323629 Rises=F Damp=F
 DIIS: error= 2.50D-04 at cycle   6 NSaved=   6.
 NSaved= 6 IEnMin= 6 EnMin= -204.068170105480     IErMin= 6 ErrMin= 2.50D-04
 ErrMax= 2.50D-04  0.00D+00 EMaxC= 1.00D+00 BMatC= 1.32D-05 BMatP= 6.10D-05
 IDIUse=1 WtCom= 1.00D+00 WtEn= 0.00D+00
 Coeff-Com: -0.170D-02-0.149D-03 0.248D-01 0.514D-01 0.372D+00 0.554D+00
 Coeff:     -0.170D-02-0.149D-03 0.248D-01 0.514D-01 0.372D+00 0.554D+00
 Gap=     0.188 Goal=   None    Shift=    0.000
 RMSDP=2.31D-05 MaxDP=6.86D-04 DE=-4.23D-05 OVMax= 1.04D-03

 Cycle   7  Pass 0  IDiag  1:
 E= -204.068181973966     Delta-E=       -0.000011868486 Rises=F Damp=F
 DIIS: error= 2.25D-05 at cycle   7 NSaved=   7.
 NSaved= 7 IEnMin= 7 EnMin= -204.068181973966     IErMin= 7 ErrMin= 2.25D-05
 ErrMax= 2.25D-05  0.00D+00 EMaxC= 1.00D+00 BMatC= 6.94D-08 BMatP= 1.32D-05
 IDIUse=1 WtCom= 1.00D+00 WtEn= 0.00D+00
 Coeff-Com: -0.349D-03-0.352D-03 0.279D-02 0.796D-02 0.725D-01 0.134D+00
 Coeff-Com:  0.784D+00
 Coeff:     -0.349D-03-0.352D-03 0.279D-02 0.796D-02 0.725D-01 0.134D+00
 Coeff:      0.784D+00
 Gap=     0.188 Goal=   None    Shift=    0.000
 RMSDP=2.40D-06 MaxDP=6.23D-05 DE=-1.19D-05 OVMax= 8.63D-05

 Initial convergence to 1.0D-05 achieved.  Increase integral accuracy.
 Cycle   8  Pass 1  IDiag  1:
 E= -204.068188239144     Delta-E=       -0.000006265178 Rises=F Damp=F
 DIIS: error= 1.18D-05 at cycle   1 NSaved=   1.
 NSaved= 1 IEnMin= 1 EnMin= -204.068188239144     IErMin= 1 ErrMin= 1.18D-05
 ErrMax= 1.18D-05  0.00D+00 EMaxC= 1.00D+00 BMatC= 2.71D-08 BMatP= 2.71D-08
 IDIUse=1 WtCom= 1.00D+00 WtEn= 0.00D+00
 Coeff-Com:  0.100D+01
 Coeff:      0.100D+01
 Gap=     0.188 Goal=   None    Shift=    0.000
 RMSDP=2.40D-06 MaxDP=6.23D-05 DE=-6.27D-06 OVMax= 8.38D-05

 Cycle   9  Pass 1  IDiag  1:
 E= -204.068188228192     Delta-E=        0.000000010952 Rises=F Damp=F
 DIIS: error= 1.75D-05 at cycle   2 NSaved=   2.
 NSaved= 2 IEnMin= 1 EnMin= -204.068188239144     IErMin= 1 ErrMin= 1.18D-05
 ErrMax= 1.75D-05  0.00D+00 EMaxC= 1.00D+00 BMatC= 4.24D-08 BMatP= 2.71D-08
 IDIUse=1 WtCom= 1.00D+00 WtEn= 0.00D+00
 Coeff-Com:  0.561D+00 0.439D+00
 Coeff:      0.561D+00 0.439D+00
 Gap=     0.188 Goal=   None    Shift=    0.000
 RMSDP=1.34D-06 MaxDP=5.02D-05 DE= 1.10D-08 OVMax= 4.76D-05

 Cycle  10  Pass 1  IDiag  1:
 E= -204.068188261549     Delta-E=       -0.000000033357 Rises=F Damp=F
 DIIS: error= 2.90D-06 at cycle   3 NSaved=   3.
 NSaved= 3 IEnMin= 3 EnMin= -204.068188261549     IErMin= 3 ErrMin= 2.90D-06
 ErrMax= 2.90D-06  0.00D+00 EMaxC= 1.00D+00 BMatC= 1.13D-09 BMatP= 2.71D-08
 IDIUse=1 WtCom= 1.00D+00 WtEn= 0.00D+00
 Coeff-Com:  0.946D-01 0.155D+00 0.751D+00
 Coeff:      0.946D-01 0.155D+00 0.751D+00
 Gap=     0.188 Goal=   None    Shift=    0.000
 RMSDP=4.88D-07 MaxDP=1.46D-05 DE=-3.34D-08 OVMax= 2.79D-05

 Cycle  11  Pass 1  IDiag  1:
 E= -204.068188261151     Delta-E=        0.000000000398 Rises=F Damp=F
 DIIS: error= 4.31D-06 at cycle   4 NSaved=   4.
 NSaved= 4 IEnMin= 3 EnMin= -204.068188261549     IErMin= 3 ErrMin= 2.90D-06
 ErrMax= 4.31D-06  0.00D+00 EMaxC= 1.00D+00 BMatC= 1.64D-09 BMatP= 1.13D-09
 IDIUse=1 WtCom= 1.00D+00 WtEn= 0.00D+00
 Coeff-Com: -0.713D-02 0.589D-01 0.592D+00 0.356D+00
 Coeff:     -0.713D-02 0.589D-01 0.592D+00 0.356D+00
 Gap=     0.188 Goal=   None    Shift=    0.000
 RMSDP=2.70D-07 MaxDP=9.13D-06 DE= 3.98D-10 OVMax= 1.41D-05

 Cycle  12  Pass 1  IDiag  1:
 E= -204.068188262594     Delta-E=       -0.000000001443 Rises=F Damp=F
 DIIS: error= 3.19D-07 at cycle   5 NSaved=   5.
 NSaved= 5 IEnMin= 5 EnMin= -204.068188262594     IErMin= 5 ErrMin= 3.19D-07
 ErrMax= 3.19D-07  0.00D+00 EMaxC= 1.00D+00 BMatC= 1.63D-11 BMatP= 1.13D-09
 IDIUse=1 WtCom= 1.00D+00 WtEn= 0.00D+00
 Coeff-Com: -0.925D-02 0.145D-01 0.207D+00 0.160D+00 0.627D+00
 Coeff:     -0.925D-02 0.145D-01 0.207D+00 0.160D+00 0.627D+00
 Gap=     0.188 Goal=   None    Shift=    0.000
 RMSDP=3.48D-08 MaxDP=8.07D-07 DE=-1.44D-09 OVMax= 1.26D-06

 Cycle  13  Pass 1  IDiag  1:
 E= -204.068188262609     Delta-E=       -0.000000000015 Rises=F Damp=F
 DIIS: error= 7.16D-08 at cycle   6 NSaved=   6.
 NSaved= 6 IEnMin= 6 EnMin= -204.068188262609     IErMin= 6 ErrMin= 7.16D-08
 ErrMax= 7.16D-08  0.00D+00 EMaxC= 1.00D+00 BMatC= 6.98D-13 BMatP= 1.63D-11
 IDIUse=1 WtCom= 1.00D+00 WtEn= 0.00D+00
 Coeff-Com: -0.218D-02-0.167D-03 0.181D-01 0.251D-01 0.180D+00 0.779D+00
 Coeff:     -0.218D-02-0.167D-03 0.181D-01 0.251D-01 0.180D+00 0.779D+00
 Gap=     0.188 Goal=   None    Shift=    0.000
 RMSDP=1.27D-08 MaxDP=3.78D-07 DE=-1.47D-11 OVMax= 4.99D-07

 Cycle  14  Pass 1  IDiag  1:
 E= -204.068188262609     Delta-E=       -0.000000000000 Rises=F Damp=F
 DIIS: error= 4.15D-08 at cycle   7 NSaved=   7.
 NSaved= 7 IEnMin= 7 EnMin= -204.068188262609     IErMin= 7 ErrMin= 4.15D-08
 ErrMax= 4.15D-08  0.00D+00 EMaxC= 1.00D+00 BMatC= 2.92D-13 BMatP= 6.98D-13
 IDIUse=1 WtCom= 1.00D+00 WtEn= 0.00D+00
 Coeff-Com:  0.230D-03-0.247D-02-0.225D-01-0.113D-01-0.495D-02 0.430D+00
 Coeff-Com:  0.611D+00
 Coeff:      0.230D-03-0.247D-02-0.225D-01-0.113D-01-0.495D-02 0.430D+00
 Coeff:      0.611D+00
 Gap=     0.188 Goal=   None    Shift=    0.000
 RMSDP=4.77D-09 MaxDP=1.23D-07 DE=-4.55D-13 OVMax= 2.17D-07

 SCF Done:  E(RB3LYP) =  -204.068188263     A.U. after   14 cycles
            NFock= 14  Conv=0.48D-08     -V/T= 2.0066
 KE= 2.027284165267D+02 PE=-6.875108461674D+02 EE= 1.752170593511D+02
 Leave Link  502 at Fri Aug 26 06:34:13 2022, MaxMem= 24159191040 cpu:        39.1
 (Enter /public/home/users/caep010/software/Gaussian09/g09/l701.exe)
 Compute integral first derivatives.
 ... and contract with generalized density number  0.
 Leave Link  701 at Fri Aug 26 06:34:14 2022, MaxMem= 24159191040 cpu:        14.6
 (Enter /public/home/users/caep010/software/Gaussian09/g09/l702.exe)
 L702 exits ... SP integral derivatives will be done elsewhere.
 Leave Link  702 at Fri Aug 26 06:34:14 2022, MaxMem= 24159191040 cpu:         0.5
 (Enter /public/home/users/caep010/software/Gaussian09/g09/l703.exe)
 Compute integral first derivatives, UseDBF=F ICtDFT=           0.
 Integral derivatives from FoFJK, PRISM(SPDF).
 Calling FoFJK, ICntrl=      2127 FMM=F ISym2X=0 I1Cent= 0 IOpClX= 0 NMat=1 NMatS=1 NMatT=0.
 FoFJK:  IHMeth= 1 ICntrl=    2127 DoSepK=F KAlg= 0 I1Cent=   0 FoldK=F
 IRaf=         0 NMat=   1 IRICut=       1 DoRegI=T DoRafI=F ISym2E= 0.
 FoFCou: FMM=F IPFlag=           0 FMFlag=      100000 FMFlg1=         800
         NFxFlg=           0 DoJE=F BraDBF=F KetDBF=F FulRan=T
         wScrn=  0.000000 ICntrl=    2127 IOpCl=  0 I1Cent=           0 NGrid=           0
         NMat0=    1 NMatS0=      1 NMatT0=    0 NMatD0=    1 NMtDS0=    0 NMtDT0=    0
 Symmetry not used in FoFCou.
 Leave Link  703 at Fri Aug 26 06:34:14 2022, MaxMem= 24159191040 cpu:        20.2
 (Enter /public/home/users/caep010/software/Gaussian09/g09/l716.exe)
 Dipole        =-3.18458733D+00-9.59680664D-01 1.11766797D-02
 ***** Axes restored to original set *****
 -------------------------------------------------------------------
 Center     Atomic                   Forces (Hartrees/Bohr)
 Number     Number              X              Y              Z
 -------------------------------------------------------------------
      1        7           0.009717100   -0.008784352    0.000839470
      2        6          -0.025829711    0.017096767   -0.001406200
      3        7           0.028466641    0.008688773   -0.000435059
      4        7          -0.008836439   -0.010949210    0.000918163
      5        1          -0.003358713   -0.000587358   -0.003996546
      6        1          -0.002698570   -0.000629931    0.004205090
      7        1           0.002539691   -0.004834688   -0.000124917
 -------------------------------------------------------------------
 Cartesian Forces:  Max     0.028466641 RMS     0.010468518
 Leave Link  716 at Fri Aug 26 06:34:15 2022, MaxMem= 24159191040 cpu:         0.5
 (Enter /public/home/users/caep010/software/Gaussian09/g09/l103.exe)

 GradGradGradGradGradGradGradGradGradGradGradGradGradGradGradGradGradGrad
 Berny optimization.
 Using GEDIIS/GDIIS optimizer.
 FormGI is forming the generalized inverse of G from B-inverse, IUseBI=4.
 Internal  Forces:  Max     0.020353515 RMS     0.008418369
 Search for a local minimum.
 Step number   2 out of a maximum of   28
 All quantities printed in internal units (Hartrees-Bohrs-Radians)
 RMS Force = .84184D-02 SwitMx=.10000D-02 MixMth= 1
 Mixed Optimization -- RFO/linear search
 Update second derivatives using D2CorX and points    1    2
 DE= -1.75D-02 DEPred=-2.02D-02 R= 8.69D-01
 TightC=F SS=  1.41D+00  RLast= 3.01D-01 DXNew= 5.0454D-01 9.0352D-01
 Trust test= 8.69D-01 RLast= 3.01D-01 DXMaxT set to 5.05D-01
 The second derivative matrix:
                          R1        R2        R3        R4        R5
           R1           1.28390
           R2           0.02062   0.43719
           R3          -0.01528   0.03998   0.44568
           R4           0.00297  -0.00341   0.00479   0.40444
           R5           0.00283  -0.00295   0.00480  -0.00054   0.40461
           R6           0.00547  -0.00361   0.01088  -0.00088  -0.00075
           A1           0.01320   0.00417   0.03631  -0.00111  -0.00065
           A2          -0.00329  -0.00210  -0.00989   0.00019   0.00007
           A3          -0.00304  -0.00296  -0.00993   0.00010  -0.00003
           A4          -0.00035   0.00921   0.00631   0.00076   0.00086
           A5           0.00274  -0.00101   0.00607  -0.00038  -0.00030
           A6           0.00263  -0.00358   0.00381  -0.00057  -0.00053
           A7           0.00258  -0.00341   0.00382  -0.00055  -0.00051
           A8           0.01128  -0.04187  -0.00438  -0.00450  -0.00466
           A9          -0.00201   0.00792   0.00115   0.00084   0.00087
           D1           0.00216  -0.00781  -0.00069  -0.00084  -0.00087
           D2          -0.00216   0.00781   0.00069   0.00084   0.00087
           D3          -0.00003   0.00011   0.00001   0.00001   0.00001
                          R6        A1        A2        A3        A4
           R6           0.40581
           A1           0.00160   0.27144
           A2          -0.00070  -0.00679   0.16212
           A3          -0.00094  -0.00767   0.00236   0.16261
           A4           0.00261   0.01216  -0.00352  -0.00371   0.16392
           A5          -0.00020   0.00189  -0.00067  -0.00080   0.00167
           A6          -0.00094  -0.00174   0.00039   0.00032   0.00042
           A7          -0.00089  -0.00156   0.00034   0.00027   0.00046
           A8          -0.01155  -0.04366   0.01220   0.01252  -0.01028
           A9           0.00219   0.00841  -0.00236  -0.00243   0.00205
           D1          -0.00215  -0.00808   0.00225   0.00231  -0.00188
           D2           0.00215   0.00808  -0.00225  -0.00231   0.00188
           D3           0.00003   0.00012  -0.00003  -0.00003   0.00003
                          A5        A6        A7        A8        A9
           A5           0.16005
           A6          -0.00044   0.15948
           A7          -0.00041  -0.00051   0.15950
           A8          -0.00676  -0.00330  -0.00337   0.03497
           A9           0.00129   0.00061   0.00062  -0.00385   0.01739
           D1          -0.00126  -0.00062  -0.00064   0.00328  -0.00069
           D2           0.00126   0.00062   0.00064  -0.00328   0.00069
           D3           0.00002   0.00001   0.00001  -0.00004   0.00001
                          D1        D2        D3
           D1           0.01326
           D2          -0.00058   0.01326
           D3          -0.00001   0.00001   0.01267
 ITU=  1  0
 Use linear search instead of GDIIS.
     Eigenvalues ---    0.01267   0.01656   0.02019   0.09797   0.10501
     Eigenvalues ---    0.15780   0.16000   0.16730   0.27453   0.39308
     Eigenvalues ---    0.40507   0.40576   0.41654   0.49127   1.28496
 RFO step:  Lambda=-1.05869500D-02 EMin= 1.26734636D-02
 Quartic linear search produced a step of  0.16191.
 Maximum step size (   0.505) exceeded in Quadratic search.
    -- Step size scaled by   0.918
 Iteration  1 RMS(Cart)=  0.12658431 RMS(Int)=  0.06488414
 Iteration  2 RMS(Cart)=  0.08415290 RMS(Int)=  0.01758916
 Iteration  3 RMS(Cart)=  0.02954935 RMS(Int)=  0.00106466
 Iteration  4 RMS(Cart)=  0.00074756 RMS(Int)=  0.00059201
 Iteration  5 RMS(Cart)=  0.00000037 RMS(Int)=  0.00059201
 ITry= 1 IFail=0 DXMaxC= 5.86D-01 DCOld= 1.00D+10 DXMaxT= 5.05D-01 DXLimC= 3.00D+00 Rises=F
 Variable       Old X    -DE/DX   Delta X   Delta X   Delta X     New X
                                 (Linear)    (Quad)   (Total)
    R1        2.20268   0.01219   0.00257   0.01406   0.01663   2.21931
    R2        2.53736  -0.01805  -0.01828  -0.06762  -0.08590   2.45147
    R3        2.67559   0.02035   0.00422   0.05340   0.05762   2.73320
    R4        1.96038  -0.00299  -0.00249  -0.01118  -0.01367   1.94671
    R5        1.96035  -0.00278  -0.00248  -0.01062  -0.01310   1.94724
    R6        1.93950  -0.00488  -0.00552  -0.02018  -0.02570   1.91380
    A1        1.93086  -0.01244  -0.02918  -0.08691  -0.11609   1.81477
    A2        1.97810   0.00433   0.01235   0.03880   0.05014   2.02824
    A3        1.97812   0.00395   0.01234   0.03626   0.04759   2.02572
    A4        1.84265   0.00181  -0.00730   0.00548  -0.00189   1.84076
    A5        1.88485  -0.00489  -0.00775  -0.04073  -0.04999   1.83486
    A6        1.88805  -0.00287  -0.00508  -0.02201  -0.02716   1.86089
    A7        1.88808  -0.00279  -0.00508  -0.02173  -0.02687   1.86121
    A8        3.28757  -0.01066   0.02363  -0.48057  -0.45693   2.83064
    A9        3.08981   0.00071  -0.00837   0.04827   0.03990   3.12971
    D1        1.07818   0.00002   0.00369   0.00318   0.00786   1.08604
    D2       -1.07806  -0.00002  -0.00369  -0.00201  -0.00670  -1.08476
    D3       -3.14156   0.00005   0.00000   0.00111   0.00113  -3.14043
         Item               Value     Threshold  Converged?
 Maximum Force            0.020354     0.000450     NO 
 RMS     Force            0.008418     0.000300     NO 
 Maximum Displacement     0.585516     0.001800     NO 
 RMS     Displacement     0.233249     0.001200     NO 
 Predicted change in Energy=-6.770496D-03
 Lowest energy point so far.  Saving SCF results.
 GradGradGradGradGradGradGradGradGradGradGradGradGradGradGradGradGradGrad

 Leave Link  103 at Fri Aug 26 06:34:15 2022, MaxMem= 24159191040 cpu:         2.0
 (Enter /public/home/users/caep010/software/Gaussian09/g09/l202.exe)
                          Input orientation:                          
 ---------------------------------------------------------------------
 Center     Atomic      Atomic             Coordinates (Angstroms)
 Number     Number       Type             X           Y           Z
 ---------------------------------------------------------------------
      1          7           0        2.196797   -0.482364    0.127014
      2          6           0        1.382334    0.361233    0.061980
      3          7           0        0.264773    1.010229    0.174876
      4          7           0       -0.736838   -0.030102    0.254941
      5          1           0       -0.667713   -0.667112    1.061574
      6          1           0       -0.817212   -0.645494   -0.567634
      7          1           0       -1.622241    0.453611    0.342849
 ---------------------------------------------------------------------
                    Distance matrix (angstroms):
                    1          2          3          4          5
     1  N    0.000000
     2  C    1.174409   0.000000
     3  N    2.441893   1.297260   0.000000
     4  N    2.971047   2.163624   1.446348   0.000000
     5  H    3.018766   2.501875   2.114057   1.030154   0.000000
     6  H    3.097321   2.499583   2.112683   1.030435   1.636196
     7  H    3.937979   3.019088   1.974552   1.012741   1.638203
                    6          7
     6  H    0.000000
     7  H    1.638622   0.000000
 Stoichiometry    CH3N3
 Framework group  C1[X(CH3N3)]
 Deg. of freedom    15
 Full point group                 C1      NOp   1
 RotChk:  IX=2 Diff= 1.22D-01
 Largest Abelian subgroup         C1      NOp   1
 Largest concise Abelian subgroup C1      NOp   1
                         Standard orientation:                         
 ---------------------------------------------------------------------
 Center     Atomic      Atomic             Coordinates (Angstroms)
 Number     Number       Type             X           Y           Z
 ---------------------------------------------------------------------
      1          7           0        1.696005   -0.407916    0.022505
      2          6           0        0.774928    0.317016   -0.050474
      3          7           0       -0.427527    0.797669    0.026722
      4          7           0       -1.274746   -0.374208   -0.002374
      5          1           0       -1.158305   -1.039241    0.775694
      6          1           0       -1.224367   -0.948229   -0.856633
      7          1           0       -2.223019   -0.023439    0.055804
 ---------------------------------------------------------------------
 Rotational constants (GHZ):     28.6712618      6.1800645      5.2311953
 Leave Link  202 at Fri Aug 26 06:34:15 2022, MaxMem= 24159191040 cpu:         0.2
 (Enter /public/home/users/caep010/software/Gaussian09/g09/l301.exe)
 Standard basis: GTBas3 (6D, 7F)
 Ernie: Thresh=  0.10000D-02 Tol=  0.10000D-05 Strict=F.
 There are   139 symmetry adapted cartesian basis functions of A   symmetry.
 There are   127 symmetry adapted basis functions of A   symmetry.
   127 basis functions,   197 primitive gaussians,   139 cartesian basis functions
    15 alpha electrons       15 beta electrons
       nuclear repulsion energy       107.7573702925 Hartrees.
 IExCor=  402 DFT=T Ex+Corr=B3LYP ExCW=0 ScaHFX=  0.200000
 ScaDFX=  0.800000  0.720000  1.000000  0.810000 ScalE2=  1.000000  1.000000
 IRadAn=      0 IRanWt=     -1 IRanGd=            0 ICorTp=0 IEmpDi=  4
 NAtoms=    7 NActive=    7 NUniq=    7 SFac= 1.00D+00 NAtFMM=   60 NAOKFM=F Big=F
 Integral buffers will be    131072 words long.
 Raffenetti 2 integral format.
 Two-electron integral symmetry is turned on.
 Leave Link  301 at Fri Aug 26 06:34:15 2022, MaxMem= 24159191040 cpu:         1.6
 (Enter /public/home/users/caep010/software/Gaussian09/g09/l302.exe)
 NPDir=0 NMtPBC=     1 NCelOv=     1 NCel=       1 NClECP=     1 NCelD=      1
         NCelK=      1 NCelE2=     1 NClLst=     1 CellRange=     0.0.
 One-electron integrals computed using PRISM.
 NBasis=   127 RedAO= T EigKep=  2.31D-04  NBF=   127
 NBsUse=   127 1.00D-06 EigRej= -1.00D+00 NBFU=   127
 Precomputing XC quadrature grid using
 IXCGrd= 4 IRadAn=           0 IRanWt=          -1 IRanGd=           0 AccXCQ= 0.00D+00.
 Generated NRdTot=       0 NPtTot=           0 NUsed=           0 NTot=          32
 NSgBfM=   139   139   139   139   139 MxSgAt=     7 MxSgA2=     7.
 Leave Link  302 at Fri Aug 26 06:34:15 2022, MaxMem= 24159191040 cpu:        13.5
 (Enter /public/home/users/caep010/software/Gaussian09/g09/l303.exe)
 DipDrv:  MaxL=1.
 Leave Link  303 at Fri Aug 26 06:34:15 2022, MaxMem= 24159191040 cpu:         0.7
 (Enter /public/home/users/caep010/software/Gaussian09/g09/l401.exe)
 Initial guess from the checkpoint file:  "G4.Frag_877.chk"
 B after Tr=     0.000000    0.000000    0.000000
         Rot=    0.999873   -0.013793   -0.000935   -0.007947 Ang=  -1.83 deg.
 Guess basis will be translated and rotated to current coordinates.
 JPrj=2 DoOrth=T DoCkMO=T.
 Generating alternative initial guess.
 ExpMin= 1.61D-01 ExpMax= 4.17D+03 ExpMxC= 6.27D+02 IAcc=1 IRadAn=         1 AccDes= 0.00D+00
 Harris functional with IExCor=  402 and IRadAn=       1 diagonalized for initial guess.
 HarFok:  IExCor=  402 AccDes= 0.00D+00 IRadAn=         1 IDoV= 1 UseB2=F ITyADJ=14
 ICtDFT=  3500011 ScaDFX=  1.000000  1.000000  1.000000  1.000000
 FoFCou: FMM=F IPFlag=           0 FMFlag=      100000 FMFlg1=           0
         NFxFlg=           0 DoJE=T BraDBF=F KetDBF=T FulRan=T
         wScrn=  0.000000 ICntrl=     500 IOpCl=  0 I1Cent=   200000004 NGrid=           0
         NMat0=    1 NMatS0=      1 NMatT0=    0 NMatD0=    1 NMtDS0=    0 NMtDT0=    0
 Petite list used in FoFCou.
 Harris En= -204.093004575463    
 Leave Link  401 at Fri Aug 26 06:34:16 2022, MaxMem= 24159191040 cpu:        14.5
 (Enter /public/home/users/caep010/software/Gaussian09/g09/l502.exe)
 Closed shell SCF:
 Using DIIS extrapolation, IDIIS=  1040.
 Integral symmetry usage will be decided dynamically.
 Keep R1 ints in memory in canonical form, NReq=35100073.
 IVT=       81969 IEndB=       81969 NGot= 24159191040 MDV= 24126072816
 LenX= 24126072816 LenY= 24126053054
 Requested convergence on RMS density matrix=1.00D-08 within 128 cycles.
 Requested convergence on MAX density matrix=1.00D-06.
 Requested convergence on             energy=1.00D-06.
 No special actions if energy rises.
 FoFCou: FMM=F IPFlag=           0 FMFlag=           0 FMFlg1=           0
         NFxFlg=           0 DoJE=F BraDBF=F KetDBF=F FulRan=T
         wScrn=  0.000000 ICntrl=     600 IOpCl=  0 I1Cent=           0 NGrid=           0
         NMat0=    1 NMatS0=   8128 NMatT0=    0 NMatD0=    1 NMtDS0=    0 NMtDT0=    0
 Symmetry not used in FoFCou.
 Integral accuracy reduced to 1.0D-05 until final iterations.

 Cycle   1  Pass 0  IDiag  1:
 E= -203.940054975344    
 DIIS: error= 3.53D-02 at cycle   1 NSaved=   1.
 NSaved= 1 IEnMin= 1 EnMin= -203.940054975344     IErMin= 1 ErrMin= 3.53D-02
 ErrMax= 3.53D-02  0.00D+00 EMaxC= 1.00D-01 BMatC= 1.41D-01 BMatP= 1.41D-01
 IDIUse=3 WtCom= 6.47D-01 WtEn= 3.53D-01
 Coeff-Com:  0.100D+01
 Coeff-En:   0.100D+01
 Coeff:      0.100D+01
 Recover alternate guess density for next cycle.
 RMSDP=5.27D-03 MaxDP=1.05D-01              OVMax= 0.00D+00

 Cycle   2  Pass 0  IDiag  1:
 E= -203.933687559640     Delta-E=        0.006367415704 Rises=F Damp=F
 Switch densities from cycles 1 and 2 for lowest energy.
 DIIS: error= 2.83D-02 at cycle   2 NSaved=   2.
 NSaved= 2 IEnMin= 1 EnMin= -203.940054975344     IErMin= 2 ErrMin= 2.83D-02
 ErrMax= 2.83D-02  0.00D+00 EMaxC= 1.00D+00 BMatC= 1.30D-01 BMatP= 1.41D-01
 IDIUse=1 WtCom= 1.00D+00 WtEn= 0.00D+00
 Coeff-Com:  0.480D+00 0.520D+00
 Coeff:      0.480D+00 0.520D+00
 Gap=     0.233 Goal=   None    Shift=    0.000
 RMSDP=5.15D-03 MaxDP=1.16D-01 DE= 6.37D-03 OVMax= 2.38D-01

 Cycle   3  Pass 0  IDiag  1:
 E= -203.961953754322     Delta-E=       -0.028266194682 Rises=F Damp=F
 DIIS: error= 3.28D-02 at cycle   3 NSaved=   3.
 NSaved= 3 IEnMin= 3 EnMin= -203.961953754322     IErMin= 2 ErrMin= 2.83D-02
 ErrMax= 3.28D-02  0.00D+00 EMaxC= 1.00D+00 BMatC= 1.05D-01 BMatP= 1.30D-01
 IDIUse=1 WtCom= 1.00D+00 WtEn= 0.00D+00
 Coeff-Com:  0.784D-01 0.434D+00 0.488D+00
 Coeff:      0.784D-01 0.434D+00 0.488D+00
 Gap=     0.190 Goal=   None    Shift=    0.000
 RMSDP=3.35D-03 MaxDP=9.31D-02 DE=-2.83D-02 OVMax= 1.35D-01

 Cycle   4  Pass 0  IDiag  1:
 E= -204.043622492525     Delta-E=       -0.081668738203 Rises=F Damp=F
 DIIS: error= 1.27D-02 at cycle   4 NSaved=   4.
 NSaved= 4 IEnMin= 4 EnMin= -204.043622492525     IErMin= 4 ErrMin= 1.27D-02
 ErrMax= 1.27D-02  0.00D+00 EMaxC= 1.00D+00 BMatC= 2.08D-02 BMatP= 1.05D-01
 IDIUse=1 WtCom= 1.00D+00 WtEn= 0.00D+00
 Coeff-Com:  0.109D-02 0.205D+00 0.339D+00 0.455D+00
 Coeff:      0.109D-02 0.205D+00 0.339D+00 0.455D+00
 Gap=     0.208 Goal=   None    Shift=    0.000
 RMSDP=1.11D-03 MaxDP=2.68D-02 DE=-8.17D-02 OVMax= 4.96D-02

 Cycle   5  Pass 0  IDiag  1:
 E= -204.062023058707     Delta-E=       -0.018400566181 Rises=F Damp=F
 DIIS: error= 2.34D-03 at cycle   5 NSaved=   5.
 NSaved= 5 IEnMin= 5 EnMin= -204.062023058707     IErMin= 5 ErrMin= 2.34D-03
 ErrMax= 2.34D-03  0.00D+00 EMaxC= 1.00D+00 BMatC= 8.32D-04 BMatP= 2.08D-02
 IDIUse=1 WtCom= 1.00D+00 WtEn= 0.00D+00
 Coeff-Com: -0.281D-02 0.294D-01 0.823D-01 0.209D+00 0.682D+00
 Coeff:     -0.281D-02 0.294D-01 0.823D-01 0.209D+00 0.682D+00
 Gap=     0.200 Goal=   None    Shift=    0.000
 RMSDP=2.66D-04 MaxDP=9.00D-03 DE=-1.84D-02 OVMax= 1.06D-02

 Cycle   6  Pass 0  IDiag  1:
 E= -204.062605599750     Delta-E=       -0.000582541043 Rises=F Damp=F
 DIIS: error= 8.81D-04 at cycle   6 NSaved=   6.
 NSaved= 6 IEnMin= 6 EnMin= -204.062605599750     IErMin= 6 ErrMin= 8.81D-04
 ErrMax= 8.81D-04  0.00D+00 EMaxC= 1.00D+00 BMatC= 1.74D-04 BMatP= 8.32D-04
 IDIUse=1 WtCom= 1.00D+00 WtEn= 0.00D+00
 Coeff-Com: -0.111D-02-0.223D-02 0.165D-01 0.810D-01 0.397D+00 0.509D+00
 Coeff:     -0.111D-02-0.223D-02 0.165D-01 0.810D-01 0.397D+00 0.509D+00
 Gap=     0.201 Goal=   None    Shift=    0.000
 RMSDP=7.91D-05 MaxDP=2.36D-03 DE=-5.83D-04 OVMax= 2.81D-03

 Cycle   7  Pass 0  IDiag  1:
 E= -204.062746105876     Delta-E=       -0.000140506127 Rises=F Damp=F
 DIIS: error= 9.17D-05 at cycle   7 NSaved=   7.
 NSaved= 7 IEnMin= 7 EnMin= -204.062746105876     IErMin= 7 ErrMin= 9.17D-05
 ErrMax= 9.17D-05  0.00D+00 EMaxC= 1.00D+00 BMatC= 1.27D-06 BMatP= 1.74D-04
 IDIUse=1 WtCom= 1.00D+00 WtEn= 0.00D+00
 Coeff-Com: -0.287D-03-0.179D-02 0.114D-02 0.135D-01 0.718D-01 0.135D+00
 Coeff-Com:  0.781D+00
 Coeff:     -0.287D-03-0.179D-02 0.114D-02 0.135D-01 0.718D-01 0.135D+00
 Coeff:      0.781D+00
 Gap=     0.201 Goal=   None    Shift=    0.000
 RMSDP=8.68D-06 MaxDP=2.17D-04 DE=-1.41D-04 OVMax= 3.43D-04

 Initial convergence to 1.0D-05 achieved.  Increase integral accuracy.
 Cycle   8  Pass 1  IDiag  1:
 E= -204.062718715935     Delta-E=        0.000027389942 Rises=F Damp=F
 DIIS: error= 2.85D-05 at cycle   1 NSaved=   1.
 NSaved= 1 IEnMin= 1 EnMin= -204.062718715935     IErMin= 1 ErrMin= 2.85D-05
 ErrMax= 2.85D-05  0.00D+00 EMaxC= 1.00D+00 BMatC= 1.23D-07 BMatP= 1.23D-07
 IDIUse=1 WtCom= 1.00D+00 WtEn= 0.00D+00
 Coeff-Com:  0.100D+01
 Coeff:      0.100D+01
 Gap=     0.201 Goal=   None    Shift=    0.000
 RMSDP=8.68D-06 MaxDP=2.17D-04 DE= 2.74D-05 OVMax= 2.06D-04

 Cycle   9  Pass 1  IDiag  1:
 E= -204.062718656965     Delta-E=        0.000000058970 Rises=F Damp=F
 DIIS: error= 3.71D-05 at cycle   2 NSaved=   2.
 NSaved= 2 IEnMin= 1 EnMin= -204.062718715935     IErMin= 1 ErrMin= 2.85D-05
 ErrMax= 3.71D-05  0.00D+00 EMaxC= 1.00D+00 BMatC= 2.12D-07 BMatP= 1.23D-07
 IDIUse=1 WtCom= 1.00D+00 WtEn= 0.00D+00
 Coeff-Com:  0.571D+00 0.429D+00
 Coeff:      0.571D+00 0.429D+00
 Gap=     0.201 Goal=   None    Shift=    0.000
 RMSDP=3.15D-06 MaxDP=9.09D-05 DE= 5.90D-08 OVMax= 1.13D-04

 Cycle  10  Pass 1  IDiag  1:
 E= -204.062718835080     Delta-E=       -0.000000178115 Rises=F Damp=F
 DIIS: error= 6.53D-06 at cycle   3 NSaved=   3.
 NSaved= 3 IEnMin= 3 EnMin= -204.062718835080     IErMin= 3 ErrMin= 6.53D-06
 ErrMax= 6.53D-06  0.00D+00 EMaxC= 1.00D+00 BMatC= 4.76D-09 BMatP= 1.23D-07
 IDIUse=1 WtCom= 1.00D+00 WtEn= 0.00D+00
 Coeff-Com:  0.183D+00 0.184D+00 0.633D+00
 Coeff:      0.183D+00 0.184D+00 0.633D+00
 Gap=     0.201 Goal=   None    Shift=    0.000
 RMSDP=8.05D-07 MaxDP=2.70D-05 DE=-1.78D-07 OVMax= 4.42D-05

 Cycle  11  Pass 1  IDiag  1:
 E= -204.062718835874     Delta-E=       -0.000000000794 Rises=F Damp=F
 DIIS: error= 5.65D-06 at cycle   4 NSaved=   4.
 NSaved= 4 IEnMin= 4 EnMin= -204.062718835874     IErMin= 4 ErrMin= 5.65D-06
 ErrMax= 5.65D-06  0.00D+00 EMaxC= 1.00D+00 BMatC= 4.13D-09 BMatP= 4.76D-09
 IDIUse=1 WtCom= 1.00D+00 WtEn= 0.00D+00
 Coeff-Com:  0.365D-01 0.654D-01 0.487D+00 0.412D+00
 Coeff:      0.365D-01 0.654D-01 0.487D+00 0.412D+00
 Gap=     0.201 Goal=   None    Shift=    0.000
 RMSDP=4.61D-07 MaxDP=1.32D-05 DE=-7.94D-10 OVMax= 2.68D-05

 Cycle  12  Pass 1  IDiag  1:
 E= -204.062718839443     Delta-E=       -0.000000003569 Rises=F Damp=F
 DIIS: error= 1.32D-06 at cycle   5 NSaved=   5.
 NSaved= 5 IEnMin= 5 EnMin= -204.062718839443     IErMin= 5 ErrMin= 1.32D-06
 ErrMax= 1.32D-06  0.00D+00 EMaxC= 1.00D+00 BMatC= 1.99D-10 BMatP= 4.13D-09
 IDIUse=1 WtCom= 1.00D+00 WtEn= 0.00D+00
 Coeff-Com: -0.189D-01-0.426D-02 0.970D-01 0.212D+00 0.714D+00
 Coeff:     -0.189D-01-0.426D-02 0.970D-01 0.212D+00 0.714D+00
 Gap=     0.201 Goal=   None    Shift=    0.000
 RMSDP=1.20D-07 MaxDP=3.50D-06 DE=-3.57D-09 OVMax= 6.22D-06

 Cycle  13  Pass 1  IDiag  1:
 E= -204.062718839624     Delta-E=       -0.000000000181 Rises=F Damp=F
 DIIS: error= 1.50D-07 at cycle   6 NSaved=   6.
 NSaved= 6 IEnMin= 6 EnMin= -204.062718839624     IErMin= 6 ErrMin= 1.50D-07
 ErrMax= 1.50D-07  0.00D+00 EMaxC= 1.00D+00 BMatC= 5.96D-12 BMatP= 1.99D-10
 IDIUse=1 WtCom= 1.00D+00 WtEn= 0.00D+00
 Coeff-Com: -0.842D-02-0.375D-02 0.152D-01 0.674D-01 0.267D+00 0.662D+00
 Coeff:     -0.842D-02-0.375D-02 0.152D-01 0.674D-01 0.267D+00 0.662D+00
 Gap=     0.201 Goal=   None    Shift=    0.000
 RMSDP=2.78D-08 MaxDP=9.18D-07 DE=-1.81D-10 OVMax= 8.94D-07

 Cycle  14  Pass 1  IDiag  1:
 E= -204.062718839628     Delta-E=       -0.000000000004 Rises=F Damp=F
 DIIS: error= 8.32D-08 at cycle   7 NSaved=   7.
 NSaved= 7 IEnMin= 7 EnMin= -204.062718839628     IErMin= 7 ErrMin= 8.32D-08
 ErrMax= 8.32D-08  0.00D+00 EMaxC= 1.00D+00 BMatC= 1.44D-12 BMatP= 5.96D-12
 IDIUse=1 WtCom= 1.00D+00 WtEn= 0.00D+00
 Coeff-Com: -0.113D-02-0.103D-02-0.821D-02 0.156D-02 0.212D-01 0.347D+00
 Coeff-Com:  0.641D+00
 Coeff:     -0.113D-02-0.103D-02-0.821D-02 0.156D-02 0.212D-01 0.347D+00
 Coeff:      0.641D+00
 Gap=     0.201 Goal=   None    Shift=    0.000
 RMSDP=1.17D-08 MaxDP=3.63D-07 DE=-3.64D-12 OVMax= 5.44D-07

 Cycle  15  Pass 1  IDiag  1:
 E= -204.062718839630     Delta-E=       -0.000000000002 Rises=F Damp=F
 DIIS: error= 2.44D-08 at cycle   8 NSaved=   8.
 NSaved= 8 IEnMin= 8 EnMin= -204.062718839630     IErMin= 8 ErrMin= 2.44D-08
 ErrMax= 2.44D-08  0.00D+00 EMaxC= 1.00D+00 BMatC= 1.05D-13 BMatP= 1.44D-12
 IDIUse=1 WtCom= 1.00D+00 WtEn= 0.00D+00
 Coeff-Com:  0.378D-03-0.124D-03-0.563D-02-0.698D-02-0.195D-01 0.741D-01
 Coeff-Com:  0.288D+00 0.669D+00
 Coeff:      0.378D-03-0.124D-03-0.563D-02-0.698D-02-0.195D-01 0.741D-01
 Coeff:      0.288D+00 0.669D+00
 Gap=     0.201 Goal=   None    Shift=    0.000
 RMSDP=2.39D-09 MaxDP=6.74D-08 DE=-2.22D-12 OVMax= 9.35D-08

 SCF Done:  E(RB3LYP) =  -204.062718840     A.U. after   15 cycles
            NFock= 15  Conv=0.24D-08     -V/T= 2.0061
 KE= 2.028240302632D+02 PE=-6.920251839258D+02 EE= 1.773810645306D+02
 Leave Link  502 at Fri Aug 26 06:34:18 2022, MaxMem= 24159191040 cpu:        45.9
 (Enter /public/home/users/caep010/software/Gaussian09/g09/l701.exe)
 Compute integral first derivatives.
 ... and contract with generalized density number  0.
 Leave Link  701 at Fri Aug 26 06:34:19 2022, MaxMem= 24159191040 cpu:        13.6
 (Enter /public/home/users/caep010/software/Gaussian09/g09/l702.exe)
 L702 exits ... SP integral derivatives will be done elsewhere.
 Leave Link  702 at Fri Aug 26 06:34:19 2022, MaxMem= 24159191040 cpu:         0.5
 (Enter /public/home/users/caep010/software/Gaussian09/g09/l703.exe)
 Compute integral first derivatives, UseDBF=F ICtDFT=           0.
 Integral derivatives from FoFJK, PRISM(SPDF).
 Calling FoFJK, ICntrl=      2127 FMM=F ISym2X=0 I1Cent= 0 IOpClX= 0 NMat=1 NMatS=1 NMatT=0.
 FoFJK:  IHMeth= 1 ICntrl=    2127 DoSepK=F KAlg= 0 I1Cent=   0 FoldK=F
 IRaf=         0 NMat=   1 IRICut=       1 DoRegI=T DoRafI=F ISym2E= 0.
 FoFCou: FMM=F IPFlag=           0 FMFlag=      100000 FMFlg1=         800
         NFxFlg=           0 DoJE=F BraDBF=F KetDBF=F FulRan=T
         wScrn=  0.000000 ICntrl=    2127 IOpCl=  0 I1Cent=           0 NGrid=           0
         NMat0=    1 NMatS0=      1 NMatT0=    0 NMatD0=    1 NMtDS0=    0 NMtDT0=    0
 Symmetry not used in FoFCou.
 Leave Link  703 at Fri Aug 26 06:34:20 2022, MaxMem= 24159191040 cpu:        19.6
 (Enter /public/home/users/caep010/software/Gaussian09/g09/l716.exe)
 Dipole        =-2.73291335D+00-9.85170416D-01-6.40257555D-02
 ***** Axes restored to original set *****
[...]
 Coeff-Com:  0.970D+00
 Coeff:      0.115D-04-0.557D-03 0.140D-01-0.207D-01-0.169D+00 0.206D+00
 Coeff:      0.970D+00
 Gap=     0.354 Goal=   None    Shift=    0.000
 RMSDP=2.88D-08 MaxDP=2.04D-06 DE=-3.54D-10 OVMax= 4.82D-06

 Cycle   8  Pass 1  IDiag  1:
 E= -202.948831601836     Delta-E=       -0.000000000076 Rises=F Damp=F
 DIIS: error= 1.90D-07 at cycle   8 NSaved=   8.
 NSaved= 8 IEnMin= 8 EnMin= -202.948831601836     IErMin= 8 ErrMin= 1.90D-07
 ErrMax= 1.90D-07  0.00D+00 EMaxC= 1.00D-01 BMatC= 5.46D-12 BMatP= 3.94D-11
 IDIUse=1 WtCom= 1.00D+00 WtEn= 0.00D+00
 Coeff-Com:  0.304D-04-0.103D-02 0.110D-01 0.633D-02-0.760D-01-0.896D-01
 Coeff-Com:  0.238D+00 0.912D+00
 Coeff:      0.304D-04-0.103D-02 0.110D-01 0.633D-02-0.760D-01-0.896D-01
 Coeff:      0.238D+00 0.912D+00
 Gap=     0.354 Goal=   None    Shift=    0.000
 RMSDP=8.87D-09 MaxDP=7.32D-07 DE=-7.61D-11 OVMax= 1.30D-06

 SCF Done:  E(RHF) =  -202.948831602     A.U. after    8 cycles
            NFock=  8  Conv=0.89D-08     -V/T= 2.0017
 KE= 2.026116652340D+02 PE=-6.865629090334D+02 EE= 1.755791736728D+02
 Leave Link  502 at Fri Aug 26 06:37:50 2022, MaxMem= 24159191040 cpu:       843.4
 (Enter /public/home/users/caep010/software/Gaussian09/g09/l601.exe)
 Copying SCF densities to generalized density rwf, IOpCl= 0 IROHF=0.

 **********************************************************************

            Population analysis using the SCF density.

 **********************************************************************

 Orbital symmetries:
       Occupied  (A) (A) (A) (A) (A) (A) (A) (A) (A) (A) (A) (A)
                 (A) (A) (A)
       Virtual   (A) (A) (A) (A) (A) (A) (A) (A) (A) (A) (A) (A)
                 (A) (A) (A) (A) (A) (A) (A) (A) (A) (A) (A) (A)
                 (A) (A) (A) (A) (A) (A) (A) (A) (A) (A) (A) (A)
                 (A) (A) (A) (A) (A) (A) (A) (A) (A) (A) (A) (A)
                 (A) (A) (A) (A) (A) (A) (A) (A) (A) (A) (A) (A)
                 (A) (A) (A) (A) (A) (A) (A) (A) (A) (A) (A) (A)
                 (A) (A) (A) (A) (A) (A) (A) (A) (A) (A) (A) (A)
                 (A) (A) (A) (A) (A) (A) (A) (A) (A) (A) (A) (A)
                 (A) (A) (A) (A) (A) (A) (A) (A) (A) (A) (A) (A)
                 (A) (A) (A) (A) (A) (A) (A) (A) (A) (A) (A) (A)
                 (A) (A) (A) (A) (A) (A) (A) (A) (A) (A) (A) (A)
                 (A) (A) (A) (A) (A) (A) (A) (A) (A) (A) (A) (A)
                 (A) (A) (A) (A) (A) (A) (A) (A) (A) (A) (A) (A)
                 (A) (A) (A) (A) (A) (A) (A) (A) (A) (A) (A) (A)
                 (A) (A) (A) (A) (A) (A) (A) (A) (A) (A) (A) (A)
                 (A) (A) (A) (A) (A) (A) (A) (A) (A) (A) (A) (A)
                 (A) (A) (A) (A) (A) (A) (A) (A) (A) (A) (A) (A)
                 (A) (A) (A) (A) (A) (A) (A) (A) (A) (A) (A) (A)
                 (A) (A) (A) (A) (A) (A) (A) (A) (A) (A) (A) (A)
                 (A) (A) (A) (A) (A) (A) (A) (A) (A) (A) (A) (A)
                 (A) (A) (A) (A) (A) (A) (A) (A) (A) (A) (A) (A)
                 (A) (A) (A) (A) (A) (A) (A) (A) (A) (A) (A) (A)
                 (A) (A) (A) (A) (A) (A) (A) (A) (A) (A) (A) (A)
                 (A) (A) (A) (A) (A) (A) (A) (A) (A) (A) (A) (A)
                 (A) (A) (A) (A) (A) (A) (A) (A) (A) (A) (A) (A)
                 (A) (A) (A) (A) (A) (A) (A) (A) (A) (A) (A) (A)
                 (A) (A) (A) (A) (A) (A) (A) (A) (A) (A) (A) (A)
                 (A) (A) (A) (A) (A) (A) (A) (A) (A) (A) (A) (A)
                 (A) (A) (A) (A) (A) (A) (A) (A) (A) (A) (A) (A)
                 (A) (A) (A) (A) (A) (A) (A) (A) (A) (A) (A) (A)
                 (A) (A) (A) (A) (A) (A) (A) (A) (A) (A) (A) (A)
                 (A) (A) (A) (A) (A) (A) (A) (A) (A) (A) (A) (A)
                 (A) (A) (A) (A) (A) (A) (A) (A) (A) (A) (A) (A)
                 (A) (A) (A) (A) (A) (A) (A) (A) (A) (A) (A) (A)
                 (A) (A) (A) (A) (A) (A) (A) (A) (A) (A) (A) (A)
                 (A) (A) (A) (A) (A) (A) (A) (A) (A) (A) (A) (A)
                 (A) (A) (A) (A) (A)
 The electronic state is 1-A.
 Alpha  occ. eigenvalues --  -15.74098 -15.57558 -15.52237 -11.26472  -1.36874
 Alpha  occ. eigenvalues --   -1.18690  -1.09542  -0.81195  -0.79325  -0.71957
 Alpha  occ. eigenvalues --   -0.54307  -0.51229  -0.50847  -0.40676  -0.34639
 Alpha virt. eigenvalues --    0.00713   0.04539   0.04718   0.06389   0.07703
 Alpha virt. eigenvalues --    0.08295   0.08852   0.11540   0.12457   0.13356
 Alpha virt. eigenvalues --    0.14841   0.15794   0.16437   0.17254   0.17857
 Alpha virt. eigenvalues --    0.19738   0.20762   0.21514   0.23678   0.25562
 Alpha virt. eigenvalues --    0.27555   0.29869   0.30712   0.32582   0.35693
 Alpha virt. eigenvalues --    0.36250   0.40705   0.41286   0.42757   0.43017
 Alpha virt. eigenvalues --    0.44378   0.46210   0.46443   0.47189   0.49520
 Alpha virt. eigenvalues --    0.49923   0.52375   0.56058   0.57438   0.60222
 Alpha virt. eigenvalues --    0.64407   0.67300   0.68886   0.71445   0.76218
 Alpha virt. eigenvalues --    0.77852   0.78904   0.79731   0.86203   0.87532
 Alpha virt. eigenvalues --    0.92102   0.92569   0.94059   0.95641   0.96160
 Alpha virt. eigenvalues --    0.96907   0.99002   0.99573   1.00534   1.05399
 Alpha virt. eigenvalues --    1.07629   1.08557   1.10655   1.13699   1.14591
 Alpha virt. eigenvalues --    1.16264   1.16545   1.21432   1.21725   1.22775
 Alpha virt. eigenvalues --    1.26190   1.27426   1.32474   1.34239   1.36148
 Alpha virt. eigenvalues --    1.37795   1.42452   1.46852   1.49642   1.51769
 Alpha virt. eigenvalues --    1.52918   1.56795   1.65790   1.66541   1.68674
 Alpha virt. eigenvalues --    1.70272   1.74275   1.75830   1.78549   1.80796
 Alpha virt. eigenvalues --    1.81942   1.87886   1.89416   1.94745   1.95602
 Alpha virt. eigenvalues --    2.04791   2.08006   2.08456   2.10023   2.13820
 Alpha virt. eigenvalues --    2.15056   2.17996   2.18961   2.21924   2.24780
 Alpha virt. eigenvalues --    2.26418   2.28104   2.33100   2.33860   2.38238
 Alpha virt. eigenvalues --    2.39338   2.43281   2.43630   2.46660   2.47122
 Alpha virt. eigenvalues --    2.52205   2.52726   2.53660   2.56799   2.58280
 Alpha virt. eigenvalues --    2.58558   2.61026   2.64457   2.64786   2.69145
 Alpha virt. eigenvalues --    2.70641   2.73721   2.76194   2.77314   2.79147
 Alpha virt. eigenvalues --    2.83960   2.88743   2.92632   2.95542   2.96553
 Alpha virt. eigenvalues --    3.01705   3.02855   3.03231   3.09604   3.10360
 Alpha virt. eigenvalues --    3.14660   3.14966   3.19944   3.20587   3.21538
 Alpha virt. eigenvalues --    3.26147   3.28003   3.37614   3.38440   3.39454
 Alpha virt. eigenvalues --    3.42197   3.49029   3.53846   3.53971   3.54816
 Alpha virt. eigenvalues --    3.58192   3.62774   3.65960   3.67890   3.69048
 Alpha virt. eigenvalues --    3.79227   3.82616   3.85679   3.88016   3.94374
 Alpha virt. eigenvalues --    3.96556   4.01507   4.01612   4.06747   4.06803
 Alpha virt. eigenvalues --    4.12832   4.13613   4.18237   4.20363   4.23880
 Alpha virt. eigenvalues --    4.26825   4.31992   4.32797   4.38168   4.41902
 Alpha virt. eigenvalues --    4.44346   4.44522   4.48500   4.53712   4.58942
 Alpha virt. eigenvalues --    4.70583   4.83728   4.86134   4.87347   4.88149
 Alpha virt. eigenvalues --    4.99344   5.05140   5.10252   5.13239   5.16361
 Alpha virt. eigenvalues --    5.20701   5.23808   5.25829   5.35603   5.39191
 Alpha virt. eigenvalues --    5.46318   5.52549   5.56288   5.61473   5.65533
 Alpha virt. eigenvalues --    5.67293   5.67573   5.70372   5.72751   5.74593
 Alpha virt. eigenvalues --    5.83368   5.86316   5.86859   5.88362   5.94026
 Alpha virt. eigenvalues --    5.99285   6.00193   6.03246   6.06551   6.09952
 Alpha virt. eigenvalues --    6.13867   6.17034   6.17096   6.22043   6.30183
 Alpha virt. eigenvalues --    6.38129   6.40231   6.42164   6.42550   6.48572
 Alpha virt. eigenvalues --    6.49633   6.53653   6.60245   6.66556   6.71551
 Alpha virt. eigenvalues --    6.72245   6.77222   6.79493   6.86603   6.89234
 Alpha virt. eigenvalues --    6.94421   7.04512   7.05225   7.08703   7.20408
 Alpha virt. eigenvalues --    7.37295   7.55776   7.60858   7.63164   7.72719
 Alpha virt. eigenvalues --    7.75088   7.75556   7.76345   7.82913   7.84757
 Alpha virt. eigenvalues --    7.86759   7.87126   7.91585   8.10970   8.11462
 Alpha virt. eigenvalues --    8.14893   8.20085   8.22578   8.25275   8.32219
 Alpha virt. eigenvalues --    8.33408   8.41957   8.45843   8.50338   8.52778
 Alpha virt. eigenvalues --    8.55798   8.57747   8.58173   8.66935   8.70304
 Alpha virt. eigenvalues --    8.74247   8.79603   8.80061   8.84360   8.95527
 Alpha virt. eigenvalues --    9.07083   9.13963   9.14329   9.24281   9.27887
 Alpha virt. eigenvalues --    9.33473   9.36524   9.38605   9.38875   9.51753
 Alpha virt. eigenvalues --    9.66518   9.69954   9.75948   9.82327   9.82721
 Alpha virt. eigenvalues --    9.90298   9.93654   9.98183   9.99154  10.02221
 Alpha virt. eigenvalues --   10.03176  10.04962  10.12109  10.14293  10.24605
 Alpha virt. eigenvalues --   10.28361  10.36753  10.41791  10.47086  10.50932
 Alpha virt. eigenvalues --   10.76326  10.77789  10.82759  10.92824  10.95298
 Alpha virt. eigenvalues --   10.95302  10.95601  11.02047  11.04148  11.09581
 Alpha virt. eigenvalues --   11.21494  11.23538  11.28584  11.31264  11.34223
 Alpha virt. eigenvalues --   11.50679  11.67395  11.77724  11.81862  11.83937
 Alpha virt. eigenvalues --   11.94644  11.98752  12.07684  12.19395  12.49283
 Alpha virt. eigenvalues --   12.56165  12.56729  12.63398  12.71125  12.74986
 Alpha virt. eigenvalues --   12.80790  12.93032  13.02653  13.05980  13.06500
 Alpha virt. eigenvalues --   13.13077  13.19258  13.19922  13.24915  13.48092
 Alpha virt. eigenvalues --   13.48106  13.58972  13.63944  13.73722  13.76775
 Alpha virt. eigenvalues --   13.78789  13.88161  13.93091  13.93593  13.99498
 Alpha virt. eigenvalues --   14.12815  14.19057  14.19122  14.25766  14.40414
 Alpha virt. eigenvalues --   14.40856  14.42990  14.47592  14.53242  14.54120
 Alpha virt. eigenvalues --   14.55014  14.60492  14.62360  14.65454  14.69381
 Alpha virt. eigenvalues --   14.71223  14.77031  14.79424  14.85346  14.87255
 Alpha virt. eigenvalues --   14.87957  14.91996  14.92412  14.99805  15.00292
 Alpha virt. eigenvalues --   15.02370  15.13535  15.19530  15.21691  15.25801
 Alpha virt. eigenvalues --   15.28742  15.32850  15.36532  15.40706  15.49522
 Alpha virt. eigenvalues --   15.55219  15.66174  15.68510  15.77031  15.84737
 Alpha virt. eigenvalues --   15.90992  15.93581  16.19124  16.34837  16.52135
 Alpha virt. eigenvalues --   16.55849  16.62382  16.80900  17.18532  17.31560
 Alpha virt. eigenvalues --   17.80922  17.81592  17.95364  17.97501  18.07571
 Alpha virt. eigenvalues --   18.08876  18.14343  18.37627  18.42896  18.73229
 Alpha virt. eigenvalues --   18.84781  18.90093  18.98533  19.14987  19.42645
 Alpha virt. eigenvalues --   19.63684  19.73836  19.82019  19.99737  20.08643
 Alpha virt. eigenvalues --   20.17042  20.56605  21.67518  39.49195  50.67225
 Alpha virt. eigenvalues --   51.07334  51.53507
          Condensed to atoms (all electrons):
               1          2          3          4          5          6
     1  N    6.824040   0.766128  -0.083474  -0.001168   0.002181   0.002198
     2  C    0.766128   4.570010   0.309524  -0.012472  -0.011917  -0.012031
     3  N   -0.083474   0.309524   7.300245   0.104529  -0.023053  -0.022785
     4  N   -0.001168  -0.012472   0.104529   6.265822   0.352942   0.352573
     5  H    0.002181  -0.011917  -0.023053   0.352942   0.360152  -0.033681
     6  H    0.002198  -0.012031  -0.022785   0.352573  -0.033681   0.360268
     7  H   -0.000375   0.010581  -0.049206   0.379275  -0.012688  -0.012567
               7
     1  N   -0.000375
     2  C    0.010581
     3  N   -0.049206
     4  N    0.379275
     5  H   -0.012688
     6  H   -0.012567
     7  H    0.310434
 Mulliken charges:
               1
     1  N   -0.509530
     2  C    0.380178
     3  N   -0.535781
     4  N   -0.441501
     5  H    0.366063
     6  H    0.366025
     7  H    0.374544
 Sum of Mulliken charges =  -0.00000
 Mulliken charges with hydrogens summed into heavy atoms:
               1
     1  N   -0.509530
     2  C    0.380178
     3  N   -0.535781
     4  N    0.665132
 Electronic spatial extent (au):  <R**2>=            267.9199
 Charge=             -0.0000 electrons
 Dipole moment (field-independent basis, Debye):
    X=             -8.1053    Y=             -2.6662    Z=             -0.0000  Tot=              8.5326
 Quadrupole moment (field-independent basis, Debye-Ang):
   XX=            -22.9833   YY=            -24.9513   ZZ=            -23.0874
   XY=              5.6687   XZ=              0.0004   YZ=             -0.0001
 Traceless Quadrupole moment (field-independent basis, Debye-Ang):
   XX=              0.6907   YY=             -1.2773   ZZ=              0.5866
   XY=              5.6687   XZ=              0.0004   YZ=             -0.0001
 Octapole moment (field-independent basis, Debye-Ang**2):
  XXX=            -49.8647  YYY=             -6.7905  ZZZ=              0.0056  XYY=             -5.2908
  XXY=              1.5284  XXZ=             -0.0029  XZZ=             -6.8766  YZZ=             -3.6618
  YYZ=             -0.0031  XYZ=              0.0031
 Hexadecapole moment (field-independent basis, Debye-Ang**3):
 XXXX=           -258.6069 YYYY=            -61.8991 ZZZZ=            -27.4428 XXXY=             11.5163
 XXXZ=              0.0151 YYYX=             10.8845 YYYZ=              0.0051 ZZZX=             -0.0092
 ZZZY=             -0.0033 XXYY=            -53.5831 XXZZ=            -47.7737 YYZZ=            -13.7773
 XXYZ=             -0.0088 YYXZ=              0.0017 ZZXY=              5.4585
 N-N= 1.054232385247D+02 E-N=-6.865629046660D+02  KE= 2.026116652340D+02
 No NMR shielding tensors so no spin-rotation constants.
 Leave Link  601 at Fri Aug 26 06:37:51 2022, MaxMem= 24159191040 cpu:        20.5
 (Enter /public/home/users/caep010/software/Gaussian09/g09/l9999.exe)
 1\1\GINC-B1824\SP\RHF\GFHFB2\C1H3N3\ROOT\26-Aug-2022\0\\#P Geom=AllChe
 ck Guess=TCheck SCRF=Check HF/GFHFB2 SCF=Tight\\Frag_877\\0,1\N,0,2.41
 81250171,-0.3534789821,0.0504021004\C,0,1.4069817394,0.2360276932,0.11
 7068305\N,0,0.2875698259,0.9398761062,0.1908956683\N,0,-0.8107320718,-
 0.0360754723,0.2604987942\H,0,-0.762780055,-0.6483591737,1.0874123806\
 H,0,-0.8685089781,-0.6473794484,-0.5665067227\H,0,-1.6707554774,0.5093
 89277,0.3158294743\\Version=ES64L-G09RevE.01\State=1-A\HF=-202.9488316
 \RMSD=8.871e-09\Dipole=-3.2719835,-0.72031,0.2111067\Quadrupole=1.3455
 566,-1.7845815,0.4390249,3.9717435,-0.0519628,-0.2616318\PG=C01 [X(C1H
 3N3)]\\@


 ... SUBJECTS WHICH DISCLOSE THEIR FULL POWER, MEANING AND BEAUTY AS SOON
 AS THEY ARE PRESENTED TO THE MIND HAVE VERY LITTLE OF THOSE QUALITIES
 TO DISCLOSE.
                           -- CHARLES DUTTON (1882)
 Diagonal vibrational polarizability:
        0.0000000       0.0000000       0.0000000

 Temperature=              298.150000 Pressure=                      1.000000
 E(ZPE)=                     0.051290 E(Thermal)=                    0.055773
 E(CCSD(T))=              -203.499277 E(Empiric)=                   -0.076417
 DE(Plus)=                  -0.018654 DE(2DF)=                      -0.147203
 E(Delta-G3XP)=             -0.259682 DE(HF)=                       -0.019196
 G4(0 K)=                 -203.969140 G4 Energy=                  -203.964656
 G4 Enthalpy=             -203.963712 G4 Free Energy=             -203.995700
 1\1\GINC-B1824\Mixed\G4\G4\C1H3N3\ROOT\26-Aug-2022\0\\#P Geom=AllCheck
  Guess=TCheck SCRF=Check HF/GFHFB2 SCF=Tight\\Frag_877\\0,1\N,0,2.4181
 250171,-0.3534789821,0.0504021004\C,0,1.4069817394,0.2360276932,0.1170
 68305\N,0,0.2875698259,0.9398761062,0.1908956683\N,0,-0.8107320718,-0.
 0360754723,0.2604987942\H,0,-0.762780055,-0.6483591737,1.0874123806\H,
 0,-0.8685089781,-0.6473794484,-0.5665067227\H,0,-1.6707554774,0.509389
 277,0.3158294743\\Version=ES64L-G09RevE.01\State=1-A\MP2/GTBas1=-203.4
 56963\MP4/GTBas1=-203.5026128\CCSD(T)/G3Bas1=-203.4992771\MP2/GTBas2=-
 203.4749843\MP4/GTBas2=-203.5212671\MP2/GTBas3=-203.5958469\MP4/GTBas3
 =-203.6498162\HF/GTLargeXP=-202.930392\MP2/GTLargeXP=-203.8735503\HF/G
 FHFB1=-202.9457285\HF/GFHFB2=-202.9488316\G4=-203.9691395\FreqCoord=4.
 5695940374,-0.6679784698,0.0952461662,2.6588101614,0.4460276999,0.2212
 270353,0.5434282151,1.7761084396,0.360740533,-1.5320615829,-0.06817276
 27,0.4922713789,-1.4414454036,-1.225221274,2.0549115929,-1.6412441126,
 -1.2233698616,-1.0705425584,-3.1572702873,0.9626062286,0.5968312111\PG
 =C01 [X(C1H3N3)]\NImag=0\\0.84052146,-0.47607848,0.29735320,-0.0534831
 9,0.03137032,0.03292034,-0.81164525,0.43905784,0.04982258,1.18704066,0
 .43809633,-0.29761548,-0.02886188,-0.56875303,0.46183500,0.04982248,-0
 .02892400,-0.05924376,-0.07102730,0.03753687,0.11261872,-0.04585893,0.
 03642561,0.00461453,-0.29104257,0.16917480,0.01608817,0.45222040,0.034
 37622,0.00239119,-0.00226798,0.10774408,-0.17122941,-0.00720649,-0.124
 79579,0.27811084,0.00460760,-0.00239810,0.02406309,0.01598030,-0.01119
 659,-0.04892270,-0.02633334,0.00848190,0.05191896,0.01933858,-0.004879
 64,-0.00095590,-0.08953059,-0.02264359,0.00508978,-0.07497956,0.013753
 23,0.00179547,0.55197075,0.00703623,-0.00340715,-0.00046952,0.02226621
 ,0.00670154,-0.00142282,-0.02528898,-0.07967487,0.00160994,-0.20098538
 ,0.54687183,-0.00093185,0.00030127,0.00477081,0.00516270,0.00149900,-0
 .01061183,0.00169701,-0.00096168,-0.04815966,0.00674587,0.01283364,0.6
 6007217,-0.00262162,0.00314420,-0.00152448,0.00878279,-0.00650488,0.00
 287791,-0.00768676,-0.01868604,0.01778591,-0.05696812,0.02063649,-0.01
 597900,0.05705872,-0.00166030,0.00011618,0.00074206,0.00272349,0.00140
 335,-0.00158642,-0.01533813,-0.02054134,0.01027611,0.03182189,-0.15310
 468,0.14745959,-0.01633078,0.16683102,0.00064577,-0.00024322,-0.001307
 25,0.00054442,-0.00160599,0.00237299,0.01027587,0.00764799,0.00891217,
 -0.03103846,0.13587300,-0.26967783,0.02374948,-0.15632538,0.28234507,-
 0.00248898,0.00314962,0.00168972,0.00825414,-0.00624392,-0.00366126,-0
 .01096056,-0.01948309,-0.01525398,-0.05448932,0.00315505,-0.01165522,0
 .00127800,-0.00128801,-0.00455881,0.05470559,-0.00173686,0.00011200,-0
 .00051934,0.00289695,0.00141846,0.00123165,-0.01648366,-0.02053137,-0.
 00830390,0.01274823,-0.15279853,-0.15017842,0.00101568,0.01578365,0.01
 807046,0.00372264,0.16648122,-0.00049881,-0.00015989,-0.00144455,-0.00
 130306,0.00243077,0.00293229,-0.00772859,-0.00524945,0.01214806,0.0034
 0465,-0.13727866,-0.27251774,0.00097752,-0.01800300,-0.02660482,0.0055
 0238,0.15700763,0.28507587,0.00275474,-0.00081915,-0.00016326,-0.01185
 918,-0.00312570,0.00081022,-0.02169202,0.00709138,0.00141803,-0.295341
 74,0.17318038,0.01496049,0.00015700,0.00007186,0.00038173,0.00370113,-
 0.00216297,-0.00035408,0.32228007,-0.00003314,0.00105005,0.00000635,-0
 .00593553,-0.00251346,0.00037121,-0.02369385,0.01147495,0.00153064,0.1
 7018526,-0.16458815,-0.01095340,0.01672534,-0.01048818,-0.00341687,0.0
 1698772,-0.01046544,0.00125259,-0.17423580,0.17553023,-0.00016199,0.00
 005363,0.00024133,0.00082036,0.00019781,0.00085429,0.00138635,-0.00044
 429,0.00004008,0.01495858,-0.01114558,-0.06387592,-0.02788733,0.017437
 04,0.00395967,0.02793716,-0.01730808,0.00041089,-0.01705313,0.01120947
 ,0.05836966\\-0.00003345,0.00003526,0.00000192,-0.00001878,-0.00005984
 ,-0.00000317,-0.00003032,0.00003194,0.00000862,0.00006716,-0.00002992,
 -0.00000887,0.00000057,0.00000135,0.00000746,0.00000252,-0.00000148,-0
 .00000368,0.00001230,0.00002267,-0.00000227\\\@
 Job cpu time:       0 days  0 hours 15 minutes 23.8 seconds.
 File lengths (MBytes):  RWF=    628 Int=      0 D2E=      0 Chk=     13 Scr=      1
 Normal termination of Gaussian 09 at Fri Aug 26 06:37:52 2022.
