 Entering Gaussian System, Link 0=g09
 Input=G4.Frag_601.gjf
 Output=G4.Frag_601.log
 Initial command:
 /public/home/users/caep010/software/Gaussian09/g09/l1.exe "/public/home/users/caep010/.cache/gau_scr/Gau-124022.inp" -scrdir="/public/home/users/caep010/.cache/gau_scr/"
 Entering Link 1 = /public/home/users/caep010/software/Gaussian09/g09/l1.exe PID=    124023.
  
 Copyright (c) 1988,1990,1992,1993,1995,1998,2003,2009,2015,
            Gaussian, Inc.  All Rights Reserved.
  
 This is part of the Gaussian(R) 09 program.  It is based on
 the Gaussian(R) 03 system (copyright 2003, Gaussian, Inc.),
 the Gaussian(R) 98 system (copyright 1998, Gaussian, Inc.),
 the Gaussian(R) 94 system (copyright 1995, Gaussian, Inc.),
 the Gaussian 92(TM) system (copyright 1992, Gaussian, Inc.),
 the Gaussian 90(TM) system (copyright 1990, Gaussian, Inc.),
 the Gaussian 88(TM) system (copyright 1988, Gaussian, Inc.),
 the Gaussian 86(TM) system (copyright 1986, Carnegie Mellon
 University), and the Gaussian 82(TM) system (copyright 1983,
 Carnegie Mellon University). Gaussian is a federally registered
 trademark of Gaussian, Inc.
  
 This software contains proprietary and confidential information,
 including trade secrets, belonging to Gaussian, Inc.
  
 This software is provided under written license and may be
 used, copied, transmitted, or stored only in accord with that
 written license.
  
 The following legend is applicable only to US Government
 contracts under FAR:
  
                    RESTRICTED RIGHTS LEGEND
  
 Use, reproduction and disclosure by the US Government is
 subject to restrictions as set forth in subparagraphs (a)
 and (c) of the Commercial Computer Software - Restricted
 Rights clause in FAR 52.227-19.
  
 Gaussian, Inc.
 340 Quinnipiac St., Bldg. 40, Wallingford CT 06492
  
  
 ---------------------------------------------------------------
 Warning -- This program may not be used in any manner that
 competes with the business of Gaussian, Inc. or will provide
 assistance to any competitor of Gaussian, Inc.  The licensee
 of this program is prohibited from giving any competitor of
 Gaussian, Inc. access to this program.  By using this program,
 the user acknowledges that Gaussian, Inc. is engaged in the
 business of creating and licensing software in the field of
 computational chemistry and represents and warrants to the
 licensee that it is not a competitor of Gaussian, Inc. and that
 it will not use this program in any manner prohibited above.
 ---------------------------------------------------------------
  

 Cite this work as:
 Gaussian 09, Revision E.01,
 M. J. Frisch, G. W. Trucks, H. B. Schlegel, G. E. Scuseria, 
 M. A. Robb, J. R. Cheeseman, G. Scalmani, V. Barone, B. Mennucci, 
 G. A. Petersson, H. Nakatsuji, M. Caricato, X. Li, H. P. Hratchian, 
 A. F. Izmaylov, J. Bloino, G. Zheng, J. L. Sonnenberg, M. Hada, 
 M. Ehara, K. Toyota, R. Fukuda, J. Hasegawa, M. Ishida, T. Nakajima, 
 Y. Honda, O. Kitao, H. Nakai, T. Vreven, J. A. Montgomery, Jr., 
 J. E. Peralta, F. Ogliaro, M. Bearpark, J. J. Heyd, E. Brothers, 
 K. N. Kudin, V. N. Staroverov, T. Keith, R. Kobayashi, J. Normand, 
 K. Raghavachari, A. Rendell, J. C. Burant, S. S. Iyengar, J. Tomasi, 
 M. Cossi, N. Rega, J. M. Millam, M. Klene, J. E. Knox, J. B. Cross, 
 V. Bakken, C. Adamo, J. Jaramillo, R. Gomperts, R. E. Stratmann, 
 O. Yazyev, A. J. Austin, R. Cammi, C. Pomelli, J. W. Ochterski, 
 R. L. Martin, K. Morokuma, V. G. Zakrzewski, G. A. Voth, 
 P. Salvador, J. J. Dannenberg, S. Dapprich, A. D. Daniels, 
 O. Farkas, J. B. Foresman, J. V. Ortiz, J. Cioslowski, 
 and D. J. Fox, Gaussian, Inc., Wallingford CT, 2013.
 
 ******************************************
 Gaussian 09:  ES64L-G09RevE.01 30-Nov-2015
                23-Aug-2022 
 ******************************************
 %nproc=32
 Will use up to   32 processors via shared memory.
 %mem=180MB
 %chk=G4.Frag_601.chk
 -----
 #P G4
 -----
 1/14=-1,18=20,19=15,26=3,38=1/1,3;
 2/9=110,12=2,17=6,18=5,40=1/2;
 3/5=35,7=104,11=2,16=1,25=1,30=1,71=1,74=-5/1,2,3;
 4//1;
 5/5=2,38=5/2;
 6/7=2,8=2,9=2,10=2,28=1/1;
 7//1,2,3,16;
 1/14=-1,18=20,19=15,26=3/3(2);
 2/9=110/2;
 99//99;
 2/9=110/2;
 3/5=35,7=104,11=2,16=1,25=1,30=1,71=1,74=-5/1,2,3;
 4/5=5,16=3,69=1/1;
 5/5=2,38=5/2;
 7//1,2,3,16;
 1/14=-1,18=20,19=15,26=3/3(-5);
 2/9=110/2;
 6/7=2,8=2,9=2,10=2,19=2,28=1/1;
 99/9=1/99;
 Leave Link    1 at Tue Aug 23 06:03:45 2022, MaxMem=    23592960 cpu:         2.2
 (Enter /public/home/users/caep010/software/Gaussian09/g09/l101.exe)
 --------
 Frag_601
 --------
 Symbolic Z-matrix:
 Charge =  0 Multiplicity = 1
 C                     1.6759    0.4726    0.0474 
 C                     0.7555   -0.6298   -0.3819 
 O                     1.2484   -1.6841   -0.8657 
 N                    -0.6717   -0.5099   -0.254 
 C                    -1.3002    0.6992    0.2731 
 O                    -1.461    -1.5352   -0.6603 
 H                     1.4646    1.3897   -0.5406 
 H                     2.7353    0.1824   -0.1188 
 H                     1.5332    0.683     1.1276 
 H                    -1.0337    1.5715   -0.3596 
 H                    -2.4053    0.5883    0.2727 
 H                    -0.9645    0.876     1.3163 
 H                    -1.5763   -2.1037    0.144 
 
 NAtoms=     13 NQM=       13 NQMF=       0 NMMI=      0 NMMIF=      0
                NMic=       0 NMicF=      0.
                    Isotopes and Nuclear Properties:
 (Nuclear quadrupole moments (NQMom) in fm**2, nuclear magnetic moments (NMagM)
  in nuclear magnetons)

  Atom         1           2           3           4           5           6           7           8           9          10
 IAtWgt=          12          12          16          14          12          16           1           1           1           1
 AtmWgt=  12.0000000  12.0000000  15.9949146  14.0030740  12.0000000  15.9949146   1.0078250   1.0078250   1.0078250   1.0078250
 NucSpn=           0           0           0           2           0           0           1           1           1           1
 AtZEff=   0.0000000   0.0000000   0.0000000   0.0000000   0.0000000   0.0000000   0.0000000   0.0000000   0.0000000   0.0000000
 NQMom=    0.0000000   0.0000000   0.0000000   2.0440000   0.0000000   0.0000000   0.0000000   0.0000000   0.0000000   0.0000000
 NMagM=    0.0000000   0.0000000   0.0000000   0.4037610   0.0000000   0.0000000   2.7928460   2.7928460   2.7928460   2.7928460
 AtZNuc=   6.0000000   6.0000000   8.0000000   7.0000000   6.0000000   8.0000000   1.0000000   1.0000000   1.0000000   1.0000000

  Atom        11          12          13
 IAtWgt=           1           1           1
 AtmWgt=   1.0078250   1.0078250   1.0078250
 NucSpn=           1           1           1
 AtZEff=   0.0000000   0.0000000   0.0000000
 NQMom=    0.0000000   0.0000000   0.0000000
 NMagM=    2.7928460   2.7928460   2.7928460
 AtZNuc=   1.0000000   1.0000000   1.0000000
 Leave Link  101 at Tue Aug 23 06:03:46 2022, MaxMem=    23592960 cpu:         1.3
 (Enter /public/home/users/caep010/software/Gaussian09/g09/l103.exe)

 GradGradGradGradGradGradGradGradGradGradGradGradGradGradGradGradGradGrad
 Berny optimization.
 Initialization pass.
                           ----------------------------
                           !    Initial Parameters    !
                           ! (Angstroms and Degrees)  !
 --------------------------                            --------------------------
 ! Name  Definition              Value          Derivative Info.                !
 --------------------------------------------------------------------------------
 ! R1    R(1,2)                  1.4989         estimate D2E/DX2                !
 ! R2    R(1,7)                  1.1097         estimate D2E/DX2                !
 ! R3    R(1,8)                  1.1109         estimate D2E/DX2                !
 ! R4    R(1,9)                  1.1097         estimate D2E/DX2                !
 ! R5    R(2,3)                  1.2604         estimate D2E/DX2                !
 ! R6    R(2,4)                  1.4379         estimate D2E/DX2                !
 ! R7    R(4,5)                  1.4611         estimate D2E/DX2                !
 ! R8    R(4,6)                  1.3562         estimate D2E/DX2                !
 ! R9    R(5,10)                 1.1101         estimate D2E/DX2                !
 ! R10   R(5,11)                 1.1107         estimate D2E/DX2                !
 ! R11   R(5,12)                 1.1101         estimate D2E/DX2                !
 ! R12   R(6,13)                 0.9917         estimate D2E/DX2                !
 ! A1    A(2,1,7)              109.8242         estimate D2E/DX2                !
 ! A2    A(2,1,8)              110.5238         estimate D2E/DX2                !
 ! A3    A(2,1,9)              109.8327         estimate D2E/DX2                !
 ! A4    A(7,1,8)              108.5534         estimate D2E/DX2                !
 ! A5    A(7,1,9)              109.5482         estimate D2E/DX2                !
 ! A6    A(8,1,9)              108.5287         estimate D2E/DX2                !
 ! A7    A(1,2,3)              119.0136         estimate D2E/DX2                !
 ! A8    A(1,2,4)              121.5112         estimate D2E/DX2                !
 ! A9    A(3,2,4)              119.4752         estimate D2E/DX2                !
 ! A10   A(2,4,5)              121.8733         estimate D2E/DX2                !
 ! A11   A(2,4,6)              119.2066         estimate D2E/DX2                !
 ! A12   A(5,4,6)              118.9043         estimate D2E/DX2                !
 ! A13   A(4,5,10)             109.9619         estimate D2E/DX2                !
 ! A14   A(4,5,11)             110.197          estimate D2E/DX2                !
 ! A15   A(4,5,12)             109.9224         estimate D2E/DX2                !
 ! A16   A(10,5,11)            108.4898         estimate D2E/DX2                !
 ! A17   A(10,5,12)            109.7478         estimate D2E/DX2                !
 ! A18   A(11,5,12)            108.4906         estimate D2E/DX2                !
 ! A19   A(4,6,13)             104.9566         estimate D2E/DX2                !
 ! D1    D(7,1,2,3)            118.9241         estimate D2E/DX2                !
 ! D2    D(7,1,2,4)            -61.0654         estimate D2E/DX2                !
 ! D3    D(8,1,2,3)             -0.819          estimate D2E/DX2                !
 ! D4    D(8,1,2,4)            179.1915         estimate D2E/DX2                !
 ! D5    D(9,1,2,3)           -120.5369         estimate D2E/DX2                !
 ! D6    D(9,1,2,4)             59.4735         estimate D2E/DX2                !
 ! D7    D(1,2,4,5)              1.3052         estimate D2E/DX2                !
 ! D8    D(1,2,4,6)            179.8458         estimate D2E/DX2                !
 ! D9    D(3,2,4,5)           -178.6842         estimate D2E/DX2                !
 ! D10   D(3,2,4,6)             -0.1436         estimate D2E/DX2                !
 ! D11   D(2,4,5,10)            59.6154         estimate D2E/DX2                !
 ! D12   D(2,4,5,11)           179.1619         estimate D2E/DX2                !
 ! D13   D(2,4,5,12)           -61.3155         estimate D2E/DX2                !
 ! D14   D(6,4,5,10)          -118.9295         estimate D2E/DX2                !
 ! D15   D(6,4,5,11)             0.617          estimate D2E/DX2                !
 ! D16   D(6,4,5,12)           120.1397         estimate D2E/DX2                !
 ! D17   D(2,4,6,13)            90.938          estimate D2E/DX2                !
 ! D18   D(5,4,6,13)           -90.4777         estimate D2E/DX2                !
 --------------------------------------------------------------------------------
 Trust Radius=3.00D-01 FncErr=1.00D-07 GrdErr=1.00D-06
 Number of steps in this run=     59 maximum allowed number of steps=    100.
 GradGradGradGradGradGradGradGradGradGradGradGradGradGradGradGradGradGrad

 Leave Link  103 at Tue Aug 23 06:03:46 2022, MaxMem=    23592960 cpu:         0.4
 (Enter /public/home/users/caep010/software/Gaussian09/g09/l202.exe)
                          Input orientation:                          
 ---------------------------------------------------------------------
 Center     Atomic      Atomic             Coordinates (Angstroms)
 Number     Number       Type             X           Y           Z
 ---------------------------------------------------------------------
      1          6           0        1.675900    0.472600    0.047400
      2          6           0        0.755500   -0.629800   -0.381900
      3          8           0        1.248400   -1.684100   -0.865700
      4          7           0       -0.671700   -0.509900   -0.254000
      5          6           0       -1.300200    0.699200    0.273100
      6          8           0       -1.461000   -1.535200   -0.660300
      7          1           0        1.464600    1.389700   -0.540600
      8          1           0        2.735300    0.182400   -0.118800
      9          1           0        1.533200    0.683000    1.127600
     10          1           0       -1.033700    1.571500   -0.359600
     11          1           0       -2.405300    0.588300    0.272700
     12          1           0       -0.964500    0.876000    1.316300
     13          1           0       -1.576300   -2.103700    0.144000
 ---------------------------------------------------------------------
                    Distance matrix (angstroms):
                    1          2          3          4          5
     1  C    0.000000
     2  C    1.498906   0.000000
     3  O    2.380727   1.260381   0.000000
     4  N    2.562689   1.437927   2.332318   0.000000
     5  C    2.993236   2.534002   3.670469   1.461085   0.000000
     6  O    3.791074   2.410421   2.721251   1.356213   2.426857
     7  H    1.109714   2.146250   3.098496   2.873047   2.963616
     8  H    1.110931   2.156038   2.500511   3.479254   4.087289
     9  H    1.109713   2.146358   3.107655   2.862414   2.959491
    10  H    2.952145   2.836804   4.007873   2.115283   1.110063
    11  H    4.089051   3.450062   4.450762   2.118685   1.110651
    12  H    2.957119   2.847756   4.026433   2.114780   1.110054
    13  H    4.150115   2.808246   3.028942   1.875341   2.819423
                    6          7          8          9         10
     6  O    0.000000
     7  H    4.138660   0.000000
     8  H    4.566432   1.802822   0.000000
     9  H    4.133066   1.813015   1.802542   0.000000
    10  H    3.150332   2.511437   4.024046   3.096800   0.000000
    11  H    2.504285   4.034826   5.171440   4.031328   1.802158
    12  H    3.157110   3.100402   4.028537   2.512242   1.815806
    13  H    0.991658   4.681837   4.887250   4.289773   3.749016
                   11         12         13
    11  H    0.000000
    12  H    1.802159   0.000000
    13  H    2.819693   3.259938   0.000000
 Stoichiometry    C3H7NO2
 Framework group  C1[X(C3H7NO2)]
 Deg. of freedom    33
 Full point group                 C1      NOp   1
 Largest Abelian subgroup         C1      NOp   1
 Largest concise Abelian subgroup C1      NOp   1
                         Standard orientation:                         
 ---------------------------------------------------------------------
 Center     Atomic      Atomic             Coordinates (Angstroms)
 Number     Number       Type             X           Y           Z
 ---------------------------------------------------------------------
      1          6           0        1.715225    0.922862    0.039430
      2          6           0        0.745888   -0.219401   -0.008943
      3          8           0        1.191107   -1.398183   -0.037470
      4          7           0       -0.675003    0.000797   -0.023636
      5          6           0       -1.247478    1.345057   -0.020581
      6          8           0       -1.509716   -1.067064   -0.070978
      7          1           0        1.587076    1.563446   -0.857617
      8          1           0        2.760230    0.546344    0.058559
      9          1           0        1.540924    1.526076    0.954425
     10          1           0       -0.900155    1.906902   -0.912733
     11          1           0       -2.356383    1.289652   -0.048920
     12          1           0       -0.945324    1.882756    0.902350
     13          1           0       -1.694293   -1.289882    0.877531
 ---------------------------------------------------------------------
 Rotational constants (GHZ):      4.9925541      3.2968845      2.0535273
 Leave Link  202 at Tue Aug 23 06:03:46 2022, MaxMem=    23592960 cpu:         0.4
 (Enter /public/home/users/caep010/software/Gaussian09/g09/l301.exe)
 Standard basis: GTBas3 (6D, 7F)
 Ernie: Thresh=  0.10000D-02 Tol=  0.10000D-05 Strict=F.
 There are   221 symmetry adapted cartesian basis functions of A   symmetry.
 There are   203 symmetry adapted basis functions of A   symmetry.
   203 basis functions,   313 primitive gaussians,   221 cartesian basis functions
    24 alpha electrons       24 beta electrons
       nuclear repulsion energy       247.3501768871 Hartrees.
 IExCor=  402 DFT=T Ex+Corr=B3LYP ExCW=0 ScaHFX=  0.200000
 ScaDFX=  0.800000  0.720000  1.000000  0.810000 ScalE2=  1.000000  1.000000
 IRadAn=      0 IRanWt=     -1 IRanGd=            0 ICorTp=0 IEmpDi=  4
 NAtoms=   13 NActive=   13 NUniq=   13 SFac= 1.00D+00 NAtFMM=   60 NAOKFM=F Big=F
 Integral buffers will be    131072 words long.
 Raffenetti 2 integral format.
 Two-electron integral symmetry is turned on.
 Leave Link  301 at Tue Aug 23 06:03:46 2022, MaxMem=    23592960 cpu:         1.8
 (Enter /public/home/users/caep010/software/Gaussian09/g09/l302.exe)
 NPDir=0 NMtPBC=     1 NCelOv=     1 NCel=       1 NClECP=     1 NCelD=      1
         NCelK=      1 NCelE2=     1 NClLst=     1 CellRange=     0.0.
 One-electron integrals computed using PRISM.
 PrsmSu:  requested number of processors reduced to:   3 ShMem   1 Linda.
 PrsmSu:  requested number of processors reduced to:  11 ShMem   1 Linda.
 NBasis=   203 RedAO= T EigKep=  3.59D-04  NBF=   203
 NBsUse=   203 1.00D-06 EigRej= -1.00D+00 NBFU=   203
 Precomputing XC quadrature grid using
 IXCGrd= 4 IRadAn=           0 IRanWt=          -1 IRanGd=           0 AccXCQ= 0.00D+00.
 Generated NRdTot=       0 NPtTot=           0 NUsed=           0 NTot=          32
 NSgBfM=   221   221   221   221   221 MxSgAt=    13 MxSgA2=    13.
 Leave Link  302 at Tue Aug 23 06:03:46 2022, MaxMem=    23592960 cpu:         4.7
 (Enter /public/home/users/caep010/software/Gaussian09/g09/l303.exe)
 DipDrv:  MaxL=1.
 Leave Link  303 at Tue Aug 23 06:03:46 2022, MaxMem=    23592960 cpu:         0.7
 (Enter /public/home/users/caep010/software/Gaussian09/g09/l401.exe)
 ExpMin= 1.61D-01 ExpMax= 5.48D+03 ExpMxC= 8.25D+02 IAcc=1 IRadAn=         1 AccDes= 0.00D+00
 Harris functional with IExCor=  402 and IRadAn=       1 diagonalized for initial guess.
 HarFok:  IExCor=  402 AccDes= 0.00D+00 IRadAn=         1 IDoV= 1 UseB2=F ITyADJ=14
 ICtDFT=  3500011 ScaDFX=  1.000000  1.000000  1.000000  1.000000
 CalDSu:  requested number of processors reduced to:  20 ShMem   1 Linda.
 FoFCou: FMM=F IPFlag=           0 FMFlag=      100000 FMFlg1=           0
         NFxFlg=           0 DoJE=T BraDBF=F KetDBF=T FulRan=T
         wScrn=  0.000000 ICntrl=     500 IOpCl=  0 I1Cent=   200000004 NGrid=           0
         NMat0=    1 NMatS0=      1 NMatT0=    0 NMatD0=    1 NMtDS0=    0 NMtDT0=    0
 Petite list used in FoFCou.
 CoulSu:  requested number of processors reduced to:  11 ShMem   1 Linda.
 CoulSu:  requested number of processors reduced to:  11 ShMem   1 Linda.
 CoulSu:  requested number of processors reduced to:  12 ShMem   1 Linda.
 CoulSu:  requested number of processors reduced to:  12 ShMem   1 Linda.
 Harris En= -323.724961952966    
 JPrj=0 DoOrth=F DoCkMO=F.
 Leave Link  401 at Tue Aug 23 06:03:47 2022, MaxMem=    23592960 cpu:         4.6
 (Enter /public/home/users/caep010/software/Gaussian09/g09/l502.exe)
 Closed shell SCF:
 Using DIIS extrapolation, IDIIS=  1040.
 Integral symmetry usage will be decided dynamically.
 IVT=      173757 IEndB=      173757 NGot=    23592960 MDV=    23484906
 LenX=    23484906 LenY=    23435624
 Requested convergence on RMS density matrix=1.00D-08 within 128 cycles.
 Requested convergence on MAX density matrix=1.00D-06.
 Requested convergence on             energy=1.00D-06.
 No special actions if energy rises.
 Fock matrices will be formed incrementally for  20 cycles.
 Integral accuracy reduced to 1.0D-05 until final iterations.

 Cycle   1  Pass 0  IDiag  1:
 FoFJK:  IHMeth= 1 ICntrl=       0 DoSepK=F KAlg= 0 I1Cent=   0 FoldK=F
 IRaf= 970000000 NMat=   1 IRICut=       1 DoRegI=T DoRafI=F ISym2E= 0.
 FoFCou: FMM=F IPFlag=           0 FMFlag=      100000 FMFlg1=           0
         NFxFlg=           0 DoJE=F BraDBF=F KetDBF=F FulRan=T
         wScrn=  0.000000 ICntrl=       0 IOpCl=  0 I1Cent=           0 NGrid=           0
         NMat0=    1 NMatS0=      1 NMatT0=    0 NMatD0=    1 NMtDS0=    0 NMtDT0=    0
 Symmetry not used in FoFCou.
 CoulSu:  requested number of processors reduced to:  11 ShMem   1 Linda.
 CalDSu:  requested number of processors reduced to:  20 ShMem   1 Linda.
 E= -323.475875303913    
 DIIS: error= 2.55D-02 at cycle   1 NSaved=   1.
 NSaved= 1 IEnMin= 1 EnMin= -323.475875303913     IErMin= 1 ErrMin= 2.55D-02
 ErrMax= 2.55D-02  0.00D+00 EMaxC= 1.00D-01 BMatC= 2.48D-01 BMatP= 2.48D-01
 IDIUse=3 WtCom= 7.45D-01 WtEn= 2.55D-01
 Coeff-Com:  0.100D+01
 Coeff-En:   0.100D+01
 Coeff:      0.100D+01
 Gap=     0.280 Goal=   None    Shift=    0.000
 GapD=    0.280 DampG=1.000 DampE=0.500 DampFc=0.5000 IDamp=-1.
 Damping current iteration by 5.00D-01
 RMSDP=8.53D-03 MaxDP=4.54D-01              OVMax= 4.96D-01

 Cycle   2  Pass 0  IDiag  1:
 RMSU=  4.26D-03    CP:  9.87D-01
 CoulSu:  requested number of processors reduced to:  11 ShMem   1 Linda.
 CalDSu:  requested number of processors reduced to:  20 ShMem   1 Linda.
 E= -323.480371961001     Delta-E=       -0.004496657087 Rises=F Damp=T
 DIIS: error= 1.57D-02 at cycle   2 NSaved=   2.
 NSaved= 2 IEnMin= 2 EnMin= -323.480371961001     IErMin= 2 ErrMin= 1.57D-02
 ErrMax= 1.57D-02  0.00D+00 EMaxC= 1.00D-01 BMatC= 8.24D-02 BMatP= 2.48D-01
 IDIUse=3 WtCom= 8.43D-01 WtEn= 1.57D-01
 Coeff-Com:  0.331D+00 0.669D+00
 Coeff-En:   0.492D+00 0.508D+00
 Coeff:      0.356D+00 0.644D+00
 Gap=     0.280 Goal=   None    Shift=    0.000
 RMSDP=2.99D-03 MaxDP=1.93D-01 DE=-4.50D-03 OVMax= 2.97D-01

 Cycle   3  Pass 0  IDiag  1:
 RMSU=  1.89D-03    CP:  9.75D-01  4.59D-01
 CoulSu:  requested number of processors reduced to:  11 ShMem   1 Linda.
 CalDSu:  requested number of processors reduced to:  20 ShMem   1 Linda.
 E= -323.649933612537     Delta-E=       -0.169561651536 Rises=F Damp=F
 DIIS: error= 1.31D-02 at cycle   3 NSaved=   3.
 NSaved= 3 IEnMin= 3 EnMin= -323.649933612537     IErMin= 3 ErrMin= 1.31D-02
 ErrMax= 1.31D-02  0.00D+00 EMaxC= 1.00D-01 BMatC= 4.25D-02 BMatP= 8.24D-02
 IDIUse=3 WtCom= 8.69D-01 WtEn= 1.31D-01
 Coeff-Com:  0.129D+00 0.407D+00 0.464D+00
 Coeff-En:   0.000D+00 0.000D+00 0.100D+01
 Coeff:      0.112D+00 0.354D+00 0.534D+00
 Gap=     0.250 Goal=   None    Shift=    0.000
 RMSDP=1.21D-03 MaxDP=4.79D-02 DE=-1.70D-01 OVMax= 8.49D-02

 Cycle   4  Pass 0  IDiag  1:
 RMSU=  7.16D-04    CP:  9.82D-01  5.54D-01  5.37D-01
 CoulSu:  requested number of processors reduced to:  11 ShMem   1 Linda.
 CalDSu:  requested number of processors reduced to:  20 ShMem   1 Linda.
 E= -323.684133662942     Delta-E=       -0.034200050405 Rises=F Damp=F
 DIIS: error= 4.66D-03 at cycle   4 NSaved=   4.
 NSaved= 4 IEnMin= 4 EnMin= -323.684133662942     IErMin= 4 ErrMin= 4.66D-03
 ErrMax= 4.66D-03  0.00D+00 EMaxC= 1.00D-01 BMatC= 5.93D-03 BMatP= 4.25D-02
 IDIUse=3 WtCom= 9.53D-01 WtEn= 4.66D-02
 Coeff-Com:  0.205D-01 0.266D-01 0.269D+00 0.684D+00
 Coeff-En:   0.000D+00 0.000D+00 0.123D+00 0.877D+00
 Coeff:      0.195D-01 0.253D-01 0.262D+00 0.693D+00
 Gap=     0.253 Goal=   None    Shift=    0.000
 RMSDP=3.66D-04 MaxDP=1.45D-02 DE=-3.42D-02 OVMax= 2.15D-02

 Cycle   5  Pass 0  IDiag  1:
 RMSU=  1.18D-04    CP:  9.81D-01  5.07D-01  6.55D-01  7.55D-01
 CoulSu:  requested number of processors reduced to:  11 ShMem   1 Linda.
 CalDSu:  requested number of processors reduced to:  20 ShMem   1 Linda.
 E= -323.688982199523     Delta-E=       -0.004848536580 Rises=F Damp=F
 DIIS: error= 4.05D-04 at cycle   5 NSaved=   5.
 NSaved= 5 IEnMin= 5 EnMin= -323.688982199523     IErMin= 5 ErrMin= 4.05D-04
 ErrMax= 4.05D-04  0.00D+00 EMaxC= 1.00D-01 BMatC= 1.34D-04 BMatP= 5.93D-03
 IDIUse=3 WtCom= 9.96D-01 WtEn= 4.05D-03
 Coeff-Com:  0.381D-02-0.684D-02 0.913D-01 0.300D+00 0.612D+00
 Coeff-En:   0.000D+00 0.000D+00 0.000D+00 0.000D+00 0.100D+01
 Coeff:      0.379D-02-0.681D-02 0.910D-01 0.298D+00 0.614D+00
 Gap=     0.248 Goal=   None    Shift=    0.000
 RMSDP=7.67D-05 MaxDP=2.45D-03 DE=-4.85D-03 OVMax= 5.11D-03

 Cycle   6  Pass 0  IDiag  1:
 RMSU=  4.22D-05    CP:  9.81D-01  5.17D-01  6.52D-01  7.83D-01  6.07D-01
 CoulSu:  requested number of processors reduced to:  11 ShMem   1 Linda.
 CalDSu:  requested number of processors reduced to:  20 ShMem   1 Linda.
 E= -323.689074785604     Delta-E=       -0.000092586081 Rises=F Damp=F
 DIIS: error= 2.03D-04 at cycle   6 NSaved=   6.
 NSaved= 6 IEnMin= 6 EnMin= -323.689074785604     IErMin= 6 ErrMin= 2.03D-04
 ErrMax= 2.03D-04  0.00D+00 EMaxC= 1.00D-01 BMatC= 2.38D-05 BMatP= 1.34D-04
 IDIUse=3 WtCom= 9.98D-01 WtEn= 2.03D-03
 Coeff-Com:  0.113D-02-0.658D-02 0.267D-01 0.954D-01 0.341D+00 0.543D+00
 Coeff-En:   0.000D+00 0.000D+00 0.000D+00 0.000D+00 0.107D+00 0.893D+00
 Coeff:      0.113D-02-0.656D-02 0.266D-01 0.952D-01 0.340D+00 0.543D+00
 Gap=     0.248 Goal=   None    Shift=    0.000
 RMSDP=2.57D-05 MaxDP=8.76D-04 DE=-9.26D-05 OVMax= 1.07D-03

 Cycle   7  Pass 0  IDiag  1:
 RMSU=  1.17D-05    CP:  9.81D-01  5.13D-01  6.54D-01  7.80D-01  6.91D-01
                    CP:  7.31D-01
 CoulSu:  requested number of processors reduced to:  11 ShMem   1 Linda.
 CalDSu:  requested number of processors reduced to:  20 ShMem   1 Linda.
 E= -323.689093503154     Delta-E=       -0.000018717551 Rises=F Damp=F
 DIIS: error= 5.29D-05 at cycle   7 NSaved=   7.
 NSaved= 7 IEnMin= 7 EnMin= -323.689093503154     IErMin= 7 ErrMin= 5.29D-05
 ErrMax= 5.29D-05  0.00D+00 EMaxC= 1.00D-01 BMatC= 1.24D-06 BMatP= 2.38D-05
 IDIUse=1 WtCom= 1.00D+00 WtEn= 0.00D+00
 Coeff-Com:  0.597D-03-0.314D-02 0.681D-02 0.232D-01 0.122D+00 0.231D+00
 Coeff-Com:  0.620D+00
 Coeff:      0.597D-03-0.314D-02 0.681D-02 0.232D-01 0.122D+00 0.231D+00
 Coeff:      0.620D+00
 Gap=     0.248 Goal=   None    Shift=    0.000
 RMSDP=6.73D-06 MaxDP=3.05D-04 DE=-1.87D-05 OVMax= 2.27D-04

 Initial convergence to 1.0D-05 achieved.  Increase integral accuracy.
 Cycle   8  Pass 1  IDiag  1:
 CoulSu:  requested number of processors reduced to:  11 ShMem   1 Linda.
 CalDSu:  requested number of processors reduced to:  20 ShMem   1 Linda.
 E= -323.689086015582     Delta-E=        0.000007487572 Rises=F Damp=F
 DIIS: error= 1.81D-05 at cycle   1 NSaved=   1.
 NSaved= 1 IEnMin= 1 EnMin= -323.689086015582     IErMin= 1 ErrMin= 1.81D-05
 ErrMax= 1.81D-05  0.00D+00 EMaxC= 1.00D-01 BMatC= 2.23D-07 BMatP= 2.23D-07
 IDIUse=1 WtCom= 1.00D+00 WtEn= 0.00D+00
 Coeff-Com:  0.100D+01
 Coeff:      0.100D+01
 Gap=     0.248 Goal=   None    Shift=    0.000
 RMSDP=6.73D-06 MaxDP=3.05D-04 DE= 7.49D-06 OVMax= 3.04D-04

 Cycle   9  Pass 1  IDiag  1:
 RMSU=  6.62D-06    CP:  1.00D+00
 CoulSu:  requested number of processors reduced to:  11 ShMem   1 Linda.
 CalDSu:  requested number of processors reduced to:  20 ShMem   1 Linda.
 E= -323.689085752269     Delta-E=        0.000000263313 Rises=F Damp=F
 DIIS: error= 4.63D-05 at cycle   2 NSaved=   2.
 NSaved= 2 IEnMin= 1 EnMin= -323.689086015582     IErMin= 1 ErrMin= 1.81D-05
 ErrMax= 4.63D-05  0.00D+00 EMaxC= 1.00D-01 BMatC= 5.55D-07 BMatP= 2.23D-07
 IDIUse=1 WtCom= 1.00D+00 WtEn= 0.00D+00
 Coeff-Com:  0.627D+00 0.373D+00
 Coeff:      0.627D+00 0.373D+00
 Gap=     0.248 Goal=   None    Shift=    0.000
 RMSDP=4.05D-06 MaxDP=1.84D-04 DE= 2.63D-07 OVMax= 3.28D-04

 Cycle  10  Pass 1  IDiag  1:
 RMSU=  3.11D-06    CP:  1.00D+00  6.12D-01
 CoulSu:  requested number of processors reduced to:  11 ShMem   1 Linda.
 CalDSu:  requested number of processors reduced to:  20 ShMem   1 Linda.
 E= -323.689086172998     Delta-E=       -0.000000420729 Rises=F Damp=F
 DIIS: error= 1.14D-05 at cycle   3 NSaved=   3.
 NSaved= 3 IEnMin= 3 EnMin= -323.689086172998     IErMin= 3 ErrMin= 1.14D-05
 ErrMax= 1.14D-05  0.00D+00 EMaxC= 1.00D-01 BMatC= 4.17D-08 BMatP= 2.23D-07
 IDIUse=1 WtCom= 1.00D+00 WtEn= 0.00D+00
 Coeff-Com:  0.185D+00 0.222D+00 0.593D+00
 Coeff:      0.185D+00 0.222D+00 0.593D+00
 Gap=     0.248 Goal=   None    Shift=    0.000
 RMSDP=1.28D-06 MaxDP=5.82D-05 DE=-4.21D-07 OVMax= 7.69D-05

 Cycle  11  Pass 1  IDiag  1:
 RMSU=  9.36D-07    CP:  1.00D+00  6.66D-01  7.46D-01
 CoulSu:  requested number of processors reduced to:  11 ShMem   1 Linda.
 CalDSu:  requested number of processors reduced to:  20 ShMem   1 Linda.
 E= -323.689086198518     Delta-E=       -0.000000025520 Rises=F Damp=F
 DIIS: error= 4.36D-06 at cycle   4 NSaved=   4.
 NSaved= 4 IEnMin= 4 EnMin= -323.689086198518     IErMin= 4 ErrMin= 4.36D-06
 ErrMax= 4.36D-06  0.00D+00 EMaxC= 1.00D-01 BMatC= 7.76D-09 BMatP= 4.17D-08
 IDIUse=1 WtCom= 1.00D+00 WtEn= 0.00D+00
 Coeff-Com: -0.647D-02 0.705D-01 0.364D+00 0.572D+00
 Coeff:     -0.647D-02 0.705D-01 0.364D+00 0.572D+00
 Gap=     0.248 Goal=   None    Shift=    0.000
 RMSDP=4.38D-07 MaxDP=1.74D-05 DE=-2.55D-08 OVMax= 1.86D-05

 Cycle  12  Pass 1  IDiag  1:
 RMSU=  1.43D-07    CP:  1.00D+00  6.81D-01  8.04D-01  6.18D-01
 CoulSu:  requested number of processors reduced to:  11 ShMem   1 Linda.
 CalDSu:  requested number of processors reduced to:  20 ShMem   1 Linda.
 E= -323.689086204337     Delta-E=       -0.000000005819 Rises=F Damp=F
 DIIS: error= 9.39D-07 at cycle   5 NSaved=   5.
 NSaved= 5 IEnMin= 5 EnMin= -323.689086204337     IErMin= 5 ErrMin= 9.39D-07
 ErrMax= 9.39D-07  0.00D+00 EMaxC= 1.00D-01 BMatC= 2.91D-10 BMatP= 7.76D-09
 IDIUse=1 WtCom= 1.00D+00 WtEn= 0.00D+00
 Coeff-Com: -0.777D-02 0.326D-01 0.169D+00 0.307D+00 0.499D+00
 Coeff:     -0.777D-02 0.326D-01 0.169D+00 0.307D+00 0.499D+00
 Gap=     0.248 Goal=   None    Shift=    0.000
 RMSDP=7.72D-08 MaxDP=3.36D-06 DE=-5.82D-09 OVMax= 4.40D-06

 Cycle  13  Pass 1  IDiag  1:
 RMSU=  4.70D-08    CP:  1.00D+00  6.81D-01  8.11D-01  6.10D-01  6.05D-01
 CoulSu:  requested number of processors reduced to:  11 ShMem   1 Linda.
 CalDSu:  requested number of processors reduced to:  20 ShMem   1 Linda.
 E= -323.689086204582     Delta-E=       -0.000000000245 Rises=F Damp=F
 DIIS: error= 1.97D-07 at cycle   6 NSaved=   6.
 NSaved= 6 IEnMin= 6 EnMin= -323.689086204582     IErMin= 6 ErrMin= 1.97D-07
 ErrMax= 1.97D-07  0.00D+00 EMaxC= 1.00D-01 BMatC= 1.49D-11 BMatP= 2.91D-10
 IDIUse=1 WtCom= 1.00D+00 WtEn= 0.00D+00
 Coeff-Com: -0.289D-02 0.772D-02 0.321D-01 0.759D-01 0.210D+00 0.677D+00
 Coeff:     -0.289D-02 0.772D-02 0.321D-01 0.759D-01 0.210D+00 0.677D+00
 Gap=     0.248 Goal=   None    Shift=    0.000
 RMSDP=2.19D-08 MaxDP=1.03D-06 DE=-2.45D-10 OVMax= 1.08D-06

 Cycle  14  Pass 1  IDiag  1:
 RMSU=  1.03D-08    CP:  1.00D+00  6.83D-01  8.07D-01  6.19D-01  6.66D-01
                    CP:  8.93D-01
 CoulSu:  requested number of processors reduced to:  11 ShMem   1 Linda.
 CalDSu:  requested number of processors reduced to:  20 ShMem   1 Linda.
 E= -323.689086204585     Delta-E=       -0.000000000003 Rises=F Damp=F
 DIIS: error= 4.04D-08 at cycle   7 NSaved=   7.
 NSaved= 7 IEnMin= 7 EnMin= -323.689086204585     IErMin= 7 ErrMin= 4.04D-08
 ErrMax= 4.04D-08  0.00D+00 EMaxC= 1.00D-01 BMatC= 8.31D-13 BMatP= 1.49D-11
 IDIUse=1 WtCom= 1.00D+00 WtEn= 0.00D+00
 Coeff-Com: -0.450D-03 0.834D-03-0.565D-03 0.727D-02 0.481D-01 0.248D+00
 Coeff-Com:  0.696D+00
 Coeff:     -0.450D-03 0.834D-03-0.565D-03 0.727D-02 0.481D-01 0.248D+00
 Coeff:      0.696D+00
 Gap=     0.248 Goal=   None    Shift=    0.000
 RMSDP=6.02D-09 MaxDP=2.59D-07 DE=-2.96D-12 OVMax= 3.05D-07

 SCF Done:  E(RB3LYP) =  -323.689086205     A.U. after   14 cycles
            NFock= 14  Conv=0.60D-08     -V/T= 2.0079
 KE= 3.211499180356D+02 PE=-1.252223017139D+03 EE= 3.600338360116D+02
 Leave Link  502 at Tue Aug 23 06:03:56 2022, MaxMem=    23592960 cpu:       173.5
 (Enter /public/home/users/caep010/software/Gaussian09/g09/l601.exe)
 Copying SCF densities to generalized density rwf, IOpCl= 0 IROHF=0.

 **********************************************************************

            Population analysis using the SCF density.

 **********************************************************************

 Orbital symmetries:
       Occupied  (A) (A) (A) (A) (A) (A) (A) (A) (A) (A) (A) (A)
                 (A) (A) (A) (A) (A) (A) (A) (A) (A) (A) (A) (A)
       Virtual   (A) (A) (A) (A) (A) (A) (A) (A) (A) (A) (A) (A)
                 (A) (A) (A) (A) (A) (A) (A) (A) (A) (A) (A) (A)
                 (A) (A) (A) (A) (A) (A) (A) (A) (A) (A) (A) (A)
                 (A) (A) (A) (A) (A) (A) (A) (A) (A) (A) (A) (A)
                 (A) (A) (A) (A) (A) (A) (A) (A) (A) (A) (A) (A)
                 (A) (A) (A) (A) (A) (A) (A) (A) (A) (A) (A) (A)
                 (A) (A) (A) (A) (A) (A) (A) (A) (A) (A) (A) (A)
                 (A) (A) (A) (A) (A) (A) (A) (A) (A) (A) (A) (A)
                 (A) (A) (A) (A) (A) (A) (A) (A) (A) (A) (A) (A)
                 (A) (A) (A) (A) (A) (A) (A) (A) (A) (A) (A) (A)
                 (A) (A) (A) (A) (A) (A) (A) (A) (A) (A) (A) (A)
                 (A) (A) (A) (A) (A) (A) (A) (A) (A) (A) (A) (A)
                 (A) (A) (A) (A) (A) (A) (A) (A) (A) (A) (A) (A)
                 (A) (A) (A) (A) (A) (A) (A) (A) (A) (A) (A) (A)
                 (A) (A) (A) (A) (A) (A) (A) (A) (A) (A) (A)
 The electronic state is 1-A.
 Alpha  occ. eigenvalues --  -19.19134 -19.09350 -14.40016 -10.28276 -10.23514
 Alpha  occ. eigenvalues --  -10.20133  -1.10387  -0.98889  -0.85784  -0.73991
 Alpha  occ. eigenvalues --   -0.69446  -0.58875  -0.51459  -0.48552  -0.47534
 Alpha  occ. eigenvalues --   -0.43719  -0.42445  -0.41118  -0.40840  -0.38127
 Alpha  occ. eigenvalues --   -0.33647  -0.31163  -0.23625  -0.23016
 Alpha virt. eigenvalues --    0.01739   0.05301   0.08079   0.10553   0.11600
 Alpha virt. eigenvalues --    0.13396   0.15610   0.16350   0.19127   0.21700
 Alpha virt. eigenvalues --    0.24472   0.30228   0.35206   0.39493   0.44909
 Alpha virt. eigenvalues --    0.49062   0.50605   0.51393   0.51959   0.55664
 Alpha virt. eigenvalues --    0.57242   0.59707   0.61981   0.65724   0.66681
 Alpha virt. eigenvalues --    0.69480   0.71464   0.72339   0.73751   0.74907
 Alpha virt. eigenvalues --    0.75648   0.78067   0.79682   0.81806   0.83699
 Alpha virt. eigenvalues --    0.84935   0.88315   0.90137   0.90944   0.93224
 Alpha virt. eigenvalues --    0.96511   0.99409   1.01158   1.03496   1.04510
 Alpha virt. eigenvalues --    1.09714   1.15745   1.19123   1.25816   1.27467
 Alpha virt. eigenvalues --    1.32894   1.33722   1.35214   1.37900   1.42648
 Alpha virt. eigenvalues --    1.42779   1.45995   1.48976   1.49173   1.54175
 Alpha virt. eigenvalues --    1.57269   1.63447   1.67837   1.71676   1.74055
 Alpha virt. eigenvalues --    1.77117   1.84298   1.86540   1.90396   1.91076
 Alpha virt. eigenvalues --    1.92061   1.92570   1.95738   2.10637   2.19751
 Alpha virt. eigenvalues --    2.21948   2.28750   2.29677   2.33759   2.38799
 Alpha virt. eigenvalues --    2.42567   2.48448   2.50601   2.59261   2.61550
 Alpha virt. eigenvalues --    2.62836   2.73417   2.78038   2.82685   2.83746
 Alpha virt. eigenvalues --    2.87492   2.87890   2.89475   2.89907   2.95256
 Alpha virt. eigenvalues --    2.96757   3.04129   3.11098   3.12851   3.14289
 Alpha virt. eigenvalues --    3.19917   3.27528   3.30725   3.37000   3.39833
 Alpha virt. eigenvalues --    3.41380   3.54031   3.58132   3.61131   3.64671
 Alpha virt. eigenvalues --    3.66075   3.68066   3.77457   3.79409   3.82649
 Alpha virt. eigenvalues --    3.87844   3.90181   3.95796   3.98028   4.07733
 Alpha virt. eigenvalues --    4.11358   4.14396   4.20771   4.22291   4.23275
 Alpha virt. eigenvalues --    4.26811   4.31205   4.33989   4.37807   4.40158
 Alpha virt. eigenvalues --    4.42151   4.44125   4.47951   4.50665   4.53956
 Alpha virt. eigenvalues --    4.55499   4.57294   4.60165   4.63126   4.67761
 Alpha virt. eigenvalues --    4.70032   4.71982   4.76242   4.78894   4.81892
 Alpha virt. eigenvalues --    4.83709   4.84418   4.91060   4.98306   5.06126
 Alpha virt. eigenvalues --    5.09891   5.12697   5.12973   5.20392   5.23819
 Alpha virt. eigenvalues --    5.29932   5.38919   5.40212   5.47313   5.54211
 Alpha virt. eigenvalues --    5.55626   5.61099   5.79352   5.90969   5.97017
 Alpha virt. eigenvalues --    6.04647   6.09944   6.13540   6.40285   6.51163
 Alpha virt. eigenvalues --    6.74690   7.07639  10.50706  11.19471  11.40933
 Alpha virt. eigenvalues --   11.78728  12.93870  13.34175  16.12748
          Condensed to atoms (all electrons):
               1          2          3          4          5          6
     1  C    5.279064   0.304266  -0.078597  -0.088627   0.001430   0.004430
     2  C    0.304266   4.326215   0.783599   0.271992  -0.046927  -0.016364
     3  O   -0.078597   0.783599   7.743584  -0.070646   0.002296  -0.004350
     4  N   -0.088627   0.271992  -0.070646   6.455151   0.360046   0.231928
     5  C    0.001430  -0.046927   0.002296   0.360046   4.937825  -0.044815
     6  O    0.004430  -0.016364  -0.004350   0.231928  -0.044815   7.909669
     7  H    0.347129  -0.013009   0.001357   0.001044   0.000667  -0.000064
     8  H    0.366937  -0.010726   0.002458   0.002293  -0.000220  -0.000025
     9  H    0.345463  -0.013017   0.001584   0.001442   0.000295  -0.000046
    10  H    0.000005  -0.000227   0.000106  -0.035013   0.377743   0.001556
    11  H   -0.000210   0.002383  -0.000053  -0.014678   0.366789   0.003518
    12  H    0.000325  -0.003215   0.000080  -0.033605   0.370471   0.002967
    13  H    0.000014   0.000897   0.002114  -0.096680   0.001853   0.312936
               7          8          9         10         11         12
     1  C    0.347129   0.366937   0.345463   0.000005  -0.000210   0.000325
     2  C   -0.013009  -0.010726  -0.013017  -0.000227   0.002383  -0.003215
     3  O    0.001357   0.002458   0.001584   0.000106  -0.000053   0.000080
     4  N    0.001044   0.002293   0.001442  -0.035013  -0.014678  -0.033605
     5  C    0.000667  -0.000220   0.000295   0.377743   0.366789   0.370471
     6  O   -0.000064  -0.000025  -0.000046   0.001556   0.003518   0.002967
     7  H    0.571150  -0.024177  -0.025818   0.002513   0.000062  -0.000453
     8  H   -0.024177   0.525464  -0.024896   0.000043  -0.000002   0.000046
     9  H   -0.025818  -0.024896   0.577938  -0.000413   0.000052   0.002593
    10  H    0.002513   0.000043  -0.000413   0.581314  -0.023122  -0.042771
    11  H    0.000062  -0.000002   0.000052  -0.023122   0.542543  -0.027385
    12  H   -0.000453   0.000046   0.002593  -0.042771  -0.027385   0.600751
    13  H   -0.000009   0.000002   0.000003  -0.000517  -0.000024   0.001062
              13
     1  C    0.000014
     2  C    0.000897
     3  O    0.002114
     4  N   -0.096680
     5  C    0.001853
     6  O    0.312936
     7  H   -0.000009
     8  H    0.000002
     9  H    0.000003
    10  H   -0.000517
    11  H   -0.000024
    12  H    0.001062
    13  H    0.469154
 Mulliken charges:
               1
     1  C   -0.481629
     2  C    0.414132
     3  O   -0.383533
     4  N    0.015354
     5  C   -0.327453
     6  O   -0.401341
     7  H    0.139609
     8  H    0.162804
     9  H    0.134819
    10  H    0.138782
    11  H    0.150127
    12  H    0.129134
    13  H    0.309195
 Sum of Mulliken charges =  -0.00000
 Mulliken charges with hydrogens summed into heavy atoms:
               1
     1  C   -0.044397
     2  C    0.414132
     3  O   -0.383533
     4  N    0.015354
     5  C    0.090590
     6  O   -0.092146
 Electronic spatial extent (au):  <R**2>=            602.0176
 Charge=             -0.0000 electrons
 Dipole moment (field-independent basis, Debye):
    X=             -1.6418    Y=              3.7386    Z=              1.4829  Tot=              4.3441
 Quadrupole moment (field-independent basis, Debye-Ang):
   XX=            -34.0378   YY=            -38.3648   ZZ=            -33.8580
   XY=              3.4456   XZ=             -2.6067   YZ=             -2.3881
 Traceless Quadrupole moment (field-independent basis, Debye-Ang):
   XX=              1.3824   YY=             -2.9446   ZZ=              1.5622
   XY=              3.4456   XZ=             -2.6067   YZ=             -2.3881
 Octapole moment (field-independent basis, Debye-Ang**2):
  XXX=             -6.8397  YYY=             -2.7306  ZZZ=              1.5215  XYY=             -9.3897
  XXY=              2.5648  XXZ=              4.8088  XZZ=             -3.1306  YZZ=             -3.4793
  YYZ=              2.7637  XYZ=              3.7458
 Hexadecapole moment (field-independent basis, Debye-Ang**3):
 XXXX=           -389.0202 YYYY=           -290.8558 ZZZZ=            -45.8183 XXXY=              7.0321
 XXXZ=             -8.6725 YYYX=             10.7895 YYYZ=             -5.3841 ZZZX=             -3.3759
 ZZZY=             -2.4253 XXYY=           -118.2859 XXZZ=            -73.6564 YYZZ=            -49.1949
 XXYZ=             -7.2389 YYXZ=             -5.2192 ZZXY=              4.8431
 N-N= 2.473501768871D+02 E-N=-1.252223027905D+03  KE= 3.211499180356D+02
 PrsmSu:  requested number of processors reduced to:  11 ShMem   1 Linda.
 No NMR shielding tensors so no spin-rotation constants.
 Leave Link  601 at Tue Aug 23 06:03:56 2022, MaxMem=    23592960 cpu:         2.8
 (Enter /public/home/users/caep010/software/Gaussian09/g09/l701.exe)
 Compute integral first derivatives.
 ... and contract with generalized density number  0.
 PrsmSu:  requested number of processors reduced to:   3 ShMem   1 Linda.
 PrsmSu:  requested number of processors reduced to:   6 ShMem   1 Linda.
 Leave Link  701 at Tue Aug 23 06:03:57 2022, MaxMem=    23592960 cpu:         1.9
 (Enter /public/home/users/caep010/software/Gaussian09/g09/l702.exe)
 L702 exits ... SP integral derivatives will be done elsewhere.
 Leave Link  702 at Tue Aug 23 06:03:57 2022, MaxMem=    23592960 cpu:         0.8
 (Enter /public/home/users/caep010/software/Gaussian09/g09/l703.exe)
 Compute integral first derivatives, UseDBF=F ICtDFT=           0.
 Integral derivatives from FoFJK, PRISM(SPDF).
 Calling FoFJK, ICntrl=      2127 FMM=F ISym2X=0 I1Cent= 0 IOpClX= 0 NMat=1 NMatS=1 NMatT=0.
 FoFJK:  IHMeth= 1 ICntrl=    2127 DoSepK=F KAlg= 0 I1Cent=   0 FoldK=F
 IRaf=         0 NMat=   1 IRICut=       1 DoRegI=T DoRafI=F ISym2E= 0.
 FoFCou: FMM=F IPFlag=           0 FMFlag=      100000 FMFlg1=         800
         NFxFlg=           0 DoJE=F BraDBF=F KetDBF=F FulRan=T
         wScrn=  0.000000 ICntrl=    2127 IOpCl=  0 I1Cent=           0 NGrid=           0
         NMat0=    1 NMatS0=      1 NMatT0=    0 NMatD0=    1 NMtDS0=    0 NMtDT0=    0
 Symmetry not used in FoFCou.
 CoulSu:  requested number of processors reduced to:   6 ShMem   1 Linda.
 CalDSu:  requested number of processors reduced to:  17 ShMem   1 Linda.
 Leave Link  703 at Tue Aug 23 06:04:00 2022, MaxMem=    23592960 cpu:        23.5
 (Enter /public/home/users/caep010/software/Gaussian09/g09/l716.exe)
 Dipole        =-6.45949166D-01 1.47087032D+00 5.83416067D-01
 ***** Axes restored to original set *****
 -------------------------------------------------------------------
 Center     Atomic                   Forces (Hartrees/Bohr)
 Number     Number              X              Y              Z
 -------------------------------------------------------------------
      1        6          -0.002293609    0.017118794    0.007063967
      2        6          -0.006824477   -0.076714203   -0.034191431
      3        8          -0.027521880    0.046847751    0.024184941
      4        7           0.057094920    0.032093661    0.008802150
      5        6          -0.003705901    0.000952119    0.000869536
      6        8          -0.012011717   -0.021469806    0.013980278
      7        1           0.002431293   -0.003956323    0.008594472
      8        1          -0.016127258   -0.001241072   -0.000027270
      9        1           0.001626676    0.003590685   -0.008947269
     10        1          -0.003964421   -0.004718572    0.007554482
     11        1           0.013222998   -0.001668437   -0.001925894
     12        1          -0.004489470    0.002525345   -0.007468418
     13        1           0.002562848    0.006640059   -0.018489542
 -------------------------------------------------------------------
 Cartesian Forces:  Max     0.076714203 RMS     0.021106112
 Leave Link  716 at Tue Aug 23 06:04:00 2022, MaxMem=    23592960 cpu:         1.0
 (Enter /public/home/users/caep010/software/Gaussian09/g09/l103.exe)

 GradGradGradGradGradGradGradGradGradGradGradGradGradGradGradGradGradGrad
 Berny optimization.
 FormGI is forming the generalized inverse of G from B-inverse, IUseBI=4.
 Internal  Forces:  Max     0.059233978 RMS     0.013473442
 Search for a local minimum.
 Step number   1 out of a maximum of   59
 All quantities printed in internal units (Hartrees-Bohrs-Radians)
 RMS Force = .13473D-01 SwitMx=.10000D-02 MixMth= 1
 Mixed Optimization -- RFO/linear search
 Second derivative matrix not updated -- first step.
 ITU=  0
     Eigenvalues ---    0.00780   0.00884   0.00945   0.01146   0.01190
     Eigenvalues ---    0.01874   0.07414   0.07445   0.07477   0.07511
     Eigenvalues ---    0.16000   0.16000   0.16000   0.16000   0.16000
     Eigenvalues ---    0.16000   0.16000   0.24994   0.24997   0.25000
     Eigenvalues ---    0.25000   0.32492   0.32502   0.32531   0.32593
     Eigenvalues ---    0.32594   0.32630   0.32630   0.36829   0.39871
     Eigenvalues ---    0.49186   0.53720   0.79516
 RFO step:  Lambda=-2.10537444D-02 EMin= 7.80413608D-03
 Linear search not attempted -- first point.
 Iteration  1 RMS(Cart)=  0.06917499 RMS(Int)=  0.00205713
 Iteration  2 RMS(Cart)=  0.00259773 RMS(Int)=  0.00031241
 Iteration  3 RMS(Cart)=  0.00000663 RMS(Int)=  0.00031238
 Iteration  4 RMS(Cart)=  0.00000000 RMS(Int)=  0.00031238
 ITry= 1 IFail=0 DXMaxC= 1.68D-01 DCOld= 1.00D+10 DXMaxT= 3.00D-01 DXLimC= 3.00D+00 Rises=F
 Variable       Old X    -DE/DX   Delta X   Delta X   Delta X     New X
                                 (Linear)    (Quad)   (Total)
    R1        2.83252   0.00450   0.00000   0.01301   0.01301   2.84553
    R2        2.09705  -0.00829   0.00000  -0.02385  -0.02385   2.07320
    R3        2.09935  -0.01505   0.00000  -0.04349  -0.04349   2.05587
    R4        2.09705  -0.00824   0.00000  -0.02372  -0.02372   2.07333
    R5        2.38178  -0.05923   0.00000  -0.07257  -0.07257   2.30920
    R6        2.71729  -0.04685   0.00000  -0.11162  -0.11162   2.60567
    R7        2.76105  -0.00321   0.00000  -0.00825  -0.00825   2.75280
    R8        2.56287   0.01806   0.00000   0.03235   0.03235   2.59522
    R9        2.09771  -0.00896   0.00000  -0.02584  -0.02584   2.07188
   R10        2.09883  -0.01299   0.00000  -0.03750  -0.03750   2.06132
   R11        2.09770  -0.00797   0.00000  -0.02298  -0.02298   2.07472
   R12        1.87396  -0.01910   0.00000  -0.03724  -0.03724   1.83673
    A1        1.91679   0.00633   0.00000   0.03498   0.03487   1.95166
    A2        1.92900  -0.01049   0.00000  -0.05838  -0.05789   1.87112
    A3        1.91694   0.00645   0.00000   0.03604   0.03594   1.95289
    A4        1.89461   0.00185   0.00000   0.00938   0.00983   1.90445
    A5        1.91198  -0.00629   0.00000  -0.03384  -0.03444   1.87754
    A6        1.89418   0.00199   0.00000   0.01095   0.01144   1.90562
    A7        2.07718   0.01867   0.00000   0.06889   0.06883   2.14601
    A8        2.12077  -0.02577   0.00000  -0.09508  -0.09513   2.02564
    A9        2.08524   0.00710   0.00000   0.02620   0.02615   2.11139
   A10        2.12709   0.01247   0.00000   0.04595   0.04594   2.17303
   A11        2.08055  -0.00865   0.00000  -0.03197  -0.03198   2.04857
   A12        2.07527  -0.00383   0.00000  -0.01419  -0.01420   2.06107
   A13        1.91920   0.00556   0.00000   0.03185   0.03143   1.95063
   A14        1.92330  -0.00761   0.00000  -0.04599  -0.04562   1.87768
   A15        1.91851   0.00672   0.00000   0.03994   0.03960   1.95811
   A16        1.89350  -0.00041   0.00000  -0.00785  -0.00757   1.88594
   A17        1.91546  -0.00434   0.00000  -0.01621  -0.01719   1.89827
   A18        1.89352  -0.00014   0.00000  -0.00302  -0.00259   1.89093
   A19        1.83184   0.00767   0.00000   0.04238   0.04238   1.87422
    D1        2.07562   0.00010   0.00000   0.00729   0.00697   2.08258
    D2       -1.06579  -0.00045   0.00000  -0.01073  -0.01124  -1.07704
    D3       -0.01429   0.00036   0.00000   0.01011   0.01019  -0.00410
    D4        3.12748  -0.00018   0.00000  -0.00791  -0.00802   3.11946
    D5       -2.10377   0.00038   0.00000   0.01030   0.01083  -2.09294
    D6        1.03801  -0.00017   0.00000  -0.00772  -0.00738   1.03062
    D7        0.02278  -0.00114   0.00000  -0.03383  -0.03396  -0.01118
    D8        3.13890  -0.00145   0.00000  -0.04349  -0.04364   3.09526
    D9       -3.11863  -0.00169   0.00000  -0.05194  -0.05179   3.11277
   D10       -0.00251  -0.00201   0.00000  -0.06160  -0.06147  -0.06398
   D11        1.04048   0.00106   0.00000   0.00441   0.00485   1.04533
   D12        3.12696  -0.00071   0.00000  -0.01406  -0.01405   3.11292
   D13       -1.07016  -0.00142   0.00000  -0.02144  -0.02204  -1.09220
   D14       -2.07571   0.00145   0.00000   0.01430   0.01484  -2.06087
   D15        0.01077  -0.00032   0.00000  -0.00417  -0.00406   0.00671
   D16        2.09683  -0.00103   0.00000  -0.01155  -0.01206   2.08478
   D17        1.58717  -0.00296   0.00000  -0.07083  -0.07100   1.51617
   D18       -1.57913  -0.00302   0.00000  -0.07930  -0.07913  -1.65826
         Item               Value     Threshold  Converged?
 Maximum Force            0.059234     0.000450     NO 
 RMS     Force            0.013473     0.000300     NO 
 Maximum Displacement     0.167780     0.001800     NO 
 RMS     Displacement     0.070066     0.001200     NO 
 Predicted change in Energy=-1.137665D-02
 Lowest energy point so far.  Saving SCF results.
 GradGradGradGradGradGradGradGradGradGradGradGradGradGradGradGradGradGrad

 Leave Link  103 at Tue Aug 23 06:04:00 2022, MaxMem=    23592960 cpu:         4.4
 (Enter /public/home/users/caep010/software/Gaussian09/g09/l202.exe)
                          Input orientation:                          
 ---------------------------------------------------------------------
 Center     Atomic      Atomic             Coordinates (Angstroms)
 Number     Number       Type             X           Y           Z
 ---------------------------------------------------------------------
      1          6           0        1.612860    0.478669    0.036487
      2          6           0        0.743143   -0.676395   -0.384018
      3          8           0        1.195481   -1.727894   -0.811768
      4          7           0       -0.616132   -0.495060   -0.239970
      5          6           0       -1.235884    0.710642    0.293151
      6          8           0       -1.437313   -1.509514   -0.667272
      7          1           0        1.411719    1.378309   -0.558321
      8          1           0        2.646515    0.175096   -0.115052
      9          1           0        1.464681    0.739323    1.091885
     10          1           0       -0.988184    1.594327   -0.306697
     11          1           0       -2.316874    0.569313    0.256531
     12          1           0       -0.947204    0.899139    1.335505
     13          1           0       -1.532609   -2.135955    0.069739
 ---------------------------------------------------------------------
                    Distance matrix (angstroms):
                    1          2          3          4          5
     1  C    0.000000
     2  C    1.505790   0.000000
     3  O    2.400554   1.221978   0.000000
     4  N    2.448056   1.378862   2.264680   0.000000
     5  C    2.869674   2.509776   3.616468   1.456718   0.000000
     6  O    3.708328   2.351320   2.645784   1.373333   2.427360
     7  H    1.097090   2.167760   3.124019   2.779036   2.860172
     8  H    1.087917   2.102428   2.492445   3.333103   3.940363
     9  H    1.097161   2.168678   3.127862   2.761760   2.816354
    10  H    2.850947   2.856510   4.007573   2.123302   1.096390
    11  H    3.936933   3.365382   4.330712   2.066864   1.090804
    12  H    2.901408   2.880337   4.012877   2.129676   1.097894
    13  H    4.090395   2.741397   2.895866   1.904832   2.870726
                    6          7          8          9         10
     6  O    0.000000
     7  H    4.058125   0.000000
     8  H    4.452022   1.780149   0.000000
     9  H    4.071052   1.770392   1.780950   0.000000
    10  H    3.156827   2.422708   3.906658   2.950188   0.000000
    11  H    2.438968   3.901393   4.992866   3.876452   1.770112
    12  H    3.170636   3.062793   3.942483   2.429420   1.783758
    13  H    0.971953   4.627481   4.779140   4.277353   3.788549
                   11         12         13
    11  H    0.000000
    12  H    1.774533   0.000000
    13  H    2.822842   3.340158   0.000000
 Stoichiometry    C3H7NO2
 Framework group  C1[X(C3H7NO2)]
 Deg. of freedom    33
 Full point group                 C1      NOp   1
 RotChk:  IX=0 Diff= 1.52D-02
 Largest Abelian subgroup         C1      NOp   1
 Largest concise Abelian subgroup C1      NOp   1
                         Standard orientation:                         
 ---------------------------------------------------------------------
 Center     Atomic      Atomic             Coordinates (Angstroms)
 Number     Number       Type             X           Y           Z
 ---------------------------------------------------------------------
      1          6           0        1.651024    0.929556    0.013801
      2          6           0        0.730168   -0.261590   -0.010658
      3          8           0        1.134518   -1.414709   -0.003691
      4          7           0       -0.620266    0.016812   -0.019632
      5          6           0       -1.186358    1.358786    0.006301
      6          8           0       -1.484016   -1.047979   -0.098369
      7          1           0        1.526948    1.559290   -0.875944
      8          1           0        2.669610    0.548388    0.041296
      9          1           0        1.478788    1.561787    0.893790
     10          1           0       -0.863492    1.952918   -0.856738
     11          1           0       -2.271709    1.259514   -0.038562
     12          1           0       -0.926671    1.900704    0.925136
     13          1           0       -1.644636   -1.359284    0.808264
 ---------------------------------------------------------------------
 Rotational constants (GHZ):      4.9372804      3.5447265      2.1325959
 Leave Link  202 at Tue Aug 23 06:04:00 2022, MaxMem=    23592960 cpu:         0.2
 (Enter /public/home/users/caep010/software/Gaussian09/g09/l301.exe)
 Standard basis: GTBas3 (6D, 7F)
 Ernie: Thresh=  0.10000D-02 Tol=  0.10000D-05 Strict=F.
 There are   221 symmetry adapted cartesian basis functions of A   symmetry.
 There are   203 symmetry adapted basis functions of A   symmetry.
   203 basis functions,   313 primitive gaussians,   221 cartesian basis functions
    24 alpha electrons       24 beta electrons
       nuclear repulsion energy       251.2292880771 Hartrees.
 IExCor=  402 DFT=T Ex+Corr=B3LYP ExCW=0 ScaHFX=  0.200000
 ScaDFX=  0.800000  0.720000  1.000000  0.810000 ScalE2=  1.000000  1.000000
 IRadAn=      0 IRanWt=     -1 IRanGd=            0 ICorTp=0 IEmpDi=  4
 NAtoms=   13 NActive=   13 NUniq=   13 SFac= 1.00D+00 NAtFMM=   60 NAOKFM=F Big=F
 Integral buffers will be    131072 words long.
 Raffenetti 2 integral format.
 Two-electron integral symmetry is turned on.
 Leave Link  301 at Tue Aug 23 06:04:00 2022, MaxMem=    23592960 cpu:         1.7
 (Enter /public/home/users/caep010/software/Gaussian09/g09/l302.exe)
 NPDir=0 NMtPBC=     1 NCelOv=     1 NCel=       1 NClECP=     1 NCelD=      1
         NCelK=      1 NCelE2=     1 NClLst=     1 CellRange=     0.0.
 One-electron integrals computed using PRISM.
 PrsmSu:  requested number of processors reduced to:   3 ShMem   1 Linda.
 PrsmSu:  requested number of processors reduced to:  11 ShMem   1 Linda.
 NBasis=   203 RedAO= T EigKep=  3.32D-04  NBF=   203
 NBsUse=   203 1.00D-06 EigRej= -1.00D+00 NBFU=   203
 Precomputing XC quadrature grid using
 IXCGrd= 4 IRadAn=           0 IRanWt=          -1 IRanGd=           0 AccXCQ= 0.00D+00.
 Generated NRdTot=       0 NPtTot=           0 NUsed=           0 NTot=          32
 NSgBfM=   221   221   221   221   221 MxSgAt=    13 MxSgA2=    13.
 Leave Link  302 at Tue Aug 23 06:04:01 2022, MaxMem=    23592960 cpu:         4.9
 (Enter /public/home/users/caep010/software/Gaussian09/g09/l303.exe)
 DipDrv:  MaxL=1.
 Leave Link  303 at Tue Aug 23 06:04:01 2022, MaxMem=    23592960 cpu:         0.8
 (Enter /public/home/users/caep010/software/Gaussian09/g09/l401.exe)
 Initial guess from the checkpoint file:  "G4.Frag_601.chk"
 B after Tr=     0.000000    0.000000    0.000000
         Rot=    0.999993   -0.000893    0.000178    0.003530 Ang=  -0.42 deg.
 Guess basis will be translated and rotated to current coordinates.
 JPrj=2 DoOrth=T DoCkMO=T.
 Generating alternative initial guess.
 ExpMin= 1.61D-01 ExpMax= 5.48D+03 ExpMxC= 8.25D+02 IAcc=1 IRadAn=         1 AccDes= 0.00D+00
 Harris functional with IExCor=  402 and IRadAn=       1 diagonalized for initial guess.
 HarFok:  IExCor=  402 AccDes= 0.00D+00 IRadAn=         1 IDoV= 1 UseB2=F ITyADJ=14
 ICtDFT=  3500011 ScaDFX=  1.000000  1.000000  1.000000  1.000000
 CalDSu:  requested number of processors reduced to:  20 ShMem   1 Linda.
 FoFCou: FMM=F IPFlag=           0 FMFlag=      100000 FMFlg1=           0
         NFxFlg=           0 DoJE=T BraDBF=F KetDBF=T FulRan=T
         wScrn=  0.000000 ICntrl=     500 IOpCl=  0 I1Cent=   200000004 NGrid=           0
         NMat0=    1 NMatS0=      1 NMatT0=    0 NMatD0=    1 NMtDS0=    0 NMtDT0=    0
 Petite list used in FoFCou.
 CoulSu:  requested number of processors reduced to:  11 ShMem   1 Linda.
 CoulSu:  requested number of processors reduced to:  11 ShMem   1 Linda.
 CoulSu:  requested number of processors reduced to:  12 ShMem   1 Linda.
 CoulSu:  requested number of processors reduced to:  12 ShMem   1 Linda.
 Harris En= -323.742790394619    
 Leave Link  401 at Tue Aug 23 06:04:01 2022, MaxMem=    23592960 cpu:        14.1
 (Enter /public/home/users/caep010/software/Gaussian09/g09/l502.exe)
 Closed shell SCF:
 Using DIIS extrapolation, IDIIS=  1040.
 Integral symmetry usage will be decided dynamically.
 IVT=      173757 IEndB=      173757 NGot=    23592960 MDV=    23484906
 LenX=    23484906 LenY=    23435624
 Requested convergence on RMS density matrix=1.00D-08 within 128 cycles.
 Requested convergence on MAX density matrix=1.00D-06.
 Requested convergence on             energy=1.00D-06.
 No special actions if energy rises.
 Fock matrices will be formed incrementally for  20 cycles.
 Integral accuracy reduced to 1.0D-05 until final iterations.

 Cycle   1  Pass 0  IDiag  1:
 FoFJK:  IHMeth= 1 ICntrl=       0 DoSepK=F KAlg= 0 I1Cent=   0 FoldK=F
 IRaf= 970000000 NMat=   1 IRICut=       1 DoRegI=T DoRafI=F ISym2E= 0.
 FoFCou: FMM=F IPFlag=           0 FMFlag=      100000 FMFlg1=           0
         NFxFlg=           0 DoJE=F BraDBF=F KetDBF=F FulRan=T
         wScrn=  0.000000 ICntrl=       0 IOpCl=  0 I1Cent=           0 NGrid=           0
         NMat0=    1 NMatS0=      1 NMatT0=    0 NMatD0=    1 NMtDS0=    0 NMtDT0=    0
 Symmetry not used in FoFCou.
 CoulSu:  requested number of processors reduced to:  11 ShMem   1 Linda.
 CalDSu:  requested number of processors reduced to:  20 ShMem   1 Linda.
 E= -323.694578229831    
 DIIS: error= 2.80D-03 at cycle   1 NSaved=   1.
 NSaved= 1 IEnMin= 1 EnMin= -323.694578229831     IErMin= 1 ErrMin= 2.80D-03
 ErrMax= 2.80D-03  0.00D+00 EMaxC= 1.00D-01 BMatC= 5.93D-03 BMatP= 5.93D-03
 IDIUse=3 WtCom= 9.72D-01 WtEn= 2.80D-02
 Coeff-Com:  0.100D+01
 Coeff-En:   0.100D+01
 Coeff:      0.100D+01
 Gap=     1.032 Goal=   None    Shift=    0.000
 GapD=    1.032 DampG=2.000 DampE=1.000 DampFc=2.0000 IDamp=-1.
 RMSDP=6.16D-04 MaxDP=1.65D-02              OVMax= 2.16D-02

 Cycle   2  Pass 0  IDiag  1:
 RMSU=  6.16D-04    CP:  9.99D-01
 CoulSu:  requested number of processors reduced to:  11 ShMem   1 Linda.
 CalDSu:  requested number of processors reduced to:  20 ShMem   1 Linda.
 E= -323.700714006291     Delta-E=       -0.006135776460 Rises=F Damp=F
 DIIS: error= 1.40D-03 at cycle   2 NSaved=   2.
 NSaved= 2 IEnMin= 2 EnMin= -323.700714006291     IErMin= 2 ErrMin= 1.40D-03
 ErrMax= 1.40D-03  0.00D+00 EMaxC= 1.00D-01 BMatC= 8.77D-04 BMatP= 5.93D-03
 IDIUse=3 WtCom= 9.86D-01 WtEn= 1.40D-02
 Coeff-Com:  0.174D+00 0.826D+00
 Coeff-En:   0.000D+00 0.100D+01
 Coeff:      0.171D+00 0.829D+00
 Gap=     0.270 Goal=   None    Shift=    0.000
 RMSDP=3.62D-04 MaxDP=1.46D-02 DE=-6.14D-03 OVMax= 2.01D-02

 Cycle   3  Pass 0  IDiag  1:
 RMSU=  3.60D-04    CP:  1.00D+00  9.85D-01
 CoulSu:  requested number of processors reduced to:  11 ShMem   1 Linda.
 CalDSu:  requested number of processors reduced to:  20 ShMem   1 Linda.
 E= -323.700402158916     Delta-E=        0.000311847375 Rises=F Damp=F
 DIIS: error= 1.69D-03 at cycle   3 NSaved=   3.
 NSaved= 3 IEnMin= 2 EnMin= -323.700714006291     IErMin= 2 ErrMin= 1.40D-03
 ErrMax= 1.69D-03  0.00D+00 EMaxC= 1.00D-01 BMatC= 1.31D-03 BMatP= 8.77D-04
 IDIUse=3 WtCom= 1.95D-01 WtEn= 8.05D-01
 Coeff-Com:  0.320D-02 0.552D+00 0.445D+00
 Coeff-En:   0.000D+00 0.580D+00 0.420D+00
 Coeff:      0.626D-03 0.574D+00 0.425D+00
 Gap=     0.272 Goal=   None    Shift=    0.000
 RMSDP=2.09D-04 MaxDP=9.53D-03 DE= 3.12D-04 OVMax= 1.39D-02

 Cycle   4  Pass 0  IDiag  1:
 RMSU=  6.64D-05    CP:  1.00D+00  1.03D+00  4.60D-01
 CoulSu:  requested number of processors reduced to:  11 ShMem   1 Linda.
 CalDSu:  requested number of processors reduced to:  20 ShMem   1 Linda.
 E= -323.701345193328     Delta-E=       -0.000943034413 Rises=F Damp=F
 DIIS: error= 5.79D-04 at cycle   4 NSaved=   4.
 NSaved= 4 IEnMin= 4 EnMin= -323.701345193328     IErMin= 4 ErrMin= 5.79D-04
 ErrMax= 5.79D-04  0.00D+00 EMaxC= 1.00D-01 BMatC= 6.94D-05 BMatP= 8.77D-04
 IDIUse=3 WtCom= 9.94D-01 WtEn= 5.79D-03
 Coeff-Com: -0.135D-01 0.269D+00 0.253D+00 0.491D+00
 Coeff-En:   0.000D+00 0.000D+00 0.000D+00 0.100D+01
 Coeff:     -0.134D-01 0.267D+00 0.252D+00 0.494D+00
 Gap=     0.267 Goal=   None    Shift=    0.000
 RMSDP=3.85D-05 MaxDP=1.52D-03 DE=-9.43D-04 OVMax= 2.10D-03

 Cycle   5  Pass 0  IDiag  1:
 RMSU=  2.11D-05    CP:  1.00D+00  1.04D+00  4.66D-01  5.20D-01
 CoulSu:  requested number of processors reduced to:  11 ShMem   1 Linda.
 CalDSu:  requested number of processors reduced to:  20 ShMem   1 Linda.
 E= -323.701399529969     Delta-E=       -0.000054336640 Rises=F Damp=F
 DIIS: error= 1.15D-04 at cycle   5 NSaved=   5.
 NSaved= 5 IEnMin= 5 EnMin= -323.701399529969     IErMin= 5 ErrMin= 1.15D-04
 ErrMax= 1.15D-04  0.00D+00 EMaxC= 1.00D-01 BMatC= 6.41D-06 BMatP= 6.94D-05
 IDIUse=3 WtCom= 9.99D-01 WtEn= 1.15D-03
 Coeff-Com: -0.675D-02 0.883D-01 0.943D-01 0.277D+00 0.548D+00
 Coeff-En:   0.000D+00 0.000D+00 0.000D+00 0.101D-01 0.990D+00
 Coeff:     -0.674D-02 0.882D-01 0.942D-01 0.276D+00 0.548D+00
 Gap=     0.267 Goal=   None    Shift=    0.000
 RMSDP=1.02D-05 MaxDP=4.99D-04 DE=-5.43D-05 OVMax= 5.25D-04

 Cycle   6  Pass 0  IDiag  1:
 RMSU=  7.11D-06    CP:  1.00D+00  1.04D+00  4.70D-01  5.72D-01  7.08D-01
 CoulSu:  requested number of processors reduced to:  11 ShMem   1 Linda.
 CalDSu:  requested number of processors reduced to:  20 ShMem   1 Linda.
 E= -323.701404076548     Delta-E=       -0.000004546580 Rises=F Damp=F
 DIIS: error= 3.91D-05 at cycle   6 NSaved=   6.
 NSaved= 6 IEnMin= 6 EnMin= -323.701404076548     IErMin= 6 ErrMin= 3.91D-05
 ErrMax= 3.91D-05  0.00D+00 EMaxC= 1.00D-01 BMatC= 4.68D-07 BMatP= 6.41D-06
 IDIUse=1 WtCom= 1.00D+00 WtEn= 0.00D+00
 Coeff-Com: -0.202D-02 0.154D-01 0.213D-01 0.928D-01 0.278D+00 0.595D+00
 Coeff:     -0.202D-02 0.154D-01 0.213D-01 0.928D-01 0.278D+00 0.595D+00
 Gap=     0.268 Goal=   None    Shift=    0.000
 RMSDP=3.85D-06 MaxDP=1.35D-04 DE=-4.55D-06 OVMax= 1.25D-04

 Initial convergence to 1.0D-05 achieved.  Increase integral accuracy.
 Cycle   7  Pass 1  IDiag  1:
 CoulSu:  requested number of processors reduced to:  11 ShMem   1 Linda.
 CalDSu:  requested number of processors reduced to:  20 ShMem   1 Linda.
 E= -323.701408539316     Delta-E=       -0.000004462768 Rises=F Damp=F
 DIIS: error= 1.85D-05 at cycle   1 NSaved=   1.
 NSaved= 1 IEnMin= 1 EnMin= -323.701408539316     IErMin= 1 ErrMin= 1.85D-05
 ErrMax= 1.85D-05  0.00D+00 EMaxC= 1.00D-01 BMatC= 9.49D-08 BMatP= 9.49D-08
 IDIUse=1 WtCom= 1.00D+00 WtEn= 0.00D+00
 Coeff-Com:  0.100D+01
 Coeff:      0.100D+01
 Gap=     0.268 Goal=   None    Shift=    0.000
 RMSDP=3.85D-06 MaxDP=1.35D-04 DE=-4.46D-06 OVMax= 6.72D-05

 Cycle   8  Pass 1  IDiag  1:
 RMSU=  4.44D-06    CP:  1.00D+00
 CoulSu:  requested number of processors reduced to:  11 ShMem   1 Linda.
 CalDSu:  requested number of processors reduced to:  20 ShMem   1 Linda.
 E= -323.701408595919     Delta-E=       -0.000000056603 Rises=F Damp=F
 DIIS: error= 5.70D-06 at cycle   2 NSaved=   2.
 NSaved= 2 IEnMin= 2 EnMin= -323.701408595919     IErMin= 2 ErrMin= 5.70D-06
 ErrMax= 5.70D-06  0.00D+00 EMaxC= 1.00D-01 BMatC= 2.07D-08 BMatP= 9.49D-08
 IDIUse=1 WtCom= 1.00D+00 WtEn= 0.00D+00
 Coeff-Com:  0.240D+00 0.760D+00
 Coeff:      0.240D+00 0.760D+00
 Gap=     0.268 Goal=   None    Shift=    0.000
 RMSDP=1.30D-06 MaxDP=5.85D-05 DE=-5.66D-08 OVMax= 7.75D-05

 Cycle   9  Pass 1  IDiag  1:
 RMSU=  1.29D-06    CP:  1.00D+00  9.71D-01
 CoulSu:  requested number of processors reduced to:  11 ShMem   1 Linda.
 CalDSu:  requested number of processors reduced to:  20 ShMem   1 Linda.
 E= -323.701408598895     Delta-E=       -0.000000002976 Rises=F Damp=F
 DIIS: error= 5.35D-06 at cycle   3 NSaved=   3.
 NSaved= 3 IEnMin= 3 EnMin= -323.701408598895     IErMin= 3 ErrMin= 5.35D-06
 ErrMax= 5.35D-06  0.00D+00 EMaxC= 1.00D-01 BMatC= 1.83D-08 BMatP= 2.07D-08
 IDIUse=1 WtCom= 1.00D+00 WtEn= 0.00D+00
 Coeff-Com:  0.356D-02 0.483D+00 0.513D+00
 Coeff:      0.356D-02 0.483D+00 0.513D+00
 Gap=     0.268 Goal=   None    Shift=    0.000
 RMSDP=6.52D-07 MaxDP=3.68D-05 DE=-2.98D-09 OVMax= 4.95D-05

 Cycle  10  Pass 1  IDiag  1:
 RMSU=  2.58D-07    CP:  1.00D+00  1.01D+00  5.62D-01
 CoulSu:  requested number of processors reduced to:  11 ShMem   1 Linda.
 CalDSu:  requested number of processors reduced to:  20 ShMem   1 Linda.
 E= -323.701408612021     Delta-E=       -0.000000013126 Rises=F Damp=F
 DIIS: error= 2.08D-06 at cycle   4 NSaved=   4.
 NSaved= 4 IEnMin= 4 EnMin= -323.701408612021     IErMin= 4 ErrMin= 2.08D-06
 ErrMax= 2.08D-06  0.00D+00 EMaxC= 1.00D-01 BMatC= 1.50D-09 BMatP= 1.83D-08
 IDIUse=1 WtCom= 1.00D+00 WtEn= 0.00D+00
 Coeff-Com: -0.111D-01 0.263D+00 0.324D+00 0.424D+00
 Coeff:     -0.111D-01 0.263D+00 0.324D+00 0.424D+00
 Gap=     0.268 Goal=   None    Shift=    0.000
 RMSDP=1.82D-07 MaxDP=8.13D-06 DE=-1.31D-08 OVMax= 1.27D-05

 Cycle  11  Pass 1  IDiag  1:
 RMSU=  8.58D-08    CP:  1.00D+00  1.01D+00  6.03D-01  4.14D-01
 CoulSu:  requested number of processors reduced to:  11 ShMem   1 Linda.
 CalDSu:  requested number of processors reduced to:  20 ShMem   1 Linda.
 E= -323.701408613172     Delta-E=       -0.000000001151 Rises=F Damp=F
 DIIS: error= 7.07D-07 at cycle   5 NSaved=   5.
 NSaved= 5 IEnMin= 5 EnMin= -323.701408613172     IErMin= 5 ErrMin= 7.07D-07
 ErrMax= 7.07D-07  0.00D+00 EMaxC= 1.00D-01 BMatC= 1.04D-10 BMatP= 1.50D-09
 IDIUse=1 WtCom= 1.00D+00 WtEn= 0.00D+00
 Coeff-Com: -0.635D-02 0.114D+00 0.147D+00 0.262D+00 0.483D+00
 Coeff:     -0.635D-02 0.114D+00 0.147D+00 0.262D+00 0.483D+00
 Gap=     0.268 Goal=   None    Shift=    0.000
 RMSDP=5.52D-08 MaxDP=2.66D-06 DE=-1.15D-09 OVMax= 3.09D-06

 Cycle  12  Pass 1  IDiag  1:
 RMSU=  3.04D-08    CP:  1.00D+00  1.01D+00  5.84D-01  4.45D-01  5.82D-01
 CoulSu:  requested number of processors reduced to:  11 ShMem   1 Linda.
 CalDSu:  requested number of processors reduced to:  20 ShMem   1 Linda.
 E= -323.701408613258     Delta-E=       -0.000000000086 Rises=F Damp=F
 DIIS: error= 1.13D-07 at cycle   6 NSaved=   6.
 NSaved= 6 IEnMin= 6 EnMin= -323.701408613258     IErMin= 6 ErrMin= 1.13D-07
 ErrMax= 1.13D-07  0.00D+00 EMaxC= 1.00D-01 BMatC= 6.39D-12 BMatP= 1.04D-10
 IDIUse=1 WtCom= 1.00D+00 WtEn= 0.00D+00
 Coeff-Com: -0.212D-02 0.276D-01 0.371D-01 0.912D-01 0.244D+00 0.603D+00
 Coeff:     -0.212D-02 0.276D-01 0.371D-01 0.912D-01 0.244D+00 0.603D+00
 Gap=     0.268 Goal=   None    Shift=    0.000
 RMSDP=1.50D-08 MaxDP=4.91D-07 DE=-8.61D-11 OVMax= 5.85D-07

 Cycle  13  Pass 1  IDiag  1:
 RMSU=  6.17D-09    CP:  1.00D+00  1.01D+00  5.89D-01  4.65D-01  6.51D-01
                    CP:  7.32D-01
 CoulSu:  requested number of processors reduced to:  11 ShMem   1 Linda.
 CalDSu:  requested number of processors reduced to:  20 ShMem   1 Linda.
 E= -323.701408613268     Delta-E=       -0.000000000010 Rises=F Damp=F
 DIIS: error= 2.04D-08 at cycle   7 NSaved=   7.
 NSaved= 7 IEnMin= 7 EnMin= -323.701408613268     IErMin= 7 ErrMin= 2.04D-08
 ErrMax= 2.04D-08  0.00D+00 EMaxC= 1.00D-01 BMatC= 1.73D-13 BMatP= 6.39D-12
 IDIUse=1 WtCom= 1.00D+00 WtEn= 0.00D+00
 Coeff-Com: -0.485D-04-0.180D-02-0.182D-02 0.530D-02 0.264D-01 0.167D+00
 Coeff-Com:  0.805D+00
 Coeff:     -0.485D-04-0.180D-02-0.182D-02 0.530D-02 0.264D-01 0.167D+00
 Coeff:      0.805D+00
 Gap=     0.268 Goal=   None    Shift=    0.000
 RMSDP=2.70D-09 MaxDP=8.55D-08 DE=-1.05D-11 OVMax= 1.55D-07

 SCF Done:  E(RB3LYP) =  -323.701408613     A.U. after   13 cycles
            NFock= 13  Conv=0.27D-08     -V/T= 2.0068
 KE= 3.215248061104D+02 PE=-1.260225654320D+03 EE= 3.637701515190D+02
 Leave Link  502 at Tue Aug 23 06:04:09 2022, MaxMem=    23592960 cpu:       127.0
 (Enter /public/home/users/caep010/software/Gaussian09/g09/l701.exe)
 Compute integral first derivatives.
 ... and contract with generalized density number  0.
 PrsmSu:  requested number of processors reduced to:   3 ShMem   1 Linda.
 PrsmSu:  requested number of processors reduced to:   6 ShMem   1 Linda.
 Leave Link  701 at Tue Aug 23 06:04:09 2022, MaxMem=    23592960 cpu:         1.8
 (Enter /public/home/users/caep010/software/Gaussian09/g09/l702.exe)
 L702 exits ... SP integral derivatives will be done elsewhere.
 Leave Link  702 at Tue Aug 23 06:04:10 2022, MaxMem=    23592960 cpu:         0.5
 (Enter /public/home/users/caep010/software/Gaussian09/g09/l703.exe)
 Compute integral first derivatives, UseDBF=F ICtDFT=           0.
 Integral derivatives from FoFJK, PRISM(SPDF).
 Calling FoFJK, ICntrl=      2127 FMM=F ISym2X=0 I1Cent= 0 IOpClX= 0 NMat=1 NMatS=1 NMatT=0.
 FoFJK:  IHMeth= 1 ICntrl=    2127 DoSepK=F KAlg= 0 I1Cent=   0 FoldK=F
 IRaf=         0 NMat=   1 IRICut=       1 DoRegI=T DoRafI=F ISym2E= 0.
 FoFCou: FMM=F IPFlag=           0 FMFlag=      100000 FMFlg1=         800
         NFxFlg=           0 DoJE=F BraDBF=F KetDBF=F FulRan=T
         wScrn=  0.000000 ICntrl=    2127 IOpCl=  0 I1Cent=           0 NGrid=           0
         NMat0=    1 NMatS0=      1 NMatT0=    0 NMatD0=    1 NMtDS0=    0 NMtDT0=    0
 Symmetry not used in FoFCou.
 CoulSu:  requested number of processors reduced to:   6 ShMem   1 Linda.
 CalDSu:  requested number of processors reduced to:  17 ShMem   1 Linda.
 Leave Link  703 at Tue Aug 23 06:04:13 2022, MaxMem=    23592960 cpu:        24.4
 (Enter /public/home/users/caep010/software/Gaussian09/g09/l716.exe)
 Dipole        =-6.46402123D-01 1.41925995D+00 5.47645981D-01
 ***** Axes restored to original set *****
 -------------------------------------------------------------------
 Center     Atomic                   Forces (Hartrees/Bohr)
 Number     Number              X              Y              Z
 -------------------------------------------------------------------
      1        6           0.001561909    0.007069524    0.001886095
      2        6          -0.005091644   -0.022698525   -0.007488049
      3        8          -0.000439138    0.008812448    0.004201056
      4        7           0.014683995    0.013879052    0.007487868
      5        6          -0.004511307   -0.003376769   -0.001537617
      6        8          -0.011809812   -0.003555208   -0.001428216
      7        1           0.000188178   -0.000845764    0.001060538
      8        1           0.000950706    0.000019729   -0.000043812
      9        1           0.000200687    0.000011097   -0.001460551
     10        1          -0.000085626   -0.000479719    0.000510943
     11        1           0.000318345   -0.000545261   -0.000645937
     12        1          -0.000220230   -0.000177929   -0.000678186
     13        1           0.004253936    0.001887327   -0.001864132
 -------------------------------------------------------------------
 Cartesian Forces:  Max     0.022698525 RMS     0.006062121
 Leave Link  716 at Tue Aug 23 06:04:13 2022, MaxMem=    23592960 cpu:         0.6
 (Enter /public/home/users/caep010/software/Gaussian09/g09/l103.exe)

 GradGradGradGradGradGradGradGradGradGradGradGradGradGradGradGradGradGrad
 Berny optimization.
 Using GEDIIS/GDIIS optimizer.
 FormGI is forming the generalized inverse of G from B-inverse, IUseBI=4.
 Internal  Forces:  Max     0.009525980 RMS     0.003158148
 Search for a local minimum.
 Step number   2 out of a maximum of   59
 All quantities printed in internal units (Hartrees-Bohrs-Radians)
 RMS Force = .31581D-02 SwitMx=.10000D-02 MixMth= 1
 Mixed Optimization -- RFO/linear search
 Update second derivatives using D2CorX and points    1    2
 DE= -1.23D-02 DEPred=-1.14D-02 R= 1.08D+00
 TightC=F SS=  1.41D+00  RLast= 2.83D-01 DXNew= 5.0454D-01 8.5020D-01
 Trust test= 1.08D+00 RLast= 2.83D-01 DXMaxT set to 5.05D-01
 ITU=  1  0
 Use linear search instead of GDIIS.
     Eigenvalues ---    0.00780   0.00884   0.00943   0.01136   0.01193
     Eigenvalues ---    0.01840   0.07113   0.07141   0.07608   0.07668
     Eigenvalues ---    0.15640   0.16000   0.16000   0.16000   0.16000
     Eigenvalues ---    0.16000   0.16855   0.21425   0.24991   0.24996
     Eigenvalues ---    0.26456   0.31883   0.32517   0.32569   0.32594
     Eigenvalues ---    0.32616   0.32630   0.33517   0.36739   0.42347
     Eigenvalues ---    0.48881   0.53024   0.76790
 RFO step:  Lambda=-2.27981141D-03 EMin= 7.80408268D-03
 Quartic linear search produced a step of  0.14392.
 Iteration  1 RMS(Cart)=  0.04716408 RMS(Int)=  0.00195638
 Iteration  2 RMS(Cart)=  0.00205775 RMS(Int)=  0.00008747
 Iteration  3 RMS(Cart)=  0.00000766 RMS(Int)=  0.00008733
 Iteration  4 RMS(Cart)=  0.00000000 RMS(Int)=  0.00008733
 ITry= 1 IFail=0 DXMaxC= 1.08D-01 DCOld= 1.00D+10 DXMaxT= 5.05D-01 DXLimC= 3.00D+00 Rises=F
 Variable       Old X    -DE/DX   Delta X   Delta X   Delta X     New X
                                 (Linear)    (Quad)   (Total)
    R1        2.84553   0.00687   0.00187   0.02300   0.02488   2.87041
    R2        2.07320  -0.00130  -0.00343  -0.00280  -0.00624   2.06696
    R3        2.05587   0.00091  -0.00626   0.00629   0.00003   2.05590
    R4        2.07333  -0.00143  -0.00341  -0.00326  -0.00667   2.06666
    R5        2.30920  -0.00922  -0.01044  -0.00885  -0.01929   2.28991
    R6        2.60567  -0.00139  -0.01606   0.00366  -0.01240   2.59327
    R7        2.75280  -0.00273  -0.00119  -0.00783  -0.00902   2.74378
    R8        2.59522   0.00677   0.00466   0.01225   0.01691   2.61213
    R9        2.07188  -0.00069  -0.00372  -0.00052  -0.00424   2.06764
   R10        2.06132  -0.00022  -0.00540   0.00193  -0.00347   2.05785
   R11        2.07472  -0.00073  -0.00331  -0.00088  -0.00419   2.07053
   R12        1.83673  -0.00305  -0.00536  -0.00461  -0.00997   1.82676
    A1        1.95166   0.00019   0.00502  -0.00242   0.00259   1.95425
    A2        1.87112   0.00042  -0.00833   0.00938   0.00112   1.87224
    A3        1.95289   0.00021   0.00517  -0.00249   0.00267   1.95555
    A4        1.90445  -0.00017   0.00142  -0.00105   0.00043   1.90488
    A5        1.87754  -0.00047  -0.00496  -0.00193  -0.00697   1.87057
    A6        1.90562  -0.00019   0.00165  -0.00152   0.00019   1.90581
    A7        2.14601  -0.00109   0.00991  -0.01020  -0.00040   2.14561
    A8        2.02564  -0.00511  -0.01369  -0.01546  -0.02927   1.99637
    A9        2.11139   0.00620   0.00376   0.02613   0.02978   2.14117
   A10        2.17303   0.00953   0.00661   0.03942   0.04602   2.21905
   A11        2.04857  -0.00019  -0.00460   0.00160  -0.00300   2.04557
   A12        2.06107  -0.00934  -0.00204  -0.04115  -0.04319   2.01788
   A13        1.95063   0.00029   0.00452  -0.00105   0.00340   1.95403
   A14        1.87768  -0.00121  -0.00657  -0.00440  -0.01091   1.86678
   A15        1.95811   0.00017   0.00570  -0.00224   0.00341   1.96152
   A16        1.88594   0.00028  -0.00109   0.00206   0.00101   1.88695
   A17        1.89827  -0.00005  -0.00247   0.00174  -0.00089   1.89738
   A18        1.89093   0.00053  -0.00037   0.00418   0.00387   1.89480
   A19        1.87422  -0.00471   0.00610  -0.03708  -0.03098   1.84323
    D1        2.08258   0.00010   0.00100  -0.00782  -0.00676   2.07582
    D2       -1.07704   0.00031  -0.00162   0.02192   0.02013  -1.05691
    D3       -0.00410  -0.00008   0.00147  -0.01110  -0.00952  -0.01362
    D4        3.11946   0.00014  -0.00115   0.01864   0.01737   3.13684
    D5       -2.09294  -0.00023   0.00156  -0.01377  -0.01204  -2.10498
    D6        1.03062  -0.00002  -0.00106   0.01597   0.01486   1.04548
    D7       -0.01118  -0.00083  -0.00489  -0.05830  -0.06331  -0.07449
    D8        3.09526  -0.00110  -0.00628  -0.06356  -0.07006   3.02520
    D9        3.11277  -0.00070  -0.00745  -0.02959  -0.03683   3.07594
   D10       -0.06398  -0.00097  -0.00885  -0.03486  -0.04358  -0.10756
   D11        1.04533  -0.00006   0.00070  -0.01731  -0.01654   1.02879
   D12        3.11292  -0.00031  -0.00202  -0.01815  -0.02017   3.09275
   D13       -1.09220  -0.00033  -0.00317  -0.01716  -0.02043  -1.11263
   D14       -2.06087   0.00004   0.00214  -0.01281  -0.01060  -2.07147
   D15        0.00671  -0.00021  -0.00058  -0.01366  -0.01423  -0.00752
   D16        2.08478  -0.00024  -0.00174  -0.01267  -0.01448   2.07029
   D17        1.51617  -0.00273  -0.01022  -0.11430  -0.12466   1.39151
   D18       -1.65826  -0.00260  -0.01139  -0.11761  -0.12886  -1.78713
         Item               Value     Threshold  Converged?
 Maximum Force            0.009526     0.000450     NO 
 RMS     Force            0.003158     0.000300     NO 
 Maximum Displacement     0.108216     0.001800     NO 
 RMS     Displacement     0.047912     0.001200     NO 
 Predicted change in Energy=-1.543440D-03
 Lowest energy point so far.  Saving SCF results.
 GradGradGradGradGradGradGradGradGradGradGradGradGradGradGradGradGradGrad

 Leave Link  103 at Tue Aug 23 06:04:13 2022, MaxMem=    23592960 cpu:         1.2
 (Enter /public/home/users/caep010/software/Gaussian09/g09/l202.exe)
                          Input orientation:                          
 ---------------------------------------------------------------------
[...]
 Alpha virt. eigenvalues --   13.65635  13.72380  13.81595  14.12687  14.24781
 Alpha virt. eigenvalues --   14.30277  14.31837  14.32631  14.33539  14.39651
 Alpha virt. eigenvalues --   14.39791  14.45057  14.48441  14.50432  14.63689
 Alpha virt. eigenvalues --   14.67705  14.75956  14.83554  14.88686  14.93643
 Alpha virt. eigenvalues --   14.97122  15.03026  15.05472  15.11014  15.17321
 Alpha virt. eigenvalues --   15.24025  15.28359  15.30619  15.43862  15.54046
 Alpha virt. eigenvalues --   15.58322  15.70433  15.79896  15.85054  15.91757
 Alpha virt. eigenvalues --   15.94069  16.04658  16.08079  16.16734  16.19148
 Alpha virt. eigenvalues --   16.29844  16.37852  16.59304  16.65785  16.74054
 Alpha virt. eigenvalues --   16.78771  16.81522  16.89080  16.89494  17.00190
 Alpha virt. eigenvalues --   17.22107  17.37636  17.51811  17.54819  17.57540
 Alpha virt. eigenvalues --   17.65152  17.71177  18.00014  18.21322  18.42458
 Alpha virt. eigenvalues --   18.44845  18.49011  18.62088  18.70115  18.75754
 Alpha virt. eigenvalues --   18.84963  18.90582  18.93536  18.96143  18.98965
 Alpha virt. eigenvalues --   19.02372  19.12708  19.25217  19.31207  19.40421
 Alpha virt. eigenvalues --   19.44075  19.45750  19.48546  19.51366  19.55432
 Alpha virt. eigenvalues --   19.58370  19.61182  19.72673  19.76036  19.76636
 Alpha virt. eigenvalues --   19.83912  19.93128  19.98065  20.06389  20.10972
 Alpha virt. eigenvalues --   20.18195  20.59979  20.68441  20.89615  21.40036
 Alpha virt. eigenvalues --   22.05101  22.07723  22.21667  22.34900  22.41042
 Alpha virt. eigenvalues --   22.52401  22.91130  23.15621  23.48984  23.74034
 Alpha virt. eigenvalues --   23.87677  24.23482  24.40160  40.38015  40.49198
 Alpha virt. eigenvalues --   40.99097  51.69860  63.15007  63.99855
          Condensed to atoms (all electrons):
               1          2          3          4          5          6
     1  C    5.085416   0.402587  -0.050881  -0.079640  -0.015560   0.005071
     2  C    0.402587   4.295389   0.497861   0.466859  -0.031432  -0.033492
     3  O   -0.050881   0.497861   8.274751  -0.084889   0.003246  -0.024892
     4  N   -0.079640   0.466859  -0.084889   6.446761   0.245963   0.093184
     5  C   -0.015560  -0.031432   0.003246   0.245963   5.081260  -0.074003
     6  O    0.005071  -0.033492  -0.024892   0.093184  -0.074003   8.247821
     7  H    0.408903  -0.032035   0.002876  -0.000974   0.000750  -0.000439
     8  H    0.398818  -0.016602  -0.001213  -0.000143   0.000789   0.000049
     9  H    0.402267  -0.024042   0.000004   0.002340  -0.004087   0.000096
    10  H   -0.002467  -0.003147   0.000083  -0.033115   0.412636   0.005187
    11  H   -0.001608  -0.001233  -0.001011  -0.070137   0.456244  -0.002753
    12  H    0.002803   0.005702   0.001339  -0.008352   0.358248   0.010281
    13  H    0.000754  -0.006355   0.028436  -0.021780   0.004575   0.296673
               7          8          9         10         11         12
     1  C    0.408903   0.398818   0.402267  -0.002467  -0.001608   0.002803
     2  C   -0.032035  -0.016602  -0.024042  -0.003147  -0.001233   0.005702
     3  O    0.002876  -0.001213   0.000004   0.000083  -0.001011   0.001339
     4  N   -0.000974  -0.000143   0.002340  -0.033115  -0.070137  -0.008352
     5  C    0.000750   0.000789  -0.004087   0.412636   0.456244   0.358248
     6  O   -0.000439   0.000049   0.000096   0.005187  -0.002753   0.010281
     7  H    0.457752  -0.014323  -0.023814  -0.001608   0.000448  -0.000181
     8  H   -0.014323   0.411995  -0.012678   0.000554   0.000029  -0.000114
     9  H   -0.023814  -0.012678   0.459053  -0.001783  -0.000018   0.000495
    10  H   -0.001608   0.000554  -0.001783   0.474252  -0.019794  -0.024559
    11  H    0.000448   0.000029  -0.000018  -0.019794   0.467838  -0.030485
    12  H   -0.000181  -0.000114   0.000495  -0.024559  -0.030485   0.497528
    13  H   -0.000027  -0.000207  -0.000001  -0.000302  -0.000131   0.000004
              13
     1  C    0.000754
     2  C   -0.006355
     3  O    0.028436
     4  N   -0.021780
     5  C    0.004575
     6  O    0.296673
     7  H   -0.000027
     8  H   -0.000207
     9  H   -0.000001
    10  H   -0.000302
    11  H   -0.000131
    12  H    0.000004
    13  H    0.280484
 Mulliken charges:
               1
     1  C   -0.556464
     2  C    0.479940
     3  O   -0.645710
     4  N    0.043923
     5  C   -0.438630
     6  O   -0.522784
     7  H    0.202673
     8  H    0.233045
     9  H    0.202167
    10  H    0.194062
    11  H    0.202611
    12  H    0.187292
    13  H    0.417875
 Sum of Mulliken charges =  -0.00000
 Mulliken charges with hydrogens summed into heavy atoms:
               1
     1  C    0.081421
     2  C    0.479940
     3  O   -0.645710
     4  N    0.043923
     5  C    0.145335
     6  O   -0.104910
 Electronic spatial extent (au):  <R**2>=            582.0528
 Charge=             -0.0000 electrons
 Dipole moment (field-independent basis, Debye):
    X=             -0.0521    Y=              4.1023    Z=              0.1671  Tot=              4.1060
 Quadrupole moment (field-independent basis, Debye-Ang):
   XX=            -38.1796   YY=            -36.0708   ZZ=            -36.3671
   XY=              2.0569   XZ=             -0.4708   YZ=              0.0434
 Traceless Quadrupole moment (field-independent basis, Debye-Ang):
   XX=             -1.3071   YY=              0.8017   ZZ=              0.5054
   XY=              2.0569   XZ=             -0.4708   YZ=              0.0434
 Octapole moment (field-independent basis, Debye-Ang**2):
  XXX=              1.5235  YYY=             -4.6152  ZZZ=              0.8130  XYY=             -7.9151
  XXY=             10.3194  XXZ=             -0.8110  XZZ=             -0.7779  YZZ=             -0.5162
  YYZ=             -0.1245  XYZ=              0.7401
 Hexadecapole moment (field-independent basis, Debye-Ang**3):
 XXXX=           -394.5453 YYYY=           -272.0567 ZZZZ=            -48.0066 XXXY=             -2.9508
 XXXZ=              0.8297 YYYX=             14.7581 YYYZ=             -1.8925 ZZZX=             -0.1625
 ZZZY=              0.6073 XXYY=           -122.1287 XXZZ=            -73.9154 YYZZ=            -55.3140
 XXYZ=             -0.1856 YYXZ=             -0.6685 ZZXY=              0.3995
 N-N= 2.526274249566D+02 E-N=-1.262015791357D+03  KE= 3.215310761192D+02
 PrsmSu:  requested number of processors reduced to:   1 ShMem   1 Linda.
 No NMR shielding tensors so no spin-rotation constants.
 Leave Link  601 at Tue Aug 23 11:12:58 2022, MaxMem=    23592960 cpu:        20.8
 (Enter /public/home/users/caep010/software/Gaussian09/g09/l9999.exe)
 1\1\GINC-B1814\SP\RHF\GFHFB2\C3H7N1O2\ROOT\23-Aug-2022\0\\#P Geom=AllC
 heck Guess=TCheck SCRF=Check HF/GFHFB2 SCF=Tight\\Frag_601\\0,1\C,0,1.
 6301738564,0.4716492675,-0.1215582154\C,0,0.6525316996,-0.6775912333,-
 0.2528942175\O,0,1.0040884704,-1.8393869988,-0.4576172533\N,0,-0.67221
 57099,-0.3980225993,-0.1681919798\C,0,-1.3480128853,0.7583104859,0.355
 7939888\O,0,-1.5083227932,-1.5187140977,-0.2090498299\H,0,1.3647245014
 ,1.3158357551,-0.763362191\H,0,2.6132697862,0.0985085213,-0.4075978176
 \H,0,1.6791333052,0.8314195077,0.9114411446\H,0,-0.6717207433,1.612216
 5137,0.3337779731\H,0,-2.2224908766,0.9829028754,-0.2626405248\H,0,-1.
 6840606064,0.5863532051,1.3862355042\H,0,-0.8368980046,-2.2234812027,-
 0.3441365814\\Version=ES64L-G09RevE.01\State=1-A\HF=-321.9497861\RMSD=
 4.188e-09\Dipole=0.0413703,1.5648255,0.3990471\Quadrupole=-0.9250045,0
 .5378226,0.3871819,1.5841033,0.1247091,-0.1007634\PG=C01 [X(C3H7N1O2)]
 \\@


 REFRAIN FROM ILLUSIONS, INSIST ON WORK AND NOT WORDS,
 PATIENTLY SEEK DIVINE AND SCIENTIFIC TRUTH.
 LAST WORDS OF MARIA MENDELEEVA TO HER SON DMITRI, C. 1850
 Diagonal vibrational polarizability:
        0.0000000       0.0000000       0.0000000

 Temperature=              298.150000 Pressure=                      1.000000
 E(ZPE)=                     0.104207 E(Thermal)=                    0.111576
 E(CCSD(T))=              -322.772257 E(Empiric)=                   -0.125046
 DE(Plus)=                  -0.025575 DE(2DF)=                      -0.263767
 E(Delta-G3XP)=             -0.404816 DE(HF)=                       -0.033177
 G4(0 K)=                 -323.520431 G4 Energy=                  -323.513062
 G4 Enthalpy=             -323.512118 G4 Free Energy=             -323.551754
 1\1\GINC-B1814\Mixed\G4\G4\C3H7N1O2\ROOT\23-Aug-2022\0\\#P Geom=AllChe
 ck Guess=TCheck SCRF=Check HF/GFHFB2 SCF=Tight\\Frag_601\\0,1\C,0,1.63
 01738564,0.4716492675,-0.1215582154\C,0,0.6525316996,-0.6775912333,-0.
 2528942175\O,0,1.0040884704,-1.8393869988,-0.4576172533\N,0,-0.6722157
 099,-0.3980225993,-0.1681919798\C,0,-1.3480128853,0.7583104859,0.35579
 39888\O,0,-1.5083227932,-1.5187140977,-0.2090498299\H,0,1.3647245014,1
 .3158357551,-0.763362191\H,0,2.6132697862,0.0985085213,-0.4075978176\H
 ,0,1.6791333052,0.8314195077,0.9114411446\H,0,-0.6717207433,1.61221651
 37,0.3337779731\H,0,-2.2224908766,0.9829028754,-0.2626405248\H,0,-1.68
 40606064,0.5863532051,1.3862355042\H,0,-0.8368980046,-2.2234812027,-0.
 3441365814\\Version=ES64L-G09RevE.01\State=1-A\MP2/GTBas1=-322.7023996
 \MP4/GTBas1=-322.7757833\CCSD(T)/G3Bas1=-322.7722571\MP2/GTBas2=-322.7
 261026\MP4/GTBas2=-322.8013584\MP2/GTBas3=-322.9501425\MP4/GTBas3=-323
 .0395504\HF/GTLargeXP=-321.917944\MP2/GTLargeXP=-323.3786611\HF/GFHFB1
 =-321.9443081\HF/GFHFB2=-321.9497861\G4=-323.5204307\FreqCoord=3.08058
 21376,0.8912879464,-0.2297117363,1.2331062052,-1.2804618609,-0.4779008
 116,1.8974522222,-3.4759376801,-0.8647712824,-1.2703035939,-0.75215370
 74,-0.3178367796,-2.5473751767,1.4329991421,0.6723531985,-2.850316999,
 -2.8699537188,-0.3950469266,2.5789555545,2.486569213,-1.4425454812,4.9
 383642073,0.186154127,-0.7702482475,3.1731020875,1.5711551712,1.722374
 1495,-1.2693682427,3.0466476778,0.6307489584,-4.1998990895,1.857417249
 7,-0.4963186633,-3.1824133373,1.1080469748,2.6196054587,-1.5815080299,
 -4.2017705347,-0.6503238912\PG=C01 [X(C3H7N1O2)]\NImag=0\\0.53848790,-
 0.06360844,0.52071578,-0.01386820,-0.00228753,0.53597212,-0.13907796,-
 0.05068278,-0.00083486,0.64930447,-0.05168814,-0.13243258,-0.00463304,
 -0.05734363,0.86944963,-0.00693308,-0.00554939,-0.08187586,-0.04097062
 ,0.11705058,0.22866534,0.01448609,-0.02023732,-0.00223856,-0.14486604,
 0.13300702,0.02589930,0.18313057,0.00293763,-0.04564099,-0.00977204,0.
 11816597,-0.57365258,-0.09043032,-0.19215536,0.66232115,0.00224867,-0.
 00915900,0.01717764,0.02494894,-0.08879024,-0.09208216,-0.03874041,0.1
 1007872,0.05840289,-0.02610019,-0.00634361,-0.00246736,-0.32008895,0.0
 3689746,0.01695241,-0.04515063,0.05869175,0.01147713,0.71110560,-0.027
 67341,0.00902041,0.00318272,-0.00215697,-0.10214487,-0.01418632,0.0648
 5033,-0.06352195,-0.01388257,-0.06738815,0.62426290,-0.00178462,-0.000
 38962,0.00496577,0.03350631,-0.02669346,-0.04898036,0.01287161,-0.0049
 0249,0.02086216,-0.10287395,0.13243525,0.11614071,-0.00139356,0.001004
 88,0.00035268,-0.00582418,0.02590404,0.00941889,-0.00366222,-0.0005962
 8,0.00096274,-0.13681554,0.06789010,0.03475154,0.58206028,0.00090339,-
 0.00046128,-0.00060213,0.02158799,-0.00535229,0.00075157,-0.00649426,0
 .01025820,-0.00095817,0.03922411,-0.17619807,-0.04492576,0.05374108,0.
 54003582,-0.00051975,0.00005873,-0.00052291,-0.00267301,0.00776004,-0.
 01435819,-0.00178508,-0.00179316,0.00890534,0.03990410,-0.06543259,-0.
 07538634,0.01476880,-0.02237120,0.54142009,-0.00260076,0.00405127,0.00
 119544,-0.04431213,-0.04381966,0.00066501,-0.01099765,-0.00926721,-0.0
 0144898,-0.16896354,-0.04107657,0.01307392,0.01102874,0.01405021,-0.00
 125773,0.44887370,0.00109730,0.00278924,-0.00095059,0.00499968,-0.0378
 1298,-0.00386286,0.01717734,0.02635239,0.00277556,-0.11825717,-0.19349
 454,-0.02038962,-0.03155361,-0.03664392,0.00180410,-0.08175289,0.46849
 544,-0.00008493,0.00009723,0.00655629,-0.00327268,-0.00065492,0.000092
 13,0.00385065,0.00139193,-0.00224841,0.01241065,-0.01453412,-0.0217792
 6,-0.00945259,-0.01338393,-0.00000245,-0.04719934,0.06418444,0.0326978
 0,-0.06418079,0.05085597,-0.03844313,0.00826610,-0.01438798,0.01633091
 ,-0.00155113,-0.00265824,-0.00217888,-0.00057272,0.00095332,-0.0010957
 5,-0.00042193,-0.00049902,0.00020120,-0.00046605,-0.00041150,-0.000727
 86,0.06613195,0.05083368,-0.20290927,0.12393489,0.01103937,-0.01814118
 ,0.01396854,-0.00500308,-0.00331215,-0.00194618,0.00004950,0.00095082,
 -0.00149219,0.00001848,-0.00043245,0.00001851,-0.00082236,0.00037024,-
 0.00041718,-0.05591072,0.22083516,-0.03838333,0.12308926,-0.13655269,0
 .00068481,-0.00417138,0.00219046,-0.00069541,-0.00195212,-0.00082197,0
 .00058080,0.00008461,0.00069416,0.00003068,0.00108354,0.00011511,0.000
 33445,-0.00010311,-0.00020062,0.04363787,-0.13351082,0.14666313,-0.270
 77518,0.08536012,0.06599221,-0.02441917,0.01036650,0.00633534,0.004632
 70,0.00159386,-0.00081814,-0.00054333,-0.00407282,0.00001569,0.0005035
 4,-0.00027841,-0.00022821,-0.00094864,-0.00056324,-0.00021257,-0.00499
 527,0.00130406,0.00153014,0.29417932,0.09151918,-0.07977751,-0.0256823
 5,-0.02742027,0.00941666,0.00797078,0.00224213,0.00177253,-0.00020825,
 -0.00082346,-0.00480642,-0.00067765,0.00031963,-0.00110940,-0.00019855
 ,-0.00200649,-0.00080104,-0.00052441,0.02089729,-0.00734403,-0.0079850
 2,-0.09262751,0.08506831,0.06731230,-0.02448624,-0.06521211,-0.0038657
 4,0.00062772,-0.00067687,-0.00029066,0.00056508,-0.00045662,-0.0002366
 1,-0.00101372,0.00043579,-0.00015346,0.00003900,0.00015777,-0.00029355
 ,-0.00003699,0.00064726,-0.01887292,0.00609326,0.00559388,-0.07177184,
 0.02827207,0.06695279,-0.04530054,-0.00423766,-0.01064274,-0.00003976,
 -0.00479610,-0.02291208,-0.00043614,-0.00125528,0.00139576,-0.00076965
 ,0.00020478,0.00009590,0.00018012,-0.00077506,-0.00019468,-0.00098860,
 -0.00128392,0.00146637,-0.00104533,-0.00272144,-0.00783604,0.00317473,
 0.00835537,0.02820145,0.04625161,-0.00408220,-0.07046051,-0.08367649,0
 .00208016,-0.00889230,-0.02498943,-0.00281292,-0.00326302,0.00297881,0
 .00041209,0.00062389,0.00022613,-0.00020176,0.00013313,0.00015427,-0.0
 0072851,-0.00038707,0.00091064,0.00077870,0.00914309,0.02443343,-0.001
 32734,-0.00374670,-0.01012272,0.00565202,0.07664152,-0.00891974,-0.080
 86150,-0.28113587,0.00005637,-0.00134190,0.00002068,-0.00092201,0.0008
 8172,-0.00010166,0.00030480,-0.00073647,0.00062504,-0.00007645,-0.0007
 7332,0.00033573,-0.00054773,0.00009750,-0.00010744,0.00008364,-0.00681
 279,-0.01735283,-0.00091847,-0.00125527,-0.00709869,0.01061719,0.08988
 285,0.30517733,-0.00245217,0.00056827,0.00028283,0.00023183,-0.0001923
 7,-0.00028251,0.00027332,-0.00034253,0.00000543,0.01295636,0.01352565,
 -0.00123315,-0.16044146,-0.13956802,0.00526992,-0.00110667,0.00428293,
 0.00123410,-0.00125260,0.00033730,0.00048216,-0.00005813,0.00016298,0.
 00009373,-0.00068291,0.00012782,0.00013753,0.17037190,-0.00073936,0.00
 042518,0.00032999,-0.00233943,-0.00029427,0.00029642,0.00082317,0.0001
 3877,-0.00015657,-0.01994944,-0.02454091,0.00052556,-0.12692927,-0.211
 92425,0.00294322,0.00540270,-0.00396130,-0.00168019,0.00014330,0.00060
 636,-0.00048649,-0.00011573,0.00045533,0.00003552,0.00036784,0.0001284
 8,0.00050755,0.14465250,0.23596616,0.00047093,-0.00029239,0.00049913,-
 0.00021408,0.00005256,0.00068198,0.00008682,0.00015698,-0.00023179,-0.
 01023674,-0.00991047,-0.00181215,0.00834193,0.00667160,-0.04751198,0.0
 0195050,-0.00270321,-0.00023092,0.00090130,0.00007823,-0.00022763,-0.0
 0005225,0.00005820,-0.00027398,-0.00047949,0.00015737,-0.00020211,-0.0
 0752327,-0.00184086,0.04660052,-0.00024657,-0.00007802,0.00025140,0.00
 362808,0.00177198,-0.00280732,-0.00113263,0.00127320,0.00109184,-0.021
 31911,0.00809208,-0.00220496,-0.20986759,0.03713497,-0.11925627,0.0019
 9148,-0.00003713,0.00047031,-0.00025928,0.00004204,-0.00017874,-0.0000
 1478,0.00003003,-0.00002537,0.00006879,-0.00009983,0.00005564,-0.01360
 884,0.00391416,-0.01097652,0.23291463,-0.00040138,0.00014788,0.0000832
 3,-0.00458443,-0.00293733,0.00265038,0.00219442,-0.00208155,-0.0016782
 7,0.03441852,-0.01283207,0.00887344,0.03146801,-0.05510049,0.02656732,
 -0.00050917,0.00307858,0.00074670,-0.00003549,0.00023895,-0.00022866,0
 .00001530,0.00017039,0.00001293,0.00028946,-0.00001724,0.00017888,-0.0
 1920853,0.00687021,-0.01519930,-0.04919719,0.06236066,0.00005028,0.000
 00162,-0.00009101,0.00008272,-0.00286264,0.00079309,0.00108090,-0.0002
 0703,-0.00085837,0.01587197,-0.00385062,0.01222439,-0.12426529,0.02856
 350,-0.14089121,-0.00003207,0.00143327,-0.00047272,0.00004781,0.000032
 44,-0.00000351,0.00002699,0.00001119,0.00003308,0.00007867,0.00004297,
 -0.00002016,0.00265300,-0.00049733,0.00068490,0.12841030,-0.02739299,0
 .14631069,-0.00001010,0.00007161,0.00005413,0.00467926,-0.00129874,0.0
 0310756,-0.00124118,0.00222440,-0.00097463,-0.01351574,0.00314337,0.02
 047522,-0.06967185,-0.01371104,0.06483572,0.00123277,0.00023654,-0.001
 88410,0.00015939,-0.00004887,-0.00010962,-0.00006680,0.00003245,-0.000
 09742,-0.00035113,-0.00023079,-0.00005403,-0.00508503,-0.00319950,0.01
 852634,0.00824283,0.00489453,-0.02423082,0.07598722,-0.00028500,0.0001
 7375,0.00028454,-0.00622231,0.00122855,-0.00324293,0.00174226,-0.00304
 718,0.00116285,0.02055819,-0.00307541,-0.03316154,-0.01719379,-0.05832
 976,0.04947514,-0.00019028,0.00414787,0.00214001,0.00031849,0.00013840
 ,-0.00018384,-0.00004492,0.00016189,-0.00005193,0.00007033,0.00009870,
 0.00018473,-0.00516960,-0.00297206,0.02338930,-0.00270675,-0.00009863,
 0.00455732,0.00812359,0.06135150,0.00012899,0.00032261,0.00022984,-0.0
 0554525,0.00137371,-0.00079591,0.00106606,-0.00218493,-0.00016828,0.01
 510899,-0.00891554,-0.00833269,0.06573450,0.04692204,-0.27063336,-0.00
 158736,0.00067209,0.00080201,0.00009704,0.00010244,-0.00007411,-0.0000
 2381,0.00004781,-0.00004406,0.00025254,0.00006474,-0.00010079,-0.00133
 004,0.00039401,0.00162804,0.00523107,0.00562357,-0.01767926,-0.0797062
 1,-0.04448046,0.29503785,-0.00083616,0.00327571,0.00036615,0.01251846,
 -0.03442038,-0.00480380,0.00651493,0.02138809,0.00203053,0.00977743,-0
 .01629173,-0.00559775,-0.00567434,-0.00531593,0.00093501,-0.23274265,0
 .20606566,0.04340199,0.00018764,0.00088201,-0.00007777,-0.00066900,-0.
 00068132,0.00000009,-0.00006118,0.00043256,0.00018326,0.00085440,-0.00
 203094,-0.00079548,-0.00039699,0.00065597,0.00022554,-0.00035964,0.000
 99980,0.00057348,0.21088710,0.00118675,-0.00159010,-0.00021119,-0.0071
 2334,0.00156554,-0.00042703,0.00466626,-0.00632363,-0.00021668,0.02251
 022,-0.05424379,-0.00942806,-0.00387150,-0.00487525,0.00101417,0.15666
 896,-0.23213290,-0.03827620,-0.00004413,-0.00014393,-0.00006943,0.0003
 9013,0.00054001,0.00006604,0.00012967,-0.00000197,0.00004802,0.0008236
 1,-0.00089770,-0.00061800,-0.00013954,0.00020063,0.00016830,-0.0002375
 5,0.00022238,0.00005791,-0.17495950,0.29768072,0.00028249,-0.00054378,
 -0.00001033,-0.00190292,0.00228296,0.00632567,-0.00018321,-0.00183235,
 -0.00837876,0.00320381,-0.00324017,0.00034279,-0.00041396,-0.00101672,
 -0.00162761,0.03514744,-0.04292059,-0.01575367,0.00001877,-0.00004914,
 -0.00002339,0.00012491,0.00017143,-0.00005824,-0.00004283,-0.00006256,
 -0.00003923,0.00021028,-0.00037082,0.00039599,-0.00006138,-0.00023723,
 -0.00002991,0.00005786,-0.00007319,0.00013069,-0.03644124,0.04789215,0
 .01872601\\0.00001406,0.00005704,-0.00001634,0.00003122,-0.00005838,0.
 00001641,-0.00003992,0.00005644,0.00002303,-0.00005554,-0.00000786,-0.
 00006937,0.00002797,0.00000024,-0.00001565,0.00001032,0.00000173,0.000
 00467,0.00000144,-0.00001152,0.00000876,-0.00000286,-0.00000373,-0.000
 00809,0.00001087,-0.00002246,-0.00000060,-0.00000206,-0.00001664,0.000
 02208,0.00000430,-0.00000872,0.00001763,0.00000592,0.00001791,0.000023
 68,-0.00000573,-0.00000406,-0.00000620\\\@
 Job cpu time:       0 days  2 hours 34 minutes 41.4 seconds.
 File lengths (MBytes):  RWF=  11275 Int=      0 D2E=      0 Chk=     33 Scr=      1
 Normal termination of Gaussian 09 at Tue Aug 23 11:12:58 2022.
