 Entering Gaussian System, Link 0=g09
 Input=G4.Frag_766.gjf
 Output=G4.Frag_766.log
 Initial command:
 /public/home/users/caep010/software/Gaussian09/g09/l1.exe "/public/home/users/caep010/.cache/gau_scr/Gau-199730.inp" -scrdir="/public/home/users/caep010/.cache/gau_scr/"
 Entering Link 1 = /public/home/users/caep010/software/Gaussian09/g09/l1.exe PID=    199731.
  
 Copyright (c) 1988,1990,1992,1993,1995,1998,2003,2009,2015,
            Gaussian, Inc.  All Rights Reserved.
  
 This is part of the Gaussian(R) 09 program.  It is based on
 the Gaussian(R) 03 system (copyright 2003, Gaussian, Inc.),
 the Gaussian(R) 98 system (copyright 1998, Gaussian, Inc.),
 the Gaussian(R) 94 system (copyright 1995, Gaussian, Inc.),
 the Gaussian 92(TM) system (copyright 1992, Gaussian, Inc.),
 the Gaussian 90(TM) system (copyright 1990, Gaussian, Inc.),
 the Gaussian 88(TM) system (copyright 1988, Gaussian, Inc.),
 the Gaussian 86(TM) system (copyright 1986, Carnegie Mellon
 University), and the Gaussian 82(TM) system (copyright 1983,
 Carnegie Mellon University). Gaussian is a federally registered
 trademark of Gaussian, Inc.
  
 This software contains proprietary and confidential information,
 including trade secrets, belonging to Gaussian, Inc.
  
 This software is provided under written license and may be
 used, copied, transmitted, or stored only in accord with that
 written license.
  
 The following legend is applicable only to US Government
 contracts under FAR:
  
                    RESTRICTED RIGHTS LEGEND
  
 Use, reproduction and disclosure by the US Government is
 subject to restrictions as set forth in subparagraphs (a)
 and (c) of the Commercial Computer Software - Restricted
 Rights clause in FAR 52.227-19.
  
 Gaussian, Inc.
 340 Quinnipiac St., Bldg. 40, Wallingford CT 06492
  
  
 ---------------------------------------------------------------
 Warning -- This program may not be used in any manner that
 competes with the business of Gaussian, Inc. or will provide
 assistance to any competitor of Gaussian, Inc.  The licensee
 of this program is prohibited from giving any competitor of
 Gaussian, Inc. access to this program.  By using this program,
 the user acknowledges that Gaussian, Inc. is engaged in the
 business of creating and licensing software in the field of
 computational chemistry and represents and warrants to the
 licensee that it is not a competitor of Gaussian, Inc. and that
 it will not use this program in any manner prohibited above.
 ---------------------------------------------------------------
  

 Cite this work as:
 Gaussian 09, Revision E.01,
 M. J. Frisch, G. W. Trucks, H. B. Schlegel, G. E. Scuseria, 
 M. A. Robb, J. R. Cheeseman, G. Scalmani, V. Barone, B. Mennucci, 
 G. A. Petersson, H. Nakatsuji, M. Caricato, X. Li, H. P. Hratchian, 
 A. F. Izmaylov, J. Bloino, G. Zheng, J. L. Sonnenberg, M. Hada, 
 M. Ehara, K. Toyota, R. Fukuda, J. Hasegawa, M. Ishida, T. Nakajima, 
 Y. Honda, O. Kitao, H. Nakai, T. Vreven, J. A. Montgomery, Jr., 
 J. E. Peralta, F. Ogliaro, M. Bearpark, J. J. Heyd, E. Brothers, 
 K. N. Kudin, V. N. Staroverov, T. Keith, R. Kobayashi, J. Normand, 
 K. Raghavachari, A. Rendell, J. C. Burant, S. S. Iyengar, J. Tomasi, 
 M. Cossi, N. Rega, J. M. Millam, M. Klene, J. E. Knox, J. B. Cross, 
 V. Bakken, C. Adamo, J. Jaramillo, R. Gomperts, R. E. Stratmann, 
 O. Yazyev, A. J. Austin, R. Cammi, C. Pomelli, J. W. Ochterski, 
 R. L. Martin, K. Morokuma, V. G. Zakrzewski, G. A. Voth, 
 P. Salvador, J. J. Dannenberg, S. Dapprich, A. D. Daniels, 
 O. Farkas, J. B. Foresman, J. V. Ortiz, J. Cioslowski, 
 and D. J. Fox, Gaussian, Inc., Wallingford CT, 2013.
 
 ******************************************
 Gaussian 09:  ES64L-G09RevE.01 30-Nov-2015
                26-Aug-2022 
 ******************************************
 %nproc=32
 Will use up to   32 processors via shared memory.
 %mem=180GB
 %chk=G4.Frag_766.chk
 -----
 #P G4
 -----
 1/14=-1,18=20,19=15,26=3,38=1/1,3;
 2/9=110,12=2,17=6,18=5,40=1/2;
 3/5=35,7=104,11=2,16=1,25=1,30=1,71=1,74=-5/1,2,3;
 4//1;
 5/5=2,38=5/2;
 6/7=2,8=2,9=2,10=2,28=1/1;
 7//1,2,3,16;
 1/14=-1,18=20,19=15,26=3/3(2);
 2/9=110/2;
 99//99;
 2/9=110/2;
 3/5=35,7=104,11=2,16=1,25=1,30=1,71=1,74=-5/1,2,3;
 4/5=5,16=3,69=1/1;
 5/5=2,38=5/2;
 7//1,2,3,16;
 1/14=-1,18=20,19=15,26=3/3(-5);
 2/9=110/2;
 6/7=2,8=2,9=2,10=2,19=2,28=1/1;
 99/9=1/99;
 Leave Link    1 at Fri Aug 26 06:10:52 2022, MaxMem= 24159191040 cpu:         3.9
 (Enter /public/home/users/caep010/software/Gaussian09/g09/l101.exe)
 --------
 Frag_766
 --------
 Symbolic Z-matrix:
 Charge =  0 Multiplicity = 1
 C                     2.0103   -0.0493    0.4655 
 C                     0.7726    0.1745   -0.3551 
 N                     0.8462    0.9498   -1.3798 
 C                    -0.5316   -0.5061    0.0068 
 C                    -1.5618    0.5236    0.4786 
 O                    -1.0188   -1.2011   -1.1114 
 H                     2.3754    0.9226    0.8588 
 H                     1.816    -0.7241    1.3249 
 H                     2.8001   -0.5032   -0.1691 
 H                     0.0309    1.1342   -1.9828 
 H                    -0.3567   -1.2255    0.8398 
 H                    -1.1632    1.0946    1.3445 
 H                    -2.4915    0.007     0.7983 
 H                    -1.8148    1.2321   -0.3386 
 H                    -1.7132   -1.8291   -0.7804 
 
 NAtoms=     15 NQM=       15 NQMF=       0 NMMI=      0 NMMIF=      0
                NMic=       0 NMicF=      0.
                    Isotopes and Nuclear Properties:
 (Nuclear quadrupole moments (NQMom) in fm**2, nuclear magnetic moments (NMagM)
  in nuclear magnetons)

  Atom         1           2           3           4           5           6           7           8           9          10
 IAtWgt=          12          12          14          12          12          16           1           1           1           1
 AtmWgt=  12.0000000  12.0000000  14.0030740  12.0000000  12.0000000  15.9949146   1.0078250   1.0078250   1.0078250   1.0078250
 NucSpn=           0           0           2           0           0           0           1           1           1           1
 AtZEff=   0.0000000   0.0000000   0.0000000   0.0000000   0.0000000   0.0000000   0.0000000   0.0000000   0.0000000   0.0000000
 NQMom=    0.0000000   0.0000000   2.0440000   0.0000000   0.0000000   0.0000000   0.0000000   0.0000000   0.0000000   0.0000000
 NMagM=    0.0000000   0.0000000   0.4037610   0.0000000   0.0000000   0.0000000   2.7928460   2.7928460   2.7928460   2.7928460
 AtZNuc=   6.0000000   6.0000000   7.0000000   6.0000000   6.0000000   8.0000000   1.0000000   1.0000000   1.0000000   1.0000000

  Atom        11          12          13          14          15
 IAtWgt=           1           1           1           1           1
 AtmWgt=   1.0078250   1.0078250   1.0078250   1.0078250   1.0078250
 NucSpn=           1           1           1           1           1
 AtZEff=   0.0000000   0.0000000   0.0000000   0.0000000   0.0000000
 NQMom=    0.0000000   0.0000000   0.0000000   0.0000000   0.0000000
 NMagM=    2.7928460   2.7928460   2.7928460   2.7928460   2.7928460
 AtZNuc=   1.0000000   1.0000000   1.0000000   1.0000000   1.0000000
 Leave Link  101 at Fri Aug 26 06:10:53 2022, MaxMem= 24159191040 cpu:        10.1
 (Enter /public/home/users/caep010/software/Gaussian09/g09/l103.exe)

 GradGradGradGradGradGradGradGradGradGradGradGradGradGradGradGradGradGrad
 Berny optimization.
 Initialization pass.
                           ----------------------------
                           !    Initial Parameters    !
                           ! (Angstroms and Degrees)  !
 --------------------------                            --------------------------
 ! Name  Definition              Value          Derivative Info.                !
 --------------------------------------------------------------------------------
 ! R1    R(1,2)                  1.5018         estimate D2E/DX2                !
 ! R2    R(1,7)                  1.1102         estimate D2E/DX2                !
 ! R3    R(1,8)                  1.1098         estimate D2E/DX2                !
 ! R4    R(1,9)                  1.1102         estimate D2E/DX2                !
 ! R5    R(2,3)                  1.2871         estimate D2E/DX2                !
 ! R6    R(2,4)                  1.515          estimate D2E/DX2                !
 ! R7    R(3,10)                 1.0307         estimate D2E/DX2                !
 ! R8    R(4,5)                  1.5311         estimate D2E/DX2                !
 ! R9    R(4,6)                  1.4038         estimate D2E/DX2                !
 ! R10   R(4,11)                 1.1145         estimate D2E/DX2                !
 ! R11   R(5,12)                 1.1112         estimate D2E/DX2                !
 ! R12   R(5,13)                 1.1106         estimate D2E/DX2                !
 ! R13   R(5,14)                 1.1108         estimate D2E/DX2                !
 ! R14   R(6,15)                 0.993          estimate D2E/DX2                !
 ! A1    A(2,1,7)              109.5203         estimate D2E/DX2                !
 ! A2    A(2,1,8)              111.6816         estimate D2E/DX2                !
 ! A3    A(2,1,9)              109.5663         estimate D2E/DX2                !
 ! A4    A(7,1,8)              108.393          estimate D2E/DX2                !
 ! A5    A(7,1,9)              109.054          estimate D2E/DX2                !
 ! A6    A(8,1,9)              108.578          estimate D2E/DX2                !
 ! A7    A(1,2,3)              118.5334         estimate D2E/DX2                !
 ! A8    A(1,2,4)              120.7981         estimate D2E/DX2                !
 ! A9    A(3,2,4)              120.6663         estimate D2E/DX2                !
 ! A10   A(2,3,10)             121.8923         estimate D2E/DX2                !
 ! A11   A(2,4,5)              110.5317         estimate D2E/DX2                !
 ! A12   A(2,4,6)              109.3234         estimate D2E/DX2                !
 ! A13   A(2,4,11)             109.4782         estimate D2E/DX2                !
 ! A14   A(5,4,6)              110.1749         estimate D2E/DX2                !
 ! A15   A(5,4,11)             108.0232         estimate D2E/DX2                !
 ! A16   A(6,4,11)             109.2842         estimate D2E/DX2                !
 ! A17   A(4,5,12)             110.1426         estimate D2E/DX2                !
 ! A18   A(4,5,13)             109.8242         estimate D2E/DX2                !
 ! A19   A(4,5,14)             110.8256         estimate D2E/DX2                !
 ! A20   A(12,5,13)            108.3607         estimate D2E/DX2                !
 ! A21   A(12,5,14)            109.1018         estimate D2E/DX2                !
 ! A22   A(13,5,14)            108.5306         estimate D2E/DX2                !
 ! A23   A(4,6,15)             106.8737         estimate D2E/DX2                !
 ! D1    D(7,1,2,3)             59.2231         estimate D2E/DX2                !
 ! D2    D(7,1,2,4)           -121.3058         estimate D2E/DX2                !
 ! D3    D(8,1,2,3)            179.3031         estimate D2E/DX2                !
 ! D4    D(8,1,2,4)             -1.2257         estimate D2E/DX2                !
 ! D5    D(9,1,2,3)            -60.3542         estimate D2E/DX2                !
 ! D6    D(9,1,2,4)            119.1169         estimate D2E/DX2                !
 ! D7    D(1,2,3,10)           179.544          estimate D2E/DX2                !
 ! D8    D(4,2,3,10)             0.0722         estimate D2E/DX2                !
 ! D9    D(1,2,4,5)            112.4207         estimate D2E/DX2                !
 ! D10   D(1,2,4,6)           -126.1402         estimate D2E/DX2                !
 ! D11   D(1,2,4,11)            -6.4548         estimate D2E/DX2                !
 ! D12   D(3,2,4,5)            -68.1195         estimate D2E/DX2                !
 ! D13   D(3,2,4,6)             53.3196         estimate D2E/DX2                !
 ! D14   D(3,2,4,11)           173.005          estimate D2E/DX2                !
 ! D15   D(2,4,5,12)           -57.3533         estimate D2E/DX2                !
 ! D16   D(2,4,5,13)          -176.6205         estimate D2E/DX2                !
 ! D17   D(2,4,5,14)            63.4739         estimate D2E/DX2                !
 ! D18   D(6,4,5,12)          -178.2873         estimate D2E/DX2                !
 ! D19   D(6,4,5,13)            62.4455         estimate D2E/DX2                !
 ! D20   D(6,4,5,14)           -57.4601         estimate D2E/DX2                !
 ! D21   D(11,4,5,12)           62.4019         estimate D2E/DX2                !
 ! D22   D(11,4,5,13)          -56.8654         estimate D2E/DX2                !
 ! D23   D(11,4,5,14)         -176.771          estimate D2E/DX2                !
 ! D24   D(2,4,6,15)           164.3739         estimate D2E/DX2                !
 ! D25   D(5,4,6,15)           -73.9714         estimate D2E/DX2                !
 ! D26   D(11,4,6,15)           44.5691         estimate D2E/DX2                !
 --------------------------------------------------------------------------------
 Trust Radius=3.00D-01 FncErr=1.00D-07 GrdErr=1.00D-06
 Number of steps in this run=     73 maximum allowed number of steps=    100.
 GradGradGradGradGradGradGradGradGradGradGradGradGradGradGradGradGradGrad

 Leave Link  103 at Fri Aug 26 06:10:53 2022, MaxMem= 24159191040 cpu:         0.4
 (Enter /public/home/users/caep010/software/Gaussian09/g09/l202.exe)
                          Input orientation:                          
 ---------------------------------------------------------------------
 Center     Atomic      Atomic             Coordinates (Angstroms)
 Number     Number       Type             X           Y           Z
 ---------------------------------------------------------------------
      1          6           0        2.010300   -0.049300    0.465500
      2          6           0        0.772600    0.174500   -0.355100
      3          7           0        0.846200    0.949800   -1.379800
      4          6           0       -0.531600   -0.506100    0.006800
      5          6           0       -1.561800    0.523600    0.478600
      6          8           0       -1.018800   -1.201100   -1.111400
      7          1           0        2.375400    0.922600    0.858800
      8          1           0        1.816000   -0.724100    1.324900
      9          1           0        2.800100   -0.503200   -0.169100
     10          1           0        0.030900    1.134200   -1.982800
     11          1           0       -0.356700   -1.225500    0.839800
     12          1           0       -1.163200    1.094600    1.344500
     13          1           0       -2.491500    0.007000    0.798300
     14          1           0       -1.814800    1.232100   -0.338600
     15          1           0       -1.713200   -1.829100   -0.780400
 ---------------------------------------------------------------------
                    Distance matrix (angstroms):
                    1          2          3          4          5
     1  C    0.000000
     2  C    1.501790   0.000000
     3  N    2.399680   1.287058   0.000000
     4  C    2.623038   1.514967   2.437342   0.000000
     5  C    3.617773   2.503268   3.071443   1.531075   0.000000
     6  O    3.603984   2.381886   2.859481   1.403838   2.407808
     7  H    1.110213   2.145268   2.711185   3.349289   3.975588
     8  H    1.109809   2.172226   3.325335   2.701136   3.698988
     9  H    1.110192   2.145840   2.719325   3.336341   4.527693
    10  H    3.363461   2.029914   1.030692   2.639223   2.994665
    11  H    2.669501   2.159422   3.332495   1.114457   2.154549
    12  H    3.486008   2.735424   3.388284   2.179587   1.111173
    13  H    4.514436   3.465940   4.095514   2.175075   1.110597
    14  H    4.113387   2.795251   2.871361   2.187977   1.110764
    15  H    4.310964   3.220946   3.825192   1.940668   2.672677
                    6          7          8          9         10
     6  O    0.000000
     7  H    4.462329   0.000000
     8  H    3.768180   1.800500   0.000000
     9  H    3.994871   1.808274   1.802577   0.000000
    10  H    2.704595   3.690006   4.192939   3.693109   0.000000
    11  H    2.060620   3.475495   2.281962   3.391900   3.699390
    12  H    3.364897   3.575916   3.490514   4.533398   3.535303
    13  H    2.697277   4.952646   4.400724   5.403443   3.920153
    14  H    2.674191   4.368905   4.447096   4.933285   2.473780
    15  H    0.993044   5.193792   4.255416   4.743583   3.642636
                   11         12         13         14         15
    11  H    0.000000
    12  H    2.507594   0.000000
    13  H    2.465390   1.801552   0.000000
    14  H    3.091032   1.810059   1.803146   0.000000
    15  H    2.197606   3.655916   2.543483   3.094585   0.000000
 Stoichiometry    C4H9NO
 Framework group  C1[X(C4H9NO)]
 Deg. of freedom    39
 Full point group                 C1      NOp   1
 Largest Abelian subgroup         C1      NOp   1
 Largest concise Abelian subgroup C1      NOp   1
                         Standard orientation:                         
 ---------------------------------------------------------------------
 Center     Atomic      Atomic             Coordinates (Angstroms)
 Number     Number       Type             X           Y           Z
 ---------------------------------------------------------------------
      1          6           0       -1.974858    0.586231   -0.475846
      2          6           0       -0.766558   -0.112885    0.077888
      3          7           0       -0.941018   -1.050612    0.942034
      4          6           0        0.626955    0.267740   -0.378589
      5          6           0        1.406777    0.921787    0.765217
      6          8           0        1.298357   -0.880327   -0.827947
      7          1           0       -2.545231    1.054350    0.353680
      8          1           0       -1.693902    1.379716   -1.199116
      9          1           0       -2.625634   -0.149578   -0.993150
     10          1           0       -0.149285   -1.569068    1.350310
     11          1           0        0.556756    1.003287   -1.212889
     12          1           0        0.859467    1.812796    1.141062
     13          1           0        2.403279    1.250919    0.401787
     14          1           0        1.554786    0.206431    1.601971
     15          1           0        2.086135   -0.569184   -1.346342
 ---------------------------------------------------------------------
 Rotational constants (GHZ):      4.9890760      2.5472728      2.4436629
 Leave Link  202 at Fri Aug 26 06:10:53 2022, MaxMem= 24159191040 cpu:         0.3
 (Enter /public/home/users/caep010/software/Gaussian09/g09/l301.exe)
 Standard basis: GTBas3 (6D, 7F)
 Ernie: Thresh=  0.10000D-02 Tol=  0.10000D-05 Strict=F.
 There are   231 symmetry adapted cartesian basis functions of A   symmetry.
 There are   213 symmetry adapted basis functions of A   symmetry.
   213 basis functions,   327 primitive gaussians,   231 cartesian basis functions
    24 alpha electrons       24 beta electrons
       nuclear repulsion energy       245.2378759386 Hartrees.
 IExCor=  402 DFT=T Ex+Corr=B3LYP ExCW=0 ScaHFX=  0.200000
 ScaDFX=  0.800000  0.720000  1.000000  0.810000 ScalE2=  1.000000  1.000000
 IRadAn=      0 IRanWt=     -1 IRanGd=            0 ICorTp=0 IEmpDi=  4
 NAtoms=   15 NActive=   15 NUniq=   15 SFac= 1.00D+00 NAtFMM=   60 NAOKFM=F Big=F
 Integral buffers will be    131072 words long.
 Raffenetti 2 integral format.
 Two-electron integral symmetry is turned on.
 Leave Link  301 at Fri Aug 26 06:10:53 2022, MaxMem= 24159191040 cpu:         2.1
 (Enter /public/home/users/caep010/software/Gaussian09/g09/l302.exe)
 NPDir=0 NMtPBC=     1 NCelOv=     1 NCel=       1 NClECP=     1 NCelD=      1
         NCelK=      1 NCelE2=     1 NClLst=     1 CellRange=     0.0.
 One-electron integrals computed using PRISM.
 NBasis=   213 RedAO= T EigKep=  3.59D-04  NBF=   213
 NBsUse=   213 1.00D-06 EigRej= -1.00D+00 NBFU=   213
 Precomputing XC quadrature grid using
 IXCGrd= 4 IRadAn=           0 IRanWt=          -1 IRanGd=           0 AccXCQ= 0.00D+00.
 Generated NRdTot=       0 NPtTot=           0 NUsed=           0 NTot=          32
 NSgBfM=   231   231   231   231   231 MxSgAt=    15 MxSgA2=    15.
 Leave Link  302 at Fri Aug 26 06:10:54 2022, MaxMem= 24159191040 cpu:        14.6
 (Enter /public/home/users/caep010/software/Gaussian09/g09/l303.exe)
 DipDrv:  MaxL=1.
 Leave Link  303 at Fri Aug 26 06:10:54 2022, MaxMem= 24159191040 cpu:         1.0
 (Enter /public/home/users/caep010/software/Gaussian09/g09/l401.exe)
 ExpMin= 1.61D-01 ExpMax= 5.48D+03 ExpMxC= 8.25D+02 IAcc=1 IRadAn=         1 AccDes= 0.00D+00
 Harris functional with IExCor=  402 and IRadAn=       1 diagonalized for initial guess.
 HarFok:  IExCor=  402 AccDes= 0.00D+00 IRadAn=         1 IDoV= 1 UseB2=F ITyADJ=14
 ICtDFT=  3500011 ScaDFX=  1.000000  1.000000  1.000000  1.000000
 FoFCou: FMM=F IPFlag=           0 FMFlag=      100000 FMFlg1=           0
         NFxFlg=           0 DoJE=T BraDBF=F KetDBF=T FulRan=T
         wScrn=  0.000000 ICntrl=     500 IOpCl=  0 I1Cent=   200000004 NGrid=           0
         NMat0=    1 NMatS0=      1 NMatT0=    0 NMatD0=    1 NMtDS0=    0 NMtDT0=    0
 Petite list used in FoFCou.
 Harris En= -287.849646565168    
 JPrj=0 DoOrth=F DoCkMO=F.
 Leave Link  401 at Fri Aug 26 06:10:54 2022, MaxMem= 24159191040 cpu:        13.3
 (Enter /public/home/users/caep010/software/Gaussian09/g09/l502.exe)
 Closed shell SCF:
 Using DIIS extrapolation, IDIIS=  1040.
 Integral symmetry usage will be decided dynamically.
 Keep R1 ints in memory in canonical form, NReq=266157421.
 IVT=      187717 IEndB=      187717 NGot= 24159191040 MDV= 23899277088
 LenX= 23899277088 LenY= 23899223286
 Requested convergence on RMS density matrix=1.00D-08 within 128 cycles.
 Requested convergence on MAX density matrix=1.00D-06.
 Requested convergence on             energy=1.00D-06.
 No special actions if energy rises.
 FoFCou: FMM=F IPFlag=           0 FMFlag=           0 FMFlg1=           0
         NFxFlg=           0 DoJE=F BraDBF=F KetDBF=F FulRan=T
         wScrn=  0.000000 ICntrl=     600 IOpCl=  0 I1Cent=           0 NGrid=           0
         NMat0=    1 NMatS0=  22791 NMatT0=    0 NMatD0=    1 NMtDS0=    0 NMtDT0=    0
 Symmetry not used in FoFCou.
 Integral accuracy reduced to 1.0D-05 until final iterations.

 Cycle   1  Pass 0  IDiag  1:
 E= -287.593394181048    
 DIIS: error= 2.13D-02 at cycle   1 NSaved=   1.
 NSaved= 1 IEnMin= 1 EnMin= -287.593394181048     IErMin= 1 ErrMin= 2.13D-02
 ErrMax= 2.13D-02  0.00D+00 EMaxC= 1.00D-01 BMatC= 2.28D-01 BMatP= 2.28D-01
 IDIUse=3 WtCom= 7.87D-01 WtEn= 2.13D-01
 Coeff-Com:  0.100D+01
 Coeff-En:   0.100D+01
 Coeff:      0.100D+01
 Gap=     0.183 Goal=   None    Shift=    0.000
 GapD=    0.183 DampG=1.000 DampE=0.500 DampFc=0.5000 IDamp=-1.
 Damping current iteration by 5.00D-01
 RMSDP=5.43D-03 MaxDP=1.44D-01              OVMax= 2.16D-01

 Cycle   2  Pass 0  IDiag  1:
 E= -287.679614007603     Delta-E=       -0.086219826555 Rises=F Damp=T
 DIIS: error= 8.17D-03 at cycle   2 NSaved=   2.
 NSaved= 2 IEnMin= 2 EnMin= -287.679614007603     IErMin= 2 ErrMin= 8.17D-03
 ErrMax= 8.17D-03  0.00D+00 EMaxC= 1.00D-01 BMatC= 1.68D-02 BMatP= 2.28D-01
 IDIUse=3 WtCom= 9.18D-01 WtEn= 8.17D-02
 Coeff-Com:  0.132D+00 0.868D+00
 Coeff-En:   0.206D+00 0.794D+00
 Coeff:      0.138D+00 0.862D+00
 Gap=     0.264 Goal=   None    Shift=    0.000
 RMSDP=1.18D-03 MaxDP=3.91D-02 DE=-8.62D-02 OVMax= 1.77D-01

 Cycle   3  Pass 0  IDiag  1:
 E= -287.796653651655     Delta-E=       -0.117039644052 Rises=F Damp=F
 DIIS: error= 6.13D-03 at cycle   3 NSaved=   3.
 NSaved= 3 IEnMin= 3 EnMin= -287.796653651655     IErMin= 3 ErrMin= 6.13D-03
 ErrMax= 6.13D-03  0.00D+00 EMaxC= 1.00D-01 BMatC= 1.27D-02 BMatP= 1.68D-02
 IDIUse=3 WtCom= 9.39D-01 WtEn= 6.13D-02
 Coeff-Com:  0.376D-01 0.463D+00 0.499D+00
 Coeff-En:   0.000D+00 0.000D+00 0.100D+01
 Coeff:      0.353D-01 0.435D+00 0.530D+00
 Gap=     0.222 Goal=   None    Shift=    0.000
 RMSDP=6.53D-04 MaxDP=2.92D-02 DE=-1.17D-01 OVMax= 6.98D-02

 Cycle   4  Pass 0  IDiag  1:
 E= -287.804844153955     Delta-E=       -0.008190502300 Rises=F Damp=F
 DIIS: error= 3.86D-03 at cycle   4 NSaved=   4.
 NSaved= 4 IEnMin= 4 EnMin= -287.804844153955     IErMin= 4 ErrMin= 3.86D-03
 ErrMax= 3.86D-03  0.00D+00 EMaxC= 1.00D-01 BMatC= 4.03D-03 BMatP= 1.27D-02
 IDIUse=3 WtCom= 9.61D-01 WtEn= 3.86D-02
 Coeff-Com:  0.648D-03 0.674D-01 0.360D+00 0.572D+00
 Coeff-En:   0.000D+00 0.000D+00 0.284D+00 0.716D+00
 Coeff:      0.623D-03 0.648D-01 0.357D+00 0.577D+00
 Gap=     0.229 Goal=   None    Shift=    0.000
 RMSDP=2.58D-04 MaxDP=1.22D-02 DE=-8.19D-03 OVMax= 2.91D-02

 Cycle   5  Pass 0  IDiag  1:
 E= -287.808448060274     Delta-E=       -0.003603906318 Rises=F Damp=F
 DIIS: error= 5.12D-04 at cycle   5 NSaved=   5.
 NSaved= 5 IEnMin= 5 EnMin= -287.808448060274     IErMin= 5 ErrMin= 5.12D-04
 ErrMax= 5.12D-04  0.00D+00 EMaxC= 1.00D-01 BMatC= 1.80D-04 BMatP= 4.03D-03
 IDIUse=3 WtCom= 9.95D-01 WtEn= 5.12D-03
 Coeff-Com: -0.721D-03 0.145D-01 0.176D+00 0.322D+00 0.488D+00
 Coeff-En:   0.000D+00 0.000D+00 0.000D+00 0.000D+00 0.100D+01
 Coeff:     -0.717D-03 0.144D-01 0.175D+00 0.320D+00 0.491D+00
 Gap=     0.228 Goal=   None    Shift=    0.000
 RMSDP=6.04D-05 MaxDP=2.54D-03 DE=-3.60D-03 OVMax= 3.99D-03

 Cycle   6  Pass 0  IDiag  1:
 E= -287.808578873967     Delta-E=       -0.000130813693 Rises=F Damp=F
 DIIS: error= 1.22D-04 at cycle   6 NSaved=   6.
 NSaved= 6 IEnMin= 6 EnMin= -287.808578873967     IErMin= 6 ErrMin= 1.22D-04
 ErrMax= 1.22D-04  0.00D+00 EMaxC= 1.00D-01 BMatC= 1.08D-05 BMatP= 1.80D-04
 IDIUse=3 WtCom= 9.99D-01 WtEn= 1.22D-03
 Coeff-Com: -0.143D-03-0.992D-03 0.461D-01 0.910D-01 0.243D+00 0.621D+00
 Coeff-En:   0.000D+00 0.000D+00 0.000D+00 0.000D+00 0.000D+00 0.100D+01
 Coeff:     -0.143D-03-0.991D-03 0.461D-01 0.909D-01 0.242D+00 0.622D+00
 Gap=     0.228 Goal=   None    Shift=    0.000
 RMSDP=1.35D-05 MaxDP=5.18D-04 DE=-1.31D-04 OVMax= 7.68D-04

 Cycle   7  Pass 0  IDiag  1:
 E= -287.808587200730     Delta-E=       -0.000008326763 Rises=F Damp=F
 DIIS: error= 1.55D-05 at cycle   7 NSaved=   7.
 NSaved= 7 IEnMin= 7 EnMin= -287.808587200730     IErMin= 7 ErrMin= 1.55D-05
 ErrMax= 1.55D-05  0.00D+00 EMaxC= 1.00D-01 BMatC= 1.39D-07 BMatP= 1.08D-05
 IDIUse=1 WtCom= 1.00D+00 WtEn= 0.00D+00
 Coeff-Com:  0.420D-04-0.893D-03 0.916D-02 0.187D-01 0.618D-01 0.194D+00
 Coeff-Com:  0.718D+00
 Coeff:      0.420D-04-0.893D-03 0.916D-02 0.187D-01 0.618D-01 0.194D+00
 Coeff:      0.718D+00
 Gap=     0.228 Goal=   None    Shift=    0.000
 RMSDP=2.19D-06 MaxDP=7.77D-05 DE=-8.33D-06 OVMax= 8.93D-05

 Initial convergence to 1.0D-05 achieved.  Increase integral accuracy.
 Cycle   8  Pass 1  IDiag  1:
 E= -287.808636837297     Delta-E=       -0.000049636567 Rises=F Damp=F
 DIIS: error= 1.91D-05 at cycle   1 NSaved=   1.
 NSaved= 1 IEnMin= 1 EnMin= -287.808636837297     IErMin= 1 ErrMin= 1.91D-05
 ErrMax= 1.91D-05  0.00D+00 EMaxC= 1.00D-01 BMatC= 1.33D-07 BMatP= 1.33D-07
 IDIUse=1 WtCom= 1.00D+00 WtEn= 0.00D+00
 Coeff-Com:  0.100D+01
 Coeff:      0.100D+01
 Gap=     0.228 Goal=   None    Shift=    0.000
 RMSDP=2.19D-06 MaxDP=7.77D-05 DE=-4.96D-05 OVMax= 8.95D-05

 Cycle   9  Pass 1  IDiag  1:
 E= -287.808636927747     Delta-E=       -0.000000090450 Rises=F Damp=F
 DIIS: error= 9.15D-06 at cycle   2 NSaved=   2.
 NSaved= 2 IEnMin= 2 EnMin= -287.808636927747     IErMin= 2 ErrMin= 9.15D-06
 ErrMax= 9.15D-06  0.00D+00 EMaxC= 1.00D-01 BMatC= 3.25D-08 BMatP= 1.33D-07
 IDIUse=1 WtCom= 1.00D+00 WtEn= 0.00D+00
 Coeff-Com:  0.251D+00 0.749D+00
 Coeff:      0.251D+00 0.749D+00
 Gap=     0.228 Goal=   None    Shift=    0.000
 RMSDP=1.52D-06 MaxDP=5.67D-05 DE=-9.05D-08 OVMax= 9.83D-05

 Cycle  10  Pass 1  IDiag  1:
 E= -287.808636937052     Delta-E=       -0.000000009305 Rises=F Damp=F
 DIIS: error= 8.64D-06 at cycle   3 NSaved=   3.
 NSaved= 3 IEnMin= 3 EnMin= -287.808636937052     IErMin= 3 ErrMin= 8.64D-06
 ErrMax= 8.64D-06  0.00D+00 EMaxC= 1.00D-01 BMatC= 2.37D-08 BMatP= 3.25D-08
 IDIUse=1 WtCom= 1.00D+00 WtEn= 0.00D+00
 Coeff-Com: -0.211D-02 0.459D+00 0.543D+00
 Coeff:     -0.211D-02 0.459D+00 0.543D+00
 Gap=     0.228 Goal=   None    Shift=    0.000
 RMSDP=7.75D-07 MaxDP=3.66D-05 DE=-9.31D-09 OVMax= 7.86D-05

 Cycle  11  Pass 1  IDiag  1:
 E= -287.808636956256     Delta-E=       -0.000000019204 Rises=F Damp=F
 DIIS: error= 3.32D-06 at cycle   4 NSaved=   4.
 NSaved= 4 IEnMin= 4 EnMin= -287.808636956256     IErMin= 4 ErrMin= 3.32D-06
 ErrMax= 3.32D-06  0.00D+00 EMaxC= 1.00D-01 BMatC= 3.56D-09 BMatP= 2.37D-08
 IDIUse=1 WtCom= 1.00D+00 WtEn= 0.00D+00
 Coeff-Com: -0.160D-01 0.267D+00 0.369D+00 0.380D+00
 Coeff:     -0.160D-01 0.267D+00 0.369D+00 0.380D+00
 Gap=     0.228 Goal=   None    Shift=    0.000
 RMSDP=2.27D-07 MaxDP=1.06D-05 DE=-1.92D-08 OVMax= 2.54D-05

 Cycle  12  Pass 1  IDiag  1:
 E= -287.808636959422     Delta-E=       -0.000000003167 Rises=F Damp=F
 DIIS: error= 2.09D-07 at cycle   5 NSaved=   5.
 NSaved= 5 IEnMin= 5 EnMin= -287.808636959422     IErMin= 5 ErrMin= 2.09D-07
 ErrMax= 2.09D-07  0.00D+00 EMaxC= 1.00D-01 BMatC= 2.40D-11 BMatP= 3.56D-09
 IDIUse=1 WtCom= 1.00D+00 WtEn= 0.00D+00
 Coeff-Com: -0.591D-02 0.816D-01 0.117D+00 0.146D+00 0.661D+00
 Coeff:     -0.591D-02 0.816D-01 0.117D+00 0.146D+00 0.661D+00
 Gap=     0.228 Goal=   None    Shift=    0.000
 RMSDP=2.75D-08 MaxDP=8.89D-07 DE=-3.17D-09 OVMax= 1.28D-06

 Cycle  13  Pass 1  IDiag  1:
 E= -287.808636959447     Delta-E=       -0.000000000025 Rises=F Damp=F
 DIIS: error= 7.07D-08 at cycle   6 NSaved=   6.
 NSaved= 6 IEnMin= 6 EnMin= -287.808636959447     IErMin= 6 ErrMin= 7.07D-08
 ErrMax= 7.07D-08  0.00D+00 EMaxC= 1.00D-01 BMatC= 2.89D-12 BMatP= 2.40D-11
 IDIUse=1 WtCom= 1.00D+00 WtEn= 0.00D+00
 Coeff-Com: -0.107D-02 0.108D-01 0.170D-01 0.275D-01 0.286D+00 0.660D+00
 Coeff:     -0.107D-02 0.108D-01 0.170D-01 0.275D-01 0.286D+00 0.660D+00
 Gap=     0.228 Goal=   None    Shift=    0.000
 RMSDP=8.58D-09 MaxDP=3.85D-07 DE=-2.50D-11 OVMax= 3.76D-07

 SCF Done:  E(RB3LYP) =  -287.808636959     A.U. after   13 cycles
            NFock= 13  Conv=0.86D-08     -V/T= 2.0082
 KE= 2.854623798454D+02 PE=-1.161221766946D+03 EE= 3.427128742028D+02
 Leave Link  502 at Fri Aug 26 06:11:02 2022, MaxMem= 24159191040 cpu:        87.7
 (Enter /public/home/users/caep010/software/Gaussian09/g09/l601.exe)
 Copying SCF densities to generalized density rwf, IOpCl= 0 IROHF=0.

 **********************************************************************

            Population analysis using the SCF density.

 **********************************************************************

 Orbital symmetries:
       Occupied  (A) (A) (A) (A) (A) (A) (A) (A) (A) (A) (A) (A)
                 (A) (A) (A) (A) (A) (A) (A) (A) (A) (A) (A) (A)
       Virtual   (A) (A) (A) (A) (A) (A) (A) (A) (A) (A) (A) (A)
                 (A) (A) (A) (A) (A) (A) (A) (A) (A) (A) (A) (A)
                 (A) (A) (A) (A) (A) (A) (A) (A) (A) (A) (A) (A)
                 (A) (A) (A) (A) (A) (A) (A) (A) (A) (A) (A) (A)
                 (A) (A) (A) (A) (A) (A) (A) (A) (A) (A) (A) (A)
                 (A) (A) (A) (A) (A) (A) (A) (A) (A) (A) (A) (A)
                 (A) (A) (A) (A) (A) (A) (A) (A) (A) (A) (A) (A)
                 (A) (A) (A) (A) (A) (A) (A) (A) (A) (A) (A) (A)
                 (A) (A) (A) (A) (A) (A) (A) (A) (A) (A) (A) (A)
                 (A) (A) (A) (A) (A) (A) (A) (A) (A) (A) (A) (A)
                 (A) (A) (A) (A) (A) (A) (A) (A) (A) (A) (A) (A)
                 (A) (A) (A) (A) (A) (A) (A) (A) (A) (A) (A) (A)
                 (A) (A) (A) (A) (A) (A) (A) (A) (A) (A) (A) (A)
                 (A) (A) (A) (A) (A) (A) (A) (A) (A) (A) (A) (A)
                 (A) (A) (A) (A) (A) (A) (A) (A) (A) (A) (A) (A)
                 (A) (A) (A) (A) (A) (A) (A) (A) (A)
 The electronic state is 1-A.
 Alpha  occ. eigenvalues --  -19.14276 -14.29915 -10.23890 -10.22805 -10.18634
 Alpha  occ. eigenvalues --  -10.18563  -1.02572  -0.88331  -0.75215  -0.72127
 Alpha  occ. eigenvalues --   -0.63481  -0.54092  -0.51691  -0.48167  -0.44260
 Alpha  occ. eigenvalues --   -0.41449  -0.40887  -0.39253  -0.38432  -0.36913
 Alpha  occ. eigenvalues --   -0.33891  -0.28584  -0.26964  -0.23376
 Alpha virt. eigenvalues --   -0.00533   0.05705   0.10573   0.11378   0.12863
 Alpha virt. eigenvalues --    0.14719   0.15938   0.17789   0.18749   0.19453
 Alpha virt. eigenvalues --    0.21699   0.23057   0.25220   0.30775   0.38497
 Alpha virt. eigenvalues --    0.42740   0.46734   0.48790   0.50569   0.52030
 Alpha virt. eigenvalues --    0.53639   0.54605   0.56339   0.59309   0.60046
 Alpha virt. eigenvalues --    0.62245   0.63147   0.66427   0.69363   0.72188
 Alpha virt. eigenvalues --    0.73223   0.73366   0.73941   0.75349   0.77126
 Alpha virt. eigenvalues --    0.78501   0.79899   0.82504   0.83352   0.84959
 Alpha virt. eigenvalues --    0.87805   0.90162   0.91267   0.92170   0.94373
 Alpha virt. eigenvalues --    0.96320   1.01242   1.02173   1.07753   1.11754
 Alpha virt. eigenvalues --    1.18964   1.21947   1.25094   1.26827   1.28497
 Alpha virt. eigenvalues --    1.32479   1.37938   1.40280   1.45150   1.48401
 Alpha virt. eigenvalues --    1.49475   1.52047   1.56909   1.57304   1.61269
 Alpha virt. eigenvalues --    1.62296   1.66590   1.68881   1.71829   1.76872
 Alpha virt. eigenvalues --    1.79915   1.82608   1.87729   1.91443   1.93502
 Alpha virt. eigenvalues --    1.94171   1.96177   2.02308   2.10985   2.12019
 Alpha virt. eigenvalues --    2.23084   2.29773   2.31423   2.33565   2.36687
 Alpha virt. eigenvalues --    2.44171   2.45574   2.47149   2.52228   2.54012
 Alpha virt. eigenvalues --    2.54466   2.62621   2.67311   2.73313   2.76890
 Alpha virt. eigenvalues --    2.78856   2.81036   2.82896   2.86657   2.87969
 Alpha virt. eigenvalues --    2.88717   2.90328   2.92894   2.93736   2.96030
 Alpha virt. eigenvalues --    3.00180   3.09227   3.12103   3.16220   3.16734
 Alpha virt. eigenvalues --    3.20503   3.21624   3.25273   3.32572   3.35187
 Alpha virt. eigenvalues --    3.38639   3.40141   3.46742   3.54584   3.57963
 Alpha virt. eigenvalues --    3.60544   3.63160   3.65950   3.68833   3.69502
 Alpha virt. eigenvalues --    3.81318   3.83031   3.84937   3.88123   3.90902
 Alpha virt. eigenvalues --    3.92799   3.96119   4.03460   4.04739   4.16742
 Alpha virt. eigenvalues --    4.18488   4.20187   4.25182   4.30740   4.32962
 Alpha virt. eigenvalues --    4.36113   4.38982   4.41009   4.43282   4.46898
 Alpha virt. eigenvalues --    4.48995   4.50817   4.52774   4.56419   4.57439
 Alpha virt. eigenvalues --    4.59010   4.59598   4.63375   4.65286   4.67218
 Alpha virt. eigenvalues --    4.71206   4.74468   4.76100   4.79590   4.81539
 Alpha virt. eigenvalues --    4.82415   4.85095   4.90317   4.92699   4.97548
 Alpha virt. eigenvalues --    5.01170   5.08133   5.26197   5.29392   5.36078
 Alpha virt. eigenvalues --    5.42294   5.46573   5.50140   5.55080   5.63733
 Alpha virt. eigenvalues --    5.69378   5.76632   5.92513   5.99287   6.05683
 Alpha virt. eigenvalues --    6.13131   7.08082  10.06410  11.26203  11.47989
 Alpha virt. eigenvalues --   11.72378  12.12194  12.30584  13.35862
          Condensed to atoms (all electrons):
               1          2          3          4          5          6
     1  C    5.106253   0.364898  -0.039684  -0.077730   0.005464   0.001544
     2  C    0.364898   4.427765   0.672114   0.405464  -0.022246  -0.030325
     3  N   -0.039684   0.672114   6.577262  -0.057481  -0.015367  -0.008696
     4  C   -0.077730   0.405464  -0.057481   4.767694   0.344067   0.344422
     5  C    0.005464  -0.022246  -0.015367   0.344067   5.115833  -0.046514
     6  O    0.001544  -0.030325  -0.008696   0.344422  -0.046514   7.896118
     7  H    0.361283  -0.013389  -0.003328   0.004231  -0.000652  -0.000017
     8  H    0.362324  -0.023424   0.002093  -0.000935   0.000026   0.000075
     9  H    0.364328  -0.012726  -0.004182   0.003671  -0.000017  -0.000088
    10  H    0.008557  -0.086971   0.337123  -0.011991  -0.000459   0.004291
    11  H   -0.007170  -0.033108   0.008354   0.341156  -0.063091  -0.038025
    12  H    0.000456  -0.001377   0.000345  -0.014432   0.345944   0.003252
    13  H   -0.000226   0.003297   0.000256  -0.020458   0.358461  -0.000204
    14  H    0.000112  -0.008543   0.006504  -0.019584   0.363427  -0.000570
    15  H   -0.000287   0.007161   0.000024  -0.051693  -0.000500   0.298162
               7          8          9         10         11         12
     1  C    0.361283   0.362324   0.364328   0.008557  -0.007170   0.000456
     2  C   -0.013389  -0.023424  -0.012726  -0.086971  -0.033108  -0.001377
     3  N   -0.003328   0.002093  -0.004182   0.337123   0.008354   0.000345
     4  C    0.004231  -0.000935   0.003671  -0.011991   0.341156  -0.014432
     5  C   -0.000652   0.000026  -0.000017  -0.000459  -0.063091   0.345944
     6  O   -0.000017   0.000075  -0.000088   0.004291  -0.038025   0.003252
     7  H    0.556442  -0.028758  -0.021345  -0.000251  -0.000030   0.000106
     8  H   -0.028758   0.597507  -0.027885  -0.000260   0.004946   0.000132
     9  H   -0.021345  -0.027885   0.546334  -0.000237  -0.000054  -0.000006
    10  H   -0.000251  -0.000260  -0.000237   0.511187   0.000626   0.000062
    11  H   -0.000030   0.004946  -0.000054   0.000626   0.735096   0.001949
    12  H    0.000106   0.000132  -0.000006   0.000062   0.001949   0.601968
    13  H    0.000006  -0.000026   0.000003  -0.000125  -0.004395  -0.028027
    14  H   -0.000004  -0.000001  -0.000001   0.004913   0.006469  -0.025975
    15  H    0.000006  -0.000027   0.000004  -0.000288  -0.010040  -0.000248
              13         14         15
     1  C   -0.000226   0.000112  -0.000287
     2  C    0.003297  -0.008543   0.007161
     3  N    0.000256   0.006504   0.000024
     4  C   -0.020458  -0.019584  -0.051693
     5  C    0.358461   0.363427  -0.000500
     6  O   -0.000204  -0.000570   0.298162
     7  H    0.000006  -0.000004   0.000006
     8  H   -0.000026  -0.000001  -0.000027
     9  H    0.000003  -0.000001   0.000004
    10  H   -0.000125   0.004913  -0.000288
    11  H   -0.004395   0.006469  -0.010040
    12  H   -0.028027  -0.025975  -0.000248
    13  H    0.616266  -0.030749   0.003055
    14  H   -0.030749   0.579526  -0.000479
    15  H    0.003055  -0.000479   0.463834
 Mulliken charges:
               1
     1  C   -0.450119
     2  C    0.351411
     3  N   -0.475336
     4  C    0.043601
     5  C   -0.384376
     6  O   -0.423423
     7  H    0.145700
     8  H    0.114212
     9  H    0.152203
    10  H    0.233824
    11  H    0.057317
    12  H    0.115850
    13  H    0.102866
    14  H    0.124954
    15  H    0.291316
 Sum of Mulliken charges =  -0.00000
 Mulliken charges with hydrogens summed into heavy atoms:
               1
     1  C   -0.038005
     2  C    0.351411
     3  N   -0.241512
     4  C    0.100918
     5  C   -0.040705
     6  O   -0.132107
 Electronic spatial extent (au):  <R**2>=            629.2921
 Charge=             -0.0000 electrons
 Dipole moment (field-independent basis, Debye):
    X=              1.7488    Y=              2.1213    Z=             -1.1975  Tot=              2.9987
 Quadrupole moment (field-independent basis, Debye-Ang):
   XX=            -35.1677   YY=            -39.1392   ZZ=            -36.4163
   XY=             -1.8068   XZ=              0.5093   YZ=             -0.5881
 Traceless Quadrupole moment (field-independent basis, Debye-Ang):
   XX=              1.7401   YY=             -2.2315   ZZ=              0.4914
   XY=             -1.8068   XZ=              0.5093   YZ=             -0.5881
 Octapole moment (field-independent basis, Debye-Ang**2):
  XXX=             15.4065  YYY=             -3.8548  ZZZ=             -5.6715  XYY=              2.6585
  XXY=              2.2542  XXZ=            -12.3855  XZZ=              8.5931  YZZ=             -2.2972
  YYZ=              1.1715  XYZ=             -4.2894
 Hexadecapole moment (field-independent basis, Debye-Ang**3):
 XXXX=           -430.8861 YYYY=           -188.0703 ZZZZ=           -163.3741 XXXY=            -12.5541
 XXXZ=            -19.7389 YYYX=             -8.8241 YYYZ=             -2.4588 ZZZX=             -9.2948
 ZZZY=             -1.0002 XXYY=           -115.2550 XXZZ=            -96.7614 YYZZ=            -56.7168
 XXYZ=             10.0250 YYXZ=              1.1586 ZZXY=             -7.8763
 N-N= 2.452378759386D+02 E-N=-1.161221765113D+03  KE= 2.854623798454D+02
 No NMR shielding tensors so no spin-rotation constants.
 Leave Link  601 at Fri Aug 26 06:11:03 2022, MaxMem= 24159191040 cpu:        13.1
 (Enter /public/home/users/caep010/software/Gaussian09/g09/l701.exe)
 Compute integral first derivatives.
 ... and contract with generalized density number  0.
 Leave Link  701 at Fri Aug 26 06:11:03 2022, MaxMem= 24159191040 cpu:        15.2
 (Enter /public/home/users/caep010/software/Gaussian09/g09/l702.exe)
 L702 exits ... SP integral derivatives will be done elsewhere.
 Leave Link  702 at Fri Aug 26 06:11:03 2022, MaxMem= 24159191040 cpu:         0.5
 (Enter /public/home/users/caep010/software/Gaussian09/g09/l703.exe)
 Compute integral first derivatives, UseDBF=F ICtDFT=           0.
 Integral derivatives from FoFJK, PRISM(SPDF).
 Calling FoFJK, ICntrl=      2127 FMM=F ISym2X=0 I1Cent= 0 IOpClX= 0 NMat=1 NMatS=1 NMatT=0.
 FoFJK:  IHMeth= 1 ICntrl=    2127 DoSepK=F KAlg= 0 I1Cent=   0 FoldK=F
 IRaf=         0 NMat=   1 IRICut=       1 DoRegI=T DoRafI=F ISym2E= 0.
 FoFCou: FMM=F IPFlag=           0 FMFlag=      100000 FMFlg1=         800
         NFxFlg=           0 DoJE=F BraDBF=F KetDBF=F FulRan=T
         wScrn=  0.000000 ICntrl=    2127 IOpCl=  0 I1Cent=           0 NGrid=           0
         NMat0=    1 NMatS0=      1 NMatT0=    0 NMatD0=    1 NMtDS0=    0 NMtDT0=    0
 Symmetry not used in FoFCou.
 Leave Link  703 at Fri Aug 26 06:11:05 2022, MaxMem= 24159191040 cpu:        46.7
 (Enter /public/home/users/caep010/software/Gaussian09/g09/l716.exe)
 Dipole        = 6.88027745D-01 8.34594193D-01-4.71113745D-01
 ***** Axes restored to original set *****
 -------------------------------------------------------------------
 Center     Atomic                   Forces (Hartrees/Bohr)
 Number     Number              X              Y              Z
 -------------------------------------------------------------------
      1        6           0.006788599   -0.002457728    0.010442059
      2        6          -0.014109212    0.019851381   -0.041336886
      3        7           0.017609959   -0.001118149    0.010332799
      4        6          -0.004623689   -0.005838945    0.023342860
      5        6          -0.005465362    0.006837976    0.007974539
      6        8          -0.019266360   -0.024797205   -0.004189005
      7        1          -0.000381603   -0.009988578   -0.004632902
      8        1           0.002827068    0.006155679   -0.007842236
      9        1          -0.006021285    0.005853664    0.006994628
     10        1          -0.001152428   -0.013895370    0.016092530
     11        1           0.000757489    0.005866769   -0.004491915
     12        1          -0.005857925   -0.003392324   -0.007328336
     13        1           0.007124998    0.005449878   -0.002301763
     14        1           0.003588377   -0.006994806    0.007966967
     15        1           0.018181373    0.018467758   -0.011023340
 -------------------------------------------------------------------
 Cartesian Forces:  Max     0.041336886 RMS     0.012097625
 Leave Link  716 at Fri Aug 26 06:11:05 2022, MaxMem= 24159191040 cpu:         0.9
 (Enter /public/home/users/caep010/software/Gaussian09/g09/l103.exe)

 GradGradGradGradGradGradGradGradGradGradGradGradGradGradGradGradGradGrad
 Berny optimization.
 FormGI is forming the generalized inverse of G from B-inverse, IUseBI=4.
 Internal  Forces:  Max     0.035423596 RMS     0.008325400
 Search for a local minimum.
 Step number   1 out of a maximum of   73
 All quantities printed in internal units (Hartrees-Bohrs-Radians)
 RMS Force = .83254D-02 SwitMx=.10000D-02 MixMth= 1
 Mixed Optimization -- RFO/linear search
 Second derivative matrix not updated -- first step.
 ITU=  0
     Eigenvalues ---    0.00355   0.00568   0.00742   0.01008   0.01641
     Eigenvalues ---    0.03186   0.05157   0.05457   0.05585   0.05715
     Eigenvalues ---    0.07253   0.07482   0.07835   0.16000   0.16000
     Eigenvalues ---    0.16000   0.16000   0.16000   0.16000   0.16000
     Eigenvalues ---    0.16000   0.17465   0.20000   0.24999   0.25000
     Eigenvalues ---    0.29324   0.30857   0.32133   0.32190   0.32476
     Eigenvalues ---    0.32519   0.32537   0.32577   0.32580   0.32620
     Eigenvalues ---    0.42675   0.44990   0.48933   0.70920
 RFO step:  Lambda=-1.52256897D-02 EMin= 3.54890315D-03
 Linear search not attempted -- first point.
 Iteration  1 RMS(Cart)=  0.06715155 RMS(Int)=  0.00432683
 Iteration  2 RMS(Cart)=  0.00425057 RMS(Int)=  0.00010500
 Iteration  3 RMS(Cart)=  0.00001397 RMS(Int)=  0.00010464
 Iteration  4 RMS(Cart)=  0.00000000 RMS(Int)=  0.00010464
 ITry= 1 IFail=0 DXMaxC= 3.46D-01 DCOld= 1.00D+10 DXMaxT= 3.00D-01 DXLimC= 3.00D+00 Rises=F
 Variable       Old X    -DE/DX   Delta X   Delta X   Delta X     New X
                                 (Linear)    (Quad)   (Total)
    R1        2.83797   0.00543   0.00000   0.01611   0.01611   2.85408
    R2        2.09800  -0.01051   0.00000  -0.03083  -0.03083   2.06717
    R3        2.09723  -0.01031   0.00000  -0.03018  -0.03018   2.06705
    R4        2.09796  -0.01068   0.00000  -0.03131  -0.03131   2.06665
    R5        2.43219  -0.02914   0.00000  -0.04023  -0.04023   2.39195
    R6        2.86287   0.00913   0.00000   0.02820   0.02820   2.89107
    R7        1.94773  -0.01099   0.00000  -0.02487  -0.02487   1.92285
    R8        2.89331   0.00364   0.00000   0.01181   0.01181   2.90512
    R9        2.65287   0.01562   0.00000   0.03359   0.03359   2.68646
   R10        2.10602  -0.00703   0.00000  -0.02088  -0.02088   2.08514
   R11        2.09981  -0.00956   0.00000  -0.02811  -0.02811   2.07171
   R12        2.09872  -0.00917   0.00000  -0.02691  -0.02691   2.07181
   R13        2.09904  -0.01113   0.00000  -0.03270  -0.03270   2.06634
   R14        1.87658  -0.02806   0.00000  -0.05562  -0.05562   1.82096
    A1        1.91149   0.00263   0.00000   0.01440   0.01432   1.92581
    A2        1.94921   0.00119   0.00000   0.01007   0.00997   1.95918
    A3        1.91229   0.00125   0.00000   0.00455   0.00454   1.91683
    A4        1.89181  -0.00084   0.00000   0.00030   0.00014   1.89196
    A5        1.90335  -0.00346   0.00000  -0.02640  -0.02639   1.87696
    A6        1.89504  -0.00096   0.00000  -0.00413  -0.00417   1.89087
    A7        2.06880  -0.00182   0.00000  -0.00684  -0.00685   2.06195
    A8        2.10832  -0.00612   0.00000  -0.02305  -0.02305   2.08527
    A9        2.10603   0.00794   0.00000   0.02994   0.02993   2.13596
   A10        2.12742  -0.03542   0.00000  -0.20216  -0.20216   1.92526
   A11        1.92914   0.00211   0.00000   0.00469   0.00485   1.93399
   A12        1.90805  -0.00661   0.00000  -0.03919  -0.03912   1.86893
   A13        1.91075   0.00051   0.00000  -0.00401  -0.00393   1.90683
   A14        1.92292   0.00451   0.00000   0.02377   0.02367   1.94659
   A15        1.88536  -0.00246   0.00000  -0.00786  -0.00809   1.87727
   A16        1.90737   0.00202   0.00000   0.02336   0.02313   1.93050
   A17        1.92235   0.00418   0.00000   0.02495   0.02488   1.94723
   A18        1.91679   0.00169   0.00000   0.01076   0.01065   1.92744
   A19        1.93427  -0.00231   0.00000  -0.01543  -0.01535   1.91892
   A20        1.89125  -0.00226   0.00000  -0.00845  -0.00871   1.88255
   A21        1.90419  -0.00134   0.00000  -0.00987  -0.00976   1.89442
   A22        1.89422  -0.00004   0.00000  -0.00236  -0.00232   1.89190
   A23        1.86530   0.00288   0.00000   0.01645   0.01645   1.88175
    D1        1.03364  -0.00136   0.00000  -0.02230  -0.02233   1.01130
    D2       -2.11719  -0.00119   0.00000  -0.01697  -0.01707  -2.13426
    D3        3.12943   0.00011   0.00000  -0.00590  -0.00581   3.12362
    D4       -0.02139   0.00027   0.00000  -0.00057  -0.00056  -0.02195
    D5       -1.05338   0.00051   0.00000  -0.00155  -0.00149  -1.05487
    D6        2.07898   0.00068   0.00000   0.00379   0.00377   2.08275
    D7        3.13363  -0.00108   0.00000  -0.02127  -0.02123   3.11241
    D8        0.00126  -0.00116   0.00000  -0.02631  -0.02635  -0.02509
    D9        1.96211  -0.00260   0.00000  -0.06516  -0.06523   1.89689
   D10       -2.20156   0.00004   0.00000  -0.05817  -0.05825  -2.25982
   D11       -0.11266  -0.00119   0.00000  -0.05586  -0.05578  -0.16844
   D12       -1.18891  -0.00249   0.00000  -0.05992  -0.05994  -1.24885
   D13        0.93060   0.00016   0.00000  -0.05293  -0.05297   0.87763
   D14        3.01951  -0.00108   0.00000  -0.05062  -0.05050   2.96901
   D15       -1.00100  -0.00116   0.00000  -0.01039  -0.01031  -1.01131
   D16       -3.08261  -0.00201   0.00000  -0.02212  -0.02222  -3.10483
   D17        1.10783  -0.00159   0.00000  -0.01635  -0.01639   1.09144
   D18       -3.11170   0.00277   0.00000   0.01998   0.02008  -3.09162
   D19        1.08988   0.00192   0.00000   0.00825   0.00817   1.09805
   D20       -1.00287   0.00234   0.00000   0.01402   0.01400  -0.98887
   D21        1.08912  -0.00081   0.00000  -0.01737  -0.01725   1.07187
   D22       -0.99249  -0.00166   0.00000  -0.02910  -0.02916  -1.02164
   D23       -3.08524  -0.00124   0.00000  -0.02333  -0.02332  -3.10856
   D24        2.86887  -0.00008   0.00000   0.02954   0.02952   2.89838
   D25       -1.29104   0.00114   0.00000   0.02515   0.02480  -1.26625
   D26        0.77788   0.00206   0.00000   0.04398   0.04436   0.82224
         Item               Value     Threshold  Converged?
 Maximum Force            0.035424     0.000450     NO 
 RMS     Force            0.008325     0.000300     NO 
 Maximum Displacement     0.345564     0.001800     NO 
 RMS     Displacement     0.067593     0.001200     NO 
 Predicted change in Energy=-8.295846D-03
 Lowest energy point so far.  Saving SCF results.
 GradGradGradGradGradGradGradGradGradGradGradGradGradGradGradGradGradGrad

 Leave Link  103 at Fri Aug 26 06:11:05 2022, MaxMem= 24159191040 cpu:         2.9
 (Enter /public/home/users/caep010/software/Gaussian09/g09/l202.exe)
                          Input orientation:                          
 ---------------------------------------------------------------------
 Center     Atomic      Atomic             Coordinates (Angstroms)
 Number     Number       Type             X           Y           Z
 ---------------------------------------------------------------------
      1          6           0        1.999999   -0.025561    0.469695
      2          6           0        0.775026    0.180649   -0.389354
      3          7           0        0.881010    0.917242   -1.413252
      4          6           0       -0.538487   -0.502464   -0.003866
      5          6           0       -1.556223    0.525274    0.517029
      6          8           0       -1.018107   -1.169981   -1.163765
      7          1           0        2.378831    0.935777    0.828764
      8          1           0        1.796183   -0.661676    1.335890
      9          1           0        2.793054   -0.492481   -0.121123
     10          1           0       -0.002541    0.951335   -1.916784
     11          1           0       -0.348421   -1.224138    0.808892
     12          1           0       -1.166592    1.075936    1.381224
     13          1           0       -2.481376    0.024892    0.826389
     14          1           0       -1.798988    1.242615   -0.271727
     15          1           0       -1.713467   -1.777418   -0.888012
 ---------------------------------------------------------------------
                    Distance matrix (angstroms):
                    1          2          3          4          5
     1  C    0.000000
     2  C    1.510313   0.000000
     3  N    2.384639   1.265768   0.000000
     4  C    2.625949   1.529889   2.452938   0.000000
     5  C    3.598941   2.524880   3.133645   1.537324   0.000000
     6  O    3.617575   2.374708   2.832911   1.421611   2.447146
     7  H    1.093898   2.150865   2.696377   3.357462   3.968670
     8  H    1.093836   2.174567   3.299743   2.696476   3.649385
     9  H    1.093626   2.144176   2.704224   3.333619   4.512125
    10  H    3.264931   1.879257   1.017531   2.461711   2.918715
    11  H    2.658330   2.161332   3.321887   1.103410   2.145789
    12  H    3.474403   2.776034   3.467989   2.191880   1.096301
    13  H    4.495831   3.479432   4.137381   2.177670   1.096355
    14  H    4.073116   2.786961   2.931097   2.169312   1.093458
    15  H    4.324604   3.205509   3.777351   1.946227   2.702083
                    6          7          8          9         10
     6  O    0.000000
     7  H    4.465823   0.000000
     8  H    3.798273   1.774404   0.000000
     9  H    4.008872   1.764592   1.773490   0.000000
    10  H    2.469492   3.634447   4.051802   3.622755   0.000000
    11  H    2.083936   3.479013   2.278908   3.356951   3.504515
    12  H    3.397522   3.590944   3.435023   4.516168   3.499627
    13  H    2.744010   4.944829   4.362165   5.383778   3.811550
    14  H    2.688145   4.331212   4.374473   4.911220   2.453217
    15  H    0.963611   5.201505   4.302124   4.748465   3.381085
                   11         12         13         14         15
    11  H    0.000000
    12  H    2.507450   0.000000
    13  H    2.471817   1.772341   0.000000
    14  H    3.058881   1.777626   1.776053   0.000000
    15  H    2.246988   3.686480   2.603301   3.083459   0.000000
 Stoichiometry    C4H9NO
 Framework group  C1[X(C4H9NO)]
 Deg. of freedom    39
 Full point group                 C1      NOp   1
 RotChk:  IX=0 Diff= 1.58D-01
 Largest Abelian subgroup         C1      NOp   1
 Largest concise Abelian subgroup C1      NOp   1
                         Standard orientation:                         
 ---------------------------------------------------------------------
 Center     Atomic      Atomic             Coordinates (Angstroms)
 Number     Number       Type             X           Y           Z
 ---------------------------------------------------------------------
      1          6           0       -1.965982    0.554144   -0.517543
      2          6           0       -0.764841   -0.123303    0.098389
      3          7           0       -0.963282   -0.969283    1.018773
      4          6           0        0.636879    0.225108   -0.405944
      5          6           0        1.405402    1.047295    0.641313
      6          8           0        1.295052   -1.002239   -0.691263
      7          1           0       -2.543914    1.075807    0.250881
      8          1           0       -1.683771    1.277557   -1.287937
      9          1           0       -2.621501   -0.194170   -0.971790
     10          1           0       -0.080058   -1.369831    1.326741
     11          1           0        0.552888    0.841754   -1.317101
     12          1           0        0.872909    1.970278    0.899050
     13          1           0        2.394608    1.325327    0.259002
     14          1           0        1.540666    0.457908    1.552343
     15          1           0        2.081987   -0.801199   -1.209783
 ---------------------------------------------------------------------
 Rotational constants (GHZ):      4.9622311      2.5900933      2.4005694
 Leave Link  202 at Fri Aug 26 06:11:05 2022, MaxMem= 24159191040 cpu:         0.5
 (Enter /public/home/users/caep010/software/Gaussian09/g09/l301.exe)
 Standard basis: GTBas3 (6D, 7F)
 Ernie: Thresh=  0.10000D-02 Tol=  0.10000D-05 Strict=F.
 There are   231 symmetry adapted cartesian basis functions of A   symmetry.
 There are   213 symmetry adapted basis functions of A   symmetry.
   213 basis functions,   327 primitive gaussians,   231 cartesian basis functions
    24 alpha electrons       24 beta electrons
       nuclear repulsion energy       245.6389726088 Hartrees.
 IExCor=  402 DFT=T Ex+Corr=B3LYP ExCW=0 ScaHFX=  0.200000
 ScaDFX=  0.800000  0.720000  1.000000  0.810000 ScalE2=  1.000000  1.000000
 IRadAn=      0 IRanWt=     -1 IRanGd=            0 ICorTp=0 IEmpDi=  4
 NAtoms=   15 NActive=   15 NUniq=   15 SFac= 1.00D+00 NAtFMM=   60 NAOKFM=F Big=F
 Integral buffers will be    131072 words long.
 Raffenetti 2 integral format.
 Two-electron integral symmetry is turned on.
 Leave Link  301 at Fri Aug 26 06:11:06 2022, MaxMem= 24159191040 cpu:         1.8
 (Enter /public/home/users/caep010/software/Gaussian09/g09/l302.exe)
 NPDir=0 NMtPBC=     1 NCelOv=     1 NCel=       1 NClECP=     1 NCelD=      1
         NCelK=      1 NCelE2=     1 NClLst=     1 CellRange=     0.0.
 One-electron integrals computed using PRISM.
 NBasis=   213 RedAO= T EigKep=  3.17D-04  NBF=   213
 NBsUse=   213 1.00D-06 EigRej= -1.00D+00 NBFU=   213
 Precomputing XC quadrature grid using
 IXCGrd= 4 IRadAn=           0 IRanWt=          -1 IRanGd=           0 AccXCQ= 0.00D+00.
 Generated NRdTot=       0 NPtTot=           0 NUsed=           0 NTot=          32
 NSgBfM=   231   231   231   231   231 MxSgAt=    15 MxSgA2=    15.
 Leave Link  302 at Fri Aug 26 06:11:06 2022, MaxMem= 24159191040 cpu:        14.4
 (Enter /public/home/users/caep010/software/Gaussian09/g09/l303.exe)
 DipDrv:  MaxL=1.
 Leave Link  303 at Fri Aug 26 06:11:06 2022, MaxMem= 24159191040 cpu:         0.8
 (Enter /public/home/users/caep010/software/Gaussian09/g09/l401.exe)
 Initial guess from the checkpoint file:  "G4.Frag_766.chk"
 B after Tr=    -0.000000    0.000000   -0.000000
         Rot=    0.998378    0.056918    0.000945    0.001119 Ang=   6.53 deg.
 Guess basis will be translated and rotated to current coordinates.
 JPrj=2 DoOrth=T DoCkMO=T.
 Generating alternative initial guess.
 ExpMin= 1.61D-01 ExpMax= 5.48D+03 ExpMxC= 8.25D+02 IAcc=1 IRadAn=         1 AccDes= 0.00D+00
 Harris functional with IExCor=  402 and IRadAn=       1 diagonalized for initial guess.
 HarFok:  IExCor=  402 AccDes= 0.00D+00 IRadAn=         1 IDoV= 1 UseB2=F ITyADJ=14
 ICtDFT=  3500011 ScaDFX=  1.000000  1.000000  1.000000  1.000000
 FoFCou: FMM=F IPFlag=           0 FMFlag=      100000 FMFlg1=           0
         NFxFlg=           0 DoJE=T BraDBF=F KetDBF=T FulRan=T
         wScrn=  0.000000 ICntrl=     500 IOpCl=  0 I1Cent=   200000004 NGrid=           0
         NMat0=    1 NMatS0=      1 NMatT0=    0 NMatD0=    1 NMtDS0=    0 NMtDT0=    0
 Petite list used in FoFCou.
 Harris En= -287.864604753904    
 Leave Link  401 at Fri Aug 26 06:11:07 2022, MaxMem= 24159191040 cpu:        16.4
 (Enter /public/home/users/caep010/software/Gaussian09/g09/l502.exe)
 Closed shell SCF:
 Using DIIS extrapolation, IDIIS=  1040.
 Integral symmetry usage will be decided dynamically.
 Keep R1 ints in memory in canonical form, NReq=266157421.
 IVT=      187717 IEndB=      187717 NGot= 24159191040 MDV= 23899277088
 LenX= 23899277088 LenY= 23899223286
 Requested convergence on RMS density matrix=1.00D-08 within 128 cycles.
 Requested convergence on MAX density matrix=1.00D-06.
 Requested convergence on             energy=1.00D-06.
 No special actions if energy rises.
 FoFCou: FMM=F IPFlag=           0 FMFlag=           0 FMFlg1=           0
         NFxFlg=           0 DoJE=F BraDBF=F KetDBF=F FulRan=T
         wScrn=  0.000000 ICntrl=     600 IOpCl=  0 I1Cent=           0 NGrid=           0
         NMat0=    1 NMatS0=  22791 NMatT0=    0 NMatD0=    1 NMtDS0=    0 NMtDT0=    0
 Symmetry not used in FoFCou.
 Integral accuracy reduced to 1.0D-05 until final iterations.

 Cycle   1  Pass 0  IDiag  1:
 E= -287.810799499253    
 DIIS: error= 2.60D-03 at cycle   1 NSaved=   1.
 NSaved= 1 IEnMin= 1 EnMin= -287.810799499253     IErMin= 1 ErrMin= 2.60D-03
 ErrMax= 2.60D-03  0.00D+00 EMaxC= 1.00D-01 BMatC= 5.08D-03 BMatP= 5.08D-03
 IDIUse=3 WtCom= 9.74D-01 WtEn= 2.60D-02
 Coeff-Com:  0.100D+01
 Coeff-En:   0.100D+01
 Coeff:      0.100D+01
 Gap=     1.005 Goal=   None    Shift=    0.000
 GapD=    1.005 DampG=2.000 DampE=1.000 DampFc=2.0000 IDamp=-1.
 RMSDP=5.27D-04 MaxDP=1.68D-02              OVMax= 2.21D-02

 Cycle   2  Pass 0  IDiag  1:
 E= -287.816337650167     Delta-E=       -0.005538150914 Rises=F Damp=F
 DIIS: error= 7.60D-04 at cycle   2 NSaved=   2.
 NSaved= 2 IEnMin= 2 EnMin= -287.816337650167     IErMin= 2 ErrMin= 7.60D-04
 ErrMax= 7.60D-04  0.00D+00 EMaxC= 1.00D-01 BMatC= 3.51D-04 BMatP= 5.08D-03
 IDIUse=3 WtCom= 9.92D-01 WtEn= 7.60D-03
 Coeff-Com:  0.720D-01 0.928D+00
 Coeff-En:   0.000D+00 0.100D+01
 Coeff:      0.715D-01 0.929D+00
 Gap=     0.247 Goal=   None    Shift=    0.000
 RMSDP=1.65D-04 MaxDP=5.48D-03 DE=-5.54D-03 OVMax= 1.07D-02

 Cycle   3  Pass 0  IDiag  1:
 E= -287.816210977889     Delta-E=        0.000126672278 Rises=F Damp=F
 DIIS: error= 1.00D-03 at cycle   3 NSaved=   3.
 NSaved= 3 IEnMin= 2 EnMin= -287.816337650167     IErMin= 2 ErrMin= 7.60D-04
 ErrMax= 1.00D-03  0.00D+00 EMaxC= 1.00D-01 BMatC= 5.56D-04 BMatP= 3.51D-04
 IDIUse=3 WtCom= 2.40D-01 WtEn= 7.60D-01
 Coeff-Com: -0.148D-01 0.566D+00 0.449D+00
 Coeff-En:   0.000D+00 0.577D+00 0.423D+00
 Coeff:     -0.355D-02 0.574D+00 0.429D+00
 Gap=     0.249 Goal=   None    Shift=    0.000
 RMSDP=9.80D-05 MaxDP=4.14D-03 DE= 1.27D-04 OVMax= 8.18D-03

 Cycle   4  Pass 0  IDiag  1:
 E= -287.816641444733     Delta-E=       -0.000430466843 Rises=F Damp=F
 DIIS: error= 3.22D-04 at cycle   4 NSaved=   4.
 NSaved= 4 IEnMin= 4 EnMin= -287.816641444733     IErMin= 4 ErrMin= 3.22D-04
 ErrMax= 3.22D-04  0.00D+00 EMaxC= 1.00D-01 BMatC= 2.45D-05 BMatP= 3.51D-04
 IDIUse=3 WtCom= 9.97D-01 WtEn= 3.22D-03
 Coeff-Com: -0.134D-01 0.268D+00 0.246D+00 0.500D+00
 Coeff-En:   0.000D+00 0.000D+00 0.000D+00 0.100D+01
 Coeff:     -0.133D-01 0.267D+00 0.245D+00 0.502D+00
 Gap=     0.248 Goal=   None    Shift=    0.000
 RMSDP=2.38D-05 MaxDP=1.01D-03 DE=-4.30D-04 OVMax= 2.37D-03

 Cycle   5  Pass 0  IDiag  1:
 E= -287.816662090969     Delta-E=       -0.000020646236 Rises=F Damp=F
 DIIS: error= 8.95D-05 at cycle   5 NSaved=   5.
 NSaved= 5 IEnMin= 5 EnMin= -287.816662090969     IErMin= 5 ErrMin= 8.95D-05
 ErrMax= 8.95D-05  0.00D+00 EMaxC= 1.00D-01 BMatC= 2.58D-06 BMatP= 2.45D-05
 IDIUse=1 WtCom= 1.00D+00 WtEn= 0.00D+00
 Coeff-Com: -0.568D-02 0.729D-01 0.745D-01 0.273D+00 0.585D+00
 Coeff:     -0.568D-02 0.729D-01 0.745D-01 0.273D+00 0.585D+00
 Gap=     0.248 Goal=   None    Shift=    0.000
 RMSDP=6.92D-06 MaxDP=3.16D-04 DE=-2.06D-05 OVMax= 6.72D-04

 Initial convergence to 1.0D-05 achieved.  Increase integral accuracy.
 Cycle   6  Pass 1  IDiag  1:
 E= -287.816698541703     Delta-E=       -0.000036450734 Rises=F Damp=F
 DIIS: error= 2.35D-05 at cycle   1 NSaved=   1.
 NSaved= 1 IEnMin= 1 EnMin= -287.816698541703     IErMin= 1 ErrMin= 2.35D-05
 ErrMax= 2.35D-05  0.00D+00 EMaxC= 1.00D-01 BMatC= 3.13D-07 BMatP= 3.13D-07
 IDIUse=1 WtCom= 1.00D+00 WtEn= 0.00D+00
 Coeff-Com:  0.100D+01
 Coeff:      0.100D+01
 Gap=     0.248 Goal=   None    Shift=    0.000
 RMSDP=6.92D-06 MaxDP=3.16D-04 DE=-3.65D-05 OVMax= 3.85D-04

 Cycle   7  Pass 1  IDiag  1:
 E= -287.816698285097     Delta-E=        0.000000256606 Rises=F Damp=F
 DIIS: error= 3.37D-05 at cycle   2 NSaved=   2.
 NSaved= 2 IEnMin= 1 EnMin= -287.816698541703     IErMin= 1 ErrMin= 2.35D-05
 ErrMax= 3.37D-05  0.00D+00 EMaxC= 1.00D-01 BMatC= 6.58D-07 BMatP= 3.13D-07
 IDIUse=1 WtCom= 1.00D+00 WtEn= 0.00D+00
 Coeff-Com:  0.599D+00 0.401D+00
 Coeff:      0.599D+00 0.401D+00
 Gap=     0.248 Goal=   None    Shift=    0.000
 RMSDP=3.37D-06 MaxDP=1.39D-04 DE= 2.57D-07 OVMax= 3.02D-04

 Cycle   8  Pass 1  IDiag  1:
 E= -287.816698784636     Delta-E=       -0.000000499539 Rises=F Damp=F
 DIIS: error= 6.96D-06 at cycle   3 NSaved=   3.
 NSaved= 3 IEnMin= 3 EnMin= -287.816698784636     IErMin= 3 ErrMin= 6.96D-06
 ErrMax= 6.96D-06  0.00D+00 EMaxC= 1.00D-01 BMatC= 1.82D-08 BMatP= 3.13D-07
 IDIUse=1 WtCom= 1.00D+00 WtEn= 0.00D+00
 Coeff-Com:  0.152D+00 0.170D+00 0.678D+00
 Coeff:      0.152D+00 0.170D+00 0.678D+00
 Gap=     0.248 Goal=   None    Shift=    0.000
 RMSDP=8.19D-07 MaxDP=3.83D-05 DE=-5.00D-07 OVMax= 8.49D-05

 Cycle   9  Pass 1  IDiag  1:
 E= -287.816698792816     Delta-E=       -0.000000008180 Rises=F Damp=F
 DIIS: error= 5.07D-06 at cycle   4 NSaved=   4.
 NSaved= 4 IEnMin= 4 EnMin= -287.816698792816     IErMin= 4 ErrMin= 5.07D-06
 ErrMax= 5.07D-06  0.00D+00 EMaxC= 1.00D-01 BMatC= 9.31D-09 BMatP= 1.82D-08
 IDIUse=1 WtCom= 1.00D+00 WtEn= 0.00D+00
 Coeff-Com:  0.777D-03 0.473D-01 0.463D+00 0.489D+00
 Coeff:      0.777D-03 0.473D-01 0.463D+00 0.489D+00
 Gap=     0.248 Goal=   None    Shift=    0.000
 RMSDP=3.72D-07 MaxDP=1.60D-05 DE=-8.18D-09 OVMax= 3.55D-05

 Cycle  10  Pass 1  IDiag  1:
 E= -287.816698800579     Delta-E=       -0.000000007762 Rises=F Damp=F
 DIIS: error= 9.05D-07 at cycle   5 NSaved=   5.
 NSaved= 5 IEnMin= 5 EnMin= -287.816698800579     IErMin= 5 ErrMin= 9.05D-07
 ErrMax= 9.05D-07  0.00D+00 EMaxC= 1.00D-01 BMatC= 2.87D-10 BMatP= 9.31D-09
 IDIUse=1 WtCom= 1.00D+00 WtEn= 0.00D+00
 Coeff-Com: -0.882D-02 0.128D-01 0.188D+00 0.251D+00 0.557D+00
 Coeff:     -0.882D-02 0.128D-01 0.188D+00 0.251D+00 0.557D+00
 Gap=     0.248 Goal=   None    Shift=    0.000
 RMSDP=8.05D-08 MaxDP=2.18D-06 DE=-7.76D-09 OVMax= 4.55D-06

 Cycle  11  Pass 1  IDiag  1:
 E= -287.816698800826     Delta-E=       -0.000000000247 Rises=F Damp=F
 DIIS: error= 1.18D-07 at cycle   6 NSaved=   6.
 NSaved= 6 IEnMin= 6 EnMin= -287.816698800826     IErMin= 6 ErrMin= 1.18D-07
 ErrMax= 1.18D-07  0.00D+00 EMaxC= 1.00D-01 BMatC= 6.07D-12 BMatP= 2.87D-10
 IDIUse=1 WtCom= 1.00D+00 WtEn= 0.00D+00
 Coeff-Com: -0.365D-02 0.342D-02 0.589D-01 0.854D-01 0.221D+00 0.635D+00
 Coeff:     -0.365D-02 0.342D-02 0.589D-01 0.854D-01 0.221D+00 0.635D+00
 Gap=     0.248 Goal=   None    Shift=    0.000
 RMSDP=1.57D-08 MaxDP=4.02D-07 DE=-2.47D-10 OVMax= 5.39D-07

 Cycle  12  Pass 1  IDiag  1:
 E= -287.816698800834     Delta-E=       -0.000000000008 Rises=F Damp=F
 DIIS: error= 2.62D-08 at cycle   7 NSaved=   7.
 NSaved= 7 IEnMin= 7 EnMin= -287.816698800834     IErMin= 7 ErrMin= 2.62D-08
 ErrMax= 2.62D-08  0.00D+00 EMaxC= 1.00D-01 BMatC= 3.93D-13 BMatP= 6.07D-12
 IDIUse=1 WtCom= 1.00D+00 WtEn= 0.00D+00
 Coeff-Com: -0.502D-04-0.460D-03-0.417D-02-0.358D-02 0.100D-02 0.197D+00
 Coeff-Com:  0.810D+00
 Coeff:     -0.502D-04-0.460D-03-0.417D-02-0.358D-02 0.100D-02 0.197D+00
 Coeff:      0.810D+00
 Gap=     0.248 Goal=   None    Shift=    0.000
 RMSDP=4.42D-09 MaxDP=1.20D-07 DE=-7.73D-12 OVMax= 1.84D-07

 SCF Done:  E(RB3LYP) =  -287.816698801     A.U. after   12 cycles
            NFock= 12  Conv=0.44D-08     -V/T= 2.0075
 KE= 2.856832701923D+02 PE=-1.162113052998D+03 EE= 3.429741113961D+02
 Leave Link  502 at Fri Aug 26 06:11:15 2022, MaxMem= 24159191040 cpu:        94.8
 (Enter /public/home/users/caep010/software/Gaussian09/g09/l701.exe)
 Compute integral first derivatives.
 ... and contract with generalized density number  0.
 Leave Link  701 at Fri Aug 26 06:11:15 2022, MaxMem= 24159191040 cpu:        13.9
 (Enter /public/home/users/caep010/software/Gaussian09/g09/l702.exe)
 L702 exits ... SP integral derivatives will be done elsewhere.
 Leave Link  702 at Fri Aug 26 06:11:15 2022, MaxMem= 24159191040 cpu:         0.5
 (Enter /public/home/users/caep010/software/Gaussian09/g09/l703.exe)
 Compute integral first derivatives, UseDBF=F ICtDFT=           0.
 Integral derivatives from FoFJK, PRISM(SPDF).
 Calling FoFJK, ICntrl=      2127 FMM=F ISym2X=0 I1Cent= 0 IOpClX= 0 NMat=1 NMatS=1 NMatT=0.
 FoFJK:  IHMeth= 1 ICntrl=    2127 DoSepK=F KAlg= 0 I1Cent=   0 FoldK=F
 IRaf=         0 NMat=   1 IRICut=       1 DoRegI=T DoRafI=F ISym2E= 0.
 FoFCou: FMM=F IPFlag=           0 FMFlag=      100000 FMFlg1=         800
         NFxFlg=           0 DoJE=F BraDBF=F KetDBF=F FulRan=T
         wScrn=  0.000000 ICntrl=    2127 IOpCl=  0 I1Cent=           0 NGrid=           0
         NMat0=    1 NMatS0=      1 NMatT0=    0 NMatD0=    1 NMtDS0=    0 NMtDT0=    0
 Symmetry not used in FoFCou.
 Leave Link  703 at Fri Aug 26 06:11:17 2022, MaxMem= 24159191040 cpu:        46.8
 (Enter /public/home/users/caep010/software/Gaussian09/g09/l716.exe)
 Dipole        = 7.67549384D-01 8.51436672D-01-6.16477425D-01
 ***** Axes restored to original set *****
 -------------------------------------------------------------------
 Center     Atomic                   Forces (Hartrees/Bohr)
 Number     Number              X              Y              Z
 -------------------------------------------------------------------
      1        6          -0.001338102   -0.001431660    0.006016820
      2        6           0.000855337   -0.001029026   -0.000098654
      3        7           0.003272500    0.003487139   -0.004300834
      4        6          -0.000058401   -0.001015668    0.008432451
      5        6          -0.000434936   -0.000845657    0.000036749
      6        8          -0.000731527   -0.001394702   -0.000486082
      7        1           0.000580749   -0.000155352   -0.000718595
      8        1           0.000622846    0.000254651   -0.000045578
      9        1           0.000008505    0.000250720   -0.000159322
     10        1          -0.004309983   -0.000064864   -0.003532264
     11        1           0.001165670   -0.000222758   -0.003122965
     12        1           0.000169495   -0.000706477   -0.000756258
     13        1           0.000339188    0.000154881   -0.000314857
     14        1           0.000140736    0.000506033    0.000047630
     15        1          -0.000282077    0.002212742   -0.000998241
 -------------------------------------------------------------------
 Cartesian Forces:  Max     0.008432451 RMS     0.002161277
 Leave Link  716 at Fri Aug 26 06:11:17 2022, MaxMem= 24159191040 cpu:         0.6
 (Enter /public/home/users/caep010/software/Gaussian09/g09/l103.exe)

 GradGradGradGradGradGradGradGradGradGradGradGradGradGradGradGradGradGrad
 Berny optimization.
 Using GEDIIS/GDIIS optimizer.
 FormGI is forming the generalized inverse of G from B-inverse, IUseBI=4.
 Internal  Forces:  Max     0.008240838 RMS     0.001723865
 Search for a local minimum.
 Step number   2 out of a maximum of   73
 All quantities printed in internal units (Hartrees-Bohrs-Radians)
 RMS Force = .17239D-02 SwitMx=.10000D-02 MixMth= 1
 Mixed Optimization -- RFO/linear search
 Update second derivatives using D2CorX and points    1    2
 DE= -8.06D-03 DEPred=-8.30D-03 R= 9.72D-01
 TightC=F SS=  1.41D+00  RLast= 2.99D-01 DXNew= 5.0454D-01 8.9707D-01
 Trust test= 9.72D-01 RLast= 2.99D-01 DXMaxT set to 5.05D-01
 ITU=  1  0
 Use linear search instead of GDIIS.
     Eigenvalues ---    0.00355   0.00552   0.00742   0.01018   0.01627
     Eigenvalues ---    0.03178   0.05185   0.05391   0.05507   0.05656
     Eigenvalues ---    0.07096   0.07392   0.07901   0.15890   0.16000
     Eigenvalues ---    0.16000   0.16000   0.16000   0.16000   0.16000
     Eigenvalues ---    0.16928   0.17844   0.19879   0.24546   0.25379
     Eigenvalues ---    0.29379   0.30686   0.31619   0.32157   0.32462
     Eigenvalues ---    0.32527   0.32549   0.32578   0.32610   0.32879
     Eigenvalues ---    0.43453   0.44922   0.48549   0.74895
 RFO step:  Lambda=-2.33646074D-03 EMin= 3.54908028D-03
 Quartic linear search produced a step of  0.02164.
 Iteration  1 RMS(Cart)=  0.12915946 RMS(Int)=  0.00418584
 Iteration  2 RMS(Cart)=  0.00655208 RMS(Int)=  0.00003444
 Iteration  3 RMS(Cart)=  0.00001278 RMS(Int)=  0.00003312
 Iteration  4 RMS(Cart)=  0.00000000 RMS(Int)=  0.00003312
 ITry= 1 IFail=0 DXMaxC= 3.50D-01 DCOld= 1.00D+10 DXMaxT= 5.05D-01 DXLimC= 3.00D+00 Rises=F
 Variable       Old X    -DE/DX   Delta X   Delta X   Delta X     New X
                                 (Linear)    (Quad)   (Total)
    R1        2.85408   0.00295   0.00035   0.01018   0.01053   2.86461
    R2        2.06717  -0.00017  -0.00067  -0.00245  -0.00312   2.06405
    R3        2.06705  -0.00030  -0.00065  -0.00281  -0.00346   2.06359
    R4        2.06665  -0.00002  -0.00068  -0.00201  -0.00269   2.06396
    R5        2.39195   0.00824  -0.00087   0.00913   0.00826   2.40021
    R6        2.89107   0.00104   0.00061   0.00512   0.00573   2.89681
    R7        1.92285   0.00549  -0.00054   0.01134   0.01080   1.93366
    R8        2.90512  -0.00107   0.00026  -0.00293  -0.00268   2.90244
    R9        2.68646   0.00117   0.00073   0.00474   0.00547   2.69192
   R10        2.08514  -0.00195  -0.00045  -0.00740  -0.00786   2.07729
   R11        2.07171  -0.00089  -0.00061  -0.00452  -0.00512   2.06658
   R12        2.07181  -0.00045  -0.00058  -0.00306  -0.00364   2.06817
   R13        2.06634   0.00027  -0.00071  -0.00122  -0.00193   2.06440
   R14        1.82096  -0.00148  -0.00120  -0.00656  -0.00776   1.81320
    A1        1.92581   0.00004   0.00031   0.00080   0.00108   1.92688
    A2        1.95918   0.00112   0.00022   0.00952   0.00972   1.96889
    A3        1.91683  -0.00055   0.00010  -0.00468  -0.00459   1.91224
    A4        1.89196  -0.00009   0.00000   0.00237   0.00233   1.89429
    A5        1.87696  -0.00045  -0.00057  -0.00830  -0.00889   1.86807
    A6        1.89087  -0.00014  -0.00009  -0.00041  -0.00049   1.89038
    A7        2.06195   0.00432  -0.00015   0.01687   0.01669   2.07864
    A8        2.08527  -0.00469  -0.00050  -0.02017  -0.02070   2.06457
    A9        2.13596   0.00037   0.00065   0.00335   0.00397   2.13992
   A10        1.92526   0.00114  -0.00437  -0.00513  -0.00951   1.91576
   A11        1.93399   0.00024   0.00010  -0.00120  -0.00119   1.93280
   A12        1.86893  -0.00031  -0.00085  -0.01088  -0.01178   1.85715
   A13        1.90683  -0.00017  -0.00008   0.00287   0.00276   1.90959
   A14        1.94659  -0.00098   0.00051  -0.00829  -0.00784   1.93875
   A15        1.87727   0.00098  -0.00018   0.01365   0.01347   1.89074
   A16        1.93050   0.00025   0.00050   0.00394   0.00447   1.93497
   A17        1.94723  -0.00090   0.00054  -0.00508  -0.00454   1.94269
   A18        1.92744   0.00005   0.00023   0.00173   0.00196   1.92940
   A19        1.91892   0.00041  -0.00033   0.00179   0.00145   1.92037
   A20        1.88255   0.00040  -0.00019   0.00158   0.00139   1.88394
   A21        1.89442   0.00007  -0.00021  -0.00170  -0.00192   1.89251
   A22        1.89190  -0.00001  -0.00005   0.00180   0.00174   1.89364
   A23        1.88175   0.00062   0.00036   0.00487   0.00522   1.88697
    D1        1.01130  -0.00082  -0.00048  -0.03699  -0.03749   0.97382
    D2       -2.13426  -0.00064  -0.00037  -0.02241  -0.02279  -2.15704
    D3        3.12362  -0.00014  -0.00013  -0.02694  -0.02705   3.09656
    D4       -0.02195   0.00004  -0.00001  -0.01236  -0.01235  -0.03430
    D5       -1.05487   0.00005  -0.00003  -0.02439  -0.02444  -1.07930
    D6        2.08275   0.00023   0.00008  -0.00981  -0.00973   2.07302
    D7        3.11241  -0.00060  -0.00046  -0.01394  -0.01429   3.09812
    D8       -0.02509  -0.00078  -0.00057  -0.02892  -0.02960  -0.05470
    D9        1.89689  -0.00071  -0.00141  -0.17664  -0.17802   1.71886
   D10       -2.25982  -0.00197  -0.00126  -0.19446  -0.19566  -2.45548
   D11       -0.16844  -0.00195  -0.00121  -0.19445  -0.19561  -0.36405
   D12       -1.24885  -0.00052  -0.00130  -0.16139  -0.16275  -1.41160
   D13        0.87763  -0.00178  -0.00115  -0.17921  -0.18038   0.69725
   D14        2.96901  -0.00175  -0.00109  -0.17920  -0.18033   2.78868
   D15       -1.01131  -0.00053  -0.00022  -0.02942  -0.02965  -1.04096
   D16       -3.10483  -0.00048  -0.00048  -0.02924  -0.02972  -3.13455
   D17        1.09144  -0.00076  -0.00035  -0.03368  -0.03404   1.05740
   D18       -3.09162   0.00035   0.00043  -0.00949  -0.00906  -3.10068
   D19        1.09805   0.00040   0.00018  -0.00930  -0.00913   1.08891
   D20       -0.98887   0.00012   0.00030  -0.01375  -0.01346  -1.00233
   D21        1.07187  -0.00000  -0.00037  -0.01825  -0.01861   1.05326
   D22       -1.02164   0.00005  -0.00063  -0.01806  -0.01868  -1.04032
   D23       -3.10856  -0.00023  -0.00050  -0.02251  -0.02300  -3.13156
   D24        2.89838   0.00119   0.00064   0.06477   0.06535   2.96373
   D25       -1.26625   0.00069   0.00054   0.05124   0.05182  -1.21443
   D26        0.82224   0.00144   0.00096   0.06563   0.06661   0.88885
         Item               Value     Threshold  Converged?
 Maximum Force            0.008241     0.000450     NO 
 RMS     Force            0.001724     0.000300     NO 
 Maximum Displacement     0.350447     0.001800     NO 
 RMS     Displacement     0.129515     0.001200     NO 
 Predicted change in Energy=-1.458846D-03
 Lowest energy point so far.  Saving SCF results.
 GradGradGradGradGradGradGradGradGradGradGradGradGradGradGradGradGradGrad

 Leave Link  103 at Fri Aug 26 06:11:17 2022, MaxMem= 24159191040 cpu:         2.4
 (Enter /public/home/users/caep010/software/Gaussian09/g09/l202.exe)
                          Input orientation:                          
 ---------------------------------------------------------------------
 Center     Atomic      Atomic             Coordinates (Angstroms)
 Number     Number       Type             X           Y           Z
 ---------------------------------------------------------------------
      1          6           0        1.960352    0.041448    0.509417
      2          6           0        0.778730    0.155869   -0.433234
      3          7           0        0.909630    0.815943   -1.510461
      4          6           0       -0.536618   -0.523323   -0.035220
      5          6           0       -1.505960    0.491773    0.588450
      6          8           0       -1.077882   -1.082411   -1.228394
      7          1           0        2.323583    1.033469    0.786834
      8          1           0        1.722056   -0.508728    1.422104
      9          1           0        2.782510   -0.470713    0.004785
     10          1           0        0.044296    0.765887   -2.054270
     11          1           0       -0.332630   -1.307826    0.707277
     12          1           0       -1.076928    0.953733    1.482018
     13          1           0       -2.441014    0.002212    0.877895
     14          1           0       -1.736109    1.280483   -0.131538
     15          1           0       -1.814118   -1.647815   -0.985663
 ---------------------------------------------------------------------
                    Distance matrix (angstroms):
                    1          2          3          4          5
     1  C    0.000000
     2  C    1.515887   0.000000
     3  N    2.404946   1.270139   0.000000
     4  C    2.617337   1.532924   2.462032   0.000000
     5  C    3.496334   2.525169   3.216456   1.535906   0.000000
     6  O    3.676127   2.369098   2.762881   1.424504   2.441768
     7  H    1.092247   2.155300   2.706316   3.358589   3.872749
     8  H    1.092005   2.184910   3.318844   2.688050   3.480814
     9  H    1.092203   2.144668   2.731142   3.319786   4.433737
    10  H    3.281550   1.881296   1.023248   2.464972   3.076102
    11  H    2.667856   2.162935   3.312396   1.099253   2.151599
    12  H    3.317120   2.783567   3.594486   2.185324   1.093589
    13  H    4.416937   3.479860   4.194428   2.176394   1.094429
    14  H    3.950931   2.771316   3.019464   2.168357   1.092436
    15  H    4.397215   3.206449   3.710030   1.949316   2.674067
                    6          7          8          9         10
     6  O    0.000000
     7  H    4.484200   0.000000
[...]
    11  H   -0.000142   0.000261   0.001196   0.000323   0.555291  -0.000326
    12  H    0.000266  -0.002669   0.000123  -0.000135  -0.000326   0.476718
    13  H    0.000030   0.000327  -0.000079  -0.000195  -0.005271  -0.018531
    14  H   -0.000098   0.000166   0.000048   0.000386   0.005362  -0.018846
    15  H    0.000037   0.000045  -0.000033  -0.000568  -0.004462   0.000671
              13         14         15
     1  C   -0.001550   0.002469  -0.000607
     2  C    0.011159  -0.007081   0.006719
     3  N   -0.000791   0.001698   0.001349
     4  C   -0.023914  -0.033509  -0.016087
     5  C    0.401306   0.425139  -0.004748
     6  O   -0.009996   0.001553   0.294884
     7  H    0.000030  -0.000098   0.000037
     8  H    0.000327   0.000166   0.000045
     9  H   -0.000079   0.000048  -0.000033
    10  H   -0.000195   0.000386  -0.000568
    11  H   -0.005271   0.005362  -0.004462
    12  H   -0.018531  -0.018846   0.000671
    13  H    0.507498  -0.021339   0.003761
    14  H   -0.021339   0.455985  -0.001123
    15  H    0.003761  -0.001123   0.345954
 Mulliken charges:
               1
     1  C   -0.548022
     2  C    0.295764
     3  N   -0.635217
     4  C    0.110604
     5  C   -0.550914
     6  O   -0.602704
     7  H    0.211314
     8  H    0.174716
     9  H    0.174997
    10  H    0.311051
    11  H    0.158267
    12  H    0.179159
    13  H    0.157585
    14  H    0.189190
    15  H    0.374208
 Sum of Mulliken charges =  -0.00000
 Mulliken charges with hydrogens summed into heavy atoms:
               1
     1  C    0.013005
     2  C    0.295764
     3  N   -0.324166
     4  C    0.268871
     5  C   -0.024979
     6  O   -0.228496
 Electronic spatial extent (au):  <R**2>=            627.4506
 Charge=             -0.0000 electrons
 Dipole moment (field-independent basis, Debye):
    X=              2.4972    Y=              3.2250    Z=             -0.9005  Tot=              4.1770
 Quadrupole moment (field-independent basis, Debye-Ang):
   XX=            -35.6525   YY=            -40.9383   ZZ=            -38.6591
   XY=             -2.9712   XZ=              1.4925   YZ=              0.1383
 Traceless Quadrupole moment (field-independent basis, Debye-Ang):
   XX=              2.7641   YY=             -2.5216   ZZ=             -0.2425
   XY=             -2.9712   XZ=              1.4925   YZ=              0.1383
 Octapole moment (field-independent basis, Debye-Ang**2):
  XXX=             26.5245  YYY=             -0.4556  ZZZ=             -3.1178  XYY=              6.4395
  XXY=              5.1547  XXZ=             -5.2731  XZZ=              3.9583  YZZ=              0.8176
  YYZ=              0.6648  XYZ=             -3.1987
 Hexadecapole moment (field-independent basis, Debye-Ang**3):
 XXXX=           -392.8290 YYYY=           -280.6893 ZZZZ=            -94.9861 XXXY=            -23.6454
 XXXZ=             -6.1018 YYYX=            -16.0264 YYYZ=             -0.7448 ZZZX=              2.1995
 ZZZY=             -0.0203 XXYY=           -136.4689 XXZZ=            -94.6405 YYZZ=            -66.0019
 XXYZ=              4.4468 YYXZ=              3.3123 ZZXY=             -4.8560
 N-N= 2.465232324528D+02 E-N=-1.163121182962D+03  KE= 2.857654374572D+02
 No NMR shielding tensors so no spin-rotation constants.
 Leave Link  601 at Fri Aug 26 06:33:50 2022, MaxMem= 24159191040 cpu:        29.0
 (Enter /public/home/users/caep010/software/Gaussian09/g09/l9999.exe)
 1\1\GINC-B1158\SP\RHF\GFHFB2\C4H9N1O1\ROOT\26-Aug-2022\0\\#P Geom=AllC
 heck Guess=TCheck SCRF=Check HF/GFHFB2 SCF=Tight\\Frag_766\\0,1\C,0,1.
 8130011482,0.3042866107,0.5553231348\C,0,0.7894055136,0.1761722827,-0.
 5447382609\N,0,1.0227198942,0.6732907771,-1.6893999674\C,0,-0.49365562
 53,-0.5788198126,-0.1944597809\C,0,-1.3560375289,0.198727961,0.8091116
 55\O,0,-1.1954446167,-0.8133646504,-1.4046133259\H,0,2.7082046631,0.78
 63109193,0.1610455134\H,0,1.4322522445,0.9004131832,1.3925154288\H,0,2
 .0800973197,-0.6788913978,0.9606696621\H,0,0.2286799383,0.4786996184,-
 2.3065591191\H,0,-0.2006269925,-1.5388190401,0.264352547\H,0,-0.828472
 0739,0.3600490972,1.7528270506\H,0,-2.2715522101,-0.359020059,1.038649
 1101\H,0,-1.6355837153,1.1710205159,0.3923841535\H,0,-2.0930879588,-1.
 0800560056,-1.1871078007\\Version=ES64L-G09RevE.01\State=1-A\HF=-286.1
 369935\RMSD=1.759e-09\Dipole=-0.9523116,-0.5309305,1.2295686\Quadrupol
 e=2.0773335,-0.5110375,-1.5662961,-0.2289382,2.4615664,0.6165717\PG=C0
 1 [X(C4H9N1O1)]\\@


 ON A CLEAR DISK YOU CAN SEEK FOREVER.
 Diagonal vibrational polarizability:
        0.0000000       0.0000000       0.0000000

 Temperature=              298.150000 Pressure=                      1.000000
 E(ZPE)=                     0.127874 E(Thermal)=                    0.135506
 E(CCSD(T))=              -286.940944 E(Empiric)=                   -0.125046
 DE(Plus)=                  -0.023114 DE(2DF)=                      -0.252876
 E(Delta-G3XP)=             -0.382041 DE(HF)=                       -0.028769
 G4(0 K)=                 -287.624915 G4 Energy=                  -287.617283
 G4 Enthalpy=             -287.616339 G4 Free Energy=             -287.656340
 1\1\GINC-B1158\Mixed\G4\G4\C4H9N1O1\ROOT\26-Aug-2022\0\\#P Geom=AllChe
 ck Guess=TCheck SCRF=Check HF/GFHFB2 SCF=Tight\\Frag_766\\0,1\C,0,1.81
 30011482,0.3042866107,0.5553231348\C,0,0.7894055136,0.1761722827,-0.54
 47382609\N,0,1.0227198942,0.6732907771,-1.6893999674\C,0,-0.4936556253
 ,-0.5788198126,-0.1944597809\C,0,-1.3560375289,0.198727961,0.809111655
 \O,0,-1.1954446167,-0.8133646504,-1.4046133259\H,0,2.7082046631,0.7863
 109193,0.1610455134\H,0,1.4322522445,0.9004131832,1.3925154288\H,0,2.0
 800973197,-0.6788913978,0.9606696621\H,0,0.2286799383,0.4786996184,-2.
 3065591191\H,0,-0.2006269925,-1.5388190401,0.264352547\H,0,-0.82847207
 39,0.3600490972,1.7528270506\H,0,-2.2715522101,-0.359020059,1.03864911
 01\H,0,-1.6355837153,1.1710205159,0.3923841535\H,0,-2.0930879588,-1.08
 00560056,-1.1871078007\\Version=ES64L-G09RevE.01\State=1-A\MP2/GTBas1=
 -286.8584795\MP4/GTBas1=-286.9406311\CCSD(T)/G3Bas1=-286.9409438\MP2/G
 TBas2=-286.8803751\MP4/GTBas2=-286.9637452\MP2/GTBas3=-287.0969208\MP4
 /GTBas3=-287.1935068\HF/GTLargeXP=-286.1094035\MP2/GTLargeXP=-287.5008
 578\HF/GFHFB1=-286.1321571\HF/GFHFB2=-286.1369935\G4=-287.6249154\Freq
 Coord=3.4260756487,0.5750183601,1.0494086399,1.4917602285,0.3329173665
 ,-1.0294061273,1.9326605106,1.2723351765,-3.1925032673,-0.9328739357,-
 1.0938109261,-0.3674757298,-2.5625395554,0.3755414212,1.5289994388,-2.
 2590629327,-1.5370364354,-2.6543345086,5.117765125,1.4859122927,0.3043
 319153,2.7065644953,1.7015343226,2.6314727962,3.930814264,-1.282918815
 7,1.8154025655,0.4321424555,0.9046111786,-4.3587650444,-0.3791300708,-
 2.9079465538,0.4995539163,-1.5655853284,0.6803941881,3.3123630839,-4.2
 926115737,-0.6784495877,1.9627623662,-3.0908052893,2.212908071,0.74149
 85889,-3.9553630143,-2.0410100587,-2.2433086336\PG=C01 [X(C4H9N1O1)]\N
 Imag=0\\0.53278173,0.01925061,0.54361973,-0.05108798,-0.02126944,0.520
 20945,-0.15056608,-0.01482907,-0.05279243,0.45965916,-0.01552654,-0.08
 297646,-0.00896960,0.11850832,0.34009582,-0.06068859,-0.01072687,-0.13
 039518,0.00839710,-0.19647565,0.82284975,0.00823251,0.01346422,-0.0244
 8855,-0.11901773,-0.04502161,0.04539340,0.37913594,0.00590999,-0.00011
 662,0.00163219,-0.06055173,-0.14776004,0.17970898,0.12655674,0.1910662
 4,-0.00265155,0.01245578,-0.04504451,0.09409980,0.20221664,-0.52886552
 ,0.09125641,-0.17986934,0.74931296,-0.01429245,-0.01040079,-0.00090024
 ,-0.13793448,-0.03101587,0.01508562,0.00091238,-0.02048481,0.01164662,
 0.48747149,-0.00454350,0.00478027,-0.00002000,-0.03100056,-0.10452284,
 0.00800565,-0.02576202,0.01354137,0.02316598,-0.01337517,0.51811527,-0
 .01912167,-0.00927585,0.00855158,-0.00194391,0.00153610,-0.08201393,0.
 02839773,0.02875142,-0.01769157,0.02567798,-0.04888008,0.48241304,-0.0
 0010809,-0.00140280,-0.00103915,-0.01826088,0.01296554,0.02267582,-0.0
 0036769,-0.00456214,-0.00229558,-0.11704632,0.03955910,0.04393164,0.53
 000876,0.00001122,-0.00085220,-0.00042644,-0.00344086,0.01322723,0.011
 37879,-0.00219255,-0.00670762,0.00143346,0.02710912,-0.10350680,-0.027
 51719,0.03166998,0.53858068,0.00055468,0.00096464,0.00028248,0.0148120
 6,0.00131558,-0.00790510,-0.00110248,-0.00061574,0.00213701,0.02612750
 ,-0.03037352,-0.10435211,0.04851664,-0.03998739,0.52929032,-0.00468519
 ,-0.00353357,0.00433417,-0.03153797,-0.01339984,-0.03408469,-0.0022393
 7,-0.00002137,-0.00361394,-0.11646037,-0.01695579,-0.07494378,0.006635
 45,-0.00066161,0.01063543,0.60539360,-0.00172045,-0.00111362,0.0016923
 3,-0.01653174,-0.00296241,-0.01542615,-0.00071238,0.00085830,-0.002069
 27,-0.01100198,-0.06826934,-0.01541323,-0.01222232,-0.00181343,-0.0225
 1950,0.16619107,0.09828125,0.00054563,0.00051488,0.00056175,-0.0036294
 5,-0.00218587,-0.00094374,0.00134929,0.00064735,0.00149372,-0.02875950
 ,-0.00599122,-0.18883852,-0.02296733,-0.01116396,-0.04098704,-0.019744
 20,-0.00349149,0.32581400,-0.23031996,-0.09841979,0.08158676,-0.022009
 37,-0.01186803,0.00920028,0.00289739,0.00103032,0.00255817,-0.00015035
 ,0.00093143,-0.00370103,0.00032083,-0.00009174,0.00000943,-0.00148471,
 -0.00067550,0.00000012,0.24983901,-0.09963371,-0.10086287,0.04459491,-
 0.00300804,-0.00215923,0.00056876,0.00137511,-0.00056914,0.00052151,-0
 .00054657,0.00062362,-0.00027867,0.00006793,0.00002740,-0.00026746,-0.
 00033479,0.00024223,-0.00001172,0.10939273,0.10501036,0.08643207,0.046
 57479,-0.08334169,-0.02336459,-0.01251513,0.00935521,0.00138715,-0.000
 52162,0.00153321,-0.00104740,0.00103138,-0.00395742,0.00012656,-0.0000
 5370,-0.00041790,-0.00180007,-0.00065923,0.00011890,-0.08878081,-0.048
 44055,0.08889881,-0.07925981,0.04797279,0.06875134,0.01170012,-0.01394
 576,-0.01615995,-0.00137825,-0.00073143,-0.00229964,-0.00021212,0.0004
 3271,0.00081996,-0.00133846,-0.00043246,-0.00018189,0.00020618,0.00031
 779,0.00033233,-0.00828165,0.01611917,0.01840023,0.08431717,0.04873037
 ,-0.12084703,-0.10956047,0.00072280,-0.00102195,0.00038294,-0.00006618
 ,0.00012225,0.00065815,-0.00024646,-0.00023665,-0.00032309,0.00001781,
 0.00020561,-0.00092546,-0.00021489,0.00009601,0.00020439,-0.00446488,0
 .00857763,0.01163294,-0.05558526,0.12996654,0.07087302,-0.11033964,-0.
 19319653,0.01014713,-0.01096796,-0.01996868,-0.00291209,-0.00218416,-0
 .00217801,0.00007434,0.00035744,-0.00048964,0.00038122,0.00001020,-0.0
 0042283,-0.00030640,0.00002982,0.00035858,0.00303698,-0.00644251,-0.00
 811658,-0.07608605,0.12013056,0.21328801,-0.06358535,0.05491385,-0.023
 42938,-0.00359871,0.02195372,-0.00581475,-0.00240345,-0.00010611,-0.00
 185918,0.00001872,0.00028798,-0.00047785,-0.00002927,-0.00020390,-0.00
 008561,0.00047263,-0.00036205,0.00043126,0.00846183,-0.02391192,0.0084
 6549,-0.00351826,0.01085639,-0.00411985,0.06367255,0.05424875,-0.25489
 592,0.08532515,-0.00143935,0.00439949,-0.00001343,0.00057188,0.0003252
 2,-0.00060974,-0.00017729,-0.00073531,0.00069076,0.00026800,0.00017192
 ,-0.00008134,0.00009990,0.00022712,-0.00038495,0.00424091,-0.01124932,
 0.00307201,0.00386535,-0.01673919,0.00668102,-0.06153482,0.27819536,-0
 .02335847,0.08650825,-0.07601714,-0.00402058,0.02362226,-0.01068438,-0
 .00435421,0.00045682,-0.00230689,0.00068598,0.00021001,-0.00022229,0.0
 0015268,-0.00002288,0.00009616,0.00020825,-0.00034387,0.00022921,-0.00
 377256,0.00960916,-0.00448483,0.00620622,-0.02306869,0.00941227,0.0277
 9789,-0.09401837,0.08508188,0.00324334,-0.00647846,-0.00196742,0.00207
 785,-0.00294785,0.00788219,-0.26017784,-0.04737690,-0.18966146,-0.0019
 9721,0.00321480,0.00464489,-0.00138893,-0.00097088,-0.00030418,-0.0017
 5407,-0.00234813,0.00256969,0.00070783,0.00022097,0.00038526,-0.000712
 35,0.00044841,-0.00138206,0.00103338,0.00010924,0.00085944,0.25904669,
 -0.00681358,0.01284394,0.00614444,0.01121143,0.00270396,0.01674703,-0.
 06483528,-0.05405494,-0.05584055,0.00515937,-0.00879710,-0.00046900,0.
 00125012,0.00166573,-0.00081831,-0.00079718,-0.00264089,0.00183819,0.0
 0008980,-0.00021086,0.00002813,0.00226245,-0.00030369,0.00252574,-0.00
 112848,-0.00024868,-0.00220629,0.05460342,0.04980919,0.00087880,0.0069
 9929,-0.00192551,-0.03710127,-0.00442125,-0.03852268,-0.13934768,-0.03
 057799,-0.15941019,-0.00115125,-0.00376619,-0.00242592,0.00045417,0.00
 025458,-0.00024521,-0.00071204,-0.00070295,0.00078242,0.00025379,-0.00
 002366,0.00029512,0.00002974,-0.00004856,0.00004430,-0.00110954,-0.000
 29525,-0.00168724,0.17829304,0.03385829,0.20146225,0.00021809,0.000792
 38,0.00007606,0.00808054,-0.02510243,0.01119117,-0.00619513,0.00177015
 ,0.00298203,-0.06238179,0.04482159,-0.01906817,-0.00444022,0.02077249,
 -0.00455737,-0.00852579,0.01187431,-0.02039762,0.00023194,0.00027082,0
 .00011432,-0.00002938,-0.00004971,0.00001491,-0.00071147,-0.00023891,-
 0.00036582,0.00054801,-0.00168656,-0.00068490,0.07331365,0.00047736,0.
 00016196,0.00034892,0.00475625,-0.01564549,0.00878190,-0.00383518,0.00
 077306,0.00026801,0.04876957,-0.23584781,0.07938840,0.00477724,-0.0167
 6773,0.00561938,-0.00104861,0.01309891,-0.00200069,-0.00015113,0.00048
 836,-0.00005272,0.00002096,0.00001892,-0.00001256,-0.00084611,0.000565
 28,-0.00062075,0.00050793,-0.00064678,-0.00061667,-0.05570636,0.252482
 94,-0.00038324,-0.00047590,-0.00016163,0.00001773,0.01130339,-0.003781
 06,0.00202580,-0.00076341,0.00047279,-0.02123496,0.07904709,-0.0771370
 4,0.00734387,-0.02042298,0.00813206,-0.01900807,0.02063901,-0.02867190
 ,0.00015153,-0.00029832,-0.00011022,-0.00005295,-0.00016228,0.00007108
 ,0.00006316,-0.00037993,0.00052516,-0.00129636,0.00005650,0.00044614,0
 .02946547,-0.08831485,0.10160840,-0.00114627,-0.00002228,0.00054668,0.
 00053826,-0.00059922,-0.00049831,-0.00008349,0.00027340,-0.00001636,0.
 01070730,0.00028974,0.01405352,-0.11057004,-0.01761096,-0.11391630,-0.
 00047745,0.00260264,0.00552963,-0.00005602,0.00000067,-0.00005519,-0.0
 0124401,-0.00036260,0.00030685,0.00002953,-0.00001566,-0.00007594,0.00
 012470,0.00002897,-0.00003427,0.00059142,-0.00020811,-0.00078893,0.119
 25556,-0.00021003,0.00001627,0.00009202,-0.00011903,0.00027151,0.00028
 129,0.00007320,0.00005133,-0.00006924,-0.01117608,-0.00232165,-0.01177
 474,-0.01710345,-0.05220851,-0.03329070,0.00162522,-0.00107429,-0.0048
 5090,0.00001734,-0.00001895,0.00007667,-0.00054479,0.00022061,0.000092
 13,0.00015985,-0.00013413,-0.00006998,-0.00008893,-0.00013180,0.000045
 88,-0.00017790,-0.00000509,0.00084849,0.02045895,0.05235844,-0.0003618
 6,-0.00071938,-0.00036269,-0.00127612,-0.00022237,-0.00057499,0.000537
 33,0.00003537,0.00027571,-0.01278852,0.00101144,-0.01558408,-0.1111304
 9,-0.03377713,-0.24383510,0.00242064,-0.00430116,-0.00446053,-0.000125
 95,0.00032621,0.00038636,0.00009968,0.00063408,0.00090579,0.00003511,0
 .00003975,0.00002434,-0.00022333,-0.00019144,0.00021720,0.00028889,-0.
 00036295,0.00092342,0.12314112,0.03794711,0.26501972,0.00009622,-0.000
 47765,-0.00011235,0.00083583,0.00403112,0.00210483,-0.00063869,-0.0016
 4554,0.00039501,-0.01900061,-0.01034602,0.00296318,-0.22394907,-0.1113
 9729,0.04279012,0.00249811,0.00038351,-0.00136084,-0.00003924,0.000048
 79,0.00003673,-0.00007715,0.00016865,0.00013469,-0.00004191,0.00004281
 ,0.00000842,-0.00023222,0.00037902,0.00002161,0.00066812,0.00017701,-0
 .00056529,-0.01298835,-0.00800783,0.00357005,0.24481456,0.00005626,0.0
 0014285,0.00002542,-0.00015343,-0.00249596,-0.00269887,0.00071534,0.00
 196560,-0.00060499,0.01734112,0.00818634,-0.00584255,-0.11219380,-0.11
 762150,0.02753884,0.00104737,0.00077785,0.00273150,-0.00000407,0.00004
 125,0.00004686,0.00020350,0.00003382,0.00018977,-0.00001529,0.00002651
 ,0.00003120,0.00032048,-0.00033429,0.00005147,-0.00061247,0.00133201,0
 .00084997,-0.00322653,-0.00313151,0.00127962,0.12173290,0.12450783,-0.
 00023373,-0.00013571,-0.00016502,0.00000558,-0.00389821,-0.00287583,0.
 00073363,0.00169246,-0.00003809,0.02031202,0.01022915,-0.00717140,0.04
 259360,0.02860788,-0.05584757,-0.00005778,0.00080135,0.00278906,-0.000
 02339,0.00020441,0.00017340,0.00013218,0.00032591,0.00038199,0.0000074
 3,0.00000882,0.00001458,0.00043741,-0.00033969,-0.00002835,-0.00128851
 ,0.00003979,0.00069027,-0.02338251,-0.01494645,0.00646612,-0.04959311,
 -0.02801954,0.05983593,-0.00029845,-0.00013799,0.00008318,0.00139296,0
 .00156840,-0.00192085,0.00018808,-0.00072902,0.00050010,-0.00800909,0.
 01860892,-0.00858168,-0.06355166,0.05674340,-0.02519556,0.00118325,-0.
 00202862,-0.00036875,-0.00007456,-0.00003052,-0.00000216,-0.00007179,0
 .00008966,-0.00008259,0.00019481,-0.00010220,0.00001906,0.00003830,0.0
 0014978,0.00009701,-0.00161260,0.00215723,0.00328118,-0.00421714,0.014
 17046,-0.00509060,0.00759683,-0.02427500,0.01081515,0.06712280,0.00022
 490,-0.00000644,-0.00005015,-0.00177601,0.00009193,0.00080328,0.000499
 38,0.00049403,-0.00082549,0.00667469,-0.01607867,0.00675676,0.05697284
 ,-0.25521760,0.09213194,-0.00177603,0.00244086,0.00015065,0.00003646,0
 .00000649,0.00001198,0.00006208,-0.00002936,0.00001068,-0.00005355,0.0
 0004472,-0.00003298,0.00008676,0.00003570,-0.00001063,0.00212026,-0.00
 044712,-0.00271786,-0.00192541,0.00591106,-0.00242862,0.00464263,-0.01
 375653,0.00601169,-0.06585451,0.27728520,-0.00009146,-0.00019054,-0.00
 001597,-0.00104075,-0.00068906,0.00165806,-0.00031769,0.00022524,-0.00
 029075,0.00699919,-0.02074463,0.00763208,-0.02682426,0.09312845,-0.087
 89091,-0.00041548,0.00194521,0.00245353,-0.00000709,0.00002214,0.00007
 605,-0.00006151,0.00018370,-0.00007099,0.00002245,-0.00002985,-0.00009
 333,0.00004663,0.00002907,-0.00010599,0.00278457,-0.00280646,-0.002544
 27,-0.00523926,0.02499642,-0.00950570,-0.00176886,0.00403623,-0.002936
 31,0.02614175,-0.09990549,0.09166683,-0.00031025,-0.00069147,0.0004393
 1,-0.00135951,0.00040005,-0.00276327,0.00113534,0.00066846,-0.00104043
 ,-0.02162509,-0.00616321,0.00734918,0.00408558,0.00069605,0.00189753,-
 0.44922429,-0.13376616,0.08646974,-0.00004298,-0.00003065,-0.00029760,
 -0.00010024,-0.00004412,-0.00008010,0.00000497,0.00006139,0.00000964,-
 0.00055748,0.00012671,0.00011278,0.00024463,0.00015192,0.00098105,-0.0
 0046400,0.00092301,0.00090405,0.00045756,-0.00093639,-0.00045797,0.000
 11826,0.00006550,-0.00022824,0.46763750,-0.00046164,0.00010615,0.00044
 071,-0.00234898,-0.00124557,-0.00131766,-0.00083067,0.00001098,-0.0008
 3092,-0.00662885,-0.00493070,0.00265098,-0.00006408,0.00081683,0.00130
 904,-0.13021988,-0.03814856,0.02399385,-0.00006386,0.00005302,-0.00023
 180,-0.00001711,-0.00006353,-0.00008054,-0.00000957,0.00004695,-0.0000
 5390,0.00069911,0.00031050,-0.00074636,0.00115233,0.00043857,0.0007910
 8,0.00031640,0.00019669,0.00072948,0.00026787,0.00032574,-0.00058185,-
 0.00032998,-0.00077427,-0.00020042,0.13853891,0.04285720,-0.00130566,-
 0.00088430,0.00102059,-0.00231031,0.00035113,-0.00733194,0.00144197,0.
 00138242,0.00060013,-0.04072737,-0.01328250,0.00128721,-0.00191941,-0.
 00144168,0.00196575,0.13708795,0.03981913,-0.07069944,-0.00038624,-0.0
 0008420,-0.00040842,0.00007031,-0.00006411,-0.00001877,0.00007337,-0.0
 0000466,0.00011249,-0.00028373,-0.00136211,0.00110368,-0.00055503,0.00
 034126,-0.00046320,0.00042928,0.00062199,0.00010443,0.00137581,0.00038
 505,-0.00128879,0.00030475,0.00009426,-0.00003233,-0.09329567,-0.02587
 168,0.07404862\\0.00000099,0.00001410,-0.00000249,-0.00001175,-0.00000
 510,-0.00000266,0.00000160,-0.00000437,-0.00000020,0.00001392,0.000003
 32,0.00001619,-0.00000409,0.00000220,-0.00000168,-0.00000364,-0.000004
 36,-0.00001150,0.,-0.00000439,-0.00000125,0.00000001,-0.00000030,-0.00
 000013,-0.00000034,0.00000018,0.00000580,0.00000376,-0.00000925,-0.000
 00018,-0.00000037,0.00000039,0.00000296,-0.00000107,0.00000538,-0.0000
 0312,-0.00000011,0.00000437,-0.00000083,0.00000027,0.00000215,-0.00000
 542,0.00000082,-0.00000431,0.00000451\\\@
 Job cpu time:       0 days  4 hours  6 minutes  8.1 seconds.
 File lengths (MBytes):  RWF=   5691 Int=      0 D2E=      0 Chk=     39 Scr=      1
 Normal termination of Gaussian 09 at Fri Aug 26 06:33:50 2022.
