 Entering Gaussian System, Link 0=g09
 Input=G4.Frag_719.gjf
 Output=G4.Frag_719.log
 Initial command:
 /public/home/users/caep010/software/Gaussian09/g09/l1.exe "/public/home/users/caep010/.cache/gau_scr/Gau-169193.inp" -scrdir="/public/home/users/caep010/.cache/gau_scr/"
 Entering Link 1 = /public/home/users/caep010/software/Gaussian09/g09/l1.exe PID=    169194.
  
 Copyright (c) 1988,1990,1992,1993,1995,1998,2003,2009,2015,
            Gaussian, Inc.  All Rights Reserved.
  
 This is part of the Gaussian(R) 09 program.  It is based on
 the Gaussian(R) 03 system (copyright 2003, Gaussian, Inc.),
 the Gaussian(R) 98 system (copyright 1998, Gaussian, Inc.),
 the Gaussian(R) 94 system (copyright 1995, Gaussian, Inc.),
 the Gaussian 92(TM) system (copyright 1992, Gaussian, Inc.),
 the Gaussian 90(TM) system (copyright 1990, Gaussian, Inc.),
 the Gaussian 88(TM) system (copyright 1988, Gaussian, Inc.),
 the Gaussian 86(TM) system (copyright 1986, Carnegie Mellon
 University), and the Gaussian 82(TM) system (copyright 1983,
 Carnegie Mellon University). Gaussian is a federally registered
 trademark of Gaussian, Inc.
  
 This software contains proprietary and confidential information,
 including trade secrets, belonging to Gaussian, Inc.
  
 This software is provided under written license and may be
 used, copied, transmitted, or stored only in accord with that
 written license.
  
 The following legend is applicable only to US Government
 contracts under FAR:
  
                    RESTRICTED RIGHTS LEGEND
  
 Use, reproduction and disclosure by the US Government is
 subject to restrictions as set forth in subparagraphs (a)
 and (c) of the Commercial Computer Software - Restricted
 Rights clause in FAR 52.227-19.
  
 Gaussian, Inc.
 340 Quinnipiac St., Bldg. 40, Wallingford CT 06492
  
  
 ---------------------------------------------------------------
 Warning -- This program may not be used in any manner that
 competes with the business of Gaussian, Inc. or will provide
 assistance to any competitor of Gaussian, Inc.  The licensee
 of this program is prohibited from giving any competitor of
 Gaussian, Inc. access to this program.  By using this program,
 the user acknowledges that Gaussian, Inc. is engaged in the
 business of creating and licensing software in the field of
 computational chemistry and represents and warrants to the
 licensee that it is not a competitor of Gaussian, Inc. and that
 it will not use this program in any manner prohibited above.
 ---------------------------------------------------------------
  

 Cite this work as:
 Gaussian 09, Revision E.01,
 M. J. Frisch, G. W. Trucks, H. B. Schlegel, G. E. Scuseria, 
 M. A. Robb, J. R. Cheeseman, G. Scalmani, V. Barone, B. Mennucci, 
 G. A. Petersson, H. Nakatsuji, M. Caricato, X. Li, H. P. Hratchian, 
 A. F. Izmaylov, J. Bloino, G. Zheng, J. L. Sonnenberg, M. Hada, 
 M. Ehara, K. Toyota, R. Fukuda, J. Hasegawa, M. Ishida, T. Nakajima, 
 Y. Honda, O. Kitao, H. Nakai, T. Vreven, J. A. Montgomery, Jr., 
 J. E. Peralta, F. Ogliaro, M. Bearpark, J. J. Heyd, E. Brothers, 
 K. N. Kudin, V. N. Staroverov, T. Keith, R. Kobayashi, J. Normand, 
 K. Raghavachari, A. Rendell, J. C. Burant, S. S. Iyengar, J. Tomasi, 
 M. Cossi, N. Rega, J. M. Millam, M. Klene, J. E. Knox, J. B. Cross, 
 V. Bakken, C. Adamo, J. Jaramillo, R. Gomperts, R. E. Stratmann, 
 O. Yazyev, A. J. Austin, R. Cammi, C. Pomelli, J. W. Ochterski, 
 R. L. Martin, K. Morokuma, V. G. Zakrzewski, G. A. Voth, 
 P. Salvador, J. J. Dannenberg, S. Dapprich, A. D. Daniels, 
 O. Farkas, J. B. Foresman, J. V. Ortiz, J. Cioslowski, 
 and D. J. Fox, Gaussian, Inc., Wallingford CT, 2013.
 
 ******************************************
 Gaussian 09:  ES64L-G09RevE.01 30-Nov-2015
                19-Aug-2022 
 ******************************************
 %nproc=32
 Will use up to   32 processors via shared memory.
 %mem=180MB
 %chk=G4.Frag_719.chk
 -----
 #P G4
 -----
 1/14=-1,18=20,19=15,26=3,38=1/1,3;
 2/9=110,12=2,17=6,18=5,40=1/2;
 3/5=35,7=104,11=2,16=1,25=1,30=1,71=1,74=-5/1,2,3;
 4//1;
 5/5=2,38=5/2;
 6/7=2,8=2,9=2,10=2,28=1/1;
 7//1,2,3,16;
 1/14=-1,18=20,19=15,26=3/3(2);
 2/9=110/2;
 99//99;
 2/9=110/2;
 3/5=35,7=104,11=2,16=1,25=1,30=1,71=1,74=-5/1,2,3;
 4/5=5,16=3,69=1/1;
 5/5=2,38=5/2;
 7//1,2,3,16;
 1/14=-1,18=20,19=15,26=3/3(-5);
 2/9=110/2;
 6/7=2,8=2,9=2,10=2,19=2,28=1/1;
 99/9=1/99;
 Leave Link    1 at Fri Aug 19 13:29:10 2022, MaxMem=    23592960 cpu:         3.6
 (Enter /public/home/users/caep010/software/Gaussian09/g09/l101.exe)
 --------
 Frag_719
 --------
 Symbolic Z-matrix:
 Charge =  0 Multiplicity = 1
 C                     2.0935   -0.045    -0.6183 
 C                     0.9981   -0.2097    0.4003 
 O                     1.2893   -0.6894    1.4865 
 C                    -0.4465    0.1802    0.1303 
 C                    -1.2782   -1.1037   -0.0321 
 N                    -0.9491    0.9563    1.2713 
 O                    -0.5298    0.953    -1.0456 
 H                     2.8309    0.6983   -0.2496 
 H                     2.6078   -1.0179   -0.7655 
 H                     1.712     0.2898   -1.6036 
 H                    -0.8938   -1.7053   -0.8838 
 H                    -2.3426   -0.8558   -0.2318 
 H                    -1.232    -1.7193    0.8922 
 H                    -1.954     1.2001    1.1113 
 H                    -0.4252    1.8612    1.3164 
 H                    -1.4805    1.2075   -1.1781 
 
 NAtoms=     16 NQM=       16 NQMF=       0 NMMI=      0 NMMIF=      0
                NMic=       0 NMicF=      0.
                    Isotopes and Nuclear Properties:
 (Nuclear quadrupole moments (NQMom) in fm**2, nuclear magnetic moments (NMagM)
  in nuclear magnetons)

  Atom         1           2           3           4           5           6           7           8           9          10
 IAtWgt=          12          12          16          12          12          14          16           1           1           1
 AtmWgt=  12.0000000  12.0000000  15.9949146  12.0000000  12.0000000  14.0030740  15.9949146   1.0078250   1.0078250   1.0078250
 NucSpn=           0           0           0           0           0           2           0           1           1           1
 AtZEff=   0.0000000   0.0000000   0.0000000   0.0000000   0.0000000   0.0000000   0.0000000   0.0000000   0.0000000   0.0000000
 NQMom=    0.0000000   0.0000000   0.0000000   0.0000000   0.0000000   2.0440000   0.0000000   0.0000000   0.0000000   0.0000000
 NMagM=    0.0000000   0.0000000   0.0000000   0.0000000   0.0000000   0.4037610   0.0000000   2.7928460   2.7928460   2.7928460
 AtZNuc=   6.0000000   6.0000000   8.0000000   6.0000000   6.0000000   7.0000000   8.0000000   1.0000000   1.0000000   1.0000000

  Atom        11          12          13          14          15          16
 IAtWgt=           1           1           1           1           1           1
 AtmWgt=   1.0078250   1.0078250   1.0078250   1.0078250   1.0078250   1.0078250
 NucSpn=           1           1           1           1           1           1
 AtZEff=   0.0000000   0.0000000   0.0000000   0.0000000   0.0000000   0.0000000
 NQMom=    0.0000000   0.0000000   0.0000000   0.0000000   0.0000000   0.0000000
 NMagM=    2.7928460   2.7928460   2.7928460   2.7928460   2.7928460   2.7928460
 AtZNuc=   1.0000000   1.0000000   1.0000000   1.0000000   1.0000000   1.0000000
 Leave Link  101 at Fri Aug 19 13:29:11 2022, MaxMem=    23592960 cpu:         2.8
 (Enter /public/home/users/caep010/software/Gaussian09/g09/l103.exe)

 GradGradGradGradGradGradGradGradGradGradGradGradGradGradGradGradGradGrad
 Berny optimization.
 Initialization pass.
                           ----------------------------
                           !    Initial Parameters    !
                           ! (Angstroms and Degrees)  !
 --------------------------                            --------------------------
 ! Name  Definition              Value          Derivative Info.                !
 --------------------------------------------------------------------------------
 ! R1    R(1,2)                  1.5048         estimate D2E/DX2                !
 ! R2    R(1,8)                  1.11           estimate D2E/DX2                !
 ! R3    R(1,9)                  1.1103         estimate D2E/DX2                !
 ! R4    R(1,10)                 1.1084         estimate D2E/DX2                !
 ! R5    R(2,3)                  1.2226         estimate D2E/DX2                !
 ! R6    R(2,4)                  1.5205         estimate D2E/DX2                !
 ! R7    R(4,5)                  1.5383         estimate D2E/DX2                !
 ! R8    R(4,6)                  1.4686         estimate D2E/DX2                !
 ! R9    R(4,7)                  1.4096         estimate D2E/DX2                !
 ! R10   R(5,11)                 1.1113         estimate D2E/DX2                !
 ! R11   R(5,12)                 1.111          estimate D2E/DX2                !
 ! R12   R(5,13)                 1.1115         estimate D2E/DX2                !
 ! R13   R(6,14)                 1.0464         estimate D2E/DX2                !
 ! R14   R(6,15)                 1.0466         estimate D2E/DX2                !
 ! R15   R(7,16)                 0.9931         estimate D2E/DX2                !
 ! A1    A(2,1,8)              109.3911         estimate D2E/DX2                !
 ! A2    A(2,1,9)              109.3307         estimate D2E/DX2                !
 ! A3    A(2,1,10)             112.5964         estimate D2E/DX2                !
 ! A4    A(8,1,9)              108.8495         estimate D2E/DX2                !
 ! A5    A(8,1,10)             108.7632         estimate D2E/DX2                !
 ! A6    A(9,1,10)             107.835          estimate D2E/DX2                !
 ! A7    A(1,2,3)              118.0947         estimate D2E/DX2                !
 ! A8    A(1,2,4)              122.9107         estimate D2E/DX2                !
 ! A9    A(3,2,4)              118.9916         estimate D2E/DX2                !
 ! A10   A(2,4,5)              108.5661         estimate D2E/DX2                !
 ! A11   A(2,4,6)              108.8266         estimate D2E/DX2                !
 ! A12   A(2,4,7)              110.1744         estimate D2E/DX2                !
 ! A13   A(5,4,6)              109.7578         estimate D2E/DX2                !
 ! A14   A(5,4,7)              109.7278         estimate D2E/DX2                !
 ! A15   A(6,4,7)              109.7658         estimate D2E/DX2                !
 ! A16   A(4,5,11)             110.2241         estimate D2E/DX2                !
 ! A17   A(4,5,12)             110.5317         estimate D2E/DX2                !
 ! A18   A(4,5,13)             110.6085         estimate D2E/DX2                !
 ! A19   A(11,5,12)            108.3258         estimate D2E/DX2                !
 ! A20   A(11,5,13)            108.8511         estimate D2E/DX2                !
 ! A21   A(12,5,13)            108.2331         estimate D2E/DX2                !
 ! A22   A(4,6,14)             109.4509         estimate D2E/DX2                !
 ! A23   A(4,6,15)             108.6074         estimate D2E/DX2                !
 ! A24   A(14,6,15)            106.6114         estimate D2E/DX2                !
 ! A25   A(4,7,16)             107.9622         estimate D2E/DX2                !
 ! D1    D(8,1,2,3)            -65.3588         estimate D2E/DX2                !
 ! D2    D(8,1,2,4)            115.2687         estimate D2E/DX2                !
 ! D3    D(9,1,2,3)             53.7486         estimate D2E/DX2                !
 ! D4    D(9,1,2,4)           -125.6238         estimate D2E/DX2                !
 ! D5    D(10,1,2,3)           173.5873         estimate D2E/DX2                !
 ! D6    D(10,1,2,4)            -5.7852         estimate D2E/DX2                !
 ! D7    D(1,2,4,5)            107.5849         estimate D2E/DX2                !
 ! D8    D(1,2,4,6)           -132.9905         estimate D2E/DX2                !
 ! D9    D(1,2,4,7)            -12.5983         estimate D2E/DX2                !
 ! D10   D(3,2,4,5)            -71.7821         estimate D2E/DX2                !
 ! D11   D(3,2,4,6)             47.6424         estimate D2E/DX2                !
 ! D12   D(3,2,4,7)            168.0346         estimate D2E/DX2                !
 ! D13   D(2,4,5,11)           -60.2475         estimate D2E/DX2                !
 ! D14   D(2,4,5,12)          -179.9687         estimate D2E/DX2                !
 ! D15   D(2,4,5,13)            60.178          estimate D2E/DX2                !
 ! D16   D(6,4,5,11)          -179.0872         estimate D2E/DX2                !
 ! D17   D(6,4,5,12)            61.1917         estimate D2E/DX2                !
 ! D18   D(6,4,5,13)           -58.6617         estimate D2E/DX2                !
 ! D19   D(7,4,5,11)            60.2129         estimate D2E/DX2                !
 ! D20   D(7,4,5,12)           -59.5082         estimate D2E/DX2                !
 ! D21   D(7,4,5,13)          -179.3616         estimate D2E/DX2                !
 ! D22   D(2,4,6,14)          -177.9481         estimate D2E/DX2                !
 ! D23   D(2,4,6,15)            66.0242         estimate D2E/DX2                !
 ! D24   D(5,4,6,14)           -59.269          estimate D2E/DX2                !
 ! D25   D(5,4,6,15)          -175.2968         estimate D2E/DX2                !
 ! D26   D(7,4,6,14)            61.4079         estimate D2E/DX2                !
 ! D27   D(7,4,6,15)           -54.6199         estimate D2E/DX2                !
 ! D28   D(2,4,7,16)          -178.629          estimate D2E/DX2                !
 ! D29   D(5,4,7,16)            61.8911         estimate D2E/DX2                !
 ! D30   D(6,4,7,16)           -58.8039         estimate D2E/DX2                !
 --------------------------------------------------------------------------------
 Trust Radius=3.00D-01 FncErr=1.00D-07 GrdErr=1.00D-06
 Number of steps in this run=     80 maximum allowed number of steps=    100.
 GradGradGradGradGradGradGradGradGradGradGradGradGradGradGradGradGradGrad

 Leave Link  103 at Fri Aug 19 13:29:11 2022, MaxMem=    23592960 cpu:         0.5
 (Enter /public/home/users/caep010/software/Gaussian09/g09/l202.exe)
                          Input orientation:                          
 ---------------------------------------------------------------------
 Center     Atomic      Atomic             Coordinates (Angstroms)
 Number     Number       Type             X           Y           Z
 ---------------------------------------------------------------------
      1          6           0        2.093500   -0.045000   -0.618300
      2          6           0        0.998100   -0.209700    0.400300
      3          8           0        1.289300   -0.689400    1.486500
      4          6           0       -0.446500    0.180200    0.130300
      5          6           0       -1.278200   -1.103700   -0.032100
      6          7           0       -0.949100    0.956300    1.271300
      7          8           0       -0.529800    0.953000   -1.045600
      8          1           0        2.830900    0.698300   -0.249600
      9          1           0        2.607800   -1.017900   -0.765500
     10          1           0        1.712000    0.289800   -1.603600
     11          1           0       -0.893800   -1.705300   -0.883800
     12          1           0       -2.342600   -0.855800   -0.231800
     13          1           0       -1.232000   -1.719300    0.892200
     14          1           0       -1.954000    1.200100    1.111300
     15          1           0       -0.425200    1.861200    1.316400
     16          1           0       -1.480500    1.207500   -1.178100
 ---------------------------------------------------------------------
                    Distance matrix (angstroms):
                    1          2          3          4          5
     1  C    0.000000
     2  C    1.504850   0.000000
     3  O    2.343538   1.222596   0.000000
     4  C    2.657577   1.520458   2.368224   0.000000
     5  C    3.582295   2.483495   3.011619   1.538343   0.000000
     6  N    3.718952   2.431005   2.786588   1.468611   2.459829
     7  O    2.839065   2.403534   3.523937   1.409574   2.411908
     8  H    1.110042   2.146157   2.704863   3.339776   4.492128
     9  H    1.110273   2.145556   2.630182   3.400978   3.955532
    10  H    1.108354   2.185124   3.268979   2.770838   3.654142
    11  H    3.427980   2.732218   3.378802   2.187141   1.111341
    12  H    4.526120   3.460820   4.021311   2.190801   1.110982
    13  H    4.017940   2.737554   2.787623   2.192168   1.111498
    14  H    4.574281   3.347828   3.772265   2.067635   2.659241
    15  H    3.704121   2.674631   3.077987   2.057437   3.367001
    16  H    3.828264   3.262401   4.286037   1.958676   2.587641
                    6          7          8          9         10
     6  N    0.000000
     7  O    2.354538   0.000000
     8  H    4.082659   3.463061   0.000000
     9  H    4.549457   3.715836   1.805898   0.000000
    10  H    3.973755   2.403511   1.803365   1.793028   0.000000
    11  H    3.425147   2.687980   4.478046   3.570394   3.359870
    12  H    2.735847   2.687056   5.401911   4.981724   4.431029
    13  H    2.717091   3.374810   4.863708   4.240754   4.351165
    14  H    1.046357   2.596463   4.999912   5.408505   4.651761
    15  H    1.046589   2.532748   3.795640   4.671468   3.945038
    16  H    2.518938   0.993054   4.439546   4.672991   3.348922
                   11         12         13         14         15
    11  H    0.000000
    12  H    1.801604   0.000000
    13  H    1.807969   1.800678   0.000000
    14  H    3.680462   2.486293   3.015325   0.000000
    15  H    4.216680   3.668165   3.694706   1.678198   0.000000
    16  H    2.985839   2.428149   3.593613   2.337864   2.786308
                   16
    16  H    0.000000
 Stoichiometry    C4H9NO2
 Framework group  C1[X(C4H9NO2)]
 Deg. of freedom    42
 Full point group                 C1      NOp   1
 Largest Abelian subgroup         C1      NOp   1
 Largest concise Abelian subgroup C1      NOp   1
                         Standard orientation:                         
 ---------------------------------------------------------------------
 Center     Atomic      Atomic             Coordinates (Angstroms)
 Number     Number       Type             X           Y           Z
 ---------------------------------------------------------------------
      1          6           0       -1.966593    0.829876    0.032695
      2          6           0       -0.909513   -0.239840   -0.020815
      3          8           0       -1.272527   -1.406770   -0.055976
      4          6           0        0.579233    0.069066   -0.018838
      5          6           0        1.158706   -0.321566    1.351606
      6          7           0        1.228088   -0.718566   -1.074983
      7          8           0        0.790898    1.443226   -0.250744
      8          1           0       -2.550684    0.818366   -0.911179
      9          1           0       -2.652667    0.626462    0.881595
     10          1           0       -1.540425    1.842952    0.175892
     11          1           0        0.661193    0.258437    2.158548
     12          1           0        2.248378   -0.108269    1.389038
     13          1           0        1.009776   -1.405997    1.544628
     14          1           0        2.258944   -0.539797   -1.059497
     15          1           0        0.880159   -0.383090   -2.003289
     16          1           0        1.770742    1.604035   -0.264983
 ---------------------------------------------------------------------
 Rotational constants (GHZ):      3.4507245      2.2886348      1.9652670
 Leave Link  202 at Fri Aug 19 13:29:11 2022, MaxMem=    23592960 cpu:         0.8
 (Enter /public/home/users/caep010/software/Gaussian09/g09/l301.exe)
 Standard basis: GTBas3 (6D, 7F)
 Ernie: Thresh=  0.10000D-02 Tol=  0.10000D-05 Strict=F.
 There are   262 symmetry adapted cartesian basis functions of A   symmetry.
 There are   241 symmetry adapted basis functions of A   symmetry.
   241 basis functions,   371 primitive gaussians,   262 cartesian basis functions
    28 alpha electrons       28 beta electrons
       nuclear repulsion energy       328.2783084121 Hartrees.
 IExCor=  402 DFT=T Ex+Corr=B3LYP ExCW=0 ScaHFX=  0.200000
 ScaDFX=  0.800000  0.720000  1.000000  0.810000 ScalE2=  1.000000  1.000000
 IRadAn=      0 IRanWt=     -1 IRanGd=            0 ICorTp=0 IEmpDi=  4
 NAtoms=   16 NActive=   16 NUniq=   16 SFac= 1.00D+00 NAtFMM=   60 NAOKFM=F Big=F
 Integral buffers will be    131072 words long.
 Raffenetti 2 integral format.
 Two-electron integral symmetry is turned on.
 Leave Link  301 at Fri Aug 19 13:29:11 2022, MaxMem=    23592960 cpu:         8.9
 (Enter /public/home/users/caep010/software/Gaussian09/g09/l302.exe)
 NPDir=0 NMtPBC=     1 NCelOv=     1 NCel=       1 NClECP=     1 NCelD=      1
         NCelK=      1 NCelE2=     1 NClLst=     1 CellRange=     0.0.
 One-electron integrals computed using PRISM.
 PrsmSu:  requested number of processors reduced to:   3 ShMem   1 Linda.
 PrsmSu:  requested number of processors reduced to:  11 ShMem   1 Linda.
 NBasis=   241 RedAO= T EigKep=  4.68D-04  NBF=   241
 NBsUse=   241 1.00D-06 EigRej= -1.00D+00 NBFU=   241
 Precomputing XC quadrature grid using
 IXCGrd= 4 IRadAn=           0 IRanWt=          -1 IRanGd=           0 AccXCQ= 0.00D+00.
 Generated NRdTot=       0 NPtTot=           0 NUsed=           0 NTot=          32
 NSgBfM=   262   262   262   262   262 MxSgAt=    16 MxSgA2=    16.
 Leave Link  302 at Fri Aug 19 13:29:12 2022, MaxMem=    23592960 cpu:         5.5
 (Enter /public/home/users/caep010/software/Gaussian09/g09/l303.exe)
 DipDrv:  MaxL=1.
 Leave Link  303 at Fri Aug 19 13:29:12 2022, MaxMem=    23592960 cpu:         0.8
 (Enter /public/home/users/caep010/software/Gaussian09/g09/l401.exe)
 ExpMin= 1.61D-01 ExpMax= 5.48D+03 ExpMxC= 8.25D+02 IAcc=1 IRadAn=         1 AccDes= 0.00D+00
 Harris functional with IExCor=  402 and IRadAn=       1 diagonalized for initial guess.
 HarFok:  IExCor=  402 AccDes= 0.00D+00 IRadAn=         1 IDoV= 1 UseB2=F ITyADJ=14
 ICtDFT=  3500011 ScaDFX=  1.000000  1.000000  1.000000  1.000000
 CalDSu:  requested number of processors reduced to:  18 ShMem   1 Linda.
 FoFCou: FMM=F IPFlag=           0 FMFlag=      100000 FMFlg1=           0
         NFxFlg=           0 DoJE=T BraDBF=F KetDBF=T FulRan=T
         wScrn=  0.000000 ICntrl=     500 IOpCl=  0 I1Cent=   200000004 NGrid=           0
         NMat0=    1 NMatS0=      1 NMatT0=    0 NMatD0=    1 NMtDS0=    0 NMtDT0=    0
 Petite list used in FoFCou.
 CoulSu:  requested number of processors reduced to:  11 ShMem   1 Linda.
 CoulSu:  requested number of processors reduced to:  11 ShMem   1 Linda.
 CoulSu:  requested number of processors reduced to:  12 ShMem   1 Linda.
 CoulSu:  requested number of processors reduced to:  12 ShMem   1 Linda.
 Harris En= -363.097671263958    
 JPrj=0 DoOrth=F DoCkMO=F.
 Leave Link  401 at Fri Aug 19 13:29:12 2022, MaxMem=    23592960 cpu:         5.6
 (Enter /public/home/users/caep010/software/Gaussian09/g09/l502.exe)
 Closed shell SCF:
 Using DIIS extrapolation, IDIIS=  1040.
 Integral symmetry usage will be decided dynamically.
 IVT=      234780 IEndB=      234780 NGot=    23592960 MDV=    23443727
 LenX=    23443727 LenY=    23374642
 Requested convergence on RMS density matrix=1.00D-08 within 128 cycles.
 Requested convergence on MAX density matrix=1.00D-06.
 Requested convergence on             energy=1.00D-06.
 No special actions if energy rises.
 Fock matrices will be formed incrementally for  20 cycles.
 Integral accuracy reduced to 1.0D-05 until final iterations.

 Cycle   1  Pass 0  IDiag  1:
 FoFJK:  IHMeth= 1 ICntrl=       0 DoSepK=F KAlg= 0 I1Cent=   0 FoldK=F
 IRaf= 970000000 NMat=   1 IRICut=       1 DoRegI=T DoRafI=F ISym2E= 0.
 FoFCou: FMM=F IPFlag=           0 FMFlag=      100000 FMFlg1=           0
         NFxFlg=           0 DoJE=F BraDBF=F KetDBF=F FulRan=T
         wScrn=  0.000000 ICntrl=       0 IOpCl=  0 I1Cent=           0 NGrid=           0
         NMat0=    1 NMatS0=      1 NMatT0=    0 NMatD0=    1 NMtDS0=    0 NMtDT0=    0
 Symmetry not used in FoFCou.
 CoulSu:  requested number of processors reduced to:  11 ShMem   1 Linda.
 CalDSu:  requested number of processors reduced to:  18 ShMem   1 Linda.
 E= -362.792267357900    
 DIIS: error= 2.55D-02 at cycle   1 NSaved=   1.
 NSaved= 1 IEnMin= 1 EnMin= -362.792267357900     IErMin= 1 ErrMin= 2.55D-02
 ErrMax= 2.55D-02  0.00D+00 EMaxC= 1.00D-01 BMatC= 3.03D-01 BMatP= 3.03D-01
 IDIUse=3 WtCom= 7.45D-01 WtEn= 2.55D-01
 Coeff-Com:  0.100D+01
 Coeff-En:   0.100D+01
 Coeff:      0.100D+01
 Gap=     0.147 Goal=   None    Shift=    0.000
 GapD=    0.147 DampG=1.000 DampE=0.500 DampFc=0.5000 IDamp=-1.
 Damping current iteration by 5.00D-01
 RMSDP=5.22D-03 MaxDP=1.98D-01              OVMax= 2.84D-01

 Cycle   2  Pass 0  IDiag  1:
 RMSU=  2.58D-03    CP:  9.76D-01
 CoulSu:  requested number of processors reduced to:  11 ShMem   1 Linda.
 CalDSu:  requested number of processors reduced to:  19 ShMem   1 Linda.
 E= -362.878733704399     Delta-E=       -0.086466346499 Rises=F Damp=T
 DIIS: error= 8.79D-03 at cycle   2 NSaved=   2.
 NSaved= 2 IEnMin= 2 EnMin= -362.878733704399     IErMin= 2 ErrMin= 8.79D-03
 ErrMax= 8.79D-03  0.00D+00 EMaxC= 1.00D-01 BMatC= 3.46D-02 BMatP= 3.03D-01
 IDIUse=3 WtCom= 9.12D-01 WtEn= 8.79D-02
 Coeff-Com:  0.192D+00 0.808D+00
 Coeff-En:   0.294D+00 0.706D+00
 Coeff:      0.201D+00 0.799D+00
 Gap=     0.223 Goal=   None    Shift=    0.000
 RMSDP=1.34D-03 MaxDP=7.52D-02 DE=-8.65D-02 OVMax= 2.03D-01

 Cycle   3  Pass 0  IDiag  1:
 RMSU=  1.18D-03    CP:  9.71D-01  7.56D-01
 CoulSu:  requested number of processors reduced to:  11 ShMem   1 Linda.
 CalDSu:  requested number of processors reduced to:  18 ShMem   1 Linda.
 E= -363.023578230934     Delta-E=       -0.144844526535 Rises=F Damp=F
 DIIS: error= 9.19D-03 at cycle   3 NSaved=   3.
 NSaved= 3 IEnMin= 3 EnMin= -363.023578230934     IErMin= 2 ErrMin= 8.79D-03
 ErrMax= 9.19D-03  0.00D+00 EMaxC= 1.00D-01 BMatC= 3.37D-02 BMatP= 3.46D-02
 IDIUse=3 WtCom= 9.08D-01 WtEn= 9.19D-02
 Coeff-Com:  0.788D-01 0.498D+00 0.423D+00
 Coeff-En:   0.000D+00 0.000D+00 0.100D+01
 Coeff:      0.716D-01 0.452D+00 0.476D+00
 Gap=     0.218 Goal=   None    Shift=    0.000
 RMSDP=8.18D-04 MaxDP=5.49D-02 DE=-1.45D-01 OVMax= 8.39D-02

 Cycle   4  Pass 0  IDiag  1:
 RMSU=  4.72D-04    CP:  9.74D-01  7.89D-01  4.42D-01
 CoulSu:  requested number of processors reduced to:  11 ShMem   1 Linda.
 CalDSu:  requested number of processors reduced to:  18 ShMem   1 Linda.
 E= -363.047148632888     Delta-E=       -0.023570401954 Rises=F Damp=F
 DIIS: error= 3.55D-03 at cycle   4 NSaved=   4.
 NSaved= 4 IEnMin= 4 EnMin= -363.047148632888     IErMin= 4 ErrMin= 3.55D-03
 ErrMax= 3.55D-03  0.00D+00 EMaxC= 1.00D-01 BMatC= 6.03D-03 BMatP= 3.37D-02
 IDIUse=3 WtCom= 9.64D-01 WtEn= 3.55D-02
 Coeff-Com:  0.888D-02 0.489D-01 0.298D+00 0.645D+00
 Coeff-En:   0.000D+00 0.000D+00 0.181D+00 0.819D+00
 Coeff:      0.857D-02 0.472D-01 0.293D+00 0.651D+00
 Gap=     0.214 Goal=   None    Shift=    0.000
 RMSDP=2.64D-04 MaxDP=1.68D-02 DE=-2.36D-02 OVMax= 2.45D-02

 Cycle   5  Pass 0  IDiag  1:
 RMSU=  1.04D-04    CP:  9.73D-01  7.71D-01  5.93D-01  6.65D-01
 CoulSu:  requested number of processors reduced to:  11 ShMem   1 Linda.
 CalDSu:  requested number of processors reduced to:  18 ShMem   1 Linda.
 E= -363.051620808519     Delta-E=       -0.004472175631 Rises=F Damp=F
 DIIS: error= 5.56D-04 at cycle   5 NSaved=   5.
 NSaved= 5 IEnMin= 5 EnMin= -363.051620808519     IErMin= 5 ErrMin= 5.56D-04
 ErrMax= 5.56D-04  0.00D+00 EMaxC= 1.00D-01 BMatC= 1.98D-04 BMatP= 6.03D-03
 IDIUse=3 WtCom= 9.94D-01 WtEn= 5.56D-03
 Coeff-Com:  0.209D-02 0.234D-02 0.136D+00 0.340D+00 0.520D+00
 Coeff-En:   0.000D+00 0.000D+00 0.000D+00 0.000D+00 0.100D+01
 Coeff:      0.208D-02 0.232D-02 0.135D+00 0.338D+00 0.522D+00
 Gap=     0.213 Goal=   None    Shift=    0.000
 RMSDP=5.87D-05 MaxDP=2.48D-03 DE=-4.47D-03 OVMax= 2.42D-03

 Cycle   6  Pass 0  IDiag  1:
 RMSU=  2.86D-05    CP:  9.73D-01  7.75D-01  5.92D-01  6.98D-01  5.37D-01
 CoulSu:  requested number of processors reduced to:  11 ShMem   1 Linda.
 CalDSu:  requested number of processors reduced to:  18 ShMem   1 Linda.
 E= -363.051767798202     Delta-E=       -0.000146989684 Rises=F Damp=F
 DIIS: error= 1.10D-04 at cycle   6 NSaved=   6.
 NSaved= 6 IEnMin= 6 EnMin= -363.051767798202     IErMin= 6 ErrMin= 1.10D-04
 ErrMax= 1.10D-04  0.00D+00 EMaxC= 1.00D-01 BMatC= 1.02D-05 BMatP= 1.98D-04
 IDIUse=3 WtCom= 9.99D-01 WtEn= 1.10D-03
 Coeff-Com:  0.524D-03-0.350D-02 0.344D-01 0.885D-01 0.233D+00 0.647D+00
 Coeff-En:   0.000D+00 0.000D+00 0.000D+00 0.000D+00 0.000D+00 0.100D+01
 Coeff:      0.523D-03-0.350D-02 0.344D-01 0.884D-01 0.233D+00 0.647D+00
 Gap=     0.213 Goal=   None    Shift=    0.000
 RMSDP=1.25D-05 MaxDP=5.17D-04 DE=-1.47D-04 OVMax= 5.78D-04

 Cycle   7  Pass 0  IDiag  1:
 RMSU=  5.97D-06    CP:  9.73D-01  7.73D-01  5.94D-01  6.96D-01  5.89D-01
                    CP:  6.93D-01
 CoulSu:  requested number of processors reduced to:  11 ShMem   1 Linda.
 CalDSu:  requested number of processors reduced to:  18 ShMem   1 Linda.
 E= -363.051775469718     Delta-E=       -0.000007671516 Rises=F Damp=F
 DIIS: error= 2.72D-05 at cycle   7 NSaved=   7.
 NSaved= 7 IEnMin= 7 EnMin= -363.051775469718     IErMin= 7 ErrMin= 2.72D-05
 ErrMax= 2.72D-05  0.00D+00 EMaxC= 1.00D-01 BMatC= 6.05D-07 BMatP= 1.02D-05
 IDIUse=1 WtCom= 1.00D+00 WtEn= 0.00D+00
 Coeff-Com:  0.267D-03-0.184D-02 0.120D-01 0.299D-01 0.943D-01 0.312D+00
 Coeff-Com:  0.553D+00
 Coeff:      0.267D-03-0.184D-02 0.120D-01 0.299D-01 0.943D-01 0.312D+00
 Coeff:      0.553D+00
 Gap=     0.213 Goal=   None    Shift=    0.000
 RMSDP=3.68D-06 MaxDP=1.72D-04 DE=-7.67D-06 OVMax= 1.71D-04

 Initial convergence to 1.0D-05 achieved.  Increase integral accuracy.
 Cycle   8  Pass 1  IDiag  1:
 CoulSu:  requested number of processors reduced to:  11 ShMem   1 Linda.
 CalDSu:  requested number of processors reduced to:  18 ShMem   1 Linda.
 E= -363.051730428554     Delta-E=        0.000045041164 Rises=F Damp=F
 DIIS: error= 1.48D-05 at cycle   1 NSaved=   1.
 NSaved= 1 IEnMin= 1 EnMin= -363.051730428554     IErMin= 1 ErrMin= 1.48D-05
 ErrMax= 1.48D-05  0.00D+00 EMaxC= 1.00D-01 BMatC= 2.02D-07 BMatP= 2.02D-07
 IDIUse=1 WtCom= 1.00D+00 WtEn= 0.00D+00
 Coeff-Com:  0.100D+01
 Coeff:      0.100D+01
 Gap=     0.213 Goal=   None    Shift=    0.000
 RMSDP=3.68D-06 MaxDP=1.72D-04 DE= 4.50D-05 OVMax= 1.30D-04

 Cycle   9  Pass 1  IDiag  1:
 RMSU=  5.55D-06    CP:  1.00D+00
 CoulSu:  requested number of processors reduced to:  11 ShMem   1 Linda.
 CalDSu:  requested number of processors reduced to:  18 ShMem   1 Linda.
 E= -363.051730431286     Delta-E=       -0.000000002732 Rises=F Damp=F
 DIIS: error= 1.80D-05 at cycle   2 NSaved=   2.
 NSaved= 2 IEnMin= 2 EnMin= -363.051730431286     IErMin= 1 ErrMin= 1.48D-05
 ErrMax= 1.80D-05  0.00D+00 EMaxC= 1.00D-01 BMatC= 1.97D-07 BMatP= 2.02D-07
 IDIUse=1 WtCom= 1.00D+00 WtEn= 0.00D+00
 Coeff-Com:  0.496D+00 0.504D+00
 Coeff:      0.496D+00 0.504D+00
 Gap=     0.213 Goal=   None    Shift=    0.000
 RMSDP=2.05D-06 MaxDP=1.06D-04 DE=-2.73D-09 OVMax= 1.14D-04

 Cycle  10  Pass 1  IDiag  1:
 RMSU=  1.91D-06    CP:  1.00D+00  8.65D-01
 CoulSu:  requested number of processors reduced to:  11 ShMem   1 Linda.
 CalDSu:  requested number of processors reduced to:  18 ShMem   1 Linda.
 E= -363.051730561763     Delta-E=       -0.000000130477 Rises=F Damp=F
 DIIS: error= 6.77D-06 at cycle   3 NSaved=   3.
 NSaved= 3 IEnMin= 3 EnMin= -363.051730561763     IErMin= 3 ErrMin= 6.77D-06
 ErrMax= 6.77D-06  0.00D+00 EMaxC= 1.00D-01 BMatC= 3.72D-08 BMatP= 1.97D-07
 IDIUse=1 WtCom= 1.00D+00 WtEn= 0.00D+00
 Coeff-Com:  0.351D-01 0.299D+00 0.666D+00
 Coeff:      0.351D-01 0.299D+00 0.666D+00
 Gap=     0.213 Goal=   None    Shift=    0.000
 RMSDP=8.36D-07 MaxDP=5.27D-05 DE=-1.30D-07 OVMax= 7.87D-05

 Cycle  11  Pass 1  IDiag  1:
 RMSU=  5.62D-07    CP:  1.00D+00  9.23D-01  7.22D-01
 CoulSu:  requested number of processors reduced to:  11 ShMem   1 Linda.
 CalDSu:  requested number of processors reduced to:  18 ShMem   1 Linda.
 E= -363.051730583405     Delta-E=       -0.000000021641 Rises=F Damp=F
 DIIS: error= 4.51D-06 at cycle   4 NSaved=   4.
 NSaved= 4 IEnMin= 4 EnMin= -363.051730583405     IErMin= 4 ErrMin= 4.51D-06
 ErrMax= 4.51D-06  0.00D+00 EMaxC= 1.00D-01 BMatC= 9.58D-09 BMatP= 3.72D-08
 IDIUse=1 WtCom= 1.00D+00 WtEn= 0.00D+00
 Coeff-Com: -0.115D-01 0.172D+00 0.462D+00 0.378D+00
 Coeff:     -0.115D-01 0.172D+00 0.462D+00 0.378D+00
 Gap=     0.213 Goal=   None    Shift=    0.000
 RMSDP=3.33D-07 MaxDP=2.28D-05 DE=-2.16D-08 OVMax= 3.34D-05

 Cycle  12  Pass 1  IDiag  1:
 RMSU=  1.11D-07    CP:  1.00D+00  9.28D-01  7.42D-01  4.49D-01
 CoulSu:  requested number of processors reduced to:  11 ShMem   1 Linda.
 CalDSu:  requested number of processors reduced to:  18 ShMem   1 Linda.
 E= -363.051730590632     Delta-E=       -0.000000007227 Rises=F Damp=F
 DIIS: error= 4.03D-07 at cycle   5 NSaved=   5.
 NSaved= 5 IEnMin= 5 EnMin= -363.051730590632     IErMin= 5 ErrMin= 4.03D-07
 ErrMax= 4.03D-07  0.00D+00 EMaxC= 1.00D-01 BMatC= 1.12D-10 BMatP= 9.58D-09
 IDIUse=1 WtCom= 1.00D+00 WtEn= 0.00D+00
 Coeff-Com: -0.687D-02 0.686D-01 0.191D+00 0.180D+00 0.568D+00
 Coeff:     -0.687D-02 0.686D-01 0.191D+00 0.180D+00 0.568D+00
 Gap=     0.213 Goal=   None    Shift=    0.000
 RMSDP=4.66D-08 MaxDP=2.00D-06 DE=-7.23D-09 OVMax= 2.08D-06

 Cycle  13  Pass 1  IDiag  1:
 RMSU=  3.66D-08    CP:  1.00D+00  9.29D-01  7.48D-01  4.51D-01  7.60D-01
 CoulSu:  requested number of processors reduced to:  11 ShMem   1 Linda.
 CalDSu:  requested number of processors reduced to:  18 ShMem   1 Linda.
 E= -363.051730590725     Delta-E=       -0.000000000094 Rises=F Damp=F
 DIIS: error= 1.53D-07 at cycle   6 NSaved=   6.
 NSaved= 6 IEnMin= 6 EnMin= -363.051730590725     IErMin= 6 ErrMin= 1.53D-07
 ErrMax= 1.53D-07  0.00D+00 EMaxC= 1.00D-01 BMatC= 1.29D-11 BMatP= 1.12D-10
 IDIUse=1 WtCom= 1.00D+00 WtEn= 0.00D+00
 Coeff-Com: -0.228D-02 0.168D-01 0.488D-01 0.515D-01 0.292D+00 0.593D+00
 Coeff:     -0.228D-02 0.168D-01 0.488D-01 0.515D-01 0.292D+00 0.593D+00
 Gap=     0.213 Goal=   None    Shift=    0.000
 RMSDP=1.41D-08 MaxDP=6.83D-07 DE=-9.36D-11 OVMax= 5.89D-07

 Cycle  14  Pass 1  IDiag  1:
 RMSU=  9.45D-09    CP:  1.00D+00  9.29D-01  7.48D-01  4.55D-01  8.03D-01
                    CP:  7.55D-01
 CoulSu:  requested number of processors reduced to:  11 ShMem   1 Linda.
 CalDSu:  requested number of processors reduced to:  18 ShMem   1 Linda.
 E= -363.051730590726     Delta-E=       -0.000000000001 Rises=F Damp=F
 DIIS: error= 2.78D-08 at cycle   7 NSaved=   7.
 NSaved= 7 IEnMin= 7 EnMin= -363.051730590726     IErMin= 7 ErrMin= 2.78D-08
 ErrMax= 2.78D-08  0.00D+00 EMaxC= 1.00D-01 BMatC= 5.55D-13 BMatP= 1.29D-11
 IDIUse=1 WtCom= 1.00D+00 WtEn= 0.00D+00
 Coeff-Com: -0.221D-03 0.891D-04 0.795D-03 0.318D-02 0.514D-01 0.212D+00
 Coeff-Com:  0.732D+00
 Coeff:     -0.221D-03 0.891D-04 0.795D-03 0.318D-02 0.514D-01 0.212D+00
 Coeff:      0.732D+00
 Gap=     0.213 Goal=   None    Shift=    0.000
 RMSDP=4.44D-09 MaxDP=1.43D-07 DE=-5.68D-13 OVMax= 3.12D-07

 SCF Done:  E(RB3LYP) =  -363.051730591     A.U. after   14 cycles
            NFock= 14  Conv=0.44D-08     -V/T= 2.0077
 KE= 3.602804708507D+02 PE=-1.505407407395D+03 EE= 4.537968975416D+02
 Leave Link  502 at Fri Aug 19 13:29:25 2022, MaxMem=    23592960 cpu:       193.1
 (Enter /public/home/users/caep010/software/Gaussian09/g09/l601.exe)
 Copying SCF densities to generalized density rwf, IOpCl= 0 IROHF=0.

 **********************************************************************

            Population analysis using the SCF density.

 **********************************************************************

 Orbital symmetries:
       Occupied  (A) (A) (A) (A) (A) (A) (A) (A) (A) (A) (A) (A)
                 (A) (A) (A) (A) (A) (A) (A) (A) (A) (A) (A) (A)
                 (A) (A) (A) (A)
       Virtual   (A) (A) (A) (A) (A) (A) (A) (A) (A) (A) (A) (A)
                 (A) (A) (A) (A) (A) (A) (A) (A) (A) (A) (A) (A)
                 (A) (A) (A) (A) (A) (A) (A) (A) (A) (A) (A) (A)
                 (A) (A) (A) (A) (A) (A) (A) (A) (A) (A) (A) (A)
                 (A) (A) (A) (A) (A) (A) (A) (A) (A) (A) (A) (A)
                 (A) (A) (A) (A) (A) (A) (A) (A) (A) (A) (A) (A)
                 (A) (A) (A) (A) (A) (A) (A) (A) (A) (A) (A) (A)
                 (A) (A) (A) (A) (A) (A) (A) (A) (A) (A) (A) (A)
                 (A) (A) (A) (A) (A) (A) (A) (A) (A) (A) (A) (A)
                 (A) (A) (A) (A) (A) (A) (A) (A) (A) (A) (A) (A)
                 (A) (A) (A) (A) (A) (A) (A) (A) (A) (A) (A) (A)
                 (A) (A) (A) (A) (A) (A) (A) (A) (A) (A) (A) (A)
                 (A) (A) (A) (A) (A) (A) (A) (A) (A) (A) (A) (A)
                 (A) (A) (A) (A) (A) (A) (A) (A) (A) (A) (A) (A)
                 (A) (A) (A) (A) (A) (A) (A) (A) (A) (A) (A) (A)
                 (A) (A) (A) (A) (A) (A) (A) (A) (A) (A) (A) (A)
                 (A) (A) (A) (A) (A) (A) (A) (A) (A) (A) (A) (A)
                 (A) (A) (A) (A) (A) (A) (A) (A) (A)
 The electronic state is 1-A.
 Alpha  occ. eigenvalues --  -19.14677 -19.12384 -14.32079 -10.27178 -10.26750
 Alpha  occ. eigenvalues --  -10.19072 -10.18659  -1.04400  -1.02468  -0.86817
 Alpha  occ. eigenvalues --   -0.75127  -0.72713  -0.64522  -0.52663  -0.51571
 Alpha  occ. eigenvalues --   -0.48740  -0.46651  -0.43721  -0.42241  -0.41305
 Alpha  occ. eigenvalues --   -0.40279  -0.38465  -0.36923  -0.36613  -0.34012
 Alpha  occ. eigenvalues --   -0.29758  -0.24690  -0.23759
 Alpha virt. eigenvalues --   -0.02486   0.04844   0.09672   0.11032   0.13635
 Alpha virt. eigenvalues --    0.14545   0.16208   0.16394   0.16739   0.18281
 Alpha virt. eigenvalues --    0.20579   0.22293   0.24984   0.27588   0.29940
 Alpha virt. eigenvalues --    0.34240   0.46936   0.47549   0.48207   0.48826
 Alpha virt. eigenvalues --    0.50556   0.52813   0.54900   0.56611   0.57314
 Alpha virt. eigenvalues --    0.59324   0.61596   0.61915   0.64067   0.64588
 Alpha virt. eigenvalues --    0.68416   0.69859   0.72265   0.73052   0.73751
 Alpha virt. eigenvalues --    0.74819   0.76670   0.78076   0.80855   0.81785
 Alpha virt. eigenvalues --    0.82617   0.84397   0.85897   0.87253   0.89747
 Alpha virt. eigenvalues --    0.91765   0.92760   0.96216   0.97434   0.99527
 Alpha virt. eigenvalues --    1.00725   1.02310   1.06855   1.10388   1.14001
 Alpha virt. eigenvalues --    1.17645   1.20882   1.26568   1.30235   1.32079
 Alpha virt. eigenvalues --    1.35901   1.37281   1.40678   1.40999   1.47285
 Alpha virt. eigenvalues --    1.48313   1.49635   1.51274   1.54027   1.55311
 Alpha virt. eigenvalues --    1.57615   1.59734   1.61785   1.64500   1.66344
 Alpha virt. eigenvalues --    1.71319   1.74511   1.77243   1.79514   1.83378
 Alpha virt. eigenvalues --    1.86732   1.90221   1.90643   1.93555   1.94152
 Alpha virt. eigenvalues --    1.95308   2.00504   2.09021   2.14390   2.15988
 Alpha virt. eigenvalues --    2.22983   2.27677   2.31635   2.34879   2.36823
 Alpha virt. eigenvalues --    2.44572   2.46441   2.50034   2.54987   2.55691
 Alpha virt. eigenvalues --    2.59277   2.65410   2.68765   2.74244   2.77295
 Alpha virt. eigenvalues --    2.80832   2.83666   2.84283   2.85841   2.87742
 Alpha virt. eigenvalues --    2.89440   2.91230   2.93542   2.95192   2.98959
 Alpha virt. eigenvalues --    3.00772   3.03564   3.11044   3.12176   3.15303
 Alpha virt. eigenvalues --    3.17939   3.22236   3.24952   3.27840   3.29349
 Alpha virt. eigenvalues --    3.36846   3.39286   3.43173   3.45826   3.49853
 Alpha virt. eigenvalues --    3.60923   3.63251   3.64787   3.65203   3.74043
 Alpha virt. eigenvalues --    3.77141   3.78896   3.84976   3.91763   3.93962
 Alpha virt. eigenvalues --    3.97711   4.03859   4.04748   4.09350   4.14059
 Alpha virt. eigenvalues --    4.16135   4.17824   4.21631   4.24285   4.25648
 Alpha virt. eigenvalues --    4.27797   4.32567   4.33221   4.35951   4.38606
 Alpha virt. eigenvalues --    4.42209   4.44301   4.45275   4.48998   4.50871
 Alpha virt. eigenvalues --    4.53063   4.53867   4.57735   4.58420   4.62345
 Alpha virt. eigenvalues --    4.64759   4.65307   4.67867   4.68970   4.72030
 Alpha virt. eigenvalues --    4.75756   4.76604   4.78885   4.81395   4.84368
 Alpha virt. eigenvalues --    4.85262   4.88811   4.92188   4.93639   4.96073
 Alpha virt. eigenvalues --    5.04601   5.08186   5.11854   5.14032   5.18359
 Alpha virt. eigenvalues --    5.22996   5.28762   5.38297   5.42189   5.46700
 Alpha virt. eigenvalues --    5.48283   5.53809   5.57021   5.65323   5.70017
 Alpha virt. eigenvalues --    5.76244   5.77334   5.96804   6.04221   6.05760
 Alpha virt. eigenvalues --    6.14541   6.40892   6.50682   6.92289   7.13850
 Alpha virt. eigenvalues --   10.09744  11.00658  11.43313  11.75360  11.98786
 Alpha virt. eigenvalues --   12.80971  13.22574  13.49967
          Condensed to atoms (all electrons):
               1          2          3          4          5          6
     1  C    5.277452   0.313417  -0.076464  -0.101368   0.005980   0.002463
     2  C    0.313417   4.353920   0.773294   0.271204  -0.036503  -0.023226
     3  O   -0.076464   0.773294   7.695380  -0.075826  -0.002214  -0.005840
     4  C   -0.101368   0.271204  -0.075826   4.795126   0.341015   0.364161
     5  C    0.005980  -0.036503  -0.002214   0.341015   5.121023  -0.039845
     6  N    0.002463  -0.023226  -0.005840   0.364161  -0.039845   6.664581
     7  O   -0.000265  -0.023613   0.000913   0.368554  -0.051844  -0.097042
     8  H    0.358831  -0.009452  -0.001915   0.002825   0.000026  -0.000113
     9  H    0.358560  -0.011771  -0.001299   0.003646  -0.000290  -0.000004
    10  H    0.342760  -0.010398   0.003230   0.001907   0.000023   0.000429
    11  H    0.001680  -0.004115   0.000126  -0.021943   0.368212   0.003216
    12  H   -0.000261   0.002565   0.000127  -0.018165   0.354845  -0.005122
    13  H    0.000512   0.003719   0.004495  -0.017277   0.353142   0.001430
    14  H   -0.000296   0.004821   0.000105  -0.039303  -0.008132   0.319567
    15  H    0.000625  -0.003327   0.001653  -0.044227   0.007849   0.322812
    16  H   -0.000973   0.007016  -0.000096  -0.058131  -0.007061   0.005408
               7          8          9         10         11         12
     1  C   -0.000265   0.358831   0.358560   0.342760   0.001680  -0.000261
     2  C   -0.023613  -0.009452  -0.011771  -0.010398  -0.004115   0.002565
     3  O    0.000913  -0.001915  -0.001299   0.003230   0.000126   0.000127
     4  C    0.368554   0.002825   0.003646   0.001907  -0.021943  -0.018165
     5  C   -0.051844   0.000026  -0.000290   0.000023   0.368212   0.354845
     6  N   -0.097042  -0.000113  -0.000004   0.000429   0.003216  -0.005122
     7  O    7.938022   0.000095   0.000218   0.009819   0.001186  -0.001334
     8  H    0.000095   0.544127  -0.020298  -0.025233  -0.000013   0.000002
     9  H    0.000218  -0.020298   0.550270  -0.027479  -0.000007   0.000008
    10  H    0.009819  -0.025233  -0.027479   0.562029   0.000136  -0.000014
    11  H    0.001186  -0.000013  -0.000007   0.000136   0.579696  -0.029876
    12  H   -0.001334   0.000002   0.000008  -0.000014  -0.029876   0.612186
    13  H    0.002936  -0.000001  -0.000045  -0.000054  -0.024719  -0.025831
    14  H   -0.000843   0.000005   0.000003  -0.000006  -0.000279   0.004430
    15  H    0.004369  -0.000031  -0.000002  -0.000022  -0.000236  -0.000182
    16  H    0.295287   0.000013  -0.000001   0.000059  -0.000423   0.004995
              13         14         15         16
     1  C    0.000512  -0.000296   0.000625  -0.000973
     2  C    0.003719   0.004821  -0.003327   0.007016
     3  O    0.004495   0.000105   0.001653  -0.000096
     4  C   -0.017277  -0.039303  -0.044227  -0.058131
     5  C    0.353142  -0.008132   0.007849  -0.007061
     6  N    0.001430   0.319567   0.322812   0.005408
     7  O    0.002936  -0.000843   0.004369   0.295287
     8  H   -0.000001   0.000005  -0.000031   0.000013
     9  H   -0.000045   0.000003  -0.000002  -0.000001
    10  H   -0.000054  -0.000006  -0.000022   0.000059
    11  H   -0.024719  -0.000279  -0.000236  -0.000423
    12  H   -0.025831   0.004430  -0.000182   0.004995
    13  H    0.547602  -0.000182  -0.000219  -0.000279
    14  H   -0.000182   0.527653  -0.028820   0.007156
    15  H   -0.000219  -0.028820   0.510696   0.000484
    16  H   -0.000279   0.007156   0.000484   0.471807
 Mulliken charges:
               1
     1  C   -0.482652
     2  C    0.392450
     3  O   -0.315670
     4  C    0.227801
     5  C   -0.406226
     6  N   -0.512876
     7  O   -0.446458
     8  H    0.151132
     9  H    0.148489
    10  H    0.142814
    11  H    0.127361
    12  H    0.101627
    13  H    0.154770
    14  H    0.214121
    15  H    0.228578
    16  H    0.274738
 Sum of Mulliken charges =  -0.00000
 Mulliken charges with hydrogens summed into heavy atoms:
               1
     1  C   -0.040216
     2  C    0.392450
     3  O   -0.315670
     4  C    0.227801
     5  C   -0.022468
     6  N   -0.070177
     7  O   -0.171720
 Electronic spatial extent (au):  <R**2>=            751.0967
 Charge=             -0.0000 electrons
 Dipole moment (field-independent basis, Debye):
    X=              2.1154    Y=              2.5898    Z=              0.0616  Tot=              3.3445
 Quadrupole moment (field-independent basis, Debye-Ang):
   XX=            -36.0231   YY=            -49.5768   ZZ=            -39.1182
   XY=             -1.0060   XZ=             -0.8677   YZ=             -1.1787
 Traceless Quadrupole moment (field-independent basis, Debye-Ang):
   XX=              5.5496   YY=             -8.0041   ZZ=              2.4545
   XY=             -1.0060   XZ=             -0.8677   YZ=             -1.1787
 Octapole moment (field-independent basis, Debye-Ang**2):
  XXX=             16.5206  YYY=              7.1490  ZZZ=             -9.5166  XYY=              5.9807
  XXY=             11.7288  XXZ=             -4.6998  XZZ=              0.1979  YZZ=             -0.0407
  YYZ=              2.6225  XYZ=             -1.3539
 Hexadecapole moment (field-independent basis, Debye-Ang**3):
 XXXX=           -440.0407 YYYY=           -265.3303 ZZZZ=           -186.5737 XXXY=             15.1459
 XXXZ=            -13.8362 YYYX=             14.1696 YYYZ=             -6.1606 ZZZX=            -10.1037
 ZZZY=              1.7589 XXYY=           -123.7584 XXZZ=           -106.7123 YYZZ=            -78.4733
 XXYZ=             -2.6967 YYXZ=              0.4991 ZZXY=              3.2595
 N-N= 3.282783084121D+02 E-N=-1.505407417272D+03  KE= 3.602804708507D+02
 PrsmSu:  requested number of processors reduced to:  11 ShMem   1 Linda.
 No NMR shielding tensors so no spin-rotation constants.
 Leave Link  601 at Fri Aug 19 13:29:25 2022, MaxMem=    23592960 cpu:         3.1
 (Enter /public/home/users/caep010/software/Gaussian09/g09/l701.exe)
 Compute integral first derivatives.
 ... and contract with generalized density number  0.
 PrsmSu:  requested number of processors reduced to:   3 ShMem   1 Linda.
 PrsmSu:  requested number of processors reduced to:   6 ShMem   1 Linda.
 Leave Link  701 at Fri Aug 19 13:29:26 2022, MaxMem=    23592960 cpu:         2.4
 (Enter /public/home/users/caep010/software/Gaussian09/g09/l702.exe)
 L702 exits ... SP integral derivatives will be done elsewhere.
 Leave Link  702 at Fri Aug 19 13:29:26 2022, MaxMem=    23592960 cpu:         0.8
 (Enter /public/home/users/caep010/software/Gaussian09/g09/l703.exe)
 Compute integral first derivatives, UseDBF=F ICtDFT=           0.
 Integral derivatives from FoFJK, PRISM(SPDF).
 Calling FoFJK, ICntrl=      2127 FMM=F ISym2X=0 I1Cent= 0 IOpClX= 0 NMat=1 NMatS=1 NMatT=0.
 FoFJK:  IHMeth= 1 ICntrl=    2127 DoSepK=F KAlg= 0 I1Cent=   0 FoldK=F
 IRaf=         0 NMat=   1 IRICut=       1 DoRegI=T DoRafI=F ISym2E= 0.
 FoFCou: FMM=F IPFlag=           0 FMFlag=      100000 FMFlg1=         800
         NFxFlg=           0 DoJE=F BraDBF=F KetDBF=F FulRan=T
         wScrn=  0.000000 ICntrl=    2127 IOpCl=  0 I1Cent=           0 NGrid=           0
         NMat0=    1 NMatS0=      1 NMatT0=    0 NMatD0=    1 NMtDS0=    0 NMtDT0=    0
 Symmetry not used in FoFCou.
 CoulSu:  requested number of processors reduced to:   6 ShMem   1 Linda.
 CalDSu:  requested number of processors reduced to:  16 ShMem   1 Linda.
 Leave Link  703 at Fri Aug 19 13:29:31 2022, MaxMem=    23592960 cpu:        40.8
 (Enter /public/home/users/caep010/software/Gaussian09/g09/l716.exe)
 Dipole        = 8.32249091D-01 1.01889682D+00 2.42225384D-02
 ***** Axes restored to original set *****
 -------------------------------------------------------------------
 Center     Atomic                   Forces (Hartrees/Bohr)
 Number     Number              X              Y              Z
 -------------------------------------------------------------------
      1        6           0.001602139    0.003752214   -0.024948221
      2        6           0.023694391   -0.012222586    0.030247640
      3        8          -0.010450822    0.006432164   -0.015298164
      4        6          -0.029398508    0.010870846    0.008691898
      5        6          -0.002266654   -0.012938595    0.004647178
      6        7          -0.005004401    0.014181319    0.002481250
      7        8          -0.013352167    0.010072492   -0.022037781
      8        1          -0.006195862   -0.007955374   -0.002535245
      9        1          -0.003105559    0.009817707    0.005036973
     10        1           0.004247789   -0.001261717    0.009654738
     11        1          -0.004640614    0.006508760    0.007916862
     12        1           0.008978125   -0.000908296    0.000970927
     13        1           0.000093665    0.007135606   -0.010116256
     14        1           0.021838166   -0.005445503    0.002531391
     15        1          -0.012517107   -0.019478872   -0.001564128
     16        1           0.026477420   -0.008560165    0.004320938
 -------------------------------------------------------------------
 Cartesian Forces:  Max     0.030247640 RMS     0.012465251
 Leave Link  716 at Fri Aug 19 13:29:32 2022, MaxMem=    23592960 cpu:         1.1
 (Enter /public/home/users/caep010/software/Gaussian09/g09/l103.exe)

 GradGradGradGradGradGradGradGradGradGradGradGradGradGradGradGradGradGrad
 Berny optimization.
 FormGI is forming the generalized inverse of G from B-inverse, IUseBI=4.
 Internal  Forces:  Max     0.028117797 RMS     0.007751518
 Search for a local minimum.
 Step number   1 out of a maximum of   80
 All quantities printed in internal units (Hartrees-Bohrs-Radians)
 RMS Force = .77515D-02 SwitMx=.10000D-02 MixMth= 1
 Mixed Optimization -- RFO/linear search
 Second derivative matrix not updated -- first step.
 ITU=  0
     Eigenvalues ---    0.00259   0.00495   0.00598   0.00702   0.00784
     Eigenvalues ---    0.01565   0.04540   0.05533   0.05570   0.06024
     Eigenvalues ---    0.06516   0.07121   0.07488   0.07698   0.16000
     Eigenvalues ---    0.16000   0.16000   0.16000   0.16000   0.16000
     Eigenvalues ---    0.16000   0.16000   0.16000   0.17069   0.17509
     Eigenvalues ---    0.24999   0.25000   0.28666   0.30323   0.31874
     Eigenvalues ---    0.32442   0.32458   0.32496   0.32571   0.32596
     Eigenvalues ---    0.32775   0.35907   0.40353   0.40386   0.44070
     Eigenvalues ---    0.48931   0.94242
 RFO step:  Lambda=-1.36844312D-02 EMin= 2.58748754D-03
 Linear search not attempted -- first point.
 Iteration  1 RMS(Cart)=  0.05901975 RMS(Int)=  0.00155126
 Iteration  2 RMS(Cart)=  0.00231717 RMS(Int)=  0.00042800
 Iteration  3 RMS(Cart)=  0.00000175 RMS(Int)=  0.00042799
 Iteration  4 RMS(Cart)=  0.00000000 RMS(Int)=  0.00042799
 ITry= 1 IFail=0 DXMaxC= 2.62D-01 DCOld= 1.00D+10 DXMaxT= 3.00D-01 DXLimC= 3.00D+00 Rises=F
 Variable       Old X    -DE/DX   Delta X   Delta X   Delta X     New X
                                 (Linear)    (Quad)   (Total)
    R1        2.84375   0.00663   0.00000   0.01993   0.01993   2.86368
    R2        2.09768  -0.01029   0.00000  -0.03029  -0.03029   2.06739
    R3        2.09811  -0.01071   0.00000  -0.03155  -0.03155   2.06656
    R4        2.09449  -0.01042   0.00000  -0.03053  -0.03053   2.06395
    R5        2.31037  -0.01861   0.00000  -0.01946  -0.01946   2.29091
    R6        2.87325   0.01005   0.00000   0.03172   0.03172   2.90497
    R7        2.90705  -0.00136   0.00000  -0.00454  -0.00454   2.90251
    R8        2.77527  -0.00448   0.00000  -0.01201  -0.01201   2.76326
    R9        2.66371   0.01483   0.00000   0.03264   0.03264   2.69635
   R10        2.10013  -0.01120   0.00000  -0.03310  -0.03310   2.06703
   R11        2.09945  -0.00898   0.00000  -0.02652  -0.02652   2.07294
   R12        2.10043  -0.01236   0.00000  -0.03655  -0.03655   2.06388
   R13        1.97733  -0.02263   0.00000  -0.05420  -0.05420   1.92313
   R14        1.97777  -0.02317   0.00000  -0.05554  -0.05554   1.92223
   R15        1.87660  -0.02812   0.00000  -0.05590  -0.05590   1.82070
    A1        1.90923  -0.00133   0.00000  -0.01364  -0.01377   1.89547
    A2        1.90818  -0.00168   0.00000  -0.00957  -0.00979   1.89839
    A3        1.96518   0.00208   0.00000   0.01807   0.01803   1.98321
    A4        1.89978  -0.00133   0.00000  -0.02022  -0.02054   1.87924
    A5        1.89828  -0.00023   0.00000  -0.00100  -0.00096   1.89732
    A6        1.88208   0.00242   0.00000   0.02556   0.02543   1.90751
    A7        2.06114   0.01438   0.00000   0.05443   0.05423   2.11537
    A8        2.14520  -0.01484   0.00000  -0.05639  -0.05657   2.08863
    A9        2.07680   0.00046   0.00000   0.00163   0.00148   2.07827
   A10        1.89484   0.00348   0.00000  -0.00829  -0.00868   1.88616
   A11        1.89938  -0.00006   0.00000  -0.00947  -0.00888   1.89050
   A12        1.92291  -0.00903   0.00000  -0.06924  -0.06880   1.85410
   A13        1.91564  -0.00630   0.00000  -0.01986  -0.02106   1.89457
   A14        1.91511   0.00190   0.00000   0.01818   0.01673   1.93184
   A15        1.91578   0.00986   0.00000   0.08715   0.08706   2.00284
   A16        1.92377   0.00050   0.00000   0.00255   0.00253   1.92631
   A17        1.92914  -0.00171   0.00000  -0.01157  -0.01159   1.91755
   A18        1.93048  -0.00045   0.00000  -0.00049  -0.00050   1.92998
   A19        1.89064   0.00002   0.00000  -0.00399  -0.00402   1.88662
   A20        1.89981   0.00046   0.00000   0.00604   0.00603   1.90584
   A21        1.88902   0.00122   0.00000   0.00772   0.00772   1.89674
   A22        1.91028  -0.00181   0.00000  -0.01315  -0.01318   1.89710
   A23        1.89556   0.00032   0.00000  -0.00094  -0.00097   1.89459
   A24        1.86072  -0.00007   0.00000  -0.00631  -0.00639   1.85433
   A25        1.88430  -0.00235   0.00000  -0.01354  -0.01354   1.87076
    D1       -1.14073   0.00067   0.00000  -0.01211  -0.01253  -1.15325
    D2        2.01182   0.00139   0.00000   0.02260   0.02271   2.03453
    D3        0.93809  -0.00275   0.00000  -0.05059  -0.05077   0.88732
    D4       -2.19255  -0.00203   0.00000  -0.01588  -0.01554  -2.20809
    D5        3.02967   0.00050   0.00000  -0.01328  -0.01347   3.01619
    D6       -0.10097   0.00122   0.00000   0.02143   0.02176  -0.07921
    D7        1.87771   0.00140   0.00000  -0.00490  -0.00414   1.87358
    D8       -2.32112  -0.00420   0.00000  -0.03911  -0.03911  -2.36023
    D9       -0.21988   0.00235   0.00000   0.01970   0.01975  -0.20014
   D10       -1.25283   0.00205   0.00000   0.02980   0.03002  -1.22282
   D11        0.83152  -0.00356   0.00000  -0.00441  -0.00495   0.82657
   D12        2.93276   0.00300   0.00000   0.05439   0.05390   2.98666
   D13       -1.05152   0.00142   0.00000   0.00109   0.00134  -1.05018
   D14       -3.14105   0.00216   0.00000   0.01180   0.01204  -3.12900
   D15        1.05030   0.00204   0.00000   0.00998   0.01023   1.06053
   D16       -3.12566   0.00309   0.00000   0.02904   0.02873  -3.09693
   D17        1.06800   0.00383   0.00000   0.03975   0.03943   1.10742
   D18       -1.02384   0.00370   0.00000   0.03793   0.03761  -0.98623
   D19        1.05091  -0.00632   0.00000  -0.07758  -0.07750   0.97342
   D20       -1.03861  -0.00558   0.00000  -0.06686  -0.06680  -1.10541
   D21       -3.13045  -0.00571   0.00000  -0.06869  -0.06861   3.08412
   D22       -3.10578  -0.00204   0.00000   0.00198   0.00197  -3.10381
   D23        1.15234  -0.00113   0.00000   0.01723   0.01718   1.16952
   D24       -1.03444  -0.00154   0.00000  -0.02535  -0.02539  -1.05983
   D25       -3.05951  -0.00063   0.00000  -0.01010  -0.01019  -3.06969
   D26        1.07177   0.00306   0.00000   0.03957   0.03969   1.11146
   D27       -0.95330   0.00396   0.00000   0.05482   0.05490  -0.89840
   D28       -3.11766  -0.00073   0.00000  -0.03191  -0.03097   3.13455
   D29        1.08020  -0.00061   0.00000   0.00986   0.01093   1.09113
   D30       -1.02632  -0.00024   0.00000  -0.03201  -0.03402  -1.06034
         Item               Value     Threshold  Converged?
 Maximum Force            0.028118     0.000450     NO 
 RMS     Force            0.007752     0.000300     NO 
 Maximum Displacement     0.261545     0.001800     NO 
 RMS     Displacement     0.059148     0.001200     NO 
 Predicted change in Energy=-7.374203D-03
 Lowest energy point so far.  Saving SCF results.
 GradGradGradGradGradGradGradGradGradGradGradGradGradGradGradGradGradGrad

 Leave Link  103 at Fri Aug 19 13:29:32 2022, MaxMem=    23592960 cpu:         2.4
 (Enter /public/home/users/caep010/software/Gaussian09/g09/l202.exe)
                          Input orientation:                          
 ---------------------------------------------------------------------
 Center     Atomic      Atomic             Coordinates (Angstroms)
 Number     Number       Type             X           Y           Z
 ---------------------------------------------------------------------
      1          6           0        2.054015   -0.028235   -0.644465
      2          6           0        1.001309   -0.207560    0.430747
      3          8           0        1.275575   -0.705886    1.501315
      4          6           0       -0.455084    0.192185    0.143967
      5          6           0       -1.280062   -1.093889   -0.012697
      6          7           0       -0.963736    0.933599    1.297125
      7          8           0       -0.433276    0.928978   -1.077736
      8          1           0        2.791947    0.698753   -0.292590
      9          1           0        2.570832   -0.980436   -0.793202
     10          1           0        1.650459    0.316273   -1.599112
     11          1           0       -0.894648   -1.694870   -0.841387
     12          1           0       -2.325054   -0.842122   -0.231568
     13          1           0       -1.247605   -1.685004    0.905091
     14          1           0       -1.939108    1.170018    1.128538
     15          1           0       -0.463567    1.817090    1.360095
     16          1           0       -1.342096    1.181405   -1.274220
 ---------------------------------------------------------------------
                    Distance matrix (angstroms):
                    1          2          3          4          5
     1  C    0.000000
     2  C    1.515396   0.000000
     3  O    2.381081   1.212298   0.000000
     4  C    2.639278   1.537244   2.375733   0.000000
     5  C    3.556799   2.487343   2.995673   1.535942   0.000000
     6  N    3.715066   2.431924   2.782825   1.462257   2.434420
     7  O    2.700111   2.371765   3.499207   1.426849   2.437897
     8  H    1.094015   2.133308   2.736876   3.315178   4.457932
     9  H    1.093576   2.135133   2.649128   3.377795   3.930833
    10  H    1.092198   2.194566   3.286030   2.736244   3.618455
    11  H    3.392796   2.724898   3.343083   2.173733   1.093824
    12  H    4.473158   3.450511   3.998246   2.169702   1.096951
    13  H    4.005833   2.732299   2.771387   2.175141   1.092156
    14  H    4.530384   3.321248   3.740611   2.031715   2.619548
    15  H    3.709677   2.666225   3.067567   2.029620   3.320394
    16  H    3.659698   3.213671   4.256485   1.943348   2.602355
                    6          7          8          9         10
     6  N    0.000000
     7  O    2.433387   0.000000
     8  H    4.085033   3.327389   0.000000
     9  H    4.530582   3.570922   1.766119   0.000000
    10  H    3.950100   2.233649   1.776593   1.782704   0.000000
    11  H    3.389227   2.674566   4.429626   3.538685   3.331128
    12  H    2.709848   2.726100   5.344316   4.929936   4.360821
    13  H    2.662959   3.380478   4.840941   4.238051   4.321448
    14  H    1.017677   2.682028   4.962316   5.353233   4.588458
    15  H    1.017198   2.594741   3.818431   4.655150   3.934267
    16  H    2.610819   0.963473   4.276314   4.496215   3.131995
                   11         12         13         14         15
    11  H    0.000000
    12  H    1.773449   0.000000
    13  H    1.781814   1.778579   0.000000
    14  H    3.630301   2.459177   2.946058   0.000000
    15  H    4.167280   3.615237   3.617514   1.627742   0.000000
    16  H    2.942876   2.479515   3.602031   2.475842   2.848775
                   16
    16  H    0.000000
 Stoichiometry    C4H9NO2
 Framework group  C1[X(C4H9NO2)]
 Deg. of freedom    42
 Full point group                 C1      NOp   1
 RotChk:  IX=0 Diff= 5.86D-02
 Largest Abelian subgroup         C1      NOp   1
 Largest concise Abelian subgroup C1      NOp   1
                         Standard orientation:                         
 ---------------------------------------------------------------------
 Center     Atomic      Atomic             Coordinates (Angstroms)
 Number     Number       Type             X           Y           Z
 ---------------------------------------------------------------------
      1          6           0       -1.951266    0.789206    0.027863
      2          6           0       -0.896176   -0.297090   -0.028460
      3          8           0       -1.201485   -1.470271   -0.018416
      4          6           0        0.592158    0.087472   -0.038110
      5          6           0        1.184252   -0.265318    1.334509
      6          7           0        1.267705   -0.715508   -1.056467
      7          8           0        0.638687    1.496175   -0.260121
      8          1           0       -2.541789    0.750195   -0.892262
      9          1           0       -2.625169    0.582185    0.863870
     10          1           0       -1.538983    1.794677    0.137166
     11          1           0        0.667873    0.286663    2.125153
     12          1           0        2.245756    0.009659    1.364447
     13          1           0        1.094937   -1.336611    1.527277
     14          1           0        2.260316   -0.491424   -1.043094
     15          1           0        0.924542   -0.433151   -1.971456
     16          1           0        1.567154    1.753516   -0.262346
 ---------------------------------------------------------------------
 Rotational constants (GHZ):      3.3819247      2.3658299      1.9737981
 Leave Link  202 at Fri Aug 19 13:29:32 2022, MaxMem=    23592960 cpu:         0.3
 (Enter /public/home/users/caep010/software/Gaussian09/g09/l301.exe)
 Standard basis: GTBas3 (6D, 7F)
 Ernie: Thresh=  0.10000D-02 Tol=  0.10000D-05 Strict=F.
 There are   262 symmetry adapted cartesian basis functions of A   symmetry.
 There are   241 symmetry adapted basis functions of A   symmetry.
   241 basis functions,   371 primitive gaussians,   262 cartesian basis functions
    28 alpha electrons       28 beta electrons
       nuclear repulsion energy       329.3497365817 Hartrees.
 IExCor=  402 DFT=T Ex+Corr=B3LYP ExCW=0 ScaHFX=  0.200000
 ScaDFX=  0.800000  0.720000  1.000000  0.810000 ScalE2=  1.000000  1.000000
 IRadAn=      0 IRanWt=     -1 IRanGd=            0 ICorTp=0 IEmpDi=  4
 NAtoms=   16 NActive=   16 NUniq=   16 SFac= 1.00D+00 NAtFMM=   60 NAOKFM=F Big=F
 Integral buffers will be    131072 words long.
 Raffenetti 2 integral format.
 Two-electron integral symmetry is turned on.
 Leave Link  301 at Fri Aug 19 13:29:32 2022, MaxMem=    23592960 cpu:         1.8
 (Enter /public/home/users/caep010/software/Gaussian09/g09/l302.exe)
 NPDir=0 NMtPBC=     1 NCelOv=     1 NCel=       1 NClECP=     1 NCelD=      1
         NCelK=      1 NCelE2=     1 NClLst=     1 CellRange=     0.0.
 One-electron integrals computed using PRISM.
 PrsmSu:  requested number of processors reduced to:   3 ShMem   1 Linda.
 PrsmSu:  requested number of processors reduced to:  11 ShMem   1 Linda.
 NBasis=   241 RedAO= T EigKep=  4.62D-04  NBF=   241
 NBsUse=   241 1.00D-06 EigRej= -1.00D+00 NBFU=   241
 Precomputing XC quadrature grid using
 IXCGrd= 4 IRadAn=           0 IRanWt=          -1 IRanGd=           0 AccXCQ= 0.00D+00.
 Generated NRdTot=       0 NPtTot=           0 NUsed=           0 NTot=          32
 NSgBfM=   262   262   262   262   262 MxSgAt=    16 MxSgA2=    16.
 Leave Link  302 at Fri Aug 19 13:29:32 2022, MaxMem=    23592960 cpu:         4.9
 (Enter /public/home/users/caep010/software/Gaussian09/g09/l303.exe)
 DipDrv:  MaxL=1.
 Leave Link  303 at Fri Aug 19 13:29:32 2022, MaxMem=    23592960 cpu:         0.8
 (Enter /public/home/users/caep010/software/Gaussian09/g09/l401.exe)
 Initial guess from the checkpoint file:  "G4.Frag_719.chk"
 B after Tr=    -0.000000    0.000000    0.000000
         Rot=    0.999727    0.007987   -0.002437   -0.021841 Ang=   2.68 deg.
 Guess basis will be translated and rotated to current coordinates.
 JPrj=2 DoOrth=T DoCkMO=T.
 Generating alternative initial guess.
 ExpMin= 1.61D-01 ExpMax= 5.48D+03 ExpMxC= 8.25D+02 IAcc=1 IRadAn=         1 AccDes= 0.00D+00
 Harris functional with IExCor=  402 and IRadAn=       1 diagonalized for initial guess.
 HarFok:  IExCor=  402 AccDes= 0.00D+00 IRadAn=         1 IDoV= 1 UseB2=F ITyADJ=14
 ICtDFT=  3500011 ScaDFX=  1.000000  1.000000  1.000000  1.000000
 CalDSu:  requested number of processors reduced to:  18 ShMem   1 Linda.
 FoFCou: FMM=F IPFlag=           0 FMFlag=      100000 FMFlg1=           0
         NFxFlg=           0 DoJE=T BraDBF=F KetDBF=T FulRan=T
         wScrn=  0.000000 ICntrl=     500 IOpCl=  0 I1Cent=   200000004 NGrid=           0
         NMat0=    1 NMatS0=      1 NMatT0=    0 NMatD0=    1 NMtDS0=    0 NMtDT0=    0
 Petite list used in FoFCou.
 CoulSu:  requested number of processors reduced to:  11 ShMem   1 Linda.
 CoulSu:  requested number of processors reduced to:  11 ShMem   1 Linda.
 CoulSu:  requested number of processors reduced to:  12 ShMem   1 Linda.
 CoulSu:  requested number of processors reduced to:  12 ShMem   1 Linda.
 Harris En= -363.113285911961    
 Leave Link  401 at Fri Aug 19 13:29:33 2022, MaxMem=    23592960 cpu:        19.4
 (Enter /public/home/users/caep010/software/Gaussian09/g09/l502.exe)
 Closed shell SCF:
 Using DIIS extrapolation, IDIIS=  1040.
 Integral symmetry usage will be decided dynamically.
 IVT=      234780 IEndB=      234780 NGot=    23592960 MDV=    23443727
 LenX=    23443727 LenY=    23374642
 Requested convergence on RMS density matrix=1.00D-08 within 128 cycles.
 Requested convergence on MAX density matrix=1.00D-06.
 Requested convergence on             energy=1.00D-06.
 No special actions if energy rises.
 Fock matrices will be formed incrementally for  20 cycles.
 Integral accuracy reduced to 1.0D-05 until final iterations.

 Cycle   1  Pass 0  IDiag  1:
 FoFJK:  IHMeth= 1 ICntrl=       0 DoSepK=F KAlg= 0 I1Cent=   0 FoldK=F
 IRaf= 970000000 NMat=   1 IRICut=       1 DoRegI=T DoRafI=F ISym2E= 0.
 FoFCou: FMM=F IPFlag=           0 FMFlag=      100000 FMFlg1=           0
         NFxFlg=           0 DoJE=F BraDBF=F KetDBF=F FulRan=T
         wScrn=  0.000000 ICntrl=       0 IOpCl=  0 I1Cent=           0 NGrid=           0
         NMat0=    1 NMatS0=      1 NMatT0=    0 NMatD0=    1 NMtDS0=    0 NMtDT0=    0
 Symmetry not used in FoFCou.
 CoulSu:  requested number of processors reduced to:  11 ShMem   1 Linda.
 CalDSu:  requested number of processors reduced to:  18 ShMem   1 Linda.
 E= -363.053166328735    
 DIIS: error= 2.06D-03 at cycle   1 NSaved=   1.
 NSaved= 1 IEnMin= 1 EnMin= -363.053166328735     IErMin= 1 ErrMin= 2.06D-03
 ErrMax= 2.06D-03  0.00D+00 EMaxC= 1.00D-01 BMatC= 4.06D-03 BMatP= 4.06D-03
 IDIUse=3 WtCom= 9.79D-01 WtEn= 2.06D-02
 Coeff-Com:  0.100D+01
 Coeff-En:   0.100D+01
 Coeff:      0.100D+01
 Gap=     0.991 Goal=   None    Shift=    0.000
 GapD=    0.991 DampG=2.000 DampE=1.000 DampFc=2.0000 IDamp=-1.
 RMSDP=4.51D-04 MaxDP=1.37D-02              OVMax= 1.94D-02

 Cycle   2  Pass 0  IDiag  1:
 RMSU=  4.50D-04    CP:  1.00D+00
 CoulSu:  requested number of processors reduced to:  11 ShMem   1 Linda.
 CalDSu:  requested number of processors reduced to:  18 ShMem   1 Linda.
 E= -363.058135597889     Delta-E=       -0.004969269154 Rises=F Damp=F
 DIIS: error= 9.49D-04 at cycle   2 NSaved=   2.
 NSaved= 2 IEnMin= 2 EnMin= -363.058135597889     IErMin= 2 ErrMin= 9.49D-04
 ErrMax= 9.49D-04  0.00D+00 EMaxC= 1.00D-01 BMatC= 5.16D-04 BMatP= 4.06D-03
 IDIUse=3 WtCom= 9.91D-01 WtEn= 9.49D-03
 Coeff-Com:  0.127D+00 0.873D+00
 Coeff-En:   0.000D+00 0.100D+01
 Coeff:      0.126D+00 0.874D+00
 Gap=     0.217 Goal=   None    Shift=    0.000
 RMSDP=1.77D-04 MaxDP=9.90D-03 DE=-4.97D-03 OVMax= 1.33D-02

 Cycle   3  Pass 0  IDiag  1:
 RMSU=  1.76D-04    CP:  1.00D+00  9.95D-01
 CoulSu:  requested number of processors reduced to:  11 ShMem   1 Linda.
 CalDSu:  requested number of processors reduced to:  18 ShMem   1 Linda.
 E= -363.057809520502     Delta-E=        0.000326077387 Rises=F Damp=F
 DIIS: error= 1.51D-03 at cycle   3 NSaved=   3.
 NSaved= 3 IEnMin= 2 EnMin= -363.058135597889     IErMin= 2 ErrMin= 9.49D-04
 ErrMax= 1.51D-03  0.00D+00 EMaxC= 1.00D-01 BMatC= 9.93D-04 BMatP= 5.16D-04
 IDIUse=3 WtCom= 2.05D-01 WtEn= 7.95D-01
 Coeff-Com: -0.207D-01 0.593D+00 0.427D+00
 Coeff-En:   0.000D+00 0.621D+00 0.379D+00
 Coeff:     -0.423D-02 0.615D+00 0.389D+00
 Gap=     0.220 Goal=   None    Shift=    0.000
 RMSDP=1.02D-04 MaxDP=7.07D-03 DE= 3.26D-04 OVMax= 1.03D-02

 Cycle   4  Pass 0  IDiag  1:
 RMSU=  4.12D-05    CP:  1.00D+00  1.03D+00  4.79D-01
 CoulSu:  requested number of processors reduced to:  11 ShMem   1 Linda.
 CalDSu:  requested number of processors reduced to:  18 ShMem   1 Linda.
 E= -363.058529697696     Delta-E=       -0.000720177195 Rises=F Damp=F
 DIIS: error= 2.70D-04 at cycle   4 NSaved=   4.
 NSaved= 4 IEnMin= 4 EnMin= -363.058529697696     IErMin= 4 ErrMin= 2.70D-04
 ErrMax= 2.70D-04  0.00D+00 EMaxC= 1.00D-01 BMatC= 3.43D-05 BMatP= 5.16D-04
 IDIUse=3 WtCom= 9.97D-01 WtEn= 2.70D-03
 Coeff-Com: -0.190D-01 0.312D+00 0.229D+00 0.478D+00
 Coeff-En:   0.000D+00 0.000D+00 0.000D+00 0.100D+01
 Coeff:     -0.190D-01 0.311D+00 0.228D+00 0.480D+00
 Gap=     0.220 Goal=   None    Shift=    0.000
 RMSDP=2.33D-05 MaxDP=8.74D-04 DE=-7.20D-04 OVMax= 1.53D-03

 Cycle   5  Pass 0  IDiag  1:
 RMSU=  1.21D-05    CP:  1.00D+00  1.04D+00  4.67D-01  5.42D-01
 CoulSu:  requested number of processors reduced to:  11 ShMem   1 Linda.
 CalDSu:  requested number of processors reduced to:  18 ShMem   1 Linda.
 E= -363.058558991750     Delta-E=       -0.000029294053 Rises=F Damp=F
 DIIS: error= 4.13D-05 at cycle   5 NSaved=   5.
 NSaved= 5 IEnMin= 5 EnMin= -363.058558991750     IErMin= 5 ErrMin= 4.13D-05
 ErrMax= 4.13D-05  0.00D+00 EMaxC= 1.00D-01 BMatC= 1.26D-06 BMatP= 3.43D-05
 IDIUse=1 WtCom= 1.00D+00 WtEn= 0.00D+00
 Coeff-Com: -0.537D-02 0.578D-01 0.440D-01 0.187D+00 0.717D+00
 Coeff:     -0.537D-02 0.578D-01 0.440D-01 0.187D+00 0.717D+00
 Gap=     0.220 Goal=   None    Shift=    0.000
 RMSDP=4.63D-06 MaxDP=2.85D-04 DE=-2.93D-05 OVMax= 2.65D-04

 Initial convergence to 1.0D-05 achieved.  Increase integral accuracy.
 Cycle   6  Pass 1  IDiag  1:
 CoulSu:  requested number of processors reduced to:  11 ShMem   1 Linda.
 CalDSu:  requested number of processors reduced to:  18 ShMem   1 Linda.
 E= -363.058495253661     Delta-E=        0.000063738088 Rises=F Damp=F
 DIIS: error= 2.50D-05 at cycle   1 NSaved=   1.
 NSaved= 1 IEnMin= 1 EnMin= -363.058495253661     IErMin= 1 ErrMin= 2.50D-05
 ErrMax= 2.50D-05  0.00D+00 EMaxC= 1.00D-01 BMatC= 2.92D-07 BMatP= 2.92D-07
 IDIUse=1 WtCom= 1.00D+00 WtEn= 0.00D+00
 Coeff-Com:  0.100D+01
 Coeff:      0.100D+01
 Gap=     0.220 Goal=   None    Shift=    0.000
 RMSDP=4.63D-06 MaxDP=2.85D-04 DE= 6.37D-05 OVMax= 2.08D-04

 Cycle   7  Pass 1  IDiag  1:
 RMSU=  6.57D-06    CP:  1.00D+00
 CoulSu:  requested number of processors reduced to:  11 ShMem   1 Linda.
 CalDSu:  requested number of processors reduced to:  18 ShMem   1 Linda.
 E= -363.058495223656     Delta-E=        0.000000030005 Rises=F Damp=F
 DIIS: error= 3.51D-05 at cycle   2 NSaved=   2.
 NSaved= 2 IEnMin= 1 EnMin= -363.058495253661     IErMin= 1 ErrMin= 2.50D-05
 ErrMax= 3.51D-05  0.00D+00 EMaxC= 1.00D-01 BMatC= 3.21D-07 BMatP= 2.92D-07
 IDIUse=1 WtCom= 1.00D+00 WtEn= 0.00D+00
 Coeff-Com:  0.514D+00 0.486D+00
 Coeff:      0.514D+00 0.486D+00
 Gap=     0.220 Goal=   None    Shift=    0.000
 RMSDP=2.34D-06 MaxDP=1.44D-04 DE= 3.00D-08 OVMax= 1.49D-04

 Cycle   8  Pass 1  IDiag  1:
 RMSU=  1.91D-06    CP:  1.00D+00  7.94D-01
 CoulSu:  requested number of processors reduced to:  11 ShMem   1 Linda.
 CalDSu:  requested number of processors reduced to:  18 ShMem   1 Linda.
 E= -363.058495483865     Delta-E=       -0.000000260209 Rises=F Damp=F
 DIIS: error= 6.44D-06 at cycle   3 NSaved=   3.
 NSaved= 3 IEnMin= 3 EnMin= -363.058495483865     IErMin= 3 ErrMin= 6.44D-06
 ErrMax= 6.44D-06  0.00D+00 EMaxC= 1.00D-01 BMatC= 1.55D-08 BMatP= 2.92D-07
 IDIUse=1 WtCom= 1.00D+00 WtEn= 0.00D+00
 Coeff-Com:  0.388D-01 0.183D+00 0.779D+00
 Coeff:      0.388D-01 0.183D+00 0.779D+00
 Gap=     0.220 Goal=   None    Shift=    0.000
 RMSDP=6.25D-07 MaxDP=3.13D-05 DE=-2.60D-07 OVMax= 3.63D-05

 Cycle   9  Pass 1  IDiag  1:
 RMSU=  4.79D-07    CP:  1.00D+00  8.43D-01  8.77D-01
 CoulSu:  requested number of processors reduced to:  11 ShMem   1 Linda.
 CalDSu:  requested number of processors reduced to:  18 ShMem   1 Linda.
 E= -363.058495493663     Delta-E=       -0.000000009797 Rises=F Damp=F
 DIIS: error= 2.46D-06 at cycle   4 NSaved=   4.
 NSaved= 4 IEnMin= 4 EnMin= -363.058495493663     IErMin= 4 ErrMin= 2.46D-06
 ErrMax= 2.46D-06  0.00D+00 EMaxC= 1.00D-01 BMatC= 3.73D-09 BMatP= 1.55D-08
 IDIUse=1 WtCom= 1.00D+00 WtEn= 0.00D+00
 Coeff-Com: -0.753D-02 0.792D-01 0.457D+00 0.471D+00
 Coeff:     -0.753D-02 0.792D-01 0.457D+00 0.471D+00
 Gap=     0.220 Goal=   None    Shift=    0.000
 RMSDP=2.61D-07 MaxDP=1.23D-05 DE=-9.80D-09 OVMax= 1.71D-05

 Cycle  10  Pass 1  IDiag  1:
 RMSU=  1.06D-07    CP:  1.00D+00  8.45D-01  8.87D-01  5.05D-01
 CoulSu:  requested number of processors reduced to:  11 ShMem   1 Linda.
 CalDSu:  requested number of processors reduced to:  18 ShMem   1 Linda.
 E= -363.058495496354     Delta-E=       -0.000000002691 Rises=F Damp=F
 DIIS: error= 1.04D-06 at cycle   5 NSaved=   5.
 NSaved= 5 IEnMin= 5 EnMin= -363.058495496354     IErMin= 5 ErrMin= 1.04D-06
 ErrMax= 1.04D-06  0.00D+00 EMaxC= 1.00D-01 BMatC= 2.58D-10 BMatP= 3.73D-09
 IDIUse=1 WtCom= 1.00D+00 WtEn= 0.00D+00
 Coeff-Com: -0.654D-02 0.369D-01 0.230D+00 0.285D+00 0.455D+00
 Coeff:     -0.654D-02 0.369D-01 0.230D+00 0.285D+00 0.455D+00
 Gap=     0.220 Goal=   None    Shift=    0.000
 RMSDP=5.92D-08 MaxDP=3.91D-06 DE=-2.69D-09 OVMax= 6.24D-06

 Cycle  11  Pass 1  IDiag  1:
 RMSU=  3.71D-08    CP:  1.00D+00  8.46D-01  8.88D-01  5.33D-01  5.88D-01
 CoulSu:  requested number of processors reduced to:  11 ShMem   1 Linda.
 CalDSu:  requested number of processors reduced to:  18 ShMem   1 Linda.
 E= -363.058495496532     Delta-E=       -0.000000000178 Rises=F Damp=F
 DIIS: error= 2.67D-07 at cycle   6 NSaved=   6.
 NSaved= 6 IEnMin= 6 EnMin= -363.058495496532     IErMin= 6 ErrMin= 2.67D-07
 ErrMax= 2.67D-07  0.00D+00 EMaxC= 1.00D-01 BMatC= 2.31D-11 BMatP= 2.58D-10
 IDIUse=1 WtCom= 1.00D+00 WtEn= 0.00D+00
 Coeff-Com: -0.314D-02 0.140D-01 0.905D-01 0.121D+00 0.273D+00 0.505D+00
 Coeff:     -0.314D-02 0.140D-01 0.905D-01 0.121D+00 0.273D+00 0.505D+00
 Gap=     0.220 Goal=   None    Shift=    0.000
 RMSDP=1.82D-08 MaxDP=1.05D-06 DE=-1.78D-10 OVMax= 1.55D-06

 Cycle  12  Pass 1  IDiag  1:
 RMSU=  1.30D-08    CP:  1.00D+00  8.46D-01  8.89D-01  5.35D-01  6.33D-01
                    CP:  6.96D-01
 CoulSu:  requested number of processors reduced to:  11 ShMem   1 Linda.
 CalDSu:  requested number of processors reduced to:  18 ShMem   1 Linda.
 E= -363.058495496560     Delta-E=       -0.000000000028 Rises=F Damp=F
 DIIS: error= 5.57D-08 at cycle   7 NSaved=   7.
 NSaved= 7 IEnMin= 7 EnMin= -363.058495496560     IErMin= 7 ErrMin= 5.57D-08
 ErrMax= 5.57D-08  0.00D+00 EMaxC= 1.00D-01 BMatC= 1.94D-12 BMatP= 2.31D-11
 IDIUse=1 WtCom= 1.00D+00 WtEn= 0.00D+00
 Coeff-Com: -0.538D-03 0.993D-03 0.794D-02 0.137D-01 0.644D-01 0.256D+00
 Coeff-Com:  0.657D+00
 Coeff:     -0.538D-03 0.993D-03 0.794D-02 0.137D-01 0.644D-01 0.256D+00
 Coeff:      0.657D+00
 Gap=     0.220 Goal=   None    Shift=    0.000
 RMSDP=6.31D-09 MaxDP=2.64D-07 DE=-2.83D-11 OVMax= 4.20D-07

 SCF Done:  E(RB3LYP) =  -363.058495497     A.U. after   12 cycles
            NFock= 12  Conv=0.63D-08     -V/T= 2.0070
 KE= 3.605235067384D+02 PE=-1.507720040302D+03 EE= 4.547883014857D+02
 Leave Link  502 at Fri Aug 19 13:29:45 2022, MaxMem=    23592960 cpu:       181.6
 (Enter /public/home/users/caep010/software/Gaussian09/g09/l701.exe)
 Compute integral first derivatives.
 ... and contract with generalized density number  0.
 PrsmSu:  requested number of processors reduced to:   3 ShMem   1 Linda.
 PrsmSu:  requested number of processors reduced to:   6 ShMem   1 Linda.
 Leave Link  701 at Fri Aug 19 13:29:45 2022, MaxMem=    23592960 cpu:         2.5
 (Enter /public/home/users/caep010/software/Gaussian09/g09/l702.exe)
 L702 exits ... SP integral derivatives will be done elsewhere.
 Leave Link  702 at Fri Aug 19 13:29:45 2022, MaxMem=    23592960 cpu:         0.4
 (Enter /public/home/users/caep010/software/Gaussian09/g09/l703.exe)
 Compute integral first derivatives, UseDBF=F ICtDFT=           0.
 Integral derivatives from FoFJK, PRISM(SPDF).
 Calling FoFJK, ICntrl=      2127 FMM=F ISym2X=0 I1Cent= 0 IOpClX= 0 NMat=1 NMatS=1 NMatT=0.
 FoFJK:  IHMeth= 1 ICntrl=    2127 DoSepK=F KAlg= 0 I1Cent=   0 FoldK=F
 IRaf=         0 NMat=   1 IRICut=       1 DoRegI=T DoRafI=F ISym2E= 0.
 FoFCou: FMM=F IPFlag=           0 FMFlag=      100000 FMFlg1=         800
         NFxFlg=           0 DoJE=F BraDBF=F KetDBF=F FulRan=T
         wScrn=  0.000000 ICntrl=    2127 IOpCl=  0 I1Cent=           0 NGrid=           0
         NMat0=    1 NMatS0=      1 NMatT0=    0 NMatD0=    1 NMtDS0=    0 NMtDT0=    0
 Symmetry not used in FoFCou.
 CoulSu:  requested number of processors reduced to:   6 ShMem   1 Linda.
 CalDSu:  requested number of processors reduced to:  16 ShMem   1 Linda.
 Leave Link  703 at Fri Aug 19 13:29:51 2022, MaxMem=    23592960 cpu:        41.7
 (Enter /public/home/users/caep010/software/Gaussian09/g09/l716.exe)
 Dipole        = 8.48081287D-01 1.06532892D+00-4.06440571D-02
 ***** Axes restored to original set *****
 -------------------------------------------------------------------
 Center     Atomic                   Forces (Hartrees/Bohr)
 Number     Number              X              Y              Z
 -------------------------------------------------------------------
[...]
 Quadrupole moment (field-independent basis, Debye-Ang):
   XX=            -38.5110   YY=            -44.4896   ZZ=            -45.9069
   XY=             -2.7789   XZ=             -2.2814   YZ=              2.3778
 Traceless Quadrupole moment (field-independent basis, Debye-Ang):
   XX=              4.4582   YY=             -1.5205   ZZ=             -2.9377
   XY=             -2.7789   XZ=             -2.2814   YZ=              2.3778
 Octapole moment (field-independent basis, Debye-Ang**2):
  XXX=             16.0015  YYY=             -1.1174  ZZZ=             -0.6221  XYY=              8.8293
  XXY=              7.5598  XXZ=             -9.5713  XZZ=             -0.6826  YZZ=              2.8589
  YYZ=             -7.4117  XYZ=             -0.5398
 Hexadecapole moment (field-independent basis, Debye-Ang**3):
 XXXX=           -423.6787 YYYY=           -299.5500 ZZZZ=           -178.9634 XXXY=             -4.9184
 XXXZ=            -16.8305 YYYX=             -7.6640 YYYZ=              2.0215 ZZZX=            -10.2360
 ZZZY=             -2.5574 XXYY=           -133.0725 XXZZ=           -104.9142 YYZZ=            -81.4911
 XXYZ=             -1.1502 YYXZ=             -9.1004 ZZXY=              8.0336
 N-N= 3.296760094668D+02 E-N=-1.507425099018D+03  KE= 3.605963940767D+02
 PrsmSu:  requested number of processors reduced to:   1 ShMem   1 Linda.
 No NMR shielding tensors so no spin-rotation constants.
 Leave Link  601 at Fri Aug 19 23:17:56 2022, MaxMem=    23592960 cpu:        16.4
 (Enter /public/home/users/caep010/software/Gaussian09/g09/l9999.exe)
 1\1\GINC-B1377\SP\RHF\GFHFB2\C4H9N1O2\ROOT\19-Aug-2022\0\\#P Geom=AllC
 heck Guess=TCheck SCRF=Check HF/GFHFB2 SCF=Tight\\Frag_719\\0,1\C,0,1.
 896918621,-0.4433889573,-0.6202081832\C,0,1.0628443218,0.0883851423,0.
 5247359006\O,0,1.5390584423,0.3700906868,1.597014578\C,0,-0.4512024983
 ,0.3265088822,0.2464526844\C,0,-1.1344394711,-0.8805096746,-0.40461887
 63\N,0,-1.0909082317,0.6247260452,1.4975733433\O,0,-0.4064813136,1.425
 5365517,-0.6902833769\H,0,1.6684303214,0.1039685681,-1.5378188342\H,0,
 2.9541611385,-0.3506025127,-0.3699852053\H,0,1.6652916754,-1.499698251
 1,-0.7972415929\H,0,-0.7022115655,-1.1088163441,-1.3813717745\H,0,-2.2
 005886689,-0.6612163437,-0.5440968006\H,0,-1.0658025588,-1.7597473459,
 0.2402605548\H,0,-1.9868522493,1.0748649943,1.3462806065\H,0,-0.497921
 3268,1.2374311504,2.0476799064\H,0,-1.2503966365,1.4527674084,-1.15447
 29298\\Version=ES64L-G09RevE.01\State=1-A\HF=-361.0485038\RMSD=3.836e-
 09\Dipole=-0.9339581,-0.3306219,-1.2090382\Quadrupole=2.3880698,0.1302
 396,-2.5183094,-2.8955468,-1.000723,1.8361579\PG=C01 [X(C4H9N1O2)]\\@


 TIMES HAVE CHANGED. IN THE BIBLE WHEN AN ASS
 SPOKE IT WAS CONSIDERED A MIRACLE.
 Diagonal vibrational polarizability:
        0.0000000       0.0000000       0.0000000

 Temperature=              298.150000 Pressure=                      1.000000
 E(ZPE)=                     0.131374 E(Thermal)=                    0.140280
 E(CCSD(T))=              -361.995700 E(Empiric)=                   -0.145887
 DE(Plus)=                  -0.031403 DE(2DF)=                      -0.305644
 E(Delta-G3XP)=             -0.461433 DE(HF)=                       -0.036036
 G4(0 K)=                 -362.844729 G4 Energy=                  -362.835823
 G4 Enthalpy=             -362.834879 G4 Free Energy=             -362.877512
 1\1\GINC-B1377\Mixed\G4\G4\C4H9N1O2\ROOT\19-Aug-2022\0\\#P Geom=AllChe
 ck Guess=TCheck SCRF=Check HF/GFHFB2 SCF=Tight\\Frag_719\\0,1\C,0,1.89
 6918621,-0.4433889573,-0.6202081832\C,0,1.0628443218,0.0883851423,0.52
 47359006\O,0,1.5390584423,0.3700906868,1.597014578\C,0,-0.4512024983,0
 .3265088822,0.2464526844\C,0,-1.1344394711,-0.8805096746,-0.4046188763
 \N,0,-1.0909082317,0.6247260452,1.4975733433\O,0,-0.4064813136,1.42553
 65517,-0.6902833769\H,0,1.6684303214,0.1039685681,-1.5378188342\H,0,2.
 9541611385,-0.3506025127,-0.3699852053\H,0,1.6652916754,-1.4996982511,
 -0.7972415929\H,0,-0.7022115655,-1.1088163441,-1.3813717745\H,0,-2.200
 5886689,-0.6612163437,-0.5440968006\H,0,-1.0658025588,-1.7597473459,0.
 2402605548\H,0,-1.9868522493,1.0748649943,1.3462806065\H,0,-0.49792132
 68,1.2374311504,2.0476799064\H,0,-1.2503966365,1.4527674084,-1.1544729
 298\\Version=ES64L-G09RevE.01\State=1-A\MP2/GTBas1=-361.9105639\MP4/GT
 Bas1=-361.9985506\CCSD(T)/G3Bas1=-361.9957003\MP2/GTBas2=-361.9399163\
 MP4/GTBas2=-362.0299535\MP2/GTBas3=-362.1983878\MP4/GTBas3=-362.304194
 7\HF/GTLargeXP=-361.0139628\MP2/GTLargeXP=-362.6891729\HF/GFHFB1=-361.
 0423668\HF/GFHFB2=-361.0485038\G4=-362.8447292\FreqCoord=3.5846566901,
 -0.8378836996,-1.1720236117,2.0084846901,0.1670237132,0.9916071442,2.9
 083989585,0.6993700424,3.0179201826,-0.8526491524,0.6170123674,0.46572
 80783,-2.1437799147,-1.6639221423,-0.7646188644,-2.061517794,1.1805611
 334,2.8300034827,-0.7681383609,2.693873675,-1.3044465364,3.1528763792,
 0.1964721201,-2.9060564387,5.5825555043,-0.6625427304,-0.6991707112,3.
 1469451979,-2.8340189765,-1.5065682724,-1.3269875461,-2.0953592219,-2.
 6104143416,-4.1585099153,-1.2495178042,-1.028193943,-2.0140749478,-3.3
 254405468,0.454026649,-3.7546066176,2.031200469,2.5441016443,-0.940934
 9434,2.3384059826,3.8695542309,-2.3629072004,2.7453325366,-2.181637665
 2\PG=C01 [X(C4H9N1O2)]\NImag=0\\0.56286481,0.01639769,0.50964607,0.062
 81724,-0.02181282,0.50638760,-0.13826515,0.02110697,0.04497436,0.53358
 822,0.02685631,-0.09618163,-0.01748654,0.00123836,0.30583848,0.0471861
 5,-0.01568069,-0.11972068,0.16904549,0.17596845,0.86426825,0.01987882,
 0.00305450,0.01084565,-0.21028734,-0.05373315,-0.23222388,0.22154188,-
 0.00542268,0.01615190,-0.03016254,-0.05637091,-0.10860009,-0.14840217,
 0.05662078,0.07491010,-0.01127822,-0.02530427,-0.05259473,-0.23608610,
 -0.14777206,-0.62629546,0.26874177,0.18052164,0.69776691,-0.01092620,0
 .00557868,-0.00287824,-0.14278175,0.00620829,0.01294458,-0.01824578,0.
 00322151,-0.02645197,0.51442935,0.01044642,0.01241014,-0.00181960,0.02
 548217,-0.07969666,-0.00601768,-0.01205260,0.01837538,-0.01190542,-0.0
 1460497,0.42999036,0.02187088,-0.00477562,0.00788980,0.01164606,-0.010
 14918,-0.06670939,-0.04011101,-0.00376051,-0.01998516,0.01165990,0.076
 35205,0.48639460,-0.00105362,0.00353850,0.00039268,-0.01032483,-0.0268
 3560,-0.01435201,-0.00542605,0.00323149,-0.00236427,-0.10691220,-0.046
 06675,-0.02223877,0.53522999,0.00052365,-0.00079419,0.00062704,-0.0091
 3999,0.00721212,-0.00137489,0.00402903,-0.00158530,0.00442546,-0.02200
 277,-0.12878048,-0.03410979,-0.03948387,0.50913787,-0.00025947,0.00069
 106,0.00000723,-0.00699515,-0.00385291,-0.00304573,0.00035729,0.000358
 43,0.00092439,-0.02105842,-0.04030950,-0.08859246,-0.03076804,-0.04083
 106,0.57170025,-0.00550253,-0.00042738,-0.00249793,-0.02942108,0.01290
 757,0.03074383,-0.00368806,0.00214029,0.00531465,-0.12972086,0.0087053
 7,0.03728474,0.00975306,-0.00581789,-0.01214012,0.67406711,0.00101350,
 0.00037261,0.00087693,0.00979813,-0.00143172,-0.00684794,0.00011604,0.
 00012539,-0.00214520,0.02824304,-0.07966240,-0.07124655,0.01263600,-0.
 00940289,-0.02806638,-0.05106357,0.36309026,-0.00151823,0.00052824,-0.
 00003839,0.00692232,-0.00158092,0.00138636,-0.00284771,0.00069156,0.00
 078620,0.03052612,-0.02845009,-0.17185818,0.01109098,-0.01463043,-0.02
 859380,0.10928708,0.18809333,0.44349023,-0.00173159,-0.00170622,0.0032
 1485,-0.00019105,0.02875093,-0.02335639,-0.00434716,-0.00406420,-0.000
 53569,-0.08886831,0.01952364,-0.02539057,0.00288250,-0.01801941,0.0091
 3114,0.00536086,-0.01243958,0.02102100,0.48459346,0.00129896,0.0009089
 6,-0.00130086,0.00640181,-0.01318138,0.01535760,0.00234446,0.00053503,
 -0.00016764,-0.02452328,-0.12845278,0.02285178,0.00086212,-0.04250223,
 0.02985467,-0.00630933,0.00728466,0.01847926,0.01712973,0.20097387,-0.
 00034931,-0.00106280,0.00096873,-0.00483719,0.01873915,-0.01829549,-0.
 00461128,-0.00148728,0.00253484,0.00752448,0.05776557,-0.09166149,-0.0
 0113208,0.00066730,0.00078412,0.01240037,0.03423867,-0.04899623,0.2127
 9873,-0.11225507,0.26464479,-0.06210199,0.02800743,-0.04669961,0.00690
 266,-0.01471674,0.01176968,-0.00059839,0.00412545,0.00324673,0.0004038
 5,0.00021350,0.00035133,-0.00009709,0.00000524,0.00014491,0.00025656,0
 .00017395,-0.00054838,-0.00151142,0.00087563,-0.00126914,0.05984839,0.
 02796979,-0.10792720,0.11577813,-0.00459450,0.00738547,-0.01035582,0.0
 0172083,-0.00326027,-0.00297952,-0.00043079,0.00018845,0.00046074,-0.0
 0016216,0.00003740,0.00073756,-0.00021503,-0.00028837,0.00011892,0.001
 32193,-0.00136203,0.00012798,-0.03114346,0.11932648,-0.04612347,0.1176
 0347,-0.23529947,-0.00922147,0.01397714,-0.02125550,0.00424632,-0.0043
 4850,-0.00322949,-0.00001423,-0.00017960,-0.00113465,-0.00001697,-0.00
 026767,0.00006124,0.00001067,-0.00019382,0.00064732,-0.00114273,0.0000
 5407,0.00116819,0.05167266,-0.12569984,0.25684350,-0.30445939,-0.02376
 816,-0.06157371,-0.02168095,-0.00165076,-0.00624474,0.00458855,-0.0007
 2992,-0.00149958,0.00046682,0.00071486,0.00276611,0.00048296,0.0002694
 3,0.00007677,-0.00108246,0.00027130,-0.00011949,-0.00021770,0.00005699
 ,-0.00005934,-0.00325296,-0.00063365,0.00009151,0.32977173,-0.02542888
 ,-0.04784340,-0.00430735,0.01433058,-0.00020446,0.00218081,-0.00134566
 ,-0.00056167,0.00211557,0.00044793,-0.00024523,-0.00210090,-0.00042889
 ,0.00007783,-0.00040208,0.00088191,-0.00007297,0.00011926,0.00027472,0
 .00009294,-0.00062221,0.01631996,0.00151553,0.00223651,0.02514240,0.04
 857849,-0.06623257,-0.00442875,-0.06324661,0.02898177,0.00260145,0.006
 18880,-0.00273942,0.00111087,0.00243985,0.00034637,-0.00163007,-0.0044
 8398,-0.00033858,-0.00035697,-0.00056355,0.00148721,-0.00038802,0.0004
 5320,-0.00028242,0.00018515,0.00089770,-0.02484697,-0.00490338,-0.0041
 3435,0.06718783,0.00739687,0.06406790,-0.05670241,-0.05176349,-0.00702
 438,0.00639115,0.01863522,-0.00188933,-0.00031715,-0.00103149,0.002862
 64,-0.00040441,-0.00152141,0.00007719,-0.00171129,0.00033592,-0.000006
 15,-0.00012869,-0.00024988,-0.00018383,-0.00004119,-0.00038743,0.00010
 467,0.00071003,0.00625934,0.00097085,-0.00455685,-0.03032238,-0.003946
 48,0.05798963,-0.05456123,-0.28848292,-0.04036310,-0.00396927,-0.01059
 938,-0.00191984,0.00187568,0.00045227,-0.00027746,0.00052562,-0.000528
 05,-0.00058583,-0.00071918,0.00006063,-0.00074560,0.00031382,0.0002313
 4,0.00013930,0.00027812,0.00042747,-0.00017716,-0.00391584,-0.01536437
 ,-0.00337585,0.00015830,-0.00140889,0.00050203,0.06017744,0.31467573,-
 0.00820236,-0.04516468,-0.04525644,-0.00961311,-0.02637119,-0.00452491
 ,0.00347359,0.00229582,-0.00462272,0.00093951,0.00207971,-0.00056604,0
 .00029653,-0.00025202,0.00067430,0.00000788,0.00000675,0.00016117,-0.0
 0102574,0.00034480,-0.00032507,0.00618921,0.02731068,0.00565925,-0.000
 96179,-0.00691111,-0.00186237,0.00897609,0.04593073,0.05081381,-0.0012
 3035,-0.00006024,-0.00006802,0.00106085,0.00050012,-0.00039832,0.00010
 233,-0.00000125,0.00037540,0.00574127,-0.00162358,-0.01270375,-0.09092
 786,0.02167442,0.09805020,-0.00022399,-0.00227629,-0.00239432,0.000110
 71,0.00134172,-0.00061017,-0.00059204,-0.00017445,0.00013053,0.0000154
 9,-0.00004081,-0.00000907,-0.00100363,0.00007735,-0.00017340,0.0978385
 9,-0.00006986,0.00036010,-0.00010128,0.00068174,0.00018029,0.00023835,
 -0.00012110,0.00018350,0.00012024,0.01278699,-0.00360450,-0.02123278,0
 .02092829,-0.05951146,-0.04587716,-0.00356317,-0.00335694,-0.00424287,
 -0.00017803,0.00204523,0.00126070,-0.00041365,-0.00017342,0.00017277,0
 .00000621,-0.00007465,0.00017552,0.00032159,0.00014226,0.00010876,-0.0
 2318047,0.06075164,0.00052443,-0.00030034,0.00033436,0.00157003,-0.000
 62328,-0.00110645,-0.00051755,0.00032285,0.00057582,0.00665800,0.00164
 605,-0.01291846,0.09502886,-0.04933158,-0.26014196,-0.00253960,-0.0030
 9241,-0.00221186,-0.00035374,0.00122327,0.00237808,0.00013067,-0.00027
 045,0.00012095,0.00005993,0.00042457,0.00032454,-0.00013479,0.00076980
 ,0.00001696,-0.10644949,0.05436528,0.28267503,-0.00005114,0.00059519,-
 0.00009435,0.00282639,-0.00253804,-0.00019798,-0.00127737,0.00004836,-
 0.00137170,-0.01917733,0.00375019,-0.00283050,-0.28749956,0.05336226,-
 0.02979146,0.00188648,0.00051130,0.00111261,0.00266573,-0.00000436,0.0
 0079416,-0.00000259,0.00010070,0.00003769,0.00002259,-0.00010938,-0.00
 004215,-0.00009556,-0.00027744,0.00011860,-0.01154247,0.00255583,-0.00
 236755,0.31459151,0.00012282,0.00037548,0.00002291,0.00154206,-0.00501
 748,-0.00144338,-0.00205296,0.00091647,-0.00138307,-0.03027029,0.00210
 777,-0.00382932,0.05263379,-0.05661918,0.00641950,0.00058804,0.0014096
 9,0.00209183,0.00089961,0.00316396,-0.00158513,0.00000871,-0.00002703,
 0.00000687,0.00001106,0.00014332,0.00004575,-0.00032257,0.00029957,0.0
 0019581,0.00583441,-0.00240498,0.00140743,-0.05600303,0.06106995,0.000
 29086,0.00023903,0.00014797,0.00226461,-0.00320580,-0.00057669,-0.0014
 1619,0.00050229,-0.00089109,-0.01768592,0.00222951,-0.00323344,-0.0294
 2178,0.00627116,-0.04910420,0.00071109,0.00104225,0.00092760,0.0016534
 8,0.00092202,-0.00003993,-0.00012291,-0.00023867,-0.00000024,-0.000015
 15,0.00021546,0.00014612,-0.00010706,0.00036310,-0.00003546,0.02809728
 ,-0.00612950,0.00488026,0.03434585,-0.00518423,0.04970884,-0.00004102,
 -0.00034818,0.00010000,0.00051154,-0.00006188,0.00065076,-0.00002698,0
 .00002007,-0.00009407,0.00067684,-0.01047783,0.01015783,-0.04659911,0.
 01525278,-0.01211449,-0.00038602,0.00068675,0.00061133,-0.00042943,-0.
 00561218,-0.00045880,0.00009762,0.00005132,-0.00015564,-0.00002455,0.0
 0017856,-0.00005489,-0.00015973,0.00009897,0.00020514,0.00026118,-0.01
 140130,0.00720569,-0.00204442,0.02589833,-0.01895193,0.04871918,-0.000
 27057,-0.00018298,-0.00013879,0.00075110,0.00013430,0.00091684,-0.0004
 2793,-0.00008034,-0.00063786,0.00415941,-0.01692820,0.01746642,0.01448
 719,-0.21876140,0.12636330,0.00021357,0.00198953,-0.00023318,-0.002885
 48,-0.00673344,-0.00104777,0.00017289,0.00001135,-0.00004802,-0.000043
 09,0.00006247,0.00001768,-0.00008056,0.00012578,0.00010047,-0.00084145
 ,0.00704828,-0.00496945,0.00031987,-0.00513734,0.00359195,-0.01426730,
 0.23721416,-0.00000234,0.00028866,-0.00005678,-0.00024133,0.00057593,0
 .00080150,0.00024272,-0.00005898,-0.00007850,0.00312300,-0.00995681,0.
 00721414,-0.01125921,0.13005365,-0.14363638,0.00000165,-0.00047501,0.0
 0008317,-0.00148639,-0.00365329,0.00160690,-0.00007780,-0.00014708,0.0
 0006291,0.00001448,-0.00012932,0.00007448,0.00013215,-0.00013841,-0.00
 018798,-0.00348028,0.02237351,-0.01468384,0.00026828,0.00210560,-0.002
 46322,0.01296966,-0.14052649,0.15161833,-0.00053470,-0.00011337,-0.000
 51368,-0.00097356,0.00136109,0.00197853,0.00035815,0.00028717,0.001212
 18,-0.01885591,0.00974416,-0.00197084,0.00052550,-0.00060846,0.0003171
 6,-0.33351577,0.13754031,-0.05440779,0.00394605,-0.00092827,-0.0034707
 5,-0.00004471,0.00002499,0.00013991,-0.00003569,0.00008323,0.00027776,
 -0.00000919,0.00001594,0.00004509,-0.00015045,-0.00001597,0.00005618,0
 .00037252,0.00025601,-0.00016580,0.00014442,-0.00023701,-0.00014793,0.
 36723258,0.00063111,0.00016783,0.00031117,-0.00186041,0.00076566,-0.00
 245631,-0.00058546,0.00065026,0.00090210,0.00336752,-0.00687223,0.0122
 9330,0.00098269,-0.00036206,0.00053575,0.18485916,-0.10719603,0.001665
 82,-0.00075360,0.00098737,-0.00239153,-0.00006238,0.00006316,0.0000622
 6,0.00012891,-0.00012247,-0.00015873,0.00002556,-0.00006884,0.00001098
 ,-0.00078036,0.00022464,-0.00009772,-0.00074821,-0.00026091,-0.0010546
 7,0.00022043,-0.00011440,-0.00021620,-0.16172673,0.10345902,0.00167565
 ,0.00010389,0.00102033,0.00095514,-0.00274598,-0.00791142,-0.00202506,
 0.00075073,0.00226273,0.03795126,-0.01660035,0.00010560,0.00077848,0.0
 0106192,0.00065802,-0.07701361,0.01019592,-0.05728252,-0.00255857,0.00
 024162,0.00404967,-0.00005356,0.00003432,0.00000106,0.00034223,-0.0002
 1173,-0.00042750,-0.00003802,-0.00001171,0.00002906,-0.00030759,0.0001
 5599,-0.00007494,-0.00073105,-0.00029400,-0.00011665,-0.00011181,0.000
 20024,0.00003679,0.05783749,-0.00750864,0.06199075,-0.00032502,-0.0000
 3417,-0.00134516,0.00109276,0.00259865,0.00554712,-0.00210148,-0.00208
 438,-0.00211637,0.01524847,0.00965967,0.00707842,-0.00214175,0.0014639
 2,0.00297930,-0.18791454,-0.12356630,-0.12049433,-0.00127618,-0.000656
 97,0.00158214,0.00030936,-0.00010903,-0.00039699,-0.00010322,0.0000699
 8,0.00012135,0.00012444,-0.00015195,-0.00013386,0.00068662,0.00101393,
 0.00090308,-0.00005227,-0.00012956,0.00010968,-0.00003094,-0.00003832,
 -0.00000394,-0.01822125,-0.02381733,-0.01669523,0.19496447,0.00021061,
 0.00043703,0.00049551,-0.00230233,-0.00098795,-0.00450642,-0.00144617,
 0.00038331,0.00391586,-0.00596687,-0.01018673,0.00180982,0.00243766,0.
 00049532,-0.00456396,-0.14213491,-0.17265220,-0.16169493,-0.00023396,0
 .00104131,0.00066467,-0.00013489,0.00001386,0.00016899,0.00006436,0.00
 002984,0.00001563,-0.00016457,0.00012836,0.00014393,-0.00077298,-0.000
 98590,-0.00115076,-0.00007582,0.00020611,0.00029355,0.00006415,0.00045
 515,0.00026415,0.01437712,0.00762672,0.01467418,0.13576556,0.17425391,
 -0.00040837,-0.00028573,-0.00013014,-0.00039078,-0.00063911,-0.0015632
 5,-0.00141395,0.00183047,0.00053253,-0.01726873,-0.02630214,-0.0256159
 1,0.00331858,-0.00041593,-0.00318689,-0.10405512,-0.12200310,-0.138793
 55,0.00005845,0.00112569,0.00262821,0.00005409,-0.00005159,-0.00000652
 ,-0.00004429,0.00004148,0.00011051,0.00000561,0.00001650,-0.00006448,-
 0.00056842,-0.00099018,-0.00006132,0.00003999,0.00032934,0.00001496,0.
 00003008,-0.00025602,0.00007026,-0.00222774,-0.00203289,-0.00291252,0.
 12305409,0.14958702,0.16902747,0.00018148,-0.00005775,0.00035028,0.001
 55214,0.00047964,-0.00120351,-0.00015398,0.00000972,0.00004459,-0.0010
 7386,-0.00189284,0.00235298,0.00381933,-0.00184428,0.00207654,0.000259
 93,-0.00139470,0.00194263,-0.40094529,0.00811038,-0.21840648,-0.000327
 27,0.00001417,-0.00022862,0.00006564,-0.00005326,0.00009024,-0.0000851
 6,0.00007364,-0.00014137,-0.00014626,0.00064899,0.00022584,-0.00062251
 ,0.00098359,0.00041389,-0.00066857,-0.00101233,-0.00005273,-0.00023798
 ,0.00011911,-0.00000574,-0.00025945,0.00031307,-0.00018350,0.39864184,
 0.00028237,0.00058218,-0.00061883,-0.00309552,-0.00561555,0.00434308,0
 .00200371,0.00140408,0.00057160,0.03325999,-0.00811484,0.02055635,0.00
 195872,0.00129802,-0.00031162,-0.00107845,-0.00043996,-0.00109510,-0.0
 2789818,-0.02522894,0.00716492,0.00048421,-0.00013899,-0.00016878,0.00
 000176,0.00003331,-0.00018503,0.00008872,-0.00009095,0.00017057,0.0003
 2386,-0.00082408,-0.00032328,-0.00148743,-0.00022539,0.00014253,-0.000
 30268,0.00089709,-0.00035990,-0.00006021,0.00105228,-0.00004640,0.0000
 1630,-0.00025816,0.00004619,-0.00449716,0.03566990,0.00000912,-0.00063
 865,-0.00041280,0.00102535,0.00256484,-0.00163994,-0.00000129,-0.00016
 467,-0.00012612,-0.02631571,0.00309837,-0.01484499,0.00098561,-0.00153
 620,0.00205544,0.00099720,0.00000458,-0.00016074,-0.19174541,0.0267369
 2,-0.12234301,0.00005909,0.00007801,0.00049580,-0.00002077,-0.00004583
 ,0.00001527,0.00020084,-0.00012650,0.00009090,0.00050943,-0.00039733,-
 0.00010717,0.00070956,0.00109407,0.00063518,0.00001114,-0.00079934,-0.
 00046180,0.00104023,0.00013530,-0.00142846,-0.00018930,-0.00011725,-0.
 00004935,0.21272493,-0.02988629,0.13828180\\-0.00000453,0.00001975,0.0
 0000758,0.00001039,-0.00000322,-0.00000880,0.,-0.00000227,0.00000473,-
 0.00000455,-0.00000316,0.00000914,-0.00000278,-0.00000321,-0.00000070,
 0.00000533,0.00000260,-0.00000541,-0.00000274,0.00000633,-0.00000303,-
 0.00000347,-0.00000013,-0.00000025,0.00000048,-0.00000327,-0.00000308,
 0.00000036,-0.00000217,-0.00000262,0.00000072,0.00000148,-0.00000199,-
 0.00000012,-0.00000021,0.00000084,0.00000011,-0.00000157,-0.00000269,0
 .00000250,-0.00000510,0.00000209,-0.00000037,-0.00000622,0.00000128,-0
 .00000134,0.00000037,0.00000291\\\@
 Job cpu time:       0 days  4 hours 35 minutes  1.9 seconds.
 File lengths (MBytes):  RWF=  21860 Int=      0 D2E=      0 Chk=     49 Scr=      1
 Normal termination of Gaussian 09 at Fri Aug 19 23:17:56 2022.
