 Entering Gaussian System, Link 0=g09
 Input=G4.Frag_962.gjf
 Output=G4.Frag_962.log
 Initial command:
 /public/home/users/caep010/software/Gaussian09/g09/l1.exe "/public/home/users/caep010/.cache/gau_scr/Gau-171952.inp" -scrdir="/public/home/users/caep010/.cache/gau_scr/"
 Entering Link 1 = /public/home/users/caep010/software/Gaussian09/g09/l1.exe PID=    171953.
  
 Copyright (c) 1988,1990,1992,1993,1995,1998,2003,2009,2015,
            Gaussian, Inc.  All Rights Reserved.
  
 This is part of the Gaussian(R) 09 program.  It is based on
 the Gaussian(R) 03 system (copyright 2003, Gaussian, Inc.),
 the Gaussian(R) 98 system (copyright 1998, Gaussian, Inc.),
 the Gaussian(R) 94 system (copyright 1995, Gaussian, Inc.),
 the Gaussian 92(TM) system (copyright 1992, Gaussian, Inc.),
 the Gaussian 90(TM) system (copyright 1990, Gaussian, Inc.),
 the Gaussian 88(TM) system (copyright 1988, Gaussian, Inc.),
 the Gaussian 86(TM) system (copyright 1986, Carnegie Mellon
 University), and the Gaussian 82(TM) system (copyright 1983,
 Carnegie Mellon University). Gaussian is a federally registered
 trademark of Gaussian, Inc.
  
 This software contains proprietary and confidential information,
 including trade secrets, belonging to Gaussian, Inc.
  
 This software is provided under written license and may be
 used, copied, transmitted, or stored only in accord with that
 written license.
  
 The following legend is applicable only to US Government
 contracts under FAR:
  
                    RESTRICTED RIGHTS LEGEND
  
 Use, reproduction and disclosure by the US Government is
 subject to restrictions as set forth in subparagraphs (a)
 and (c) of the Commercial Computer Software - Restricted
 Rights clause in FAR 52.227-19.
  
 Gaussian, Inc.
 340 Quinnipiac St., Bldg. 40, Wallingford CT 06492
  
  
 ---------------------------------------------------------------
 Warning -- This program may not be used in any manner that
 competes with the business of Gaussian, Inc. or will provide
 assistance to any competitor of Gaussian, Inc.  The licensee
 of this program is prohibited from giving any competitor of
 Gaussian, Inc. access to this program.  By using this program,
 the user acknowledges that Gaussian, Inc. is engaged in the
 business of creating and licensing software in the field of
 computational chemistry and represents and warrants to the
 licensee that it is not a competitor of Gaussian, Inc. and that
 it will not use this program in any manner prohibited above.
 ---------------------------------------------------------------
  

 Cite this work as:
 Gaussian 09, Revision E.01,
 M. J. Frisch, G. W. Trucks, H. B. Schlegel, G. E. Scuseria, 
 M. A. Robb, J. R. Cheeseman, G. Scalmani, V. Barone, B. Mennucci, 
 G. A. Petersson, H. Nakatsuji, M. Caricato, X. Li, H. P. Hratchian, 
 A. F. Izmaylov, J. Bloino, G. Zheng, J. L. Sonnenberg, M. Hada, 
 M. Ehara, K. Toyota, R. Fukuda, J. Hasegawa, M. Ishida, T. Nakajima, 
 Y. Honda, O. Kitao, H. Nakai, T. Vreven, J. A. Montgomery, Jr., 
 J. E. Peralta, F. Ogliaro, M. Bearpark, J. J. Heyd, E. Brothers, 
 K. N. Kudin, V. N. Staroverov, T. Keith, R. Kobayashi, J. Normand, 
 K. Raghavachari, A. Rendell, J. C. Burant, S. S. Iyengar, J. Tomasi, 
 M. Cossi, N. Rega, J. M. Millam, M. Klene, J. E. Knox, J. B. Cross, 
 V. Bakken, C. Adamo, J. Jaramillo, R. Gomperts, R. E. Stratmann, 
 O. Yazyev, A. J. Austin, R. Cammi, C. Pomelli, J. W. Ochterski, 
 R. L. Martin, K. Morokuma, V. G. Zakrzewski, G. A. Voth, 
 P. Salvador, J. J. Dannenberg, S. Dapprich, A. D. Daniels, 
 O. Farkas, J. B. Foresman, J. V. Ortiz, J. Cioslowski, 
 and D. J. Fox, Gaussian, Inc., Wallingford CT, 2013.
 
 ******************************************
 Gaussian 09:  ES64L-G09RevE.01 30-Nov-2015
                22-Aug-2022 
 ******************************************
 %nproc=32
 Will use up to   32 processors via shared memory.
 %mem=180MB
 %chk=G4.Frag_962.chk
 -----
 #P G4
 -----
 1/14=-1,18=20,19=15,26=3,38=1/1,3;
 2/9=110,12=2,17=6,18=5,40=1/2;
 3/5=35,7=104,11=2,16=1,25=1,30=1,71=1,74=-5/1,2,3;
 4//1;
 5/5=2,38=5/2;
 6/7=2,8=2,9=2,10=2,28=1/1;
 7//1,2,3,16;
 1/14=-1,18=20,19=15,26=3/3(2);
 2/9=110/2;
 99//99;
 2/9=110/2;
 3/5=35,7=104,11=2,16=1,25=1,30=1,71=1,74=-5/1,2,3;
 4/5=5,16=3,69=1/1;
 5/5=2,38=5/2;
 7//1,2,3,16;
 1/14=-1,18=20,19=15,26=3/3(-5);
 2/9=110/2;
 6/7=2,8=2,9=2,10=2,19=2,28=1/1;
 99/9=1/99;
 Leave Link    1 at Mon Aug 22 05:35:14 2022, MaxMem=    23592960 cpu:         3.1
 (Enter /public/home/users/caep010/software/Gaussian09/g09/l101.exe)
 --------
 Frag_962
 --------
 Symbolic Z-matrix:
 Charge =  0 Multiplicity = 1
 C                     1.9333    0.2282   -0.143 
 C                     0.7692   -0.324    -0.4976 
 C                    -0.4866   -0.1176    0.3198 
 N                    -0.9507    1.2634    0.1875 
 N                    -1.5434   -1.0305   -0.12 
 H                     2.0113    0.8505    0.7432 
 H                     2.8217    0.0528   -0.741 
 H                     0.7405   -0.9578   -1.3798 
 H                    -0.2626   -0.3315    1.3903 
 H                    -0.2566    1.8943    0.6503 
 H                    -1.8369    1.3617    0.7347 
 H                    -1.2072   -2.015    -0.0068 
 H                    -1.732    -0.8746   -1.1377 
 
 NAtoms=     13 NQM=       13 NQMF=       0 NMMI=      0 NMMIF=      0
                NMic=       0 NMicF=      0.
                    Isotopes and Nuclear Properties:
 (Nuclear quadrupole moments (NQMom) in fm**2, nuclear magnetic moments (NMagM)
  in nuclear magnetons)

  Atom         1           2           3           4           5           6           7           8           9          10
 IAtWgt=          12          12          12          14          14           1           1           1           1           1
 AtmWgt=  12.0000000  12.0000000  12.0000000  14.0030740  14.0030740   1.0078250   1.0078250   1.0078250   1.0078250   1.0078250
 NucSpn=           0           0           0           2           2           1           1           1           1           1
 AtZEff=   0.0000000   0.0000000   0.0000000   0.0000000   0.0000000   0.0000000   0.0000000   0.0000000   0.0000000   0.0000000
 NQMom=    0.0000000   0.0000000   0.0000000   2.0440000   2.0440000   0.0000000   0.0000000   0.0000000   0.0000000   0.0000000
 NMagM=    0.0000000   0.0000000   0.0000000   0.4037610   0.4037610   2.7928460   2.7928460   2.7928460   2.7928460   2.7928460
 AtZNuc=   6.0000000   6.0000000   6.0000000   7.0000000   7.0000000   1.0000000   1.0000000   1.0000000   1.0000000   1.0000000

  Atom        11          12          13
 IAtWgt=           1           1           1
 AtmWgt=   1.0078250   1.0078250   1.0078250
 NucSpn=           1           1           1
 AtZEff=   0.0000000   0.0000000   0.0000000
 NQMom=    0.0000000   0.0000000   0.0000000
 NMagM=    2.7928460   2.7928460   2.7928460
 AtZNuc=   1.0000000   1.0000000   1.0000000
 Leave Link  101 at Mon Aug 22 05:35:14 2022, MaxMem=    23592960 cpu:        11.5
 (Enter /public/home/users/caep010/software/Gaussian09/g09/l103.exe)

 GradGradGradGradGradGradGradGradGradGradGradGradGradGradGradGradGradGrad
 Berny optimization.
 Initialization pass.
                           ----------------------------
                           !    Initial Parameters    !
                           ! (Angstroms and Degrees)  !
 --------------------------                            --------------------------
 ! Name  Definition              Value          Derivative Info.                !
 --------------------------------------------------------------------------------
 ! R1    R(1,2)                  1.3363         estimate D2E/DX2                !
 ! R2    R(1,6)                  1.0857         estimate D2E/DX2                !
 ! R3    R(1,7)                  1.0852         estimate D2E/DX2                !
 ! R4    R(2,3)                  1.5125         estimate D2E/DX2                !
 ! R5    R(2,8)                  1.0866         estimate D2E/DX2                !
 ! R6    R(3,4)                  1.4629         estimate D2E/DX2                !
 ! R7    R(3,5)                  1.4641         estimate D2E/DX2                !
 ! R8    R(3,9)                  1.1144         estimate D2E/DX2                !
 ! R9    R(4,10)                 1.0459         estimate D2E/DX2                !
 ! R10   R(4,11)                 1.0462         estimate D2E/DX2                !
 ! R11   R(5,12)                 1.0465         estimate D2E/DX2                !
 ! R12   R(5,13)                 1.0467         estimate D2E/DX2                !
 ! A1    A(2,1,6)              121.0668         estimate D2E/DX2                !
 ! A2    A(2,1,7)              120.0089         estimate D2E/DX2                !
 ! A3    A(6,1,7)              118.9234         estimate D2E/DX2                !
 ! A4    A(1,2,3)              121.5647         estimate D2E/DX2                !
 ! A5    A(1,2,8)              118.6495         estimate D2E/DX2                !
 ! A6    A(3,2,8)              119.7622         estimate D2E/DX2                !
 ! A7    A(2,3,4)              110.0808         estimate D2E/DX2                !
 ! A8    A(2,3,5)              110.6014         estimate D2E/DX2                !
 ! A9    A(2,3,9)              109.029          estimate D2E/DX2                !
 ! A10   A(4,3,5)              109.4179         estimate D2E/DX2                !
 ! A11   A(4,3,9)              109.3804         estimate D2E/DX2                !
 ! A12   A(5,3,9)              108.2979         estimate D2E/DX2                !
 ! A13   A(3,4,10)             108.595          estimate D2E/DX2                !
 ! A14   A(3,4,11)             108.0677         estimate D2E/DX2                !
 ! A15   A(10,4,11)            105.9043         estimate D2E/DX2                !
 ! A16   A(3,5,12)             108.7965         estimate D2E/DX2                !
 ! A17   A(3,5,13)             109.2233         estimate D2E/DX2                !
 ! A18   A(12,5,13)            107.6493         estimate D2E/DX2                !
 ! D1    D(6,1,2,3)             -0.4397         estimate D2E/DX2                !
 ! D2    D(6,1,2,8)           -178.6695         estimate D2E/DX2                !
 ! D3    D(7,1,2,3)            179.1994         estimate D2E/DX2                !
 ! D4    D(7,1,2,8)              0.9696         estimate D2E/DX2                !
 ! D5    D(1,2,3,4)             70.323          estimate D2E/DX2                !
 ! D6    D(1,2,3,5)           -168.6411         estimate D2E/DX2                !
 ! D7    D(1,2,3,9)            -49.6652         estimate D2E/DX2                !
 ! D8    D(8,2,3,4)           -111.4665         estimate D2E/DX2                !
 ! D9    D(8,2,3,5)              9.5693         estimate D2E/DX2                !
 ! D10   D(8,2,3,9)            128.5452         estimate D2E/DX2                !
 ! D11   D(2,3,4,10)           -67.6136         estimate D2E/DX2                !
 ! D12   D(2,3,4,11)           177.9378         estimate D2E/DX2                !
 ! D13   D(5,3,4,10)           170.6442         estimate D2E/DX2                !
 ! D14   D(5,3,4,11)            56.1956         estimate D2E/DX2                !
 ! D15   D(9,3,4,10)            52.1616         estimate D2E/DX2                !
 ! D16   D(9,3,4,11)           -62.2869         estimate D2E/DX2                !
 ! D17   D(2,3,5,12)            59.4784         estimate D2E/DX2                !
 ! D18   D(2,3,5,13)           -57.7709         estimate D2E/DX2                !
 ! D19   D(4,3,5,12)          -179.0933         estimate D2E/DX2                !
 ! D20   D(4,3,5,13)            63.6575         estimate D2E/DX2                !
 ! D21   D(9,3,5,12)           -59.9394         estimate D2E/DX2                !
 ! D22   D(9,3,5,13)          -177.1887         estimate D2E/DX2                !
 --------------------------------------------------------------------------------
 Trust Radius=3.00D-01 FncErr=1.00D-07 GrdErr=1.00D-06
 Number of steps in this run=     62 maximum allowed number of steps=    100.
 GradGradGradGradGradGradGradGradGradGradGradGradGradGradGradGradGradGrad

 Leave Link  103 at Mon Aug 22 05:35:15 2022, MaxMem=    23592960 cpu:         0.3
 (Enter /public/home/users/caep010/software/Gaussian09/g09/l202.exe)
                          Input orientation:                          
 ---------------------------------------------------------------------
 Center     Atomic      Atomic             Coordinates (Angstroms)
 Number     Number       Type             X           Y           Z
 ---------------------------------------------------------------------
      1          6           0        1.933300    0.228200   -0.143000
      2          6           0        0.769200   -0.324000   -0.497600
      3          6           0       -0.486600   -0.117600    0.319800
      4          7           0       -0.950700    1.263400    0.187500
      5          7           0       -1.543400   -1.030500   -0.120000
      6          1           0        2.011300    0.850500    0.743200
      7          1           0        2.821700    0.052800   -0.741000
      8          1           0        0.740500   -0.957800   -1.379800
      9          1           0       -0.262600   -0.331500    1.390300
     10          1           0       -0.256600    1.894300    0.650300
     11          1           0       -1.836900    1.361700    0.734700
     12          1           0       -1.207200   -2.015000   -0.006800
     13          1           0       -1.732000   -0.874600   -1.137700
 ---------------------------------------------------------------------
                    Distance matrix (angstroms):
                    1          2          3          4          5
     1  C    0.000000
     2  C    1.336336   0.000000
     3  C    2.487906   1.512540   0.000000
     4  N    3.081935   2.438700   1.462892   0.000000
     5  N    3.697607   2.447416   1.464116   2.389106   0.000000
     6  H    1.085676   2.112309   2.712193   3.041831   4.113292
     7  H    1.085184   2.100947   3.478388   4.069234   4.540185
     8  H    2.087832   1.086648   2.258396   3.201611   2.609326
     9  H    2.736101   2.151472   1.114405   2.112798   2.100013
    10  H    2.863717   2.700147   2.051797   1.045941   3.286894
    11  H    4.033558   3.339447   2.045429   1.046155   2.557201
    12  H    3.861766   2.646984   2.055738   3.294154   1.046463
    13  H    3.954747   2.639865   2.061159   2.633938   1.046703
                    6          7          8          9         10
     6  H    0.000000
     7  H    1.869739   0.000000
     8  H    3.064639   2.400161   0.000000
     9  H    2.643196   3.768691   3.011962   0.000000
    10  H    2.498303   3.847437   3.640053   2.345596   0.000000
    11  H    3.882015   5.058998   4.061303   2.403156   1.669771
    12  H    4.374052   4.587688   2.606978   2.382925   4.076524
    13  H    4.530568   4.664078   2.485717   2.974034   3.611171
                   11         12         13
    11  H    0.000000
    12  H    3.514036   0.000000
    13  H    2.918548   1.689634   0.000000
 Stoichiometry    C3H8N2
 Framework group  C1[X(C3H8N2)]
 Deg. of freedom    33
 Full point group                 C1      NOp   1
 Largest Abelian subgroup         C1      NOp   1
 Largest concise Abelian subgroup C1      NOp   1
                         Standard orientation:                         
 ---------------------------------------------------------------------
 Center     Atomic      Atomic             Coordinates (Angstroms)
 Number     Number       Type             X           Y           Z
 ---------------------------------------------------------------------
      1          6           0        2.043327   -0.045756    0.080648
      2          6           0        0.847278   -0.558349   -0.223506
      3          6           0       -0.431629    0.039514    0.319387
      4          7           0       -0.683122    1.338648   -0.304356
      5          7           0       -1.565547   -0.850766    0.063910
      6          1           0        2.132874    0.823987    0.724247
      7          1           0        2.945601   -0.502810   -0.312578
      8          1           0        0.804393   -1.442741   -0.853438
      9          1           0       -0.331820    0.171535    1.421434
     10          1           0        0.051278    2.010585    0.016816
     11          1           0       -1.589799    1.706319    0.066043
     12          1           0       -1.382590   -1.771187    0.526983
     13          1           0       -1.643115   -1.023312   -0.965556
 ---------------------------------------------------------------------
 Rotational constants (GHZ):      8.2615253      3.8627827      2.8630508
 Leave Link  202 at Mon Aug 22 05:35:15 2022, MaxMem=    23592960 cpu:         0.3
 (Enter /public/home/users/caep010/software/Gaussian09/g09/l301.exe)
 Standard basis: GTBas3 (6D, 7F)
 Ernie: Thresh=  0.10000D-02 Tol=  0.10000D-05 Strict=F.
 There are   195 symmetry adapted cartesian basis functions of A   symmetry.
 There are   180 symmetry adapted basis functions of A   symmetry.
   180 basis functions,   276 primitive gaussians,   195 cartesian basis functions
    20 alpha electrons       20 beta electrons
       nuclear repulsion energy       177.8983901736 Hartrees.
 IExCor=  402 DFT=T Ex+Corr=B3LYP ExCW=0 ScaHFX=  0.200000
 ScaDFX=  0.800000  0.720000  1.000000  0.810000 ScalE2=  1.000000  1.000000
 IRadAn=      0 IRanWt=     -1 IRanGd=            0 ICorTp=0 IEmpDi=  4
 NAtoms=   13 NActive=   13 NUniq=   13 SFac= 1.00D+00 NAtFMM=   60 NAOKFM=F Big=F
 Integral buffers will be    131072 words long.
 Raffenetti 2 integral format.
 Two-electron integral symmetry is turned on.
 Leave Link  301 at Mon Aug 22 05:35:15 2022, MaxMem=    23592960 cpu:         8.6
 (Enter /public/home/users/caep010/software/Gaussian09/g09/l302.exe)
 NPDir=0 NMtPBC=     1 NCelOv=     1 NCel=       1 NClECP=     1 NCelD=      1
         NCelK=      1 NCelE2=     1 NClLst=     1 CellRange=     0.0.
 One-electron integrals computed using PRISM.
 PrsmSu:  requested number of processors reduced to:   3 ShMem   1 Linda.
 PrsmSu:  requested number of processors reduced to:  11 ShMem   1 Linda.
 NBasis=   180 RedAO= T EigKep=  4.55D-04  NBF=   180
 NBsUse=   180 1.00D-06 EigRej= -1.00D+00 NBFU=   180
 Precomputing XC quadrature grid using
 IXCGrd= 4 IRadAn=           0 IRanWt=          -1 IRanGd=           0 AccXCQ= 0.00D+00.
 Generated NRdTot=       0 NPtTot=           0 NUsed=           0 NTot=          32
 NSgBfM=   195   195   195   195   195 MxSgAt=    13 MxSgA2=    13.
 Leave Link  302 at Mon Aug 22 05:35:16 2022, MaxMem=    23592960 cpu:        11.5
 (Enter /public/home/users/caep010/software/Gaussian09/g09/l303.exe)
 DipDrv:  MaxL=1.
 Leave Link  303 at Mon Aug 22 05:35:16 2022, MaxMem=    23592960 cpu:         1.0
 (Enter /public/home/users/caep010/software/Gaussian09/g09/l401.exe)
 ExpMin= 1.61D-01 ExpMax= 4.17D+03 ExpMxC= 6.27D+02 IAcc=1 IRadAn=         1 AccDes= 0.00D+00
 Harris functional with IExCor=  402 and IRadAn=       1 diagonalized for initial guess.
 HarFok:  IExCor=  402 AccDes= 0.00D+00 IRadAn=         1 IDoV= 1 UseB2=F ITyADJ=14
 ICtDFT=  3500011 ScaDFX=  1.000000  1.000000  1.000000  1.000000
 CalDSu:  requested number of processors reduced to:  20 ShMem   1 Linda.
 FoFCou: FMM=F IPFlag=           0 FMFlag=      100000 FMFlg1=           0
         NFxFlg=           0 DoJE=T BraDBF=F KetDBF=T FulRan=T
         wScrn=  0.000000 ICntrl=     500 IOpCl=  0 I1Cent=   200000004 NGrid=           0
         NMat0=    1 NMatS0=      1 NMatT0=    0 NMatD0=    1 NMtDS0=    0 NMtDT0=    0
 Petite list used in FoFCou.
 CoulSu:  requested number of processors reduced to:  11 ShMem   1 Linda.
 CoulSu:  requested number of processors reduced to:  11 ShMem   1 Linda.
 CoulSu:  requested number of processors reduced to:  12 ShMem   1 Linda.
 CoulSu:  requested number of processors reduced to:  12 ShMem   1 Linda.
 Harris En= -228.636873656747    
 JPrj=0 DoOrth=F DoCkMO=F.
 Leave Link  401 at Mon Aug 22 05:35:16 2022, MaxMem=    23592960 cpu:        10.2
 (Enter /public/home/users/caep010/software/Gaussian09/g09/l502.exe)
 Closed shell SCF:
 Using DIIS extrapolation, IDIIS=  1040.
 Integral symmetry usage will be decided dynamically.
 IVT=      140295 IEndB=      140295 NGot=    23592960 MDV=    23507526
 LenX=    23507526 LenY=    23469060
 Requested convergence on RMS density matrix=1.00D-08 within 128 cycles.
 Requested convergence on MAX density matrix=1.00D-06.
 Requested convergence on             energy=1.00D-06.
 No special actions if energy rises.
 Fock matrices will be formed incrementally for  20 cycles.
 Integral accuracy reduced to 1.0D-05 until final iterations.

 Cycle   1  Pass 0  IDiag  1:
 FoFJK:  IHMeth= 1 ICntrl=       0 DoSepK=F KAlg= 0 I1Cent=   0 FoldK=F
 IRaf= 980000000 NMat=   1 IRICut=       1 DoRegI=T DoRafI=F ISym2E= 0.
 FoFCou: FMM=F IPFlag=           0 FMFlag=      100000 FMFlg1=           0
         NFxFlg=           0 DoJE=F BraDBF=F KetDBF=F FulRan=T
         wScrn=  0.000000 ICntrl=       0 IOpCl=  0 I1Cent=           0 NGrid=           0
         NMat0=    1 NMatS0=      1 NMatT0=    0 NMatD0=    1 NMtDS0=    0 NMtDT0=    0
 Symmetry not used in FoFCou.
 CoulSu:  requested number of processors reduced to:  11 ShMem   1 Linda.
 CalDSu:  requested number of processors reduced to:  20 ShMem   1 Linda.
 E= -228.428698454242    
 DIIS: error= 2.20D-02 at cycle   1 NSaved=   1.
 NSaved= 1 IEnMin= 1 EnMin= -228.428698454242     IErMin= 1 ErrMin= 2.20D-02
 ErrMax= 2.20D-02  0.00D+00 EMaxC= 1.00D-01 BMatC= 1.87D-01 BMatP= 1.87D-01
 IDIUse=3 WtCom= 7.80D-01 WtEn= 2.20D-01
 Coeff-Com:  0.100D+01
 Coeff-En:   0.100D+01
 Coeff:      0.100D+01
 Gap=     0.235 Goal=   None    Shift=    0.000
 GapD=    0.235 DampG=1.000 DampE=0.500 DampFc=0.5000 IDamp=-1.
 Damping current iteration by 5.00D-01
 RMSDP=5.72D-03 MaxDP=1.69D-01              OVMax= 1.63D-01

 Cycle   2  Pass 0  IDiag  1:
 RMSU=  2.83D-03    CP:  9.78D-01
 CoulSu:  requested number of processors reduced to:  11 ShMem   1 Linda.
 CalDSu:  requested number of processors reduced to:  21 ShMem   1 Linda.
 E= -228.505933832506     Delta-E=       -0.077235378263 Rises=F Damp=T
 DIIS: error= 1.15D-02 at cycle   2 NSaved=   2.
 NSaved= 2 IEnMin= 2 EnMin= -228.505933832506     IErMin= 2 ErrMin= 1.15D-02
 ErrMax= 1.15D-02  0.00D+00 EMaxC= 1.00D-01 BMatC= 1.03D-02 BMatP= 1.87D-01
 IDIUse=3 WtCom= 8.85D-01 WtEn= 1.15D-01
 Coeff-Com:  0.990D-01 0.901D+00
 Coeff-En:   0.164D+00 0.836D+00
 Coeff:      0.107D+00 0.893D+00
 Gap=     0.260 Goal=   None    Shift=    0.000
 RMSDP=1.00D-03 MaxDP=4.14D-02 DE=-7.72D-02 OVMax= 9.26D-02

 Cycle   3  Pass 0  IDiag  1:
 RMSU=  8.50D-04    CP:  9.75D-01  8.14D-01
 CoulSu:  requested number of processors reduced to:  11 ShMem   1 Linda.
 CalDSu:  requested number of processors reduced to:  20 ShMem   1 Linda.
 E= -228.608072312678     Delta-E=       -0.102138480172 Rises=F Damp=F
 DIIS: error= 2.29D-03 at cycle   3 NSaved=   3.
 NSaved= 3 IEnMin= 3 EnMin= -228.608072312678     IErMin= 3 ErrMin= 2.29D-03
 ErrMax= 2.29D-03  0.00D+00 EMaxC= 1.00D-01 BMatC= 2.31D-03 BMatP= 1.03D-02
 IDIUse=3 WtCom= 9.77D-01 WtEn= 2.29D-02
 Coeff-Com:  0.758D-02 0.285D+00 0.708D+00
 Coeff-En:   0.000D+00 0.000D+00 0.100D+01
 Coeff:      0.741D-02 0.278D+00 0.714D+00
 Gap=     0.235 Goal=   None    Shift=    0.000
 RMSDP=3.84D-04 MaxDP=1.04D-02 DE=-1.02D-01 OVMax= 1.57D-02

 Cycle   4  Pass 0  IDiag  1:
 RMSU=  3.20D-04    CP:  9.75D-01  8.28D-01  7.55D-01
 CoulSu:  requested number of processors reduced to:  11 ShMem   1 Linda.
 CalDSu:  requested number of processors reduced to:  20 ShMem   1 Linda.
 E= -228.609451562261     Delta-E=       -0.001379249583 Rises=F Damp=F
 DIIS: error= 1.32D-03 at cycle   4 NSaved=   4.
 NSaved= 4 IEnMin= 4 EnMin= -228.609451562261     IErMin= 4 ErrMin= 1.32D-03
 ErrMax= 1.32D-03  0.00D+00 EMaxC= 1.00D-01 BMatC= 7.50D-04 BMatP= 2.31D-03
 IDIUse=3 WtCom= 9.87D-01 WtEn= 1.32D-02
 Coeff-Com: -0.450D-02 0.425D-01 0.376D+00 0.586D+00
 Coeff-En:   0.000D+00 0.000D+00 0.259D+00 0.741D+00
 Coeff:     -0.445D-02 0.419D-01 0.374D+00 0.588D+00
 Gap=     0.241 Goal=   None    Shift=    0.000
 RMSDP=1.59D-04 MaxDP=5.56D-03 DE=-1.38D-03 OVMax= 9.11D-03

 Cycle   5  Pass 0  IDiag  1:
 RMSU=  5.28D-05    CP:  9.75D-01  8.28D-01  8.39D-01  5.87D-01
 CoulSu:  requested number of processors reduced to:  11 ShMem   1 Linda.
 CalDSu:  requested number of processors reduced to:  20 ShMem   1 Linda.
 E= -228.610162616196     Delta-E=       -0.000711053935 Rises=F Damp=F
 DIIS: error= 3.36D-04 at cycle   5 NSaved=   5.
 NSaved= 5 IEnMin= 5 EnMin= -228.610162616196     IErMin= 5 ErrMin= 3.36D-04
 ErrMax= 3.36D-04  0.00D+00 EMaxC= 1.00D-01 BMatC= 2.53D-05 BMatP= 7.50D-04
 IDIUse=3 WtCom= 9.97D-01 WtEn= 3.36D-03
 Coeff-Com: -0.194D-02 0.777D-02 0.141D+00 0.267D+00 0.587D+00
 Coeff-En:   0.000D+00 0.000D+00 0.000D+00 0.000D+00 0.100D+01
 Coeff:     -0.194D-02 0.774D-02 0.140D+00 0.266D+00 0.588D+00
 Gap=     0.240 Goal=   None    Shift=    0.000
 RMSDP=3.41D-05 MaxDP=1.44D-03 DE=-7.11D-04 OVMax= 4.01D-03

 Cycle   6  Pass 0  IDiag  1:
 RMSU=  2.32D-05    CP:  9.75D-01  8.29D-01  8.38D-01  6.08D-01  5.46D-01
 CoulSu:  requested number of processors reduced to:  11 ShMem   1 Linda.
 CalDSu:  requested number of processors reduced to:  20 ShMem   1 Linda.
 E= -228.610179851819     Delta-E=       -0.000017235624 Rises=F Damp=F
 DIIS: error= 1.70D-04 at cycle   6 NSaved=   6.
 NSaved= 6 IEnMin= 6 EnMin= -228.610179851819     IErMin= 6 ErrMin= 1.70D-04
 ErrMax= 1.70D-04  0.00D+00 EMaxC= 1.00D-01 BMatC= 8.13D-06 BMatP= 2.53D-05
 IDIUse=3 WtCom= 9.98D-01 WtEn= 1.70D-03
 Coeff-Com: -0.764D-03 0.786D-03 0.531D-01 0.114D+00 0.389D+00 0.444D+00
 Coeff-En:   0.000D+00 0.000D+00 0.000D+00 0.000D+00 0.262D+00 0.738D+00
 Coeff:     -0.762D-03 0.785D-03 0.530D-01 0.114D+00 0.389D+00 0.444D+00
 Gap=     0.240 Goal=   None    Shift=    0.000
 RMSDP=1.42D-05 MaxDP=6.34D-04 DE=-1.72D-05 OVMax= 1.60D-03

 Cycle   7  Pass 0  IDiag  1:
 RMSU=  4.41D-06    CP:  9.75D-01  8.28D-01  8.39D-01  6.14D-01  6.47D-01
                    CP:  4.79D-01
 CoulSu:  requested number of processors reduced to:  11 ShMem   1 Linda.
 CalDSu:  requested number of processors reduced to:  20 ShMem   1 Linda.
 E= -228.610188264538     Delta-E=       -0.000008412719 Rises=F Damp=F
 DIIS: error= 2.13D-05 at cycle   7 NSaved=   7.
 NSaved= 7 IEnMin= 7 EnMin= -228.610188264538     IErMin= 7 ErrMin= 2.13D-05
 ErrMax= 2.13D-05  0.00D+00 EMaxC= 1.00D-01 BMatC= 7.73D-08 BMatP= 8.13D-06
 IDIUse=1 WtCom= 1.00D+00 WtEn= 0.00D+00
 Coeff-Com: -0.997D-04-0.313D-03 0.101D-01 0.242D-01 0.999D-01 0.152D+00
 Coeff-Com:  0.714D+00
 Coeff:     -0.997D-04-0.313D-03 0.101D-01 0.242D-01 0.999D-01 0.152D+00
 Coeff:      0.714D+00
 Gap=     0.240 Goal=   None    Shift=    0.000
 RMSDP=1.62D-06 MaxDP=4.38D-05 DE=-8.41D-06 OVMax= 8.65D-05

 Initial convergence to 1.0D-05 achieved.  Increase integral accuracy.
 Cycle   8  Pass 1  IDiag  1:
 CoulSu:  requested number of processors reduced to:  11 ShMem   1 Linda.
 CalDSu:  requested number of processors reduced to:  20 ShMem   1 Linda.
 E= -228.610173563823     Delta-E=        0.000014700715 Rises=F Damp=F
 DIIS: error= 1.59D-05 at cycle   1 NSaved=   1.
 NSaved= 1 IEnMin= 1 EnMin= -228.610173563823     IErMin= 1 ErrMin= 1.59D-05
 ErrMax= 1.59D-05  0.00D+00 EMaxC= 1.00D-01 BMatC= 5.95D-08 BMatP= 5.95D-08
 IDIUse=1 WtCom= 1.00D+00 WtEn= 0.00D+00
 Coeff-Com:  0.100D+01
 Coeff:      0.100D+01
 Gap=     0.240 Goal=   None    Shift=    0.000
 RMSDP=1.62D-06 MaxDP=4.38D-05 DE= 1.47D-05 OVMax= 5.50D-05

 Cycle   9  Pass 1  IDiag  1:
 RMSU=  3.40D-06    CP:  1.00D+00
 CoulSu:  requested number of processors reduced to:  11 ShMem   1 Linda.
 CalDSu:  requested number of processors reduced to:  20 ShMem   1 Linda.
 E= -228.610173597972     Delta-E=       -0.000000034149 Rises=F Damp=F
 DIIS: error= 6.13D-06 at cycle   2 NSaved=   2.
 NSaved= 2 IEnMin= 2 EnMin= -228.610173597972     IErMin= 2 ErrMin= 6.13D-06
 ErrMax= 6.13D-06  0.00D+00 EMaxC= 1.00D-01 BMatC= 1.65D-08 BMatP= 5.95D-08
 IDIUse=1 WtCom= 1.00D+00 WtEn= 0.00D+00
 Coeff-Com:  0.278D+00 0.722D+00
 Coeff:      0.278D+00 0.722D+00
 Gap=     0.240 Goal=   None    Shift=    0.000
 RMSDP=1.16D-06 MaxDP=3.83D-05 DE=-3.41D-08 OVMax= 4.07D-05

 Cycle  10  Pass 1  IDiag  1:
 RMSU=  1.13D-06    CP:  1.00D+00  9.25D-01
 CoulSu:  requested number of processors reduced to:  11 ShMem   1 Linda.
 CalDSu:  requested number of processors reduced to:  20 ShMem   1 Linda.
 E= -228.610173605080     Delta-E=       -0.000000007108 Rises=F Damp=F
 DIIS: error= 4.98D-06 at cycle   3 NSaved=   3.
 NSaved= 3 IEnMin= 3 EnMin= -228.610173605080     IErMin= 3 ErrMin= 4.98D-06
 ErrMax= 4.98D-06  0.00D+00 EMaxC= 1.00D-01 BMatC= 8.58D-09 BMatP= 1.65D-08
 IDIUse=1 WtCom= 1.00D+00 WtEn= 0.00D+00
 Coeff-Com: -0.855D-02 0.417D+00 0.591D+00
 Coeff:     -0.855D-02 0.417D+00 0.591D+00
 Gap=     0.240 Goal=   None    Shift=    0.000
 RMSDP=5.27D-07 MaxDP=1.48D-05 DE=-7.11D-09 OVMax= 2.36D-05

 Cycle  11  Pass 1  IDiag  1:
 RMSU=  1.86D-07    CP:  1.00D+00  9.86D-01  6.03D-01
 CoulSu:  requested number of processors reduced to:  11 ShMem   1 Linda.
 CalDSu:  requested number of processors reduced to:  20 ShMem   1 Linda.
 E= -228.610173612437     Delta-E=       -0.000000007357 Rises=F Damp=F
 DIIS: error= 1.04D-06 at cycle   4 NSaved=   4.
 NSaved= 4 IEnMin= 4 EnMin= -228.610173612437     IErMin= 4 ErrMin= 1.04D-06
 ErrMax= 1.04D-06  0.00D+00 EMaxC= 1.00D-01 BMatC= 3.51D-10 BMatP= 8.58D-09
 IDIUse=1 WtCom= 1.00D+00 WtEn= 0.00D+00
 Coeff-Com: -0.124D-01 0.220D+00 0.337D+00 0.456D+00
 Coeff:     -0.124D-01 0.220D+00 0.337D+00 0.456D+00
 Gap=     0.240 Goal=   None    Shift=    0.000
 RMSDP=1.04D-07 MaxDP=4.36D-06 DE=-7.36D-09 OVMax= 1.14D-05

 Cycle  12  Pass 1  IDiag  1:
 RMSU=  5.70D-08    CP:  1.00D+00  9.84D-01  6.18D-01  5.41D-01
 CoulSu:  requested number of processors reduced to:  11 ShMem   1 Linda.
 CalDSu:  requested number of processors reduced to:  20 ShMem   1 Linda.
 E= -228.610173612778     Delta-E=       -0.000000000341 Rises=F Damp=F
 DIIS: error= 2.46D-07 at cycle   5 NSaved=   5.
 NSaved= 5 IEnMin= 5 EnMin= -228.610173612778     IErMin= 5 ErrMin= 2.46D-07
 ErrMax= 2.46D-07  0.00D+00 EMaxC= 1.00D-01 BMatC= 2.29D-11 BMatP= 3.51D-10
 IDIUse=1 WtCom= 1.00D+00 WtEn= 0.00D+00
 Coeff-Com: -0.561D-02 0.822D-01 0.131D+00 0.250D+00 0.543D+00
 Coeff:     -0.561D-02 0.822D-01 0.131D+00 0.250D+00 0.543D+00
 Gap=     0.240 Goal=   None    Shift=    0.000
 RMSDP=2.66D-08 MaxDP=1.11D-06 DE=-3.41D-10 OVMax= 2.96D-06

 Cycle  13  Pass 1  IDiag  1:
 RMSU=  2.00D-08    CP:  1.00D+00  9.84D-01  6.17D-01  5.90D-01  7.38D-01
 CoulSu:  requested number of processors reduced to:  11 ShMem   1 Linda.
 CalDSu:  requested number of processors reduced to:  20 ShMem   1 Linda.
 E= -228.610173612796     Delta-E=       -0.000000000018 Rises=F Damp=F
 DIIS: error= 8.41D-08 at cycle   6 NSaved=   6.
 NSaved= 6 IEnMin= 6 EnMin= -228.610173612796     IErMin= 6 ErrMin= 8.41D-08
 ErrMax= 8.41D-08  0.00D+00 EMaxC= 1.00D-01 BMatC= 1.70D-12 BMatP= 2.29D-11
 IDIUse=1 WtCom= 1.00D+00 WtEn= 0.00D+00
 Coeff-Com: -0.142D-02 0.170D-01 0.278D-01 0.705D-01 0.260D+00 0.626D+00
 Coeff:     -0.142D-02 0.170D-01 0.278D-01 0.705D-01 0.260D+00 0.626D+00
 Gap=     0.240 Goal=   None    Shift=    0.000
 RMSDP=8.52D-09 MaxDP=2.24D-07 DE=-1.78D-11 OVMax= 5.01D-07

 SCF Done:  E(RB3LYP) =  -228.610173613     A.U. after   13 cycles
            NFock= 13  Conv=0.85D-08     -V/T= 2.0087
 KE= 2.266354325948D+02 PE=-8.872033383212D+02 EE= 2.540593419400D+02
 Leave Link  502 at Mon Aug 22 05:35:22 2022, MaxMem=    23592960 cpu:        94.9
 (Enter /public/home/users/caep010/software/Gaussian09/g09/l601.exe)
 Copying SCF densities to generalized density rwf, IOpCl= 0 IROHF=0.

 **********************************************************************

            Population analysis using the SCF density.

 **********************************************************************

 Orbital symmetries:
       Occupied  (A) (A) (A) (A) (A) (A) (A) (A) (A) (A) (A) (A)
                 (A) (A) (A) (A) (A) (A) (A) (A)
       Virtual   (A) (A) (A) (A) (A) (A) (A) (A) (A) (A) (A) (A)
                 (A) (A) (A) (A) (A) (A) (A) (A) (A) (A) (A) (A)
                 (A) (A) (A) (A) (A) (A) (A) (A) (A) (A) (A) (A)
                 (A) (A) (A) (A) (A) (A) (A) (A) (A) (A) (A) (A)
                 (A) (A) (A) (A) (A) (A) (A) (A) (A) (A) (A) (A)
                 (A) (A) (A) (A) (A) (A) (A) (A) (A) (A) (A) (A)
                 (A) (A) (A) (A) (A) (A) (A) (A) (A) (A) (A) (A)
                 (A) (A) (A) (A) (A) (A) (A) (A) (A) (A) (A) (A)
                 (A) (A) (A) (A) (A) (A) (A) (A) (A) (A) (A) (A)
                 (A) (A) (A) (A) (A) (A) (A) (A) (A) (A) (A) (A)
                 (A) (A) (A) (A) (A) (A) (A) (A) (A) (A) (A) (A)
                 (A) (A) (A) (A) (A) (A) (A) (A) (A) (A) (A) (A)
                 (A) (A) (A) (A) (A) (A) (A) (A) (A) (A) (A) (A)
                 (A) (A) (A) (A)
 The electronic state is 1-A.
 Alpha  occ. eigenvalues --  -14.31031 -14.30907 -10.23594 -10.18153 -10.17720
 Alpha  occ. eigenvalues --   -0.90850  -0.82461  -0.76100  -0.62733  -0.55345
 Alpha  occ. eigenvalues --   -0.49939  -0.48674  -0.43462  -0.42234  -0.39975
 Alpha  occ. eigenvalues --   -0.38527  -0.35665  -0.26114  -0.24185  -0.23022
 Alpha virt. eigenvalues --    0.00999   0.07792   0.09703   0.11802   0.14148
 Alpha virt. eigenvalues --    0.14887   0.17288   0.18307   0.19793   0.26222
 Alpha virt. eigenvalues --    0.26937   0.29499   0.32493   0.44664   0.48937
 Alpha virt. eigenvalues --    0.51289   0.51671   0.52889   0.53951   0.58401
 Alpha virt. eigenvalues --    0.60399   0.61400   0.62228   0.65242   0.67350
 Alpha virt. eigenvalues --    0.69571   0.72342   0.75200   0.77002   0.77594
 Alpha virt. eigenvalues --    0.78349   0.80821   0.81829   0.84358   0.85623
 Alpha virt. eigenvalues --    0.87127   0.88605   0.89830   0.91796   0.96998
 Alpha virt. eigenvalues --    0.98849   1.04261   1.06848   1.15299   1.17481
 Alpha virt. eigenvalues --    1.25594   1.28392   1.36584   1.38840   1.44528
 Alpha virt. eigenvalues --    1.47408   1.49856   1.55732   1.58344   1.63398
 Alpha virt. eigenvalues --    1.64979   1.68692   1.70905   1.72252   1.77137
 Alpha virt. eigenvalues --    1.79516   1.86403   1.89681   1.98752   2.04515
 Alpha virt. eigenvalues --    2.05162   2.12417   2.17893   2.20082   2.21069
 Alpha virt. eigenvalues --    2.22648   2.36614   2.41070   2.46990   2.49666
 Alpha virt. eigenvalues --    2.53609   2.57272   2.65122   2.74051   2.76889
 Alpha virt. eigenvalues --    2.77025   2.78537   2.82148   2.84495   2.88817
 Alpha virt. eigenvalues --    2.89388   2.90958   2.92548   2.96467   2.98690
 Alpha virt. eigenvalues --    3.00109   3.04573   3.08178   3.15306   3.20580
 Alpha virt. eigenvalues --    3.22799   3.26091   3.30771   3.34491   3.38510
 Alpha virt. eigenvalues --    3.42050   3.46330   3.49149   3.52514   3.59565
 Alpha virt. eigenvalues --    3.60517   3.68548   3.78544   3.82522   3.87549
 Alpha virt. eigenvalues --    3.89584   3.95677   4.05664   4.08495   4.13380
 Alpha virt. eigenvalues --    4.15841   4.17547   4.21665   4.23934   4.26146
 Alpha virt. eigenvalues --    4.32144   4.35194   4.35913   4.40309   4.43144
 Alpha virt. eigenvalues --    4.44689   4.45339   4.47587   4.50765   4.51368
 Alpha virt. eigenvalues --    4.56671   4.58744   4.59650   4.65236   4.70540
 Alpha virt. eigenvalues --    4.72528   4.74685   4.78265   4.85868   4.86657
 Alpha virt. eigenvalues --    4.92611   4.96896   5.00667   5.06862   5.08146
 Alpha virt. eigenvalues --    5.17494   5.24592   5.29791   5.36088   5.39585
 Alpha virt. eigenvalues --    5.50904   5.58874   5.94805   9.29064   9.70505
 Alpha virt. eigenvalues --   10.54354  11.38513  11.44577  11.68059  12.97439
          Condensed to atoms (all electrons):
               1          2          3          4          5          6
     1  C    5.025348   0.639430  -0.016372  -0.006248   0.006376   0.364386
     2  C    0.639430   4.715555   0.398322  -0.043772  -0.037949  -0.022445
     3  C   -0.016372   0.398322   4.763505   0.351847   0.358475  -0.016492
     4  N   -0.006248  -0.043772   0.351847   6.640549  -0.038123   0.000468
     5  N    0.006376  -0.037949   0.358475  -0.038123   6.594393   0.000285
     6  H    0.364386  -0.022445  -0.016492   0.000468   0.000285   0.606771
     7  H    0.353588  -0.003286   0.004237  -0.000032  -0.000219  -0.044619
     8  H   -0.044625   0.369609  -0.059656   0.002014  -0.000691   0.007078
     9  H   -0.007441  -0.052420   0.368499  -0.048972  -0.039127   0.002830
    10  H    0.003821  -0.000822  -0.040131   0.324842   0.004361   0.002837
    11  H    0.000066   0.006857  -0.035733   0.314199   0.003786  -0.000169
    12  H    0.000222   0.001074  -0.055327   0.004750   0.335475   0.000028
    13  H    0.000252  -0.004665  -0.056539   0.005002   0.328968   0.000025
               7          8          9         10         11         12
     1  C    0.353588  -0.044625  -0.007441   0.003821   0.000066   0.000222
     2  C   -0.003286   0.369609  -0.052420  -0.000822   0.006857   0.001074
     3  C    0.004237  -0.059656   0.368499  -0.040131  -0.035733  -0.055327
     4  N   -0.000032   0.002014  -0.048972   0.324842   0.314199   0.004750
     5  N   -0.000219  -0.000691  -0.039127   0.004361   0.003786   0.335475
     6  H   -0.044619   0.007078   0.002830   0.002837  -0.000169   0.000028
     7  H    0.590709  -0.009855  -0.000245  -0.000054   0.000011  -0.000020
     8  H   -0.009855   0.637864   0.005364  -0.000012  -0.000244   0.002913
     9  H   -0.000245   0.005364   0.701571  -0.004721  -0.005047  -0.000881
    10  H   -0.000054  -0.000012  -0.004721   0.512826  -0.026245  -0.000326
    11  H    0.000011  -0.000244  -0.005047  -0.026245   0.516670  -0.000464
    12  H   -0.000020   0.002913  -0.000881  -0.000326  -0.000464   0.513543
    13  H   -0.000013   0.005407   0.007682  -0.000315  -0.000840  -0.026720
              13
     1  C    0.000252
     2  C   -0.004665
     3  C   -0.056539
     4  N    0.005002
     5  N    0.328968
     6  H    0.000025
     7  H   -0.000013
     8  H    0.005407
     9  H    0.007682
    10  H   -0.000315
    11  H   -0.000840
    12  H   -0.026720
    13  H    0.513675
 Mulliken charges:
               1
     1  C   -0.318802
     2  C    0.034511
     3  C    0.035366
     4  N   -0.506524
     5  N   -0.516009
     6  H    0.099017
     7  H    0.109796
     8  H    0.084835
     9  H    0.072906
    10  H    0.223939
    11  H    0.227153
    12  H    0.225733
    13  H    0.228082
 Sum of Mulliken charges =  -0.00000
 Mulliken charges with hydrogens summed into heavy atoms:
               1
     1  C   -0.109989
     2  C    0.119345
     3  C    0.108272
     4  N   -0.055433
     5  N   -0.062195
 Electronic spatial extent (au):  <R**2>=            468.8165
 Charge=             -0.0000 electrons
 Dipole moment (field-independent basis, Debye):
    X=              0.8163    Y=             -0.4029    Z=              0.7379  Tot=              1.1718
 Quadrupole moment (field-independent basis, Debye-Ang):
   XX=            -33.5179   YY=            -27.0627   ZZ=            -32.4136
   XY=              0.4297   XZ=              0.3061   YZ=              3.3415
 Traceless Quadrupole moment (field-independent basis, Debye-Ang):
   XX=             -2.5199   YY=              3.9354   ZZ=             -1.4155
   XY=              0.4297   XZ=              0.3061   YZ=              3.3415
 Octapole moment (field-independent basis, Debye-Ang**2):
  XXX=              5.4145  YYY=              1.8880  ZZZ=              0.6292  XYY=             -5.5113
  XXY=              2.9520  XXZ=             -3.4205  XZZ=             -3.2567  YZZ=             -3.2940
  YYZ=              2.8445  XYZ=             -0.2308
 Hexadecapole moment (field-independent basis, Debye-Ang**3):
 XXXX=           -384.3195 YYYY=           -153.3008 ZZZZ=            -59.9792 XXXY=            -11.7531
 XXXZ=              3.2006 YYYX=              6.1617 YYYZ=              3.7324 ZZZX=              1.4307
 ZZZY=              4.2972 XXYY=            -82.7991 XXZZ=            -72.7120 YYZZ=            -40.1709
 XXYZ=              7.6959 YYXZ=             -3.1266 ZZXY=              4.4231
 N-N= 1.778983901736D+02 E-N=-8.872033273649D+02  KE= 2.266354325948D+02
 PrsmSu:  requested number of processors reduced to:  11 ShMem   1 Linda.
 No NMR shielding tensors so no spin-rotation constants.
 Leave Link  601 at Mon Aug 22 05:35:22 2022, MaxMem=    23592960 cpu:         3.1
 (Enter /public/home/users/caep010/software/Gaussian09/g09/l701.exe)
 Compute integral first derivatives.
 ... and contract with generalized density number  0.
 PrsmSu:  requested number of processors reduced to:   3 ShMem   1 Linda.
 PrsmSu:  requested number of processors reduced to:   6 ShMem   1 Linda.
 Leave Link  701 at Mon Aug 22 05:35:23 2022, MaxMem=    23592960 cpu:         2.1
 (Enter /public/home/users/caep010/software/Gaussian09/g09/l702.exe)
 L702 exits ... SP integral derivatives will be done elsewhere.
 Leave Link  702 at Mon Aug 22 05:35:23 2022, MaxMem=    23592960 cpu:         0.7
 (Enter /public/home/users/caep010/software/Gaussian09/g09/l703.exe)
 Compute integral first derivatives, UseDBF=F ICtDFT=           0.
 Integral derivatives from FoFJK, PRISM(SPDF).
 Calling FoFJK, ICntrl=      2127 FMM=F ISym2X=0 I1Cent= 0 IOpClX= 0 NMat=1 NMatS=1 NMatT=0.
 FoFJK:  IHMeth= 1 ICntrl=    2127 DoSepK=F KAlg= 0 I1Cent=   0 FoldK=F
 IRaf=         0 NMat=   1 IRICut=       1 DoRegI=T DoRafI=F ISym2E= 0.
 FoFCou: FMM=F IPFlag=           0 FMFlag=      100000 FMFlg1=         800
         NFxFlg=           0 DoJE=F BraDBF=F KetDBF=F FulRan=T
         wScrn=  0.000000 ICntrl=    2127 IOpCl=  0 I1Cent=           0 NGrid=           0
         NMat0=    1 NMatS0=      1 NMatT0=    0 NMatD0=    1 NMtDS0=    0 NMtDT0=    0
 Symmetry not used in FoFCou.
 CoulSu:  requested number of processors reduced to:   6 ShMem   1 Linda.
 CalDSu:  requested number of processors reduced to:  18 ShMem   1 Linda.
 Leave Link  703 at Mon Aug 22 05:35:25 2022, MaxMem=    23592960 cpu:        21.8
 (Enter /public/home/users/caep010/software/Gaussian09/g09/l716.exe)
 Dipole        = 3.21139963D-01-1.58531784D-01 2.90313745D-01
 ***** Axes restored to original set *****
 -------------------------------------------------------------------
 Center     Atomic                   Forces (Hartrees/Bohr)
 Number     Number              X              Y              Z
 -------------------------------------------------------------------
      1        6          -0.005993019   -0.008678523   -0.008130707
      2        6           0.021758616    0.013580828    0.012382057
      3        6          -0.000178271   -0.008497953   -0.000953520
      4        7          -0.009177659    0.016697997    0.014238406
      5        7          -0.006303917   -0.012475640   -0.007234356
      6        1           0.003442369    0.000114691    0.000053005
      7        1           0.002356264    0.003444268    0.002869700
      8        1          -0.005721481    0.000600370   -0.000315421
      9        1          -0.001742590   -0.006705792   -0.007778602
     10        1          -0.015134511   -0.013589844   -0.011885676
     11        1           0.018263194   -0.003130670   -0.010251248
     12        1          -0.007833978    0.022550558   -0.004784100
     13        1           0.006264984   -0.003910289    0.021790461
 -------------------------------------------------------------------
 Cartesian Forces:  Max     0.022550558 RMS     0.010352758
 Leave Link  716 at Mon Aug 22 05:35:25 2022, MaxMem=    23592960 cpu:         1.1
 (Enter /public/home/users/caep010/software/Gaussian09/g09/l103.exe)

 GradGradGradGradGradGradGradGradGradGradGradGradGradGradGradGradGradGrad
 Berny optimization.
 FormGI is forming the generalized inverse of G from B-inverse, IUseBI=4.
 Internal  Forces:  Max     0.024250401 RMS     0.008113565
 Search for a local minimum.
 Step number   1 out of a maximum of   62
 All quantities printed in internal units (Hartrees-Bohrs-Radians)
 RMS Force = .81136D-02 SwitMx=.10000D-02 MixMth= 1
 Mixed Optimization -- RFO/linear search
 Second derivative matrix not updated -- first step.
 ITU=  0
     Eigenvalues ---    0.00600   0.00844   0.00860   0.01522   0.02931
     Eigenvalues ---    0.02931   0.04527   0.04786   0.05469   0.06297
     Eigenvalues ---    0.06540   0.15995   0.16000   0.16000   0.16000
     Eigenvalues ---    0.16000   0.16000   0.16000   0.18194   0.18328
     Eigenvalues ---    0.22001   0.31097   0.32138   0.35203   0.35317
     Eigenvalues ---    0.35375   0.36454   0.36605   0.40337   0.40371
     Eigenvalues ---    0.40414   0.40444   0.58034
 RFO step:  Lambda=-1.24458787D-02 EMin= 6.00066804D-03
 Linear search not attempted -- first point.
 Iteration  1 RMS(Cart)=  0.07614795 RMS(Int)=  0.00215906
 Iteration  2 RMS(Cart)=  0.00244182 RMS(Int)=  0.00057502
 Iteration  3 RMS(Cart)=  0.00000302 RMS(Int)=  0.00057502
 Iteration  4 RMS(Cart)=  0.00000000 RMS(Int)=  0.00057502
 ITry= 1 IFail=0 DXMaxC= 1.89D-01 DCOld= 1.00D+10 DXMaxT= 3.00D-01 DXLimC= 3.00D+00 Rises=F
 Variable       Old X    -DE/DX   Delta X   Delta X   Delta X     New X
                                 (Linear)    (Quad)   (Total)
    R1        2.52531  -0.00367   0.00000  -0.00619  -0.00619   2.51912
    R2        2.05163   0.00036   0.00000   0.00097   0.00097   2.05260
    R3        2.05070  -0.00021   0.00000  -0.00057  -0.00057   2.05013
    R4        2.85829   0.00821   0.00000   0.02540   0.02540   2.88368
    R5        2.05347   0.00006   0.00000   0.00016   0.00016   2.05362
    R6        2.76447   0.00261   0.00000   0.00689   0.00689   2.77135
    R7        2.76678  -0.00110   0.00000  -0.00291  -0.00291   2.76387
    R8        2.10592  -0.00653   0.00000  -0.01958  -0.01958   2.08635
    R9        1.97654  -0.02350   0.00000  -0.05636  -0.05636   1.92018
   R10        1.97695  -0.02112   0.00000  -0.05071  -0.05071   1.92624
   R11        1.97753  -0.02425   0.00000  -0.05827  -0.05827   1.91926
   R12        1.97798  -0.02290   0.00000  -0.05506  -0.05506   1.92292
    A1        2.11301   0.00117   0.00000   0.00677   0.00677   2.11978
    A2        2.09455   0.00456   0.00000   0.02642   0.02642   2.12097
    A3        2.07560  -0.00572   0.00000  -0.03319  -0.03319   2.04242
    A4        2.12170   0.01187   0.00000   0.05113   0.05110   2.17280
    A5        2.07082  -0.00040   0.00000   0.00674   0.00671   2.07753
    A6        2.09025  -0.01146   0.00000  -0.05748  -0.05751   2.03273
    A7        1.92127  -0.00344   0.00000  -0.00946  -0.00838   1.91290
    A8        1.93036   0.01725   0.00000   0.08607   0.08652   2.01688
    A9        1.90291  -0.00534   0.00000  -0.02412  -0.02349   1.87943
   A10        1.90970  -0.01293   0.00000  -0.06556  -0.06539   1.84431
   A11        1.90905   0.00960   0.00000   0.06366   0.06239   1.97144
   A12        1.89016  -0.00509   0.00000  -0.05064  -0.04963   1.84052
   A13        1.89534   0.00140   0.00000   0.00889   0.00890   1.90424
   A14        1.88614  -0.00236   0.00000  -0.01293  -0.01292   1.87322
   A15        1.84838   0.00065   0.00000   0.00547   0.00551   1.85389
   A16        1.89886   0.00132   0.00000   0.00163   0.00153   1.90039
   A17        1.90631  -0.00273   0.00000  -0.02181  -0.02191   1.88440
   A18        1.87883  -0.00094   0.00000  -0.01822  -0.01844   1.86039
    D1       -0.00767   0.00073   0.00000   0.02077   0.02093   0.01326
    D2       -3.11837   0.00044   0.00000   0.00724   0.00708  -3.11129
    D3        3.12762   0.00077   0.00000   0.02171   0.02188  -3.13369
    D4        0.01692   0.00048   0.00000   0.00819   0.00802   0.02495
    D5        1.22737   0.00553   0.00000   0.09058   0.09033   1.31770
    D6       -2.94334  -0.00166   0.00000   0.05845   0.05860  -2.88475
    D7       -0.86682  -0.00083   0.00000   0.03323   0.03367  -0.83315
    D8       -1.94546   0.00602   0.00000   0.10539   0.10492  -1.84054
    D9        0.16702  -0.00118   0.00000   0.07327   0.07319   0.24020
   D10        2.24354  -0.00034   0.00000   0.04805   0.04827   2.29180
   D11       -1.18008   0.00531   0.00000   0.05157   0.05154  -1.12854
   D12        3.10560   0.00505   0.00000   0.04731   0.04730  -3.13028
   D13        2.97830  -0.00555   0.00000  -0.00684  -0.00773   2.97057
   D14        0.98080  -0.00580   0.00000  -0.01111  -0.01197   0.96883
   D15        0.91039   0.00260   0.00000   0.05573   0.05662   0.96701
   D16       -1.08711   0.00234   0.00000   0.05147   0.05238  -1.03474
   D17        1.03809  -0.00024   0.00000  -0.02109  -0.02084   1.01725
   D18       -1.00829   0.00168   0.00000   0.01210   0.01223  -0.99606
   D19       -3.12577  -0.00192   0.00000  -0.02057  -0.02208   3.13534
   D20        1.11103  -0.00001   0.00000   0.01263   0.01099   1.12202
   D21       -1.04614  -0.00078   0.00000  -0.01127  -0.00982  -1.05596
   D22       -3.09253   0.00114   0.00000   0.02192   0.02325  -3.06928
         Item               Value     Threshold  Converged?
 Maximum Force            0.024250     0.000450     NO 
 RMS     Force            0.008114     0.000300     NO 
 Maximum Displacement     0.188548     0.001800     NO 
 RMS     Displacement     0.076016     0.001200     NO 
 Predicted change in Energy=-6.771540D-03
 Lowest energy point so far.  Saving SCF results.
 GradGradGradGradGradGradGradGradGradGradGradGradGradGradGradGradGradGrad

 Leave Link  103 at Mon Aug 22 05:35:26 2022, MaxMem=    23592960 cpu:         5.3
 (Enter /public/home/users/caep010/software/Gaussian09/g09/l202.exe)
                          Input orientation:                          
 ---------------------------------------------------------------------
 Center     Atomic      Atomic             Coordinates (Angstroms)
 Number     Number       Type             X           Y           Z
 ---------------------------------------------------------------------
      1          6           0        1.990521    0.214705   -0.127989
      2          6           0        0.808763   -0.284480   -0.490368
      3          6           0       -0.479171   -0.126079    0.312592
      4          7           0       -0.996892    1.236175    0.148407
      5          7           0       -1.575658   -1.014421   -0.071726
      6          1           0        2.111075    0.771644    0.796724
      7          1           0        2.875568    0.078881   -0.740535
      8          1           0        0.738716   -0.859732   -1.409696
      9          1           0       -0.252100   -0.376667    1.363574
     10          1           0       -0.336861    1.893900    0.553679
     11          1           0       -1.847634    1.306816    0.705420
     12          1           0       -1.265705   -1.977351    0.018787
     13          1           0       -1.770622   -0.863491   -1.058967
 ---------------------------------------------------------------------
                    Distance matrix (angstroms):
                    1          2          3          4          5
     1  C    0.000000
     2  C    1.333062   0.000000
     3  C    2.531723   1.525979   0.000000
     4  N    3.169295   2.445571   1.466536   0.000000
     5  N    3.772472   2.528545   1.462578   2.334226   0.000000
     6  H    1.086190   2.113769   2.783822   3.208670   4.187628
     7  H    1.084883   2.113362   3.522125   4.138296   4.632065
     8  H    2.089067   1.086731   2.233332   3.135737   2.677764
     9  H    2.757504   2.137997   1.104046   2.152349   2.053928
    10  H    2.949758   2.673542   2.039287   1.016114   3.222434
    11  H    4.076605   3.319424   2.019948   1.019321   2.462939
    12  H    3.928060   2.725522   2.032773   3.227354   1.015626
    13  H    4.021868   2.704032   2.023066   2.542638   1.017564
                    6          7          8          9         10
     6  H    0.000000
     7  H    1.851360   0.000000
     8  H    3.068068   2.427943   0.000000
     9  H    2.687849   3.796987   2.984308   0.000000
    10  H    2.703872   3.910113   3.548830   2.412175   0.000000
    11  H    3.995763   5.089916   3.982066   2.411018   1.627921
    12  H    4.423212   4.685595   2.703209   2.323367   4.016895
    13  H    4.602698   4.751479   2.533733   2.900278   3.501358
                   11         12         13
    11  H    0.000000
    12  H    3.405269   0.000000
    13  H    2.798075   1.630086   0.000000
 Stoichiometry    C3H8N2
 Framework group  C1[X(C3H8N2)]
 Deg. of freedom    33
 Full point group                 C1      NOp   1
 RotChk:  IX=0 Diff= 5.32D-02
 Largest Abelian subgroup         C1      NOp   1
 Largest concise Abelian subgroup C1      NOp   1
                         Standard orientation:                         
 ---------------------------------------------------------------------
 Center     Atomic      Atomic             Coordinates (Angstroms)
 Number     Number       Type             X           Y           Z
 ---------------------------------------------------------------------
      1          6           0        2.096577   -0.034764    0.094007
      2          6           0        0.896615   -0.503670   -0.248446
      3          6           0       -0.425051    0.010039    0.315392
      4          7           0       -0.749771    1.304149   -0.293346
      5          7           0       -1.588218   -0.843113    0.073921
      6          1           0        2.206848    0.758678    0.827558
      7          1           0        3.006607   -0.431536   -0.343471
      8          1           0        0.833470   -1.317736   -0.965589
      9          1           0       -0.322793    0.064207    1.413357
     10          1           0       -0.048956    1.986430   -0.017956
     11          1           0       -1.629394    1.619153    0.114149
     12          1           0       -1.411833   -1.760133    0.473244
     13          1           0       -1.676868   -0.975951   -0.931033
 ---------------------------------------------------------------------
 Rotational constants (GHZ):      8.6774973      3.6580740      2.8033991
 Leave Link  202 at Mon Aug 22 05:35:26 2022, MaxMem=    23592960 cpu:         0.3
 (Enter /public/home/users/caep010/software/Gaussian09/g09/l301.exe)
 Standard basis: GTBas3 (6D, 7F)
 Ernie: Thresh=  0.10000D-02 Tol=  0.10000D-05 Strict=F.
 There are   195 symmetry adapted cartesian basis functions of A   symmetry.
 There are   180 symmetry adapted basis functions of A   symmetry.
   180 basis functions,   276 primitive gaussians,   195 cartesian basis functions
    20 alpha electrons       20 beta electrons
       nuclear repulsion energy       177.6863491711 Hartrees.
 IExCor=  402 DFT=T Ex+Corr=B3LYP ExCW=0 ScaHFX=  0.200000
 ScaDFX=  0.800000  0.720000  1.000000  0.810000 ScalE2=  1.000000  1.000000
 IRadAn=      0 IRanWt=     -1 IRanGd=            0 ICorTp=0 IEmpDi=  4
 NAtoms=   13 NActive=   13 NUniq=   13 SFac= 1.00D+00 NAtFMM=   60 NAOKFM=F Big=F
 Integral buffers will be    131072 words long.
 Raffenetti 2 integral format.
 Two-electron integral symmetry is turned on.
 Leave Link  301 at Mon Aug 22 05:35:26 2022, MaxMem=    23592960 cpu:         1.7
 (Enter /public/home/users/caep010/software/Gaussian09/g09/l302.exe)
 NPDir=0 NMtPBC=     1 NCelOv=     1 NCel=       1 NClECP=     1 NCelD=      1
         NCelK=      1 NCelE2=     1 NClLst=     1 CellRange=     0.0.
 One-electron integrals computed using PRISM.
 PrsmSu:  requested number of processors reduced to:   3 ShMem   1 Linda.
 PrsmSu:  requested number of processors reduced to:  11 ShMem   1 Linda.
 NBasis=   180 RedAO= T EigKep=  4.47D-04  NBF=   180
 NBsUse=   180 1.00D-06 EigRej= -1.00D+00 NBFU=   180
 Precomputing XC quadrature grid using
 IXCGrd= 4 IRadAn=           0 IRanWt=          -1 IRanGd=           0 AccXCQ= 0.00D+00.
 Generated NRdTot=       0 NPtTot=           0 NUsed=           0 NTot=          32
 NSgBfM=   195   195   195   195   195 MxSgAt=    13 MxSgA2=    13.
 Leave Link  302 at Mon Aug 22 05:35:26 2022, MaxMem=    23592960 cpu:         4.2
 (Enter /public/home/users/caep010/software/Gaussian09/g09/l303.exe)
 DipDrv:  MaxL=1.
 Leave Link  303 at Mon Aug 22 05:35:26 2022, MaxMem=    23592960 cpu:         0.7
 (Enter /public/home/users/caep010/software/Gaussian09/g09/l401.exe)
 Initial guess from the checkpoint file:  "G4.Frag_962.chk"
 B after Tr=     0.000000    0.000000   -0.000000
         Rot=    0.999904   -0.011280   -0.001700   -0.007891 Ang=  -1.59 deg.
 Guess basis will be translated and rotated to current coordinates.
 JPrj=2 DoOrth=T DoCkMO=T.
 Generating alternative initial guess.
 ExpMin= 1.61D-01 ExpMax= 4.17D+03 ExpMxC= 6.27D+02 IAcc=1 IRadAn=         1 AccDes= 0.00D+00
 Harris functional with IExCor=  402 and IRadAn=       1 diagonalized for initial guess.
 HarFok:  IExCor=  402 AccDes= 0.00D+00 IRadAn=         1 IDoV= 1 UseB2=F ITyADJ=14
 ICtDFT=  3500011 ScaDFX=  1.000000  1.000000  1.000000  1.000000
 CalDSu:  requested number of processors reduced to:  20 ShMem   1 Linda.
 FoFCou: FMM=F IPFlag=           0 FMFlag=      100000 FMFlg1=           0
         NFxFlg=           0 DoJE=T BraDBF=F KetDBF=T FulRan=T
         wScrn=  0.000000 ICntrl=     500 IOpCl=  0 I1Cent=   200000004 NGrid=           0
         NMat0=    1 NMatS0=      1 NMatT0=    0 NMatD0=    1 NMtDS0=    0 NMtDT0=    0
 Petite list used in FoFCou.
 CoulSu:  requested number of processors reduced to:  11 ShMem   1 Linda.
 CoulSu:  requested number of processors reduced to:  11 ShMem   1 Linda.
 CoulSu:  requested number of processors reduced to:  12 ShMem   1 Linda.
 CoulSu:  requested number of processors reduced to:  12 ShMem   1 Linda.
 Harris En= -228.646796435280    
 Leave Link  401 at Mon Aug 22 05:35:27 2022, MaxMem=    23592960 cpu:        11.4
 (Enter /public/home/users/caep010/software/Gaussian09/g09/l502.exe)
 Closed shell SCF:
 Using DIIS extrapolation, IDIIS=  1040.
 Integral symmetry usage will be decided dynamically.
 IVT=      140295 IEndB=      140295 NGot=    23592960 MDV=    23507526
 LenX=    23507526 LenY=    23469060
 Requested convergence on RMS density matrix=1.00D-08 within 128 cycles.
 Requested convergence on MAX density matrix=1.00D-06.
 Requested convergence on             energy=1.00D-06.
 No special actions if energy rises.
 Fock matrices will be formed incrementally for  20 cycles.
 Integral accuracy reduced to 1.0D-05 until final iterations.

 Cycle   1  Pass 0  IDiag  1:
 FoFJK:  IHMeth= 1 ICntrl=       0 DoSepK=F KAlg= 0 I1Cent=   0 FoldK=F
 IRaf= 980000000 NMat=   1 IRICut=       1 DoRegI=T DoRafI=F ISym2E= 0.
 FoFCou: FMM=F IPFlag=           0 FMFlag=      100000 FMFlg1=           0
         NFxFlg=           0 DoJE=F BraDBF=F KetDBF=F FulRan=T
         wScrn=  0.000000 ICntrl=       0 IOpCl=  0 I1Cent=           0 NGrid=           0
         NMat0=    1 NMatS0=      1 NMatT0=    0 NMatD0=    1 NMtDS0=    0 NMtDT0=    0
 Symmetry not used in FoFCou.
 CoulSu:  requested number of processors reduced to:  11 ShMem   1 Linda.
 CalDSu:  requested number of processors reduced to:  20 ShMem   1 Linda.
 E= -228.610799852241    
 DIIS: error= 2.27D-03 at cycle   1 NSaved=   1.
 NSaved= 1 IEnMin= 1 EnMin= -228.610799852241     IErMin= 1 ErrMin= 2.27D-03
 ErrMax= 2.27D-03  0.00D+00 EMaxC= 1.00D-01 BMatC= 3.78D-03 BMatP= 3.78D-03
 IDIUse=3 WtCom= 9.77D-01 WtEn= 2.27D-02
 Coeff-Com:  0.100D+01
 Coeff-En:   0.100D+01
 Coeff:      0.100D+01
 Gap=     1.095 Goal=   None    Shift=    0.000
 GapD=    1.095 DampG=2.000 DampE=1.000 DampFc=2.0000 IDamp=-1.
 RMSDP=6.17D-04 MaxDP=1.51D-02              OVMax= 2.91D-02

 Cycle   2  Pass 0  IDiag  1:
 RMSU=  6.16D-04    CP:  9.98D-01
 CoulSu:  requested number of processors reduced to:  11 ShMem   1 Linda.
 CalDSu:  requested number of processors reduced to:  20 ShMem   1 Linda.
 E= -228.616386113562     Delta-E=       -0.005586261321 Rises=F Damp=F
 DIIS: error= 8.19D-04 at cycle   2 NSaved=   2.
 NSaved= 2 IEnMin= 2 EnMin= -228.616386113562     IErMin= 2 ErrMin= 8.19D-04
 ErrMax= 8.19D-04  0.00D+00 EMaxC= 1.00D-01 BMatC= 2.13D-04 BMatP= 3.78D-03
 IDIUse=3 WtCom= 9.92D-01 WtEn= 8.19D-03
 Coeff-Com:  0.333D-01 0.967D+00
 Coeff-En:   0.000D+00 0.100D+01
 Coeff:      0.330D-01 0.967D+00
 Gap=     0.242 Goal=   None    Shift=    0.000
 RMSDP=1.74D-04 MaxDP=7.25D-03 DE=-5.59D-03 OVMax= 7.03D-03

 Cycle   3  Pass 0  IDiag  1:
 RMSU=  1.74D-04    CP:  9.98D-01  1.02D+00
 CoulSu:  requested number of processors reduced to:  11 ShMem   1 Linda.
 CalDSu:  requested number of processors reduced to:  20 ShMem   1 Linda.
 E= -228.616344341944     Delta-E=        0.000041771618 Rises=F Damp=F
 DIIS: error= 1.06D-03 at cycle   3 NSaved=   3.
 NSaved= 3 IEnMin= 2 EnMin= -228.616386113562     IErMin= 2 ErrMin= 8.19D-04
 ErrMax= 1.06D-03  0.00D+00 EMaxC= 1.00D-01 BMatC= 3.29D-04 BMatP= 2.13D-04
 IDIUse=3 WtCom= 2.35D-01 WtEn= 7.65D-01
 Coeff-Com: -0.306D-01 0.572D+00 0.459D+00
 Coeff-En:   0.000D+00 0.542D+00 0.458D+00
 Coeff:     -0.719D-02 0.549D+00 0.458D+00
 Gap=     0.246 Goal=   None    Shift=    0.000
 RMSDP=9.96D-05 MaxDP=4.37D-03 DE= 4.18D-05 OVMax= 3.84D-03

 Cycle   4  Pass 0  IDiag  1:
 RMSU=  2.92D-05    CP:  9.98D-01  1.06D+00  4.74D-01
 CoulSu:  requested number of processors reduced to:  11 ShMem   1 Linda.
 CalDSu:  requested number of processors reduced to:  20 ShMem   1 Linda.
 E= -228.616625315711     Delta-E=       -0.000280973767 Rises=F Damp=F
 DIIS: error= 8.23D-05 at cycle   4 NSaved=   4.
 NSaved= 4 IEnMin= 4 EnMin= -228.616625315711     IErMin= 4 ErrMin= 8.23D-05
 ErrMax= 8.23D-05  0.00D+00 EMaxC= 1.00D-01 BMatC= 3.51D-06 BMatP= 2.13D-04
 IDIUse=1 WtCom= 1.00D+00 WtEn= 0.00D+00
 Coeff-Com: -0.915D-02 0.789D-01 0.127D+00 0.803D+00
 Coeff:     -0.915D-02 0.789D-01 0.127D+00 0.803D+00
 Gap=     0.246 Goal=   None    Shift=    0.000
 RMSDP=1.30D-05 MaxDP=5.63D-04 DE=-2.81D-04 OVMax= 1.18D-03

 Cycle   5  Pass 0  IDiag  1:
 RMSU=  1.02D-05    CP:  9.98D-01  1.07D+00  5.18D-01  9.63D-01
 CoulSu:  requested number of processors reduced to:  11 ShMem   1 Linda.
 CalDSu:  requested number of processors reduced to:  20 ShMem   1 Linda.
 E= -228.616627619584     Delta-E=       -0.000002303873 Rises=F Damp=F
 DIIS: error= 6.52D-05 at cycle   5 NSaved=   5.
 NSaved= 5 IEnMin= 5 EnMin= -228.616627619584     IErMin= 5 ErrMin= 6.52D-05
 ErrMax= 6.52D-05  0.00D+00 EMaxC= 1.00D-01 BMatC= 1.29D-06 BMatP= 3.51D-06
 IDIUse=1 WtCom= 1.00D+00 WtEn= 0.00D+00
 Coeff-Com: -0.309D-02 0.106D-02 0.392D-01 0.482D+00 0.481D+00
 Coeff:     -0.309D-02 0.106D-02 0.392D-01 0.482D+00 0.481D+00
 Gap=     0.246 Goal=   None    Shift=    0.000
 RMSDP=6.29D-06 MaxDP=2.73D-04 DE=-2.30D-06 OVMax= 7.32D-04

 Initial convergence to 1.0D-05 achieved.  Increase integral accuracy.
 Cycle   6  Pass 1  IDiag  1:
 CoulSu:  requested number of processors reduced to:  11 ShMem   1 Linda.
 CalDSu:  requested number of processors reduced to:  20 ShMem   1 Linda.
 E= -228.616656839567     Delta-E=       -0.000029219983 Rises=F Damp=F
 DIIS: error= 1.74D-05 at cycle   1 NSaved=   1.
 NSaved= 1 IEnMin= 1 EnMin= -228.616656839567     IErMin= 1 ErrMin= 1.74D-05
 ErrMax= 1.74D-05  0.00D+00 EMaxC= 1.00D-01 BMatC= 1.43D-07 BMatP= 1.43D-07
 IDIUse=1 WtCom= 1.00D+00 WtEn= 0.00D+00
 Coeff-Com:  0.100D+01
 Coeff:      0.100D+01
 Gap=     0.246 Goal=   None    Shift=    0.000
 RMSDP=6.29D-06 MaxDP=2.73D-04 DE=-2.92D-05 OVMax= 4.37D-04

 Cycle   7  Pass 1  IDiag  1:
 RMSU=  5.07D-06    CP:  1.00D+00
 CoulSu:  requested number of processors reduced to:  11 ShMem   1 Linda.
 CalDSu:  requested number of processors reduced to:  20 ShMem   1 Linda.
 E= -228.616656636389     Delta-E=        0.000000203177 Rises=F Damp=F
 DIIS: error= 3.58D-05 at cycle   2 NSaved=   2.
 NSaved= 2 IEnMin= 1 EnMin= -228.616656839567     IErMin= 1 ErrMin= 1.74D-05
 ErrMax= 3.58D-05  0.00D+00 EMaxC= 1.00D-01 BMatC= 3.25D-07 BMatP= 1.43D-07
 IDIUse=1 WtCom= 1.00D+00 WtEn= 0.00D+00
 Coeff-Com:  0.612D+00 0.388D+00
 Coeff:      0.612D+00 0.388D+00
 Gap=     0.246 Goal=   None    Shift=    0.000
 RMSDP=3.02D-06 MaxDP=1.22D-04 DE= 2.03D-07 OVMax= 3.42D-04

 Cycle   8  Pass 1  IDiag  1:
 RMSU=  1.86D-06    CP:  1.00D+00  5.31D-01
 CoulSu:  requested number of processors reduced to:  11 ShMem   1 Linda.
 CalDSu:  requested number of processors reduced to:  20 ShMem   1 Linda.
 E= -228.616656964547     Delta-E=       -0.000000328158 Rises=F Damp=F
 DIIS: error= 4.66D-06 at cycle   3 NSaved=   3.
 NSaved= 3 IEnMin= 3 EnMin= -228.616656964547     IErMin= 3 ErrMin= 4.66D-06
 ErrMax= 4.66D-06  0.00D+00 EMaxC= 1.00D-01 BMatC= 7.62D-09 BMatP= 1.43D-07
 IDIUse=1 WtCom= 1.00D+00 WtEn= 0.00D+00
 Coeff-Com:  0.398D-01 0.139D+00 0.821D+00
 Coeff:      0.398D-01 0.139D+00 0.821D+00
 Gap=     0.246 Goal=   None    Shift=    0.000
 RMSDP=4.66D-07 MaxDP=2.19D-05 DE=-3.28D-07 OVMax= 4.93D-05

 Cycle   9  Pass 1  IDiag  1:
 RMSU=  2.91D-07    CP:  1.00D+00  5.94D-01  9.05D-01
 CoulSu:  requested number of processors reduced to:  11 ShMem   1 Linda.
 CalDSu:  requested number of processors reduced to:  20 ShMem   1 Linda.
 E= -228.616656971771     Delta-E=       -0.000000007224 Rises=F Damp=F
 DIIS: error= 1.30D-06 at cycle   4 NSaved=   4.
 NSaved= 4 IEnMin= 4 EnMin= -228.616656971771     IErMin= 4 ErrMin= 1.30D-06
 ErrMax= 1.30D-06  0.00D+00 EMaxC= 1.00D-01 BMatC= 7.50D-10 BMatP= 7.62D-09
 IDIUse=1 WtCom= 1.00D+00 WtEn= 0.00D+00
 Coeff-Com: -0.620D-02 0.537D-01 0.409D+00 0.544D+00
 Coeff:     -0.620D-02 0.537D-01 0.409D+00 0.544D+00
 Gap=     0.246 Goal=   None    Shift=    0.000
 RMSDP=1.59D-07 MaxDP=5.65D-06 DE=-7.22D-09 OVMax= 7.36D-06

 Cycle  10  Pass 1  IDiag  1:
 RMSU=  7.80D-08    CP:  1.00D+00  5.97D-01  9.19D-01  5.37D-01
 CoulSu:  requested number of processors reduced to:  11 ShMem   1 Linda.
 CalDSu:  requested number of processors reduced to:  20 ShMem   1 Linda.
 E= -228.616656972434     Delta-E=       -0.000000000662 Rises=F Damp=F
 DIIS: error= 3.81D-07 at cycle   5 NSaved=   5.
 NSaved= 5 IEnMin= 5 EnMin= -228.616656972434     IErMin= 5 ErrMin= 3.81D-07
 ErrMax= 3.81D-07  0.00D+00 EMaxC= 1.00D-01 BMatC= 4.64D-11 BMatP= 7.50D-10
 IDIUse=1 WtCom= 1.00D+00 WtEn= 0.00D+00
 Coeff-Com: -0.602D-02 0.148D-01 0.129D+00 0.260D+00 0.602D+00
 Coeff:     -0.602D-02 0.148D-01 0.129D+00 0.260D+00 0.602D+00
 Gap=     0.246 Goal=   None    Shift=    0.000
 RMSDP=3.62D-08 MaxDP=1.64D-06 DE=-6.62D-10 OVMax= 1.47D-06

 Cycle  11  Pass 1  IDiag  1:
 RMSU=  2.41D-08    CP:  1.00D+00  5.98D-01  9.18D-01  5.94D-01  7.31D-01
 CoulSu:  requested number of processors reduced to:  11 ShMem   1 Linda.
 CalDSu:  requested number of processors reduced to:  20 ShMem   1 Linda.
 E= -228.616656972473     Delta-E=       -0.000000000040 Rises=F Damp=F
 DIIS: error= 6.53D-08 at cycle   6 NSaved=   6.
 NSaved= 6 IEnMin= 6 EnMin= -228.616656972473     IErMin= 6 ErrMin= 6.53D-08
 ErrMax= 6.53D-08  0.00D+00 EMaxC= 1.00D-01 BMatC= 1.64D-12 BMatP= 4.64D-11
 IDIUse=1 WtCom= 1.00D+00 WtEn= 0.00D+00
 Coeff-Com: -0.199D-02 0.293D-02 0.287D-01 0.723D-01 0.231D+00 0.667D+00
 Coeff:     -0.199D-02 0.293D-02 0.287D-01 0.723D-01 0.231D+00 0.667D+00
 Gap=     0.246 Goal=   None    Shift=    0.000
 RMSDP=9.59D-09 MaxDP=2.81D-07 DE=-3.96D-11 OVMax= 3.22D-07

 SCF Done:  E(RB3LYP) =  -228.616656972     A.U. after   11 cycles
            NFock= 11  Conv=0.96D-08     -V/T= 2.0080
 KE= 2.267953693758D+02 PE=-8.868457699282D+02 EE= 2.537473944088D+02
 Leave Link  502 at Mon Aug 22 05:35:31 2022, MaxMem=    23592960 cpu:        74.4
 (Enter /public/home/users/caep010/software/Gaussian09/g09/l701.exe)
 Compute integral first derivatives.
 ... and contract with generalized density number  0.
 PrsmSu:  requested number of processors reduced to:   3 ShMem   1 Linda.
 PrsmSu:  requested number of processors reduced to:   6 ShMem   1 Linda.
 Leave Link  701 at Mon Aug 22 05:35:32 2022, MaxMem=    23592960 cpu:         1.8
 (Enter /public/home/users/caep010/software/Gaussian09/g09/l702.exe)
 L702 exits ... SP integral derivatives will be done elsewhere.
 Leave Link  702 at Mon Aug 22 05:35:32 2022, MaxMem=    23592960 cpu:         0.5
 (Enter /public/home/users/caep010/software/Gaussian09/g09/l703.exe)
 Compute integral first derivatives, UseDBF=F ICtDFT=           0.
 Integral derivatives from FoFJK, PRISM(SPDF).
 Calling FoFJK, ICntrl=      2127 FMM=F ISym2X=0 I1Cent= 0 IOpClX= 0 NMat=1 NMatS=1 NMatT=0.
 FoFJK:  IHMeth= 1 ICntrl=    2127 DoSepK=F KAlg= 0 I1Cent=   0 FoldK=F
 IRaf=         0 NMat=   1 IRICut=       1 DoRegI=T DoRafI=F ISym2E= 0.
 FoFCou: FMM=F IPFlag=           0 FMFlag=      100000 FMFlg1=         800
         NFxFlg=           0 DoJE=F BraDBF=F KetDBF=F FulRan=T
         wScrn=  0.000000 ICntrl=    2127 IOpCl=  0 I1Cent=           0 NGrid=           0
         NMat0=    1 NMatS0=      1 NMatT0=    0 NMatD0=    1 NMtDS0=    0 NMtDT0=    0
 Symmetry not used in FoFCou.
 CoulSu:  requested number of processors reduced to:   6 ShMem   1 Linda.
 CalDSu:  requested number of processors reduced to:  18 ShMem   1 Linda.
 Leave Link  703 at Mon Aug 22 05:35:34 2022, MaxMem=    23592960 cpu:        18.7
 (Enter /public/home/users/caep010/software/Gaussian09/g09/l716.exe)
 Dipole        = 3.25490306D-01-1.60704628D-01 2.61174287D-01
 ***** Axes restored to original set *****
 -------------------------------------------------------------------
 Center     Atomic                   Forces (Hartrees/Bohr)
 Number     Number              X              Y              Z
 -------------------------------------------------------------------
      1        6          -0.005647725   -0.003811185   -0.001246087
      2        6           0.004287289    0.002635813    0.003801603
      3        6          -0.001184600   -0.000356363    0.000877558
      4        7          -0.000192087    0.000940358    0.002852259
      5        7           0.003752652   -0.001151231   -0.001191510
      6        1           0.001289499    0.000442160    0.000453093
      7        1           0.000407617    0.000788146    0.000819307
      8        1          -0.002402812    0.000838476   -0.002268698
      9        1           0.000675153    0.000785489    0.000446207
     10        1           0.000762937    0.000778211   -0.002719655
     11        1           0.000480784   -0.000679330   -0.001381409
     12        1          -0.001048306   -0.001354196    0.000128247
     13        1          -0.001180401    0.000143651   -0.000570914
 -------------------------------------------------------------------
 Cartesian Forces:  Max     0.005647725 RMS     0.001949566
 Leave Link  716 at Mon Aug 22 05:35:34 2022, MaxMem=    23592960 cpu:         0.6
 (Enter /public/home/users/caep010/software/Gaussian09/g09/l103.exe)

 GradGradGradGradGradGradGradGradGradGradGradGradGradGradGradGradGradGrad
 Berny optimization.
 Using GEDIIS/GDIIS optimizer.
 FormGI is forming the generalized inverse of G from B-inverse, IUseBI=4.
 Internal  Forces:  Max     0.004464682 RMS     0.001301459
 Search for a local minimum.
 Step number   2 out of a maximum of   62
 All quantities printed in internal units (Hartrees-Bohrs-Radians)
 RMS Force = .13015D-02 SwitMx=.10000D-02 MixMth= 1
 Mixed Optimization -- RFO/linear search
 Update second derivatives using D2CorX and points    1    2
 DE= -6.48D-03 DEPred=-6.77D-03 R= 9.57D-01
 TightC=F SS=  1.41D+00  RLast= 2.94D-01 DXNew= 5.0454D-01 8.8118D-01
 Trust test= 9.57D-01 RLast= 2.94D-01 DXMaxT set to 5.05D-01
 ITU=  1  0
 Use linear search instead of GDIIS.
     Eigenvalues ---    0.00583   0.00844   0.00856   0.01558   0.02931
     Eigenvalues ---    0.02932   0.04740   0.04797   0.05302   0.06116
     Eigenvalues ---    0.06898   0.15266   0.15999   0.16000   0.16000
     Eigenvalues ---    0.16000   0.16000   0.16051   0.18120   0.19902
     Eigenvalues ---    0.22134   0.31419   0.32227   0.35157   0.35308
     Eigenvalues ---    0.35374   0.36451   0.36569   0.40007   0.40351
     Eigenvalues ---    0.40429   0.41489   0.58155
 RFO step:  Lambda=-1.88373099D-03 EMin= 5.83303249D-03
 Quartic linear search produced a step of  0.03547.
 Iteration  1 RMS(Cart)=  0.08986156 RMS(Int)=  0.00437847
 Iteration  2 RMS(Cart)=  0.00551617 RMS(Int)=  0.00009716
 Iteration  3 RMS(Cart)=  0.00001048 RMS(Int)=  0.00009678
 Iteration  4 RMS(Cart)=  0.00000000 RMS(Int)=  0.00009678
 ITry= 1 IFail=0 DXMaxC= 3.26D-01 DCOld= 1.00D+10 DXMaxT= 5.05D-01 DXLimC= 3.00D+00 Rises=F
 Variable       Old X    -DE/DX   Delta X   Delta X   Delta X     New X
                                 (Linear)    (Quad)   (Total)
    R1        2.51912  -0.00446  -0.00022  -0.00812  -0.00834   2.51078
    R2        2.05260   0.00075   0.00003   0.00221   0.00225   2.05485
    R3        2.05013  -0.00023  -0.00002  -0.00068  -0.00070   2.04943
    R4        2.88368  -0.00265   0.00090  -0.00758  -0.00668   2.87700
    R5        2.05362   0.00163   0.00001   0.00473   0.00473   2.05836
    R6        2.77135   0.00073   0.00024   0.00234   0.00258   2.77393
    R7        2.76387   0.00072  -0.00010   0.00189   0.00178   2.76566
    R8        2.08635   0.00039  -0.00069   0.00038  -0.00032   2.08603
    R9        1.92018  -0.00009  -0.00200  -0.00268  -0.00468   1.91550
   R10        1.92624  -0.00120  -0.00180  -0.00525  -0.00705   1.91919
   R11        1.91926   0.00098  -0.00207  -0.00008  -0.00215   1.91711
   R12        1.92292   0.00080  -0.00195  -0.00039  -0.00234   1.92058
    A1        2.11978   0.00087   0.00024   0.00579   0.00603   2.12581
    A2        2.12097   0.00076   0.00094   0.00593   0.00687   2.12784
    A3        2.04242  -0.00163  -0.00118  -0.01171  -0.01288   2.02953
    A4        2.17280   0.00022   0.00181   0.00327   0.00502   2.17782
    A5        2.07753   0.00178   0.00024   0.01184   0.01202   2.08955
    A6        2.03273  -0.00200  -0.00204  -0.01482  -0.01693   2.01581
    A7        1.91290  -0.00154  -0.00030  -0.01365  -0.01392   1.89897
    A8        2.01688  -0.00118   0.00307  -0.00735  -0.00431   2.01257
    A9        1.87943   0.00040  -0.00083  -0.00116  -0.00191   1.87752
   A10        1.84431   0.00163  -0.00232   0.00347   0.00105   1.84535
   A11        1.97144   0.00048   0.00221   0.01231   0.01445   1.98589
   A12        1.84052   0.00029  -0.00176   0.00790   0.00613   1.84665
   A13        1.90424   0.00196   0.00032   0.01972   0.01987   1.92412
   A14        1.87322  -0.00021  -0.00046   0.00542   0.00479   1.87801
   A15        1.85389   0.00084   0.00020   0.02176   0.02161   1.87550
   A16        1.90039   0.00228   0.00005   0.01880   0.01873   1.91912
   A17        1.88440   0.00115  -0.00078   0.01073   0.00983   1.89423
   A18        1.86039  -0.00060  -0.00065   0.00514   0.00422   1.86461
    D1        0.01326   0.00026   0.00074   0.01392   0.01476   0.02802
    D2       -3.11129  -0.00007   0.00025  -0.00692  -0.00677  -3.11806
    D3       -3.13369   0.00033   0.00078   0.01632   0.01719  -3.11649
    D4        0.02495  -0.00000   0.00028  -0.00452  -0.00434   0.02061
    D5        1.31770   0.00096   0.00320   0.15443   0.15767   1.47537
    D6       -2.88475   0.00114   0.00208   0.14376   0.14594  -2.73881
    D7       -0.83315   0.00107   0.00119   0.14846   0.14972  -0.68343
    D8       -1.84054   0.00132   0.00372   0.17501   0.17864  -1.66190
    D9        0.24020   0.00149   0.00260   0.16434   0.16690   0.40711
   D10        2.29180   0.00143   0.00171   0.16904   0.17068   2.46248
   D11       -1.12854   0.00110   0.00183   0.06723   0.06919  -1.05934
   D12       -3.13028  -0.00075   0.00168   0.02898   0.03060  -3.09968
   D13        2.97057   0.00242  -0.00027   0.08209   0.08189   3.05246
   D14        0.96883   0.00057  -0.00042   0.04384   0.04330   1.01212
   D15        0.96701   0.00086   0.00201   0.06435   0.06644   1.03345
   D16       -1.03474  -0.00099   0.00186   0.02610   0.02784  -1.00689
   D17        1.01725   0.00097  -0.00074   0.00901   0.00835   1.02561
   D18       -0.99606  -0.00012   0.00043  -0.01255  -0.01218  -1.00824
   D19        3.13534  -0.00053  -0.00078  -0.01036  -0.01113   3.12420
   D20        1.12202  -0.00161   0.00039  -0.03191  -0.03166   1.09036
   D21       -1.05596   0.00094  -0.00035   0.00919   0.00897  -1.04699
   D22       -3.06928  -0.00014   0.00082  -0.01236  -0.01155  -3.08083
         Item               Value     Threshold  Converged?
 Maximum Force            0.004465     0.000450     NO 
 RMS     Force            0.001301     0.000300     NO 
 Maximum Displacement     0.326107     0.001800     NO 
 RMS     Displacement     0.090039     0.001200     NO 
 Predicted change in Energy=-1.127372D-03
 Lowest energy point so far.  Saving SCF results.
 GradGradGradGradGradGradGradGradGradGradGradGradGradGradGradGradGradGrad

 Leave Link  103 at Mon Aug 22 05:35:34 2022, MaxMem=    23592960 cpu:         1.3
 (Enter /public/home/users/caep010/software/Gaussian09/g09/l202.exe)
                          Input orientation:                          
 ---------------------------------------------------------------------
 Center     Atomic      Atomic             Coordinates (Angstroms)
 Number     Number       Type             X           Y           Z
 ---------------------------------------------------------------------
      1          6           0        2.000660    0.165330   -0.098580
      2          6           0        0.799566   -0.235335   -0.501247
      3          6           0       -0.477525   -0.110149    0.318025
      4          7           0       -1.037141    1.232334    0.119765
      5          7           0       -1.546214   -1.042754   -0.042598
      6          1           0        2.159495    0.600726    0.885084
      7          1           0        2.877211    0.074201   -0.730658
      8          1           0        0.682853   -0.687164   -1.485454
      9          1           0       -0.223245   -0.335810    1.368246
     10          1           0       -0.377909    1.936606    0.431021
     11          1           0       -1.864177    1.309691    0.704107
     12          1           0       -1.219972   -1.998247    0.056348
     13          1           0       -1.773600   -0.909530   -1.024159
 ---------------------------------------------------------------------
                    Distance matrix (angstroms):
                    1          2          3          4          5
     1  C    0.000000
     2  C    1.328646   0.000000
     3  C    2.528013   1.522444   0.000000
     4  N    3.227136   2.431707   1.467903   0.000000
     5  N    3.747388   2.522888   1.463522   2.336994   0.000000
     6  H    1.087379   2.114313   2.789404   3.347107   4.158593
     7  H    1.084513   2.113067   3.519655   4.169729   4.613860
     8  H    2.094464   1.089236   2.220801   3.036376   2.678995
     9  H    2.710807   2.133364   1.103878   2.163378   2.059247
    10  H    3.012555   2.640624   2.052291   1.013640   3.235095
    11  H    4.109846   3.306888   2.021834   1.015593   2.488507
    12  H    3.882981   2.738121   2.045634   3.236372   1.014490
    13  H    4.032005   2.710933   2.029847   2.537423   1.016325
                    6          7          8          9         10
     6  H    0.000000
     7  H    1.844713   0.000000
     8  H    3.075481   2.442253   0.000000
     9  H    2.605378   3.766475   3.014642   0.000000
    10  H    2.903303   3.926048   3.417932   2.462963   0.000000
    11  H    4.089660   5.105462   3.907552   2.416901   1.636029
    12  H    4.343071   4.658469   2.777919   2.340564   4.041351
    13  H    4.625508   4.762763   2.509263   2.907982   3.487978
[...]
 Alpha virt. eigenvalues --   12.57925  12.61085  12.63222  12.66312  12.68564
 Alpha virt. eigenvalues --   12.76341  12.79802  12.84705  12.87840  12.90776
 Alpha virt. eigenvalues --   12.99476  13.05586  13.08830  13.11262  13.18235
 Alpha virt. eigenvalues --   13.19028  13.25366  13.29103  13.36291  13.40368
 Alpha virt. eigenvalues --   13.43649  13.50178  13.58048  13.67003  13.76163
 Alpha virt. eigenvalues --   13.77449  13.79796  13.84915  13.90604  13.94412
 Alpha virt. eigenvalues --   14.02214  14.05786  14.16407  14.30210  14.36326
 Alpha virt. eigenvalues --   14.53879  14.57606  14.61646  14.66219  14.69816
 Alpha virt. eigenvalues --   14.78515  14.79840  14.80853  14.85065  14.86532
 Alpha virt. eigenvalues --   14.94608  15.00684  15.02545  15.07121  15.08139
 Alpha virt. eigenvalues --   15.11845  15.25736  15.28331  15.30843  15.36651
 Alpha virt. eigenvalues --   15.39799  15.41196  15.46015  15.50294  15.57852
 Alpha virt. eigenvalues --   15.66989  15.75697  15.76991  15.83002  15.86712
 Alpha virt. eigenvalues --   15.91255  15.98225  16.00831  16.19285  16.24543
 Alpha virt. eigenvalues --   16.28787  16.42142  17.02535  17.27040  17.32976
 Alpha virt. eigenvalues --   17.49509  17.61861  17.92931  18.33593  18.35933
 Alpha virt. eigenvalues --   18.41697  18.47186  18.79602  18.86801  19.07229
 Alpha virt. eigenvalues --   19.23164  19.33156  19.46744  19.53589  19.59349
 Alpha virt. eigenvalues --   20.35932  20.40441  38.80983  40.78071  41.22903
 Alpha virt. eigenvalues --   50.68769  50.73039
          Condensed to atoms (all electrons):
               1          2          3          4          5          6
     1  C    4.976903   0.729973  -0.076757   0.002229  -0.008012   0.420286
     2  C    0.729973   4.929454   0.416980  -0.043585  -0.094190  -0.032681
     3  C   -0.076757   0.416980   4.654930   0.273253   0.313299  -0.007270
     4  N    0.002229  -0.043585   0.273253   6.814911  -0.055692   0.000305
     5  N   -0.008012  -0.094190   0.313299  -0.055692   6.770403   0.001277
     6  H    0.420286  -0.032681  -0.007270   0.000305   0.001277   0.460962
     7  H    0.415556  -0.027154   0.006091  -0.000726  -0.001290  -0.025347
     8  H   -0.027362   0.400065  -0.028870  -0.002993   0.001192   0.005068
     9  H    0.004168  -0.055707   0.434342  -0.059944  -0.031478   0.002870
    10  H   -0.000162  -0.009626  -0.025740   0.391255   0.004542  -0.000016
    11  H   -0.000582   0.005423  -0.031072   0.389392  -0.002707  -0.000065
    12  H    0.000281   0.000150  -0.036311   0.005167   0.396357   0.000160
    13  H    0.001183   0.000463  -0.037964  -0.000539   0.390817   0.000059
               7          8          9         10         11         12
     1  C    0.415556  -0.027362   0.004168  -0.000162  -0.000582   0.000281
     2  C   -0.027154   0.400065  -0.055707  -0.009626   0.005423   0.000150
     3  C    0.006091  -0.028870   0.434342  -0.025740  -0.031072  -0.036311
     4  N   -0.000726  -0.002993  -0.059944   0.391255   0.389392   0.005167
     5  N   -0.001290   0.001192  -0.031478   0.004542  -0.002707   0.396357
     6  H   -0.025347   0.005068   0.002870  -0.000016  -0.000065   0.000160
     7  H    0.449061  -0.006061  -0.000136  -0.000021   0.000044  -0.000039
     8  H   -0.006061   0.438678   0.003969   0.000375  -0.000157   0.000260
     9  H   -0.000136   0.003969   0.559902  -0.002240  -0.002768  -0.000678
    10  H   -0.000021   0.000375  -0.002240   0.371836  -0.028487  -0.000597
    11  H    0.000044  -0.000157  -0.002768  -0.028487   0.360702  -0.000186
    12  H   -0.000039   0.000260  -0.000678  -0.000597  -0.000186   0.377459
    13  H    0.000023   0.001478   0.006813  -0.000123  -0.000198  -0.028166
              13
     1  C    0.001183
     2  C    0.000463
     3  C   -0.037964
     4  N   -0.000539
     5  N    0.390817
     6  H    0.000059
     7  H    0.000023
     8  H    0.001478
     9  H    0.006813
    10  H   -0.000123
    11  H   -0.000198
    12  H   -0.028166
    13  H    0.371870
 Mulliken charges:
               1
     1  C   -0.437704
     2  C   -0.219563
     3  C    0.145089
     4  N   -0.713034
     5  N   -0.684516
     6  H    0.174392
     7  H    0.189998
     8  H    0.214358
     9  H    0.140887
    10  H    0.299004
    11  H    0.310660
    12  H    0.286144
    13  H    0.294284
 Sum of Mulliken charges =  -0.00000
 Mulliken charges with hydrogens summed into heavy atoms:
               1
     1  C   -0.073314
     2  C   -0.005205
     3  C    0.285976
     4  N   -0.103370
     5  N   -0.104088
 Electronic spatial extent (au):  <R**2>=            479.6654
 Charge=             -0.0000 electrons
 Dipole moment (field-independent basis, Debye):
    X=              1.1428    Y=              0.0766    Z=              0.5406  Tot=              1.2665
 Quadrupole moment (field-independent basis, Debye-Ang):
   XX=            -33.7913   YY=            -31.0671   ZZ=            -31.2452
   XY=             -1.6574   XZ=             -0.2656   YZ=              2.6614
 Traceless Quadrupole moment (field-independent basis, Debye-Ang):
   XX=             -1.7567   YY=              0.9674   ZZ=              0.7893
   XY=             -1.6574   XZ=             -0.2656   YZ=              2.6614
 Octapole moment (field-independent basis, Debye-Ang**2):
  XXX=              2.3134  YYY=              0.0012  ZZZ=             -0.2090  XYY=             -4.6686
  XXY=              5.4192  XXZ=              0.6618  XZZ=              0.1471  YZZ=             -2.4591
  YYZ=              1.8365  XYZ=             -5.8304
 Hexadecapole moment (field-independent basis, Debye-Ang**3):
 XXXX=           -381.5737 YYYY=           -141.9630 ZZZZ=            -69.9054 XXXY=            -16.5087
 XXXZ=             -5.1049 YYYX=             -5.1219 YYYZ=              4.8734 ZZZX=              1.7290
 ZZZY=              3.8192 XXYY=           -107.3500 XXZZ=            -77.0076 YYZZ=            -42.8841
 XXYZ=              9.6704 YYXZ=              0.3548 ZZXY=              3.0046
 N-N= 1.777935866327D+02 E-N=-8.864831141770D+02  KE= 2.269215937825D+02
 PrsmSu:  requested number of processors reduced to:   1 ShMem   1 Linda.
 No NMR shielding tensors so no spin-rotation constants.
 Leave Link  601 at Mon Aug 22 08:12:24 2022, MaxMem=    23592960 cpu:         8.3
 (Enter /public/home/users/caep010/software/Gaussian09/g09/l9999.exe)
 1\1\GINC-B1913\SP\RHF\GFHFB2\C3H8N2\ROOT\22-Aug-2022\0\\#P Geom=AllChe
 ck Guess=TCheck SCRF=Check HF/GFHFB2 SCF=Tight\\Frag_962\\0,1\C,0,2.01
 76336832,-0.1336889229,-0.0688556536\C,0,0.7812446457,0.0129359734,-0.
 5341028421\C,0,-0.4624389804,0.0389796834,0.3207231704\N,0,-1.24131986
 25,1.2314440622,-0.005372312\N,0,-1.360086982,-1.0995278565,0.09527879
 33\H,0,2.2166156182,-0.2177863071,0.9965544074\H,0,2.8803854161,-0.178
 0669452,-0.7252343919\H,0,0.5960047698,0.1049864087,-1.6040616682\H,0,
 -0.1534000345,-0.0163750451,1.3794707713\H,0,-0.7025552833,2.067017627
 6,0.1990743603\H,0,-2.0712980756,1.2466703309,0.5807672458\H,0,-0.8518
 915637,-1.9662838324,0.2465656667\H,0,-1.6488933509,-1.090405177,-0.88
 09075475\\Version=ES64L-G09RevE.01\State=1-A\HF=-227.2326902\RMSD=2.49
 9e-09\Dipole=0.468809,-0.0069518,0.16873\Quadrupole=-1.4719612,0.83043
 64,0.6415248,-0.87169,0.1376782,2.0841522\PG=C01 [X(C3H8N2)]\\@


      HUMANKIND PERIODICALLY GOES THROUGH A SPEEDUP OF ITS AFFAIRS, 
      THEREBY EXPERIENCING THE RACE BETWEEN THE RENEWABLE VITALITY
      OF THE LIVING, AND THE BECKONING VITIATION OF DECADENCE.
      IN THIS PERIODIC RACE, ANY PAUSE BECOMES A LUXURY.
      ONLY THEN CAN ONE REFLECT THAT ALL IS PERMITTED;
      ALL IS POSSIBLE.

                              -- THE APOCRYPHA OF MUAD'DIB
                                 CHILDREN OF DUNE, BY FRANK HERBERT
 Diagonal vibrational polarizability:
        0.0000000       0.0000000       0.0000000

 Temperature=              298.150000 Pressure=                      1.000000
 E(ZPE)=                     0.113377 E(Thermal)=                    0.119598
 E(CCSD(T))=              -227.901718 E(Empiric)=                   -0.104205
 DE(Plus)=                  -0.023114 DE(2DF)=                      -0.207079
 E(Delta-G3XP)=             -0.310653 DE(HF)=                       -0.022555
 G4(0 K)=                 -228.455948 G4 Energy=                  -228.449727
 G4 Enthalpy=             -228.448782 G4 Free Energy=             -228.484954
 1\1\GINC-B1913\Mixed\G4\G4\C3H8N2\ROOT\22-Aug-2022\0\\#P Geom=AllCheck
  Guess=TCheck SCRF=Check HF/GFHFB2 SCF=Tight\\Frag_962\\0,1\C,0,2.0176
 336832,-0.1336889229,-0.0688556536\C,0,0.7812446457,0.0129359734,-0.53
 41028421\C,0,-0.4624389804,0.0389796834,0.3207231704\N,0,-1.2413198625
 ,1.2314440622,-0.005372312\N,0,-1.360086982,-1.0995278565,0.0952787933
 \H,0,2.2166156182,-0.2177863071,0.9965544074\H,0,2.8803854161,-0.17806
 69452,-0.7252343919\H,0,0.5960047698,0.1049864087,-1.6040616682\H,0,-0
 .1534000345,-0.0163750451,1.3794707713\H,0,-0.7025552833,2.0670176276,
 0.1990743603\H,0,-2.0712980756,1.2466703309,0.5807672458\H,0,-0.851891
 5637,-1.9662838324,0.2465656667\H,0,-1.6488933509,-1.090405177,-0.8809
 075475\\Version=ES64L-G09RevE.01\State=1-A\MP2/GTBas1=-227.8283785\MP4
 /GTBas1=-227.8997492\CCSD(T)/G3Bas1=-227.9017183\MP2/GTBas2=-227.85091
 93\MP4/GTBas2=-227.9228637\MP2/GTBas3=-228.0244151\MP4/GTBas3=-228.106
 8284\HF/GTLargeXP=-227.2110652\MP2/GTLargeXP=-228.3576087\HF/GFHFB1=-2
 27.2288749\HF/GFHFB2=-227.2326902\G4=-228.4559479\FreqCoord=3.81277509
 78,-0.2526354513,-0.130118328,1.4763384231,0.0244454471,-1.0093080983,
 -0.873883026,0.0736609263,0.6060789565,-2.3457545835,2.3270920256,-0.0
 101521984,-2.5701919129,-2.0778065242,0.1800508256,4.1887964603,-0.411
 5564759,1.8832149064,5.4431395935,-0.3364977598,-1.3704943828,1.126285
 7887,0.1983955601,-3.0312372531,-0.289884054,-0.0309443507,2.606821966
 2,-1.3276370787,3.9060972281,0.3761960211,-3.9141861025,2.3558655034,1
 .0974910415,-1.6098417504,-3.7157379427,0.4659415839,-3.1159568555,-2.
 0605671585,-1.6646740132\PG=C01 [X(C3H8N2)]\NImag=0\\0.82925273,-0.072
 43280,0.11613785,0.06464001,-0.03951925,0.65060321,-0.50162388,0.05278
 600,-0.14746344,0.78290656,0.05305038,-0.05456085,0.02236265,-0.071181
 41,0.16935440,-0.15105820,0.02203503,-0.16905215,0.13282529,-0.0451381
 7,0.63079066,-0.02847227,0.00146596,0.01282570,-0.14142353,0.00550776,
 0.05729032,0.49906764,0.00059419,0.00479046,-0.00360516,0.01119557,-0.
 06930786,-0.00325001,-0.01259778,0.45839517,-0.00957454,0.00052983,0.0
 1153661,0.05467992,-0.00153563,-0.14198732,0.03100494,-0.00376362,0.59
 670235,-0.00189094,-0.00024003,0.00351160,-0.02910184,0.03338307,-0.00
 527477,-0.13300545,0.05022249,-0.02500894,0.60522635,-0.00076934,-0.00
 013644,-0.00008049,0.01158117,-0.00293260,-0.00136339,0.04949435,-0.15
 960608,0.04972249,0.08481218,0.58952498,0.00134041,0.00029983,-0.00122
 552,0.01178648,-0.01645993,0.00704474,0.00160023,0.00714153,-0.0785468
 1,-0.14219533,0.03393843,0.25489838,-0.00156961,-0.00049965,0.00416801
 ,-0.02996102,-0.03177719,-0.00583402,-0.12220146,-0.04352928,-0.017583
 25,0.01483483,0.01541946,0.00194877,0.32863468,0.00131089,0.00032148,0
 .00205083,-0.01685888,-0.00853523,0.00080482,-0.06479118,-0.14665426,0
 .00600822,-0.02346705,-0.05232213,-0.00169385,-0.07786213,0.58808591,0
 .00161615,-0.00016154,-0.00097143,0.01039013,0.01386454,0.00793794,-0.
 04451614,-0.02105170,-0.08936576,0.00480785,0.01151040,0.00520141,0.19
 166869,-0.03480856,0.51222254,-0.06406923,0.00546755,-0.04340242,-0.00
 204880,0.00255385,-0.03095851,0.00146772,-0.00066305,-0.00323857,0.000
 19741,-0.00023053,0.00071841,-0.00020903,0.00003407,0.00039145,0.06323
 512,0.00553251,-0.03698851,0.02150847,0.00088966,0.00541162,0.00437199
 ,-0.00046946,-0.00807333,-0.00055488,0.00120033,0.00001944,-0.00033167
 ,-0.00205812,-0.00046650,0.00004901,-0.00707409,0.02608179,-0.04759009
 ,0.02199156,-0.32124693,-0.00125547,0.00096614,-0.01013153,0.00245339,
 -0.00028509,0.00045159,0.00020945,-0.00010173,0.00027346,-0.00034649,-
 0.00031989,0.00027356,0.05446217,-0.02460647,0.34220330,-0.22955358,0.
 01053077,0.13491543,-0.02115146,0.00069130,0.02170936,-0.00030329,0.00
 247417,-0.00450699,-0.00123348,-0.00016853,0.00063223,-0.00063680,-0.0
 0045891,0.00031301,0.00588709,-0.00003987,-0.00533110,0.24573517,0.010
 65565,-0.03553652,-0.00532960,0.00328949,0.00262925,-0.00296699,0.0003
 9953,0.01326986,0.00193073,-0.00264001,-0.00029985,0.00108429,0.003998
 44,0.00091923,-0.00126142,-0.00171234,0.00209975,0.00144975,-0.0124746
 2,0.02450483,0.13995101,-0.00577547,-0.16297803,-0.01303801,0.00071874
 ,0.00980990,-0.00098812,0.00110090,-0.00149521,-0.00033235,-0.00005030
 ,0.00056231,-0.00014444,-0.00020710,0.00038888,0.02220614,-0.00126408,
 -0.01317678,-0.14761769,0.00584258,0.16508259,-0.00304825,0.00301021,-
 0.03169853,-0.06161127,0.00340768,-0.04123726,0.00398996,-0.00134439,0
 .02652769,0.00174974,-0.00107382,-0.00124671,0.00212973,0.00117702,-0.
 00110543,-0.00452930,0.00175521,-0.00177044,0.00117685,-0.00094252,0.0
 0025211,0.06409856,0.00059971,0.00531201,0.00364943,0.00491871,-0.0421
 2411,0.02308382,-0.00080137,0.00192116,-0.00014409,-0.00088677,0.00044
 578,-0.00023348,0.00183689,0.00066227,-0.00011599,0.00154534,0.0119023
 3,0.00077604,-0.00088110,-0.00754783,-0.00054433,-0.00581130,0.0285318
 7,0.00157855,0.00062140,-0.00812198,-0.04463322,0.02375881,-0.31487049
 ,-0.00709676,0.00106079,-0.01878852,-0.00098612,-0.00002969,0.00200714
 ,-0.00000886,0.00043054,0.00198728,-0.00134650,0.00093927,0.00069975,-
 0.00027818,-0.00056101,0.00119673,0.04844713,-0.02674900,0.33724201,0.
 00141268,-0.00044809,0.00150373,0.00328812,-0.00061238,0.02675090,-0.0
 6333095,0.00154483,-0.05042105,-0.00708945,0.00986447,-0.01884808,-0.0
 1103687,-0.00539828,-0.02265162,0.00005880,0.00011700,-0.00089498,0.00
 023304,-0.00006629,-0.00023159,-0.00373806,0.00017094,0.00330005,0.079
 93714,0.00012099,-0.00039455,-0.00020824,-0.00032681,0.00277671,-0.000
 37178,0.00256667,-0.04848505,0.00873322,0.01638798,-0.01162788,0.03100
 762,-0.01474725,-0.00194850,-0.02811590,-0.00004090,0.00019612,0.00000
 873,-0.00004416,-0.00018851,-0.00004581,0.00039110,0.00099808,-0.00003
 659,-0.00029506,0.06072368,-0.00157947,0.00017427,0.00090998,-0.004237
 05,0.00095211,-0.02283316,-0.05081624,0.00306784,-0.26244927,-0.005540
 26,0.00834869,-0.00270910,-0.00500509,-0.00321249,-0.00498841,0.001186
 21,-0.00024557,0.00096978,0.00019723,-0.00002547,0.00074540,0.00287721
 ,0.00004579,-0.00153749,0.06329250,-0.00830695,0.28883139,-0.00031139,
 -0.00027589,-0.00014747,0.00086481,0.00002207,0.00035208,0.01131937,0.
 01905949,0.00292972,-0.16837709,-0.16667957,-0.02392752,-0.00154298,0.
 00322236,-0.00069517,0.00000431,0.00011694,-0.00006997,-0.00003155,0.0
 0002808,-0.00001450,-0.00000406,0.00008312,0.00014704,0.00023204,0.000
 12377,-0.00012884,0.17295408,0.00051260,0.00035351,0.00031489,-0.00059
 820,0.00078541,-0.00046535,-0.02104725,-0.02279642,-0.01034869,-0.1555
 1510,-0.29884603,-0.05311772,0.00468404,-0.00665979,0.00270983,0.00004
 809,0.00010150,0.00004285,-0.00002419,-0.00024011,0.00003263,0.0000872
 2,-0.00016658,0.00002574,-0.00052513,0.00160042,0.00079244,0.17105215,
 0.32572493,0.00043121,0.00008529,-0.00011933,0.00026195,-0.00025290,0.
 00060785,0.00119629,0.01407040,-0.00487978,-0.04925214,-0.09894534,-0.
 03364636,-0.00058908,0.00038851,0.00031023,-0.00010322,-0.00007446,-0.
 00014601,0.00007168,0.00002555,-0.00007842,0.00013030,-0.00036672,-0.0
 0042779,0.00080727,-0.00029503,0.00083743,0.03324370,0.06356516,0.0358
 1280,0.00012155,0.00028981,0.00116308,-0.00228325,0.00392160,-0.002931
 90,-0.02086303,0.00300632,0.01546384,-0.27997909,-0.00066549,0.1675331
 2,0.00198787,-0.00132201,-0.00012155,-0.00003818,0.00025321,-0.0000281
 2,-0.00024012,-0.00043654,-0.00014276,0.00011103,-0.00014131,0.0000652
 9,0.00072208,-0.00159147,-0.00014195,-0.01603094,0.00213271,0.01376567
 ,0.31650440,0.00100403,0.00025694,-0.00115776,0.00267743,-0.00553017,0
 .00273347,0.03005198,-0.00090128,-0.02160298,0.00146367,-0.06088363,-0
 .00110051,-0.00140662,0.00266894,-0.00006549,-0.00003679,-0.00030068,0
 .00003366,0.00041131,0.00066201,0.00018470,-0.00017143,0.00005000,-0.0
 0012664,-0.00030335,0.00058656,0.00048621,-0.02812445,0.00131621,0.021
 08158,-0.00519426,0.06186518,-0.00016214,-0.00006862,0.00024183,0.0011
 0101,0.00007042,0.00037354,-0.01333605,0.00626657,0.00031947,0.2195126
 5,-0.00164887,-0.15520177,-0.00080546,-0.00059198,-0.00035485,0.000007
 16,0.00025719,0.00008559,-0.00000347,-0.00017902,0.00001463,-0.0004472
 0,0.00021656,0.00045236,-0.00054742,-0.00038103,0.00156113,-0.01184657
 ,-0.00273674,0.00006064,-0.19389109,-0.00084647,0.15306583,-0.00020090
 ,0.00034863,-0.00043055,0.00169357,-0.00065374,0.00031614,0.00670017,-
 0.02511504,0.00695947,-0.00212766,-0.00300946,-0.00051836,-0.13576110,
 0.18384783,-0.06189782,-0.00004613,-0.00006615,-0.00006099,0.00007168,
 -0.00002130,-0.00000289,0.00004371,-0.00011569,0.00003403,0.00063832,0
 .00061377,-0.00018490,0.00129055,-0.00095589,0.00007190,-0.00016584,-0
 .00064610,-0.00046021,0.13620702,-0.00006939,0.00048338,-0.00021697,0.
 00111146,0.00160835,0.00088115,0.02064205,-0.02297195,0.00496754,-0.00
 574620,-0.00616710,-0.00107946,0.14684560,-0.31545826,0.05187909,-0.00
 001367,0.00008911,-0.00003471,-0.00002723,-0.00031843,-0.00004360,-0.0
 0016428,-0.00011070,0.00006328,-0.00026348,0.00063153,-0.00077835,0.00
 118295,-0.00146354,-0.00027048,-0.00018205,0.00037374,0.00012398,-0.16
 424208,0.34309506,-0.00000926,-0.00018213,0.00040876,-0.00089047,-0.00
 009144,-0.00031641,0.00882838,-0.00247403,-0.00012251,-0.00117166,-0.0
 0130650,0.00023809,-0.03815408,0.02014439,-0.04705814,-0.00007317,-0.0
 0007735,-0.00012584,-0.00008112,0.00014415,-0.00008550,0.00001301,0.00
 024731,-0.00007493,-0.00016400,0.00025037,-0.00060635,-0.00001545,-0.0
 0101158,0.00124953,-0.00041380,0.00068716,0.00002874,0.05156943,-0.051
 83475,0.05343752,-0.00004691,-0.00000247,0.00041484,0.00045200,0.00168
 701,-0.00194942,-0.01294488,-0.00484753,-0.02723223,0.00079668,0.00142
 511,0.00117636,-0.04466824,0.00056627,-0.07819953,0.00009023,-0.000157
 14,0.00022265,0.00004647,-0.00007756,0.00010306,-0.00036865,-0.0005171
 7,0.00077755,-0.00132689,-0.00315862,0.00008064,-0.00036715,0.00014894
 ,-0.00003553,0.00015353,0.00027457,0.00087880,-0.00834339,0.00092631,-
 0.01943781,0.06652720,-0.00010942,-0.00003876,0.00023121,0.00051581,0.
 00042509,-0.00035460,-0.01042125,0.00041958,-0.03394214,0.00102543,0.0
 0283154,0.00054490,-0.00090420,-0.06061315,0.00556774,0.00012248,-0.00
 007264,0.00007915,0.00001107,0.00004633,0.00005114,-0.00032069,0.00012
 573,0.00060311,-0.00378517,-0.00486862,-0.00129852,0.00018898,0.000290
 50,0.00098845,-0.00007053,-0.00016382,-0.00048201,0.01001522,0.0002088
 2,0.03550439,0.00373228,0.06140941,0.00041636,-0.00003020,0.00001498,0
 .00047288,0.00078465,0.00262643,0.00155407,0.00172157,-0.01137486,0.00
 172002,0.00000629,0.00110401,-0.12931470,0.01100655,-0.38558327,0.0001
 5085,0.00002855,-0.00012995,-0.00002039,-0.00015354,0.00001351,-0.0007
 4187,0.00013468,0.00023591,-0.00189570,-0.00223861,0.00126866,0.000172
 94,0.00019654,0.00041921,-0.00031984,-0.00030693,-0.00064714,0.0046047
 6,-0.00365671,-0.00697297,0.12320062,-0.00749283,0.39902546\\-0.000002
 21,0.00001748,0.00001312,-0.00002019,0.00001611,0.00000086,0.00004493,
 0.00000330,-0.00001964,-0.00000250,0.00002888,0.00000418,-0.00003203,-
 0.00003130,0.00003516,-0.00000324,-0.00001462,-0.00000541,0.00000056,-
 0.00000315,-0.00000321,0.00000278,-0.00001152,0.00000351,-0.00000778,-
 0.00000442,-0.00000587,-0.00000491,0.00000054,-0.00001149,0.00001444,0
 .00000095,-0.00000738,0.00000228,-0.00001595,-0.00000738,0.00000787,0.
 00001372,0.00000355\\\@
 Job cpu time:       0 days  1 hours 45 minutes  7.1 seconds.
 File lengths (MBytes):  RWF=   6828 Int=      0 D2E=      0 Chk=     29 Scr=      1
 Normal termination of Gaussian 09 at Mon Aug 22 08:12:24 2022.
