 Entering Gaussian System, Link 0=g09
 Input=G4.Frag_700.gjf
 Output=G4.Frag_700.log
 Initial command:
 /public/home/users/caep010/software/Gaussian09/g09/l1.exe "/public/home/users/caep010/.cache/gau_scr/Gau-217079.inp" -scrdir="/public/home/users/caep010/.cache/gau_scr/"
 Entering Link 1 = /public/home/users/caep010/software/Gaussian09/g09/l1.exe PID=    217080.
  
 Copyright (c) 1988,1990,1992,1993,1995,1998,2003,2009,2015,
            Gaussian, Inc.  All Rights Reserved.
  
 This is part of the Gaussian(R) 09 program.  It is based on
 the Gaussian(R) 03 system (copyright 2003, Gaussian, Inc.),
 the Gaussian(R) 98 system (copyright 1998, Gaussian, Inc.),
 the Gaussian(R) 94 system (copyright 1995, Gaussian, Inc.),
 the Gaussian 92(TM) system (copyright 1992, Gaussian, Inc.),
 the Gaussian 90(TM) system (copyright 1990, Gaussian, Inc.),
 the Gaussian 88(TM) system (copyright 1988, Gaussian, Inc.),
 the Gaussian 86(TM) system (copyright 1986, Carnegie Mellon
 University), and the Gaussian 82(TM) system (copyright 1983,
 Carnegie Mellon University). Gaussian is a federally registered
 trademark of Gaussian, Inc.
  
 This software contains proprietary and confidential information,
 including trade secrets, belonging to Gaussian, Inc.
  
 This software is provided under written license and may be
 used, copied, transmitted, or stored only in accord with that
 written license.
  
 The following legend is applicable only to US Government
 contracts under FAR:
  
                    RESTRICTED RIGHTS LEGEND
  
 Use, reproduction and disclosure by the US Government is
 subject to restrictions as set forth in subparagraphs (a)
 and (c) of the Commercial Computer Software - Restricted
 Rights clause in FAR 52.227-19.
  
 Gaussian, Inc.
 340 Quinnipiac St., Bldg. 40, Wallingford CT 06492
  
  
 ---------------------------------------------------------------
 Warning -- This program may not be used in any manner that
 competes with the business of Gaussian, Inc. or will provide
 assistance to any competitor of Gaussian, Inc.  The licensee
 of this program is prohibited from giving any competitor of
 Gaussian, Inc. access to this program.  By using this program,
 the user acknowledges that Gaussian, Inc. is engaged in the
 business of creating and licensing software in the field of
 computational chemistry and represents and warrants to the
 licensee that it is not a competitor of Gaussian, Inc. and that
 it will not use this program in any manner prohibited above.
 ---------------------------------------------------------------
  

 Cite this work as:
 Gaussian 09, Revision E.01,
 M. J. Frisch, G. W. Trucks, H. B. Schlegel, G. E. Scuseria, 
 M. A. Robb, J. R. Cheeseman, G. Scalmani, V. Barone, B. Mennucci, 
 G. A. Petersson, H. Nakatsuji, M. Caricato, X. Li, H. P. Hratchian, 
 A. F. Izmaylov, J. Bloino, G. Zheng, J. L. Sonnenberg, M. Hada, 
 M. Ehara, K. Toyota, R. Fukuda, J. Hasegawa, M. Ishida, T. Nakajima, 
 Y. Honda, O. Kitao, H. Nakai, T. Vreven, J. A. Montgomery, Jr., 
 J. E. Peralta, F. Ogliaro, M. Bearpark, J. J. Heyd, E. Brothers, 
 K. N. Kudin, V. N. Staroverov, T. Keith, R. Kobayashi, J. Normand, 
 K. Raghavachari, A. Rendell, J. C. Burant, S. S. Iyengar, J. Tomasi, 
 M. Cossi, N. Rega, J. M. Millam, M. Klene, J. E. Knox, J. B. Cross, 
 V. Bakken, C. Adamo, J. Jaramillo, R. Gomperts, R. E. Stratmann, 
 O. Yazyev, A. J. Austin, R. Cammi, C. Pomelli, J. W. Ochterski, 
 R. L. Martin, K. Morokuma, V. G. Zakrzewski, G. A. Voth, 
 P. Salvador, J. J. Dannenberg, S. Dapprich, A. D. Daniels, 
 O. Farkas, J. B. Foresman, J. V. Ortiz, J. Cioslowski, 
 and D. J. Fox, Gaussian, Inc., Wallingford CT, 2013.
 
 ******************************************
 Gaussian 09:  ES64L-G09RevE.01 30-Nov-2015
                26-Aug-2022 
 ******************************************
 %nproc=32
 Will use up to   32 processors via shared memory.
 %mem=180GB
 %chk=G4.Frag_700.chk
 -----
 #P G4
 -----
 1/14=-1,18=20,19=15,26=3,38=1/1,3;
 2/9=110,12=2,17=6,18=5,40=1/2;
 3/5=35,7=104,11=2,16=1,25=1,30=1,71=1,74=-5/1,2,3;
 4//1;
 5/5=2,38=5/2;
 6/7=2,8=2,9=2,10=2,28=1/1;
 7//1,2,3,16;
 1/14=-1,18=20,19=15,26=3/3(2);
 2/9=110/2;
 99//99;
 2/9=110/2;
 3/5=35,7=104,11=2,16=1,25=1,30=1,71=1,74=-5/1,2,3;
 4/5=5,16=3,69=1/1;
 5/5=2,38=5/2;
 7//1,2,3,16;
 1/14=-1,18=20,19=15,26=3/3(-5);
 2/9=110/2;
 6/7=2,8=2,9=2,10=2,19=2,28=1/1;
 99/9=1/99;
 Leave Link    1 at Fri Aug 26 10:59:01 2022, MaxMem= 24159191040 cpu:         2.5
 (Enter /public/home/users/caep010/software/Gaussian09/g09/l101.exe)
 --------
 Frag_700
 --------
 Symbolic Z-matrix:
 Charge =  0 Multiplicity = 1
 C                     0.1802    1.3512   -0.2215 
 N                    -0.0233    0.0975    0.5172 
 C                    -1.457    -0.0564    0.8238 
 N                     0.4234   -0.9692   -0.3071 
 N                     1.7193   -1.3354    0.1087 
 H                    -0.1588    2.217     0.3876 
 H                     1.26      1.5019   -0.431 
 H                    -0.3732    1.3428   -1.1873 
 H                    -2.0608   -0.139    -0.1076 
 H                    -1.6145   -0.9671    1.4403 
 H                    -1.8201    0.8083    1.4205 
 H                    -0.1711   -1.8232   -0.1773 
 H                     2.3736   -0.5531   -0.1199 
 H                     1.7224   -1.4755    1.1471 
 
 NAtoms=     14 NQM=       14 NQMF=       0 NMMI=      0 NMMIF=      0
                NMic=       0 NMicF=      0.
                    Isotopes and Nuclear Properties:
 (Nuclear quadrupole moments (NQMom) in fm**2, nuclear magnetic moments (NMagM)
  in nuclear magnetons)

  Atom         1           2           3           4           5           6           7           8           9          10
 IAtWgt=          12          14          12          14          14           1           1           1           1           1
 AtmWgt=  12.0000000  14.0030740  12.0000000  14.0030740  14.0030740   1.0078250   1.0078250   1.0078250   1.0078250   1.0078250
 NucSpn=           0           2           0           2           2           1           1           1           1           1
 AtZEff=   0.0000000   0.0000000   0.0000000   0.0000000   0.0000000   0.0000000   0.0000000   0.0000000   0.0000000   0.0000000
 NQMom=    0.0000000   2.0440000   0.0000000   2.0440000   2.0440000   0.0000000   0.0000000   0.0000000   0.0000000   0.0000000
 NMagM=    0.0000000   0.4037610   0.0000000   0.4037610   0.4037610   2.7928460   2.7928460   2.7928460   2.7928460   2.7928460
 AtZNuc=   6.0000000   7.0000000   6.0000000   7.0000000   7.0000000   1.0000000   1.0000000   1.0000000   1.0000000   1.0000000

  Atom        11          12          13          14
 IAtWgt=           1           1           1           1
 AtmWgt=   1.0078250   1.0078250   1.0078250   1.0078250
 NucSpn=           1           1           1           1
 AtZEff=   0.0000000   0.0000000   0.0000000   0.0000000
 NQMom=    0.0000000   0.0000000   0.0000000   0.0000000
 NMagM=    2.7928460   2.7928460   2.7928460   2.7928460
 AtZNuc=   1.0000000   1.0000000   1.0000000   1.0000000
 Leave Link  101 at Fri Aug 26 10:59:01 2022, MaxMem= 24159191040 cpu:        23.6
 (Enter /public/home/users/caep010/software/Gaussian09/g09/l103.exe)

 GradGradGradGradGradGradGradGradGradGradGradGradGradGradGradGradGradGrad
 Berny optimization.
 Initialization pass.
                           ----------------------------
                           !    Initial Parameters    !
                           ! (Angstroms and Degrees)  !
 --------------------------                            --------------------------
 ! Name  Definition              Value          Derivative Info.                !
 --------------------------------------------------------------------------------
 ! R1    R(1,2)                  1.4693         estimate D2E/DX2                !
 ! R2    R(1,6)                  1.1115         estimate D2E/DX2                !
 ! R3    R(1,7)                  1.1102         estimate D2E/DX2                !
 ! R4    R(1,8)                  1.1131         estimate D2E/DX2                !
 ! R5    R(2,3)                  1.4742         estimate D2E/DX2                !
 ! R6    R(2,4)                  1.4202         estimate D2E/DX2                !
 ! R7    R(3,9)                  1.1131         estimate D2E/DX2                !
 ! R8    R(3,10)                 1.111          estimate D2E/DX2                !
 ! R9    R(3,11)                 1.1116         estimate D2E/DX2                !
 ! R10   R(4,5)                  1.4094         estimate D2E/DX2                !
 ! R11   R(4,12)                 1.0486         estimate D2E/DX2                !
 ! R12   R(5,13)                 1.0452         estimate D2E/DX2                !
 ! R13   R(5,14)                 1.0478         estimate D2E/DX2                !
 ! A1    A(2,1,6)              110.2966         estimate D2E/DX2                !
 ! A2    A(2,1,7)              110.2062         estimate D2E/DX2                !
 ! A3    A(2,1,8)              111.1562         estimate D2E/DX2                !
 ! A4    A(6,1,7)              107.1156         estimate D2E/DX2                !
 ! A5    A(6,1,8)              109.2504         estimate D2E/DX2                !
 ! A6    A(7,1,8)              108.7132         estimate D2E/DX2                !
 ! A7    A(1,2,3)              109.1681         estimate D2E/DX2                !
 ! A8    A(1,2,4)              107.7893         estimate D2E/DX2                !
 ! A9    A(3,2,4)              110.3778         estimate D2E/DX2                !
 ! A10   A(2,3,9)              111.1792         estimate D2E/DX2                !
 ! A11   A(2,3,10)             109.8079         estimate D2E/DX2                !
 ! A12   A(2,3,11)             110.3723         estimate D2E/DX2                !
 ! A13   A(9,3,10)             109.0635         estimate D2E/DX2                !
 ! A14   A(9,3,11)             109.252          estimate D2E/DX2                !
 ! A15   A(10,3,11)            107.0665         estimate D2E/DX2                !
 ! A16   A(2,4,5)              108.2484         estimate D2E/DX2                !
 ! A17   A(2,4,12)             111.1947         estimate D2E/DX2                !
 ! A18   A(5,4,12)             105.8526         estimate D2E/DX2                !
 ! A19   A(4,5,13)             108.4581         estimate D2E/DX2                !
 ! A20   A(4,5,14)             109.2587         estimate D2E/DX2                !
 ! A21   A(13,5,14)            108.3599         estimate D2E/DX2                !
 ! D1    D(6,1,2,3)             59.9851         estimate D2E/DX2                !
 ! D2    D(6,1,2,4)            179.8988         estimate D2E/DX2                !
 ! D3    D(7,1,2,3)            178.0509         estimate D2E/DX2                !
 ! D4    D(7,1,2,4)            -62.0355         estimate D2E/DX2                !
 ! D5    D(8,1,2,3)            -61.351          estimate D2E/DX2                !
 ! D6    D(8,1,2,4)             58.5627         estimate D2E/DX2                !
 ! D7    D(1,2,3,9)             62.9257         estimate D2E/DX2                !
 ! D8    D(1,2,3,10)          -176.2867         estimate D2E/DX2                !
 ! D9    D(1,2,3,11)           -58.4792         estimate D2E/DX2                !
 ! D10   D(4,2,3,9)            -55.3794         estimate D2E/DX2                !
 ! D11   D(4,2,3,10)            65.4082         estimate D2E/DX2                !
 ! D12   D(4,2,3,11)          -176.7843         estimate D2E/DX2                !
 ! D13   D(1,2,4,5)             99.356          estimate D2E/DX2                !
 ! D14   D(1,2,4,12)          -144.7727         estimate D2E/DX2                !
 ! D15   D(3,2,4,5)           -141.4982         estimate D2E/DX2                !
 ! D16   D(3,2,4,12)           -25.6269         estimate D2E/DX2                !
 ! D17   D(2,4,5,13)           -67.9987         estimate D2E/DX2                !
 ! D18   D(2,4,5,14)            49.93           estimate D2E/DX2                !
 ! D19   D(12,4,5,13)          172.7026         estimate D2E/DX2                !
 ! D20   D(12,4,5,14)          -69.3687         estimate D2E/DX2                !
 --------------------------------------------------------------------------------
 Trust Radius=3.00D-01 FncErr=1.00D-07 GrdErr=1.00D-06
 Number of steps in this run=     64 maximum allowed number of steps=    100.
 GradGradGradGradGradGradGradGradGradGradGradGradGradGradGradGradGradGrad

 Leave Link  103 at Fri Aug 26 10:59:02 2022, MaxMem= 24159191040 cpu:         0.6
 (Enter /public/home/users/caep010/software/Gaussian09/g09/l202.exe)
                          Input orientation:                          
 ---------------------------------------------------------------------
 Center     Atomic      Atomic             Coordinates (Angstroms)
 Number     Number       Type             X           Y           Z
 ---------------------------------------------------------------------
      1          6           0        0.180200    1.351200   -0.221500
      2          7           0       -0.023300    0.097500    0.517200
      3          6           0       -1.457000   -0.056400    0.823800
      4          7           0        0.423400   -0.969200   -0.307100
      5          7           0        1.719300   -1.335400    0.108700
      6          1           0       -0.158800    2.217000    0.387600
      7          1           0        1.260000    1.501900   -0.431000
      8          1           0       -0.373200    1.342800   -1.187300
      9          1           0       -2.060800   -0.139000   -0.107600
     10          1           0       -1.614500   -0.967100    1.440300
     11          1           0       -1.820100    0.808300    1.420500
     12          1           0       -0.171100   -1.823200   -0.177300
     13          1           0        2.373600   -0.553100   -0.119900
     14          1           0        1.722400   -1.475500    1.147100
 ---------------------------------------------------------------------
                    Distance matrix (angstroms):
                    1          2          3          4          5
     1  C    0.000000
     2  N    1.469304   0.000000
     3  C    2.398836   1.474172   0.000000
     4  N    2.334680   1.420162   2.376561   0.000000
     5  N    3.113789   2.292756   3.498012   1.409379   0.000000
     6  H    1.111546   2.127777   2.654042   3.312618   4.027976
     7  H    1.110211   2.125625   3.374153   2.611817   2.924466
     8  H    1.113145   2.139748   2.678975   2.598974   3.637434
     9  H    2.693650   2.144228   1.113060   2.626839   3.970808
    10  H    3.370021   2.125419   1.110969   2.684483   3.608743
    11  H    2.644259   2.132997   1.111575   3.343262   4.340924
    12  H    3.194085   2.047746   2.403606   1.048615   1.973159
    13  H    2.906490   2.564041   3.976277   2.002864   1.045160
    14  H    3.498811   2.432811   3.496706   2.014557   1.047813
                    6          7          8          9         10
     6  H    0.000000
     7  H    1.787307   0.000000
     8  H    1.813974   1.806833   0.000000
     9  H    3.068153   3.718179   2.491882   0.000000
    10  H    3.655917   4.226166   3.712243   1.811333   0.000000
    11  H    2.410650   3.660075   3.029824   1.813947   1.787375
    12  H    4.079519   3.628870   3.329339   2.532263   2.330867
    13  H    3.787355   2.357947   3.504096   4.453710   4.302390
    14  H    4.213112   3.401342   4.217082   4.203939   3.388117
                   11         12         13         14
    11  H    0.000000
    12  H    3.492414   0.000000
    13  H    4.670478   2.844635   0.000000
    14  H    4.223718   2.336723   1.697107   0.000000
 Stoichiometry    C2H9N3
 Framework group  C1[X(C2H9N3)]
 Deg. of freedom    36
 Full point group                 C1      NOp   1
 Largest Abelian subgroup         C1      NOp   1
 Largest concise Abelian subgroup C1      NOp   1
                         Standard orientation:                         
 ---------------------------------------------------------------------
 Center     Atomic      Atomic             Coordinates (Angstroms)
 Number     Number       Type             X           Y           Z
 ---------------------------------------------------------------------
      1          6           0        0.801917    1.347241    0.063246
      2          7           0        0.334699    0.001749   -0.297604
      3          6           0        1.434126   -0.960816   -0.102887
      4          7           0       -0.759351   -0.319231    0.549088
      5          7           0       -1.952455   -0.087097   -0.164330
      6          1           0        1.662780    1.640735   -0.575745
      7          1           0       -0.002852    2.092043   -0.110494
      8          1           0        1.106337    1.393359    1.132962
      9          1           0        1.740291   -1.010747    0.966071
     10          1           0        1.113510   -1.970986   -0.436075
     11          1           0        2.311914   -0.676221   -0.722639
     12          1           0       -0.764484   -1.339406    0.791600
     13          1           0       -2.050673    0.941881   -0.318982
     14          1           0       -1.893324   -0.557154   -1.098922
 ---------------------------------------------------------------------
 Rotational constants (GHZ):      8.0091079      3.9263718      2.9840940
 Leave Link  202 at Fri Aug 26 10:59:02 2022, MaxMem= 24159191040 cpu:         0.4
 (Enter /public/home/users/caep010/software/Gaussian09/g09/l301.exe)
 Standard basis: GTBas3 (6D, 7F)
 Ernie: Thresh=  0.10000D-02 Tol=  0.10000D-05 Strict=F.
 There are   200 symmetry adapted cartesian basis functions of A   symmetry.
 There are   185 symmetry adapted basis functions of A   symmetry.
   185 basis functions,   283 primitive gaussians,   200 cartesian basis functions
    21 alpha electrons       21 beta electrons
       nuclear repulsion energy       200.1963328932 Hartrees.
 IExCor=  402 DFT=T Ex+Corr=B3LYP ExCW=0 ScaHFX=  0.200000
 ScaDFX=  0.800000  0.720000  1.000000  0.810000 ScalE2=  1.000000  1.000000
 IRadAn=      0 IRanWt=     -1 IRanGd=            0 ICorTp=0 IEmpDi=  4
 NAtoms=   14 NActive=   14 NUniq=   14 SFac= 1.00D+00 NAtFMM=   60 NAOKFM=F Big=F
 Integral buffers will be    131072 words long.
 Raffenetti 2 integral format.
 Two-electron integral symmetry is turned on.
 Leave Link  301 at Fri Aug 26 10:59:02 2022, MaxMem= 24159191040 cpu:         2.8
 (Enter /public/home/users/caep010/software/Gaussian09/g09/l302.exe)
 NPDir=0 NMtPBC=     1 NCelOv=     1 NCel=       1 NClECP=     1 NCelD=      1
         NCelK=      1 NCelE2=     1 NClLst=     1 CellRange=     0.0.
 One-electron integrals computed using PRISM.
 NBasis=   185 RedAO= T EigKep=  3.48D-04  NBF=   185
 NBsUse=   185 1.00D-06 EigRej= -1.00D+00 NBFU=   185
 Precomputing XC quadrature grid using
 IXCGrd= 4 IRadAn=           0 IRanWt=          -1 IRanGd=           0 AccXCQ= 0.00D+00.
 Generated NRdTot=       0 NPtTot=           0 NUsed=           0 NTot=          32
 NSgBfM=   200   200   200   200   200 MxSgAt=    14 MxSgA2=    14.
 Leave Link  302 at Fri Aug 26 10:59:02 2022, MaxMem= 24159191040 cpu:        16.2
 (Enter /public/home/users/caep010/software/Gaussian09/g09/l303.exe)
 DipDrv:  MaxL=1.
 Leave Link  303 at Fri Aug 26 10:59:02 2022, MaxMem= 24159191040 cpu:         0.7
 (Enter /public/home/users/caep010/software/Gaussian09/g09/l401.exe)
 ExpMin= 1.61D-01 ExpMax= 4.17D+03 ExpMxC= 6.27D+02 IAcc=1 IRadAn=         1 AccDes= 0.00D+00
 Harris functional with IExCor=  402 and IRadAn=       1 diagonalized for initial guess.
 HarFok:  IExCor=  402 AccDes= 0.00D+00 IRadAn=         1 IDoV= 1 UseB2=F ITyADJ=14
 ICtDFT=  3500011 ScaDFX=  1.000000  1.000000  1.000000  1.000000
 FoFCou: FMM=F IPFlag=           0 FMFlag=      100000 FMFlg1=           0
         NFxFlg=           0 DoJE=T BraDBF=F KetDBF=T FulRan=T
         wScrn=  0.000000 ICntrl=     500 IOpCl=  0 I1Cent=   200000004 NGrid=           0
         NMat0=    1 NMatS0=      1 NMatT0=    0 NMatD0=    1 NMtDS0=    0 NMtDT0=    0
 Petite list used in FoFCou.
 Harris En= -245.805505153372    
 JPrj=0 DoOrth=F DoCkMO=F.
 Leave Link  401 at Fri Aug 26 10:59:03 2022, MaxMem= 24159191040 cpu:        20.0
 (Enter /public/home/users/caep010/software/Gaussian09/g09/l502.exe)
 Closed shell SCF:
 Using DIIS extrapolation, IDIIS=  1040.
 Integral symmetry usage will be decided dynamically.
 Keep R1 ints in memory in canonical form, NReq=152221235.
 IVT=      146420 IEndB=      146420 NGot= 24159191040 MDV= 24011030006
 LenX= 24011030006 LenY= 24010989565
 Requested convergence on RMS density matrix=1.00D-08 within 128 cycles.
 Requested convergence on MAX density matrix=1.00D-06.
 Requested convergence on             energy=1.00D-06.
 No special actions if energy rises.
 FoFCou: FMM=F IPFlag=           0 FMFlag=           0 FMFlg1=           0
         NFxFlg=           0 DoJE=F BraDBF=F KetDBF=F FulRan=T
         wScrn=  0.000000 ICntrl=     600 IOpCl=  0 I1Cent=           0 NGrid=           0
         NMat0=    1 NMatS0=  17205 NMatT0=    0 NMatD0=    1 NMtDS0=    0 NMtDT0=    0
 Symmetry not used in FoFCou.
 Integral accuracy reduced to 1.0D-05 until final iterations.

 Cycle   1  Pass 0  IDiag  1:
 E= -245.681177716466    
 DIIS: error= 2.23D-02 at cycle   1 NSaved=   1.
 NSaved= 1 IEnMin= 1 EnMin= -245.681177716466     IErMin= 1 ErrMin= 2.23D-02
 ErrMax= 2.23D-02  0.00D+00 EMaxC= 1.00D-01 BMatC= 1.37D-01 BMatP= 1.37D-01
 IDIUse=3 WtCom= 7.77D-01 WtEn= 2.23D-01
 Coeff-Com:  0.100D+01
 Coeff-En:   0.100D+01
 Coeff:      0.100D+01
 Gap=     0.249 Goal=   None    Shift=    0.000
 GapD=    0.249 DampG=1.000 DampE=0.500 DampFc=0.5000 IDamp=-1.
 Damping current iteration by 5.00D-01
 RMSDP=4.43D-03 MaxDP=1.23D-01              OVMax= 1.47D-01

 Cycle   2  Pass 0  IDiag  1:
 E= -245.742211476364     Delta-E=       -0.061033759898 Rises=F Damp=T
 DIIS: error= 8.68D-03 at cycle   2 NSaved=   2.
 NSaved= 2 IEnMin= 2 EnMin= -245.742211476364     IErMin= 2 ErrMin= 8.68D-03
 ErrMax= 8.68D-03  0.00D+00 EMaxC= 1.00D-01 BMatC= 8.93D-03 BMatP= 1.37D-01
 IDIUse=3 WtCom= 9.13D-01 WtEn= 8.68D-02
 Coeff-Com:  0.565D-01 0.943D+00
 Coeff-En:   0.985D-01 0.901D+00
 Coeff:      0.602D-01 0.940D+00
 Gap=     0.278 Goal=   None    Shift=    0.000
 RMSDP=6.97D-04 MaxDP=1.88D-02 DE=-6.10D-02 OVMax= 8.29D-02

 Cycle   3  Pass 0  IDiag  1:
 E= -245.815154123792     Delta-E=       -0.072942647428 Rises=F Damp=F
 DIIS: error= 1.75D-03 at cycle   3 NSaved=   3.
 NSaved= 3 IEnMin= 3 EnMin= -245.815154123792     IErMin= 3 ErrMin= 1.75D-03
 ErrMax= 1.75D-03  0.00D+00 EMaxC= 1.00D-01 BMatC= 1.31D-03 BMatP= 8.93D-03
 IDIUse=3 WtCom= 9.83D-01 WtEn= 1.75D-02
 Coeff-Com: -0.204D-01 0.234D+00 0.786D+00
 Coeff-En:   0.000D+00 0.000D+00 0.100D+01
 Coeff:     -0.200D-01 0.230D+00 0.790D+00
 Gap=     0.268 Goal=   None    Shift=    0.000
 RMSDP=2.30D-04 MaxDP=9.18D-03 DE=-7.29D-02 OVMax= 1.02D-02

 Cycle   4  Pass 0  IDiag  1:
 E= -245.815924088188     Delta-E=       -0.000769964395 Rises=F Damp=F
 DIIS: error= 9.83D-04 at cycle   4 NSaved=   4.
 NSaved= 4 IEnMin= 4 EnMin= -245.815924088188     IErMin= 4 ErrMin= 9.83D-04
 ErrMax= 9.83D-04  0.00D+00 EMaxC= 1.00D-01 BMatC= 3.58D-04 BMatP= 1.31D-03
 IDIUse=3 WtCom= 9.90D-01 WtEn= 9.83D-03
 Coeff-Com: -0.951D-02 0.604D-01 0.379D+00 0.570D+00
 Coeff-En:   0.000D+00 0.000D+00 0.164D+00 0.836D+00
 Coeff:     -0.941D-02 0.598D-01 0.377D+00 0.572D+00
 Gap=     0.268 Goal=   None    Shift=    0.000
 RMSDP=1.09D-04 MaxDP=4.49D-03 DE=-7.70D-04 OVMax= 4.69D-03

 Cycle   5  Pass 0  IDiag  1:
 E= -245.816196707037     Delta-E=       -0.000272618849 Rises=F Damp=F
 DIIS: error= 2.60D-04 at cycle   5 NSaved=   5.
 NSaved= 5 IEnMin= 5 EnMin= -245.816196707037     IErMin= 5 ErrMin= 2.60D-04
 ErrMax= 2.60D-04  0.00D+00 EMaxC= 1.00D-01 BMatC= 3.42D-05 BMatP= 3.58D-04
 IDIUse=3 WtCom= 9.97D-01 WtEn= 2.60D-03
 Coeff-Com: -0.216D-02 0.460D-02 0.106D+00 0.289D+00 0.602D+00
 Coeff-En:   0.000D+00 0.000D+00 0.000D+00 0.184D-01 0.982D+00
 Coeff:     -0.216D-02 0.459D-02 0.106D+00 0.288D+00 0.603D+00
 Gap=     0.268 Goal=   None    Shift=    0.000
 RMSDP=2.85D-05 MaxDP=1.00D-03 DE=-2.73D-04 OVMax= 1.02D-03

 Cycle   6  Pass 0  IDiag  1:
 E= -245.816226323151     Delta-E=       -0.000029616114 Rises=F Damp=F
 DIIS: error= 3.77D-05 at cycle   6 NSaved=   6.
 NSaved= 6 IEnMin= 6 EnMin= -245.816226323151     IErMin= 6 ErrMin= 3.77D-05
 ErrMax= 3.77D-05  0.00D+00 EMaxC= 1.00D-01 BMatC= 4.94D-07 BMatP= 3.42D-05
 IDIUse=1 WtCom= 1.00D+00 WtEn= 0.00D+00
 Coeff-Com: -0.703D-03 0.847D-03 0.401D-01 0.116D+00 0.262D+00 0.581D+00
 Coeff:     -0.703D-03 0.847D-03 0.401D-01 0.116D+00 0.262D+00 0.581D+00
 Gap=     0.268 Goal=   None    Shift=    0.000
 RMSDP=4.89D-06 MaxDP=1.41D-04 DE=-2.96D-05 OVMax= 1.86D-04

 Initial convergence to 1.0D-05 achieved.  Increase integral accuracy.
 Cycle   7  Pass 1  IDiag  1:
 E= -245.816213951519     Delta-E=        0.000012371632 Rises=F Damp=F
 DIIS: error= 1.66D-05 at cycle   1 NSaved=   1.
 NSaved= 1 IEnMin= 1 EnMin= -245.816213951519     IErMin= 1 ErrMin= 1.66D-05
 ErrMax= 1.66D-05  0.00D+00 EMaxC= 1.00D-01 BMatC= 1.41D-07 BMatP= 1.41D-07
 IDIUse=1 WtCom= 1.00D+00 WtEn= 0.00D+00
 Coeff-Com:  0.100D+01
 Coeff:      0.100D+01
 Gap=     0.268 Goal=   None    Shift=    0.000
 RMSDP=4.89D-06 MaxDP=1.41D-04 DE= 1.24D-05 OVMax= 1.88D-04

 Cycle   8  Pass 1  IDiag  1:
 E= -245.816213883258     Delta-E=        0.000000068261 Rises=F Damp=F
 DIIS: error= 2.16D-05 at cycle   2 NSaved=   2.
 NSaved= 2 IEnMin= 1 EnMin= -245.816213951519     IErMin= 1 ErrMin= 1.66D-05
 ErrMax= 2.16D-05  0.00D+00 EMaxC= 1.00D-01 BMatC= 2.24D-07 BMatP= 1.41D-07
 IDIUse=1 WtCom= 1.00D+00 WtEn= 0.00D+00
 Coeff-Com:  0.564D+00 0.436D+00
 Coeff:      0.564D+00 0.436D+00
 Gap=     0.268 Goal=   None    Shift=    0.000
 RMSDP=2.79D-06 MaxDP=9.51D-05 DE= 6.83D-08 OVMax= 1.19D-04

 Cycle   9  Pass 1  IDiag  1:
 E= -245.816214068696     Delta-E=       -0.000000185439 Rises=F Damp=F
 DIIS: error= 3.58D-06 at cycle   3 NSaved=   3.
 NSaved= 3 IEnMin= 3 EnMin= -245.816214068696     IErMin= 3 ErrMin= 3.58D-06
 ErrMax= 3.58D-06  0.00D+00 EMaxC= 1.00D-01 BMatC= 4.07D-09 BMatP= 1.41D-07
 IDIUse=1 WtCom= 1.00D+00 WtEn= 0.00D+00
 Coeff-Com:  0.584D-02 0.115D+00 0.879D+00
 Coeff:      0.584D-02 0.115D+00 0.879D+00
 Gap=     0.268 Goal=   None    Shift=    0.000
 RMSDP=4.21D-07 MaxDP=1.30D-05 DE=-1.85D-07 OVMax= 1.58D-05

 Cycle  10  Pass 1  IDiag  1:
 E= -245.816214071481     Delta-E=       -0.000000002785 Rises=F Damp=F
 DIIS: error= 1.29D-06 at cycle   4 NSaved=   4.
 NSaved= 4 IEnMin= 4 EnMin= -245.816214071481     IErMin= 4 ErrMin= 1.29D-06
 ErrMax= 1.29D-06  0.00D+00 EMaxC= 1.00D-01 BMatC= 7.55D-10 BMatP= 4.07D-09
 IDIUse=1 WtCom= 1.00D+00 WtEn= 0.00D+00
 Coeff-Com: -0.134D-01 0.520D-01 0.500D+00 0.462D+00
 Coeff:     -0.134D-01 0.520D-01 0.500D+00 0.462D+00
 Gap=     0.268 Goal=   None    Shift=    0.000
 RMSDP=1.49D-07 MaxDP=4.96D-06 DE=-2.79D-09 OVMax= 6.68D-06

 Cycle  11  Pass 1  IDiag  1:
 E= -245.816214072130     Delta-E=       -0.000000000648 Rises=F Damp=F
 DIIS: error= 1.84D-07 at cycle   5 NSaved=   5.
 NSaved= 5 IEnMin= 5 EnMin= -245.816214072130     IErMin= 5 ErrMin= 1.84D-07
 ErrMax= 1.84D-07  0.00D+00 EMaxC= 1.00D-01 BMatC= 1.38D-11 BMatP= 7.55D-10
 IDIUse=1 WtCom= 1.00D+00 WtEn= 0.00D+00
 Coeff-Com: -0.579D-02 0.140D-01 0.150D+00 0.184D+00 0.658D+00
 Coeff:     -0.579D-02 0.140D-01 0.150D+00 0.184D+00 0.658D+00
 Gap=     0.268 Goal=   None    Shift=    0.000
 RMSDP=1.95D-08 MaxDP=5.28D-07 DE=-6.48D-10 OVMax= 7.52D-07

 Cycle  12  Pass 1  IDiag  1:
 E= -245.816214072148     Delta-E=       -0.000000000018 Rises=F Damp=F
 DIIS: error= 3.09D-08 at cycle   6 NSaved=   6.
 NSaved= 6 IEnMin= 6 EnMin= -245.816214072148     IErMin= 6 ErrMin= 3.09D-08
 ErrMax= 3.09D-08  0.00D+00 EMaxC= 1.00D-01 BMatC= 4.93D-13 BMatP= 1.38D-11
 IDIUse=1 WtCom= 1.00D+00 WtEn= 0.00D+00
 Coeff-Com: -0.123D-02 0.229D-02 0.270D-01 0.379D-01 0.205D+00 0.729D+00
 Coeff:     -0.123D-02 0.229D-02 0.270D-01 0.379D-01 0.205D+00 0.729D+00
 Gap=     0.268 Goal=   None    Shift=    0.000
 RMSDP=5.18D-09 MaxDP=1.94D-07 DE=-1.82D-11 OVMax= 1.99D-07

 SCF Done:  E(RB3LYP) =  -245.816214072     A.U. after   12 cycles
            NFock= 12  Conv=0.52D-08     -V/T= 2.0083
 KE= 2.437856326504D+02 PE=-9.724888527985D+02 EE= 2.826906731826D+02
 Leave Link  502 at Fri Aug 26 10:59:08 2022, MaxMem= 24159191040 cpu:        70.9
 (Enter /public/home/users/caep010/software/Gaussian09/g09/l601.exe)
 Copying SCF densities to generalized density rwf, IOpCl= 0 IROHF=0.

 **********************************************************************

            Population analysis using the SCF density.

 **********************************************************************

 Orbital symmetries:
       Occupied  (A) (A) (A) (A) (A) (A) (A) (A) (A) (A) (A) (A)
                 (A) (A) (A) (A) (A) (A) (A) (A) (A)
       Virtual   (A) (A) (A) (A) (A) (A) (A) (A) (A) (A) (A) (A)
                 (A) (A) (A) (A) (A) (A) (A) (A) (A) (A) (A) (A)
                 (A) (A) (A) (A) (A) (A) (A) (A) (A) (A) (A) (A)
                 (A) (A) (A) (A) (A) (A) (A) (A) (A) (A) (A) (A)
                 (A) (A) (A) (A) (A) (A) (A) (A) (A) (A) (A) (A)
                 (A) (A) (A) (A) (A) (A) (A) (A) (A) (A) (A) (A)
                 (A) (A) (A) (A) (A) (A) (A) (A) (A) (A) (A) (A)
                 (A) (A) (A) (A) (A) (A) (A) (A) (A) (A) (A) (A)
                 (A) (A) (A) (A) (A) (A) (A) (A) (A) (A) (A) (A)
                 (A) (A) (A) (A) (A) (A) (A) (A) (A) (A) (A) (A)
                 (A) (A) (A) (A) (A) (A) (A) (A) (A) (A) (A) (A)
                 (A) (A) (A) (A) (A) (A) (A) (A) (A) (A) (A) (A)
                 (A) (A) (A) (A) (A) (A) (A) (A) (A) (A) (A) (A)
                 (A) (A) (A) (A) (A) (A) (A) (A)
 The electronic state is 1-A.
 Alpha  occ. eigenvalues --  -14.36011 -14.34076 -14.32819 -10.20966 -10.20073
 Alpha  occ. eigenvalues --   -1.00093  -0.87018  -0.72279  -0.69903  -0.60671
 Alpha  occ. eigenvalues --   -0.50567  -0.48674  -0.46472  -0.44104  -0.41253
 Alpha  occ. eigenvalues --   -0.39099  -0.38651  -0.36165  -0.28763  -0.23615
 Alpha  occ. eigenvalues --   -0.19631
 Alpha virt. eigenvalues --    0.07145   0.09324   0.11151   0.13505   0.14487
 Alpha virt. eigenvalues --    0.15514   0.17217   0.17426   0.18770   0.21127
 Alpha virt. eigenvalues --    0.22427   0.24469   0.25015   0.45599   0.46574
 Alpha virt. eigenvalues --    0.47549   0.50821   0.53482   0.56049   0.58946
 Alpha virt. eigenvalues --    0.60830   0.62540   0.65102   0.67378   0.68236
 Alpha virt. eigenvalues --    0.70222   0.71368   0.71956   0.73337   0.73775
 Alpha virt. eigenvalues --    0.75290   0.78970   0.80963   0.83277   0.84374
 Alpha virt. eigenvalues --    0.85921   0.87211   0.89085   0.89804   0.92371
 Alpha virt. eigenvalues --    0.96943   1.03251   1.14844   1.21098   1.21318
 Alpha virt. eigenvalues --    1.27162   1.33089   1.36590   1.40178   1.42181
 Alpha virt. eigenvalues --    1.46592   1.49955   1.51869   1.55132   1.59755
 Alpha virt. eigenvalues --    1.63579   1.66868   1.69609   1.73714   1.74527
 Alpha virt. eigenvalues --    1.83456   1.85248   1.88190   1.92638   1.94189
 Alpha virt. eigenvalues --    1.95424   1.98382   2.05353   2.10268   2.20421
 Alpha virt. eigenvalues --    2.26899   2.33110   2.34939   2.37400   2.41092
 Alpha virt. eigenvalues --    2.42215   2.46348   2.53731   2.56265   2.66995
 Alpha virt. eigenvalues --    2.73178   2.76464   2.77806   2.81451   2.82036
 Alpha virt. eigenvalues --    2.85589   2.87927   2.90119   2.90821   2.91701
 Alpha virt. eigenvalues --    2.94798   2.96220   2.99193   2.99792   3.07914
 Alpha virt. eigenvalues --    3.18905   3.25574   3.33081   3.35126   3.42598
 Alpha virt. eigenvalues --    3.43701   3.47294   3.51059   3.57431   3.60067
 Alpha virt. eigenvalues --    3.63099   3.65829   3.67992   3.72666   3.78257
 Alpha virt. eigenvalues --    3.79690   3.81444   3.85105   3.96202   4.00518
 Alpha virt. eigenvalues --    4.03834   4.13267   4.17193   4.21121   4.24830
 Alpha virt. eigenvalues --    4.28218   4.31799   4.32562   4.34415   4.39252
 Alpha virt. eigenvalues --    4.41682   4.43350   4.45739   4.48536   4.52904
 Alpha virt. eigenvalues --    4.53449   4.54966   4.60016   4.61156   4.65673
 Alpha virt. eigenvalues --    4.69172   4.70702   4.72823   4.75532   4.77716
 Alpha virt. eigenvalues --    4.83290   4.87318   4.93681   4.96990   5.06328
 Alpha virt. eigenvalues --    5.07872   5.14246   5.25107   5.26170   5.27147
 Alpha virt. eigenvalues --    5.32791   5.41857   5.44943   5.49780   5.55253
 Alpha virt. eigenvalues --    5.58531   6.94807  11.12816  11.21580  11.42399
 Alpha virt. eigenvalues --   11.54606  11.58395  13.95293  15.04649
          Condensed to atoms (all electrons):
               1          2          3          4          5          6
     1  C    4.942984   0.371865  -0.076254  -0.061443   0.003817   0.368209
     2  N    0.371865   6.403074   0.365770   0.239127  -0.125054  -0.021686
     3  C   -0.076254   0.365770   4.981664  -0.049529   0.008511  -0.001279
     4  N   -0.061443   0.239127  -0.049529   6.540851   0.363999   0.003894
     5  N    0.003817  -0.125054   0.008511   0.363999   6.557705  -0.000183
     6  H    0.368209  -0.021686  -0.001279   0.003894  -0.000183   0.600261
     7  H    0.375281  -0.028418   0.006029  -0.002834   0.003724  -0.031126
     8  H    0.353766  -0.041043  -0.005433   0.006310  -0.000127  -0.033005
     9  H   -0.008236  -0.039819   0.353813  -0.000256  -0.000161   0.000100
    10  H    0.005810  -0.028982   0.371060   0.001347   0.000596  -0.000016
    11  H   -0.001011  -0.020634   0.377786   0.003026  -0.000272   0.001967
    12  H    0.006816  -0.041681  -0.009519   0.336403  -0.041293  -0.000327
    13  H    0.001475  -0.002410  -0.000153  -0.043618   0.340546  -0.000269
    14  H    0.000236   0.020009   0.001922  -0.076704   0.326278   0.000083
               7          8          9         10         11         12
     1  C    0.375281   0.353766  -0.008236   0.005810  -0.001011   0.006816
     2  N   -0.028418  -0.041043  -0.039819  -0.028982  -0.020634  -0.041681
     3  C    0.006029  -0.005433   0.353813   0.371060   0.377786  -0.009519
     4  N   -0.002834   0.006310  -0.000256   0.001347   0.003026   0.336403
     5  N    0.003724  -0.000127  -0.000161   0.000596  -0.000272  -0.041293
     6  H   -0.031126  -0.033005   0.000100  -0.000016   0.001967  -0.000327
     7  H    0.605056  -0.039926  -0.000404  -0.000228   0.000064  -0.000132
     8  H   -0.039926   0.643000   0.014576  -0.000348  -0.001059   0.000372
     9  H   -0.000404   0.014576   0.654034  -0.043383  -0.037010   0.001913
    10  H   -0.000228  -0.000348  -0.043383   0.602230  -0.026896   0.005269
    11  H    0.000064  -0.001059  -0.037010  -0.026896   0.576187  -0.000059
    12  H   -0.000132   0.000372   0.001913   0.005269  -0.000059   0.503656
    13  H    0.003998   0.000095   0.000001  -0.000001   0.000015   0.006388
    14  H   -0.000180   0.000281   0.000289  -0.000421  -0.000113  -0.004798
              13         14
     1  C    0.001475   0.000236
     2  N   -0.002410   0.020009
     3  C   -0.000153   0.001922
     4  N   -0.043618  -0.076704
     5  N    0.340546   0.326278
     6  H   -0.000269   0.000083
     7  H    0.003998  -0.000180
     8  H    0.000095   0.000281
     9  H    0.000001   0.000289
    10  H   -0.000001  -0.000421
    11  H    0.000015  -0.000113
    12  H    0.006388  -0.004798
    13  H    0.494937  -0.039439
    14  H   -0.039439   0.563036
 Mulliken charges:
               1
     1  C   -0.283316
     2  N   -0.050119
     3  C   -0.324388
     4  N   -0.260571
     5  N   -0.438086
     6  H    0.113379
     7  H    0.109095
     8  H    0.102541
     9  H    0.104542
    10  H    0.113964
    11  H    0.128012
    12  H    0.236994
    13  H    0.238433
    14  H    0.209519
 Sum of Mulliken charges =  -0.00000
 Mulliken charges with hydrogens summed into heavy atoms:
               1
     1  C    0.041699
     2  N   -0.050119
     3  C    0.022130
     4  N   -0.023577
     5  N    0.009866
 Electronic spatial extent (au):  <R**2>=            473.3240
 Charge=             -0.0000 electrons
 Dipole moment (field-independent basis, Debye):
    X=              1.3165    Y=             -0.2749    Z=             -0.8865  Tot=              1.6107
 Quadrupole moment (field-independent basis, Debye-Ang):
   XX=            -34.2073   YY=            -28.4862   ZZ=            -33.7868
   XY=             -1.0129   XZ=              2.1807   YZ=             -0.7452
 Traceless Quadrupole moment (field-independent basis, Debye-Ang):
   XX=             -2.0472   YY=              3.6739   ZZ=             -1.6267
   XY=             -1.0129   XZ=              2.1807   YZ=             -0.7452
 Octapole moment (field-independent basis, Debye-Ang**2):
  XXX=              8.2045  YYY=             -2.8511  ZZZ=             -1.7264  XYY=             -5.3186
  XXY=              4.0029  XXZ=             -7.3461  XZZ=             -2.1259  YZZ=             -1.9575
  YYZ=             -0.2122  XYZ=              0.2913
 Hexadecapole moment (field-independent basis, Debye-Ang**3):
 XXXX=           -388.2712 YYYY=           -188.1707 ZZZZ=            -70.6079 XXXY=            -10.0879
 XXXZ=              6.8966 YYYX=             -0.3761 YYYZ=             -3.0781 ZZZX=              4.7382
 ZZZY=             -0.6569 XXYY=            -86.6982 XXZZ=            -65.9183 YYZZ=            -42.5189
 XXYZ=             -0.7210 YYXZ=             -0.8377 ZZXY=              2.3995
 N-N= 2.001963328932D+02 E-N=-9.724888536905D+02  KE= 2.437856326504D+02
 No NMR shielding tensors so no spin-rotation constants.
 Leave Link  601 at Fri Aug 26 10:59:09 2022, MaxMem= 24159191040 cpu:        13.1
 (Enter /public/home/users/caep010/software/Gaussian09/g09/l701.exe)
 Compute integral first derivatives.
 ... and contract with generalized density number  0.
 Leave Link  701 at Fri Aug 26 10:59:09 2022, MaxMem= 24159191040 cpu:        14.7
 (Enter /public/home/users/caep010/software/Gaussian09/g09/l702.exe)
 L702 exits ... SP integral derivatives will be done elsewhere.
 Leave Link  702 at Fri Aug 26 10:59:09 2022, MaxMem= 24159191040 cpu:         0.5
 (Enter /public/home/users/caep010/software/Gaussian09/g09/l703.exe)
 Compute integral first derivatives, UseDBF=F ICtDFT=           0.
 Integral derivatives from FoFJK, PRISM(SPDF).
 Calling FoFJK, ICntrl=      2127 FMM=F ISym2X=0 I1Cent= 0 IOpClX= 0 NMat=1 NMatS=1 NMatT=0.
 FoFJK:  IHMeth= 1 ICntrl=    2127 DoSepK=F KAlg= 0 I1Cent=   0 FoldK=F
 IRaf=         0 NMat=   1 IRICut=       1 DoRegI=T DoRafI=F ISym2E= 0.
 FoFCou: FMM=F IPFlag=           0 FMFlag=      100000 FMFlg1=         800
         NFxFlg=           0 DoJE=F BraDBF=F KetDBF=F FulRan=T
         wScrn=  0.000000 ICntrl=    2127 IOpCl=  0 I1Cent=           0 NGrid=           0
         NMat0=    1 NMatS0=      1 NMatT0=    0 NMatD0=    1 NMtDS0=    0 NMtDT0=    0
 Symmetry not used in FoFCou.
 Leave Link  703 at Fri Aug 26 10:59:11 2022, MaxMem= 24159191040 cpu:        34.4
 (Enter /public/home/users/caep010/software/Gaussian09/g09/l716.exe)
 Dipole        = 5.17945501D-01-1.08154156D-01-3.48757583D-01
 ***** Axes restored to original set *****
 -------------------------------------------------------------------
 Center     Atomic                   Forces (Hartrees/Bohr)
 Number     Number              X              Y              Z
 -------------------------------------------------------------------
      1        6           0.001682149    0.006234460   -0.002500801
      2        7          -0.029851383    0.020553554    0.016343434
      3        6           0.001076167   -0.001933002    0.004218217
      4        7           0.002903028   -0.022194713   -0.010101000
      5        7           0.020553396   -0.007307024    0.008308147
      6        1           0.002911205   -0.010003195   -0.004413180
      7        1          -0.009635207   -0.002673053    0.001241358
      8        1           0.004522694    0.002104499    0.005301286
      9        1          -0.000027220    0.000875281    0.006005742
     10        1           0.001812544    0.006793840   -0.006255246
     11        1           0.005058565   -0.008065535   -0.007943458
     12        1           0.011303943    0.023426955    0.000976550
     13        1          -0.016105515   -0.017218111    0.006616865
     14        1           0.003795635    0.009406045   -0.017797913
 -------------------------------------------------------------------
 Cartesian Forces:  Max     0.029851383 RMS     0.010973704
 Leave Link  716 at Fri Aug 26 10:59:11 2022, MaxMem= 24159191040 cpu:         0.8
 (Enter /public/home/users/caep010/software/Gaussian09/g09/l103.exe)

 GradGradGradGradGradGradGradGradGradGradGradGradGradGradGradGradGradGrad
 Berny optimization.
 FormGI is forming the generalized inverse of G from B-inverse, IUseBI=4.
 Internal  Forces:  Max     0.029102181 RMS     0.008853753
 Search for a local minimum.
 Step number   1 out of a maximum of   64
 All quantities printed in internal units (Hartrees-Bohrs-Radians)
 RMS Force = .88538D-02 SwitMx=.10000D-02 MixMth= 1
 Mixed Optimization -- RFO/linear search
 Second derivative matrix not updated -- first step.
 ITU=  0
     Eigenvalues ---    0.00711   0.00775   0.01028   0.01171   0.03608
     Eigenvalues ---    0.04520   0.05980   0.07184   0.07222   0.07432
     Eigenvalues ---    0.07435   0.11643   0.16000   0.16000   0.16000
     Eigenvalues ---    0.16000   0.16000   0.16000   0.16000   0.16000
     Eigenvalues ---    0.16064   0.17755   0.23602   0.32269   0.32278
     Eigenvalues ---    0.32434   0.32437   0.32498   0.32578   0.35245
     Eigenvalues ---    0.35824   0.40069   0.40181   0.40555   0.42436
     Eigenvalues ---    0.44101
 RFO step:  Lambda=-1.47135703D-02 EMin= 7.10620772D-03
 Linear search not attempted -- first point.
 Iteration  1 RMS(Cart)=  0.07861365 RMS(Int)=  0.00427676
 Iteration  2 RMS(Cart)=  0.00537140 RMS(Int)=  0.00061564
 Iteration  3 RMS(Cart)=  0.00004441 RMS(Int)=  0.00061473
 Iteration  4 RMS(Cart)=  0.00000002 RMS(Int)=  0.00061473
 ITry= 1 IFail=0 DXMaxC= 3.15D-01 DCOld= 1.00D+10 DXMaxT= 3.00D-01 DXLimC= 3.00D+00 Rises=F
 Variable       Old X    -DE/DX   Delta X   Delta X   Delta X     New X
                                 (Linear)    (Quad)   (Total)
    R1        2.77658  -0.00358   0.00000  -0.00961  -0.00961   2.76698
    R2        2.10052  -0.01110   0.00000  -0.03274  -0.03274   2.06778
    R3        2.09800  -0.00997   0.00000  -0.02927  -0.02927   2.06872
    R4        2.10354  -0.00686   0.00000  -0.02033  -0.02033   2.08321
    R5        2.78578  -0.00829   0.00000  -0.02257  -0.02257   2.76321
    R6        2.68372   0.02445   0.00000   0.05567   0.05567   2.73939
    R7        2.10338  -0.00508   0.00000  -0.01504  -0.01504   2.08834
    R8        2.09943  -0.00930   0.00000  -0.02738  -0.02738   2.07205
    R9        2.10057  -0.01219   0.00000  -0.03595  -0.03595   2.06462
   R10        2.66334   0.01066   0.00000   0.02340   0.02340   2.68674
   R11        1.98160  -0.02536   0.00000  -0.06106  -0.06106   1.92054
   R12        1.97507  -0.02442   0.00000  -0.05811  -0.05811   1.91696
   R13        1.98008  -0.01888   0.00000  -0.04533  -0.04533   1.93475
    A1        1.92504  -0.00363   0.00000  -0.02120  -0.02122   1.90382
    A2        1.92346  -0.00154   0.00000  -0.00993  -0.00999   1.91347
    A3        1.94004   0.00442   0.00000   0.02691   0.02698   1.96703
    A4        1.86952   0.00185   0.00000   0.00738   0.00721   1.87673
    A5        1.90678   0.00011   0.00000   0.00279   0.00290   1.90968
    A6        1.89740  -0.00128   0.00000  -0.00646  -0.00643   1.89097
    A7        1.90534   0.00227   0.00000   0.01412   0.01413   1.91947
    A8        1.88128   0.00023   0.00000   0.00426   0.00428   1.88556
    A9        1.92646  -0.00181   0.00000  -0.00767  -0.00773   1.91873
   A10        1.94044   0.00519   0.00000   0.02975   0.02980   1.97024
   A11        1.91651  -0.00111   0.00000  -0.00487  -0.00493   1.91158
   A12        1.92636  -0.00319   0.00000  -0.01985  -0.01980   1.90656
   A13        1.90352  -0.00144   0.00000  -0.00527  -0.00532   1.89819
   A14        1.90681  -0.00165   0.00000  -0.01221  -0.01207   1.89474
   A15        1.86866   0.00208   0.00000   0.01177   0.01172   1.88038
   A16        1.88929   0.02910   0.00000   0.11054   0.11164   2.00093
   A17        1.94071  -0.01452   0.00000  -0.09501  -0.09414   1.84657
   A18        1.84748  -0.00524   0.00000  -0.01878  -0.01582   1.83166
   A19        1.89295  -0.00328   0.00000  -0.03017  -0.03046   1.86249
   A20        1.90692   0.00235   0.00000   0.00223   0.00196   1.90888
   A21        1.89124  -0.00403   0.00000  -0.04699  -0.04764   1.84359
    D1        1.04694   0.00119   0.00000   0.01878   0.01863   1.06557
    D2        3.13983   0.00044   0.00000   0.02010   0.02001  -3.12335
    D3        3.10757   0.00030   0.00000   0.00873   0.00878   3.11636
    D4       -1.08272  -0.00045   0.00000   0.01005   0.01016  -1.07256
    D5       -1.07078   0.00056   0.00000   0.01164   0.01164  -1.05913
    D6        1.02211  -0.00019   0.00000   0.01296   0.01302   1.03513
    D7        1.09826  -0.00039   0.00000  -0.00828  -0.00837   1.08989
    D8       -3.07678   0.00044   0.00000   0.00122   0.00120  -3.07558
    D9       -1.02065   0.00039   0.00000   0.00071   0.00077  -1.01988
   D10       -0.96655  -0.00097   0.00000  -0.01752  -0.01758  -0.98413
   D11        1.14159  -0.00015   0.00000  -0.00802  -0.00801   1.13358
   D12       -3.08547  -0.00020   0.00000  -0.00853  -0.00844  -3.09391
   D13        1.73409  -0.00196   0.00000   0.01211   0.01354   1.74763
   D14       -2.52676   0.00085   0.00000   0.00207   0.00066  -2.52610
   D15       -2.46961  -0.00011   0.00000   0.02738   0.02878  -2.44083
   D16       -0.44727   0.00270   0.00000   0.01734   0.01591  -0.43136
   D17       -1.18680  -0.00254   0.00000  -0.10100  -0.10089  -1.28769
   D18        0.87144  -0.00794   0.00000  -0.17339  -0.17272   0.69872
   D19        3.01423   0.00240   0.00000  -0.03617  -0.03684   2.97739
   D20       -1.21071  -0.00299   0.00000  -0.10856  -0.10867  -1.31938
         Item               Value     Threshold  Converged?
 Maximum Force            0.029102     0.000450     NO 
 RMS     Force            0.008854     0.000300     NO 
 Maximum Displacement     0.314811     0.001800     NO 
 RMS     Displacement     0.078284     0.001200     NO 
 Predicted change in Energy=-8.086520D-03
 Lowest energy point so far.  Saving SCF results.
 GradGradGradGradGradGradGradGradGradGradGradGradGradGradGradGradGradGrad

 Leave Link  103 at Fri Aug 26 10:59:11 2022, MaxMem= 24159191040 cpu:         3.2
 (Enter /public/home/users/caep010/software/Gaussian09/g09/l202.exe)
                          Input orientation:                          
 ---------------------------------------------------------------------
 Center     Atomic      Atomic             Coordinates (Angstroms)
 Number     Number       Type             X           Y           Z
 ---------------------------------------------------------------------
      1          6           0        0.155440    1.380017   -0.206183
      2          7           0       -0.051774    0.135893    0.537565
      3          6           0       -1.476920   -0.056429    0.802307
      4          7           0        0.453284   -0.958153   -0.268281
      5          7           0        1.744993   -1.421354    0.103657
      6          1           0       -0.203443    2.220504    0.395566
      7          1           0        1.225802    1.531423   -0.378851
      8          1           0       -0.357229    1.382717   -1.182101
      9          1           0       -2.075331   -0.160551   -0.120901
     10          1           0       -1.617711   -0.953547    1.416824
     11          1           0       -1.856393    0.797612    1.368242
     12          1           0       -0.167798   -1.742656   -0.090277
     13          1           0        2.407650   -0.719691   -0.208729
     14          1           0        1.819529   -1.435985    1.124663
 ---------------------------------------------------------------------
                    Distance matrix (angstroms):
                    1          2          3          4          5
     1  C    0.000000
     2  N    1.464221   0.000000
     3  C    2.396879   1.462230   0.000000
     4  N    2.357882   1.449624   2.384314   0.000000
     5  N    3.235794   2.416954   3.568173   1.421761   0.000000
     6  H    1.094220   2.094939   2.640380   3.312982   4.140622
     7  H    1.094721   2.102267   3.349793   2.609023   3.036654
     8  H    1.102385   2.145955   2.694944   2.640393   3.733005
     9  H    2.712372   2.148543   1.105102   2.655520   4.029259
    10  H    3.350184   2.100507   1.096482   2.669947   3.640196
    11  H    2.620206   2.093930   1.092551   3.330995   4.415084
    12  H    3.141497   1.984085   2.313842   1.016304   1.949260
    13  H    3.079160   2.708827   4.068414   1.969760   1.014412
    14  H    3.531319   2.513417   3.587989   2.008791   1.023828
                    6          7          8          9         10
     6  H    0.000000
     7  H    1.765587   0.000000
     8  H    1.792923   1.781379   0.000000
     9  H    3.072479   3.718440   2.541594   0.000000
    10  H    3.621839   4.181518   3.715017   1.789653   0.000000
    11  H    2.388088   3.618113   3.015641   1.784252   1.768018
    12  H    3.992988   3.570013   3.316010   2.478442   2.235238
    13  H    3.978407   2.548179   3.607232   4.518569   4.347486
    14  H    4.241923   3.379139   4.243174   4.283468   3.483206
                   11         12         13         14
    11  H    0.000000
    12  H    3.381063   0.000000
    13  H    4.792818   2.773702   0.000000
    14  H    4.308212   2.349382   1.623853   0.000000
 Stoichiometry    C2H9N3
 Framework group  C1[X(C2H9N3)]
 Deg. of freedom    36
 Full point group                 C1      NOp   1
 RotChk:  IX=0 Diff= 3.54D-02
 Largest Abelian subgroup         C1      NOp   1
 Largest concise Abelian subgroup C1      NOp   1
                         Standard orientation:                         
 ---------------------------------------------------------------------
 Center     Atomic      Atomic             Coordinates (Angstroms)
 Number     Number       Type             X           Y           Z
 ---------------------------------------------------------------------
      1          6           0        0.872795    1.335286    0.056414
      2          7           0        0.380511    0.006309   -0.311579
      3          6           0        1.421750   -0.993882   -0.080158
      4          7           0       -0.777509   -0.286623    0.509755
      5          7           0       -2.028288   -0.085017   -0.135467
      6          1           0        1.737290    1.581896   -0.567404
      7          1           0        0.098242    2.082719   -0.143147
      8          1           0        1.156245    1.404683    1.119473
      9          1           0        1.715115   -1.070918    0.982505
     10          1           0        1.069781   -1.974881   -0.420796
     11          1           0        2.306148   -0.735301   -0.667222
     12          1           0       -0.737711   -1.284472    0.698401
     13          1           0       -2.167601    0.918029   -0.194811
     14          1           0       -1.967772   -0.412857   -1.103497
 ---------------------------------------------------------------------
 Rotational constants (GHZ):      8.1550037      3.7495990      2.8688977
 Leave Link  202 at Fri Aug 26 10:59:11 2022, MaxMem= 24159191040 cpu:         0.3
 (Enter /public/home/users/caep010/software/Gaussian09/g09/l301.exe)
 Standard basis: GTBas3 (6D, 7F)
 Ernie: Thresh=  0.10000D-02 Tol=  0.10000D-05 Strict=F.
 There are   200 symmetry adapted cartesian basis functions of A   symmetry.
 There are   185 symmetry adapted basis functions of A   symmetry.
   185 basis functions,   283 primitive gaussians,   200 cartesian basis functions
    21 alpha electrons       21 beta electrons
       nuclear repulsion energy       199.1919896356 Hartrees.
 IExCor=  402 DFT=T Ex+Corr=B3LYP ExCW=0 ScaHFX=  0.200000
 ScaDFX=  0.800000  0.720000  1.000000  0.810000 ScalE2=  1.000000  1.000000
 IRadAn=      0 IRanWt=     -1 IRanGd=            0 ICorTp=0 IEmpDi=  4
 NAtoms=   14 NActive=   14 NUniq=   14 SFac= 1.00D+00 NAtFMM=   60 NAOKFM=F Big=F
 Integral buffers will be    131072 words long.
 Raffenetti 2 integral format.
 Two-electron integral symmetry is turned on.
 Leave Link  301 at Fri Aug 26 10:59:11 2022, MaxMem= 24159191040 cpu:         1.7
 (Enter /public/home/users/caep010/software/Gaussian09/g09/l302.exe)
 NPDir=0 NMtPBC=     1 NCelOv=     1 NCel=       1 NClECP=     1 NCelD=      1
         NCelK=      1 NCelE2=     1 NClLst=     1 CellRange=     0.0.
 One-electron integrals computed using PRISM.
 NBasis=   185 RedAO= T EigKep=  3.45D-04  NBF=   185
 NBsUse=   185 1.00D-06 EigRej= -1.00D+00 NBFU=   185
 Precomputing XC quadrature grid using
 IXCGrd= 4 IRadAn=           0 IRanWt=          -1 IRanGd=           0 AccXCQ= 0.00D+00.
 Generated NRdTot=       0 NPtTot=           0 NUsed=           0 NTot=          32
 NSgBfM=   200   200   200   200   200 MxSgAt=    14 MxSgA2=    14.
 Leave Link  302 at Fri Aug 26 10:59:12 2022, MaxMem= 24159191040 cpu:        14.9
 (Enter /public/home/users/caep010/software/Gaussian09/g09/l303.exe)
 DipDrv:  MaxL=1.
 Leave Link  303 at Fri Aug 26 10:59:12 2022, MaxMem= 24159191040 cpu:         0.7
 (Enter /public/home/users/caep010/software/Gaussian09/g09/l401.exe)
 Initial guess from the checkpoint file:  "G4.Frag_700.chk"
 B after Tr=    -0.000000    0.000000   -0.000000
         Rot=    0.999941    0.001012   -0.000977    0.010735 Ang=   1.24 deg.
 Guess basis will be translated and rotated to current coordinates.
 JPrj=2 DoOrth=T DoCkMO=T.
 Generating alternative initial guess.
 ExpMin= 1.61D-01 ExpMax= 4.17D+03 ExpMxC= 6.27D+02 IAcc=1 IRadAn=         1 AccDes= 0.00D+00
 Harris functional with IExCor=  402 and IRadAn=       1 diagonalized for initial guess.
 HarFok:  IExCor=  402 AccDes= 0.00D+00 IRadAn=         1 IDoV= 1 UseB2=F ITyADJ=14
 ICtDFT=  3500011 ScaDFX=  1.000000  1.000000  1.000000  1.000000
 FoFCou: FMM=F IPFlag=           0 FMFlag=      100000 FMFlg1=           0
         NFxFlg=           0 DoJE=T BraDBF=F KetDBF=T FulRan=T
         wScrn=  0.000000 ICntrl=     500 IOpCl=  0 I1Cent=   200000004 NGrid=           0
         NMat0=    1 NMatS0=      1 NMatT0=    0 NMatD0=    1 NMtDS0=    0 NMtDT0=    0
 Petite list used in FoFCou.
 Harris En= -245.819998241939    
 Leave Link  401 at Fri Aug 26 10:59:12 2022, MaxMem= 24159191040 cpu:        15.1
 (Enter /public/home/users/caep010/software/Gaussian09/g09/l502.exe)
 Closed shell SCF:
 Using DIIS extrapolation, IDIIS=  1040.
 Integral symmetry usage will be decided dynamically.
 Keep R1 ints in memory in canonical form, NReq=152221235.
 IVT=      146420 IEndB=      146420 NGot= 24159191040 MDV= 24011030006
 LenX= 24011030006 LenY= 24010989565
 Requested convergence on RMS density matrix=1.00D-08 within 128 cycles.
 Requested convergence on MAX density matrix=1.00D-06.
 Requested convergence on             energy=1.00D-06.
 No special actions if energy rises.
 FoFCou: FMM=F IPFlag=           0 FMFlag=           0 FMFlg1=           0
         NFxFlg=           0 DoJE=F BraDBF=F KetDBF=F FulRan=T
         wScrn=  0.000000 ICntrl=     600 IOpCl=  0 I1Cent=           0 NGrid=           0
         NMat0=    1 NMatS0=  17205 NMatT0=    0 NMatD0=    1 NMtDS0=    0 NMtDT0=    0
 Symmetry not used in FoFCou.
 Integral accuracy reduced to 1.0D-05 until final iterations.

 Cycle   1  Pass 0  IDiag  1:
 E= -245.814630037962    
 DIIS: error= 3.61D-03 at cycle   1 NSaved=   1.
 NSaved= 1 IEnMin= 1 EnMin= -245.814630037962     IErMin= 1 ErrMin= 3.61D-03
 ErrMax= 3.61D-03  0.00D+00 EMaxC= 1.00D-01 BMatC= 6.38D-03 BMatP= 6.38D-03
 IDIUse=3 WtCom= 9.64D-01 WtEn= 3.61D-02
 Coeff-Com:  0.100D+01
 Coeff-En:   0.100D+01
 Coeff:      0.100D+01
 Gap=     1.205 Goal=   None    Shift=    0.000
 GapD=    1.205 DampG=2.000 DampE=1.000 DampFc=2.0000 IDamp=-1.
 RMSDP=6.60D-04 MaxDP=1.67D-02              OVMax= 4.01D-02

 Cycle   2  Pass 0  IDiag  1:
 E= -245.822702557099     Delta-E=       -0.008072519137 Rises=F Damp=F
 DIIS: error= 1.04D-03 at cycle   2 NSaved=   2.
 NSaved= 2 IEnMin= 2 EnMin= -245.822702557099     IErMin= 2 ErrMin= 1.04D-03
 ErrMax= 1.04D-03  0.00D+00 EMaxC= 1.00D-01 BMatC= 2.05D-04 BMatP= 6.38D-03
 IDIUse=3 WtCom= 9.90D-01 WtEn= 1.04D-02
 Coeff-Com:  0.290D-02 0.997D+00
 Coeff-En:   0.000D+00 0.100D+01
 Coeff:      0.287D-02 0.997D+00
 Gap=     0.272 Goal=   None    Shift=    0.000
 RMSDP=1.51D-04 MaxDP=4.54D-03 DE=-8.07D-03 OVMax= 5.94D-03

 Cycle   3  Pass 0  IDiag  1:
 E= -245.822758359051     Delta-E=       -0.000055801952 Rises=F Damp=F
 DIIS: error= 1.15D-03 at cycle   3 NSaved=   3.
 NSaved= 3 IEnMin= 3 EnMin= -245.822758359051     IErMin= 2 ErrMin= 1.04D-03
 ErrMax= 1.15D-03  0.00D+00 EMaxC= 1.00D-01 BMatC= 1.89D-04 BMatP= 2.05D-04
 IDIUse=3 WtCom= 9.88D-01 WtEn= 1.15D-02
 Coeff-Com: -0.259D-01 0.503D+00 0.523D+00
 Coeff-En:   0.000D+00 0.418D+00 0.582D+00
 Coeff:     -0.256D-01 0.502D+00 0.524D+00
 Gap=     0.272 Goal=   None    Shift=    0.000
 RMSDP=7.37D-05 MaxDP=2.67D-03 DE=-5.58D-05 OVMax= 3.52D-03

 Cycle   4  Pass 0  IDiag  1:
 E= -245.822943089713     Delta-E=       -0.000184730662 Rises=F Damp=F
 DIIS: error= 9.89D-05 at cycle   4 NSaved=   4.
 NSaved= 4 IEnMin= 4 EnMin= -245.822943089713     IErMin= 4 ErrMin= 9.89D-05
 ErrMax= 9.89D-05  0.00D+00 EMaxC= 1.00D-01 BMatC= 2.31D-06 BMatP= 1.89D-04
 IDIUse=1 WtCom= 1.00D+00 WtEn= 0.00D+00
 Coeff-Com: -0.710D-02 0.736D-01 0.138D+00 0.796D+00
 Coeff:     -0.710D-02 0.736D-01 0.138D+00 0.796D+00
 Gap=     0.273 Goal=   None    Shift=    0.000
 RMSDP=9.46D-06 MaxDP=3.00D-04 DE=-1.85D-04 OVMax= 3.85D-04

 Initial convergence to 1.0D-05 achieved.  Increase integral accuracy.
 Cycle   5  Pass 1  IDiag  1:
 E= -245.822941601722     Delta-E=        0.000001487991 Rises=F Damp=F
 DIIS: error= 2.18D-05 at cycle   1 NSaved=   1.
 NSaved= 1 IEnMin= 1 EnMin= -245.822941601722     IErMin= 1 ErrMin= 2.18D-05
 ErrMax= 2.18D-05  0.00D+00 EMaxC= 1.00D-01 BMatC= 2.37D-07 BMatP= 2.37D-07
 IDIUse=1 WtCom= 1.00D+00 WtEn= 0.00D+00
 Coeff-Com:  0.100D+01
 Coeff:      0.100D+01
 Gap=     0.272 Goal=   None    Shift=    0.000
 RMSDP=9.46D-06 MaxDP=3.00D-04 DE= 1.49D-06 OVMax= 2.55D-04

 Cycle   6  Pass 1  IDiag  1:
 E= -245.822941513037     Delta-E=        0.000000088685 Rises=F Damp=F
 DIIS: error= 2.89D-05 at cycle   2 NSaved=   2.
 NSaved= 2 IEnMin= 1 EnMin= -245.822941601722     IErMin= 1 ErrMin= 2.18D-05
 ErrMax= 2.89D-05  0.00D+00 EMaxC= 1.00D-01 BMatC= 3.50D-07 BMatP= 2.37D-07
 IDIUse=1 WtCom= 1.00D+00 WtEn= 0.00D+00
 Coeff-Com:  0.552D+00 0.448D+00
 Coeff:      0.552D+00 0.448D+00
 Gap=     0.273 Goal=   None    Shift=    0.000
 RMSDP=3.56D-06 MaxDP=1.16D-04 DE= 8.87D-08 OVMax= 1.52D-04

 Cycle   7  Pass 1  IDiag  1:
 E= -245.822941805660     Delta-E=       -0.000000292623 Rises=F Damp=F
 DIIS: error= 5.05D-06 at cycle   3 NSaved=   3.
 NSaved= 3 IEnMin= 3 EnMin= -245.822941805660     IErMin= 3 ErrMin= 5.05D-06
 ErrMax= 5.05D-06  0.00D+00 EMaxC= 1.00D-01 BMatC= 1.02D-08 BMatP= 2.37D-07
 IDIUse=1 WtCom= 1.00D+00 WtEn= 0.00D+00
 Coeff-Com:  0.149D+00 0.189D+00 0.662D+00
 Coeff:      0.149D+00 0.189D+00 0.662D+00
 Gap=     0.272 Goal=   None    Shift=    0.000
 RMSDP=6.08D-07 MaxDP=1.65D-05 DE=-2.93D-07 OVMax= 2.55D-05

 Cycle   8  Pass 1  IDiag  1:
 E= -245.822941813405     Delta-E=       -0.000000007744 Rises=F Damp=F
 DIIS: error= 1.58D-06 at cycle   4 NSaved=   4.
 NSaved= 4 IEnMin= 4 EnMin= -245.822941813405     IErMin= 4 ErrMin= 1.58D-06
 ErrMax= 1.58D-06  0.00D+00 EMaxC= 1.00D-01 BMatC= 1.01D-09 BMatP= 1.02D-08
 IDIUse=1 WtCom= 1.00D+00 WtEn= 0.00D+00
 Coeff-Com:  0.690D-02 0.370D-01 0.286D+00 0.670D+00
 Coeff:      0.690D-02 0.370D-01 0.286D+00 0.670D+00
 Gap=     0.272 Goal=   None    Shift=    0.000
 RMSDP=2.02D-07 MaxDP=7.55D-06 DE=-7.74D-09 OVMax= 9.98D-06

 Cycle   9  Pass 1  IDiag  1:
 E= -245.822941814129     Delta-E=       -0.000000000725 Rises=F Damp=F
 DIIS: error= 7.03D-07 at cycle   5 NSaved=   5.
 NSaved= 5 IEnMin= 5 EnMin= -245.822941814129     IErMin= 5 ErrMin= 7.03D-07
 ErrMax= 7.03D-07  0.00D+00 EMaxC= 1.00D-01 BMatC= 1.80D-10 BMatP= 1.01D-09
 IDIUse=1 WtCom= 1.00D+00 WtEn= 0.00D+00
 Coeff-Com: -0.862D-02 0.569D-02 0.109D+00 0.380D+00 0.514D+00
 Coeff:     -0.862D-02 0.569D-02 0.109D+00 0.380D+00 0.514D+00
 Gap=     0.272 Goal=   None    Shift=    0.000
 RMSDP=7.09D-08 MaxDP=2.33D-06 DE=-7.25D-10 OVMax= 2.88D-06

 Cycle  10  Pass 1  IDiag  1:
 E= -245.822941814286     Delta-E=       -0.000000000157 Rises=F Damp=F
 DIIS: error= 4.53D-08 at cycle   6 NSaved=   6.
 NSaved= 6 IEnMin= 6 EnMin= -245.822941814286     IErMin= 6 ErrMin= 4.53D-08
 ErrMax= 4.53D-08  0.00D+00 EMaxC= 1.00D-01 BMatC= 1.61D-12 BMatP= 1.80D-10
 IDIUse=1 WtCom= 1.00D+00 WtEn= 0.00D+00
 Coeff-Com: -0.272D-02 0.684D-03 0.234D-01 0.902D-01 0.152D+00 0.737D+00
 Coeff:     -0.272D-02 0.684D-03 0.234D-01 0.902D-01 0.152D+00 0.737D+00
 Gap=     0.272 Goal=   None    Shift=    0.000
 RMSDP=9.31D-09 MaxDP=3.96D-07 DE=-1.57D-10 OVMax= 3.81D-07

 SCF Done:  E(RB3LYP) =  -245.822941814     A.U. after   10 cycles
            NFock= 10  Conv=0.93D-08     -V/T= 2.0076
 KE= 2.439614939632D+02 PE=-9.705728502443D+02 EE= 2.815964248312D+02
 Leave Link  502 at Fri Aug 26 10:59:17 2022, MaxMem= 24159191040 cpu:        64.0
 (Enter /public/home/users/caep010/software/Gaussian09/g09/l701.exe)
 Compute integral first derivatives.
 ... and contract with generalized density number  0.
 Leave Link  701 at Fri Aug 26 10:59:17 2022, MaxMem= 24159191040 cpu:        13.7
 (Enter /public/home/users/caep010/software/Gaussian09/g09/l702.exe)
 L702 exits ... SP integral derivatives will be done elsewhere.
 Leave Link  702 at Fri Aug 26 10:59:17 2022, MaxMem= 24159191040 cpu:         0.5
 (Enter /public/home/users/caep010/software/Gaussian09/g09/l703.exe)
 Compute integral first derivatives, UseDBF=F ICtDFT=           0.
 Integral derivatives from FoFJK, PRISM(SPDF).
 Calling FoFJK, ICntrl=      2127 FMM=F ISym2X=0 I1Cent= 0 IOpClX= 0 NMat=1 NMatS=1 NMatT=0.
 FoFJK:  IHMeth= 1 ICntrl=    2127 DoSepK=F KAlg= 0 I1Cent=   0 FoldK=F
 IRaf=         0 NMat=   1 IRICut=       1 DoRegI=T DoRafI=F ISym2E= 0.
 FoFCou: FMM=F IPFlag=           0 FMFlag=      100000 FMFlg1=         800
         NFxFlg=           0 DoJE=F BraDBF=F KetDBF=F FulRan=T
         wScrn=  0.000000 ICntrl=    2127 IOpCl=  0 I1Cent=           0 NGrid=           0
         NMat0=    1 NMatS0=      1 NMatT0=    0 NMatD0=    1 NMtDS0=    0 NMtDT0=    0
 Symmetry not used in FoFCou.
 Leave Link  703 at Fri Aug 26 10:59:19 2022, MaxMem= 24159191040 cpu:        39.2
 (Enter /public/home/users/caep010/software/Gaussian09/g09/l716.exe)
 Dipole        = 4.80891846D-01-3.80652625D-02-3.67497316D-01
 ***** Axes restored to original set *****
 -------------------------------------------------------------------
 Center     Atomic                   Forces (Hartrees/Bohr)
 Number     Number              X              Y              Z
 -------------------------------------------------------------------
      1        6           0.001980422   -0.000893681    0.000775855
      2        7          -0.001176125    0.007518699    0.006665883
      3        6           0.004469102   -0.003746551    0.000330301
      4        7          -0.003945022   -0.007961360   -0.010771678
      5        7          -0.003270199    0.003721402    0.006551957
      6        1          -0.000054671   -0.000128151    0.000016704
      7        1          -0.000375508   -0.000651334   -0.000342967
      8        1          -0.000054087    0.000005218    0.000313432
      9        1          -0.000354307    0.000231098    0.000155669
     10        1          -0.000414702    0.000188658   -0.000535788
     11        1           0.000221126    0.000338061   -0.000463943
     12        1           0.000515956    0.000371281   -0.001574164
     13        1           0.001747900   -0.000043434   -0.002191367
     14        1           0.000710114    0.001050094    0.001070106
 -------------------------------------------------------------------
 Cartesian Forces:  Max     0.010771678 RMS     0.003160807
 Leave Link  716 at Fri Aug 26 10:59:19 2022, MaxMem= 24159191040 cpu:         0.5
 (Enter /public/home/users/caep010/software/Gaussian09/g09/l103.exe)

 GradGradGradGradGradGradGradGradGradGradGradGradGradGradGradGradGradGrad
 Berny optimization.
 Using GEDIIS/GDIIS optimizer.
 FormGI is forming the generalized inverse of G from B-inverse, IUseBI=4.
 Internal  Forces:  Max     0.016567623 RMS     0.002686873
 Search for a local minimum.
 Step number   2 out of a maximum of   64
 All quantities printed in internal units (Hartrees-Bohrs-Radians)
 RMS Force = .26869D-02 SwitMx=.10000D-02 MixMth= 1
 Mixed Optimization -- RFO/linear search
 Update second derivatives using D2CorX and points    1    2
 DE= -6.73D-03 DEPred=-8.09D-03 R= 8.32D-01
 TightC=F SS=  1.41D+00  RLast= 3.20D-01 DXNew= 5.0454D-01 9.5936D-01
 Trust test= 8.32D-01 RLast= 3.20D-01 DXMaxT set to 5.05D-01
 ITU=  1  0
 Use linear search instead of GDIIS.
     Eigenvalues ---    0.00711   0.00774   0.01028   0.01161   0.03535
     Eigenvalues ---    0.04182   0.06440   0.07040   0.07100   0.07520
     Eigenvalues ---    0.07576   0.12134   0.15738   0.16000   0.16000
     Eigenvalues ---    0.16000   0.16000   0.16000   0.16000   0.16022
     Eigenvalues ---    0.16265   0.17594   0.28839   0.32271   0.32297
     Eigenvalues ---    0.32435   0.32477   0.32553   0.33384   0.34732
     Eigenvalues ---    0.35768   0.39604   0.40279   0.41010   0.42529
     Eigenvalues ---    0.44481
 RFO step:  Lambda=-2.02865765D-03 EMin= 7.10791288D-03
 Quartic linear search produced a step of -0.07027.
 Iteration  1 RMS(Cart)=  0.04928077 RMS(Int)=  0.00268521
 Iteration  2 RMS(Cart)=  0.00292144 RMS(Int)=  0.00021601
 Iteration  3 RMS(Cart)=  0.00001233 RMS(Int)=  0.00021578
 Iteration  4 RMS(Cart)=  0.00000000 RMS(Int)=  0.00021578
 ITry= 1 IFail=0 DXMaxC= 2.55D-01 DCOld= 1.00D+10 DXMaxT= 5.05D-01 DXLimC= 3.00D+00 Rises=F
 Variable       Old X    -DE/DX   Delta X   Delta X   Delta X     New X
                                 (Linear)    (Quad)   (Total)
    R1        2.76698  -0.00159   0.00067  -0.00560  -0.00493   2.76205
    R2        2.06778  -0.00007   0.00230  -0.00540  -0.00310   2.06467
    R3        2.06872  -0.00040   0.00206  -0.00578  -0.00373   2.06500
    R4        2.08321  -0.00025   0.00143  -0.00394  -0.00251   2.08069
    R5        2.76321  -0.00352   0.00159  -0.01276  -0.01117   2.75204
    R6        2.73939   0.00453  -0.00391   0.01863   0.01472   2.75411
    R7        2.08834   0.00004   0.00106  -0.00228  -0.00122   2.08712
    R8        2.07205  -0.00040   0.00192  -0.00548  -0.00356   2.06850
    R9        2.06462  -0.00005   0.00253  -0.00585  -0.00333   2.06130
   R10        2.68674  -0.00086  -0.00164   0.00192   0.00027   2.68701
   R11        1.92054  -0.00088   0.00429  -0.01169  -0.00740   1.91314
   R12        1.91696   0.00179   0.00408  -0.00516  -0.00108   1.91588
   R13        1.93475   0.00110   0.00318  -0.00466  -0.00148   1.93327
    A1        1.90382   0.00002   0.00149  -0.00268  -0.00119   1.90263
    A2        1.91347  -0.00040   0.00070  -0.00389  -0.00319   1.91028
    A3        1.96703  -0.00011  -0.00190   0.00301   0.00111   1.96813
    A4        1.87673   0.00046  -0.00051   0.00517   0.00468   1.88141
    A5        1.90968   0.00002  -0.00020   0.00051   0.00030   1.90998
    A6        1.89097   0.00005   0.00045  -0.00195  -0.00151   1.88947
    A7        1.91947   0.00337  -0.00099   0.02078   0.01981   1.93927
    A8        1.88556  -0.00043  -0.00030   0.00029   0.00006   1.88562
    A9        1.91873  -0.00242   0.00054  -0.01309  -0.01257   1.90616
   A10        1.97024   0.00038  -0.00209   0.00622   0.00411   1.97435
   A11        1.91158   0.00080   0.00035   0.00511   0.00546   1.91704
   A12        1.90656  -0.00074   0.00139  -0.00806  -0.00667   1.89989
   A13        1.89819  -0.00044   0.00037  -0.00220  -0.00184   1.89635
   A14        1.89474  -0.00027   0.00085  -0.00600  -0.00516   1.88958
   A15        1.88038   0.00027  -0.00082   0.00488   0.00407   1.88445
   A16        2.00093  -0.01657  -0.00784  -0.04949  -0.05781   1.94312
   A17        1.84657   0.00325   0.00662  -0.01452  -0.00859   1.83798
   A18        1.83166   0.00378   0.00111   0.00104   0.00110   1.83276
   A19        1.86249   0.00104   0.00214   0.00289   0.00504   1.86754
   A20        1.90888   0.00046  -0.00014   0.00469   0.00456   1.91345
   A21        1.84359   0.00003   0.00335  -0.00347  -0.00010   1.84349
    D1        1.06557   0.00074  -0.00131   0.02783   0.02651   1.09208
    D2       -3.12335  -0.00048  -0.00141   0.02429   0.02291  -3.10044
    D3        3.11636   0.00107  -0.00062   0.03028   0.02964  -3.13719
    D4       -1.07256  -0.00015  -0.00071   0.02674   0.02604  -1.04653
    D5       -1.05913   0.00077  -0.00082   0.02708   0.02624  -1.03290
    D6        1.03513  -0.00045  -0.00091   0.02353   0.02263   1.05777
    D7        1.08989  -0.00030   0.00059  -0.00803  -0.00747   1.08242
    D8       -3.07558  -0.00005  -0.00008  -0.00303  -0.00313  -3.07871
    D9       -1.01988   0.00031  -0.00005   0.00114   0.00104  -1.01884
   D10       -0.98413  -0.00036   0.00124  -0.01310  -0.01184  -0.99597
   D11        1.13358  -0.00011   0.00056  -0.00810  -0.00750   1.12608
   D12       -3.09391   0.00025   0.00059  -0.00394  -0.00333  -3.09723
   D13        1.74763  -0.00001  -0.00095   0.02444   0.02309   1.77072
   D14       -2.52610  -0.00206  -0.00005  -0.00969  -0.00934  -2.53544
   D15       -2.44083   0.00241  -0.00202   0.04219   0.03977  -2.40106
   D16       -0.43136   0.00036  -0.00112   0.00806   0.00734  -0.42403
   D17       -1.28769  -0.00301   0.00709  -0.14323  -0.13602  -1.42371
   D18        0.69872  -0.00222   0.01214  -0.14351  -0.13127   0.56745
   D19        2.97739  -0.00082   0.00259  -0.10070  -0.09822   2.87917
   D20       -1.31938  -0.00003   0.00764  -0.10098  -0.09347  -1.41285
         Item               Value     Threshold  Converged?
 Maximum Force            0.016568     0.000450     NO 
 RMS     Force            0.002687     0.000300     NO 
 Maximum Displacement     0.255432     0.001800     NO 
 RMS     Displacement     0.049352     0.001200     NO 
 Predicted change in Energy=-1.137037D-03
 Lowest energy point so far.  Saving SCF results.
 GradGradGradGradGradGradGradGradGradGradGradGradGradGradGradGradGradGrad

 Leave Link  103 at Fri Aug 26 10:59:19 2022, MaxMem= 24159191040 cpu:         2.3
 (Enter /public/home/users/caep010/software/Gaussian09/g09/l202.exe)
                          Input orientation:                          
 ---------------------------------------------------------------------
 Center     Atomic      Atomic             Coordinates (Angstroms)
 Number     Number       Type             X           Y           Z
 ---------------------------------------------------------------------
      1          6           0        0.166078    1.379356   -0.202462
      2          7           0       -0.052513    0.131411    0.526349
      3          6           0       -1.467977   -0.075706    0.799157
      4          7           0        0.442707   -0.964602   -0.296791
      5          7           0        1.718265   -1.409375    0.146992
      6          1           0       -0.161471    2.216375    0.418698
      7          1           0        1.234093    1.505229   -0.396368
      8          1           0       -0.365318    1.408532   -1.166355
      9          1           0       -2.077569   -0.166441   -0.117350
     10          1           0       -1.601951   -0.980951    1.399768
     11          1           0       -1.843085    0.770072    1.376893
     12          1           0       -0.183019   -1.739391   -0.114851
     13          1           0        2.405712   -0.773892   -0.242173
     14          1           0        1.786149   -1.300817    1.161994
 ---------------------------------------------------------------------
                    Distance matrix (angstroms):
                    1          2          3          4          5
     1  C    0.000000
     2  N    1.461614   0.000000
     3  C    2.406363   1.456317   0.000000
     4  N    2.362110   1.457411   2.375280   0.000000
     5  N    3.210674   2.377728   3.515129   1.421905   0.000000
     6  H    1.092578   2.090582   2.665585   3.315957   4.093079
     7  H    1.092749   2.096220   3.351092   2.595433   3.004094
     8  H    1.101055   2.143393   2.698529   2.653453   3.742566
     9  H    2.725927   2.145673   1.104454   2.649727   4.002888
    10  H    3.356206   2.097848   1.094601   2.656916   3.574469
    11  H    2.627227   2.082656   1.090791   3.321920   4.352684
    12  H    3.139447   1.981936   2.292243   1.012389   1.947396
    13  H    3.107092   2.730031   4.071523   1.973002   1.013840
    14  H    3.416094   2.415781   3.495981   2.011449   1.023045
                    6          7          8          9         10
     6  H    0.000000
     7  H    1.765689   0.000000
     8  H    1.790686   1.777736   0.000000
     9  H    3.104285   3.720139   2.552009   0.000000
    10  H    3.641480   4.177361   3.718048   1.786417   0.000000
    11  H    2.416145   3.626835   3.009906   1.778988   1.767697
    12  H    3.991644   3.551762   3.323900   2.462417   2.209676
    13  H    3.996107   2.567267   3.646326   4.525967   4.335920
    14  H    4.088563   3.256862   4.170203   4.225144   3.411462
                   11         12         13         14
    11  H    0.000000
    12  H    3.358351   0.000000
    13  H    4.801819   2.765849   0.000000
    14  H    4.184029   2.387530   1.622711   0.000000
 Stoichiometry    C2H9N3
 Framework group  C1[X(C2H9N3)]
 Deg. of freedom    36
 Full point group                 C1      NOp   1
 RotChk:  IX=0 Diff= 1.17D-02
 Largest Abelian subgroup         C1      NOp   1
 Largest concise Abelian subgroup C1      NOp   1
                         Standard orientation:                         
 ---------------------------------------------------------------------
 Center     Atomic      Atomic             Coordinates (Angstroms)
 Number     Number       Type             X           Y           Z
 ---------------------------------------------------------------------
      1          6           0        0.866188    1.340577    0.056045
      2          7           0        0.374852    0.011405   -0.302013
      3          6           0        1.399216   -1.001538   -0.088739
      4          7           0       -0.776640   -0.286112    0.540364
      5          7           0       -1.996489   -0.096288   -0.165148
      6          1           0        1.704731    1.597534   -0.595526
      7          1           0        0.076392    2.077344   -0.109778
      8          1           0        1.185403    1.407810    1.107665
      9          1           0        1.713557   -1.084968    0.966745
     10          1           0        1.032178   -1.977133   -0.422877
     11          1           0        2.275252   -0.748490   -0.687364
     12          1           0       -0.728274   -1.281752    0.717266
     13          1           0       -2.202741    0.896007   -0.139025
     14          1           0       -1.860981   -0.323626   -1.153366
 ---------------------------------------------------------------------
 Rotational constants (GHZ):      8.0274522      3.8257062      2.9179688
 Leave Link  202 at Fri Aug 26 10:59:19 2022, MaxMem= 24159191040 cpu:         0.2
 (Enter /public/home/users/caep010/software/Gaussian09/g09/l301.exe)
 Standard basis: GTBas3 (6D, 7F)
 Ernie: Thresh=  0.10000D-02 Tol=  0.10000D-05 Strict=F.
 There are   200 symmetry adapted cartesian basis functions of A   symmetry.
 There are   185 symmetry adapted basis functions of A   symmetry.
   185 basis functions,   283 primitive gaussians,   200 cartesian basis functions
    21 alpha electrons       21 beta electrons
       nuclear repulsion energy       199.7311290926 Hartrees.
 IExCor=  402 DFT=T Ex+Corr=B3LYP ExCW=0 ScaHFX=  0.200000
 ScaDFX=  0.800000  0.720000  1.000000  0.810000 ScalE2=  1.000000  1.000000
 IRadAn=      0 IRanWt=     -1 IRanGd=            0 ICorTp=0 IEmpDi=  4
 NAtoms=   14 NActive=   14 NUniq=   14 SFac= 1.00D+00 NAtFMM=   60 NAOKFM=F Big=F
 Integral buffers will be    131072 words long.
 Raffenetti 2 integral format.
 Two-electron integral symmetry is turned on.
 Leave Link  301 at Fri Aug 26 10:59:19 2022, MaxMem= 24159191040 cpu:         1.7
 (Enter /public/home/users/caep010/software/Gaussian09/g09/l302.exe)
 NPDir=0 NMtPBC=     1 NCelOv=     1 NCel=       1 NClECP=     1 NCelD=      1
         NCelK=      1 NCelE2=     1 NClLst=     1 CellRange=     0.0.
 One-electron integrals computed using PRISM.
 NBasis=   185 RedAO= T EigKep=  3.42D-04  NBF=   185
 NBsUse=   185 1.00D-06 EigRej= -1.00D+00 NBFU=   185
 Precomputing XC quadrature grid using
 IXCGrd= 4 IRadAn=           0 IRanWt=          -1 IRanGd=           0 AccXCQ= 0.00D+00.
 Generated NRdTot=       0 NPtTot=           0 NUsed=           0 NTot=          32
 NSgBfM=   200   200   200   200   200 MxSgAt=    14 MxSgA2=    14.
 Leave Link  302 at Fri Aug 26 10:59:20 2022, MaxMem= 24159191040 cpu:        14.0
 (Enter /public/home/users/caep010/software/Gaussian09/g09/l303.exe)
 DipDrv:  MaxL=1.
 Leave Link  303 at Fri Aug 26 10:59:20 2022, MaxMem= 24159191040 cpu:         0.7
 (Enter /public/home/users/caep010/software/Gaussian09/g09/l401.exe)
 Initial guess from the checkpoint file:  "G4.Frag_700.chk"
 B after Tr=     0.000000   -0.000000    0.000000
         Rot=    0.999997   -0.002261    0.000341    0.000177 Ang=  -0.26 deg.
 Guess basis will be translated and rotated to current coordinates.
 JPrj=2 DoOrth=T DoCkMO=T.
 Generating alternative initial guess.
 ExpMin= 1.61D-01 ExpMax= 4.17D+03 ExpMxC= 6.27D+02 IAcc=1 IRadAn=         1 AccDes= 0.00D+00
 Harris functional with IExCor=  402 and IRadAn=       1 diagonalized for initial guess.
 HarFok:  IExCor=  402 AccDes= 0.00D+00 IRadAn=         1 IDoV= 1 UseB2=F ITyADJ=14
 ICtDFT=  3500011 ScaDFX=  1.000000  1.000000  1.000000  1.000000
 FoFCou: FMM=F IPFlag=           0 FMFlag=      100000 FMFlg1=           0
         NFxFlg=           0 DoJE=T BraDBF=F KetDBF=T FulRan=T
         wScrn=  0.000000 ICntrl=     500 IOpCl=  0 I1Cent=   200000004 NGrid=           0
         NMat0=    1 NMatS0=      1 NMatT0=    0 NMatD0=    1 NMtDS0=    0 NMtDT0=    0
 Petite list used in FoFCou.
 Harris En= -245.821591532970    
 Leave Link  401 at Fri Aug 26 10:59:20 2022, MaxMem= 24159191040 cpu:        15.3
 (Enter /public/home/users/caep010/software/Gaussian09/g09/l502.exe)
 Closed shell SCF:
 Using DIIS extrapolation, IDIIS=  1040.
 Integral symmetry usage will be decided dynamically.
 Keep R1 ints in memory in canonical form, NReq=152221235.
 IVT=      146420 IEndB=      146420 NGot= 24159191040 MDV= 24011030006
 LenX= 24011030006 LenY= 24010989565
 Requested convergence on RMS density matrix=1.00D-08 within 128 cycles.
 Requested convergence on MAX density matrix=1.00D-06.
 Requested convergence on             energy=1.00D-06.
 No special actions if energy rises.
 FoFCou: FMM=F IPFlag=           0 FMFlag=           0 FMFlg1=           0
[...]
          Condensed to atoms (all electrons):
               1          2          3          4          5          6
     1  C    5.018046   0.249487  -0.039759  -0.040271   0.000298   0.418168
     2  N    0.249487   6.672010   0.279372   0.153417  -0.088507  -0.047688
     3  C   -0.039759   0.279372   5.033476  -0.044720   0.014437   0.000150
     4  N   -0.040271   0.153417  -0.044720   6.792376   0.181290   0.010015
     5  N    0.000298  -0.088507   0.014437   0.181290   6.756734   0.000226
     6  H    0.418168  -0.047688   0.000150   0.010015   0.000226   0.501667
     7  H    0.413163  -0.047929   0.007850  -0.004862   0.005918  -0.020753
     8  H    0.413906  -0.019876  -0.000006  -0.000110  -0.003317  -0.029700
     9  H   -0.006964  -0.024335   0.425871  -0.000108  -0.001758  -0.000884
    10  H    0.010294  -0.049909   0.409011  -0.002534   0.001110   0.000320
    11  H    0.004546  -0.047987   0.406456   0.010755  -0.000951   0.000654
    12  H    0.010313  -0.034236  -0.011759   0.352702  -0.027965  -0.000780
    13  H   -0.001283   0.009218  -0.001145  -0.061596   0.399636  -0.000085
    14  H   -0.004126   0.010329   0.004353  -0.038171   0.385575   0.000050
               7          8          9         10         11         12
     1  C    0.413163   0.413906  -0.006964   0.010294   0.004546   0.010313
     2  N   -0.047929  -0.019876  -0.024335  -0.049909  -0.047987  -0.034236
     3  C    0.007850  -0.000006   0.425871   0.409011   0.406456  -0.011759
     4  N   -0.004862  -0.000110  -0.000108  -0.002534   0.010755   0.352702
     5  N    0.005918  -0.003317  -0.001758   0.001110  -0.000951  -0.027965
     6  H   -0.020753  -0.029700  -0.000884   0.000320   0.000654  -0.000780
     7  H    0.520900  -0.030612  -0.000876  -0.000324   0.000452   0.000166
     8  H   -0.030612   0.507184   0.007742  -0.000986  -0.001501  -0.000410
     9  H   -0.000876   0.007742   0.508398  -0.033782  -0.029065  -0.001324
    10  H   -0.000324  -0.000986  -0.033782   0.521589  -0.016299   0.005638
    11  H    0.000452  -0.001501  -0.029065  -0.016299   0.490942   0.000440
    12  H    0.000166  -0.000410  -0.001324   0.005638   0.000440   0.407428
    13  H   -0.000280   0.000077  -0.000035   0.000046   0.000068   0.006640
    14  H   -0.000690   0.000404   0.000225  -0.000366  -0.000254  -0.006342
              13         14
     1  C   -0.001283  -0.004126
     2  N    0.009218   0.010329
     3  C   -0.001145   0.004353
     4  N   -0.061596  -0.038171
     5  N    0.399636   0.385575
     6  H   -0.000085   0.000050
     7  H   -0.000280  -0.000690
     8  H    0.000077   0.000404
     9  H   -0.000035   0.000225
    10  H    0.000046  -0.000366
    11  H    0.000068  -0.000254
    12  H    0.006640  -0.006342
    13  H    0.388423  -0.038534
    14  H   -0.038534   0.390771
 Mulliken charges:
               1
     1  C   -0.445818
     2  N   -0.013364
     3  C   -0.483586
     4  N   -0.308183
     5  N   -0.622724
     6  H    0.168641
     7  H    0.157877
     8  H    0.157204
     9  H    0.156896
    10  H    0.156192
    11  H    0.181747
    12  H    0.299490
    13  H    0.298849
    14  H    0.296778
 Sum of Mulliken charges =  -0.00000
 Mulliken charges with hydrogens summed into heavy atoms:
               1
     1  C    0.037904
     2  N   -0.013364
     3  C    0.011249
     4  N   -0.008692
     5  N   -0.027097
 Electronic spatial extent (au):  <R**2>=            478.6950
 Charge=             -0.0000 electrons
 Dipole moment (field-independent basis, Debye):
    X=              1.4495    Y=              0.4508    Z=             -0.7543  Tot=              1.6950
 Quadrupole moment (field-independent basis, Debye-Ang):
   XX=            -34.1817   YY=            -29.2664   ZZ=            -34.9074
   XY=             -2.8952   XZ=              1.7938   YZ=              0.1227
 Traceless Quadrupole moment (field-independent basis, Debye-Ang):
   XX=             -1.3966   YY=              3.5188   ZZ=             -2.1222
   XY=             -2.8952   XZ=              1.7938   YZ=              0.1227
 Octapole moment (field-independent basis, Debye-Ang**2):
  XXX=              8.7235  YYY=             -3.8609  ZZZ=             -3.0056  XYY=             -2.9493
  XXY=              8.6157  XXZ=             -4.7805  XZZ=             -2.0100  YZZ=             -0.1974
  YYZ=              0.0744  XYZ=             -0.7083
 Hexadecapole moment (field-independent basis, Debye-Ang**3):
 XXXX=           -403.0508 YYYY=           -187.4822 ZZZZ=            -72.5140 XXXY=            -23.5836
 XXXZ=              0.7633 YYYX=             -1.5588 YYYZ=             -1.3285 ZZZX=              7.3733
 ZZZY=              0.8204 XXYY=            -92.5672 XXZZ=            -68.7660 YYZZ=            -44.3724
 XXYZ=             -0.1783 YYXZ=             -2.2463 ZZXY=              0.4581
 N-N= 1.998516121111D+02 E-N=-9.712967503984D+02  KE= 2.439714192578D+02
 No NMR shielding tensors so no spin-rotation constants.
 Leave Link  601 at Fri Aug 26 11:11:43 2022, MaxMem= 24159191040 cpu:        29.4
 (Enter /public/home/users/caep010/software/Gaussian09/g09/l9999.exe)
 1\1\GINC-B1615\SP\RHF\GFHFB2\C2H9N3\ROOT\26-Aug-2022\0\\#P Geom=AllChe
 ck Guess=TCheck SCRF=Check HF/GFHFB2 SCF=Tight\\Frag_700\\0,1\C,0,0.20
 45104554,1.3309892038,-0.1418733772\N,0,-0.0916634423,0.0967841758,0.5
 792923079\C,0,-1.5274032386,-0.0633719815,0.7602352633\N,0,0.399585538
 1,-1.0246088704,-0.2352269381\N,0,1.7440169134,-1.3421917728,0.1024910
 664\H,0,-0.1016423679,2.1839982876,0.4709707399\H,0,1.2835235233,1.406
 400968,-0.3039026267\H,0,-0.2997372762,1.385217512,-1.1207396084\H,0,-
 2.0800212182,-0.1274118827,-0.1941547477\H,0,-1.7294286542,-0.96966810
 57,1.342388466\H,0,-1.9117652218,0.7905167865,1.3240330394\H,0,-0.1445
 607723,-1.822423443,0.0841914459\H,0,2.3465804053,-0.7457686919,-0.456
 4498942\H,0,1.9081053559,-1.0986621856,1.0822448633\\Version=ES64L-G09
 RevE.01\State=1-A\HF=-244.3426524\RMSD=2.184e-09\Dipole=-0.3010068,0.5
 033988,0.3173392\Quadrupole=2.140574,-0.7554184,-1.3851556,2.289296,-0
 .3530062,-1.6507355\PG=C01 [X(C2H9N3)]\\@


 IN THE WOODS WE RETURN TO REASON AND FAITH.

                                 -- EMERSON
 Diagonal vibrational polarizability:
        0.0000000       0.0000000       0.0000000

 Temperature=              298.150000 Pressure=                      1.000000
 E(ZPE)=                     0.124464 E(Thermal)=                    0.131022
 E(CCSD(T))=              -245.056580 E(Empiric)=                   -0.111152
 DE(Plus)=                  -0.022211 DE(2DF)=                      -0.224157
 E(Delta-G3XP)=             -0.324165 DE(HF)=                       -0.024274
 G4(0 K)=                 -245.638075 G4 Energy=                  -245.631517
 G4 Enthalpy=             -245.630573 G4 Free Energy=             -245.667644
 1\1\GINC-B1615\Mixed\G4\G4\C2H9N3\ROOT\26-Aug-2022\0\\#P Geom=AllCheck
  Guess=TCheck SCRF=Check HF/GFHFB2 SCF=Tight\\Frag_700\\0,1\C,0,0.2045
 104554,1.3309892038,-0.1418733772\N,0,-0.0916634423,0.0967841758,0.579
 2923079\C,0,-1.5274032386,-0.0633719815,0.7602352633\N,0,0.3995855381,
 -1.0246088704,-0.2352269381\N,0,1.7440169134,-1.3421917728,0.102491066
 4\H,0,-0.1016423679,2.1839982876,0.4709707399\H,0,1.2835235233,1.40640
 0968,-0.3039026267\H,0,-0.2997372762,1.385217512,-1.1207396084\H,0,-2.
 0800212182,-0.1274118827,-0.1941547477\H,0,-1.7294286542,-0.9696681057
 ,1.342388466\H,0,-1.9117652218,0.7905167865,1.3240330394\H,0,-0.144560
 7723,-1.822423443,0.0841914459\H,0,2.3465804053,-0.7457686919,-0.45644
 98942\H,0,1.9081053559,-1.0986621856,1.0822448633\\Version=ES64L-G09Re
 vE.01\State=1-A\MP2/GTBas1=-244.981037\MP4/GTBas1=-245.0550635\CCSD(T)
 /G3Bas1=-245.0565797\MP2/GTBas2=-245.0018521\MP4/GTBas2=-245.0772741\M
 P2/GTBas3=-245.1922224\MP4/GTBas3=-245.2792209\HF/GTLargeXP=-244.31940
 59\MP2/GTLargeXP=-245.5372029\HF/GFHFB1=-244.3384374\HF/GFHFB2=-244.34
 26524\G4=-245.638075\FreqCoord=0.3864687521,2.5152050811,-0.2681018285
 ,-0.1732188023,0.1828955862,1.0947038128,-2.8863738155,-0.1197556895,1
 .4366364443,0.7551072336,-1.9362301583,-0.444514492,3.2957143375,-2.53
 63748684,0.1936800466,-0.1920762389,4.1271586382,0.890005715,2.4255079
 442,2.6577126626,-0.5742927356,-0.5664213639,2.6176817322,-2.117890926
 1,-3.9306704529,-0.2407735644,-0.3668993006,-3.2681465227,-1.832407159
 5,2.5367465647,-3.6127126996,1.4938602299,2.5020598354,-0.2731802692,-
 3.4438812055,0.1590987755,4.4343943148,-1.4092985863,-0.8625652934,3.6
 057965554,-2.0761706434,2.0451464004\PG=C01 [X(C2H9N3)]\NImag=0\\0.590
 76323,-0.01909323,0.50982147,-0.01004707,0.06066459,0.53319959,-0.0907
 5036,-0.02960917,0.04124947,0.47045599,-0.00534911,-0.15853404,0.07830
 219,0.03782377,0.47308862,0.01229726,0.03609090,-0.11129900,-0.0866899
 3,-0.02976648,0.28349211,-0.01894882,-0.00955032,-0.00242892,-0.200697
 92,-0.01722079,0.04465832,0.46465390,-0.03834572,-0.00673988,0.0073312
 1,-0.01938016,-0.09863609,0.00292605,-0.01586210,0.60734158,0.02285182
 ,0.01176978,-0.01054934,-0.01082867,-0.00379295,-0.06430841,-0.0144905
 2,0.00338391,0.55522065,0.00531525,-0.00068033,-0.01009571,-0.08927822
 ,-0.02465286,0.01476022,-0.02527458,0.03460617,0.02862868,0.50807899,0
 .01071432,-0.04550707,-0.02502178,0.00452320,-0.13087080,-0.05640051,0
 .00289934,-0.00040060,-0.00668209,0.14967654,0.51519932,-0.00376542,0.
 01178260,0.00811687,0.02375850,-0.04464939,-0.09962246,-0.00434667,-0.
 00562232,-0.01131246,-0.04505631,-0.04614373,0.25894321,-0.00183491,0.
 00052287,0.00060408,-0.03180279,0.02187249,-0.00010560,-0.00132163,0.0
 0585591,-0.00014118,-0.19811778,0.01492360,0.00484451,0.49353605,0.001
 61626,0.00000708,-0.00113422,0.04088291,-0.01108175,0.00268901,0.00043
 591,-0.00617177,0.00127060,-0.02596600,-0.06636792,-0.00304974,0.13371
 271,0.27716766,-0.00055802,0.00048948,0.00155447,0.02804589,-0.0016456
 6,0.00703550,0.00192168,-0.00382356,-0.00198760,-0.06295654,0.01375183
 ,-0.09468388,-0.06564380,-0.05136792,0.62339431,-0.06958853,0.05998594
 ,0.04351372,0.00114825,-0.00605140,-0.00420839,0.00023428,-0.00097454,
 -0.00059750,-0.00054283,-0.00194984,0.00038406,0.00075584,0.00019320,0
 .00048590,0.07074238,0.05527971,-0.19913766,-0.11111724,0.01068215,-0.
 02577103,-0.01574750,0.00152972,0.00030773,-0.00156967,-0.00487602,-0.
 00484941,0.00331758,0.00036389,-0.00005998,0.00012166,-0.06264170,0.22
 626410,0.04436981,-0.11933138,-0.13791632,-0.00639250,0.01465891,0.009
 57837,-0.00002413,0.00020131,0.00029458,0.00217393,0.00315917,-0.00030
 836,-0.00044932,-0.00003500,0.00008532,-0.04843795,0.12331812,0.143820
 94,-0.30434589,-0.01294862,0.03559966,-0.00593740,-0.00397105,0.003350
 42,0.00115784,-0.00192672,0.00094528,-0.00068792,0.00144507,0.00014973
 ,0.00113629,0.00031161,-0.00003738,-0.00806419,-0.00017953,0.00020929,
 0.33059350,-0.00573852,-0.04762502,-0.00000245,-0.03271053,-0.00539133
 ,0.00843152,-0.00003525,-0.00588017,0.00180758,-0.00140676,0.00106683,
 -0.00059679,0.00012329,0.00099369,0.00050618,0.02474965,0.00244995,-0.
 00247955,0.01630702,0.05463687,0.03127343,0.00239744,-0.05294091,0.019
 76161,0.00167564,-0.00499539,0.00008185,0.00314351,-0.00064767,-0.0000
 2960,-0.00097450,0.00022381,-0.00033073,-0.00059307,-0.00017858,0.0180
 5959,0.00135930,-0.00261457,-0.04187620,-0.00710141,0.05617932,-0.1056
 6099,0.00015017,-0.09898256,0.00485337,0.00036044,0.00684977,0.0032765
 7,0.00024463,0.00328239,0.00011744,-0.00033176,-0.00007569,-0.00045758
 ,0.00049750,0.00001735,0.00447882,-0.00035709,0.00920328,-0.01409209,-
 0.00055544,-0.02830369,0.10658756,0.00033881,-0.04956671,-0.00161012,0
 .01001997,-0.01285213,0.03580784,0.00496213,0.00109187,0.00024942,-0.0
 0145710,0.00572438,0.00119422,0.00091704,-0.00035730,-0.00084006,-0.01
 242582,0.00169573,-0.02047678,0.00059753,0.00045975,-0.00108557,-0.000
 69719,0.05302957,-0.09932194,0.00027215,-0.23048990,-0.00417519,0.0137
 3591,-0.02379531,-0.00323096,-0.00083817,0.00110398,0.00103969,-0.0012
 7471,0.00393237,0.00012407,0.00039649,-0.00006849,-0.00904964,0.000038
 10,-0.01412761,0.00205391,-0.00098453,0.00429556,0.10976031,-0.0109451
 2,0.25862503,0.00189883,0.00480575,-0.00366700,-0.03763251,-0.00605550
 ,-0.02906084,-0.09601637,-0.00555549,-0.09156247,0.00419695,-0.0029936
 1,-0.00119694,-0.00043569,0.00145021,0.00105837,0.00001063,-0.00030929
 ,0.00019068,0.00025925,-0.00002572,0.00066106,0.00088039,-0.00101457,0
 .00202312,0.11725271,-0.00079174,0.00111006,-0.00322835,-0.00358705,0.
 00081097,-0.00340877,-0.00616474,-0.05281394,-0.01038382,-0.00042276,0
 .00117780,0.00222686,0.00023008,-0.00005077,-0.00020255,0.00002011,-0.
 00004147,-0.00006703,0.00023952,-0.00000974,0.00039117,0.00070818,0.00
 042501,0.00040814,0.00915230,0.04865723,0.00159442,-0.00046633,0.00301
 465,-0.00415504,-0.00001524,0.00688343,-0.09148196,-0.01038093,-0.2321
 9432,-0.00028611,0.00145487,0.00320924,0.00042628,0.00011074,-0.000001
 52,0.00004623,-0.00002680,-0.00021529,-0.00005401,-0.00000197,0.000144
 05,-0.00146396,-0.00170843,0.00045481,0.10925581,0.01241957,0.24847956
 ,-0.00648655,0.00136272,0.00171658,-0.01265502,-0.03323423,0.01851180,
 -0.05346570,-0.02684848,0.01799338,0.00143827,-0.00162256,-0.00044233,
 0.00020321,-0.00002503,-0.00025139,0.00014514,0.00009148,-0.00037228,-
 0.00046282,-0.00178816,0.00110458,-0.00005787,-0.00017622,0.00043691,0
 .00324979,0.01242404,-0.00674662,0.06582301,-0.00141030,0.00147008,-0.
 00036161,-0.00361933,-0.00518976,0.00040873,-0.03390984,-0.22435281,0.
 11357101,0.00116036,0.00077953,-0.00060301,-0.00031751,0.00116334,-0.0
 0006856,0.00012205,0.00044711,0.00007657,-0.00007465,-0.00021269,0.000
 46845,0.00017980,0.00003998,0.00003921,0.00083957,0.00184655,-0.001700
 05,0.04082434,0.24280384,0.00132612,-0.00076681,0.00027919,0.00339820,
 0.00211981,-0.00141541,0.02099748,0.11438073,-0.12230152,-0.00011946,0
 .00113744,0.00006486,-0.00027113,-0.00028796,0.00009063,-0.00016370,0.
 00024919,0.00014063,0.00006538,0.00045111,0.00034702,-0.00024648,-0.00
 038067,0.00054205,0.00345496,0.02409268,-0.01446876,-0.02561991,-0.126
 14164,0.12772341,0.00092674,0.00154292,0.00048369,-0.01665945,0.030696
 17,0.01815939,-0.07469397,0.06327395,0.04300186,-0.00547584,-0.0028558
 9,0.00034362,-0.00112224,0.00139565,0.00153826,-0.00013375,-0.00094341
 ,0.00002414,0.00028198,0.00009139,-0.00046977,-0.00005156,-0.00038949,
 0.00010456,0.00594224,-0.01192377,-0.00697705,0.00202511,-0.00374665,-
 0.00354940,0.08954148,-0.00099834,0.00014886,0.00070446,-0.00042008,0.
 00257947,0.00303630,0.07162262,-0.21422405,-0.11016625,-0.00097790,0.0
 0075628,0.00088630,-0.00038712,0.00071720,-0.00053537,-0.00029562,0.00
 032046,0.00008648,0.00005599,0.00040244,0.00017282,-0.00003161,-0.0001
 3020,-0.00016987,-0.00003142,-0.00070046,0.00036994,0.00821929,-0.0190
 7027,-0.01404150,-0.07674438,0.22836140,-0.00017497,-0.00094152,-0.000
 05907,0.00281582,-0.00248791,-0.00263388,0.04652714,-0.10878218,-0.117
 99160,0.00061913,0.00144393,0.00158590,0.00011887,-0.00030757,0.000158
 84,0.00028855,0.00050925,0.00035859,-0.00022402,0.00026829,0.00010323,
 -0.00002489,-0.00014296,-0.00028028,0.00897605,-0.02266039,-0.01418337
 ,-0.00685826,0.01394149,0.00959502,-0.05190495,0.11929282,0.12386072,-
 0.00082153,0.00295942,0.00175590,0.00391065,0.01092800,-0.00085358,0.0
 0194100,0.00476661,-0.00000708,-0.13786517,-0.14163101,0.05802538,-0.0
 3866593,-0.02280527,0.01573816,0.00034164,0.00113312,-0.00040230,-0.00
 009630,-0.00011938,0.00007671,0.00001537,-0.00007703,-0.00006140,-0.00
 056515,0.00021429,-0.00039738,0.00017235,-0.00039863,0.00099922,-0.000
 52695,-0.00017771,-0.00021457,0.17960010,0.00255376,-0.00422559,-0.006
 18054,-0.01384552,-0.03199520,0.01223234,-0.00067420,0.00041900,0.0014
 0184,-0.15260691,-0.27437847,0.07884579,0.01252322,0.00960698,0.000111
 44,-0.00032879,-0.00194284,0.00093488,0.00009157,0.00040576,-0.0000644
 2,0.00012359,0.00039343,-0.00015560,0.00059625,-0.00018601,0.00034169,
 0.00111556,0.00056692,-0.00087737,-0.00031661,0.00093624,-0.00009958,0
 .14730273,0.29839076,0.00063005,-0.00129269,-0.00274353,-0.00958527,-0
 .03038315,-0.00322290,-0.00022067,-0.00184047,0.00413237,0.09611416,0.
 13045688,-0.06968291,-0.01373030,-0.00878666,0.00116152,-0.00029373,-0
 .00051812,0.00103386,-0.00027319,-0.00019618,-0.00003822,0.00024672,-0
 .00005131,0.00025898,-0.00022599,0.00070928,-0.00072034,0.00057091,0.0
 0044376,-0.00050762,-0.00075910,0.00016518,-0.00045782,-0.07010346,-0.
 08665084,0.07007928,-0.00064320,-0.00031339,0.00010942,-0.00069783,-0.
 00158538,0.00094979,-0.00044466,0.00054165,0.00069005,-0.03574717,-0.0
 2551548,0.01501584,-0.15938774,-0.11567102,0.10664647,0.00036878,0.000
 10456,-0.00012801,0.00034673,0.00098033,0.00001337,0.00007576,0.000031
 95,-0.00009313,0.00016954,-0.00002503,0.00005306,0.00014152,0.00026625
 ,-0.00015634,-0.00023989,0.00018943,-0.00002010,-0.00717794,0.00276657
 ,-0.00078983,0.19806343,0.00111524,0.00061220,0.00064581,0.00290273,0.
 00047803,-0.00182916,0.00047230,-0.00074212,-0.00028563,0.01250001,0.0
 0018202,-0.00784065,-0.15917101,-0.16146217,0.15934430,-0.00034377,0.0
 0022388,0.00005022,-0.00001716,-0.00120778,0.00001081,-0.00014622,-0.0
 0012939,-0.00005977,-0.00013650,0.00000063,-0.00003939,-0.00008134,-0.
 00006780,-0.00006363,0.00028071,-0.00006117,-0.00005632,-0.00020967,0.
 00234548,0.00019722,0.13582093,0.15963948,0.00043134,0.00030885,0.0002
 4633,-0.00015558,0.00041435,-0.00036473,0.00025846,0.00020302,-0.00000
 596,-0.00992489,-0.01024010,0.00928658,0.11048287,0.12206691,-0.171953
 23,-0.00010042,0.00005553,-0.00014867,-0.00009430,-0.00053220,0.000428
 84,-0.00040110,0.00000942,-0.00006610,-0.00011038,-0.00004426,0.000008
 88,0.00001645,-0.00009773,-0.00010380,-0.00002898,0.00011429,-0.000008
 40,-0.00442851,0.00000027,0.00127580,-0.11917011,-0.13855271,0.1841707
 4,0.00017674,0.00086526,0.00018875,0.00574324,-0.00356056,0.00138136,-
 0.00039993,-0.00039571,0.00023396,-0.02615739,-0.00728190,-0.04763827,
 -0.06248510,-0.01602865,-0.02600494,0.00010356,0.00012242,0.00003535,-
 0.00008898,0.00012807,-0.00002223,0.00003481,-0.00062999,0.00038969,0.
 00078940,-0.00007341,0.00018633,-0.00007043,0.00008455,-0.00011494,0.0
 0018611,-0.00002315,0.00007620,-0.00026213,0.00069877,-0.00158029,0.00
 517266,0.00701375,0.02322515,0.07725745,0.00010885,-0.00183378,0.00100
 806,-0.00366289,0.00336503,0.00552974,0.00149522,0.00080126,-0.0005737
 1,0.01510356,-0.00251190,0.01025225,-0.03116946,-0.04410428,-0.1158412
 0,-0.00005946,0.00009343,-0.00009591,0.00006942,-0.00008856,0.00019982
 ,-0.00014499,0.00017600,-0.00046223,-0.00072199,-0.00022584,-0.0003576
 6,-0.00026140,-0.00022402,0.00012861,-0.00036058,-0.00003619,0.0000226
 6,-0.00188547,-0.00033644,-0.00225290,0.00240865,0.00018871,0.02629436
 ,0.01908055,0.04473658,-0.00090683,-0.00097706,-0.00041303,0.00295267,
 0.00183398,0.00466810,0.00177891,-0.00028211,0.00054731,-0.01486718,-0
 .00466670,-0.00975276,-0.03592862,-0.06097160,-0.36460729,0.00007330,0
 .00001060,0.00001853,0.00018542,0.00043038,-0.00030651,0.00013854,-0.0
 0001988,-0.00038508,0.00020357,-0.00025253,-0.00041100,-0.00005983,0.0
 0002340,0.00001430,0.00003373,0.00008440,-0.00004787,-0.00012707,0.000
 16009,-0.00056847,-0.00312048,-0.01152110,-0.02276626,0.04964388,0.076
 14812,0.39401003\\-0.00000197,0.00000649,-0.00000293,0.00000971,-0.000
 00788,-0.00000334,-0.00000460,0.00000006,0.00000394,-0.00003373,0.0000
 1474,-0.00000252,0.00002353,-0.00001112,0.00000439,-0.00000044,-0.0000
 0181,-0.00000320,-0.00000096,0.00000094,-0.00000326,-0.00000065,-0.000
 00448,-0.00000045,-0.00000014,-0.00000238,0.00000355,0.00000257,0.0000
 0060,0.00000301,0.00000296,-0.00000102,-0.00000042,0.00000388,-0.00000
 254,0.00000321,-0.00000052,0.00000292,-0.00000207,0.00000036,0.0000054
 8,0.00000009\\\@
 Job cpu time:       0 days  2 hours 37 minutes 51.3 seconds.
 File lengths (MBytes):  RWF=   2839 Int=      0 D2E=      0 Chk=     30 Scr=      1
 Normal termination of Gaussian 09 at Fri Aug 26 11:11:43 2022.
