 Entering Gaussian System, Link 0=g09
 Input=G4.Frag_652.gjf
 Output=G4.Frag_652.log
 Initial command:
 /public/home/users/caep010/software/Gaussian09/g09/l1.exe "/public/home/users/caep010/.cache/gau_scr/Gau-130623.inp" -scrdir="/public/home/users/caep010/.cache/gau_scr/"
 Entering Link 1 = /public/home/users/caep010/software/Gaussian09/g09/l1.exe PID=    130632.
  
 Copyright (c) 1988,1990,1992,1993,1995,1998,2003,2009,2015,
            Gaussian, Inc.  All Rights Reserved.
  
 This is part of the Gaussian(R) 09 program.  It is based on
 the Gaussian(R) 03 system (copyright 2003, Gaussian, Inc.),
 the Gaussian(R) 98 system (copyright 1998, Gaussian, Inc.),
 the Gaussian(R) 94 system (copyright 1995, Gaussian, Inc.),
 the Gaussian 92(TM) system (copyright 1992, Gaussian, Inc.),
 the Gaussian 90(TM) system (copyright 1990, Gaussian, Inc.),
 the Gaussian 88(TM) system (copyright 1988, Gaussian, Inc.),
 the Gaussian 86(TM) system (copyright 1986, Carnegie Mellon
 University), and the Gaussian 82(TM) system (copyright 1983,
 Carnegie Mellon University). Gaussian is a federally registered
 trademark of Gaussian, Inc.
  
 This software contains proprietary and confidential information,
 including trade secrets, belonging to Gaussian, Inc.
  
 This software is provided under written license and may be
 used, copied, transmitted, or stored only in accord with that
 written license.
  
 The following legend is applicable only to US Government
 contracts under FAR:
  
                    RESTRICTED RIGHTS LEGEND
  
 Use, reproduction and disclosure by the US Government is
 subject to restrictions as set forth in subparagraphs (a)
 and (c) of the Commercial Computer Software - Restricted
 Rights clause in FAR 52.227-19.
  
 Gaussian, Inc.
 340 Quinnipiac St., Bldg. 40, Wallingford CT 06492
  
  
 ---------------------------------------------------------------
 Warning -- This program may not be used in any manner that
 competes with the business of Gaussian, Inc. or will provide
 assistance to any competitor of Gaussian, Inc.  The licensee
 of this program is prohibited from giving any competitor of
 Gaussian, Inc. access to this program.  By using this program,
 the user acknowledges that Gaussian, Inc. is engaged in the
 business of creating and licensing software in the field of
 computational chemistry and represents and warrants to the
 licensee that it is not a competitor of Gaussian, Inc. and that
 it will not use this program in any manner prohibited above.
 ---------------------------------------------------------------
  

 Cite this work as:
 Gaussian 09, Revision E.01,
 M. J. Frisch, G. W. Trucks, H. B. Schlegel, G. E. Scuseria, 
 M. A. Robb, J. R. Cheeseman, G. Scalmani, V. Barone, B. Mennucci, 
 G. A. Petersson, H. Nakatsuji, M. Caricato, X. Li, H. P. Hratchian, 
 A. F. Izmaylov, J. Bloino, G. Zheng, J. L. Sonnenberg, M. Hada, 
 M. Ehara, K. Toyota, R. Fukuda, J. Hasegawa, M. Ishida, T. Nakajima, 
 Y. Honda, O. Kitao, H. Nakai, T. Vreven, J. A. Montgomery, Jr., 
 J. E. Peralta, F. Ogliaro, M. Bearpark, J. J. Heyd, E. Brothers, 
 K. N. Kudin, V. N. Staroverov, T. Keith, R. Kobayashi, J. Normand, 
 K. Raghavachari, A. Rendell, J. C. Burant, S. S. Iyengar, J. Tomasi, 
 M. Cossi, N. Rega, J. M. Millam, M. Klene, J. E. Knox, J. B. Cross, 
 V. Bakken, C. Adamo, J. Jaramillo, R. Gomperts, R. E. Stratmann, 
 O. Yazyev, A. J. Austin, R. Cammi, C. Pomelli, J. W. Ochterski, 
 R. L. Martin, K. Morokuma, V. G. Zakrzewski, G. A. Voth, 
 P. Salvador, J. J. Dannenberg, S. Dapprich, A. D. Daniels, 
 O. Farkas, J. B. Foresman, J. V. Ortiz, J. Cioslowski, 
 and D. J. Fox, Gaussian, Inc., Wallingford CT, 2013.
 
 ******************************************
 Gaussian 09:  ES64L-G09RevE.01 30-Nov-2015
                30-Aug-2022 
 ******************************************
 %nproc=32
 Will use up to   32 processors via shared memory.
 %mem=180GB
 %chk=G4.Frag_652.chk
 -----
 #P G4
 -----
 1/14=-1,18=20,19=15,26=3,38=1/1,3;
 2/9=110,12=2,17=6,18=5,40=1/2;
 3/5=35,7=104,11=2,16=1,25=1,30=1,71=1,74=-5/1,2,3;
 4//1;
 5/5=2,38=5/2;
 6/7=2,8=2,9=2,10=2,28=1/1;
 7//1,2,3,16;
 1/14=-1,18=20,19=15,26=3/3(2);
 2/9=110/2;
 99//99;
 2/9=110/2;
 3/5=35,7=104,11=2,16=1,25=1,30=1,71=1,74=-5/1,2,3;
 4/5=5,16=3,69=1/1;
 5/5=2,38=5/2;
 7//1,2,3,16;
 1/14=-1,18=20,19=15,26=3/3(-5);
 2/9=110/2;
 6/7=2,8=2,9=2,10=2,19=2,28=1/1;
 99/9=1/99;
 Leave Link    1 at Tue Aug 30 09:50:01 2022, MaxMem= 24159191040 cpu:         2.2
 (Enter /public/home/users/caep010/software/Gaussian09/g09/l101.exe)
 --------
 Frag_652
 --------
 Symbolic Z-matrix:
 Charge =  0 Multiplicity = 1
 C                     1.12325   1.2228    0.27479 
 C                     0.33376  -0.03744  -0.11728 
 C                     0.93903  -1.28764   0.54089 
 N                     0.50402  -0.20364  -1.57236 
 C                    -1.13499   0.12266   0.3813 
 N                    -1.49769   0.27853   1.60066 
 N                    -2.09209   0.08986  -0.67201 
 H                     0.71598   2.11491  -0.21365 
 H                     2.16742   1.11357  -0.02984 
 H                     1.08839   1.39721   1.35199 
 H                     0.39051  -2.19413   0.24206 
 H                     1.98324  -1.39625   0.23617 
 H                     0.88594  -1.22596   1.63004 
 H                    -0.03524  -1.05288  -1.88141 
 H                     0.23476   0.61358  -2.05488 
 H                    -0.69203   0.2852    2.18137 
 H                    -1.86113  -0.02982  -1.14269 
 H                    -3.05324   0.18956  -0.10016 
 
 NAtoms=     18 NQM=       18 NQMF=       0 NMMI=      0 NMMIF=      0
                NMic=       0 NMicF=      0.
                    Isotopes and Nuclear Properties:
 (Nuclear quadrupole moments (NQMom) in fm**2, nuclear magnetic moments (NMagM)
  in nuclear magnetons)

  Atom         1           2           3           4           5           6           7           8           9          10
 IAtWgt=          12          12          12          14          12          14          14           1           1           1
 AtmWgt=  12.0000000  12.0000000  12.0000000  14.0030740  12.0000000  14.0030740  14.0030740   1.0078250   1.0078250   1.0078250
 NucSpn=           0           0           0           2           0           2           2           1           1           1
 AtZEff=   0.0000000   0.0000000   0.0000000   0.0000000   0.0000000   0.0000000   0.0000000   0.0000000   0.0000000   0.0000000
 NQMom=    0.0000000   0.0000000   0.0000000   2.0440000   0.0000000   2.0440000   2.0440000   0.0000000   0.0000000   0.0000000
 NMagM=    0.0000000   0.0000000   0.0000000   0.4037610   0.0000000   0.4037610   0.4037610   2.7928460   2.7928460   2.7928460
 AtZNuc=   6.0000000   6.0000000   6.0000000   7.0000000   6.0000000   7.0000000   7.0000000   1.0000000   1.0000000   1.0000000

  Atom        11          12          13          14          15          16          17          18
 IAtWgt=           1           1           1           1           1           1           1           1
 AtmWgt=   1.0078250   1.0078250   1.0078250   1.0078250   1.0078250   1.0078250   1.0078250   1.0078250
 NucSpn=           1           1           1           1           1           1           1           1
 AtZEff=   0.0000000   0.0000000   0.0000000   0.0000000   0.0000000   0.0000000   0.0000000   0.0000000
 NQMom=    0.0000000   0.0000000   0.0000000   0.0000000   0.0000000   0.0000000   0.0000000   0.0000000
 NMagM=    2.7928460   2.7928460   2.7928460   2.7928460   2.7928460   2.7928460   2.7928460   2.7928460
 AtZNuc=   1.0000000   1.0000000   1.0000000   1.0000000   1.0000000   1.0000000   1.0000000   1.0000000
 Leave Link  101 at Tue Aug 30 09:50:02 2022, MaxMem= 24159191040 cpu:        10.0
 (Enter /public/home/users/caep010/software/Gaussian09/g09/l103.exe)

 GradGradGradGradGradGradGradGradGradGradGradGradGradGradGradGradGradGrad
 Berny optimization.
 Initialization pass.
                           ----------------------------
                           !    Initial Parameters    !
                           ! (Angstroms and Degrees)  !
 --------------------------                            --------------------------
 ! Name  Definition              Value          Derivative Info.                !
 --------------------------------------------------------------------------------
 ! R1    R(1,2)                  1.5379         estimate D2E/DX2                !
 ! R2    R(1,8)                  1.0956         estimate D2E/DX2                !
 ! R3    R(1,9)                  1.0932         estimate D2E/DX2                !
 ! R4    R(1,10)                 1.0918         estimate D2E/DX2                !
 ! R5    R(2,3)                  1.5371         estimate D2E/DX2                !
 ! R6    R(2,4)                  1.4744         estimate D2E/DX2                !
 ! R7    R(2,5)                  1.5593         estimate D2E/DX2                !
 ! R8    R(3,11)                 1.1009         estimate D2E/DX2                !
 ! R9    R(3,12)                 1.0932         estimate D2E/DX2                !
 ! R10   R(3,13)                 1.0922         estimate D2E/DX2                !
 ! R11   R(4,14)                 1.0524         estimate D2E/DX2                !
 ! R12   R(4,15)                 0.9865         estimate D2E/DX2                !
 ! R13   R(5,6)                  1.2817         estimate D2E/DX2                !
 ! R14   R(5,7)                  1.4236         estimate D2E/DX2                !
 ! R15   R(6,16)                 0.9932         estimate D2E/DX2                !
 ! R16   R(7,17)                 0.5378         estimate D2E/DX2                !
 ! R17   R(7,18)                 1.1228         estimate D2E/DX2                !
 ! A1    A(2,1,8)              111.2707         estimate D2E/DX2                !
 ! A2    A(2,1,9)              109.7192         estimate D2E/DX2                !
 ! A3    A(2,1,10)             111.4716         estimate D2E/DX2                !
 ! A4    A(8,1,9)              108.1917         estimate D2E/DX2                !
 ! A5    A(8,1,10)             107.333          estimate D2E/DX2                !
 ! A6    A(9,1,10)             108.7477         estimate D2E/DX2                !
 ! A7    A(1,2,3)              110.8059         estimate D2E/DX2                !
 ! A8    A(1,2,4)              106.5398         estimate D2E/DX2                !
 ! A9    A(1,2,5)              108.5349         estimate D2E/DX2                !
 ! A10   A(3,2,4)              106.5845         estimate D2E/DX2                !
 ! A11   A(3,2,5)              108.5129         estimate D2E/DX2                !
 ! A12   A(4,2,5)              115.8422         estimate D2E/DX2                !
 ! A13   A(2,3,11)             110.9356         estimate D2E/DX2                !
 ! A14   A(2,3,12)             109.7308         estimate D2E/DX2                !
 ! A15   A(2,3,13)             111.2185         estimate D2E/DX2                !
 ! A16   A(11,3,12)            108.5705         estimate D2E/DX2                !
 ! A17   A(11,3,13)            107.0363         estimate D2E/DX2                !
 ! A18   A(12,3,13)            109.2702         estimate D2E/DX2                !
 ! A19   A(2,4,14)             108.7604         estimate D2E/DX2                !
 ! A20   A(2,4,15)             110.9665         estimate D2E/DX2                !
 ! A21   A(14,4,15)            112.6431         estimate D2E/DX2                !
 ! A22   A(2,5,6)              125.6782         estimate D2E/DX2                !
 ! A23   A(2,5,7)              113.2243         estimate D2E/DX2                !
 ! A24   A(6,5,7)              121.0964         estimate D2E/DX2                !
 ! A25   A(5,6,16)             109.1198         estimate D2E/DX2                !
 ! A26   A(5,7,17)             111.3441         estimate D2E/DX2                !
 ! A27   A(5,7,18)             101.3401         estimate D2E/DX2                !
 ! A28   A(17,7,18)            146.4227         estimate D2E/DX2                !
 ! D1    D(8,1,2,3)            178.3388         estimate D2E/DX2                !
 ! D2    D(8,1,2,4)             62.7846         estimate D2E/DX2                !
 ! D3    D(8,1,2,5)            -62.6062         estimate D2E/DX2                !
 ! D4    D(9,1,2,3)             58.6409         estimate D2E/DX2                !
 ! D5    D(9,1,2,4)            -56.9133         estimate D2E/DX2                !
 ! D6    D(9,1,2,5)            177.6959         estimate D2E/DX2                !
 ! D7    D(10,1,2,3)           -61.8811         estimate D2E/DX2                !
 ! D8    D(10,1,2,4)          -177.4353         estimate D2E/DX2                !
 ! D9    D(10,1,2,5)            57.1739         estimate D2E/DX2                !
 ! D10   D(1,2,3,11)          -178.6139         estimate D2E/DX2                !
 ! D11   D(1,2,3,12)           -58.6494         estimate D2E/DX2                !
 ! D12   D(1,2,3,13)            62.3716         estimate D2E/DX2                !
 ! D13   D(4,2,3,11)           -63.0875         estimate D2E/DX2                !
 ! D14   D(4,2,3,12)            56.8769         estimate D2E/DX2                !
 ! D15   D(4,2,3,13)           177.898          estimate D2E/DX2                !
 ! D16   D(5,2,3,11)            62.3178         estimate D2E/DX2                !
 ! D17   D(5,2,3,12)          -177.7177         estimate D2E/DX2                !
 ! D18   D(5,2,3,13)           -56.6967         estimate D2E/DX2                !
 ! D19   D(1,2,4,14)          -179.2508         estimate D2E/DX2                !
 ! D20   D(1,2,4,15)           -54.8086         estimate D2E/DX2                !
 ! D21   D(3,2,4,14)            62.3858         estimate D2E/DX2                !
 ! D22   D(3,2,4,15)          -173.172          estimate D2E/DX2                !
 ! D23   D(5,2,4,14)           -58.435          estimate D2E/DX2                !
 ! D24   D(5,2,4,15)            66.0072         estimate D2E/DX2                !
 ! D25   D(1,2,5,6)            -60.2368         estimate D2E/DX2                !
 ! D26   D(1,2,5,7)            119.3672         estimate D2E/DX2                !
 ! D27   D(3,2,5,6)             60.2504         estimate D2E/DX2                !
 ! D28   D(3,2,5,7)           -120.1456         estimate D2E/DX2                !
 ! D29   D(4,2,5,6)           -179.9726         estimate D2E/DX2                !
 ! D30   D(4,2,5,7)             -0.3686         estimate D2E/DX2                !
 ! D31   D(2,5,6,16)             0.2331         estimate D2E/DX2                !
 ! D32   D(7,5,6,16)          -179.342          estimate D2E/DX2                !
 ! D33   D(2,5,7,17)             6.3085         estimate D2E/DX2                !
 ! D34   D(2,5,7,18)           178.476          estimate D2E/DX2                !
 ! D35   D(6,5,7,17)          -174.0672         estimate D2E/DX2                !
 ! D36   D(6,5,7,18)            -1.8997         estimate D2E/DX2                !
 --------------------------------------------------------------------------------
 Trust Radius=3.00D-01 FncErr=1.00D-07 GrdErr=1.00D-06
 Number of steps in this run=     91 maximum allowed number of steps=    108.
 GradGradGradGradGradGradGradGradGradGradGradGradGradGradGradGradGradGrad

 Leave Link  103 at Tue Aug 30 09:50:02 2022, MaxMem= 24159191040 cpu:         0.4
 (Enter /public/home/users/caep010/software/Gaussian09/g09/l202.exe)
                          Input orientation:                          
 ---------------------------------------------------------------------
 Center     Atomic      Atomic             Coordinates (Angstroms)
 Number     Number       Type             X           Y           Z
 ---------------------------------------------------------------------
      1          6           0        1.123245    1.222801    0.274792
      2          6           0        0.333761   -0.037440   -0.117277
      3          6           0        0.939033   -1.287643    0.540889
      4          7           0        0.504020   -0.203636   -1.572356
      5          6           0       -1.134992    0.122662    0.381297
      6          7           0       -1.497685    0.278529    1.600660
      7          7           0       -2.092090    0.089855   -0.672013
      8          1           0        0.715984    2.114913   -0.213648
      9          1           0        2.167417    1.113567   -0.029836
     10          1           0        1.088386    1.397208    1.351992
     11          1           0        0.390512   -2.194134    0.242061
     12          1           0        1.983243   -1.396253    0.236169
     13          1           0        0.885935   -1.225958    1.630039
     14          1           0       -0.035241   -1.052884   -1.881414
     15          1           0        0.234762    0.613576   -2.054877
     16          1           0       -0.692025    0.285202    2.181372
     17          1           0       -1.861128   -0.029819   -1.142690
     18          1           0       -3.053237    0.189555   -0.100162
 ---------------------------------------------------------------------
                    Distance matrix (angstroms):
                    1          2          3          4          5
     1  C    0.000000
     2  C    1.537924   0.000000
     3  C    2.531219   1.537057   0.000000
     4  N    2.414564   1.474403   2.414562   0.000000
     5  C    2.514216   1.559309   2.513167   2.570912   0.000000
     6  N    3.085263   2.530877   3.084413   3.782504   1.281673
     7  N    3.538133   2.491724   3.543492   2.763429   1.423578
     8  H    1.095582   2.188151   3.492344   2.695679   2.783727
     9  H    1.093172   2.166739   2.756894   2.623220   3.472294
    10  H    1.091784   2.187790   2.808669   3.384671   2.740461
    11  H    3.494769   2.187161   1.100863   2.695751   2.777426
    12  H    2.756906   2.166123   1.093172   2.623204   3.471535
    13  H    2.808813   2.184167   1.092187   3.383243   2.731717
    14  H    3.342163   2.068688   2.621426   1.052398   2.776909
    15  H    2.566693   2.046440   3.293726   0.986490   2.837634
    16  H    2.794520   2.537740   2.797387   3.969882   1.860889
    17  H    3.533383   2.422616   3.501066   2.410135   1.695010
    18  H    4.318702   3.394639   4.304797   3.869888   1.978874
                    6          7          8          9         10
     6  N    0.000000
     7  N    2.356684   0.000000
     8  H    3.400640   3.492311   0.000000
     9  H    4.097411   4.427615   1.772890   0.000000
    10  H    2.828611   3.990137   1.762105   1.776009   0.000000
    11  H    3.394870   3.495061   4.345284   3.764599   3.823181
    12  H    4.096778   4.431890   3.759863   2.530588   3.138352
    13  H    2.818863   3.987410   3.819618   3.141776   2.645618
    14  H    4.004528   2.645587   3.657967   3.601882   4.209561
    15  H    4.059135   2.756962   2.423987   2.843578   3.598543
    16  H    0.993156   3.184360   3.326628   3.708374   2.257054
    17  H    2.784446   0.537775   3.479152   4.333007   4.118189
    18  H    2.306611   1.122834   4.234018   5.302261   4.551947
                   11         12         13         14         15
    11  H    0.000000
    12  H    1.781415   0.000000
    13  H    1.763318   1.782122   0.000000
    14  H    2.448033   2.945562   3.634394   0.000000
    15  H    3.630898   3.513615   4.169714   1.697080   0.000000
    16  H    3.328651   3.710548   2.253338   4.327594   4.348858
    17  H    3.416384   4.306690   4.082295   2.219513   2.374615
    18  H    4.202201   5.290939   4.529277   3.718173   3.848590
                   16         17         18
    16  H    0.000000
    17  H    3.537715   0.000000
    18  H    3.284793   1.598785   0.000000
 Stoichiometry    C4H11N3
 Framework group  C1[X(C4H11N3)]
 Deg. of freedom    48
 Full point group                 C1      NOp   1
 Largest Abelian subgroup         C1      NOp   1
 Largest concise Abelian subgroup C1      NOp   1
                         Standard orientation:                         
 ---------------------------------------------------------------------
 Center     Atomic      Atomic             Coordinates (Angstroms)
 Number     Number       Type             X           Y           Z
 ---------------------------------------------------------------------
      1          6           0       -1.159770   -0.607786   -1.260187
      2          6           0       -0.574335    0.048018    0.001716
      3          6           0       -1.150829   -0.599369    1.271003
      4          7           0       -1.033506    1.449094   -0.001847
      5          6           0        0.970917   -0.160837   -0.002533
      6          7           0        1.572255   -1.292684   -0.000899
      7          7           0        1.702397    1.060343   -0.017717
      8          1           0       -0.776082   -0.132400   -2.169632
      9          1           0       -2.248402   -0.508335   -1.256349
     10          1           0       -0.904442   -1.667891   -1.314761
     11          1           0       -0.751859   -0.115098    2.175549
     12          1           0       -2.239461   -0.499893    1.274209
     13          1           0       -0.885355   -1.657113    1.330767
     14          1           0       -0.640482    1.936228    0.844188
     15          1           0       -0.790220    1.898141   -0.845844
     16          1           0        0.896205   -2.020225   -0.000294
     17          1           0        1.376094    1.484619    0.034429
     18          1           0        2.760082    0.684531    0.010980
 ---------------------------------------------------------------------
 Rotational constants (GHZ):      3.2869626      2.3163307      1.9465792
 Leave Link  202 at Tue Aug 30 09:50:02 2022, MaxMem= 24159191040 cpu:         0.8
 (Enter /public/home/users/caep010/software/Gaussian09/g09/l301.exe)
 Standard basis: GTBas3 (6D, 7F)
 Ernie: Thresh=  0.10000D-02 Tol=  0.10000D-05 Strict=F.
 There are   272 symmetry adapted cartesian basis functions of A   symmetry.
 There are   251 symmetry adapted basis functions of A   symmetry.
   251 basis functions,   385 primitive gaussians,   272 cartesian basis functions
    28 alpha electrons       28 beta electrons
       nuclear repulsion energy       332.5509240959 Hartrees.
 IExCor=  402 DFT=T Ex+Corr=B3LYP ExCW=0 ScaHFX=  0.200000
 ScaDFX=  0.800000  0.720000  1.000000  0.810000 ScalE2=  1.000000  1.000000
 IRadAn=      0 IRanWt=     -1 IRanGd=            0 ICorTp=0 IEmpDi=  4
 NAtoms=   18 NActive=   18 NUniq=   18 SFac= 1.00D+00 NAtFMM=   60 NAOKFM=F Big=F
 Integral buffers will be    131072 words long.
 Raffenetti 2 integral format.
 Two-electron integral symmetry is turned on.
 Leave Link  301 at Tue Aug 30 09:50:02 2022, MaxMem= 24159191040 cpu:         1.7
 (Enter /public/home/users/caep010/software/Gaussian09/g09/l302.exe)
 NPDir=0 NMtPBC=     1 NCelOv=     1 NCel=       1 NClECP=     1 NCelD=      1
         NCelK=      1 NCelE2=     1 NClLst=     1 CellRange=     0.0.
 One-electron integrals computed using PRISM.
 NBasis=   251 RedAO= T EigKep=  2.21D-04  NBF=   251
 NBsUse=   251 1.00D-06 EigRej= -1.00D+00 NBFU=   251
 Precomputing XC quadrature grid using
 IXCGrd= 4 IRadAn=           0 IRanWt=          -1 IRanGd=           0 AccXCQ= 0.00D+00.
 Generated NRdTot=       0 NPtTot=           0 NUsed=           0 NTot=          32
 NSgBfM=   272   272   272   272   272 MxSgAt=    18 MxSgA2=    18.
 Leave Link  302 at Tue Aug 30 09:50:02 2022, MaxMem= 24159191040 cpu:        17.5
 (Enter /public/home/users/caep010/software/Gaussian09/g09/l303.exe)
 DipDrv:  MaxL=1.
 Leave Link  303 at Tue Aug 30 09:50:03 2022, MaxMem= 24159191040 cpu:         1.1
 (Enter /public/home/users/caep010/software/Gaussian09/g09/l401.exe)
 ExpMin= 1.61D-01 ExpMax= 4.17D+03 ExpMxC= 6.27D+02 IAcc=1 IRadAn=         1 AccDes= 0.00D+00
 Harris functional with IExCor=  402 and IRadAn=       1 diagonalized for initial guess.
 HarFok:  IExCor=  402 AccDes= 0.00D+00 IRadAn=         1 IDoV= 1 UseB2=F ITyADJ=14
 ICtDFT=  3500011 ScaDFX=  1.000000  1.000000  1.000000  1.000000
 FoFCou: FMM=F IPFlag=           0 FMFlag=      100000 FMFlg1=           0
         NFxFlg=           0 DoJE=T BraDBF=F KetDBF=T FulRan=T
         wScrn=  0.000000 ICntrl=     500 IOpCl=  0 I1Cent=   200000004 NGrid=           0
         NMat0=    1 NMatS0=      1 NMatT0=    0 NMatD0=    1 NMtDS0=    0 NMtDT0=    0
 Petite list used in FoFCou.
 Harris En= -322.807417888073    
 JPrj=0 DoOrth=F DoCkMO=F.
 Leave Link  401 at Tue Aug 30 09:50:03 2022, MaxMem= 24159191040 cpu:        14.6
 (Enter /public/home/users/caep010/software/Gaussian09/g09/l502.exe)
 Closed shell SCF:
 Using DIIS extrapolation, IDIIS=  1040.
 Integral symmetry usage will be decided dynamically.
 Keep R1 ints in memory in canonical form, NReq=510542023.
 IVT=      251200 IEndB=      251200 NGot= 24159191040 MDV= 23658822090
 LenX= 23658822090 LenY= 23658747665
 Requested convergence on RMS density matrix=1.00D-08 within 128 cycles.
 Requested convergence on MAX density matrix=1.00D-06.
 Requested convergence on             energy=1.00D-06.
 No special actions if energy rises.
 FoFCou: FMM=F IPFlag=           0 FMFlag=           0 FMFlg1=           0
         NFxFlg=           0 DoJE=F BraDBF=F KetDBF=F FulRan=T
         wScrn=  0.000000 ICntrl=     600 IOpCl=  0 I1Cent=           0 NGrid=           0
         NMat0=    1 NMatS0=  31626 NMatT0=    0 NMatD0=    1 NMtDS0=    0 NMtDT0=    0
 Symmetry not used in FoFCou.
 Integral accuracy reduced to 1.0D-05 until final iterations.

 Cycle   1  Pass 0  IDiag  1:
 E= -322.229410409617    
 DIIS: error= 3.69D-02 at cycle   1 NSaved=   1.
 NSaved= 1 IEnMin= 1 EnMin= -322.229410409617     IErMin= 1 ErrMin= 3.69D-02
 ErrMax= 3.69D-02  0.00D+00 EMaxC= 1.00D-01 BMatC= 5.03D-01 BMatP= 5.03D-01
 IDIUse=3 WtCom= 6.31D-01 WtEn= 3.69D-01
 Coeff-Com:  0.100D+01
 Coeff-En:   0.100D+01
 Coeff:      0.100D+01
 Gap=     0.213 Goal=   None    Shift=    0.000
 GapD=    0.213 DampG=1.000 DampE=0.500 DampFc=0.5000 IDamp=-1.
 Damping current iteration by 5.00D-01
 RMSDP=5.99D-03 MaxDP=3.31D-01              OVMax= 2.86D-01

 Cycle   2  Pass 0  IDiag  1:
 E= -322.397875201805     Delta-E=       -0.168464792189 Rises=F Damp=T
 DIIS: error= 8.02D-03 at cycle   2 NSaved=   2.
 NSaved= 2 IEnMin= 2 EnMin= -322.397875201805     IErMin= 2 ErrMin= 8.02D-03
 ErrMax= 8.02D-03  0.00D+00 EMaxC= 1.00D-01 BMatC= 2.80D-02 BMatP= 5.03D-01
 IDIUse=3 WtCom= 9.20D-01 WtEn= 8.02D-02
 Coeff-Com:  0.115D+00 0.885D+00
 Coeff-En:   0.219D+00 0.781D+00
 Coeff:      0.124D+00 0.876D+00
 Gap=     0.293 Goal=   None    Shift=    0.000
 RMSDP=1.24D-03 MaxDP=4.45D-02 DE=-1.68D-01 OVMax= 1.90D-01

 Cycle   3  Pass 0  IDiag  1:
 E= -322.640789012477     Delta-E=       -0.242913810672 Rises=F Damp=F
 DIIS: error= 5.55D-03 at cycle   3 NSaved=   3.
 NSaved= 3 IEnMin= 3 EnMin= -322.640789012477     IErMin= 3 ErrMin= 5.55D-03
 ErrMax= 5.55D-03  0.00D+00 EMaxC= 1.00D-01 BMatC= 1.35D-02 BMatP= 2.80D-02
 IDIUse=3 WtCom= 9.45D-01 WtEn= 5.55D-02
 Coeff-Com:  0.204D-01 0.401D+00 0.579D+00
 Coeff-En:   0.000D+00 0.000D+00 0.100D+01
 Coeff:      0.193D-01 0.378D+00 0.602D+00
 Gap=     0.307 Goal=   None    Shift=    0.000
 RMSDP=7.23D-04 MaxDP=2.57D-02 DE=-2.43D-01 OVMax= 4.93D-02

 Cycle   4  Pass 0  IDiag  1:
 E= -322.651037890428     Delta-E=       -0.010248877951 Rises=F Damp=F
 DIIS: error= 2.58D-03 at cycle   4 NSaved=   4.
 NSaved= 4 IEnMin= 4 EnMin= -322.651037890428     IErMin= 4 ErrMin= 2.58D-03
 ErrMax= 2.58D-03  0.00D+00 EMaxC= 1.00D-01 BMatC= 2.97D-03 BMatP= 1.35D-02
 IDIUse=3 WtCom= 9.74D-01 WtEn= 2.58D-02
 Coeff-Com: -0.405D-02 0.916D-01 0.331D+00 0.582D+00
 Coeff-En:   0.000D+00 0.000D+00 0.169D+00 0.831D+00
 Coeff:     -0.395D-02 0.892D-01 0.327D+00 0.588D+00
 Gap=     0.267 Goal=   None    Shift=    0.000
 RMSDP=2.73D-04 MaxDP=1.45D-02 DE=-1.02D-02 OVMax= 2.62D-02

 Cycle   5  Pass 0  IDiag  1:
 E= -322.653414608626     Delta-E=       -0.002376718198 Rises=F Damp=F
 DIIS: error= 8.70D-04 at cycle   5 NSaved=   5.
 NSaved= 5 IEnMin= 5 EnMin= -322.653414608626     IErMin= 5 ErrMin= 8.70D-04
 ErrMax= 8.70D-04  0.00D+00 EMaxC= 1.00D-01 BMatC= 3.90D-04 BMatP= 2.97D-03
 IDIUse=3 WtCom= 9.91D-01 WtEn= 8.70D-03
 Coeff-Com: -0.362D-02 0.236D-01 0.158D+00 0.361D+00 0.461D+00
 Coeff-En:   0.000D+00 0.000D+00 0.000D+00 0.386D-01 0.961D+00
 Coeff:     -0.359D-02 0.233D-01 0.156D+00 0.358D+00 0.466D+00
 Gap=     0.268 Goal=   None    Shift=    0.000
 RMSDP=8.74D-05 MaxDP=5.63D-03 DE=-2.38D-03 OVMax= 1.01D-02

 Cycle   6  Pass 0  IDiag  1:
 E= -322.653724538102     Delta-E=       -0.000309929476 Rises=F Damp=F
 DIIS: error= 2.76D-04 at cycle   6 NSaved=   6.
 NSaved= 6 IEnMin= 6 EnMin= -322.653724538102     IErMin= 6 ErrMin= 2.76D-04
 ErrMax= 2.76D-04  0.00D+00 EMaxC= 1.00D-01 BMatC= 3.61D-05 BMatP= 3.90D-04
 IDIUse=3 WtCom= 9.97D-01 WtEn= 2.76D-03
 Coeff-Com: -0.106D-02 0.758D-03 0.360D-01 0.106D+00 0.276D+00 0.582D+00
 Coeff-En:   0.000D+00 0.000D+00 0.000D+00 0.000D+00 0.875D-01 0.912D+00
 Coeff:     -0.105D-02 0.756D-03 0.359D-01 0.105D+00 0.276D+00 0.583D+00
 Gap=     0.268 Goal=   None    Shift=    0.000
 RMSDP=2.36D-05 MaxDP=1.40D-03 DE=-3.10D-04 OVMax= 2.57D-03

 Cycle   7  Pass 0  IDiag  1:
 E= -322.653757777190     Delta-E=       -0.000033239088 Rises=F Damp=F
 DIIS: error= 6.02D-05 at cycle   7 NSaved=   7.
 NSaved= 7 IEnMin= 7 EnMin= -322.653757777190     IErMin= 7 ErrMin= 6.02D-05
 ErrMax= 6.02D-05  0.00D+00 EMaxC= 1.00D-01 BMatC= 1.27D-06 BMatP= 3.61D-05
 IDIUse=1 WtCom= 1.00D+00 WtEn= 0.00D+00
 Coeff-Com: -0.187D-03-0.969D-03 0.837D-02 0.302D-01 0.108D+00 0.270D+00
 Coeff-Com:  0.585D+00
 Coeff:     -0.187D-03-0.969D-03 0.837D-02 0.302D-01 0.108D+00 0.270D+00
 Coeff:      0.585D+00
 Gap=     0.268 Goal=   None    Shift=    0.000
 RMSDP=5.67D-06 MaxDP=3.67D-04 DE=-3.32D-05 OVMax= 2.29D-04

 Initial convergence to 1.0D-05 achieved.  Increase integral accuracy.
 Cycle   8  Pass 1  IDiag  1:
 E= -322.653686362439     Delta-E=        0.000071414751 Rises=F Damp=F
 DIIS: error= 1.85D-05 at cycle   1 NSaved=   1.
 NSaved= 1 IEnMin= 1 EnMin= -322.653686362439     IErMin= 1 ErrMin= 1.85D-05
 ErrMax= 1.85D-05  0.00D+00 EMaxC= 1.00D-01 BMatC= 1.61D-07 BMatP= 1.61D-07
 IDIUse=1 WtCom= 1.00D+00 WtEn= 0.00D+00
 Coeff-Com:  0.100D+01
 Coeff:      0.100D+01
 Gap=     0.268 Goal=   None    Shift=    0.000
 RMSDP=5.67D-06 MaxDP=3.67D-04 DE= 7.14D-05 OVMax= 1.39D-04

 Cycle   9  Pass 1  IDiag  1:
 E= -322.653686365773     Delta-E=       -0.000000003334 Rises=F Damp=F
 DIIS: error= 2.05D-05 at cycle   2 NSaved=   2.
 NSaved= 2 IEnMin= 2 EnMin= -322.653686365773     IErMin= 1 ErrMin= 1.85D-05
 ErrMax= 2.05D-05  0.00D+00 EMaxC= 1.00D-01 BMatC= 1.50D-07 BMatP= 1.61D-07
 IDIUse=1 WtCom= 1.00D+00 WtEn= 0.00D+00
 Coeff-Com:  0.490D+00 0.510D+00
 Coeff:      0.490D+00 0.510D+00
 Gap=     0.268 Goal=   None    Shift=    0.000
 RMSDP=2.09D-06 MaxDP=1.30D-04 DE=-3.33D-09 OVMax= 8.38D-05

 Cycle  10  Pass 1  IDiag  1:
 E= -322.653686500734     Delta-E=       -0.000000134961 Rises=F Damp=F
 DIIS: error= 5.77D-06 at cycle   3 NSaved=   3.
 NSaved= 3 IEnMin= 3 EnMin= -322.653686500734     IErMin= 3 ErrMin= 5.77D-06
 ErrMax= 5.77D-06  0.00D+00 EMaxC= 1.00D-01 BMatC= 1.01D-08 BMatP= 1.50D-07
 IDIUse=1 WtCom= 1.00D+00 WtEn= 0.00D+00
 Coeff-Com:  0.332D-01 0.205D+00 0.762D+00
 Coeff:      0.332D-01 0.205D+00 0.762D+00
 Gap=     0.268 Goal=   None    Shift=    0.000
 RMSDP=5.80D-07 MaxDP=3.18D-05 DE=-1.35D-07 OVMax= 5.29D-05

 Cycle  11  Pass 1  IDiag  1:
 E= -322.653686506484     Delta-E=       -0.000000005749 Rises=F Damp=F
 DIIS: error= 3.14D-06 at cycle   4 NSaved=   4.
 NSaved= 4 IEnMin= 4 EnMin= -322.653686506484     IErMin= 4 ErrMin= 3.14D-06
 ErrMax= 3.14D-06  0.00D+00 EMaxC= 1.00D-01 BMatC= 4.28D-09 BMatP= 1.01D-08
 IDIUse=1 WtCom= 1.00D+00 WtEn= 0.00D+00
 Coeff-Com: -0.106D-01 0.106D+00 0.517D+00 0.388D+00
 Coeff:     -0.106D-01 0.106D+00 0.517D+00 0.388D+00
 Gap=     0.268 Goal=   None    Shift=    0.000
 RMSDP=2.43D-07 MaxDP=1.67D-05 DE=-5.75D-09 OVMax= 2.85D-05

 Cycle  12  Pass 1  IDiag  1:
 E= -322.653686510241     Delta-E=       -0.000000003757 Rises=F Damp=F
 DIIS: error= 4.06D-07 at cycle   5 NSaved=   5.
 NSaved= 5 IEnMin= 5 EnMin= -322.653686510241     IErMin= 5 ErrMin= 4.06D-07
 ErrMax= 4.06D-07  0.00D+00 EMaxC= 1.00D-01 BMatC= 6.88D-11 BMatP= 4.28D-09
 IDIUse=1 WtCom= 1.00D+00 WtEn= 0.00D+00
 Coeff-Com: -0.663D-02 0.346D-01 0.186D+00 0.176D+00 0.610D+00
 Coeff:     -0.663D-02 0.346D-01 0.186D+00 0.176D+00 0.610D+00
 Gap=     0.268 Goal=   None    Shift=    0.000
 RMSDP=4.41D-08 MaxDP=1.85D-06 DE=-3.76D-09 OVMax= 3.74D-06

 Cycle  13  Pass 1  IDiag  1:
 E= -322.653686510287     Delta-E=       -0.000000000046 Rises=F Damp=F
 DIIS: error= 1.52D-07 at cycle   6 NSaved=   6.
 NSaved= 6 IEnMin= 6 EnMin= -322.653686510287     IErMin= 6 ErrMin= 1.52D-07
 ErrMax= 1.52D-07  0.00D+00 EMaxC= 1.00D-01 BMatC= 8.05D-12 BMatP= 6.88D-11
 IDIUse=1 WtCom= 1.00D+00 WtEn= 0.00D+00
 Coeff-Com: -0.295D-02 0.107D-01 0.618D-01 0.638D-01 0.324D+00 0.543D+00
 Coeff:     -0.295D-02 0.107D-01 0.618D-01 0.638D-01 0.324D+00 0.543D+00
 Gap=     0.268 Goal=   None    Shift=    0.000
 RMSDP=1.32D-08 MaxDP=5.54D-07 DE=-4.60D-11 OVMax= 6.55D-07

 Cycle  14  Pass 1  IDiag  1:
 E= -322.653686510285     Delta-E=        0.000000000002 Rises=F Damp=F
 DIIS: error= 2.69D-08 at cycle   7 NSaved=   7.
 NSaved= 7 IEnMin= 6 EnMin= -322.653686510287     IErMin= 7 ErrMin= 2.69D-08
 ErrMax= 2.69D-08  0.00D+00 EMaxC= 1.00D-01 BMatC= 4.37D-13 BMatP= 8.05D-12
 IDIUse=1 WtCom= 1.00D+00 WtEn= 0.00D+00
 Coeff-Com: -0.216D-03-0.880D-04 0.948D-03 0.160D-02 0.563D-01 0.215D+00
 Coeff-Com:  0.726D+00
 Coeff:     -0.216D-03-0.880D-04 0.948D-03 0.160D-02 0.563D-01 0.215D+00
 Coeff:      0.726D+00
 Gap=     0.268 Goal=   None    Shift=    0.000
 RMSDP=3.13D-09 MaxDP=2.41D-07 DE= 1.93D-12 OVMax= 2.59D-07

 SCF Done:  E(RB3LYP) =  -322.653686510     A.U. after   14 cycles
            NFock= 14  Conv=0.31D-08     -V/T= 2.0010
 KE= 3.223438888245D+02 PE=-1.416393761658D+03 EE= 4.388452622268D+02
 Leave Link  502 at Tue Aug 30 09:50:19 2022, MaxMem= 24159191040 cpu:       139.2
 (Enter /public/home/users/caep010/software/Gaussian09/g09/l601.exe)
 Copying SCF densities to generalized density rwf, IOpCl= 0 IROHF=0.

 **********************************************************************

            Population analysis using the SCF density.

 **********************************************************************

 Orbital symmetries:
       Occupied  (A) (A) (A) (A) (A) (A) (A) (A) (A) (A) (A) (A)
                 (A) (A) (A) (A) (A) (A) (A) (A) (A) (A) (A) (A)
                 (A) (A) (A) (A)
       Virtual   (A) (A) (A) (A) (A) (A) (A) (A) (A) (A) (A) (A)
                 (A) (A) (A) (A) (A) (A) (A) (A) (A) (A) (A) (A)
                 (A) (A) (A) (A) (A) (A) (A) (A) (A) (A) (A) (A)
                 (A) (A) (A) (A) (A) (A) (A) (A) (A) (A) (A) (A)
                 (A) (A) (A) (A) (A) (A) (A) (A) (A) (A) (A) (A)
                 (A) (A) (A) (A) (A) (A) (A) (A) (A) (A) (A) (A)
                 (A) (A) (A) (A) (A) (A) (A) (A) (A) (A) (A) (A)
                 (A) (A) (A) (A) (A) (A) (A) (A) (A) (A) (A) (A)
                 (A) (A) (A) (A) (A) (A) (A) (A) (A) (A) (A) (A)
                 (A) (A) (A) (A) (A) (A) (A) (A) (A) (A) (A) (A)
                 (A) (A) (A) (A) (A) (A) (A) (A) (A) (A) (A) (A)
                 (A) (A) (A) (A) (A) (A) (A) (A) (A) (A) (A) (A)
                 (A) (A) (A) (A) (A) (A) (A) (A) (A) (A) (A) (A)
                 (A) (A) (A) (A) (A) (A) (A) (A) (A) (A) (A) (A)
                 (A) (A) (A) (A) (A) (A) (A) (A) (A) (A) (A) (A)
                 (A) (A) (A) (A) (A) (A) (A) (A) (A) (A) (A) (A)
                 (A) (A) (A) (A) (A) (A) (A) (A) (A) (A) (A) (A)
                 (A) (A) (A) (A) (A) (A) (A) (A) (A) (A) (A) (A)
                 (A) (A) (A) (A) (A) (A) (A)
 The electronic state is 1-A.
 Alpha  occ. eigenvalues --  -14.32798 -14.31818 -14.28152 -10.24501 -10.23041
 Alpha  occ. eigenvalues --  -10.17936 -10.17852  -0.99453  -0.89560  -0.87252
 Alpha  occ. eigenvalues --   -0.75388  -0.69398  -0.64386  -0.60292  -0.52472
 Alpha  occ. eigenvalues --   -0.49822  -0.47667  -0.45237  -0.42953  -0.40836
 Alpha  occ. eigenvalues --   -0.38494  -0.37079  -0.35815  -0.34863  -0.33166
 Alpha  occ. eigenvalues --   -0.28404  -0.23615  -0.23051
 Alpha virt. eigenvalues --    0.03748   0.06067   0.08293   0.10710   0.12918
 Alpha virt. eigenvalues --    0.13339   0.15033   0.15895   0.19096   0.20211
 Alpha virt. eigenvalues --    0.20617   0.21245   0.21575   0.24207   0.24931
 Alpha virt. eigenvalues --    0.27233   0.34413   0.38612   0.45935   0.47329
 Alpha virt. eigenvalues --    0.47739   0.51003   0.51727   0.52025   0.53353
 Alpha virt. eigenvalues --    0.55149   0.57832   0.58442   0.60246   0.61412
 Alpha virt. eigenvalues --    0.62374   0.65925   0.68565   0.69317   0.71186
 Alpha virt. eigenvalues --    0.71573   0.72360   0.72779   0.74503   0.74929
 Alpha virt. eigenvalues --    0.75213   0.79405   0.79819   0.82037   0.84190
 Alpha virt. eigenvalues --    0.85232   0.85968   0.86922   0.89590   0.90092
 Alpha virt. eigenvalues --    0.93751   0.94749   0.97135   0.99308   1.03488
 Alpha virt. eigenvalues --    1.07052   1.13591   1.13973   1.17399   1.17933
 Alpha virt. eigenvalues --    1.26074   1.29310   1.33285   1.36523   1.37085
 Alpha virt. eigenvalues --    1.38151   1.40016   1.43170   1.43656   1.45452
 Alpha virt. eigenvalues --    1.47750   1.49879   1.55607   1.56049   1.57913
 Alpha virt. eigenvalues --    1.61533   1.66700   1.67313   1.70796   1.75248
 Alpha virt. eigenvalues --    1.76550   1.80560   1.82645   1.84446   1.87255
 Alpha virt. eigenvalues --    1.88413   1.94769   1.95379   1.99846   2.03351
 Alpha virt. eigenvalues --    2.04915   2.05815   2.15830   2.23247   2.29000
 Alpha virt. eigenvalues --    2.30802   2.31871   2.33606   2.35646   2.38703
 Alpha virt. eigenvalues --    2.42758   2.45501   2.49471   2.50072   2.54610
 Alpha virt. eigenvalues --    2.63630   2.63884   2.68312   2.73872   2.79233
 Alpha virt. eigenvalues --    2.79775   2.82294   2.84984   2.86256   2.88668
 Alpha virt. eigenvalues --    2.89891   2.90919   2.92486   2.95032   2.97354
 Alpha virt. eigenvalues --    2.98802   3.00280   3.02998   3.03404   3.05310
 Alpha virt. eigenvalues --    3.07828   3.12969   3.14238   3.16775   3.17897
 Alpha virt. eigenvalues --    3.20696   3.24543   3.28935   3.39178   3.40613
 Alpha virt. eigenvalues --    3.45768   3.48204   3.55318   3.57830   3.60336
 Alpha virt. eigenvalues --    3.61584   3.64425   3.66807   3.71938   3.72564
 Alpha virt. eigenvalues --    3.74804   3.77904   3.79297   3.84232   3.88602
 Alpha virt. eigenvalues --    3.91320   3.92782   3.93454   3.97493   3.98815
 Alpha virt. eigenvalues --    4.03243   4.05866   4.11679   4.13126   4.14391
 Alpha virt. eigenvalues --    4.16436   4.18689   4.22294   4.27145   4.30620
 Alpha virt. eigenvalues --    4.32766   4.35068   4.36291   4.38926   4.41244
 Alpha virt. eigenvalues --    4.42329   4.43546   4.47512   4.50892   4.53034
 Alpha virt. eigenvalues --    4.54103   4.54628   4.55765   4.57354   4.61174
 Alpha virt. eigenvalues --    4.61496   4.63827   4.64807   4.65357   4.70422
 Alpha virt. eigenvalues --    4.72926   4.77194   4.78907   4.82192   4.84827
 Alpha virt. eigenvalues --    4.87811   4.88577   4.90056   4.93164   4.94212
 Alpha virt. eigenvalues --    4.96267   5.00074   5.04425   5.06985   5.09930
 Alpha virt. eigenvalues --    5.15443   5.34285   5.39620   5.47619   5.48103
 Alpha virt. eigenvalues --    5.49799   5.58272   5.62957   5.69585   5.85987
 Alpha virt. eigenvalues --    5.89714   6.13858   7.37604  10.36390  10.98278
 Alpha virt. eigenvalues --   11.26988  11.37998  11.52464  11.93368  12.03040
 Alpha virt. eigenvalues --   13.17731  14.18584  18.19911
          Condensed to atoms (all electrons):
               1          2          3          4          5          6
     1  C    5.030447   0.382669  -0.038151  -0.039758  -0.038358  -0.008074
     2  C    0.382669   4.683380   0.378986   0.333097   0.408333  -0.075480
     3  C   -0.038151   0.378986   5.033961  -0.042886  -0.040886  -0.007126
     4  N   -0.039758   0.333097  -0.042886   6.626545  -0.044425   0.006553
     5  C   -0.038358   0.408333  -0.040886  -0.044425   4.667098   0.621191
     6  N   -0.008074  -0.075480  -0.007126   0.006553   0.621191   6.594567
     7  N   -0.000342  -0.034948  -0.000662  -0.027520   0.420304  -0.025148
     8  H    0.367307  -0.021279   0.005029  -0.003621  -0.003356   0.000526
     9  H    0.364661  -0.018503  -0.006414   0.000884   0.004006   0.000144
    10  H    0.368379  -0.023268  -0.004220   0.003752  -0.002337   0.003313
    11  H    0.005028  -0.021358   0.366128  -0.003782  -0.003137   0.000516
    12  H   -0.006005  -0.017559   0.364018   0.001080   0.003920   0.000146
    13  H   -0.004298  -0.023452   0.365931   0.003848  -0.001484   0.003166
    14  H    0.007235  -0.042739  -0.004072   0.330937  -0.004590   0.000030
    15  H   -0.004781  -0.043921   0.007623   0.342420  -0.003024   0.000006
    16  H    0.001060  -0.011708   0.001006   0.000559  -0.111671   0.373772
    17  H    0.000657  -0.031139   0.001126   0.047075  -0.071273   0.018345
    18  H   -0.000167   0.006060  -0.000217  -0.000383  -0.012543   0.005657
               7          8          9         10         11         12
     1  C   -0.000342   0.367307   0.364661   0.368379   0.005028  -0.006005
     2  C   -0.034948  -0.021279  -0.018503  -0.023268  -0.021358  -0.017559
     3  C   -0.000662   0.005029  -0.006414  -0.004220   0.366128   0.364018
     4  N   -0.027520  -0.003621   0.000884   0.003752  -0.003782   0.001080
     5  C    0.420304  -0.003356   0.004006  -0.002337  -0.003137   0.003920
     6  N   -0.025148   0.000526   0.000144   0.003313   0.000516   0.000146
     7  N    6.277003   0.000635  -0.000100   0.000100   0.000632  -0.000097
     8  H    0.000635   0.593660  -0.031923  -0.029628  -0.000197  -0.000071
     9  H   -0.000100  -0.031923   0.587546  -0.027932  -0.000066   0.003794
    10  H    0.000100  -0.029628  -0.027932   0.588087  -0.000036   0.000014
    11  H    0.000632  -0.000197  -0.000066  -0.000036   0.598342  -0.030877
    12  H   -0.000097  -0.000071   0.003794   0.000014  -0.030877   0.585750
    13  H    0.000099  -0.000041   0.000071   0.002047  -0.030007  -0.027640
    14  H   -0.000942  -0.000045  -0.000105  -0.000246   0.005209  -0.000456
    15  H    0.000269   0.005385  -0.000464  -0.000310  -0.000070  -0.000121
    16  H    0.007023   0.000111  -0.000256   0.004836   0.000114  -0.000252
    17  H    0.277682   0.000026  -0.000070  -0.000069  -0.000073  -0.000082
    18  H    0.320293  -0.000041   0.000006  -0.000012  -0.000039   0.000006
              13         14         15         16         17         18
     1  C   -0.004298   0.007235  -0.004781   0.001060   0.000657  -0.000167
     2  C   -0.023452  -0.042739  -0.043921  -0.011708  -0.031139   0.006060
     3  C    0.365931  -0.004072   0.007623   0.001006   0.001126  -0.000217
     4  N    0.003848   0.330937   0.342420   0.000559   0.047075  -0.000383
     5  C   -0.001484  -0.004590  -0.003024  -0.111671  -0.071273  -0.012543
     6  N    0.003166   0.000030   0.000006   0.373772   0.018345   0.005657
     7  N    0.000099  -0.000942   0.000269   0.007023   0.277682   0.320293
     8  H   -0.000041  -0.000045   0.005385   0.000111   0.000026  -0.000041
     9  H    0.000071  -0.000105  -0.000464  -0.000256  -0.000070   0.000006
    10  H    0.002047  -0.000246  -0.000310   0.004836  -0.000069  -0.000012
    11  H   -0.030007   0.005209  -0.000070   0.000114  -0.000073  -0.000039
    12  H   -0.027640  -0.000456  -0.000121  -0.000252  -0.000082   0.000006
    13  H    0.592431  -0.000297  -0.000260   0.004686  -0.000100  -0.000014
    14  H   -0.000297   0.501543  -0.029349   0.000021   0.007002  -0.000032
    15  H   -0.000260  -0.029349   0.487041   0.000013   0.005677  -0.000044
    16  H    0.004686   0.000021   0.000013   0.520131  -0.000403  -0.001354
    17  H   -0.000100   0.007002   0.005677  -0.000403   0.829501  -0.032208
    18  H   -0.000014  -0.000032  -0.000044  -0.001354  -0.032208   0.411281
 Mulliken charges:
               1
     1  C   -0.387510
     2  C    0.172829
     3  C   -0.379174
     4  N   -0.534374
     5  C    0.212230
     6  N   -0.512104
     7  N   -0.214282
     8  H    0.117523
     9  H    0.124721
    10  H    0.117528
    11  H    0.113673
    12  H    0.124431
    13  H    0.115313
    14  H    0.230895
    15  H    0.233910
    16  H    0.212313
    17  H   -0.051673
    18  H    0.303751
 Sum of Mulliken charges =  -0.00000
 Mulliken charges with hydrogens summed into heavy atoms:
               1
     1  C   -0.027737
     2  C    0.172829
     3  C   -0.025758
     4  N   -0.069569
     5  C    0.212230
     6  N   -0.299791
     7  N    0.037796
 Electronic spatial extent (au):  <R**2>=            772.3517
 Charge=             -0.0000 electrons
 Dipole moment (field-independent basis, Debye):
    X=             -0.6431    Y=              1.4146    Z=              0.0498  Tot=              1.5547
 Quadrupole moment (field-independent basis, Debye-Ang):
   XX=            -47.3810   YY=            -41.9854   ZZ=            -43.1823
   XY=              6.1501   XZ=              0.5944   YZ=              0.1585
 Traceless Quadrupole moment (field-independent basis, Debye-Ang):
   XX=             -3.1981   YY=              2.1975   ZZ=              1.0006
   XY=              6.1501   XZ=              0.5944   YZ=              0.1585
 Octapole moment (field-independent basis, Debye-Ang**2):
  XXX=             13.6990  YYY=              8.6378  ZZZ=             -0.2396  XYY=             -1.3454
  XXY=              9.0513  XXZ=             -0.0276  XZZ=             -1.5447  YZZ=              5.5911
  YYZ=              0.1184  XYZ=              0.9319
 Hexadecapole moment (field-independent basis, Debye-Ang**3):
 XXXX=           -440.2768 YYYY=           -273.5926 ZZZZ=           -218.3826 XXXY=             43.6147
 XXXZ=              1.7267 YYYX=              8.8120 YYYZ=              0.3631 ZZZX=              0.9013
 ZZZY=              0.0593 XXYY=           -152.9969 XXZZ=           -121.1636 YYZZ=            -83.6852
 XXYZ=             -0.1243 YYXZ=              1.7765 ZZXY=             -2.5162
 N-N= 3.325509240959D+02 E-N=-1.416393764259D+03  KE= 3.223438888245D+02
 No NMR shielding tensors so no spin-rotation constants.
 Leave Link  601 at Tue Aug 30 09:50:20 2022, MaxMem= 24159191040 cpu:        13.2
 (Enter /public/home/users/caep010/software/Gaussian09/g09/l701.exe)
 Compute integral first derivatives.
 ... and contract with generalized density number  0.
 Leave Link  701 at Tue Aug 30 09:50:20 2022, MaxMem= 24159191040 cpu:        18.1
 (Enter /public/home/users/caep010/software/Gaussian09/g09/l702.exe)
 L702 exits ... SP integral derivatives will be done elsewhere.
 Leave Link  702 at Tue Aug 30 09:50:20 2022, MaxMem= 24159191040 cpu:         0.5
 (Enter /public/home/users/caep010/software/Gaussian09/g09/l703.exe)
 Compute integral first derivatives, UseDBF=F ICtDFT=           0.
 Integral derivatives from FoFJK, PRISM(SPDF).
 Calling FoFJK, ICntrl=      2127 FMM=F ISym2X=0 I1Cent= 0 IOpClX= 0 NMat=1 NMatS=1 NMatT=0.
 FoFJK:  IHMeth= 1 ICntrl=    2127 DoSepK=F KAlg= 0 I1Cent=   0 FoldK=F
 IRaf=         0 NMat=   1 IRICut=       1 DoRegI=T DoRafI=F ISym2E= 0.
 FoFCou: FMM=F IPFlag=           0 FMFlag=      100000 FMFlg1=         800
         NFxFlg=           0 DoJE=F BraDBF=F KetDBF=F FulRan=T
         wScrn=  0.000000 ICntrl=    2127 IOpCl=  0 I1Cent=           0 NGrid=           0
         NMat0=    1 NMatS0=      1 NMatT0=    0 NMatD0=    1 NMtDS0=    0 NMtDT0=    0
 Symmetry not used in FoFCou.
 Leave Link  703 at Tue Aug 30 09:50:23 2022, MaxMem= 24159191040 cpu:        73.5
 (Enter /public/home/users/caep010/software/Gaussian09/g09/l716.exe)
 Dipole        =-2.53023290D-01 5.56532692D-01 1.96014351D-02
 ***** Axes restored to original set *****
 -------------------------------------------------------------------
 Center     Atomic                   Forces (Hartrees/Bohr)
 Number     Number              X              Y              Z
 -------------------------------------------------------------------
      1        6           0.001214938    0.000282252    0.001264664
      2        6           0.001981162    0.001283109    0.000451614
      3        6          -0.001566446   -0.002334354    0.001258751
      4        7          -0.007736983   -0.045305233    0.015692775
      5        6          -0.010791051    0.000873960   -0.024513107
      6        7          -0.017982224   -0.001601432   -0.025040072
      7        7          -1.090584103    0.582636356    2.360013918
      8        1          -0.000702518   -0.000477021   -0.000342763
      9        1           0.000178247   -0.000202172   -0.000093038
     10        1           0.000245196    0.000194244    0.000535453
     11        1           0.001796291    0.002761994    0.000065784
     12        1          -0.000333354   -0.000240273    0.000156217
     13        1           0.000865330   -0.000381548    0.000552437
     14        1           0.013350493    0.026831717    0.001132713
     15        1          -0.012116701    0.017077492   -0.016388120
     16        1           0.015456736    0.000775420    0.016138090
     17        1           1.048917494   -0.570510999   -2.263503832
     18        1           0.057807491   -0.011663511   -0.067381485
 -------------------------------------------------------------------
 Cartesian Forces:  Max     2.360013918 RMS     0.502988310
 Leave Link  716 at Tue Aug 30 09:50:23 2022, MaxMem= 24159191040 cpu:         0.7
 (Enter /public/home/users/caep010/software/Gaussian09/g09/l103.exe)

 GradGradGradGradGradGradGradGradGradGradGradGradGradGradGradGradGradGrad
 Berny optimization.
 FormGI is forming the generalized inverse of G from B-inverse, IUseBI=4.
 Internal  Forces:  Max     2.558525428 RMS     0.284566987
 Search for a local minimum.
 Step number   1 out of a maximum of   91
 All quantities printed in internal units (Hartrees-Bohrs-Radians)
 RMS Force = .28457D+00 SwitMx=.10000D-02 MixMth= 1
 Mixed Optimization -- RFO/linear search
 Second derivative matrix not updated -- first step.
 ITU=  0
     Eigenvalues ---    0.00230   0.00264   0.00276   0.00708   0.01164
     Eigenvalues ---    0.01380   0.01632   0.03257   0.03883   0.05244
     Eigenvalues ---    0.05418   0.05447   0.05489   0.05556   0.05572
     Eigenvalues ---    0.05935   0.15086   0.16000   0.16000   0.16000
     Eigenvalues ---    0.16000   0.16000   0.16000   0.16000   0.16000
     Eigenvalues ---    0.16000   0.16000   0.16000   0.16041   0.24999
     Eigenvalues ---    0.25000   0.26875   0.28704   0.28781   0.31278
     Eigenvalues ---    0.33587   0.34175   0.34449   0.34449   0.34561
     Eigenvalues ---    0.34607   0.35218   0.39546   0.41926   0.48912
     Eigenvalues ---    0.50145   0.72551   5.91642
 RFO step:  Lambda=-9.62091016D-01 EMin= 2.30000000D-03
 Linear search not attempted -- first point.
 Maximum step size (   0.300) exceeded in Quadratic search.
    -- Step size scaled by   0.784
 Iteration  1 RMS(Cart)=  0.02040397 RMS(Int)=  0.01015449
 Iteration  2 RMS(Cart)=  0.00946029 RMS(Int)=  0.00005349
 Iteration  3 RMS(Cart)=  0.00004781 RMS(Int)=  0.00000469
 Iteration  4 RMS(Cart)=  0.00000001 RMS(Int)=  0.00000469
 ITry= 1 IFail=0 DXMaxC= 2.13D-01 DCOld= 1.00D+10 DXMaxT= 3.00D-01 DXLimC= 3.00D+00 Rises=F
 Variable       Old X    -DE/DX   Delta X   Delta X   Delta X     New X
                                 (Linear)    (Quad)   (Total)
    R1        2.90626   0.00066   0.00000   0.00041   0.00041   2.90667
    R2        2.07035   0.00003   0.00000   0.00002   0.00002   2.07037
    R3        2.06580   0.00022   0.00000   0.00013   0.00013   2.06593
    R4        2.06317   0.00055   0.00000   0.00033   0.00033   2.06350
    R5        2.90462   0.00133   0.00000   0.00083   0.00083   2.90545
    R6        2.78622  -0.00103   0.00000  -0.00061  -0.00061   2.78561
    R7        2.94667  -0.00397   0.00000  -0.00253  -0.00253   2.94414
    R8        2.08033  -0.00319   0.00000  -0.00192  -0.00192   2.07841
    R9        2.06580  -0.00034   0.00000  -0.00020  -0.00020   2.06559
   R10        2.06393   0.00049   0.00000   0.00029   0.00029   2.06423
   R11        1.98874  -0.02882   0.00000  -0.01664  -0.01664   1.97211
   R12        1.86420   0.02547   0.00000   0.01364   0.01364   1.87783
   R13        2.42201  -0.00785   0.00000  -0.00365  -0.00365   2.41837
   R14        2.69017  -0.03243   0.00000  -0.01839  -0.01839   2.67178
   R15        1.87679   0.02199   0.00000   0.01187   0.01187   1.88866
   R16        1.01625   2.55853   0.00000   0.29145   0.29145   1.30770
   R17        2.12185  -0.08483   0.00000  -0.05214  -0.05214   2.06971
    A1        1.94204  -0.00137   0.00000  -0.00096  -0.00096   1.94108
    A2        1.91496  -0.00012   0.00000  -0.00008  -0.00008   1.91488
    A3        1.94555   0.00064   0.00000   0.00045   0.00045   1.94600
    A4        1.88830   0.00062   0.00000   0.00042   0.00042   1.88873
    A5        1.87332   0.00038   0.00000   0.00026   0.00026   1.87358
    A6        1.89801  -0.00011   0.00000  -0.00007  -0.00007   1.89794
    A7        1.93393  -0.00203   0.00000  -0.00135  -0.00135   1.93258
    A8        1.85947   0.00168   0.00000   0.00119   0.00119   1.86066
    A9        1.89429   0.00111   0.00000   0.00077   0.00077   1.89507
   A10        1.86025   0.00150   0.00000   0.00107   0.00107   1.86132
   A11        1.89391   0.00157   0.00000   0.00110   0.00110   1.89501
   A12        2.02183  -0.00395   0.00000  -0.00287  -0.00287   2.01895
   A13        1.93619  -0.00080   0.00000  -0.00056  -0.00056   1.93563
   A14        1.91516   0.00010   0.00000   0.00006   0.00006   1.91522
   A15        1.94113   0.00131   0.00000   0.00093   0.00093   1.94206
   A16        1.89491  -0.00013   0.00000  -0.00012  -0.00012   1.89479
   A17        1.86814   0.00018   0.00000   0.00015   0.00015   1.86829
   A18        1.90712  -0.00069   0.00000  -0.00048  -0.00048   1.90664
   A19        1.89823   0.00937   0.00000   0.00650   0.00649   1.90472
   A20        1.93673   0.00298   0.00000   0.00204   0.00203   1.93876
   A21        1.96599  -0.00840   0.00000  -0.00595  -0.00596   1.96003
   A22        2.19350   0.00781   0.00000   0.00505   0.00505   2.19855
   A23        1.97614   0.00406   0.00000   0.00262   0.00262   1.97876
   A24        2.11353  -0.01187   0.00000  -0.00768  -0.00768   2.10586
   A25        1.90450   0.00769   0.00000   0.00537   0.00537   1.90987
   A26        1.94332   0.01837   0.00000   0.01285   0.01283   1.95615
   A27        1.76872   0.02252   0.00000   0.01576   0.01573   1.78445
   A28        2.55556  -0.03897   0.00000  -0.02718  -0.02721   2.52835
    D1        3.11260   0.00009   0.00000   0.00007   0.00007   3.11267
    D2        1.09580  -0.00160   0.00000  -0.00118  -0.00118   1.09462
    D3       -1.09268   0.00149   0.00000   0.00110   0.00110  -1.09158
    D4        1.02348   0.00027   0.00000   0.00021   0.00021   1.02369
    D5       -0.99332  -0.00142   0.00000  -0.00104  -0.00104  -0.99437
    D6        3.10138   0.00167   0.00000   0.00124   0.00124   3.10262
    D7       -1.08003   0.00007   0.00000   0.00006   0.00006  -1.07997
    D8       -3.09683  -0.00162   0.00000  -0.00120  -0.00120  -3.09803
    D9        0.99787   0.00147   0.00000   0.00109   0.00109   0.99896
   D10       -3.11740   0.00017   0.00000   0.00014   0.00014  -3.11726
   D11       -1.02363  -0.00044   0.00000  -0.00033  -0.00033  -1.02396
   D12        1.08859  -0.00039   0.00000  -0.00029  -0.00029   1.08830
   D13       -1.10109   0.00197   0.00000   0.00146   0.00146  -1.09962
   D14        0.99269   0.00136   0.00000   0.00099   0.00099   0.99368
   D15        3.10491   0.00141   0.00000   0.00103   0.00103   3.10594
   D16        1.08765  -0.00096   0.00000  -0.00069  -0.00069   1.08696
   D17       -3.10176  -0.00157   0.00000  -0.00116  -0.00116  -3.10292
   D18       -0.98954  -0.00152   0.00000  -0.00112  -0.00112  -0.99067
   D19       -3.12852   0.00021   0.00000   0.00023   0.00023  -3.12829
   D20       -0.95659  -0.00187   0.00000  -0.00140  -0.00140  -0.95799
   D21        1.08884   0.00097   0.00000   0.00066   0.00066   1.08950
   D22       -3.02242  -0.00111   0.00000  -0.00097  -0.00097  -3.02339
   D23       -1.01988   0.00037   0.00000   0.00028   0.00028  -1.01960
   D24        1.15204  -0.00171   0.00000  -0.00135  -0.00135   1.15070
   D25       -1.05133   0.00011   0.00000  -0.00001  -0.00001  -1.05134
   D26        2.08335   0.00004   0.00000  -0.00005  -0.00005   2.08330
   D27        1.05157  -0.00077   0.00000  -0.00054  -0.00054   1.05103
   D28       -2.09694  -0.00083   0.00000  -0.00058  -0.00058  -2.09752
   D29       -3.14111  -0.00028   0.00000  -0.00022  -0.00023  -3.14134
   D30       -0.00643  -0.00034   0.00000  -0.00027  -0.00027  -0.00670
   D31        0.00407   0.00010   0.00000   0.00008   0.00008   0.00414
   D32       -3.13011   0.00010   0.00000   0.00008   0.00008  -3.13003
   D33        0.11010  -0.00216   0.00000  -0.00173  -0.00173   0.10837
   D34        3.11499   0.00129   0.00000   0.00103   0.00104   3.11603
   D35       -3.03805  -0.00214   0.00000  -0.00172  -0.00172  -3.03977
   D36       -0.03316   0.00131   0.00000   0.00104   0.00105  -0.03211
         Item               Value     Threshold  Converged?
 Maximum Force            2.558525     0.000450     NO 
 RMS     Force            0.284567     0.000300     NO 
 Maximum Displacement     0.212605     0.001800     NO 
 RMS     Displacement     0.029436     0.001200     NO 
 Predicted change in Energy=-5.018169D-01
 Lowest energy point so far.  Saving SCF results.
 GradGradGradGradGradGradGradGradGradGradGradGradGradGradGradGradGradGrad

 Leave Link  103 at Tue Aug 30 09:50:23 2022, MaxMem= 24159191040 cpu:         2.1
 (Enter /public/home/users/caep010/software/Gaussian09/g09/l202.exe)
                          Input orientation:                          
 ---------------------------------------------------------------------
 Center     Atomic      Atomic             Coordinates (Angstroms)
 Number     Number       Type             X           Y           Z
 ---------------------------------------------------------------------
      1          6           0        1.122709    1.221996    0.276452
      2          6           0        0.328298   -0.036841   -0.111009
      3          6           0        0.937465   -1.287632    0.543464
      4          7           0        0.485961   -0.202944   -1.567190
      5          6           0       -1.136178    0.124954    0.395351
      6          7           0       -1.497508    0.281056    1.613061
      7          7           0       -2.095307    0.094370   -0.642962
      8          1           0        0.712920    2.114504   -0.209160
      9          1           0        2.164609    1.111123   -0.035523
     10          1           0        1.095748    1.396268    1.354076
     11          1           0        0.386506   -2.192673    0.248497
     12          1           0        1.979270   -1.397239    0.231343
     13          1           0        0.892661   -1.226400    1.633166
     14          1           0       -0.050925   -1.042966   -1.875746
     15          1           0        0.211190    0.619451   -2.052596
     16          1           0       -0.689535    0.287972    2.201286
     17          1           0       -1.811098   -0.058158   -1.255196
     18          1           0       -3.036887    0.193258   -0.092319
 ---------------------------------------------------------------------
                    Distance matrix (angstroms):
                    1          2          3          4          5
     1  C    0.000000
     2  C    1.538143   0.000000
     3  C    2.530582   1.537497   0.000000
     4  N    2.415557   1.474080   2.415629   0.000000
     5  C    2.514002   1.557970   2.513431   2.567181   0.000000
     6  N    3.088272   2.531214   3.087704   3.779207   1.279744
     7  N    3.531641   2.484764   3.537689   2.757814   1.413845
     8  H    1.095590   2.187659   3.491618   2.695612   2.782608
     9  H    1.093242   2.166923   2.755928   2.625002   3.471798
    10  H    1.091958   2.188436   2.808108   3.385722   2.741694
    11  H    3.493242   2.186377   1.099845   2.695484   2.776964
    12  H    2.756106   2.166471   1.093065   2.625078   3.471309
    13  H    2.808601   2.185339   1.092341   3.384546   2.733960
    14  H    3.337577   2.066493   2.624757   1.043595   2.774832
    15  H    2.572624   2.052850   3.302116   0.993706   2.837671
    16  H    2.803857   2.547194   2.806784   3.977965   1.867476
    17  H    3.548516   2.426239   3.507332   2.322668   1.792582
    18  H    4.300759   3.373095   4.288674   3.839619   1.963462
                    6          7          8          9         10
     6  N    0.000000
     7  N    2.341337   0.000000
     8  H    3.401178   3.486440   0.000000
     9  H    4.100968   4.421499   1.773224   0.000000
    10  H    2.834739   3.983206   1.762421   1.776164   0.000000
    11  H    3.395715   3.490653   4.343705   3.762630   3.821757
    12  H    4.100464   4.426227   3.758993   2.529318   3.137646
    13  H    2.825905   3.981602   3.819439   3.141081   2.645283
    14  H    4.002176   2.644387   3.651107   3.596542   4.206717
    15  H    4.058473   2.753671   2.425938   2.850644   3.604345
    16  H    0.999438   3.178589   3.333669   3.718472   2.265683
    17  H    2.905220   0.692004   3.490748   4.319846   4.168142
    18  H    2.299069   1.095244   4.214961   5.282165   4.540701
                   11         12         13         14         15
    11  H    0.000000
    12  H    1.780423   0.000000
    13  H    1.762721   1.781857   0.000000
    14  H    2.454706   2.947376   3.638196   0.000000
    15  H    3.637830   3.522716   4.178087   1.692220   0.000000
    16  H    3.335393   3.720636   2.262616   4.336059   4.360814
    17  H    3.412727   4.286004   4.125256   2.110246   2.276983
    18  H    4.186698   5.272217   4.520407   3.691182   3.817634
                   16         17         18
    16  H    0.000000
    17  H    3.650339   0.000000
    18  H    3.283239   1.708230   0.000000
 Stoichiometry    C4H11N3
 Framework group  C1[X(C4H11N3)]
 Deg. of freedom    48
 Full point group                 C1      NOp   1
 RotChk:  IX=0 Diff= 9.68D-03
 Largest Abelian subgroup         C1      NOp   1
 Largest concise Abelian subgroup C1      NOp   1
                         Standard orientation:                         
 ---------------------------------------------------------------------
 Center     Atomic      Atomic             Coordinates (Angstroms)
 Number     Number       Type             X           Y           Z
 ---------------------------------------------------------------------
      1          6           0       -1.158447   -0.610203   -1.260146
      2          6           0       -0.572506    0.045540    0.001820
      3          6           0       -1.150034   -0.603330    1.270413
      4          7           0       -1.029110    1.447116   -0.000929
      5          6           0        0.971651   -0.161415   -0.002576
      6          7           0        1.579038   -1.287836   -0.001411
      7          7           0        1.699960    1.050322   -0.017304
      8          1           0       -0.774319   -0.134183   -2.169084
      9          1           0       -2.247115   -0.510388   -1.256030
     10          1           0       -0.903513   -1.670552   -1.315266
     11          1           0       -0.751714   -0.120054    2.174539
     12          1           0       -2.238524   -0.503470    1.273264
     13          1           0       -0.885438   -1.661468    1.329940
     14          1           0       -0.641380    1.934808    0.836276
     15          1           0       -0.783032    1.901564   -0.849677
     16          1           0        0.907204   -2.027778   -0.001106
     17          1           0        1.287840    1.602324    0.048429
     18          1           0        2.736793    0.698420    0.009162
 ---------------------------------------------------------------------
 Rotational constants (GHZ):      3.2879908      2.3207611      1.9495259
 Leave Link  202 at Tue Aug 30 09:50:23 2022, MaxMem= 24159191040 cpu:         0.2
 (Enter /public/home/users/caep010/software/Gaussian09/g09/l301.exe)
 Standard basis: GTBas3 (6D, 7F)
 Ernie: Thresh=  0.10000D-02 Tol=  0.10000D-05 Strict=F.
 There are   272 symmetry adapted cartesian basis functions of A   symmetry.
 There are   251 symmetry adapted basis functions of A   symmetry.
   251 basis functions,   385 primitive gaussians,   272 cartesian basis functions
    28 alpha electrons       28 beta electrons
       nuclear repulsion energy       331.2556599242 Hartrees.
 IExCor=  402 DFT=T Ex+Corr=B3LYP ExCW=0 ScaHFX=  0.200000
 ScaDFX=  0.800000  0.720000  1.000000  0.810000 ScalE2=  1.000000  1.000000
 IRadAn=      0 IRanWt=     -1 IRanGd=            0 ICorTp=0 IEmpDi=  4
 NAtoms=   18 NActive=   18 NUniq=   18 SFac= 1.00D+00 NAtFMM=   60 NAOKFM=F Big=F
 Integral buffers will be    131072 words long.
 Raffenetti 2 integral format.
 Two-electron integral symmetry is turned on.
 Leave Link  301 at Tue Aug 30 09:50:23 2022, MaxMem= 24159191040 cpu:         1.9
 (Enter /public/home/users/caep010/software/Gaussian09/g09/l302.exe)
 NPDir=0 NMtPBC=     1 NCelOv=     1 NCel=       1 NClECP=     1 NCelD=      1
         NCelK=      1 NCelE2=     1 NClLst=     1 CellRange=     0.0.
 One-electron integrals computed using PRISM.
 NBasis=   251 RedAO= T EigKep=  2.26D-04  NBF=   251
 NBsUse=   251 1.00D-06 EigRej= -1.00D+00 NBFU=   251
 Precomputing XC quadrature grid using
 IXCGrd= 4 IRadAn=           0 IRanWt=          -1 IRanGd=           0 AccXCQ= 0.00D+00.
 Generated NRdTot=       0 NPtTot=           0 NUsed=           0 NTot=          32
 NSgBfM=   272   272   272   272   272 MxSgAt=    18 MxSgA2=    18.
 Leave Link  302 at Tue Aug 30 09:50:24 2022, MaxMem= 24159191040 cpu:        16.4
 (Enter /public/home/users/caep010/software/Gaussian09/g09/l303.exe)
 DipDrv:  MaxL=1.
 Leave Link  303 at Tue Aug 30 09:50:24 2022, MaxMem= 24159191040 cpu:         0.8
 (Enter /public/home/users/caep010/software/Gaussian09/g09/l401.exe)
 Initial guess from the checkpoint file:  "G4.Frag_652.chk"
 B after Tr=    -0.000000   -0.000000    0.000000
         Rot=    0.999999   -0.000219    0.000152   -0.001371 Ang=  -0.16 deg.
 Guess basis will be translated and rotated to current coordinates.
 JPrj=2 DoOrth=T DoCkMO=T.
 Generating alternative initial guess.
 ExpMin= 1.61D-01 ExpMax= 4.17D+03 ExpMxC= 6.27D+02 IAcc=1 IRadAn=         1 AccDes= 0.00D+00
 Harris functional with IExCor=  402 and IRadAn=       1 diagonalized for initial guess.
 HarFok:  IExCor=  402 AccDes= 0.00D+00 IRadAn=         1 IDoV= 1 UseB2=F ITyADJ=14
 ICtDFT=  3500011 ScaDFX=  1.000000  1.000000  1.000000  1.000000
 FoFCou: FMM=F IPFlag=           0 FMFlag=      100000 FMFlg1=           0
         NFxFlg=           0 DoJE=T BraDBF=F KetDBF=T FulRan=T
         wScrn=  0.000000 ICntrl=     500 IOpCl=  0 I1Cent=   200000004 NGrid=           0
         NMat0=    1 NMatS0=      1 NMatT0=    0 NMatD0=    1 NMtDS0=    0 NMtDT0=    0
 Petite list used in FoFCou.
 Harris En= -323.201818156343    
 Leave Link  401 at Tue Aug 30 09:50:24 2022, MaxMem= 24159191040 cpu:        17.1
 (Enter /public/home/users/caep010/software/Gaussian09/g09/l502.exe)
 Closed shell SCF:
 Using DIIS extrapolation, IDIIS=  1040.
 Integral symmetry usage will be decided dynamically.
 Keep R1 ints in memory in canonical form, NReq=510542023.
 IVT=      251200 IEndB=      251200 NGot= 24159191040 MDV= 23658822090
 LenX= 23658822090 LenY= 23658747665
 Requested convergence on RMS density matrix=1.00D-08 within 128 cycles.
 Requested convergence on MAX density matrix=1.00D-06.
 Requested convergence on             energy=1.00D-06.
 No special actions if energy rises.
 FoFCou: FMM=F IPFlag=           0 FMFlag=           0 FMFlg1=           0
         NFxFlg=           0 DoJE=F BraDBF=F KetDBF=F FulRan=T
         wScrn=  0.000000 ICntrl=     600 IOpCl=  0 I1Cent=           0 NGrid=           0
         NMat0=    1 NMatS0=  31626 NMatT0=    0 NMatD0=    1 NMtDS0=    0 NMtDT0=    0
 Symmetry not used in FoFCou.
 Integral accuracy reduced to 1.0D-05 until final iterations.

 Cycle   1  Pass 0  IDiag  1:
 E= -323.103351481214    
 DIIS: error= 1.09D-02 at cycle   1 NSaved=   1.
 NSaved= 1 IEnMin= 1 EnMin= -323.103351481214     IErMin= 1 ErrMin= 1.09D-02
 ErrMax= 1.09D-02  0.00D+00 EMaxC= 1.00D-01 BMatC= 3.62D-02 BMatP= 3.62D-02
 IDIUse=3 WtCom= 8.91D-01 WtEn= 1.09D-01
 Coeff-Com:  0.100D+01
 Coeff-En:   0.100D+01
 Coeff:      0.100D+01
 Recover alternate guess density for next cycle.
 RMSDP=2.90D-03 MaxDP=1.49D-01              OVMax= 0.00D+00

 Cycle   2  Pass 0  IDiag  1:
 E= -322.792657117326     Delta-E=        0.310694363887 Rises=F Damp=F
 Switch densities from cycles 1 and 2 for lowest energy.
 DIIS: error= 2.71D-02 at cycle   2 NSaved=   2.
 NSaved= 2 IEnMin= 1 EnMin= -323.103351481214     IErMin= 1 ErrMin= 1.09D-02
 ErrMax= 2.71D-02  0.00D+00 EMaxC= 1.00D+00 BMatC= 3.69D-01 BMatP= 3.62D-02
 IDIUse=1 WtCom= 1.00D+00 WtEn= 0.00D+00
 Coeff-Com:  0.975D+00 0.250D-01
 Coeff:      0.975D+00 0.250D-01
 Gap=     0.277 Goal=   None    Shift=    0.000
 RMSDP=1.59D-03 MaxDP=1.12D-01 DE= 3.11D-01 OVMax= 1.02D-01

 Cycle   3  Pass 0  IDiag  1:
 E= -323.113952505335     Delta-E=       -0.321295388009 Rises=F Damp=F
 DIIS: error= 4.80D-03 at cycle   3 NSaved=   3.
 NSaved= 3 IEnMin= 3 EnMin= -323.113952505335     IErMin= 3 ErrMin= 4.80D-03
 ErrMax= 4.80D-03  0.00D+00 EMaxC= 1.00D+00 BMatC= 9.09D-03 BMatP= 3.62D-02
 IDIUse=1 WtCom= 1.00D+00 WtEn= 0.00D+00
 Coeff-Com:  0.198D+00 0.617D-01 0.740D+00
 Coeff:      0.198D+00 0.617D-01 0.740D+00
 Gap=     0.282 Goal=   None    Shift=    0.000
 RMSDP=5.03D-04 MaxDP=4.30D-02 DE=-3.21D-01 OVMax= 5.08D-02

 Cycle   4  Pass 0  IDiag  1:
 E= -323.115944949063     Delta-E=       -0.001992443728 Rises=F Damp=F
 DIIS: error= 3.71D-03 at cycle   4 NSaved=   4.
 NSaved= 4 IEnMin= 4 EnMin= -323.115944949063     IErMin= 4 ErrMin= 3.71D-03
 ErrMax= 3.71D-03  0.00D+00 EMaxC= 1.00D+00 BMatC= 6.18D-03 BMatP= 9.09D-03
 IDIUse=1 WtCom= 1.00D+00 WtEn= 0.00D+00
 Coeff-Com:  0.297D-01 0.429D-01 0.480D+00 0.447D+00
 Coeff:      0.297D-01 0.429D-01 0.480D+00 0.447D+00
 Gap=     0.271 Goal=   None    Shift=    0.000
 RMSDP=3.28D-04 MaxDP=1.85D-02 DE=-1.99D-03 OVMax= 3.48D-02

 Cycle   5  Pass 0  IDiag  1:
 E= -323.121268718738     Delta-E=       -0.005323769676 Rises=F Damp=F
 DIIS: error= 6.04D-04 at cycle   5 NSaved=   5.
 NSaved= 5 IEnMin= 5 EnMin= -323.121268718738     IErMin= 5 ErrMin= 6.04D-04
 ErrMax= 6.04D-04  0.00D+00 EMaxC= 1.00D+00 BMatC= 2.11D-04 BMatP= 6.18D-03
 IDIUse=1 WtCom= 1.00D+00 WtEn= 0.00D+00
 Coeff-Com:  0.674D-02 0.183D-01 0.222D+00 0.239D+00 0.513D+00
 Coeff:      0.674D-02 0.183D-01 0.222D+00 0.239D+00 0.513D+00
 Gap=     0.271 Goal=   None    Shift=    0.000
 RMSDP=7.52D-05 MaxDP=4.77D-03 DE=-5.32D-03 OVMax= 6.64D-03

 Cycle   6  Pass 0  IDiag  1:
 E= -323.121423629766     Delta-E=       -0.000154911028 Rises=F Damp=F
 DIIS: error= 2.36D-04 at cycle   6 NSaved=   6.
 NSaved= 6 IEnMin= 6 EnMin= -323.121423629766     IErMin= 6 ErrMin= 2.36D-04
 ErrMax= 2.36D-04  0.00D+00 EMaxC= 1.00D+00 BMatC= 3.41D-05 BMatP= 2.11D-04
 IDIUse=1 WtCom= 1.00D+00 WtEn= 0.00D+00
 Coeff-Com: -0.142D-02 0.348D-02 0.488D-01 0.633D-01 0.310D+00 0.576D+00
 Coeff:     -0.142D-02 0.348D-02 0.488D-01 0.633D-01 0.310D+00 0.576D+00
 Gap=     0.271 Goal=   None    Shift=    0.000
 RMSDP=2.28D-05 MaxDP=1.15D-03 DE=-1.55D-04 OVMax= 1.59D-03

 Cycle   7  Pass 0  IDiag  1:
 E= -323.121453504125     Delta-E=       -0.000029874359 Rises=F Damp=F
 DIIS: error= 4.77D-05 at cycle   7 NSaved=   7.
 NSaved= 7 IEnMin= 7 EnMin= -323.121453504125     IErMin= 7 ErrMin= 4.77D-05
 ErrMax= 4.77D-05  0.00D+00 EMaxC= 1.00D+00 BMatC= 5.82D-07 BMatP= 3.41D-05
 IDIUse=1 WtCom= 1.00D+00 WtEn= 0.00D+00
 Coeff-Com: -0.506D-03 0.378D-03 0.896D-02 0.137D-01 0.953D-01 0.222D+00
 Coeff-Com:  0.660D+00
 Coeff:     -0.506D-03 0.378D-03 0.896D-02 0.137D-01 0.953D-01 0.222D+00
 Coeff:      0.660D+00
 Gap=     0.271 Goal=   None    Shift=    0.000
 RMSDP=3.80D-06 MaxDP=1.61D-04 DE=-2.99D-05 OVMax= 1.72D-04

 Initial convergence to 1.0D-05 achieved.  Increase integral accuracy.
 Cycle   8  Pass 1  IDiag  1:
 E= -323.121418756894     Delta-E=        0.000034747232 Rises=F Damp=F
 DIIS: error= 1.18D-05 at cycle   1 NSaved=   1.
 NSaved= 1 IEnMin= 1 EnMin= -323.121418756894     IErMin= 1 ErrMin= 1.18D-05
 ErrMax= 1.18D-05  0.00D+00 EMaxC= 1.00D+00 BMatC= 1.31D-07 BMatP= 1.31D-07
 IDIUse=1 WtCom= 1.00D+00 WtEn= 0.00D+00
 Coeff-Com:  0.100D+01
 Coeff:      0.100D+01
 Gap=     0.271 Goal=   None    Shift=    0.000
 RMSDP=3.80D-06 MaxDP=1.61D-04 DE= 3.47D-05 OVMax= 1.35D-04

 Cycle   9  Pass 1  IDiag  1:
 E= -323.121418765605     Delta-E=       -0.000000008712 Rises=F Damp=F
 DIIS: error= 2.15D-05 at cycle   2 NSaved=   2.
 NSaved= 2 IEnMin= 2 EnMin= -323.121418765605     IErMin= 1 ErrMin= 1.18D-05
 ErrMax= 2.15D-05  0.00D+00 EMaxC= 1.00D+00 BMatC= 1.25D-07 BMatP= 1.31D-07
 IDIUse=1 WtCom= 1.00D+00 WtEn= 0.00D+00
 Coeff-Com:  0.492D+00 0.508D+00
 Coeff:      0.492D+00 0.508D+00
 Gap=     0.271 Goal=   None    Shift=    0.000
 RMSDP=1.73D-06 MaxDP=1.05D-04 DE=-8.71D-09 OVMax= 7.77D-05

 Cycle  10  Pass 1  IDiag  1:
 E= -323.121418874688     Delta-E=       -0.000000109082 Rises=F Damp=F
 DIIS: error= 4.61D-06 at cycle   3 NSaved=   3.
 NSaved= 3 IEnMin= 3 EnMin= -323.121418874688     IErMin= 3 ErrMin= 4.61D-06
 ErrMax= 4.61D-06  0.00D+00 EMaxC= 1.00D+00 BMatC= 6.25D-09 BMatP= 1.25D-07
 IDIUse=1 WtCom= 1.00D+00 WtEn= 0.00D+00
 Coeff-Com:  0.209D-01 0.179D+00 0.800D+00
 Coeff:      0.209D-01 0.179D+00 0.800D+00
 Gap=     0.271 Goal=   None    Shift=    0.000
 RMSDP=4.45D-07 MaxDP=2.45D-05 DE=-1.09D-07 OVMax= 2.57D-05

 Cycle  11  Pass 1  IDiag  1:
 E= -323.121418878204     Delta-E=       -0.000000003516 Rises=F Damp=F
 DIIS: error= 2.35D-06 at cycle   4 NSaved=   4.
 NSaved= 4 IEnMin= 4 EnMin= -323.121418878204     IErMin= 4 ErrMin= 2.35D-06
 ErrMax= 2.35D-06  0.00D+00 EMaxC= 1.00D+00 BMatC= 2.59D-09 BMatP= 6.25D-09
 IDIUse=1 WtCom= 1.00D+00 WtEn= 0.00D+00
 Coeff-Com: -0.131D-01 0.893D-01 0.523D+00 0.401D+00
 Coeff:     -0.131D-01 0.893D-01 0.523D+00 0.401D+00
 Gap=     0.271 Goal=   None    Shift=    0.000
 RMSDP=2.09D-07 MaxDP=1.38D-05 DE=-3.52D-09 OVMax= 1.91D-05

 Cycle  12  Pass 1  IDiag  1:
 E= -323.121418880411     Delta-E=       -0.000000002208 Rises=F Damp=F
 DIIS: error= 3.51D-07 at cycle   5 NSaved=   5.
 NSaved= 5 IEnMin= 5 EnMin= -323.121418880411     IErMin= 5 ErrMin= 3.51D-07
 ErrMax= 3.51D-07  0.00D+00 EMaxC= 1.00D+00 BMatC= 6.70D-11 BMatP= 2.59D-09
 IDIUse=1 WtCom= 1.00D+00 WtEn= 0.00D+00
 Coeff-Com: -0.834D-02 0.399D-01 0.247D+00 0.222D+00 0.499D+00
 Coeff:     -0.834D-02 0.399D-01 0.247D+00 0.222D+00 0.499D+00
 Gap=     0.271 Goal=   None    Shift=    0.000
 RMSDP=3.61D-08 MaxDP=2.14D-06 DE=-2.21D-09 OVMax= 3.73D-06

 Cycle  13  Pass 1  IDiag  1:
 E= -323.121418880462     Delta-E=       -0.000000000050 Rises=F Damp=F
 DIIS: error= 1.11D-07 at cycle   6 NSaved=   6.
 NSaved= 6 IEnMin= 6 EnMin= -323.121418880462     IErMin= 6 ErrMin= 1.11D-07
 ErrMax= 1.11D-07  0.00D+00 EMaxC= 1.00D+00 BMatC= 6.05D-12 BMatP= 6.70D-11
 IDIUse=1 WtCom= 1.00D+00 WtEn= 0.00D+00
 Coeff-Com: -0.247D-02 0.911D-02 0.602D-01 0.658D-01 0.266D+00 0.601D+00
 Coeff:     -0.247D-02 0.911D-02 0.602D-01 0.658D-01 0.266D+00 0.601D+00
 Gap=     0.271 Goal=   None    Shift=    0.000
 RMSDP=1.01D-08 MaxDP=7.46D-07 DE=-5.02D-11 OVMax= 1.04D-06

 Cycle  14  Pass 1  IDiag  1:
 E= -323.121418880455     Delta-E=        0.000000000006 Rises=F Damp=F
 DIIS: error= 2.85D-08 at cycle   7 NSaved=   7.
 NSaved= 7 IEnMin= 6 EnMin= -323.121418880462     IErMin= 7 ErrMin= 2.85D-08
 ErrMax= 2.85D-08  0.00D+00 EMaxC= 1.00D+00 BMatC= 2.78D-13 BMatP= 6.05D-12
 IDIUse=1 WtCom= 1.00D+00 WtEn= 0.00D+00
 Coeff-Com: -0.304D-03 0.306D-03 0.343D-02 0.759D-02 0.498D-01 0.234D+00
 Coeff-Com:  0.705D+00
 Coeff:     -0.304D-03 0.306D-03 0.343D-02 0.759D-02 0.498D-01 0.234D+00
 Coeff:      0.705D+00
 Gap=     0.271 Goal=   None    Shift=    0.000
 RMSDP=2.50D-09 MaxDP=8.08D-08 DE= 6.25D-12 OVMax= 1.49D-07

 SCF Done:  E(RB3LYP) =  -323.121418880     A.U. after   14 cycles
            NFock= 14  Conv=0.25D-08     -V/T= 2.0050
 KE= 3.215095621290D+02 PE=-1.414147745463D+03 EE= 4.382611045293D+02
 Leave Link  502 at Tue Aug 30 09:50:40 2022, MaxMem= 24159191040 cpu:       144.0
 (Enter /public/home/users/caep010/software/Gaussian09/g09/l701.exe)
 Compute integral first derivatives.
 ... and contract with generalized density number  0.
 Leave Link  701 at Tue Aug 30 09:50:41 2022, MaxMem= 24159191040 cpu:        15.7
 (Enter /public/home/users/caep010/software/Gaussian09/g09/l702.exe)
 L702 exits ... SP integral derivatives will be done elsewhere.
 Leave Link  702 at Tue Aug 30 09:50:41 2022, MaxMem= 24159191040 cpu:         0.5
 (Enter /public/home/users/caep010/software/Gaussian09/g09/l703.exe)
 Compute integral first derivatives, UseDBF=F ICtDFT=           0.
 Integral derivatives from FoFJK, PRISM(SPDF).
 Calling FoFJK, ICntrl=      2127 FMM=F ISym2X=0 I1Cent= 0 IOpClX= 0 NMat=1 NMatS=1 NMatT=0.
 FoFJK:  IHMeth= 1 ICntrl=    2127 DoSepK=F KAlg= 0 I1Cent=   0 FoldK=F
 IRaf=         0 NMat=   1 IRICut=       1 DoRegI=T DoRafI=F ISym2E= 0.
 FoFCou: FMM=F IPFlag=           0 FMFlag=      100000 FMFlg1=         800
         NFxFlg=           0 DoJE=F BraDBF=F KetDBF=F FulRan=T
         wScrn=  0.000000 ICntrl=    2127 IOpCl=  0 I1Cent=           0 NGrid=           0
         NMat0=    1 NMatS0=      1 NMatT0=    0 NMatD0=    1 NMtDS0=    0 NMtDT0=    0
 Symmetry not used in FoFCou.
 Leave Link  703 at Tue Aug 30 09:50:43 2022, MaxMem= 24159191040 cpu:        72.3
 (Enter /public/home/users/caep010/software/Gaussian09/g09/l716.exe)
 Dipole        =-3.02196423D-01 6.34806114D-01 1.98095497D-02
 ***** Axes restored to original set *****
 -------------------------------------------------------------------
 Center     Atomic                   Forces (Hartrees/Bohr)
 Number     Number              X              Y              Z
 -------------------------------------------------------------------
      1        6           0.001222576    0.000201520    0.000996461
      2        6           0.002841167    0.001352603    0.001662315
      3        6          -0.001365915   -0.001904103    0.001103638
      4        7          -0.006327234   -0.034492821    0.012597152
      5        6          -0.007221332    0.000273770   -0.022798010
      6        7          -0.012699887   -0.001017876   -0.016420112
      7        7          -0.355154507    0.204974076    0.873311836
      8        1          -0.000636013   -0.000404163   -0.000300185
      9        1           0.000168460   -0.000118313   -0.000081440
     10        1           0.000116513    0.000055397    0.000344649
     11        1           0.001491193    0.002191682   -0.000061364
     12        1          -0.000212109   -0.000270958    0.000146300
     13        1           0.000729944   -0.000205925    0.000334126
     14        1           0.011127168    0.021183110   -0.000075154
     15        1          -0.009388856    0.011680108   -0.012501883
[...]
 214898,1.1257296271,-0.0481613871\H,0,1.0958953327,1.4159620507,1.3490
 65031\H,0,0.414525179,-2.1860360961,0.3042804957\H,0,1.9969191491,-1.3
 853493032,0.2373571817\H,0,0.9539885135,-1.1960924854,1.6616301556\H,0
 ,0.0424682209,-1.0865060275,-1.8622346954\H,0,0.0654865604,0.548788694
 2,-2.0599731069\H,0,-0.6826498674,0.1123330352,2.2641862974\H,0,-1.931
 2518726,-0.1185123463,-1.4489552417\H,0,-3.0239385663,0.3093608951,-0.
 216618823\\Version=ES64L-G09RevE.01\State=1-A\MP2/GTBas1=-322.2182783\
 MP4/GTBas1=-322.3148041\CCSD(T)/G3Bas1=-322.314863\MP2/GTBas2=-322.245
 2609\MP4/GTBas2=-322.3430868\MP2/GTBas3=-322.493508\MP4/GTBas3=-322.60
 59208\HF/GTLargeXP=-321.3304064\MP2/GTLargeXP=-322.9583763\HF/GFHFB1=-
 321.3549779\HF/GFHFB2=-321.3602585\G4=-323.0914854\FreqCoord=2.1214480
 347,2.3266838844,0.5152218528,0.6328242289,-0.0772025769,-0.1796180096
 ,1.8185536753,-2.4109440043,1.0819320235,0.8983958082,-0.4237461693,-2
 .9217571568,-2.1227138508,0.2592572586,0.7874209024,-2.8058578332,0.35
 82044451,3.1039214319,-3.922350821,0.6347787499,-1.0639742593,1.312408
 1357,3.9824939705,-0.4266189584,4.0863843997,2.1273206949,-0.091011831
 8,2.0709420492,2.6757804905,2.5493634441,0.7833390636,-4.1310095381,0.
 5750068044,3.7736303012,-2.6179307814,0.4485400691,1.8027770245,-2.260
 287227,3.1400259283,0.0802533068,-2.0531988336,-3.5191135695,0.1237516
 645,1.0370603368,-3.8927850131,-1.2900212941,0.2122786722,4.2786920159
 ,-3.6495371328,-0.2239558779,-2.7381285856,-5.7144157329,0.584607368,-
 0.4093502506\PG=C01 [X(C4H11N3)]\NImag=0\\0.54294964,-0.05516434,0.487
 35148,-0.01925117,-0.01797746,0.57867603,-0.09975883,-0.03554132,-0.00
 668940,0.44319289,-0.04545920,-0.13544313,-0.00851372,-0.00477059,0.48
 041982,-0.01309534,-0.01813635,-0.07529192,0.02141491,-0.00723729,0.48
 825499,0.00805498,-0.01293286,0.00779360,-0.09101158,0.03622269,-0.018
 11699,0.55566781,0.00867512,-0.03331212,0.01312044,0.03118007,-0.13772
 561,0.03580760,0.03990117,0.49229866,0.00409949,-0.00465966,0.00452829
 ,-0.01295709,0.02567572,-0.08926357,-0.02513618,0.03748302,0.56826954,
 0.00167531,-0.00484768,-0.01797841,-0.06007245,-0.00104459,-0.01652856
 ,0.00134931,0.00019910,-0.01522053,0.23070224,-0.00106806,-0.00981994,
 -0.03906657,0.00412329,-0.09919017,-0.01053014,0.00007704,0.00041993,0
 .03527577,0.02058326,0.70729201,-0.00288214,-0.00922628,-0.02314098,0.
 03106552,-0.01220455,-0.18794417,-0.00234226,0.00338067,-0.03350145,0.
 13885827,-0.02688323,0.50041302,-0.02725600,-0.00938480,0.00115440,-0.
 13347964,0.00514564,0.01424745,-0.02034499,0.01008514,-0.00235110,-0.0
 0126510,0.00040655,0.00359880,0.57131940,-0.02787660,0.00332330,0.0069
 1288,0.00667863,-0.08316953,-0.00086527,0.02832639,-0.00462918,-0.0060
 2437,0.00436357,0.00038578,-0.00352889,-0.05055616,0.21716192,-0.00282
 984,0.00489734,0.00595265,0.00043334,-0.00121382,-0.08173631,-0.010574
 20,-0.00190631,0.00786851,0.02795919,-0.00572739,-0.02832780,-0.020829
 15,0.01377982,0.88264358,-0.00072447,0.00169037,0.00120264,0.00110427,
 0.00269818,0.02692479,-0.00091847,-0.00113733,0.00145852,-0.00812703,0
 .00155941,0.00790802,-0.15328428,0.01375003,0.09018564,0.42429171,0.00
 174482,-0.00110464,-0.00196704,0.00277270,0.02151468,-0.00204275,-0.00
 066119,0.00023343,0.00063595,0.00041068,0.00126986,-0.00094485,0.01526
 635,-0.06031775,-0.01885631,-0.04339655,0.05882099,-0.00156431,-0.0022
 9517,-0.00161923,0.00958154,0.00014025,-0.01428587,-0.00169037,0.00177
 134,-0.00163898,0.00578714,-0.00082975,-0.00239772,0.15342214,-0.02505
 432,-0.53161211,0.06577664,-0.00084461,0.79655921,-0.00142933,0.002120
 34,0.00061809,-0.02690987,0.00789318,-0.02058916,-0.00384372,-0.001983
 18,0.00199539,-0.00609008,0.00047329,-0.00083341,-0.22741415,0.0454977
 6,-0.09675732,0.01840052,-0.00042630,-0.01452427,0.72006430,0.00104126
 ,-0.00204638,0.00003730,0.00335079,0.00563568,0.00370542,0.00045528,-0
 .00033816,-0.00020288,-0.00020663,-0.00015868,-0.00053900,0.01942427,-
 0.05400888,-0.00997956,-0.00302380,0.00643928,0.00977622,-0.05068615,0
 .13393767,0.00094186,-0.00008224,-0.00110102,0.00317712,-0.00024779,0.
 00810221,0.00197594,0.00005656,-0.00134905,0.00275358,-0.00048907,0.00
 078749,-0.08410642,0.01930453,-0.19737489,-0.04015511,0.00875123,-0.08
 258758,-0.05170682,0.17719694,0.73779024,-0.08972391,0.08415505,-0.049
 07150,0.00595601,-0.01457651,0.00875111,-0.00172693,-0.00273635,-0.001
 18657,0.00019019,0.00059241,0.00118236,0.00164288,-0.00052798,0.000689
 90,-0.00015160,0.00018473,0.00001938,0.00010170,0.00016696,-0.00014743
 ,0.09364671,0.08260366,-0.20991213,0.09491347,0.01093677,-0.02199198,0
 .01330510,-0.00421235,-0.00363437,-0.00256411,0.00040056,0.00199938,0.
 00120949,0.00196125,-0.00008885,0.00022441,-0.00050180,0.00020509,-0.0
 0004545,-0.00039474,0.00065061,-0.00036513,-0.08904365,0.23138687,-0.0
 4820699,0.09561802,-0.10250396,0.00375664,-0.00641574,0.00191012,-0.00
 059099,-0.00143314,-0.00019694,0.00045479,-0.00039644,0.00137212,-0.00
 014534,0.00056947,0.00022443,0.00019456,-0.00037561,-0.00039035,0.0003
 3178,-0.00016356,0.00010283,0.05407725,-0.10439190,0.10768247,-0.28591
 841,0.02775078,0.07459493,-0.01848844,0.00104622,0.00577555,0.00050679
 ,0.00124357,0.00015695,0.00190348,0.00157802,0.00024678,0.00028087,-0.
 00358222,-0.00129118,-0.00043916,0.00052375,-0.00008256,-0.00051583,0.
 00012654,0.00023571,-0.01104486,0.00071880,0.00379230,0.31149912,0.029
 93997,-0.04939148,-0.00862946,-0.02835269,-0.00019205,0.00827505,-0.00
 085395,0.00172611,0.00038197,0.00108657,0.00138734,0.00114216,-0.00061
 642,-0.00459396,-0.00236195,-0.00075077,0.00107049,0.00054912,-0.00102
 795,0.00053714,0.00024535,0.02383242,-0.00211506,-0.00862461,-0.028581
 63,0.05363736,0.07587456,-0.00745296,-0.07004466,-0.00821823,-0.000691
 20,0.00095170,0.00033447,0.00034858,-0.00019170,-0.00030361,0.00018359
 ,0.00071545,0.00057564,-0.00111289,-0.00180782,0.00024910,0.00093934,0
 .00110841,-0.00007716,0.00000419,0.00036050,-0.01535662,0.00120146,0.0
 0427424,-0.08261511,0.00968831,0.07140283,-0.04694562,0.00110739,0.009
 74608,-0.00074541,-0.00084778,-0.01583005,0.00023230,0.00090227,0.0002
 2525,-0.00104604,-0.00315919,-0.00084691,0.00044956,0.00013528,-0.0023
 4009,-0.00044927,0.00066099,0.00108027,0.00006619,-0.00034885,0.000691
 30,-0.00034006,-0.00234299,-0.01329991,0.00118065,0.00432665,0.0300511
 7,0.04748193,0.00017949,-0.05329101,-0.04050518,0.00300744,-0.00284651
 ,-0.02495552,0.00055509,0.00166452,-0.00085058,-0.00276140,-0.00581103
 ,-0.00206404,0.00076945,0.00019755,-0.00110526,0.00007839,0.00018728,0
 .00053732,0.00009689,0.00014324,0.00040486,-0.00127330,0.00471651,0.02
 576119,-0.00001090,-0.00152675,-0.00303570,0.00099536,0.05751145,0.006
 77028,-0.04300410,-0.30738905,0.00110632,0.00064905,-0.00762312,0.0000
 6327,0.00057087,0.00022806,-0.00109404,-0.00262994,0.00028131,0.000780
 09,-0.00001882,-0.00212040,0.00059722,0.00137897,0.00127389,0.00005537
 ,-0.00029729,0.00084338,0.00095431,-0.00267742,-0.01375979,-0.00070803
 ,-0.00057688,-0.00742982,-0.00931639,0.04696301,0.33456061,-0.00090906
 ,0.00206273,-0.00133839,0.00630708,0.01271785,0.00386681,-0.11512034,-
 0.10955493,-0.03401018,0.00011810,-0.00009145,0.00114728,0.00134903,0.
 00028435,0.00034740,-0.00008352,-0.00028330,0.00008691,0.00017738,-0.0
 0019910,-0.00006783,0.00086149,0.00069871,-0.00000094,0.00035022,0.000
 31033,-0.00020091,-0.00017159,-0.00006515,-0.00004006,0.12117360,0.003
 77508,-0.00340234,0.00348898,-0.01352568,-0.02260180,-0.00807540,-0.10
 824352,-0.22176619,-0.05368425,-0.00012897,0.00166712,-0.00154751,-0.0
 0196445,0.00055964,0.00063858,0.00057442,0.00038042,-0.00055380,0.0005
 4555,0.00022859,0.00003675,-0.00100982,-0.00155483,-0.00035059,0.00003
 558,0.00030873,0.00004113,0.00009725,0.00031319,-0.00002320,0.11849257
 ,0.24461257,-0.00124851,0.00209067,-0.00130431,0.00794853,0.01126361,0
 .00200452,-0.03356785,-0.05399760,-0.06363950,0.00052200,0.00041425,0.
 00168499,0.00022035,-0.00049389,0.00066831,0.00026536,0.00048383,-0.00
 048744,0.00007506,-0.00007933,-0.00008795,0.00026306,0.00081512,0.0006
 2350,-0.00020613,-0.00016984,-0.00009387,-0.00003079,0.00024770,0.0002
 4961,0.03830479,0.05763246,0.06547835,0.00046415,-0.00106775,0.0003024
 6,-0.01487590,0.00197549,0.00490425,-0.28540814,0.02251123,0.07860627,
 0.00147582,-0.00148659,0.00057462,0.00086846,0.00223850,-0.00145012,-0
 .00030252,-0.00008413,-0.00031531,-0.00063085,0.00037676,0.00017871,0.
 00029892,-0.00007330,-0.00018506,0.00065778,0.00039889,0.00006229,0.00
 004305,0.00001399,-0.00008009,-0.01413591,0.00201364,0.00497985,0.3101
 9502,0.00110678,0.00144435,-0.00076217,0.02677070,-0.00495671,-0.00872
 393,0.02046213,-0.04909382,-0.00765096,-0.00101229,0.00132020,-0.00128
 131,0.00031596,-0.00367595,0.00328751,0.00076328,0.00051091,-0.0000951
 2,0.00149912,-0.00015280,-0.00054399,-0.00034202,0.00033478,0.00010796
 ,-0.00058786,-0.00060205,0.00023134,-0.00005319,-0.00008872,0.00000540
 ,-0.02501545,0.00315732,0.00910488,-0.02619463,0.05317153,0.00000650,-
 0.00074600,0.00003778,-0.01476322,0.00324179,0.00297130,0.08047903,-0.
 00919696,-0.07221056,-0.00007037,-0.00007435,0.00092024,0.00084828,0.0
 0196496,-0.00297882,-0.00003163,-0.00086392,0.00111045,-0.00060728,-0.
 00009945,0.00060307,-0.00012683,-0.00011330,-0.00009607,0.00016693,-0.
 00011098,0.00030435,0.00013794,-0.00001611,-0.00001261,-0.00913405,0.0
 0108294,0.00213657,-0.08665383,0.00705502,0.07506271,0.00017280,-0.000
 63911,0.00044518,-0.00089805,-0.00304347,-0.01267455,-0.04590274,0.001
 08136,0.00395390,-0.00071132,0.00230901,-0.00110815,0.00036587,-0.0003
 6166,-0.00195326,-0.00075893,-0.00030911,0.00102074,0.00034838,-0.0002
 3722,0.00068453,-0.00017904,-0.00004327,-0.00002979,0.00003072,0.00008
 230,0.00014028,0.00029348,-0.00010664,0.00013732,-0.00050883,-0.001202
 31,-0.01709380,0.00151494,0.00268332,0.03035699,0.04663803,-0.00032060
 ,0.00182983,0.00046896,-0.00269835,0.00386288,0.02433380,0.00101229,-0
 .04853862,-0.02357627,0.00220902,-0.00509857,0.00328352,-0.00052379,0.
 00031696,0.00050622,0.00022155,-0.00038508,-0.00036691,-0.00001993,0.0
 0029102,-0.00022983,0.00011475,0.00024270,-0.00022961,-0.00009204,-0.0
 0009537,0.00002774,-0.00002042,-0.00054940,-0.00033966,0.00097707,-0.0
 0197738,-0.02680434,-0.00044736,-0.00140946,-0.00266330,-0.00246874,0.
 05186706,0.00000346,-0.00091016,0.00027122,0.00123888,-0.00367737,-0.0
 1284410,0.00196377,-0.02113547,-0.31291600,-0.00152148,0.00394698,-0.0
 0101105,0.00093533,0.00020569,-0.00275106,0.00081698,-0.00139387,0.001
 35970,0.00006292,-0.00021583,0.00107542,-0.00007056,0.00003458,0.00029
 881,-0.00007410,0.00001456,-0.00001367,0.00011390,0.00041051,0.0006052
 9,0.00053816,-0.00041050,-0.00720137,-0.00076248,-0.00093836,-0.008360
 40,-0.00401010,0.02393703,0.34089530,0.00032732,0.00014106,-0.00232233
 ,-0.00454715,0.00533952,0.00803757,0.00012331,-0.00036271,-0.00015278,
 -0.08536946,-0.16896115,-0.06971177,0.00152063,0.00142263,0.00170245,0
 .00001551,-0.00031827,-0.00078229,-0.00037624,-0.00003624,-0.00007756,
 -0.00001026,-0.00001048,0.00020221,0.00052092,0.00028305,0.00018016,0.
 00028846,-0.00091315,-0.00040333,0.00042842,0.00032191,-0.00032655,-0.
 00054977,-0.00016917,-0.00032874,-0.00009067,0.00030260,0.00036817,0.0
 8868492,0.00094029,0.00095720,-0.00177587,-0.00342783,-0.00380861,-0.0
 0037571,0.00059294,0.00199947,0.00070797,-0.12441799,-0.32012204,-0.08
 797754,-0.00131365,0.00024997,-0.00064473,-0.00013785,0.00000412,0.001
 09126,-0.00013894,-0.00000827,0.00050864,0.00002272,0.00038443,0.00017
 304,0.00006161,0.00008677,0.00015127,-0.00043259,0.00008824,-0.0000438
 7,-0.00063035,0.00008448,-0.00006543,0.00015817,-0.00000583,-0.0000409
 0,0.00006927,-0.00022831,-0.00007898,0.14364697,0.34392167,0.00135369,
 0.00041605,-0.00762374,-0.01776346,-0.03286919,-0.01041576,-0.00057837
 ,-0.00163164,0.00145224,-0.05142312,-0.08219848,-0.08903938,-0.0013141
 6,-0.00053759,-0.00046926,0.00008477,0.00044727,0.00053044,0.00010211,
 0.00031620,0.00065876,0.00029413,-0.00003147,0.00015709,-0.00003930,0.
 00032309,0.00010900,-0.00120220,-0.00197771,-0.00034810,0.00019714,0.0
 0143466,-0.00045517,0.00002484,0.00013969,-0.00005481,0.00050518,0.000
 34302,0.00043362,0.05802989,0.09881391,0.09758025,-0.00015263,0.000688
 95,-0.00029586,-0.00406294,-0.00320896,0.00886118,0.00000143,-0.000607
 52,-0.00123261,-0.08016446,0.14342310,-0.10662851,0.00195542,-0.001477
 14,0.00216822,-0.00000204,0.00011870,-0.00137392,-0.00094783,0.0005712
 5,-0.00052849,0.00042375,-0.00061380,-0.00028248,-0.00044780,0.0001135
 3,-0.00030423,-0.00000011,-0.00025947,0.00044104,0.00002696,0.00021082
 ,0.00011155,0.00047767,-0.00027057,0.00018202,0.00056728,0.00061102,-0
 .00034397,0.00157300,-0.01747861,0.01013352,0.08407316,-0.00034773,0.0
 0209851,-0.00056637,-0.00098552,0.00394587,-0.00274672,-0.00036285,0.0
 0079919,-0.00020617,0.10297774,-0.27538993,0.13576471,0.00068265,-0.00
 004068,0.00006193,0.00027554,0.00002155,-0.00085885,0.00085881,0.00035
 806,-0.00037115,0.00041866,-0.00047916,0.00000586,-0.00008637,-0.00006
 450,0.00003818,0.00006480,-0.00024835,0.00025227,0.00009993,0.00032294
 ,-0.00022111,-0.00009335,-0.00003320,-0.00012128,0.00019296,0.00051904
 ,-0.00018141,0.01820362,-0.02337713,0.01779241,-0.12014648,0.29237761,
 -0.00018777,0.00122230,0.00103588,-0.01711721,0.03068808,-0.01911612,0
 .00122738,-0.00264401,-0.00745866,-0.07682472,0.12885501,-0.14240736,-
 0.00150661,0.00140920,-0.00133434,-0.00014727,-0.00044094,0.00133140,-
 0.00039010,-0.00066744,0.00145991,-0.00017544,-0.00134077,0.00002884,0
 .00011212,-0.00012811,-0.00001508,0.00042715,-0.00024584,0.00034706,0.
 00029691,-0.00002019,0.00021218,-0.00006415,-0.00030650,0.00021154,-0.
 00101610,0.00193088,-0.00084295,0.00536867,-0.01080521,0.00658341,0.08
 815625,-0.14843841,0.15922517,-0.00030549,-0.00028795,0.00048790,-0.00
 070827,-0.00095770,0.00105229,-0.00061126,0.00068910,0.00094523,0.0009
 6926,-0.00009789,-0.00058279,-0.00120662,0.00004695,0.02035114,-0.2777
 4842,0.02471513,-0.21461410,0.00237873,-0.00041833,0.00050571,0.000027
 56,0.00009027,-0.00000505,0.00011682,0.00009105,-0.00024053,-0.0004992
 3,-0.00050483,0.00051751,0.00009496,-0.00010429,-0.00014282,0.00010723
 ,-0.00029610,-0.00011927,-0.00102619,0.00124277,0.00049542,-0.00005636
 ,0.00012709,0.00000903,-0.00004334,-0.00012059,0.00003279,0.27697163,-
 0.00041687,0.00044538,0.00122259,-0.00101827,-0.00686407,-0.00041261,0
 .00026190,-0.00025249,-0.00132484,0.00013043,-0.00044564,0.00006710,-0
 .00238027,-0.00568436,-0.00140363,0.02634256,-0.02678720,0.02093745,-0
 .00097817,0.01289205,-0.00087095,-0.00003598,0.00002861,0.00010138,-0.
 00018817,-0.00026477,-0.00071540,-0.00111089,-0.00046078,-0.00034516,0
 .00013350,-0.00003672,-0.00020608,-0.00000394,0.00002181,0.00078917,0.
 00184675,-0.00053301,0.00027018,-0.00000810,-0.00002297,-0.00019238,0.
 00001267,-0.00003198,0.00023428,-0.02536079,0.02664942,0.00014252,0.00
 008160,-0.00045735,-0.00095354,0.00050435,0.00045562,-0.00030495,-0.00
 019546,-0.00037278,-0.00039961,0.00010683,0.00135337,-0.03984900,0.004
 49259,-0.03692083,-0.15305655,0.01524583,-0.16843141,0.00415236,-0.002
 39754,-0.00531339,-0.00008370,-0.00015113,0.00025663,0.00001249,0.0000
 0986,0.00025080,0.00051287,0.00044887,0.00033218,0.00002623,0.00017666
 ,0.00020148,-0.00000859,0.00009462,0.00038881,0.00060888,-0.00060567,0
 .00109901,-0.00001771,0.00008576,0.00003634,-0.00002407,-0.00003054,0.
 00007315,0.19032511,-0.01876581,0.20809903,-0.00020407,-0.00006506,0.0
 0035237,-0.00034661,-0.00032503,-0.00360862,-0.00012885,0.00021307,0.0
 0030612,0.00303654,-0.00004334,0.00131604,0.01400191,-0.01605483,-0.01
 459728,-0.00417672,0.00020171,-0.00578575,-0.07689449,0.03160115,0.043
 39686,0.00004623,-0.00003095,-0.00007678,-0.00013035,-0.00007020,-0.00
 008491,0.00019468,0.00022974,0.00028844,0.00003041,0.00001931,-0.00007
 720,-0.00012620,0.00006016,-0.00007278,0.00016934,-0.00013860,0.000361
 40,-0.00233480,0.00211207,0.00138483,-0.00310662,-0.00146003,0.0015645
 2,0.00064735,0.00173829,-0.00150114,0.06841491,-0.00044987,0.00046626,
 -0.00009774,-0.00016163,-0.00147252,-0.00127250,0.00020016,0.00021277,
 0.00022518,0.00166797,-0.00000004,0.00068288,0.00078921,-0.00469033,0.
 01453013,0.00127527,0.00048292,-0.00064807,0.03362248,-0.09072492,-0.1
 9949730,-0.00000695,-0.00016514,-0.00001431,-0.00006115,-0.00011717,-0
 .00003683,0.00009683,-0.00005782,0.00007470,0.00003400,-0.00017430,-0.
 00000605,-0.00012801,-0.00007679,0.00008365,0.00005943,-0.00010059,0.0
 0013134,0.00138221,-0.00055246,-0.00066550,-0.00200227,-0.00070873,0.0
 0105958,0.00119818,0.00269807,0.00115390,-0.03440201,0.09875487,0.0004
 7788,-0.00014052,-0.00031954,0.00002846,0.00068035,-0.00072200,-0.0001
 6716,-0.00016723,-0.00014615,0.00279764,0.00017688,-0.00025578,0.00393
 313,-0.01097570,-0.02552655,-0.00406067,-0.00096840,-0.00009574,0.0500
 0251,-0.16467913,-0.35167656,-0.00003681,0.00001817,0.00003070,0.00007
 620,0.00015413,0.00013821,-0.00010119,-0.00002544,-0.00004419,-0.00004
 625,0.00007392,0.00001911,0.00006723,-0.00003316,0.00007392,0.00005457
 ,0.00000724,-0.00007653,0.00044827,-0.00011295,0.00070857,0.00124627,0
 .00040310,0.00024024,-0.00035221,0.00105141,-0.00087973,-0.05130889,0.
 17814578,0.38357120,-0.00031638,0.00021420,0.00024939,-0.00065512,0.00
 119504,-0.00339265,-0.00091891,-0.00029916,0.00049991,0.00142568,-0.00
 021770,-0.00096176,-0.02950324,-0.00230748,0.00878516,0.00335441,-0.00
 112071,0.00395812,-0.39648481,-0.00195794,0.12224835,-0.00001879,-0.00
 014269,0.00001380,-0.00006252,-0.00021115,-0.00006637,-0.00003300,-0.0
 0003101,-0.00006924,0.00001161,0.00009291,0.00000311,-0.00007376,0.000
 27982,-0.00026970,-0.00002506,0.00003877,-0.00011570,-0.00014779,0.000
 24667,0.00020150,-0.00017091,-0.00017180,0.00024359,0.00089165,0.00103
 535,0.00041842,0.00090733,-0.00311383,-0.00305898,0.42181961,0.0010968
 1,-0.00019314,-0.00030304,0.00166149,0.00488376,-0.00005277,-0.0008003
 5,-0.00006351,0.00035851,0.00039065,0.00029442,0.00066668,0.01189309,-
 0.00129566,0.00527303,-0.00028089,-0.00254637,-0.00321091,-0.03695206,
 -0.01367524,-0.00380740,0.00006484,-0.00000747,0.00005859,0.00010545,0
 .00020923,0.00018984,-0.00007092,0.00005839,0.00006207,0.00002870,-0.0
 0012145,-0.00000887,-0.00010760,0.00013442,-0.00017099,0.00008712,-0.0
 0001370,-0.00000892,-0.00026431,0.00034925,0.00007765,0.00031479,-0.00
 006911,-0.00036192,-0.00005205,-0.00135134,-0.00025472,0.01641455,-0.0
 0377407,-0.00360845,0.00647070,0.01718160,-0.00040416,0.00030493,0.000
 29389,-0.00128911,0.00022747,-0.00540750,-0.00076814,-0.00023127,0.000
 53872,0.00223184,-0.00013397,0.00049770,-0.02961383,-0.00002741,0.0156
 0269,0.00178696,0.00081588,0.00027294,0.12808992,-0.01171524,-0.112293
 33,0.00002396,-0.00004114,-0.00001468,-0.00015355,-0.00018178,-0.00001
 885,-0.00001840,0.00000792,0.00000571,0.00002699,0.00005935,-0.0000089
 9,-0.00018088,0.00030906,-0.00010748,-0.00002184,-0.00002281,-0.000021
 21,-0.00021432,0.00038936,0.00015650,-0.00028591,-0.00057645,0.0004257
 5,0.00133463,-0.00043668,-0.00017093,0.02814277,0.00615117,-0.00503916
 ,-0.12868694,0.00510161,0.10528824\\-0.00000043,-0.00000130,-0.0000008
 4,0.00001155,0.00000034,-0.00000359,-0.00000317,0.00000059,0.00000264,
 0.00000152,-0.00000217,0.00000092,-0.00001908,0.00000112,0.00000749,0.
 00000798,0.00000342,-0.00000261,-0.00000697,0.00000592,0.00000833,0.00
 000219,-0.00000052,-0.00000535,0.00000086,-0.00000136,-0.00000257,-0.0
 0000006,0.00000309,-0.00000345,-0.00000217,0.00000008,0.00000640,-0.00
 000035,0.,0.00000369,-0.00000073,0.00000374,0.00000279,-0.00000194,-0.
 00000649,0.00000366,-0.00000047,-0.00000506,-0.00000077,-0.00000153,0.
 00000661,-0.00000025,0.00000635,-0.00001224,-0.00001524,0.00000645,0.0
 0000422,-0.00000123\\\@
 Job cpu time:       0 days  7 hours 11 minutes 23.0 seconds.
 File lengths (MBytes):  RWF=  11673 Int=      0 D2E=      0 Chk=     54 Scr=      1
 Normal termination of Gaussian 09 at Tue Aug 30 10:37:24 2022.
