 Entering Gaussian System, Link 0=g09
 Input=G4.Frag_1135.gjf
 Output=G4.Frag_1135.log
 Initial command:
 /public/home/users/caep010/software/Gaussian09/g09/l1.exe "/public/home/users/caep010/.cache/gau_scr/Gau-203409.inp" -scrdir="/public/home/users/caep010/.cache/gau_scr/"
 Entering Link 1 = /public/home/users/caep010/software/Gaussian09/g09/l1.exe PID=    203410.
  
 Copyright (c) 1988,1990,1992,1993,1995,1998,2003,2009,2015,
            Gaussian, Inc.  All Rights Reserved.
  
 This is part of the Gaussian(R) 09 program.  It is based on
 the Gaussian(R) 03 system (copyright 2003, Gaussian, Inc.),
 the Gaussian(R) 98 system (copyright 1998, Gaussian, Inc.),
 the Gaussian(R) 94 system (copyright 1995, Gaussian, Inc.),
 the Gaussian 92(TM) system (copyright 1992, Gaussian, Inc.),
 the Gaussian 90(TM) system (copyright 1990, Gaussian, Inc.),
 the Gaussian 88(TM) system (copyright 1988, Gaussian, Inc.),
 the Gaussian 86(TM) system (copyright 1986, Carnegie Mellon
 University), and the Gaussian 82(TM) system (copyright 1983,
 Carnegie Mellon University). Gaussian is a federally registered
 trademark of Gaussian, Inc.
  
 This software contains proprietary and confidential information,
 including trade secrets, belonging to Gaussian, Inc.
  
 This software is provided under written license and may be
 used, copied, transmitted, or stored only in accord with that
 written license.
  
 The following legend is applicable only to US Government
 contracts under FAR:
  
                    RESTRICTED RIGHTS LEGEND
  
 Use, reproduction and disclosure by the US Government is
 subject to restrictions as set forth in subparagraphs (a)
 and (c) of the Commercial Computer Software - Restricted
 Rights clause in FAR 52.227-19.
  
 Gaussian, Inc.
 340 Quinnipiac St., Bldg. 40, Wallingford CT 06492
  
  
 ---------------------------------------------------------------
 Warning -- This program may not be used in any manner that
 competes with the business of Gaussian, Inc. or will provide
 assistance to any competitor of Gaussian, Inc.  The licensee
 of this program is prohibited from giving any competitor of
 Gaussian, Inc. access to this program.  By using this program,
 the user acknowledges that Gaussian, Inc. is engaged in the
 business of creating and licensing software in the field of
 computational chemistry and represents and warrants to the
 licensee that it is not a competitor of Gaussian, Inc. and that
 it will not use this program in any manner prohibited above.
 ---------------------------------------------------------------
  

 Cite this work as:
 Gaussian 09, Revision E.01,
 M. J. Frisch, G. W. Trucks, H. B. Schlegel, G. E. Scuseria, 
 M. A. Robb, J. R. Cheeseman, G. Scalmani, V. Barone, B. Mennucci, 
 G. A. Petersson, H. Nakatsuji, M. Caricato, X. Li, H. P. Hratchian, 
 A. F. Izmaylov, J. Bloino, G. Zheng, J. L. Sonnenberg, M. Hada, 
 M. Ehara, K. Toyota, R. Fukuda, J. Hasegawa, M. Ishida, T. Nakajima, 
 Y. Honda, O. Kitao, H. Nakai, T. Vreven, J. A. Montgomery, Jr., 
 J. E. Peralta, F. Ogliaro, M. Bearpark, J. J. Heyd, E. Brothers, 
 K. N. Kudin, V. N. Staroverov, T. Keith, R. Kobayashi, J. Normand, 
 K. Raghavachari, A. Rendell, J. C. Burant, S. S. Iyengar, J. Tomasi, 
 M. Cossi, N. Rega, J. M. Millam, M. Klene, J. E. Knox, J. B. Cross, 
 V. Bakken, C. Adamo, J. Jaramillo, R. Gomperts, R. E. Stratmann, 
 O. Yazyev, A. J. Austin, R. Cammi, C. Pomelli, J. W. Ochterski, 
 R. L. Martin, K. Morokuma, V. G. Zakrzewski, G. A. Voth, 
 P. Salvador, J. J. Dannenberg, S. Dapprich, A. D. Daniels, 
 O. Farkas, J. B. Foresman, J. V. Ortiz, J. Cioslowski, 
 and D. J. Fox, Gaussian, Inc., Wallingford CT, 2013.
 
 ******************************************
 Gaussian 09:  ES64L-G09RevE.01 30-Nov-2015
                 2-Sep-2022 
 ******************************************
 %nproc=32
 Will use up to   32 processors via shared memory.
 %mem=180GB
 %chk=G4.Frag_1135.chk
 -----
 #P G4
 -----
 1/14=-1,18=20,19=15,26=3,38=1/1,3;
 2/9=110,12=2,17=6,18=5,40=1/2;
 3/5=35,7=104,11=2,16=1,25=1,30=1,71=1,74=-5/1,2,3;
 4//1;
 5/5=2,38=5/2;
 6/7=2,8=2,9=2,10=2,28=1/1;
 7//1,2,3,16;
 1/14=-1,18=20,19=15,26=3/3(2);
 2/9=110/2;
 99//99;
 2/9=110/2;
 3/5=35,7=104,11=2,16=1,25=1,30=1,71=1,74=-5/1,2,3;
 4/5=5,16=3,69=1/1;
 5/5=2,38=5/2;
 7//1,2,3,16;
 1/14=-1,18=20,19=15,26=3/3(-5);
 2/9=110/2;
 6/7=2,8=2,9=2,10=2,19=2,28=1/1;
 99/9=1/99;
 Leave Link    1 at Fri Sep  2 19:31:25 2022, MaxMem= 24159191040 cpu:         2.3
 (Enter /public/home/users/caep010/software/Gaussian09/g09/l101.exe)
 ---------
 Frag_1135
 ---------
 Symbolic Z-matrix:
 Charge =  0 Multiplicity = 1
 N                    -0.96468   0.07313   0.30488 
 N                     0.11969   0.95484  -0.06275 
 N                     1.09531   0.10746  -0.35443 
 O                     0.82621  -1.1864   -0.24866 
 O                     2.18387   0.49384  -0.70768 
 H                    -1.25763   0.25573   1.26281 
 H                    -1.75873   0.22699  -0.31571 
 H                    -0.24404  -0.92558   0.09453 
 
 Add virtual bond connecting atoms H8         and N1         Dist= 2.36D+00.
 Add virtual bond connecting atoms H8         and O4         Dist= 2.18D+00.
 NAtoms=      8 NQM=        8 NQMF=       0 NMMI=      0 NMMIF=      0
                NMic=       0 NMicF=      0.
                    Isotopes and Nuclear Properties:
 (Nuclear quadrupole moments (NQMom) in fm**2, nuclear magnetic moments (NMagM)
  in nuclear magnetons)

  Atom         1           2           3           4           5           6           7           8
 IAtWgt=          14          14          14          16          16           1           1           1
 AtmWgt=  14.0030740  14.0030740  14.0030740  15.9949146  15.9949146   1.0078250   1.0078250   1.0078250
 NucSpn=           2           2           2           0           0           1           1           1
 AtZEff=   0.0000000   0.0000000   0.0000000   0.0000000   0.0000000   0.0000000   0.0000000   0.0000000
 NQMom=    2.0440000   2.0440000   2.0440000   0.0000000   0.0000000   0.0000000   0.0000000   0.0000000
 NMagM=    0.4037610   0.4037610   0.4037610   0.0000000   0.0000000   2.7928460   2.7928460   2.7928460
 AtZNuc=   7.0000000   7.0000000   7.0000000   8.0000000   8.0000000   1.0000000   1.0000000   1.0000000
 Leave Link  101 at Fri Sep  2 19:31:25 2022, MaxMem= 24159191040 cpu:         9.7
 (Enter /public/home/users/caep010/software/Gaussian09/g09/l103.exe)

 GradGradGradGradGradGradGradGradGradGradGradGradGradGradGradGradGradGrad
 Berny optimization.
 Initialization pass.
                           ----------------------------
                           !    Initial Parameters    !
                           ! (Angstroms and Degrees)  !
 --------------------------                            --------------------------
 ! Name  Definition              Value          Derivative Info.                !
 --------------------------------------------------------------------------------
 ! R1    R(1,2)                  1.4451         estimate D2E/DX2                !
 ! R2    R(1,6)                  1.0182         estimate D2E/DX2                !
 ! R3    R(1,7)                  1.0195         estimate D2E/DX2                !
 ! R4    R(1,8)                  1.2494         estimate D2E/DX2                !
 ! R5    R(2,3)                  1.3248         estimate D2E/DX2                !
 ! R6    R(3,4)                  1.3258         estimate D2E/DX2                !
 ! R7    R(3,5)                  1.2079         estimate D2E/DX2                !
 ! R8    R(4,8)                  1.1538         estimate D2E/DX2                !
 ! A1    A(2,1,6)              110.2305         estimate D2E/DX2                !
 ! A2    A(2,1,7)              109.7249         estimate D2E/DX2                !
 ! A3    A(2,1,8)               90.692          estimate D2E/DX2                !
 ! A4    A(6,1,7)              108.7548         estimate D2E/DX2                !
 ! A5    A(6,1,8)              117.8845         estimate D2E/DX2                !
 ! A6    A(7,1,8)              117.8663         estimate D2E/DX2                !
 ! A7    A(1,2,3)              102.6122         estimate D2E/DX2                !
 ! A8    A(2,3,4)              117.2068         estimate D2E/DX2                !
 ! A9    A(2,3,5)              121.5655         estimate D2E/DX2                !
 ! A10   A(4,3,5)              121.2269         estimate D2E/DX2                !
 ! A11   A(3,4,8)               89.507          estimate D2E/DX2                !
 ! A12   A(1,8,4)              139.9784         estimate D2E/DX2                !
 ! D1    D(6,1,2,3)            120.0288         estimate D2E/DX2                !
 ! D2    D(7,1,2,3)           -120.2255         estimate D2E/DX2                !
 ! D3    D(8,1,2,3)             -0.1651         estimate D2E/DX2                !
 ! D4    D(2,1,8,4)             -0.3374         estimate D2E/DX2                !
 ! D5    D(6,1,8,4)           -113.7682         estimate D2E/DX2                !
 ! D6    D(7,1,8,4)            112.5045         estimate D2E/DX2                !
 ! D7    D(1,2,3,4)              0.5123         estimate D2E/DX2                !
 ! D8    D(1,2,3,5)           -179.7924         estimate D2E/DX2                !
 ! D9    D(2,3,4,8)             -0.575          estimate D2E/DX2                !
 ! D10   D(5,3,4,8)            179.7286         estimate D2E/DX2                !
 ! D11   D(3,4,8,1)              0.6064         estimate D2E/DX2                !
 --------------------------------------------------------------------------------
 Trust Radius=3.00D-01 FncErr=1.00D-07 GrdErr=1.00D-06
 Number of steps in this run=     41 maximum allowed number of steps=    100.
 GradGradGradGradGradGradGradGradGradGradGradGradGradGradGradGradGradGrad

 Leave Link  103 at Fri Sep  2 19:31:25 2022, MaxMem= 24159191040 cpu:         0.4
 (Enter /public/home/users/caep010/software/Gaussian09/g09/l202.exe)
                          Input orientation:                          
 ---------------------------------------------------------------------
 Center     Atomic      Atomic             Coordinates (Angstroms)
 Number     Number       Type             X           Y           Z
 ---------------------------------------------------------------------
      1          7           0       -0.964675    0.073129    0.304880
      2          7           0        0.119691    0.954837   -0.062748
      3          7           0        1.095312    0.107458   -0.354427
      4          8           0        0.826209   -1.186404   -0.248656
      5          8           0        2.183866    0.493835   -0.707679
      6          1           0       -1.257634    0.255732    1.262806
      7          1           0       -1.758733    0.226994   -0.315710
      8          1           0       -0.244037   -0.925582    0.094532
 ---------------------------------------------------------------------
                    Distance matrix (angstroms):
                    1          2          3          4          5
     1  N    0.000000
     2  N    1.445133   0.000000
     3  N    2.163195   1.324751   0.000000
     4  O    2.258338   2.262442   1.325776   0.000000
     5  O    3.334004   2.211171   1.207901   2.208424   0.000000
     6  H    1.018229   2.035403   2.858983   2.950708   3.972836
     7  H    1.019478   2.030326   2.856810   2.946882   3.971011
     8  H    1.249395   1.921721   1.750026   1.153791   2.924551
                    6          7          8
     6  H    0.000000
     7  H    1.656393   0.000000
     8  H    1.946213   1.947058   0.000000
 Stoichiometry    H3N3O2
 Framework group  C1[X(H3N3O2)]
 Deg. of freedom    18
 Full point group                 C1      NOp   1
 Largest Abelian subgroup         C1      NOp   1
 Largest concise Abelian subgroup C1      NOp   1
                         Standard orientation:                         
 ---------------------------------------------------------------------
 Center     Atomic      Atomic             Coordinates (Angstroms)
 Number     Number       Type             X           Y           Z
 ---------------------------------------------------------------------
      1          7           0        1.605093   -0.043724    0.002258
      2          7           0        0.449531   -0.911508   -0.003567
      3          7           0       -0.558087   -0.051478    0.000849
      4          8           0       -0.253674    1.238874   -0.001922
      5          8           0       -1.707176   -0.423792    0.001667
      6          1           0        2.173233   -0.219463    0.828771
      7          1           0        2.170849   -0.218529   -0.827620
      8          1           0        0.866956    0.964313    0.004113
 ---------------------------------------------------------------------
 Rotational constants (GHZ):     12.1680883      4.9441287      3.5846220
 Leave Link  202 at Fri Sep  2 19:31:25 2022, MaxMem= 24159191040 cpu:         0.3
 (Enter /public/home/users/caep010/software/Gaussian09/g09/l301.exe)
 Standard basis: GTBas3 (6D, 7F)
 Ernie: Thresh=  0.10000D-02 Tol=  0.10000D-05 Strict=F.
 There are   170 symmetry adapted cartesian basis functions of A   symmetry.
 There are   155 symmetry adapted basis functions of A   symmetry.
   155 basis functions,   241 primitive gaussians,   170 cartesian basis functions
    20 alpha electrons       20 beta electrons
       nuclear repulsion energy       191.7342657549 Hartrees.
 IExCor=  402 DFT=T Ex+Corr=B3LYP ExCW=0 ScaHFX=  0.200000
 ScaDFX=  0.800000  0.720000  1.000000  0.810000 ScalE2=  1.000000  1.000000
 IRadAn=      0 IRanWt=     -1 IRanGd=            0 ICorTp=0 IEmpDi=  4
 NAtoms=    8 NActive=    8 NUniq=    8 SFac= 1.00D+00 NAtFMM=   60 NAOKFM=F Big=F
 Integral buffers will be    131072 words long.
 Raffenetti 2 integral format.
 Two-electron integral symmetry is turned on.
 Leave Link  301 at Fri Sep  2 19:31:25 2022, MaxMem= 24159191040 cpu:         1.9
 (Enter /public/home/users/caep010/software/Gaussian09/g09/l302.exe)
 NPDir=0 NMtPBC=     1 NCelOv=     1 NCel=       1 NClECP=     1 NCelD=      1
         NCelK=      1 NCelE2=     1 NClLst=     1 CellRange=     0.0.
 One-electron integrals computed using PRISM.
 NBasis=   155 RedAO= T EigKep=  2.80D-04  NBF=   155
 NBsUse=   155 1.00D-06 EigRej= -1.00D+00 NBFU=   155
 Precomputing XC quadrature grid using
 IXCGrd= 4 IRadAn=           0 IRanWt=          -1 IRanGd=           0 AccXCQ= 0.00D+00.
 Generated NRdTot=       0 NPtTot=           0 NUsed=           0 NTot=          32
 NSgBfM=   170   170   170   170   170 MxSgAt=     8 MxSgA2=     8.
 Leave Link  302 at Fri Sep  2 19:31:26 2022, MaxMem= 24159191040 cpu:        17.9
 (Enter /public/home/users/caep010/software/Gaussian09/g09/l303.exe)
 DipDrv:  MaxL=1.
 Leave Link  303 at Fri Sep  2 19:31:26 2022, MaxMem= 24159191040 cpu:         0.8
 (Enter /public/home/users/caep010/software/Gaussian09/g09/l401.exe)
 ExpMin= 1.61D-01 ExpMax= 5.48D+03 ExpMxC= 8.25D+02 IAcc=1 IRadAn=         1 AccDes= 0.00D+00
 Harris functional with IExCor=  402 and IRadAn=       1 diagonalized for initial guess.
 HarFok:  IExCor=  402 AccDes= 0.00D+00 IRadAn=         1 IDoV= 1 UseB2=F ITyADJ=14
 ICtDFT=  3500011 ScaDFX=  1.000000  1.000000  1.000000  1.000000
 FoFCou: FMM=F IPFlag=           0 FMFlag=      100000 FMFlg1=           0
         NFxFlg=           0 DoJE=T BraDBF=F KetDBF=T FulRan=T
         wScrn=  0.000000 ICntrl=     500 IOpCl=  0 I1Cent=   200000004 NGrid=           0
         NMat0=    1 NMatS0=      1 NMatT0=    0 NMatD0=    1 NMtDS0=    0 NMtDT0=    0
 Petite list used in FoFCou.
 Harris En= -316.373586751595    
 JPrj=0 DoOrth=F DoCkMO=F.
 Leave Link  401 at Fri Sep  2 19:31:27 2022, MaxMem= 24159191040 cpu:        15.7
 (Enter /public/home/users/caep010/software/Gaussian09/g09/l502.exe)
 Closed shell SCF:
 Using DIIS extrapolation, IDIIS=  1040.
 Integral symmetry usage will be decided dynamically.
 Keep R1 ints in memory in canonical form, NReq=75702035.
 IVT=      111920 IEndB=      111920 NGot= 24159191040 MDV= 24085989026
 LenX= 24085989026 LenY= 24085959685
 Requested convergence on RMS density matrix=1.00D-08 within 128 cycles.
 Requested convergence on MAX density matrix=1.00D-06.
 Requested convergence on             energy=1.00D-06.
 No special actions if energy rises.
 FoFCou: FMM=F IPFlag=           0 FMFlag=           0 FMFlg1=           0
         NFxFlg=           0 DoJE=F BraDBF=F KetDBF=F FulRan=T
         wScrn=  0.000000 ICntrl=     600 IOpCl=  0 I1Cent=           0 NGrid=           0
         NMat0=    1 NMatS0=  12090 NMatT0=    0 NMatD0=    1 NMtDS0=    0 NMtDT0=    0
 Symmetry not used in FoFCou.
 Integral accuracy reduced to 1.0D-05 until final iterations.

 Cycle   1  Pass 0  IDiag  1:
 E= -316.184159892556    
 DIIS: error= 2.99D-02 at cycle   1 NSaved=   1.
 NSaved= 1 IEnMin= 1 EnMin= -316.184159892556     IErMin= 1 ErrMin= 2.99D-02
 ErrMax= 2.99D-02  0.00D+00 EMaxC= 1.00D-01 BMatC= 2.54D-01 BMatP= 2.54D-01
 IDIUse=3 WtCom= 7.01D-01 WtEn= 2.99D-01
 Coeff-Com:  0.100D+01
 Coeff-En:   0.100D+01
 Coeff:      0.100D+01
 Gap=     0.169 Goal=   None    Shift=    0.000
 GapD=    0.169 DampG=1.000 DampE=0.500 DampFc=0.5000 IDamp=-1.
 Damping current iteration by 5.00D-01
 RMSDP=5.86D-03 MaxDP=2.38D-01              OVMax= 3.12D-01

 Cycle   2  Pass 0  IDiag  1:
 E= -316.176634751777     Delta-E=        0.007525140779 Rises=F Damp=T
 DIIS: error= 1.58D-02 at cycle   2 NSaved=   2.
 NSaved= 2 IEnMin= 1 EnMin= -316.184159892556     IErMin= 2 ErrMin= 1.58D-02
 ErrMax= 1.58D-02  0.00D+00 EMaxC= 1.00D-01 BMatC= 7.75D-02 BMatP= 2.54D-01
 IDIUse=3 WtCom= 8.42D-01 WtEn= 1.58D-01
 Coeff-Com:  0.330D+00 0.670D+00
 Coeff-En:   0.515D+00 0.485D+00
 Coeff:      0.359D+00 0.641D+00
 Gap=     0.233 Goal=   None    Shift=    0.000
 RMSDP=2.32D-03 MaxDP=7.96D-02 DE= 7.53D-03 OVMax= 2.40D-01

 Cycle   3  Pass 0  IDiag  1:
 E= -316.323370460674     Delta-E=       -0.146735708896 Rises=F Damp=F
 DIIS: error= 1.04D-02 at cycle   3 NSaved=   3.
 NSaved= 3 IEnMin= 3 EnMin= -316.323370460674     IErMin= 3 ErrMin= 1.04D-02
 ErrMax= 1.04D-02  0.00D+00 EMaxC= 1.00D-01 BMatC= 3.94D-02 BMatP= 7.75D-02
 IDIUse=3 WtCom= 8.96D-01 WtEn= 1.04D-01
 Coeff-Com:  0.180D+00 0.414D+00 0.406D+00
 Coeff-En:   0.000D+00 0.000D+00 0.100D+01
 Coeff:      0.161D+00 0.371D+00 0.468D+00
 Gap=     0.243 Goal=   None    Shift=    0.000
 RMSDP=1.73D-03 MaxDP=6.94D-02 DE=-1.47D-01 OVMax= 1.42D-01

 Cycle   4  Pass 0  IDiag  1:
 E= -316.346623549383     Delta-E=       -0.023253088709 Rises=F Damp=F
 DIIS: error= 6.36D-03 at cycle   4 NSaved=   4.
 NSaved= 4 IEnMin= 4 EnMin= -316.346623549383     IErMin= 4 ErrMin= 6.36D-03
 ErrMax= 6.36D-03  0.00D+00 EMaxC= 1.00D-01 BMatC= 1.26D-02 BMatP= 3.94D-02
 IDIUse=3 WtCom= 9.36D-01 WtEn= 6.36D-02
 Coeff-Com:  0.353D-01 0.973D-01 0.345D+00 0.522D+00
 Coeff-En:   0.000D+00 0.000D+00 0.291D+00 0.709D+00
 Coeff:      0.330D-01 0.912D-01 0.342D+00 0.534D+00
 Gap=     0.231 Goal=   None    Shift=    0.000
 RMSDP=6.97D-04 MaxDP=2.59D-02 DE=-2.33D-02 OVMax= 5.55D-02

 Cycle   5  Pass 0  IDiag  1:
 E= -316.356749482429     Delta-E=       -0.010125933046 Rises=F Damp=F
 DIIS: error= 1.12D-03 at cycle   5 NSaved=   5.
 NSaved= 5 IEnMin= 5 EnMin= -316.356749482429     IErMin= 5 ErrMin= 1.12D-03
 ErrMax= 1.12D-03  0.00D+00 EMaxC= 1.00D-01 BMatC= 4.26D-04 BMatP= 1.26D-02
 IDIUse=3 WtCom= 9.89D-01 WtEn= 1.12D-02
 Coeff-Com:  0.168D-02 0.115D-01 0.124D+00 0.263D+00 0.600D+00
 Coeff-En:   0.000D+00 0.000D+00 0.000D+00 0.000D+00 0.100D+01
 Coeff:      0.166D-02 0.114D-01 0.122D+00 0.260D+00 0.605D+00
 Gap=     0.234 Goal=   None    Shift=    0.000
 RMSDP=1.42D-04 MaxDP=4.20D-03 DE=-1.01D-02 OVMax= 9.91D-03

 Cycle   6  Pass 0  IDiag  1:
 E= -316.357064641680     Delta-E=       -0.000315159251 Rises=F Damp=F
 DIIS: error= 3.81D-04 at cycle   6 NSaved=   6.
 NSaved= 6 IEnMin= 6 EnMin= -316.357064641680     IErMin= 6 ErrMin= 3.81D-04
 ErrMax= 3.81D-04  0.00D+00 EMaxC= 1.00D-01 BMatC= 5.44D-05 BMatP= 4.26D-04
 IDIUse=3 WtCom= 9.96D-01 WtEn= 3.81D-03
 Coeff-Com: -0.906D-03 0.183D-02 0.523D-01 0.119D+00 0.363D+00 0.465D+00
 Coeff-En:   0.000D+00 0.000D+00 0.000D+00 0.000D+00 0.473D-01 0.953D+00
 Coeff:     -0.902D-03 0.182D-02 0.521D-01 0.118D+00 0.362D+00 0.467D+00
 Gap=     0.233 Goal=   None    Shift=    0.000
 RMSDP=5.09D-05 MaxDP=1.75D-03 DE=-3.15D-04 OVMax= 2.78D-03

 Cycle   7  Pass 0  IDiag  1:
 E= -316.357100833820     Delta-E=       -0.000036192141 Rises=F Damp=F
 DIIS: error= 1.36D-04 at cycle   7 NSaved=   7.
 NSaved= 7 IEnMin= 7 EnMin= -316.357100833820     IErMin= 7 ErrMin= 1.36D-04
 ErrMax= 1.36D-04  0.00D+00 EMaxC= 1.00D-01 BMatC= 8.79D-06 BMatP= 5.44D-05
 IDIUse=3 WtCom= 9.99D-01 WtEn= 1.36D-03
 Coeff-Com: -0.102D-02-0.412D-03 0.127D-01 0.280D-01 0.131D+00 0.309D+00
 Coeff-Com:  0.521D+00
 Coeff-En:   0.000D+00 0.000D+00 0.000D+00 0.000D+00 0.000D+00 0.141D+00
 Coeff-En:   0.859D+00
 Coeff:     -0.102D-02-0.412D-03 0.127D-01 0.280D-01 0.131D+00 0.309D+00
 Coeff:      0.521D+00
 Gap=     0.233 Goal=   None    Shift=    0.000
 RMSDP=1.74D-05 MaxDP=5.41D-04 DE=-3.62D-05 OVMax= 1.08D-03

 Cycle   8  Pass 0  IDiag  1:
 E= -316.357107603647     Delta-E=       -0.000006769827 Rises=F Damp=F
 DIIS: error= 3.35D-05 at cycle   8 NSaved=   8.
 NSaved= 8 IEnMin= 8 EnMin= -316.357107603647     IErMin= 8 ErrMin= 3.35D-05
 ErrMax= 3.35D-05  0.00D+00 EMaxC= 1.00D-01 BMatC= 3.43D-07 BMatP= 8.79D-06
 IDIUse=1 WtCom= 1.00D+00 WtEn= 0.00D+00
 Coeff-Com: -0.438D-03-0.188D-03 0.289D-02 0.492D-02 0.392D-01 0.111D+00
 Coeff-Com:  0.246D+00 0.597D+00
 Coeff:     -0.438D-03-0.188D-03 0.289D-02 0.492D-02 0.392D-01 0.111D+00
 Coeff:      0.246D+00 0.597D+00
 Gap=     0.233 Goal=   None    Shift=    0.000
 RMSDP=4.03D-06 MaxDP=1.39D-04 DE=-6.77D-06 OVMax= 1.69D-04

 Initial convergence to 1.0D-05 achieved.  Increase integral accuracy.
 Cycle   9  Pass 1  IDiag  1:
 E= -316.357106577962     Delta-E=        0.000001025685 Rises=F Damp=F
 DIIS: error= 2.75D-05 at cycle   1 NSaved=   1.
 NSaved= 1 IEnMin= 1 EnMin= -316.357106577962     IErMin= 1 ErrMin= 2.75D-05
 ErrMax= 2.75D-05  0.00D+00 EMaxC= 1.00D-01 BMatC= 1.24D-07 BMatP= 1.24D-07
 IDIUse=1 WtCom= 1.00D+00 WtEn= 0.00D+00
 Coeff-Com:  0.100D+01
 Coeff:      0.100D+01
 Gap=     0.233 Goal=   None    Shift=    0.000
 RMSDP=4.03D-06 MaxDP=1.39D-04 DE= 1.03D-06 OVMax= 1.48D-04

 Cycle  10  Pass 1  IDiag  1:
 E= -316.357106552230     Delta-E=        0.000000025732 Rises=F Damp=F
 DIIS: error= 2.43D-05 at cycle   2 NSaved=   2.
 NSaved= 2 IEnMin= 1 EnMin= -316.357106577962     IErMin= 2 ErrMin= 2.43D-05
 ErrMax= 2.43D-05  0.00D+00 EMaxC= 1.00D-01 BMatC= 1.47D-07 BMatP= 1.24D-07
 IDIUse=1 WtCom= 1.00D+00 WtEn= 0.00D+00
 Coeff-Com:  0.526D+00 0.474D+00
 Coeff:      0.526D+00 0.474D+00
 Gap=     0.233 Goal=   None    Shift=    0.000
 RMSDP=2.43D-06 MaxDP=9.56D-05 DE= 2.57D-08 OVMax= 1.09D-04

 Cycle  11  Pass 1  IDiag  1:
 E= -316.357106659432     Delta-E=       -0.000000107202 Rises=F Damp=F
 DIIS: error= 6.60D-06 at cycle   3 NSaved=   3.
 NSaved= 3 IEnMin= 3 EnMin= -316.357106659432     IErMin= 3 ErrMin= 6.60D-06
 ErrMax= 6.60D-06  0.00D+00 EMaxC= 1.00D-01 BMatC= 1.07D-08 BMatP= 1.24D-07
 IDIUse=1 WtCom= 1.00D+00 WtEn= 0.00D+00
 Coeff-Com:  0.200D-01 0.211D+00 0.769D+00
 Coeff:      0.200D-01 0.211D+00 0.769D+00
 Gap=     0.233 Goal=   None    Shift=    0.000
 RMSDP=6.63D-07 MaxDP=2.31D-05 DE=-1.07D-07 OVMax= 4.34D-05

 Cycle  12  Pass 1  IDiag  1:
 E= -316.357106664696     Delta-E=       -0.000000005264 Rises=F Damp=F
 DIIS: error= 3.59D-06 at cycle   4 NSaved=   4.
 NSaved= 4 IEnMin= 4 EnMin= -316.357106664696     IErMin= 4 ErrMin= 3.59D-06
 ErrMax= 3.59D-06  0.00D+00 EMaxC= 1.00D-01 BMatC= 3.56D-09 BMatP= 1.07D-08
 IDIUse=1 WtCom= 1.00D+00 WtEn= 0.00D+00
 Coeff-Com: -0.896D-02 0.126D+00 0.533D+00 0.349D+00
 Coeff:     -0.896D-02 0.126D+00 0.533D+00 0.349D+00
 Gap=     0.233 Goal=   None    Shift=    0.000
 RMSDP=3.98D-07 MaxDP=1.69D-05 DE=-5.26D-09 OVMax= 3.09D-05

 Cycle  13  Pass 1  IDiag  1:
 E= -316.357106667525     Delta-E=       -0.000000002829 Rises=F Damp=F
 DIIS: error= 8.24D-07 at cycle   5 NSaved=   5.
 NSaved= 5 IEnMin= 5 EnMin= -316.357106667525     IErMin= 5 ErrMin= 8.24D-07
 ErrMax= 8.24D-07  0.00D+00 EMaxC= 1.00D-01 BMatC= 1.64D-10 BMatP= 3.56D-09
 IDIUse=1 WtCom= 1.00D+00 WtEn= 0.00D+00
 Coeff-Com: -0.634D-02 0.592D-01 0.257D+00 0.229D+00 0.461D+00
 Coeff:     -0.634D-02 0.592D-01 0.257D+00 0.229D+00 0.461D+00
 Gap=     0.233 Goal=   None    Shift=    0.000
 RMSDP=7.24D-08 MaxDP=2.61D-06 DE=-2.83D-09 OVMax= 5.04D-06

 Cycle  14  Pass 1  IDiag  1:
 E= -316.357106667653     Delta-E=       -0.000000000128 Rises=F Damp=F
 DIIS: error= 1.55D-07 at cycle   6 NSaved=   6.
 NSaved= 6 IEnMin= 6 EnMin= -316.357106667653     IErMin= 6 ErrMin= 1.55D-07
 ErrMax= 1.55D-07  0.00D+00 EMaxC= 1.00D-01 BMatC= 8.78D-12 BMatP= 1.64D-10
 IDIUse=1 WtCom= 1.00D+00 WtEn= 0.00D+00
 Coeff-Com: -0.288D-02 0.236D-01 0.102D+00 0.108D+00 0.247D+00 0.522D+00
 Coeff:     -0.288D-02 0.236D-01 0.102D+00 0.108D+00 0.247D+00 0.522D+00
 Gap=     0.233 Goal=   None    Shift=    0.000
 RMSDP=1.68D-08 MaxDP=6.17D-07 DE=-1.28D-10 OVMax= 7.53D-07

 Cycle  15  Pass 1  IDiag  1:
 E= -316.357106667669     Delta-E=       -0.000000000015 Rises=F Damp=F
 DIIS: error= 6.17D-08 at cycle   7 NSaved=   7.
 NSaved= 7 IEnMin= 7 EnMin= -316.357106667669     IErMin= 7 ErrMin= 6.17D-08
 ErrMax= 6.17D-08  0.00D+00 EMaxC= 1.00D-01 BMatC= 1.57D-12 BMatP= 8.78D-12
 IDIUse=1 WtCom= 1.00D+00 WtEn= 0.00D+00
 Coeff-Com: -0.515D-03 0.276D-02 0.115D-01 0.232D-01 0.574D-01 0.318D+00
 Coeff-Com:  0.588D+00
 Coeff:     -0.515D-03 0.276D-02 0.115D-01 0.232D-01 0.574D-01 0.318D+00
 Coeff:      0.588D+00
 Gap=     0.233 Goal=   None    Shift=    0.000
 RMSDP=7.77D-09 MaxDP=2.62D-07 DE=-1.53D-11 OVMax= 3.55D-07

 SCF Done:  E(RB3LYP) =  -316.357106668     A.U. after   15 cycles
            NFock= 15  Conv=0.78D-08     -V/T= 2.0055
 KE= 3.146217509134D+02 PE=-1.126640006899D+03 EE= 3.039268835633D+02
 Leave Link  502 at Fri Sep  2 19:31:30 2022, MaxMem= 24159191040 cpu:        53.3
 (Enter /public/home/users/caep010/software/Gaussian09/g09/l601.exe)
 Copying SCF densities to generalized density rwf, IOpCl= 0 IROHF=0.

 **********************************************************************

            Population analysis using the SCF density.

 **********************************************************************

 Orbital symmetries:
       Occupied  (A) (A) (A) (A) (A) (A) (A) (A) (A) (A) (A) (A)
                 (A) (A) (A) (A) (A) (A) (A) (A)
       Virtual   (A) (A) (A) (A) (A) (A) (A) (A) (A) (A) (A) (A)
                 (A) (A) (A) (A) (A) (A) (A) (A) (A) (A) (A) (A)
                 (A) (A) (A) (A) (A) (A) (A) (A) (A) (A) (A) (A)
                 (A) (A) (A) (A) (A) (A) (A) (A) (A) (A) (A) (A)
                 (A) (A) (A) (A) (A) (A) (A) (A) (A) (A) (A) (A)
                 (A) (A) (A) (A) (A) (A) (A) (A) (A) (A) (A) (A)
                 (A) (A) (A) (A) (A) (A) (A) (A) (A) (A) (A) (A)
                 (A) (A) (A) (A) (A) (A) (A) (A) (A) (A) (A) (A)
                 (A) (A) (A) (A) (A) (A) (A) (A) (A) (A) (A) (A)
                 (A) (A) (A) (A) (A) (A) (A) (A) (A) (A) (A) (A)
                 (A) (A) (A) (A) (A) (A) (A) (A) (A) (A) (A) (A)
                 (A) (A) (A)
 The electronic state is 1-A.
 Alpha  occ. eigenvalues --  -19.17792 -19.15972 -14.56918 -14.42372 -14.38520
 Alpha  occ. eigenvalues --   -1.22980  -1.06800  -1.00233  -0.86733  -0.62759
 Alpha  occ. eigenvalues --   -0.58702  -0.57928  -0.53702  -0.51705  -0.48806
 Alpha  occ. eigenvalues --   -0.34341  -0.32740  -0.32020  -0.28554  -0.26457
 Alpha virt. eigenvalues --   -0.03124   0.03744   0.09991   0.11211   0.14651
 Alpha virt. eigenvalues --    0.21998   0.29104   0.34993   0.40469   0.46855
 Alpha virt. eigenvalues --    0.47356   0.49506   0.53479   0.59526   0.64396
 Alpha virt. eigenvalues --    0.64647   0.65810   0.66700   0.71681   0.72091
 Alpha virt. eigenvalues --    0.73534   0.76784   0.79923   0.83515   0.86477
 Alpha virt. eigenvalues --    0.88962   0.91631   0.94101   0.96282   1.01551
 Alpha virt. eigenvalues --    1.02560   1.06625   1.06802   1.09719   1.12704
 Alpha virt. eigenvalues --    1.26312   1.27779   1.32807   1.40274   1.45042
 Alpha virt. eigenvalues --    1.46744   1.50345   1.56172   1.60738   1.62897
 Alpha virt. eigenvalues --    1.63565   1.69059   1.70836   1.72518   1.81112
 Alpha virt. eigenvalues --    1.89720   1.94204   2.04285   2.06899   2.11759
 Alpha virt. eigenvalues --    2.22982   2.40213   2.42776   2.48501   2.55166
 Alpha virt. eigenvalues --    2.73075   2.78693   2.87544   2.96096   2.99908
 Alpha virt. eigenvalues --    3.25341   3.31734   3.33906   3.41714   3.44504
 Alpha virt. eigenvalues --    3.46771   3.54593   3.55764   3.61930   3.74045
 Alpha virt. eigenvalues --    3.82147   3.84550   3.88214   3.96395   4.04141
 Alpha virt. eigenvalues --    4.11464   4.12099   4.15944   4.16009   4.17884
 Alpha virt. eigenvalues --    4.18714   4.25646   4.26171   4.27678   4.27784
 Alpha virt. eigenvalues --    4.38467   4.40973   4.43001   4.45353   4.46470
 Alpha virt. eigenvalues --    4.50151   4.50624   4.58351   4.64902   4.65909
 Alpha virt. eigenvalues --    4.68627   4.77001   4.84125   4.86785   4.93194
 Alpha virt. eigenvalues --    4.97240   5.04054   5.05053   5.09425   5.10128
 Alpha virt. eigenvalues --    5.24247   5.24556   5.28308   5.33753   5.37023
 Alpha virt. eigenvalues --    5.56796   5.57939   5.69259   5.81248   5.87841
 Alpha virt. eigenvalues --    6.00697   6.08308   6.18591   6.25908   6.52298
 Alpha virt. eigenvalues --    6.76858   6.83644   7.01228  11.15201  11.25509
 Alpha virt. eigenvalues --   11.38741  12.33805  13.15853  13.59516  16.02245
          Condensed to atoms (all electrons):
               1          2          3          4          5          6
     1  N    6.642737   0.202626  -0.092386  -0.120921   0.000820   0.333976
     2  N    0.202626   6.892879   0.470837  -0.128186  -0.095241  -0.029884
     3  N   -0.092386   0.470837   5.001796   0.414484   0.613450   0.002295
     4  O   -0.120921  -0.128186   0.414484   8.167494  -0.076745   0.003429
     5  O    0.000820  -0.095241   0.613450  -0.076745   7.946480   0.000026
     6  H    0.333976  -0.029884   0.002295   0.003429   0.000026   0.437421
     7  H    0.334061  -0.030292   0.002364   0.003422   0.000023  -0.029656
     8  H    0.138944  -0.019212  -0.034501   0.205666   0.002580  -0.003273
               7          8
     1  N    0.334061   0.138944
     2  N   -0.030292  -0.019212
     3  N    0.002364  -0.034501
     4  O    0.003422   0.205666
     5  O    0.000023   0.002580
     6  H   -0.029656  -0.003273
     7  H    0.437416  -0.003210
     8  H   -0.003210   0.342783
 Mulliken charges:
               1
     1  N   -0.439858
     2  N   -0.263527
     3  N    0.621661
     4  O   -0.468643
     5  O   -0.391393
     6  H    0.285666
     7  H    0.285872
     8  H    0.370222
 Sum of Mulliken charges =  -0.00000
 Mulliken charges with hydrogens summed into heavy atoms:
               1
     1  N    0.131680
     2  N   -0.263527
     3  N    0.621661
     4  O   -0.098420
     5  O   -0.391393
 Electronic spatial extent (au):  <R**2>=            337.9761
 Charge=             -0.0000 electrons
 Dipole moment (field-independent basis, Debye):
    X=              5.3702    Y=              0.6207    Z=              0.0107  Tot=              5.4059
 Quadrupole moment (field-independent basis, Debye-Ang):
   XX=            -23.1378   YY=            -32.7347   ZZ=            -25.9520
   XY=             -0.1274   XZ=              0.0146   YZ=              0.0022
 Traceless Quadrupole moment (field-independent basis, Debye-Ang):
   XX=              4.1371   YY=             -5.4599   ZZ=              1.3228
   XY=             -0.1274   XZ=              0.0146   YZ=              0.0022
 Octapole moment (field-independent basis, Debye-Ang**2):
  XXX=             24.2579  YYY=              4.7133  ZZZ=              0.0154  XYY=              0.4249
  XXY=              0.1346  XXZ=              0.0107  XZZ=              3.1568  YZZ=              0.5559
  YYZ=              0.0143  XYZ=             -0.0023
 Hexadecapole moment (field-independent basis, Debye-Ang**3):
 XXXX=           -212.4770 YYYY=           -117.4714 ZZZZ=            -23.5387 XXXY=             -7.1417
 XXXZ=              0.0755 YYYX=              4.9624 YYYZ=             -0.0156 ZZZX=              0.0115
 ZZZY=             -0.0158 XXYY=            -60.2361 XXZZ=            -35.1118 YYZZ=            -23.3297
 XXYZ=              0.0005 YYXZ=              0.0134 ZZXY=             -0.5331
 N-N= 1.917342657549D+02 E-N=-1.126640014783D+03  KE= 3.146217509134D+02
 No NMR shielding tensors so no spin-rotation constants.
 Leave Link  601 at Fri Sep  2 19:31:30 2022, MaxMem= 24159191040 cpu:        12.9
 (Enter /public/home/users/caep010/software/Gaussian09/g09/l701.exe)
 Compute integral first derivatives.
 ... and contract with generalized density number  0.
 Leave Link  701 at Fri Sep  2 19:31:31 2022, MaxMem= 24159191040 cpu:        14.5
 (Enter /public/home/users/caep010/software/Gaussian09/g09/l702.exe)
 L702 exits ... SP integral derivatives will be done elsewhere.
 Leave Link  702 at Fri Sep  2 19:31:31 2022, MaxMem= 24159191040 cpu:         0.5
 (Enter /public/home/users/caep010/software/Gaussian09/g09/l703.exe)
 Compute integral first derivatives, UseDBF=F ICtDFT=           0.
 Integral derivatives from FoFJK, PRISM(SPDF).
 Calling FoFJK, ICntrl=      2127 FMM=F ISym2X=0 I1Cent= 0 IOpClX= 0 NMat=1 NMatS=1 NMatT=0.
 FoFJK:  IHMeth= 1 ICntrl=    2127 DoSepK=F KAlg= 0 I1Cent=   0 FoldK=F
 IRaf=         0 NMat=   1 IRICut=       1 DoRegI=T DoRafI=F ISym2E= 0.
 FoFCou: FMM=F IPFlag=           0 FMFlag=      100000 FMFlg1=         800
         NFxFlg=           0 DoJE=F BraDBF=F KetDBF=F FulRan=T
         wScrn=  0.000000 ICntrl=    2127 IOpCl=  0 I1Cent=           0 NGrid=           0
         NMat0=    1 NMatS0=      1 NMatT0=    0 NMatD0=    1 NMtDS0=    0 NMtDT0=    0
 Symmetry not used in FoFCou.
 Leave Link  703 at Fri Sep  2 19:31:32 2022, MaxMem= 24159191040 cpu:        29.0
 (Enter /public/home/users/caep010/software/Gaussian09/g09/l716.exe)
 Dipole        = 2.11278566D+00 2.44190293D-01 4.21614134D-03
 ***** Axes restored to original set *****
 -------------------------------------------------------------------
 Center     Atomic                   Forces (Hartrees/Bohr)
 Number     Number              X              Y              Z
 -------------------------------------------------------------------
      1        7          -0.018689797    0.017648629    0.004014367
      2        7           0.000806380   -0.002248220    0.000893531
      3        7           0.006776367    0.007552240   -0.003187164
      4        8           0.009961708   -0.002210636   -0.002483650
      5        8           0.000863969   -0.000706079   -0.000201731
      6        1           0.000282476    0.001724131    0.000060699
      7        1           0.000589947    0.000858726    0.000709866
      8        1          -0.000591050   -0.022618792    0.000194081
 -------------------------------------------------------------------
 Cartesian Forces:  Max     0.022618792 RMS     0.007704797
 Leave Link  716 at Fri Sep  2 19:31:32 2022, MaxMem= 24159191040 cpu:         0.7
 (Enter /public/home/users/caep010/software/Gaussian09/g09/l103.exe)

 GradGradGradGradGradGradGradGradGradGradGradGradGradGradGradGradGradGrad
 Berny optimization.
 FormGI is forming the generalized inverse of G from B-inverse, IUseBI=4.
 Internal  Forces:  Max     0.023251158 RMS     0.005529036
 Search for a local minimum.
 Step number   1 out of a maximum of   41
 All quantities printed in internal units (Hartrees-Bohrs-Radians)
 RMS Force = .55290D-02 SwitMx=.10000D-02 MixMth= 1
 Mixed Optimization -- RFO/linear search
 Second derivative matrix not updated -- first step.
 ITU=  0
     Eigenvalues ---    0.00356   0.01585   0.02284   0.08553   0.08962
     Eigenvalues ---    0.10015   0.10772   0.19876   0.21740   0.22910
     Eigenvalues ---    0.25000   0.27988   0.37273   0.44422   0.44622
     Eigenvalues ---    0.55174   0.59157   1.00951
 RFO step:  Lambda=-4.01664458D-03 EMin= 3.55564595D-03
 Linear search not attempted -- first point.
 Iteration  1 RMS(Cart)=  0.02767315 RMS(Int)=  0.00046272
 Iteration  2 RMS(Cart)=  0.00039942 RMS(Int)=  0.00012724
 Iteration  3 RMS(Cart)=  0.00000009 RMS(Int)=  0.00012724
 ITry= 1 IFail=0 DXMaxC= 8.09D-02 DCOld= 1.00D+10 DXMaxT= 3.00D-01 DXLimC= 3.00D+00 Rises=F
 Variable       Old X    -DE/DX   Delta X   Delta X   Delta X     New X
                                 (Linear)    (Quad)   (Total)
    R1        2.73091   0.00410   0.00000   0.01169   0.01171   2.74262
    R2        1.92417   0.00028   0.00000   0.00063   0.00063   1.92481
    R3        1.92653  -0.00076   0.00000  -0.00170  -0.00170   1.92483
    R4        2.36102   0.02325   0.00000   0.10538   0.10553   2.46655
    R5        2.50342   0.00301   0.00000   0.00558   0.00544   2.50885
    R6        2.50535   0.00584   0.00000   0.00929   0.00917   2.51453
    R7        2.28260   0.00061   0.00000   0.00060   0.00060   2.28321
    R8        2.18035   0.01228   0.00000   0.04082   0.04091   2.22126
    A1        1.92388  -0.00064   0.00000  -0.01210  -0.01209   1.91179
    A2        1.91506   0.00027   0.00000  -0.00307  -0.00306   1.91200
    A3        1.58287  -0.00274   0.00000  -0.01829  -0.01810   1.56477
    A4        1.89813  -0.00036   0.00000   0.00175   0.00154   1.89967
    A5        2.05747   0.00142   0.00000   0.01251   0.01230   2.06977
    A6        2.05716   0.00143   0.00000   0.01175   0.01150   2.06866
    A7        1.79092   0.00870   0.00000   0.03992   0.03974   1.83066
    A8        2.04565  -0.00107   0.00000  -0.00312  -0.00340   2.04225
    A9        2.12172   0.00162   0.00000   0.00586   0.00591   2.12763
   A10        2.11581  -0.00054   0.00000  -0.00265  -0.00259   2.11322
   A11        1.56219   0.00411   0.00000   0.01926   0.01917   1.58136
   A12        2.44308  -0.00900   0.00000  -0.03756  -0.03738   2.40570
    D1        2.09490   0.00053   0.00000   0.01012   0.01017   2.10507
    D2       -2.09833  -0.00014   0.00000   0.00281   0.00273  -2.09560
    D3       -0.00288   0.00031   0.00000   0.00718   0.00703   0.00415
    D4       -0.00589  -0.00018   0.00000   0.00661   0.00659   0.00070
    D5       -1.98563   0.00181   0.00000   0.02821   0.02834  -1.95728
    D6        1.96357  -0.00112   0.00000  -0.00475  -0.00489   1.95869
    D7        0.00894  -0.00039   0.00000  -0.01693  -0.01701  -0.00807
    D8       -3.13797  -0.00002   0.00000   0.00220   0.00226  -3.13571
    D9       -0.01004   0.00026   0.00000   0.01722   0.01731   0.00728
   D10        3.13686  -0.00013   0.00000  -0.00187  -0.00182   3.13504
   D11        0.01058  -0.00005   0.00000  -0.01563  -0.01553  -0.00494
         Item               Value     Threshold  Converged?
 Maximum Force            0.023251     0.000450     NO 
 RMS     Force            0.005529     0.000300     NO 
 Maximum Displacement     0.080919     0.001800     NO 
 RMS     Displacement     0.027480     0.001200     NO 
 Predicted change in Energy=-2.047918D-03
 Lowest energy point so far.  Saving SCF results.
 GradGradGradGradGradGradGradGradGradGradGradGradGradGradGradGradGradGrad

 Leave Link  103 at Fri Sep  2 19:31:32 2022, MaxMem= 24159191040 cpu:         2.6
 (Enter /public/home/users/caep010/software/Gaussian09/g09/l202.exe)
                          Input orientation:                          
 ---------------------------------------------------------------------
 Center     Atomic      Atomic             Coordinates (Angstroms)
 Number     Number       Type             X           Y           Z
 ---------------------------------------------------------------------
      1          7           0       -0.989547    0.077748    0.311323
      2          7           0        0.119429    0.938255   -0.057538
      3          7           0        1.108782    0.107460   -0.363407
      4          8           0        0.859671   -1.195091   -0.254392
      5          8           0        2.194219    0.507864   -0.711690
      6          1           0       -1.274710    0.280759    1.267849
      7          1           0       -1.777239    0.251406   -0.310677
      8          1           0       -0.240607   -0.968403    0.091531
 ---------------------------------------------------------------------
                    Distance matrix (angstroms):
                    1          2          3          4          5
     1  N    0.000000
     2  N    1.451330   0.000000
     3  N    2.204343   1.327628   0.000000
     4  O    2.315115   2.266688   1.330631   0.000000
     5  O    3.371634   2.217634   1.208220   2.211378   0.000000
     6  H    1.018564   2.032874   2.893451   3.008476   4.000452
     7  H    1.018577   2.033025   2.890090   3.008125   3.999882
     8  H    1.305240   1.946071   1.784741   1.175441   2.958530
                    6          7          8
     6  H    0.000000
     7  H    1.656847   0.000000
     8  H    2.003371   2.002734   0.000000
 Stoichiometry    H3N3O2
 Framework group  C1[X(H3N3O2)]
 Deg. of freedom    18
 Full point group                 C1      NOp   1
 RotChk:  IX=2 Diff= 8.96D-03
 Largest Abelian subgroup         C1      NOp   1
 Largest concise Abelian subgroup C1      NOp   1
                         Standard orientation:                         
 ---------------------------------------------------------------------
 Center     Atomic      Atomic             Coordinates (Angstroms)
 Number     Number       Type             X           Y           Z
 ---------------------------------------------------------------------
      1          7           0        1.636991   -0.039350    0.000137
      2          7           0        0.463205   -0.892923    0.001188
      3          7           0       -0.567287   -0.055872   -0.004010
      4          8           0       -0.288984    1.245321    0.001072
      5          8           0       -1.709619   -0.449374    0.001356
      6          1           0        2.198383   -0.231146    0.828101
      7          1           0        2.197083   -0.231055   -0.828745
      8          1           0        0.862994    1.011640    0.000023
 ---------------------------------------------------------------------
 Rotational constants (GHZ):     12.0950326      4.8297051      3.5179675
 Leave Link  202 at Fri Sep  2 19:31:32 2022, MaxMem= 24159191040 cpu:         0.2
 (Enter /public/home/users/caep010/software/Gaussian09/g09/l301.exe)
 Standard basis: GTBas3 (6D, 7F)
 Ernie: Thresh=  0.10000D-02 Tol=  0.10000D-05 Strict=F.
 There are   170 symmetry adapted cartesian basis functions of A   symmetry.
 There are   155 symmetry adapted basis functions of A   symmetry.
   155 basis functions,   241 primitive gaussians,   170 cartesian basis functions
    20 alpha electrons       20 beta electrons
       nuclear repulsion energy       190.4062286654 Hartrees.
 IExCor=  402 DFT=T Ex+Corr=B3LYP ExCW=0 ScaHFX=  0.200000
 ScaDFX=  0.800000  0.720000  1.000000  0.810000 ScalE2=  1.000000  1.000000
 IRadAn=      0 IRanWt=     -1 IRanGd=            0 ICorTp=0 IEmpDi=  4
 NAtoms=    8 NActive=    8 NUniq=    8 SFac= 1.00D+00 NAtFMM=   60 NAOKFM=F Big=F
 Integral buffers will be    131072 words long.
 Raffenetti 2 integral format.
 Two-electron integral symmetry is turned on.
 Leave Link  301 at Fri Sep  2 19:31:32 2022, MaxMem= 24159191040 cpu:         1.9
 (Enter /public/home/users/caep010/software/Gaussian09/g09/l302.exe)
 NPDir=0 NMtPBC=     1 NCelOv=     1 NCel=       1 NClECP=     1 NCelD=      1
         NCelK=      1 NCelE2=     1 NClLst=     1 CellRange=     0.0.
 One-electron integrals computed using PRISM.
 NBasis=   155 RedAO= T EigKep=  2.84D-04  NBF=   155
 NBsUse=   155 1.00D-06 EigRej= -1.00D+00 NBFU=   155
 Precomputing XC quadrature grid using
 IXCGrd= 4 IRadAn=           0 IRanWt=          -1 IRanGd=           0 AccXCQ= 0.00D+00.
 Generated NRdTot=       0 NPtTot=           0 NUsed=           0 NTot=          32
 NSgBfM=   170   170   170   170   170 MxSgAt=     8 MxSgA2=     8.
 Leave Link  302 at Fri Sep  2 19:31:33 2022, MaxMem= 24159191040 cpu:        13.7
 (Enter /public/home/users/caep010/software/Gaussian09/g09/l303.exe)
 DipDrv:  MaxL=1.
 Leave Link  303 at Fri Sep  2 19:31:33 2022, MaxMem= 24159191040 cpu:         0.7
 (Enter /public/home/users/caep010/software/Gaussian09/g09/l401.exe)
 Initial guess from the checkpoint file:  "G4.Frag_1135.chk"
 B after Tr=    -0.000000   -0.000000    0.000000
         Rot=    0.999983    0.000018    0.000010   -0.005846 Ang=   0.67 deg.
 Guess basis will be translated and rotated to current coordinates.
 JPrj=2 DoOrth=T DoCkMO=T.
 Generating alternative initial guess.
 ExpMin= 1.61D-01 ExpMax= 5.48D+03 ExpMxC= 8.25D+02 IAcc=1 IRadAn=         1 AccDes= 0.00D+00
 Harris functional with IExCor=  402 and IRadAn=       1 diagonalized for initial guess.
 HarFok:  IExCor=  402 AccDes= 0.00D+00 IRadAn=         1 IDoV= 1 UseB2=F ITyADJ=14
 ICtDFT=  3500011 ScaDFX=  1.000000  1.000000  1.000000  1.000000
 FoFCou: FMM=F IPFlag=           0 FMFlag=      100000 FMFlg1=           0
         NFxFlg=           0 DoJE=T BraDBF=F KetDBF=T FulRan=T
         wScrn=  0.000000 ICntrl=     500 IOpCl=  0 I1Cent=   200000004 NGrid=           0
         NMat0=    1 NMatS0=      1 NMatT0=    0 NMatD0=    1 NMtDS0=    0 NMtDT0=    0
 Petite list used in FoFCou.
 Harris En= -316.375463526976    
 Leave Link  401 at Fri Sep  2 19:31:33 2022, MaxMem= 24159191040 cpu:        14.2
 (Enter /public/home/users/caep010/software/Gaussian09/g09/l502.exe)
 Closed shell SCF:
 Using DIIS extrapolation, IDIIS=  1040.
 Integral symmetry usage will be decided dynamically.
 Keep R1 ints in memory in canonical form, NReq=75702035.
 IVT=      111920 IEndB=      111920 NGot= 24159191040 MDV= 24085989026
 LenX= 24085989026 LenY= 24085959685
 Requested convergence on RMS density matrix=1.00D-08 within 128 cycles.
 Requested convergence on MAX density matrix=1.00D-06.
 Requested convergence on             energy=1.00D-06.
 No special actions if energy rises.
 FoFCou: FMM=F IPFlag=           0 FMFlag=           0 FMFlg1=           0
         NFxFlg=           0 DoJE=F BraDBF=F KetDBF=F FulRan=T
         wScrn=  0.000000 ICntrl=     600 IOpCl=  0 I1Cent=           0 NGrid=           0
         NMat0=    1 NMatS0=  12090 NMatT0=    0 NMatD0=    1 NMtDS0=    0 NMtDT0=    0
 Symmetry not used in FoFCou.
 Integral accuracy reduced to 1.0D-05 until final iterations.

 Cycle   1  Pass 0  IDiag  1:
 E= -316.358218765302    
 DIIS: error= 1.60D-03 at cycle   1 NSaved=   1.
 NSaved= 1 IEnMin= 1 EnMin= -316.358218765302     IErMin= 1 ErrMin= 1.60D-03
 ErrMax= 1.60D-03  0.00D+00 EMaxC= 1.00D-01 BMatC= 9.79D-04 BMatP= 9.79D-04
 IDIUse=3 WtCom= 9.84D-01 WtEn= 1.60D-02
 Coeff-Com:  0.100D+01
 Coeff-En:   0.100D+01
 Coeff:      0.100D+01
 Gap=     1.146 Goal=   None    Shift=    0.000
 GapD=    1.146 DampG=2.000 DampE=1.000 DampFc=2.0000 IDamp=-1.
 RMSDP=3.05D-04 MaxDP=6.41D-03              OVMax= 1.15D-02

 Cycle   2  Pass 0  IDiag  1:
 E= -316.359256148876     Delta-E=       -0.001037383574 Rises=F Damp=F
 DIIS: error= 5.41D-04 at cycle   2 NSaved=   2.
 NSaved= 2 IEnMin= 2 EnMin= -316.359256148876     IErMin= 2 ErrMin= 5.41D-04
 ErrMax= 5.41D-04  0.00D+00 EMaxC= 1.00D-01 BMatC= 8.15D-05 BMatP= 9.79D-04
 IDIUse=3 WtCom= 9.95D-01 WtEn= 5.41D-03
 Coeff-Com:  0.899D-01 0.910D+00
 Coeff-En:   0.000D+00 0.100D+01
 Coeff:      0.894D-01 0.911D+00
 Gap=     0.232 Goal=   None    Shift=    0.000
 RMSDP=1.15D-04 MaxDP=3.55D-03 DE=-1.04D-03 OVMax= 7.31D-03

 Cycle   3  Pass 0  IDiag  1:
 E= -316.359160199282     Delta-E=        0.000095949593 Rises=F Damp=F
 DIIS: error= 7.06D-04 at cycle   3 NSaved=   3.
 NSaved= 3 IEnMin= 2 EnMin= -316.359256148876     IErMin= 2 ErrMin= 5.41D-04
 ErrMax= 7.06D-04  0.00D+00 EMaxC= 1.00D-01 BMatC= 1.95D-04 BMatP= 8.15D-05
 IDIUse=3 WtCom= 2.73D-01 WtEn= 7.27D-01
 Coeff-Com: -0.647D-02 0.619D+00 0.388D+00
 Coeff-En:   0.000D+00 0.682D+00 0.318D+00
 Coeff:     -0.177D-02 0.665D+00 0.337D+00
 Gap=     0.232 Goal=   None    Shift=    0.000
 RMSDP=8.31D-05 MaxDP=3.26D-03 DE= 9.59D-05 OVMax= 6.82D-03

 Cycle   4  Pass 0  IDiag  1:
 E= -316.359317770383     Delta-E=       -0.000157571100 Rises=F Damp=F
 DIIS: error= 1.53D-04 at cycle   4 NSaved=   4.
 NSaved= 4 IEnMin= 4 EnMin= -316.359317770383     IErMin= 4 ErrMin= 1.53D-04
 ErrMax= 1.53D-04  0.00D+00 EMaxC= 1.00D-01 BMatC= 8.91D-06 BMatP= 8.15D-05
 IDIUse=3 WtCom= 9.98D-01 WtEn= 1.53D-03
 Coeff-Com: -0.155D-01 0.297D+00 0.201D+00 0.517D+00
 Coeff-En:   0.000D+00 0.000D+00 0.000D+00 0.100D+01
 Coeff:     -0.155D-01 0.297D+00 0.201D+00 0.518D+00
 Gap=     0.232 Goal=   None    Shift=    0.000
 RMSDP=1.91D-05 MaxDP=5.76D-04 DE=-1.58D-04 OVMax= 1.12D-03

 Cycle   5  Pass 0  IDiag  1:
 E= -316.359324271494     Delta-E=       -0.000006501111 Rises=F Damp=F
 DIIS: error= 7.13D-05 at cycle   5 NSaved=   5.
 NSaved= 5 IEnMin= 5 EnMin= -316.359324271494     IErMin= 5 ErrMin= 7.13D-05
 ErrMax= 7.13D-05  0.00D+00 EMaxC= 1.00D-01 BMatC= 9.75D-07 BMatP= 8.91D-06
 IDIUse=1 WtCom= 1.00D+00 WtEn= 0.00D+00
 Coeff-Com: -0.739D-02 0.110D+00 0.857D-01 0.280D+00 0.531D+00
 Coeff:     -0.739D-02 0.110D+00 0.857D-01 0.280D+00 0.531D+00
 Gap=     0.232 Goal=   None    Shift=    0.000
 RMSDP=5.80D-06 MaxDP=2.74D-04 DE=-6.50D-06 OVMax= 2.84D-04

 Initial convergence to 1.0D-05 achieved.  Increase integral accuracy.
 Cycle   6  Pass 1  IDiag  1:
 E= -316.359322057409     Delta-E=        0.000002214085 Rises=F Damp=F
 DIIS: error= 2.76D-05 at cycle   1 NSaved=   1.
 NSaved= 1 IEnMin= 1 EnMin= -316.359322057409     IErMin= 1 ErrMin= 2.76D-05
 ErrMax= 2.76D-05  0.00D+00 EMaxC= 1.00D-01 BMatC= 1.37D-07 BMatP= 1.37D-07
 IDIUse=1 WtCom= 1.00D+00 WtEn= 0.00D+00
 Coeff-Com:  0.100D+01
 Coeff:      0.100D+01
 Gap=     0.232 Goal=   None    Shift=    0.000
 RMSDP=5.80D-06 MaxDP=2.74D-04 DE= 2.21D-06 OVMax= 2.32D-04

 Cycle   7  Pass 1  IDiag  1:
 E= -316.359321935539     Delta-E=        0.000000121870 Rises=F Damp=F
 DIIS: error= 2.43D-05 at cycle   2 NSaved=   2.
 NSaved= 2 IEnMin= 1 EnMin= -316.359322057409     IErMin= 2 ErrMin= 2.43D-05
 ErrMax= 2.43D-05  0.00D+00 EMaxC= 1.00D-01 BMatC= 2.76D-07 BMatP= 1.37D-07
 IDIUse=1 WtCom= 1.00D+00 WtEn= 0.00D+00
 Coeff-Com:  0.601D+00 0.399D+00
 Coeff:      0.601D+00 0.399D+00
 Gap=     0.232 Goal=   None    Shift=    0.000
 RMSDP=3.58D-06 MaxDP=1.66D-04 DE= 1.22D-07 OVMax= 2.90D-04

 Cycle   8  Pass 1  IDiag  1:
 E= -316.359322128412     Delta-E=       -0.000000192873 Rises=F Damp=F
 DIIS: error= 1.05D-05 at cycle   3 NSaved=   3.
 NSaved= 3 IEnMin= 3 EnMin= -316.359322128412     IErMin= 3 ErrMin= 1.05D-05
 ErrMax= 1.05D-05  0.00D+00 EMaxC= 1.00D-01 BMatC= 3.81D-08 BMatP= 1.37D-07
 IDIUse=1 WtCom= 1.00D+00 WtEn= 0.00D+00
 Coeff-Com:  0.172D+00 0.268D+00 0.559D+00
 Coeff:      0.172D+00 0.268D+00 0.559D+00
 Gap=     0.232 Goal=   None    Shift=    0.000
 RMSDP=1.56D-06 MaxDP=6.42D-05 DE=-1.93D-07 OVMax= 1.23D-04

 Cycle   9  Pass 1  IDiag  1:
 E= -316.359322152604     Delta-E=       -0.000000024192 Rises=F Damp=F
 DIIS: error= 5.05D-06 at cycle   4 NSaved=   4.
 NSaved= 4 IEnMin= 4 EnMin= -316.359322152604     IErMin= 4 ErrMin= 5.05D-06
 ErrMax= 5.05D-06  0.00D+00 EMaxC= 1.00D-01 BMatC= 9.69D-09 BMatP= 3.81D-08
 IDIUse=1 WtCom= 1.00D+00 WtEn= 0.00D+00
 Coeff-Com:  0.427D-02 0.117D+00 0.401D+00 0.478D+00
 Coeff:      0.427D-02 0.117D+00 0.401D+00 0.478D+00
 Gap=     0.232 Goal=   None    Shift=    0.000
 RMSDP=5.54D-07 MaxDP=2.08D-05 DE=-2.42D-08 OVMax= 3.53D-05

 Cycle  10  Pass 1  IDiag  1:
 E= -316.359322160100     Delta-E=       -0.000000007496 Rises=F Damp=F
 DIIS: error= 9.26D-07 at cycle   5 NSaved=   5.
 NSaved= 5 IEnMin= 5 EnMin= -316.359322160100     IErMin= 5 ErrMin= 9.26D-07
 ErrMax= 9.26D-07  0.00D+00 EMaxC= 1.00D-01 BMatC= 2.79D-10 BMatP= 9.69D-09
 IDIUse=1 WtCom= 1.00D+00 WtEn= 0.00D+00
 Coeff-Com: -0.780D-02 0.474D-01 0.179D+00 0.254D+00 0.528D+00
 Coeff:     -0.780D-02 0.474D-01 0.179D+00 0.254D+00 0.528D+00
 Gap=     0.232 Goal=   None    Shift=    0.000
 RMSDP=9.40D-08 MaxDP=2.60D-06 DE=-7.50D-09 OVMax= 3.80D-06

 Cycle  11  Pass 1  IDiag  1:
 E= -316.359322160310     Delta-E=       -0.000000000210 Rises=F Damp=F
 DIIS: error= 2.32D-07 at cycle   6 NSaved=   6.
 NSaved= 6 IEnMin= 6 EnMin= -316.359322160310     IErMin= 6 ErrMin= 2.32D-07
 ErrMax= 2.32D-07  0.00D+00 EMaxC= 1.00D-01 BMatC= 1.56D-11 BMatP= 2.79D-10
 IDIUse=1 WtCom= 1.00D+00 WtEn= 0.00D+00
 Coeff-Com: -0.431D-02 0.221D-01 0.829D-01 0.121D+00 0.289D+00 0.489D+00
 Coeff:     -0.431D-02 0.221D-01 0.829D-01 0.121D+00 0.289D+00 0.489D+00
 Gap=     0.232 Goal=   None    Shift=    0.000
 RMSDP=2.65D-08 MaxDP=8.17D-07 DE=-2.10D-10 OVMax= 1.35D-06

 Cycle  12  Pass 1  IDiag  1:
 E= -316.359322160319     Delta-E=       -0.000000000008 Rises=F Damp=F
 DIIS: error= 7.39D-08 at cycle   7 NSaved=   7.
 NSaved= 7 IEnMin= 7 EnMin= -316.359322160319     IErMin= 7 ErrMin= 7.39D-08
 ErrMax= 7.39D-08  0.00D+00 EMaxC= 1.00D-01 BMatC= 2.29D-12 BMatP= 1.56D-11
 IDIUse=1 WtCom= 1.00D+00 WtEn= 0.00D+00
 Coeff-Com: -0.742D-03 0.267D-02 0.797D-02 0.144D-01 0.499D-01 0.279D+00
 Coeff-Com:  0.646D+00
 Coeff:     -0.742D-03 0.267D-02 0.797D-02 0.144D-01 0.499D-01 0.279D+00
 Coeff:      0.646D+00
 Gap=     0.232 Goal=   None    Shift=    0.000
 RMSDP=9.26D-09 MaxDP=3.26D-07 DE=-8.36D-12 OVMax= 4.36D-07

 SCF Done:  E(RB3LYP) =  -316.359322160     A.U. after   12 cycles
            NFock= 12  Conv=0.93D-08     -V/T= 2.0059
 KE= 3.144966084371D+02 PE=-1.123916001386D+03 EE= 3.026538421228D+02
 Leave Link  502 at Fri Sep  2 19:31:36 2022, MaxMem= 24159191040 cpu:        51.8
 (Enter /public/home/users/caep010/software/Gaussian09/g09/l701.exe)
 Compute integral first derivatives.
 ... and contract with generalized density number  0.
 Leave Link  701 at Fri Sep  2 19:31:37 2022, MaxMem= 24159191040 cpu:        13.4
 (Enter /public/home/users/caep010/software/Gaussian09/g09/l702.exe)
 L702 exits ... SP integral derivatives will be done elsewhere.
 Leave Link  702 at Fri Sep  2 19:31:37 2022, MaxMem= 24159191040 cpu:         0.5
 (Enter /public/home/users/caep010/software/Gaussian09/g09/l703.exe)
 Compute integral first derivatives, UseDBF=F ICtDFT=           0.
 Integral derivatives from FoFJK, PRISM(SPDF).
 Calling FoFJK, ICntrl=      2127 FMM=F ISym2X=0 I1Cent= 0 IOpClX= 0 NMat=1 NMatS=1 NMatT=0.
 FoFJK:  IHMeth= 1 ICntrl=    2127 DoSepK=F KAlg= 0 I1Cent=   0 FoldK=F
 IRaf=         0 NMat=   1 IRICut=       1 DoRegI=T DoRafI=F ISym2E= 0.
 FoFCou: FMM=F IPFlag=           0 FMFlag=      100000 FMFlg1=         800
         NFxFlg=           0 DoJE=F BraDBF=F KetDBF=F FulRan=T
         wScrn=  0.000000 ICntrl=    2127 IOpCl=  0 I1Cent=           0 NGrid=           0
         NMat0=    1 NMatS0=      1 NMatT0=    0 NMatD0=    1 NMtDS0=    0 NMtDT0=    0
 Symmetry not used in FoFCou.
 Leave Link  703 at Fri Sep  2 19:31:38 2022, MaxMem= 24159191040 cpu:        30.5
 (Enter /public/home/users/caep010/software/Gaussian09/g09/l716.exe)
 Dipole        = 2.09605856D+00 2.54540275D-01-3.84313538D-03
 ***** Axes restored to original set *****
 -------------------------------------------------------------------
 Center     Atomic                   Forces (Hartrees/Bohr)
 Number     Number              X              Y              Z
 -------------------------------------------------------------------
      1        7           0.000171772    0.005199003   -0.000327204
      2        7           0.002449103    0.002154230   -0.001585926
      3        7          -0.004316107    0.004406628    0.003797841
      4        8          -0.006860914    0.002250498    0.001298368
      5        8          -0.001665301   -0.000868422   -0.000332733
      6        1           0.000735529    0.000804213   -0.000445865
      7        1           0.000745585    0.000811654   -0.000022939
      8        1           0.008740333   -0.014757804   -0.002381541
 -------------------------------------------------------------------
 Cartesian Forces:  Max     0.014757804 RMS     0.004343152
 Leave Link  716 at Fri Sep  2 19:31:38 2022, MaxMem= 24159191040 cpu:         0.5
 (Enter /public/home/users/caep010/software/Gaussian09/g09/l103.exe)

 GradGradGradGradGradGradGradGradGradGradGradGradGradGradGradGradGradGrad
 Berny optimization.
 Using GEDIIS/GDIIS optimizer.
 FormGI is forming the generalized inverse of G from B-inverse, IUseBI=4.
 Internal  Forces:  Max     0.008608157 RMS     0.003055906
 Search for a local minimum.
 Step number   2 out of a maximum of   41
 All quantities printed in internal units (Hartrees-Bohrs-Radians)
 RMS Force = .30559D-02 SwitMx=.10000D-02 MixMth= 1
 Mixed Optimization -- RFO/linear search
 Update second derivatives using D2CorX and points    1    2
 DE= -2.22D-03 DEPred=-2.05D-03 R= 1.08D+00
 TightC=F SS=  1.41D+00  RLast= 1.38D-01 DXNew= 5.0454D-01 4.1462D-01
 Trust test= 1.08D+00 RLast= 1.38D-01 DXMaxT set to 4.15D-01
 ITU=  1  0
 Use linear search instead of GDIIS.
     Eigenvalues ---    0.00371   0.01617   0.02284   0.08020   0.09128
     Eigenvalues ---    0.09776   0.10697   0.12420   0.20734   0.23782
     Eigenvalues ---    0.24994   0.36354   0.40379   0.44414   0.44665
     Eigenvalues ---    0.56237   0.61283   1.01150
 RFO step:  Lambda=-1.61342783D-03 EMin= 3.71078286D-03
 Quartic linear search produced a step of  0.17831.
 Iteration  1 RMS(Cart)=  0.02148271 RMS(Int)=  0.00047116
 Iteration  2 RMS(Cart)=  0.00042828 RMS(Int)=  0.00030317
 Iteration  3 RMS(Cart)=  0.00000009 RMS(Int)=  0.00030317
 ITry= 1 IFail=0 DXMaxC= 8.99D-02 DCOld= 1.00D+10 DXMaxT= 4.15D-01 DXLimC= 3.00D+00 Rises=F
 Variable       Old X    -DE/DX   Delta X   Delta X   Delta X     New X
                                 (Linear)    (Quad)   (Total)
    R1        2.74262  -0.00101   0.00209  -0.00114   0.00071   2.74333
    R2        1.92481  -0.00046   0.00011  -0.00108  -0.00096   1.92384
    R3        1.92483  -0.00042  -0.00030  -0.00150  -0.00180   1.92303
    R4        2.46655   0.00833   0.01882   0.06798   0.08678   2.55333
    R5        2.50885  -0.00491   0.00097  -0.00774  -0.00682   2.50203
    R6        2.51453   0.00288   0.00164   0.00843   0.01024   2.52477
    R7        2.28321  -0.00169   0.00011  -0.00183  -0.00172   2.28148
    R8        2.22126  -0.00861   0.00730  -0.02650  -0.01905   2.20221
    A1        1.91179  -0.00211  -0.00216  -0.01835  -0.02047   1.89132
    A2        1.91200  -0.00197  -0.00055  -0.01435  -0.01496   1.89703
    A3        1.56477   0.00445  -0.00323   0.02024   0.01672   1.58150
    A4        1.89967   0.00033   0.00027  -0.00077  -0.00079   1.89888
    A5        2.06977  -0.00022   0.00219   0.00551   0.00766   2.07743
    A6        2.06866  -0.00047   0.00205   0.00453   0.00669   2.07535
    A7        1.83066  -0.00368   0.00709  -0.01144  -0.00473   1.82592
    A8        2.04225   0.00350  -0.00061   0.01616   0.01506   2.05731
    A9        2.12763  -0.00139   0.00105  -0.00503  -0.00466   2.12297
   A10        2.11322  -0.00210  -0.00046  -0.01030  -0.01143   2.10179
   A11        1.58136   0.00207   0.00342   0.01854   0.02252   1.60389
   A12        2.40570  -0.00633  -0.00667  -0.04325  -0.04972   2.35598
    D1        2.10507   0.00085   0.00181  -0.00373  -0.00209   2.10298
    D2       -2.09560  -0.00122   0.00049  -0.02451  -0.02369  -2.11929
    D3        0.00415  -0.00031   0.00125  -0.01424  -0.01282  -0.00866
    D4        0.00070  -0.00006   0.00117  -0.00535  -0.00409  -0.00339
    D5       -1.95728  -0.00018   0.00505   0.00287   0.00809  -1.94920
    D6        1.95869   0.00016  -0.00087  -0.00917  -0.01008   1.94861
    D7       -0.00807   0.00060  -0.00303   0.02957   0.02646   0.01839
    D8       -3.13571  -0.00078   0.00040  -0.03801  -0.03800   3.10948
    D9        0.00728  -0.00051   0.00309  -0.02759  -0.02500  -0.01773
   D10        3.13504   0.00086  -0.00032   0.03944   0.03869  -3.10946
   D11       -0.00494   0.00038  -0.00277   0.02092   0.01782   0.01288
         Item               Value     Threshold  Converged?
 Maximum Force            0.008608     0.000450     NO 
 RMS     Force            0.003056     0.000300     NO 
 Maximum Displacement     0.089922     0.001800     NO 
 RMS     Displacement     0.021456     0.001200     NO 
 Predicted change in Energy=-8.336838D-04
 Lowest energy point so far.  Saving SCF results.
 GradGradGradGradGradGradGradGradGradGradGradGradGradGradGradGradGradGrad

 Leave Link  103 at Fri Sep  2 19:31:38 2022, MaxMem= 24159191040 cpu:         0.6
 (Enter /public/home/users/caep010/software/Gaussian09/g09/l202.exe)
                          Input orientation:                          
 ---------------------------------------------------------------------
 Center     Atomic      Atomic             Coordinates (Angstroms)
 Number     Number       Type             X           Y           Z
 ---------------------------------------------------------------------
      1          7           0       -0.992187    0.077933    0.310346
      2          7           0        0.115677    0.942252   -0.054403
      3          7           0        1.106262    0.112266   -0.342302
      4          8           0        0.866301   -1.199431   -0.259214
      5          8           0        2.180056    0.514623   -0.720019
      6          1           0       -1.271540    0.299669    1.263881
      7          1           0       -1.773583    0.268676   -0.313025
      8          1           0       -0.230986   -1.015987    0.087734
 ---------------------------------------------------------------------
                    Distance matrix (angstroms):
                    1          2          3          4          5
     1  N    0.000000
     2  N    1.451707   0.000000
     3  N    2.197866   1.324017   0.000000
     4  O    2.325948   2.278638   1.336051   0.000000
     5  O    3.363849   2.210786   1.207310   2.208229   0.000000
     6  H    1.018054   2.018701   2.875567   3.022827   3.986927
     7  H    1.017622   2.022349   2.884238   3.021129   3.982135
     8  H    1.351164   1.993760   1.801699   1.165360   2.967888
                    6          7          8
     6  H    0.000000
     7  H    1.655186   0.000000
     8  H    2.048664   2.047089   0.000000
 Stoichiometry    H3N3O2
 Framework group  C1[X(H3N3O2)]
 Deg. of freedom    18
 Full point group                 C1      NOp   1
 RotChk:  IX=2 Diff= 4.69D-03
 Largest Abelian subgroup         C1      NOp   1
 Largest concise Abelian subgroup C1      NOp   1
                         Standard orientation:                         
 ---------------------------------------------------------------------
 Center     Atomic      Atomic             Coordinates (Angstroms)
 Number     Number       Type             X           Y           Z
 ---------------------------------------------------------------------
      1          7           0        1.636431   -0.032824   -0.004108
      2          7           0        0.467550   -0.893715    0.001957
      3          7           0       -0.561174   -0.060313    0.015781
      4          8           0       -0.303423    1.250528   -0.001291
      5          8           0       -1.700207   -0.459796   -0.008974
      6          1           0        2.192991   -0.241800    0.822332
      7          1           0        2.189548   -0.239716   -0.832850
      8          1           0        0.846851    1.063627   -0.002769
 ---------------------------------------------------------------------
 Rotational constants (GHZ):     11.9521822      4.8538790      3.5186018
 Leave Link  202 at Fri Sep  2 19:31:38 2022, MaxMem= 24159191040 cpu:         0.2
 (Enter /public/home/users/caep010/software/Gaussian09/g09/l301.exe)
 Standard basis: GTBas3 (6D, 7F)
 Ernie: Thresh=  0.10000D-02 Tol=  0.10000D-05 Strict=F.
 There are   170 symmetry adapted cartesian basis functions of A   symmetry.
 There are   155 symmetry adapted basis functions of A   symmetry.
   155 basis functions,   241 primitive gaussians,   170 cartesian basis functions
    20 alpha electrons       20 beta electrons
       nuclear repulsion energy       190.2607256488 Hartrees.
 IExCor=  402 DFT=T Ex+Corr=B3LYP ExCW=0 ScaHFX=  0.200000
 ScaDFX=  0.800000  0.720000  1.000000  0.810000 ScalE2=  1.000000  1.000000
 IRadAn=      0 IRanWt=     -1 IRanGd=            0 ICorTp=0 IEmpDi=  4
 NAtoms=    8 NActive=    8 NUniq=    8 SFac= 1.00D+00 NAtFMM=   60 NAOKFM=F Big=F
 Integral buffers will be    131072 words long.
 Raffenetti 2 integral format.
 Two-electron integral symmetry is turned on.
 Leave Link  301 at Fri Sep  2 19:31:38 2022, MaxMem= 24159191040 cpu:         1.6
 (Enter /public/home/users/caep010/software/Gaussian09/g09/l302.exe)
 NPDir=0 NMtPBC=     1 NCelOv=     1 NCel=       1 NClECP=     1 NCelD=      1
         NCelK=      1 NCelE2=     1 NClLst=     1 CellRange=     0.0.
 One-electron integrals computed using PRISM.
 NBasis=   155 RedAO= T EigKep=  2.86D-04  NBF=   155
 NBsUse=   155 1.00D-06 EigRej= -1.00D+00 NBFU=   155
 Precomputing XC quadrature grid using
 IXCGrd= 4 IRadAn=           0 IRanWt=          -1 IRanGd=           0 AccXCQ= 0.00D+00.
 Generated NRdTot=       0 NPtTot=           0 NUsed=           0 NTot=          32
 NSgBfM=   170   170   170   170   170 MxSgAt=     8 MxSgA2=     8.
 Leave Link  302 at Fri Sep  2 19:31:38 2022, MaxMem= 24159191040 cpu:        13.9
 (Enter /public/home/users/caep010/software/Gaussian09/g09/l303.exe)
 DipDrv:  MaxL=1.
 Leave Link  303 at Fri Sep  2 19:31:38 2022, MaxMem= 24159191040 cpu:         0.7
 (Enter /public/home/users/caep010/software/Gaussian09/g09/l401.exe)
 Initial guess from the checkpoint file:  "G4.Frag_1135.chk"
 B after Tr=     0.000000    0.000000    0.000000
         Rot=    0.999996   -0.000073   -0.000032   -0.002851 Ang=  -0.33 deg.
 Guess basis will be translated and rotated to current coordinates.
 JPrj=2 DoOrth=T DoCkMO=T.
 Generating alternative initial guess.
 ExpMin= 1.61D-01 ExpMax= 5.48D+03 ExpMxC= 8.25D+02 IAcc=1 IRadAn=         1 AccDes= 0.00D+00
 Harris functional with IExCor=  402 and IRadAn=       1 diagonalized for initial guess.
 HarFok:  IExCor=  402 AccDes= 0.00D+00 IRadAn=         1 IDoV= 1 UseB2=F ITyADJ=14
 ICtDFT=  3500011 ScaDFX=  1.000000  1.000000  1.000000  1.000000
 FoFCou: FMM=F IPFlag=           0 FMFlag=      100000 FMFlg1=           0
         NFxFlg=           0 DoJE=T BraDBF=F KetDBF=T FulRan=T
         wScrn=  0.000000 ICntrl=     500 IOpCl=  0 I1Cent=   200000004 NGrid=           0
         NMat0=    1 NMatS0=      1 NMatT0=    0 NMatD0=    1 NMtDS0=    0 NMtDT0=    0
 Petite list used in FoFCou.
 Harris En= -316.375734378498    
 Leave Link  401 at Fri Sep  2 19:31:39 2022, MaxMem= 24159191040 cpu:        14.5
 (Enter /public/home/users/caep010/software/Gaussian09/g09/l502.exe)
 Closed shell SCF:
 Using DIIS extrapolation, IDIIS=  1040.
 Integral symmetry usage will be decided dynamically.
 Keep R1 ints in memory in canonical form, NReq=75702035.
 IVT=      111920 IEndB=      111920 NGot= 24159191040 MDV= 24085989026
 LenX= 24085989026 LenY= 24085959685
 Requested convergence on RMS density matrix=1.00D-08 within 128 cycles.
 Requested convergence on MAX density matrix=1.00D-06.
 Requested convergence on             energy=1.00D-06.
 No special actions if energy rises.
 FoFCou: FMM=F IPFlag=           0 FMFlag=           0 FMFlg1=           0
         NFxFlg=           0 DoJE=F BraDBF=F KetDBF=F FulRan=T
         wScrn=  0.000000 ICntrl=     600 IOpCl=  0 I1Cent=           0 NGrid=           0
         NMat0=    1 NMatS0=  12090 NMatT0=    0 NMatD0=    1 NMtDS0=    0 NMtDT0=    0
 Symmetry not used in FoFCou.
 Integral accuracy reduced to 1.0D-05 until final iterations.

 Cycle   1  Pass 0  IDiag  1:
 E= -316.358987223877    
 DIIS: error= 1.44D-03 at cycle   1 NSaved=   1.
 NSaved= 1 IEnMin= 1 EnMin= -316.358987223877     IErMin= 1 ErrMin= 1.44D-03
 ErrMax= 1.44D-03  0.00D+00 EMaxC= 1.00D-01 BMatC= 1.05D-03 BMatP= 1.05D-03
 IDIUse=3 WtCom= 9.86D-01 WtEn= 1.44D-02
 Coeff-Com:  0.100D+01
 Coeff-En:   0.100D+01
 Coeff:      0.100D+01
 Gap=     1.148 Goal=   None    Shift=    0.000
 GapD=    1.148 DampG=2.000 DampE=1.000 DampFc=2.0000 IDamp=-1.
 RMSDP=3.55D-04 MaxDP=7.33D-03              OVMax= 1.16D-02

 Cycle   2  Pass 0  IDiag  1:
 E= -316.360304404527     Delta-E=       -0.001317180650 Rises=F Damp=F
 DIIS: error= 5.15D-04 at cycle   2 NSaved=   2.
 NSaved= 2 IEnMin= 2 EnMin= -316.360304404527     IErMin= 2 ErrMin= 5.15D-04
 ErrMax= 5.15D-04  0.00D+00 EMaxC= 1.00D-01 BMatC= 8.93D-05 BMatP= 1.05D-03
 IDIUse=3 WtCom= 9.95D-01 WtEn= 5.15D-03
 Coeff-Com:  0.628D-01 0.937D+00
 Coeff-En:   0.000D+00 0.100D+01
 Coeff:      0.625D-01 0.937D+00
 Gap=     0.233 Goal=   None    Shift=    0.000
 RMSDP=1.22D-04 MaxDP=3.80D-03 DE=-1.32D-03 OVMax= 5.05D-03

 Cycle   3  Pass 0  IDiag  1:
 E= -316.360197409034     Delta-E=        0.000106995492 Rises=F Damp=F
 DIIS: error= 7.88D-04 at cycle   3 NSaved=   3.
 NSaved= 3 IEnMin= 2 EnMin= -316.360304404527     IErMin= 2 ErrMin= 5.15D-04
 ErrMax= 7.88D-04  0.00D+00 EMaxC= 1.00D-01 BMatC= 2.31D-04 BMatP= 8.93D-05
 IDIUse=3 WtCom= 2.63D-01 WtEn= 7.37D-01
 Coeff-Com: -0.347D-01 0.640D+00 0.395D+00
 Coeff-En:   0.000D+00 0.681D+00 0.319D+00
 Coeff:     -0.913D-02 0.670D+00 0.339D+00
 Gap=     0.231 Goal=   None    Shift=    0.000
 RMSDP=7.54D-05 MaxDP=2.56D-03 DE= 1.07D-04 OVMax= 3.75D-03

 Cycle   4  Pass 0  IDiag  1:
 E= -316.360378308516     Delta-E=       -0.000180899482 Rises=F Damp=F
 DIIS: error= 1.32D-04 at cycle   4 NSaved=   4.
 NSaved= 4 IEnMin= 4 EnMin= -316.360378308516     IErMin= 4 ErrMin= 1.32D-04
 ErrMax= 1.32D-04  0.00D+00 EMaxC= 1.00D-01 BMatC= 4.94D-06 BMatP= 8.93D-05
 IDIUse=3 WtCom= 9.99D-01 WtEn= 1.32D-03
 Coeff-Com: -0.246D-01 0.320D+00 0.170D+00 0.535D+00
 Coeff-En:   0.000D+00 0.000D+00 0.000D+00 0.100D+01
 Coeff:     -0.245D-01 0.319D+00 0.170D+00 0.535D+00
 Gap=     0.232 Goal=   None    Shift=    0.000
 RMSDP=1.53D-05 MaxDP=5.11D-04 DE=-1.81D-04 OVMax= 7.44D-04

 Cycle   5  Pass 0  IDiag  1:
 E= -316.360381475932     Delta-E=       -0.000003167416 Rises=F Damp=F
 DIIS: error= 4.70D-05 at cycle   5 NSaved=   5.
 NSaved= 5 IEnMin= 5 EnMin= -316.360381475932     IErMin= 5 ErrMin= 4.70D-05
 ErrMax= 4.70D-05  0.00D+00 EMaxC= 1.00D-01 BMatC= 9.81D-07 BMatP= 4.94D-06
 IDIUse=1 WtCom= 1.00D+00 WtEn= 0.00D+00
 Coeff-Com: -0.829D-02 0.842D-01 0.399D-01 0.322D+00 0.562D+00
 Coeff:     -0.829D-02 0.842D-01 0.399D-01 0.322D+00 0.562D+00
 Gap=     0.232 Goal=   None    Shift=    0.000
 RMSDP=6.90D-06 MaxDP=3.33D-04 DE=-3.17D-06 OVMax= 5.61D-04

 Initial convergence to 1.0D-05 achieved.  Increase integral accuracy.
 Cycle   6  Pass 1  IDiag  1:
 E= -316.360384623387     Delta-E=       -0.000003147455 Rises=F Damp=F
 DIIS: error= 3.01D-05 at cycle   1 NSaved=   1.
 NSaved= 1 IEnMin= 1 EnMin= -316.360384623387     IErMin= 1 ErrMin= 3.01D-05
 ErrMax= 3.01D-05  0.00D+00 EMaxC= 1.00D-01 BMatC= 2.59D-07 BMatP= 2.59D-07
 IDIUse=1 WtCom= 1.00D+00 WtEn= 0.00D+00
 Coeff-Com:  0.100D+01
 Coeff:      0.100D+01
 Gap=     0.232 Goal=   None    Shift=    0.000
 RMSDP=6.90D-06 MaxDP=3.33D-04 DE=-3.15D-06 OVMax= 6.58D-04

 Cycle   7  Pass 1  IDiag  1:
 E= -316.360383741020     Delta-E=        0.000000882367 Rises=F Damp=F
 DIIS: error= 5.84D-05 at cycle   2 NSaved=   2.
 NSaved= 2 IEnMin= 1 EnMin= -316.360384623387     IErMin= 1 ErrMin= 3.01D-05
 ErrMax= 5.84D-05  0.00D+00 EMaxC= 1.00D-01 BMatC= 1.31D-06 BMatP= 2.59D-07
 IDIUse=1 WtCom= 1.00D+00 WtEn= 0.00D+00
 Coeff-Com:  0.704D+00 0.296D+00
 Coeff:      0.704D+00 0.296D+00
 Gap=     0.232 Goal=   None    Shift=    0.000
 RMSDP=6.75D-06 MaxDP=2.88D-04 DE= 8.82D-07 OVMax= 5.73D-04

 Cycle   8  Pass 1  IDiag  1:
 E= -316.360384814776     Delta-E=       -0.000001073756 Rises=F Damp=F
 DIIS: error= 7.36D-06 at cycle   3 NSaved=   3.
 NSaved= 3 IEnMin= 3 EnMin= -316.360384814776     IErMin= 3 ErrMin= 7.36D-06
 ErrMax= 7.36D-06  0.00D+00 EMaxC= 1.00D-01 BMatC= 1.56D-08 BMatP= 2.59D-07
 IDIUse=1 WtCom= 1.00D+00 WtEn= 0.00D+00
 Coeff-Com:  0.117D+00 0.116D+00 0.768D+00
 Coeff:      0.117D+00 0.116D+00 0.768D+00
 Gap=     0.232 Goal=   None    Shift=    0.000
 RMSDP=1.01D-06 MaxDP=3.22D-05 DE=-1.07D-06 OVMax= 6.53D-05

 Cycle   9  Pass 1  IDiag  1:
 E= -316.360384824417     Delta-E=       -0.000000009641 Rises=F Damp=F
 DIIS: error= 4.47D-06 at cycle   4 NSaved=   4.
 NSaved= 4 IEnMin= 4 EnMin= -316.360384824417     IErMin= 4 ErrMin= 4.47D-06
 ErrMax= 4.47D-06  0.00D+00 EMaxC= 1.00D-01 BMatC= 4.30D-09 BMatP= 1.56D-08
 IDIUse=1 WtCom= 1.00D+00 WtEn= 0.00D+00
 Coeff-Com:  0.572D-02 0.440D-01 0.458D+00 0.493D+00
 Coeff:      0.572D-02 0.440D-01 0.458D+00 0.493D+00
 Gap=     0.232 Goal=   None    Shift=    0.000
 RMSDP=4.41D-07 MaxDP=1.87D-05 DE=-9.64D-09 OVMax= 2.32D-05

 Cycle  10  Pass 1  IDiag  1:
 E= -316.360384827108     Delta-E=       -0.000000002691 Rises=F Damp=F
 DIIS: error= 1.31D-06 at cycle   5 NSaved=   5.
 NSaved= 5 IEnMin= 5 EnMin= -316.360384827108     IErMin= 5 ErrMin= 1.31D-06
 ErrMax= 1.31D-06  0.00D+00 EMaxC= 1.00D-01 BMatC= 7.12D-10 BMatP= 4.30D-09
 IDIUse=1 WtCom= 1.00D+00 WtEn= 0.00D+00
 Coeff-Com: -0.871D-02 0.178D-01 0.229D+00 0.335D+00 0.426D+00
 Coeff:     -0.871D-02 0.178D-01 0.229D+00 0.335D+00 0.426D+00
 Gap=     0.232 Goal=   None    Shift=    0.000
 RMSDP=1.46D-07 MaxDP=4.42D-06 DE=-2.69D-09 OVMax= 7.79D-06

 Cycle  11  Pass 1  IDiag  1:
 E= -316.360384827657     Delta-E=       -0.000000000549 Rises=F Damp=F
 DIIS: error= 1.81D-07 at cycle   6 NSaved=   6.
 NSaved= 6 IEnMin= 6 EnMin= -316.360384827657     IErMin= 6 ErrMin= 1.81D-07
 ErrMax= 1.81D-07  0.00D+00 EMaxC= 1.00D-01 BMatC= 1.36D-11 BMatP= 7.12D-10
 IDIUse=1 WtCom= 1.00D+00 WtEn= 0.00D+00
 Coeff-Com: -0.429D-02 0.719D-02 0.953D-01 0.148D+00 0.209D+00 0.545D+00
 Coeff:     -0.429D-02 0.719D-02 0.953D-01 0.148D+00 0.209D+00 0.545D+00
 Gap=     0.232 Goal=   None    Shift=    0.000
 RMSDP=2.72D-08 MaxDP=1.13D-06 DE=-5.49D-10 OVMax= 1.42D-06

 Cycle  12  Pass 1  IDiag  1:
 E= -316.360384827664     Delta-E=       -0.000000000007 Rises=F Damp=F
 DIIS: error= 1.07D-07 at cycle   7 NSaved=   7.
 NSaved= 7 IEnMin= 7 EnMin= -316.360384827664     IErMin= 7 ErrMin= 1.07D-07
 ErrMax= 1.07D-07  0.00D+00 EMaxC= 1.00D-01 BMatC= 3.64D-12 BMatP= 1.36D-11
 IDIUse=1 WtCom= 1.00D+00 WtEn= 0.00D+00
 Coeff-Com: -0.914D-03 0.103D-02 0.128D-01 0.249D-01 0.373D-01 0.345D+00
 Coeff-Com:  0.580D+00
 Coeff:     -0.914D-03 0.103D-02 0.128D-01 0.249D-01 0.373D-01 0.345D+00
 Coeff:      0.580D+00
 Gap=     0.232 Goal=   None    Shift=    0.000
 RMSDP=9.00D-09 MaxDP=4.23D-07 DE=-7.39D-12 OVMax= 4.72D-07

 SCF Done:  E(RB3LYP) =  -316.360384828     A.U. after   12 cycles
            NFock= 12  Conv=0.90D-08     -V/T= 2.0060
 KE= 3.144807745847D+02 PE=-1.123618202693D+03 EE= 3.025163176319D+02
 Leave Link  502 at Fri Sep  2 19:31:42 2022, MaxMem= 24159191040 cpu:        56.1
 (Enter /public/home/users/caep010/software/Gaussian09/g09/l701.exe)
 Compute integral first derivatives.
 ... and contract with generalized density number  0.
 Leave Link  701 at Fri Sep  2 19:31:43 2022, MaxMem= 24159191040 cpu:        14.2
 (Enter /public/home/users/caep010/software/Gaussian09/g09/l702.exe)
 L702 exits ... SP integral derivatives will be done elsewhere.
 Leave Link  702 at Fri Sep  2 19:31:43 2022, MaxMem= 24159191040 cpu:         0.5
 (Enter /public/home/users/caep010/software/Gaussian09/g09/l703.exe)
 Compute integral first derivatives, UseDBF=F ICtDFT=           0.
 Integral derivatives from FoFJK, PRISM(SPDF).
 Calling FoFJK, ICntrl=      2127 FMM=F ISym2X=0 I1Cent= 0 IOpClX= 0 NMat=1 NMatS=1 NMatT=0.
 FoFJK:  IHMeth= 1 ICntrl=    2127 DoSepK=F KAlg= 0 I1Cent=   0 FoldK=F
 IRaf=         0 NMat=   1 IRICut=       1 DoRegI=T DoRafI=F ISym2E= 0.
 FoFCou: FMM=F IPFlag=           0 FMFlag=      100000 FMFlg1=         800
         NFxFlg=           0 DoJE=F BraDBF=F KetDBF=F FulRan=T
         wScrn=  0.000000 ICntrl=    2127 IOpCl=  0 I1Cent=           0 NGrid=           0
         NMat0=    1 NMatS0=      1 NMatT0=    0 NMatD0=    1 NMtDS0=    0 NMtDT0=    0
 Symmetry not used in FoFCou.
 Leave Link  703 at Fri Sep  2 19:31:44 2022, MaxMem= 24159191040 cpu:        27.1
 (Enter /public/home/users/caep010/software/Gaussian09/g09/l716.exe)
 Dipole        = 2.05472935D+00 2.70060822D-01 6.36627566D-03
 ***** Axes restored to original set *****
 -------------------------------------------------------------------
 Center     Atomic                   Forces (Hartrees/Bohr)
 Number     Number              X              Y              Z
 -------------------------------------------------------------------
      1        7           0.000072696    0.005339318    0.001570996
      2        7           0.002348079   -0.005112901    0.001141852
      3        7          -0.005577855    0.006389690   -0.007359701
      4        8          -0.012887464    0.002587459    0.006598838
      5        8           0.002082175   -0.001191279    0.002946460
      6        1          -0.001017030   -0.000204043   -0.000142066
      7        1          -0.000385843    0.000512480    0.000014746
      8        1           0.015365242   -0.008320722   -0.004771124
 -------------------------------------------------------------------
 Cartesian Forces:  Max     0.015365242 RMS     0.005591682
 Leave Link  716 at Fri Sep  2 19:31:44 2022, MaxMem= 24159191040 cpu:         0.6
 (Enter /public/home/users/caep010/software/Gaussian09/g09/l103.exe)

 GradGradGradGradGradGradGradGradGradGradGradGradGradGradGradGradGradGrad
 Berny optimization.
 Using GEDIIS/GDIIS optimizer.
 FormGI is forming the generalized inverse of G from B-inverse, IUseBI=4.
 Internal  Forces:  Max     0.013527384 RMS     0.003077335
 Search for a local minimum.
 Step number   3 out of a maximum of   41
 All quantities printed in internal units (Hartrees-Bohrs-Radians)
 RMS Force = .30773D-02 SwitMx=.10000D-02 MixMth= 1
 Mixed Optimization -- RFO/linear search
 Update second derivatives using D2CorX and points    1    2    3
 DE= -1.06D-03 DEPred=-8.34D-04 R= 1.27D+00
 TightC=F SS=  1.41D+00  RLast= 1.34D-01 DXNew= 6.9731D-01 4.0203D-01
 Trust test= 1.27D+00 RLast= 1.34D-01 DXMaxT set to 4.15D-01
 ITU=  1  1  0
 Use linear search instead of GDIIS.
     Eigenvalues ---    0.00387   0.01668   0.02151   0.05308   0.08571
     Eigenvalues ---    0.09066   0.10093   0.11128   0.20874   0.24854
     Eigenvalues ---    0.30186   0.36767   0.44323   0.44660   0.46816
     Eigenvalues ---    0.56879   0.64737   1.01298
 RFO step:  Lambda=-4.05559499D-03 EMin= 3.87182221D-03
 Quartic linear search produced a step of  0.40148.
 Iteration  1 RMS(Cart)=  0.05152214 RMS(Int)=  0.01643156
 Iteration  2 RMS(Cart)=  0.01440531 RMS(Int)=  0.00243232
 Iteration  3 RMS(Cart)=  0.00007267 RMS(Int)=  0.00243121
 Iteration  4 RMS(Cart)=  0.00000007 RMS(Int)=  0.00243121
 ITry= 1 IFail=0 DXMaxC= 2.68D-01 DCOld= 1.00D+10 DXMaxT= 4.15D-01 DXLimC= 3.00D+00 Rises=F
 Variable       Old X    -DE/DX   Delta X   Delta X   Delta X     New X
                                 (Linear)    (Quad)   (Total)
    R1        2.74333  -0.00164   0.00029   0.00306   0.00136   2.74468
    R2        1.92384   0.00010  -0.00039  -0.00113  -0.00151   1.92233
    R3        1.92303   0.00038  -0.00072  -0.00331  -0.00403   1.91900
    R4        2.55333   0.00547   0.03484   0.26065   0.29500   2.84833
    R5        2.50203  -0.00507  -0.00274  -0.02087  -0.02369   2.47834
    R6        2.52477   0.00135   0.00411   0.02756   0.03335   2.55812
    R7        2.28148   0.00053  -0.00069  -0.00218  -0.00287   2.27861
[...]
                 (A) (A) (A) (A) (A) (A) (A) (A) (A) (A) (A) (A)
                 (A) (A) (A) (A) (A) (A) (A) (A) (A) (A) (A) (A)
                 (A) (A) (A) (A) (A) (A) (A) (A) (A) (A) (A) (A)
                 (A) (A) (A) (A) (A) (A) (A) (A) (A) (A) (A) (A)
                 (A) (A) (A) (A) (A) (A) (A) (A) (A) (A) (A) (A)
                 (A) (A) (A) (A) (A) (A) (A) (A) (A) (A) (A) (A)
                 (A) (A) (A) (A) (A) (A) (A) (A) (A) (A) (A) (A)
                 (A) (A) (A) (A) (A) (A) (A) (A) (A) (A) (A) (A)
                 (A) (A) (A) (A) (A) (A) (A) (A) (A) (A) (A) (A)
                 (A) (A) (A) (A) (A) (A) (A) (A) (A) (A) (A) (A)
                 (A) (A) (A) (A) (A) (A) (A) (A) (A) (A) (A) (A)
                 (A) (A) (A) (A) (A) (A) (A) (A) (A) (A) (A) (A)
                 (A) (A) (A) (A) (A) (A) (A) (A) (A) (A) (A) (A)
                 (A) (A) (A) (A) (A) (A) (A) (A) (A) (A) (A) (A)
                 (A) (A) (A) (A) (A) (A) (A) (A) (A) (A) (A) (A)
                 (A) (A) (A) (A) (A) (A) (A) (A) (A) (A) (A) (A)
                 (A) (A) (A) (A) (A) (A) (A) (A) (A) (A) (A) (A)
                 (A) (A) (A) (A) (A) (A) (A) (A) (A) (A) (A) (A)
                 (A) (A) (A) (A) (A) (A) (A) (A) (A) (A) (A) (A)
                 (A) (A) (A) (A) (A) (A) (A) (A) (A) (A) (A) (A)
                 (A) (A) (A) (A) (A) (A) (A) (A) (A) (A) (A)
 The electronic state is 1-A.
 Alpha  occ. eigenvalues --  -20.65612 -20.59309 -15.87065 -15.64938 -15.63405
 Alpha  occ. eigenvalues --   -1.61286  -1.42006  -1.33972  -1.15859  -0.89370
 Alpha  occ. eigenvalues --   -0.78627  -0.76118  -0.74561  -0.69587  -0.67959
 Alpha  occ. eigenvalues --   -0.57060  -0.54626  -0.50402  -0.45376  -0.40712
 Alpha virt. eigenvalues --    0.03574   0.06260   0.06457   0.06925   0.09195
 Alpha virt. eigenvalues --    0.09576   0.10132   0.11685   0.12689   0.13042
 Alpha virt. eigenvalues --    0.14754   0.15897   0.16507   0.16675   0.18471
 Alpha virt. eigenvalues --    0.19021   0.20145   0.21368   0.21771   0.23008
 Alpha virt. eigenvalues --    0.23598   0.27460   0.28570   0.29560   0.32045
 Alpha virt. eigenvalues --    0.32433   0.36244   0.37643   0.41858   0.43035
 Alpha virt. eigenvalues --    0.45722   0.46581   0.46663   0.48486   0.50142
 Alpha virt. eigenvalues --    0.50243   0.52774   0.55030   0.55553   0.59022
 Alpha virt. eigenvalues --    0.59786   0.61161   0.61623   0.62791   0.64349
 Alpha virt. eigenvalues --    0.64892   0.65536   0.71185   0.71284   0.72967
 Alpha virt. eigenvalues --    0.76249   0.80717   0.85159   0.85774   0.86019
 Alpha virt. eigenvalues --    0.90260   0.92325   0.95280   0.97998   0.98350
 Alpha virt. eigenvalues --    1.00683   1.05572   1.08418   1.08838   1.10269
 Alpha virt. eigenvalues --    1.13117   1.13807   1.15296   1.17667   1.18671
 Alpha virt. eigenvalues --    1.21993   1.26082   1.29242   1.29655   1.31074
 Alpha virt. eigenvalues --    1.32584   1.38319   1.38348   1.41019   1.41742
 Alpha virt. eigenvalues --    1.43331   1.46429   1.48613   1.51482   1.51719
 Alpha virt. eigenvalues --    1.53482   1.53629   1.55516   1.59564   1.64648
 Alpha virt. eigenvalues --    1.67715   1.69842   1.72508   1.79408   1.80528
 Alpha virt. eigenvalues --    1.82360   1.86388   1.89022   1.92858   1.95958
 Alpha virt. eigenvalues --    2.00650   2.03639   2.06963   2.11002   2.12084
 Alpha virt. eigenvalues --    2.18552   2.19846   2.20693   2.23328   2.24106
 Alpha virt. eigenvalues --    2.26000   2.26944   2.27953   2.29307   2.30854
 Alpha virt. eigenvalues --    2.33373   2.36029   2.37698   2.39412   2.39776
 Alpha virt. eigenvalues --    2.44258   2.47149   2.49751   2.52116   2.53846
 Alpha virt. eigenvalues --    2.55029   2.55414   2.61221   2.62830   2.64765
 Alpha virt. eigenvalues --    2.66283   2.66756   2.68630   2.72126   2.73339
 Alpha virt. eigenvalues --    2.76293   2.79498   2.80458   2.84583   2.86374
 Alpha virt. eigenvalues --    2.88076   2.89274   2.92109   2.95032   3.02077
 Alpha virt. eigenvalues --    3.04515   3.07591   3.08695   3.10100   3.10603
 Alpha virt. eigenvalues --    3.11884   3.15732   3.16580   3.18164   3.18614
 Alpha virt. eigenvalues --    3.24878   3.28542   3.29162   3.33083   3.33947
 Alpha virt. eigenvalues --    3.33970   3.36109   3.38036   3.43614   3.47011
 Alpha virt. eigenvalues --    3.47862   3.50248   3.53562   3.57728   3.59537
 Alpha virt. eigenvalues --    3.61243   3.63770   3.65956   3.67189   3.68297
 Alpha virt. eigenvalues --    3.73706   3.83456   3.86249   3.91187   3.91379
 Alpha virt. eigenvalues --    4.00122   4.00504   4.01893   4.02997   4.14825
 Alpha virt. eigenvalues --    4.14864   4.17244   4.25314   4.25702   4.29739
 Alpha virt. eigenvalues --    4.34582   4.39302   4.44986   4.45029   4.55817
 Alpha virt. eigenvalues --    4.61755   4.65735   4.72269   4.82173   4.85535
 Alpha virt. eigenvalues --    4.94201   4.98271   4.99754   5.04262   5.06071
 Alpha virt. eigenvalues --    5.07777   5.10872   5.22048   5.22750   5.23493
 Alpha virt. eigenvalues --    5.31344   5.34917   5.36441   5.38282   5.40706
 Alpha virt. eigenvalues --    5.42114   5.45737   5.52647   5.57899   5.60342
 Alpha virt. eigenvalues --    5.63956   5.64077   5.66041   5.75309   5.77146
 Alpha virt. eigenvalues --    5.78170   5.83386   5.85632   5.89021   5.92574
 Alpha virt. eigenvalues --    5.94215   5.95580   5.99305   6.00995   6.04179
 Alpha virt. eigenvalues --    6.08611   6.10141   6.11454   6.14989   6.19232
 Alpha virt. eigenvalues --    6.21910   6.23638   6.29853   6.29906   6.39406
 Alpha virt. eigenvalues --    6.39968   6.43905   6.45547   6.46195   6.48578
 Alpha virt. eigenvalues --    6.58640   6.62469   6.67045   6.68650   6.71638
 Alpha virt. eigenvalues --    6.73418   6.77928   6.78628   6.83546   6.88543
 Alpha virt. eigenvalues --    6.89413   6.92737   7.02844   7.06426   7.11472
 Alpha virt. eigenvalues --    7.14535   7.17896   7.19356   7.22084   7.24888
 Alpha virt. eigenvalues --    7.26405   7.28067   7.30655   7.40391   7.45907
 Alpha virt. eigenvalues --    7.46996   7.52896   7.53424   7.58460   7.63112
 Alpha virt. eigenvalues --    7.65014   7.66304   7.66861   7.71971   7.72975
 Alpha virt. eigenvalues --    7.73308   7.78993   7.80467   7.86020   7.90744
 Alpha virt. eigenvalues --    7.94344   8.02926   8.13878   8.19175   8.23405
 Alpha virt. eigenvalues --    8.25946   8.28249   8.29594   8.36364   8.40155
 Alpha virt. eigenvalues --    8.47994   8.49877   8.53892   8.55263   8.60070
 Alpha virt. eigenvalues --    8.60990   8.67770   8.71784   8.72179   8.76643
 Alpha virt. eigenvalues --    8.78591   8.80507   8.84850   8.95256   8.95265
 Alpha virt. eigenvalues --    8.97756   9.06199   9.13212   9.20562   9.30080
 Alpha virt. eigenvalues --    9.30439   9.34637   9.41075   9.47837   9.57296
 Alpha virt. eigenvalues --    9.60505   9.61583   9.70628   9.86663   9.96450
 Alpha virt. eigenvalues --    9.98562  10.02413  10.03036  10.12406  10.14861
 Alpha virt. eigenvalues --   10.31543  10.42432  10.52234  10.63100  10.73171
 Alpha virt. eigenvalues --   10.75059  10.76051  10.82705  10.86622  10.89476
 Alpha virt. eigenvalues --   11.02988  11.11941  11.17471  11.18222  11.24190
 Alpha virt. eigenvalues --   11.30337  11.40980  11.49815  11.57784  11.68595
 Alpha virt. eigenvalues --   11.72427  11.91102  12.06477  12.11846  12.13016
 Alpha virt. eigenvalues --   12.17425  12.28541  12.29109  12.39486  12.42473
 Alpha virt. eigenvalues --   12.67385  12.72234  12.84388  12.84803  12.94194
 Alpha virt. eigenvalues --   12.96249  13.11843  13.12156  13.13362  13.41081
 Alpha virt. eigenvalues --   13.42857  13.45570  13.63090  13.65432  13.81294
 Alpha virt. eigenvalues --   13.82357  13.85588  13.89290  14.02536  14.18884
 Alpha virt. eigenvalues --   14.25062  14.26871  14.26909  14.27335  14.27514
 Alpha virt. eigenvalues --   14.30039  14.30829  14.31714  14.34971  14.35753
 Alpha virt. eigenvalues --   14.42156  14.45141  14.48063  14.48495  14.50004
 Alpha virt. eigenvalues --   14.51672  14.56505  14.57491  14.58113  14.65923
 Alpha virt. eigenvalues --   14.66933  14.67464  14.68790  14.71176  14.72716
 Alpha virt. eigenvalues --   14.79645  14.84796  14.89101  14.90659  14.91621
 Alpha virt. eigenvalues --   14.93321  14.97132  14.98573  15.04089  15.08537
 Alpha virt. eigenvalues --   15.10695  15.14088  15.17114  15.20504  15.21311
 Alpha virt. eigenvalues --   15.29289  15.33811  15.38353  15.45045  15.45497
 Alpha virt. eigenvalues --   15.50898  15.57086  15.59501  15.65382  15.66132
 Alpha virt. eigenvalues --   15.68779  15.76383  15.77874  15.82981  15.87943
 Alpha virt. eigenvalues --   16.00878  16.06243  16.21276  16.22730  16.41559
 Alpha virt. eigenvalues --   16.54172  16.62103  16.62530  16.70971  16.80769
 Alpha virt. eigenvalues --   16.86243  16.86841  16.99076  17.09284  17.19939
 Alpha virt. eigenvalues --   17.54857  17.85957  17.87995  17.97378  18.08421
 Alpha virt. eigenvalues --   18.13940  18.18023  18.20999  18.34436  18.37909
 Alpha virt. eigenvalues --   18.41603  18.47145  18.50318  18.53238  18.54099
 Alpha virt. eigenvalues --   18.64838  18.70142  18.70617  18.74917  18.77337
 Alpha virt. eigenvalues --   18.79466  18.90023  18.94597  18.96213  19.03632
 Alpha virt. eigenvalues --   19.04686  19.11699  19.13271  19.14202  19.24812
 Alpha virt. eigenvalues --   19.28698  19.29810  19.35646  19.37363  19.40576
 Alpha virt. eigenvalues --   19.45044  19.46254  19.55996  19.63923  19.71515
 Alpha virt. eigenvalues --   19.73010  19.75025  19.79381  19.83417  19.98551
 Alpha virt. eigenvalues --   20.09165  20.09443  20.23265  20.38440  20.51743
 Alpha virt. eigenvalues --   20.75782  21.02518  21.76320  21.92064  22.09367
 Alpha virt. eigenvalues --   22.15963  22.20402  22.30633  22.30836  22.84722
 Alpha virt. eigenvalues --   23.08281  23.28014  23.32387  23.57010  23.70740
 Alpha virt. eigenvalues --   24.34412  24.69003  50.51408  50.62630  53.19048
 Alpha virt. eigenvalues --   62.97411  64.35552
          Condensed to atoms (all electrons):
               1          2          3          4          5          6
     1  N    6.845130   0.119054  -0.057267  -0.044857  -0.004585   0.362623
     2  N    0.119054   7.022561   0.381839  -0.069401  -0.137545  -0.040966
     3  N   -0.057267   0.381839   5.466120   0.246761   0.391978   0.001803
     4  O   -0.044857  -0.069401   0.246761   8.102414  -0.091829   0.000686
     5  O   -0.004585  -0.137545   0.391978  -0.091829   8.248322   0.000944
     6  H    0.362623  -0.040966   0.001803   0.000686   0.000944   0.372998
     7  H    0.362704  -0.040923   0.001713   0.000722   0.000929  -0.030603
     8  H    0.024496   0.001805  -0.018700   0.277498   0.005721  -0.000074
               7          8
     1  N    0.362704   0.024496
     2  N   -0.040923   0.001805
     3  N    0.001713  -0.018700
     4  O    0.000722   0.277498
     5  O    0.000929   0.005721
     6  H   -0.030603  -0.000074
     7  H    0.372931  -0.000096
     8  H   -0.000096   0.280664
 Mulliken charges:
               1
     1  N   -0.607299
     2  N   -0.236423
     3  N    0.585753
     4  O   -0.421993
     5  O   -0.413936
     6  H    0.332587
     7  H    0.332624
     8  H    0.428686
 Sum of Mulliken charges =  -0.00000
 Mulliken charges with hydrogens summed into heavy atoms:
               1
     1  N    0.057912
     2  N   -0.236423
     3  N    0.585753
     4  O    0.006693
     5  O   -0.413936
 Electronic spatial extent (au):  <R**2>=            353.3233
 Charge=             -0.0000 electrons
 Dipole moment (field-independent basis, Debye):
    X=              4.9570    Y=              1.2015    Z=             -0.0005  Tot=              5.1005
 Quadrupole moment (field-independent basis, Debye-Ang):
   XX=            -26.2986   YY=            -31.9684   ZZ=            -26.8407
   XY=             -0.7118   XZ=              0.0017   YZ=              0.0004
 Traceless Quadrupole moment (field-independent basis, Debye-Ang):
   XX=              2.0707   YY=             -3.5992   ZZ=              1.5285
   XY=             -0.7118   XZ=              0.0017   YZ=              0.0004
 Octapole moment (field-independent basis, Debye-Ang**2):
  XXX=             22.7553  YYY=              8.2732  ZZZ=              0.0021  XYY=              1.7440
  XXY=             -1.3506  XXZ=              0.0022  XZZ=              3.3327  YZZ=              0.2595
  YYZ=             -0.0008  XYZ=              0.0019
 Hexadecapole moment (field-independent basis, Debye-Ang**3):
 XXXX=           -235.1385 YYYY=           -122.1812 ZZZZ=            -26.0951 XXXY=            -12.0533
 XXXZ=              0.0002 YYYX=              5.9727 YYYZ=              0.0001 ZZZX=              0.0042
 ZZZY=              0.0005 XXYY=            -67.2848 XXZZ=            -39.2301 YYZZ=            -25.7926
 XXYZ=              0.0052 YYXZ=             -0.0020 ZZXY=             -1.2283
 N-N= 1.888282121658D+02 E-N=-1.119439139858D+03  KE= 3.142109844150D+02
 No NMR shielding tensors so no spin-rotation constants.
 Leave Link  601 at Fri Sep  2 19:39:25 2022, MaxMem= 24159191040 cpu:        23.7
 (Enter /public/home/users/caep010/software/Gaussian09/g09/l9999.exe)
 1\1\GINC-B1767\SP\RHF\GFHFB2\H3N3O2\ROOT\02-Sep-2022\0\\#P Geom=AllChe
 ck Guess=TCheck SCRF=Check HF/GFHFB2 SCF=Tight\\Frag_1135\\0,1\N,0,-1.
 0487298365,0.1168418535,0.3290903395\N,0,0.0871428399,0.9192813014,-0.
 0481232091\N,0,1.0701528111,0.1374192476,-0.3477453949\O,0,0.904436493
 2,-1.2350597731,-0.2690981006\O,0,2.1570749905,0.5207832972,-0.7011923
 884\H,0,-1.3146292286,0.4193305802,1.2644570967\H,0,-1.8105264385,0.39
 13840659,-0.288489764\H,0,-0.044922631,-1.2699815726,0.0340994209\\Ver
 sion=ES64L-G09RevE.01\State=1-A\HF=-314.7643606\RMSD=3.971e-09\Dipole=
 -1.8734419,-0.3889576,0.6047744\Quadrupole=1.4606673,-2.6219286,1.1612
 613,-0.6534828,-0.0926709,0.2777382\PG=C01 [X(H3N3O2)]\\@


 SIC AS THE CAWSE OF EWERY THING IS, SIC WILBE THE EFFECT.
 -- PROVERBS AND REASONS OF THE YEAR 1585
           AS REPRINTED IN PAISLEY MAGAZINE 1828.
 Diagonal vibrational polarizability:
        0.0000000       0.0000000       0.0000000

 Temperature=              298.150000 Pressure=                      1.000000
 E(ZPE)=                     0.054698 E(Thermal)=                    0.059443
 E(CCSD(T))=              -315.521406 E(Empiric)=                   -0.104205
 DE(Plus)=                  -0.027292 DE(2DF)=                      -0.232857
 E(Delta-G3XP)=             -0.362714 DE(HF)=                       -0.034538
 G4(0 K)=                 -316.228313 G4 Energy=                  -316.223567
 G4 Enthalpy=             -316.222623 G4 Free Energy=             -316.255911
 1\1\GINC-B1767\Mixed\G4\G4\H3N3O2\ROOT\02-Sep-2022\0\\#P Geom=AllCheck
  Guess=TCheck SCRF=Check HF/GFHFB2 SCF=Tight\\Frag_1135\\0,1\N,0,-1.04
 87298365,0.1168418535,0.3290903395\N,0,0.0871428399,0.9192813014,-0.04
 81232091\N,0,1.0701528111,0.1374192476,-0.3477453949\O,0,0.9044364932,
 -1.2350597731,-0.2690981006\O,0,2.1570749905,0.5207832972,-0.701192388
 4\H,0,-1.3146292286,0.4193305802,1.2644570967\H,0,-1.8105264385,0.3913
 840659,-0.288489764\H,0,-0.044922631,-1.2699815726,0.0340994209\\Versi
 on=ES64L-G09RevE.01\State=1-A\MP2/GTBas1=-315.4809691\MP4/GTBas1=-315.
 5297349\CCSD(T)/G3Bas1=-315.5214056\MP2/GTBas2=-315.5063463\MP4/GTBas2
 =-315.5570265\MP2/GTBas3=-315.6996204\MP4/GTBas3=-315.7625915\HF/GTLar
 geXP=-314.7311481\MP2/GTLargeXP=-316.0877118\HF/GFHFB1=-314.7589222\HF
 /GFHFB2=-314.7643606\G4=-316.2283126\FreqCoord=-1.9818121784,0.2207991
 04,0.6218906145,0.1646761018,1.7371898987,-0.0909396858,2.0222957333,0
 .2596847433,-0.6571435603,1.7091372768,-2.3339247289,-0.508521713,4.07
 62809802,0.9841378063,-1.3250615806,-2.4842892084,0.7924199557,2.38947
 76196,-3.4213991251,0.7396086973,-0.5451666462,-0.0848914698,-2.399917
 3661,0.0644385667\PG=C01 [X(H3N3O2)]\NImag=0\\0.53292188,-0.06651913,0
 .23889844,0.03887263,0.02864473,0.63790123,-0.13423146,-0.06396044,0.0
 2271371,0.49837855,-0.05403195,-0.12619375,0.01833596,-0.06284182,0.39
 646540,0.02252764,0.02150820,-0.07430528,-0.13328939,0.01420268,0.1194
 4207,-0.06249737,0.01606773,0.01431971,-0.24358116,0.06346029,0.055943
 53,0.97611975,-0.01374224,0.00321237,0.00403501,0.13387259,-0.22969216
 ,-0.03974819,0.04927134,0.54281530,0.01483539,-0.00548417,-0.02143079,
 0.05460050,-0.01722703,-0.08184305,-0.23976735,-0.02147893,0.30399361,
 -0.02749994,0.02795779,0.00951101,0.01126493,0.02105958,0.00533779,-0.
 13074608,0.01907978,0.02151240,0.48902570,0.00386086,0.00531244,-0.001
 25663,0.01299009,-0.06620159,-0.00235691,0.06148160,-0.13831292,-0.018
 21602,-0.01819114,0.29610652,0.00996169,-0.00895034,0.00094574,0.00551
 931,-0.00497208,0.02757563,0.02070307,-0.00464879,-0.06868017,-0.14409
 232,0.00097202,0.08177402,-0.00122923,0.00655970,0.00546407,-0.0805192
 5,0.00338000,0.02903469,-0.51718961,-0.12833521,0.13987062,-0.01682130
 ,-0.04982355,0.01087517,0.61893865,0.00334077,0.00504718,-0.00086326,0
 .02266436,0.03040226,-0.00758890,-0.13201273,-0.16683535,0.04357966,-0
 .07776476,-0.03702051,0.02574382,0.17437457,0.18332303,0.00554079,-0.0
 0188991,0.01459078,0.02871177,-0.00144587,0.00156385,0.13987013,0.0423
 9686,-0.13128332,0.01140768,0.01684922,0.01045861,-0.18743481,-0.05821
 417,0.10198277,-0.07146262,0.02151621,0.08042997,-0.01838412,0.0089059
 5,0.02907820,-0.00285072,-0.00520322,0.00770643,-0.00057990,0.00065266
 ,-0.00019941,-0.00326363,0.00081053,-0.00190238,0.08802724,0.03158274,
 -0.06488420,-0.14459320,-0.01596593,0.00537622,0.02564288,0.00236593,-
 0.00728779,0.00121163,0.00695732,-0.00013766,0.00095661,-0.00317595,0.
 00022331,-0.00097211,-0.01790403,0.06290217,0.07165974,-0.09508746,-0.
 35464609,0.00844129,-0.00218375,-0.00175190,-0.00059599,0.00267530,-0.
 00074096,-0.00267047,0.00056830,-0.00045154,-0.00053213,-0.00026295,0.
 00034453,-0.08572443,0.10786500,0.38172724,-0.24023594,0.06540610,-0.1
 6635311,-0.03031673,0.00786964,-0.00876556,-0.00544835,-0.00590833,-0.
 00410900,0.00076350,0.00018764,-0.00065977,-0.00089651,0.00089136,0.00
 273489,0.00838038,0.00069998,0.00697577,0.26918457,0.10257412,-0.05788
 562,0.09359645,-0.02783287,0.00469464,-0.01155748,0.00137669,-0.007383
 18,-0.00208813,0.00519312,-0.00026978,-0.00486850,-0.00199805,0.000288
 32,0.00258494,-0.00821678,0.00030685,-0.01222599,-0.06942264,0.0565241
 0,-0.15843982,0.05916843,-0.19288168,0.01297005,-0.00306429,0.01086042
 ,0.00392066,0.00118005,0.00194924,0.00161418,-0.00087539,-0.00166008,0
 .00149002,-0.00031597,-0.00209070,-0.03033051,0.01359149,-0.02468249,0
 .17001677,-0.07103407,0.20695928,0.00423468,-0.00702797,-0.00495800,-0
 .00261076,0.01219830,0.00013310,-0.01380646,-0.04903472,0.00535102,-0.
 32540690,-0.01115815,0.09789227,0.00098088,0.00769590,0.00107193,0.000
 13336,-0.00456006,0.00244622,-0.00143091,-0.00167359,-0.00124136,0.337
 90611,-0.00706517,-0.00350685,0.00210094,0.00107400,-0.01485102,-0.000
 10228,-0.06201085,0.00348375,0.01970298,0.01570831,-0.05947650,-0.0042
 3273,-0.00098151,-0.01542823,0.00069104,-0.00056132,0.00350110,-0.0013
 4845,0.00027625,0.00372467,0.00134976,0.05356028,0.08255308,-0.0049580
 5,0.00209052,-0.01017389,0.00033276,-0.00364561,-0.00154173,0.00560624
 ,0.01558869,-0.00196456,0.09737972,0.00431540,-0.04996222,0.00123238,-
 0.00207822,0.00443348,0.00094213,-0.00370230,0.00020121,0.00016001,0.0
 0559279,0.00154602,-0.10069518,-0.01816126,0.05746170\\-0.00006114,0.0
 0002846,0.00003845,0.00004053,0.00007729,0.00003637,-0.00006074,-0.000
 11877,-0.00015686,0.00012216,0.00003567,0.00001698,-0.00000042,0.00000
 400,0.00006531,-0.00000057,-0.00000440,0.00000440,0.00000122,0.0000005
 8,-0.00001060,-0.00004104,-0.00002283,0.00000596\\\@
 Job cpu time:       0 days  0 hours 30 minutes 38.2 seconds.
 File lengths (MBytes):  RWF=   1634 Int=      0 D2E=      0 Chk=     19 Scr=      1
 Normal termination of Gaussian 09 at Fri Sep  2 19:39:25 2022.
