 Entering Gaussian System, Link 0=g09
 Input=G4.Frag_639.gjf
 Output=G4.Frag_639.log
 Initial command:
 /public/home/users/caep010/software/Gaussian09/g09/l1.exe "/public/home/users/caep010/.cache/gau_scr/Gau-114333.inp" -scrdir="/public/home/users/caep010/.cache/gau_scr/"
 Entering Link 1 = /public/home/users/caep010/software/Gaussian09/g09/l1.exe PID=    114334.
  
 Copyright (c) 1988,1990,1992,1993,1995,1998,2003,2009,2015,
            Gaussian, Inc.  All Rights Reserved.
  
 This is part of the Gaussian(R) 09 program.  It is based on
 the Gaussian(R) 03 system (copyright 2003, Gaussian, Inc.),
 the Gaussian(R) 98 system (copyright 1998, Gaussian, Inc.),
 the Gaussian(R) 94 system (copyright 1995, Gaussian, Inc.),
 the Gaussian 92(TM) system (copyright 1992, Gaussian, Inc.),
 the Gaussian 90(TM) system (copyright 1990, Gaussian, Inc.),
 the Gaussian 88(TM) system (copyright 1988, Gaussian, Inc.),
 the Gaussian 86(TM) system (copyright 1986, Carnegie Mellon
 University), and the Gaussian 82(TM) system (copyright 1983,
 Carnegie Mellon University). Gaussian is a federally registered
 trademark of Gaussian, Inc.
  
 This software contains proprietary and confidential information,
 including trade secrets, belonging to Gaussian, Inc.
  
 This software is provided under written license and may be
 used, copied, transmitted, or stored only in accord with that
 written license.
  
 The following legend is applicable only to US Government
 contracts under FAR:
  
                    RESTRICTED RIGHTS LEGEND
  
 Use, reproduction and disclosure by the US Government is
 subject to restrictions as set forth in subparagraphs (a)
 and (c) of the Commercial Computer Software - Restricted
 Rights clause in FAR 52.227-19.
  
 Gaussian, Inc.
 340 Quinnipiac St., Bldg. 40, Wallingford CT 06492
  
  
 ---------------------------------------------------------------
 Warning -- This program may not be used in any manner that
 competes with the business of Gaussian, Inc. or will provide
 assistance to any competitor of Gaussian, Inc.  The licensee
 of this program is prohibited from giving any competitor of
 Gaussian, Inc. access to this program.  By using this program,
 the user acknowledges that Gaussian, Inc. is engaged in the
 business of creating and licensing software in the field of
 computational chemistry and represents and warrants to the
 licensee that it is not a competitor of Gaussian, Inc. and that
 it will not use this program in any manner prohibited above.
 ---------------------------------------------------------------
  

 Cite this work as:
 Gaussian 09, Revision E.01,
 M. J. Frisch, G. W. Trucks, H. B. Schlegel, G. E. Scuseria, 
 M. A. Robb, J. R. Cheeseman, G. Scalmani, V. Barone, B. Mennucci, 
 G. A. Petersson, H. Nakatsuji, M. Caricato, X. Li, H. P. Hratchian, 
 A. F. Izmaylov, J. Bloino, G. Zheng, J. L. Sonnenberg, M. Hada, 
 M. Ehara, K. Toyota, R. Fukuda, J. Hasegawa, M. Ishida, T. Nakajima, 
 Y. Honda, O. Kitao, H. Nakai, T. Vreven, J. A. Montgomery, Jr., 
 J. E. Peralta, F. Ogliaro, M. Bearpark, J. J. Heyd, E. Brothers, 
 K. N. Kudin, V. N. Staroverov, T. Keith, R. Kobayashi, J. Normand, 
 K. Raghavachari, A. Rendell, J. C. Burant, S. S. Iyengar, J. Tomasi, 
 M. Cossi, N. Rega, J. M. Millam, M. Klene, J. E. Knox, J. B. Cross, 
 V. Bakken, C. Adamo, J. Jaramillo, R. Gomperts, R. E. Stratmann, 
 O. Yazyev, A. J. Austin, R. Cammi, C. Pomelli, J. W. Ochterski, 
 R. L. Martin, K. Morokuma, V. G. Zakrzewski, G. A. Voth, 
 P. Salvador, J. J. Dannenberg, S. Dapprich, A. D. Daniels, 
 O. Farkas, J. B. Foresman, J. V. Ortiz, J. Cioslowski, 
 and D. J. Fox, Gaussian, Inc., Wallingford CT, 2013.
 
 ******************************************
 Gaussian 09:  ES64L-G09RevE.01 30-Nov-2015
                26-Aug-2022 
 ******************************************
 %nproc=32
 Will use up to   32 processors via shared memory.
 %mem=180GB
 %chk=G4.Frag_639.chk
 -----
 #P G4
 -----
 1/14=-1,18=20,19=15,26=3,38=1/1,3;
 2/9=110,12=2,17=6,18=5,40=1/2;
 3/5=35,7=104,11=2,16=1,25=1,30=1,71=1,74=-5/1,2,3;
 4//1;
 5/5=2,38=5/2;
 6/7=2,8=2,9=2,10=2,28=1/1;
 7//1,2,3,16;
 1/14=-1,18=20,19=15,26=3/3(2);
 2/9=110/2;
 99//99;
 2/9=110/2;
 3/5=35,7=104,11=2,16=1,25=1,30=1,71=1,74=-5/1,2,3;
 4/5=5,16=3,69=1/1;
 5/5=2,38=5/2;
 7//1,2,3,16;
 1/14=-1,18=20,19=15,26=3/3(-5);
 2/9=110/2;
 6/7=2,8=2,9=2,10=2,19=2,28=1/1;
 99/9=1/99;
 Leave Link    1 at Fri Aug 26 13:58:13 2022, MaxMem= 24159191040 cpu:         2.8
 (Enter /public/home/users/caep010/software/Gaussian09/g09/l101.exe)
 --------
 Frag_639
 --------
 Symbolic Z-matrix:
 Charge =  0 Multiplicity = 1
 C                     2.1704    0.0191   -0.2435 
 C                     0.9662    0.0737   -0.2246 
 C                    -0.4729    0.1405   -0.2018 
 C                    -1.1982   -0.9476   -0.4408 
 O                    -1.1095    1.348     0.0713 
 H                     3.2274   -0.0289   -0.26 
 H                    -2.2794   -0.8968   -0.4235 
 H                    -0.7259   -1.8988   -0.6558 
 H                    -0.5781    2.1907    0.2566 
 
 NAtoms=      9 NQM=        9 NQMF=       0 NMMI=      0 NMMIF=      0
                NMic=       0 NMicF=      0.
                    Isotopes and Nuclear Properties:
 (Nuclear quadrupole moments (NQMom) in fm**2, nuclear magnetic moments (NMagM)
  in nuclear magnetons)

  Atom         1           2           3           4           5           6           7           8           9
 IAtWgt=          12          12          12          12          16           1           1           1           1
 AtmWgt=  12.0000000  12.0000000  12.0000000  12.0000000  15.9949146   1.0078250   1.0078250   1.0078250   1.0078250
 NucSpn=           0           0           0           0           0           1           1           1           1
 AtZEff=   0.0000000   0.0000000   0.0000000   0.0000000   0.0000000   0.0000000   0.0000000   0.0000000   0.0000000
 NQMom=    0.0000000   0.0000000   0.0000000   0.0000000   0.0000000   0.0000000   0.0000000   0.0000000   0.0000000
 NMagM=    0.0000000   0.0000000   0.0000000   0.0000000   0.0000000   2.7928460   2.7928460   2.7928460   2.7928460
 AtZNuc=   6.0000000   6.0000000   6.0000000   6.0000000   8.0000000   1.0000000   1.0000000   1.0000000   1.0000000
 Leave Link  101 at Fri Aug 26 13:58:13 2022, MaxMem= 24159191040 cpu:        11.0
 (Enter /public/home/users/caep010/software/Gaussian09/g09/l103.exe)

 GradGradGradGradGradGradGradGradGradGradGradGradGradGradGradGradGradGrad
 Berny optimization.
 Initialization pass.
                           ----------------------------
                           !    Initial Parameters    !
                           ! (Angstroms and Degrees)  !
 --------------------------                            --------------------------
 ! Name  Definition              Value          Derivative Info.                !
 --------------------------------------------------------------------------------
 ! R1    R(1,2)                  1.2056         estimate D2E/DX2                !
 ! R2    R(1,6)                  1.0582         estimate D2E/DX2                !
 ! R3    R(2,3)                  1.4408         estimate D2E/DX2                !
 ! R4    R(3,4)                  1.3293         estimate D2E/DX2                !
 ! R5    R(3,5)                  1.3921         estimate D2E/DX2                !
 ! R6    R(4,7)                  1.0825         estimate D2E/DX2                !
 ! R7    R(4,8)                  1.0835         estimate D2E/DX2                !
 ! R8    R(5,9)                  1.0133         estimate D2E/DX2                !
 ! A1    A(2,3,4)              120.2756         estimate D2E/DX2                !
 ! A2    A(2,3,5)              120.0046         estimate D2E/DX2                !
 ! A3    A(4,3,5)              119.7197         estimate D2E/DX2                !
 ! A4    A(3,4,7)              120.2421         estimate D2E/DX2                !
 ! A5    A(3,4,8)              121.0912         estimate D2E/DX2                !
 ! A6    A(7,4,8)              118.6667         estimate D2E/DX2                !
 ! A7    A(3,5,9)              121.1581         estimate D2E/DX2                !
 ! A8    L(2,1,6,8,-1)         179.9971         estimate D2E/DX2                !
 ! A9    L(1,2,3,8,-1)         180.0619         estimate D2E/DX2                !
 ! A10   L(2,1,6,8,-2)         180.0094         estimate D2E/DX2                !
 ! A11   L(1,2,3,8,-2)         180.0065         estimate D2E/DX2                !
 ! D1    D(2,3,4,7)            179.998          estimate D2E/DX2                !
 ! D2    D(2,3,4,8)             -0.0006         estimate D2E/DX2                !
 ! D3    D(5,3,4,7)             -0.003          estimate D2E/DX2                !
 ! D4    D(5,3,4,8)            179.9984         estimate D2E/DX2                !
 ! D5    D(2,3,5,9)             -0.0034         estimate D2E/DX2                !
 ! D6    D(4,3,5,9)            179.9977         estimate D2E/DX2                !
 --------------------------------------------------------------------------------
 Trust Radius=3.00D-01 FncErr=1.00D-07 GrdErr=1.00D-06
 Number of steps in this run=     35 maximum allowed number of steps=    100.
 GradGradGradGradGradGradGradGradGradGradGradGradGradGradGradGradGradGrad

 Leave Link  103 at Fri Aug 26 13:58:13 2022, MaxMem= 24159191040 cpu:         0.5
 (Enter /public/home/users/caep010/software/Gaussian09/g09/l202.exe)
                          Input orientation:                          
 ---------------------------------------------------------------------
 Center     Atomic      Atomic             Coordinates (Angstroms)
 Number     Number       Type             X           Y           Z
 ---------------------------------------------------------------------
      1          6           0        2.170400    0.019100   -0.243500
      2          6           0        0.966200    0.073700   -0.224600
      3          6           0       -0.472900    0.140500   -0.201800
      4          6           0       -1.198200   -0.947600   -0.440800
      5          8           0       -1.109500    1.348000    0.071300
      6          1           0        3.227400   -0.028900   -0.260000
      7          1           0       -2.279400   -0.896800   -0.423500
      8          1           0       -0.725900   -1.898800   -0.655800
      9          1           0       -0.578100    2.190700    0.256600
 ---------------------------------------------------------------------
                    Distance matrix (angstroms):
                    1          2          3          4          5
     1  C    0.000000
     2  C    1.205585   0.000000
     3  C    2.646415   1.440830   0.000000
     4  C    3.510114   2.403003   1.329339   0.000000
     5  O    3.552861   2.453554   1.392085   2.353698   0.000000
     6  H    1.058218   2.263803   3.704633   4.523564   4.562271
     7  H    4.546646   3.393428   2.094895   1.082531   2.579267
     8  H    3.498126   2.634367   2.104488   1.083547   3.349259
     9  H    3.538389   2.664227   2.103454   3.274113   1.013344
                    6          7          8          9
     6  H    0.000000
     7  H    5.577170   0.000000
     8  H    4.391101   1.863150   0.000000
     9  H    4.435688   3.590211   4.192652   0.000000
 Stoichiometry    C4H4O
 Framework group  C1[X(C4H4O)]
 Deg. of freedom    21
 Full point group                 C1      NOp   1
 Largest Abelian subgroup         C1      NOp   1
 Largest concise Abelian subgroup C1      NOp   1
                         Standard orientation:                         
 ---------------------------------------------------------------------
 Center     Atomic      Atomic             Coordinates (Angstroms)
 Number     Number       Type             X           Y           Z
 ---------------------------------------------------------------------
      1          6           0       -2.187765   -0.005539   -0.000033
      2          6           0       -0.982512    0.022787    0.000047
      3          6           0        0.457955    0.055084    0.000014
      4          6           0        1.102254    1.217848   -0.000009
      5          8           0        1.180942   -1.134534   -0.000017
      6          1           0       -3.245692   -0.030349   -0.000000
      7          1           0        2.184527    1.241479   -0.000001
      8          1           0        0.561832    2.157006   -0.000012
      9          1           0        0.712202   -2.032948    0.000035
 ---------------------------------------------------------------------
 Rotational constants (GHZ):     10.3718036      4.0506886      2.9130157
 Leave Link  202 at Fri Aug 26 13:58:13 2022, MaxMem= 24159191040 cpu:         1.4
 (Enter /public/home/users/caep010/software/Gaussian09/g09/l301.exe)
 Standard basis: GTBas3 (6D, 7F)
 Ernie: Thresh=  0.10000D-02 Tol=  0.10000D-05 Strict=F.
 There are   175 symmetry adapted cartesian basis functions of A   symmetry.
 There are   160 symmetry adapted basis functions of A   symmetry.
   160 basis functions,   248 primitive gaussians,   175 cartesian basis functions
    18 alpha electrons       18 beta electrons
       nuclear repulsion energy       142.5156571693 Hartrees.
 IExCor=  402 DFT=T Ex+Corr=B3LYP ExCW=0 ScaHFX=  0.200000
 ScaDFX=  0.800000  0.720000  1.000000  0.810000 ScalE2=  1.000000  1.000000
 IRadAn=      0 IRanWt=     -1 IRanGd=            0 ICorTp=0 IEmpDi=  4
 NAtoms=    9 NActive=    9 NUniq=    9 SFac= 1.00D+00 NAtFMM=   60 NAOKFM=F Big=F
 Integral buffers will be    131072 words long.
 Raffenetti 2 integral format.
 Two-electron integral symmetry is turned on.
 Leave Link  301 at Fri Aug 26 13:58:13 2022, MaxMem= 24159191040 cpu:         1.9
 (Enter /public/home/users/caep010/software/Gaussian09/g09/l302.exe)
 NPDir=0 NMtPBC=     1 NCelOv=     1 NCel=       1 NClECP=     1 NCelD=      1
         NCelK=      1 NCelE2=     1 NClLst=     1 CellRange=     0.0.
 One-electron integrals computed using PRISM.
 NBasis=   160 RedAO= T EigKep=  1.43D-04  NBF=   160
 NBsUse=   160 1.00D-06 EigRej= -1.00D+00 NBFU=   160
 Precomputing XC quadrature grid using
 IXCGrd= 4 IRadAn=           0 IRanWt=          -1 IRanGd=           0 AccXCQ= 0.00D+00.
 Generated NRdTot=       0 NPtTot=           0 NUsed=           0 NTot=          32
 NSgBfM=   175   175   175   175   175 MxSgAt=     9 MxSgA2=     9.
 Leave Link  302 at Fri Aug 26 13:58:14 2022, MaxMem= 24159191040 cpu:        13.8
 (Enter /public/home/users/caep010/software/Gaussian09/g09/l303.exe)
 DipDrv:  MaxL=1.
 Leave Link  303 at Fri Aug 26 13:58:14 2022, MaxMem= 24159191040 cpu:         0.9
 (Enter /public/home/users/caep010/software/Gaussian09/g09/l401.exe)
 ExpMin= 1.61D-01 ExpMax= 5.48D+03 ExpMxC= 8.25D+02 IAcc=1 IRadAn=         1 AccDes= 0.00D+00
 Harris functional with IExCor=  402 and IRadAn=       1 diagonalized for initial guess.
 HarFok:  IExCor=  402 AccDes= 0.00D+00 IRadAn=         1 IDoV= 1 UseB2=F ITyADJ=14
 ICtDFT=  3500011 ScaDFX=  1.000000  1.000000  1.000000  1.000000
 FoFCou: FMM=F IPFlag=           0 FMFlag=      100000 FMFlg1=           0
         NFxFlg=           0 DoJE=T BraDBF=F KetDBF=T FulRan=T
         wScrn=  0.000000 ICntrl=     500 IOpCl=  0 I1Cent=   200000004 NGrid=           0
         NMat0=    1 NMatS0=      1 NMatT0=    0 NMatD0=    1 NMtDS0=    0 NMtDT0=    0
 Petite list used in FoFCou.
 Harris En= -230.030209027334    
 JPrj=0 DoOrth=F DoCkMO=F.
 Leave Link  401 at Fri Aug 26 13:58:15 2022, MaxMem= 24159191040 cpu:        14.6
 (Enter /public/home/users/caep010/software/Gaussian09/g09/l502.exe)
 Closed shell SCF:
 Using DIIS extrapolation, IDIIS=  1040.
 Integral symmetry usage will be decided dynamically.
 Keep R1 ints in memory in canonical form, NReq=85796735.
 IVT=      117295 IEndB=      117295 NGot= 24159191040 MDV= 24076120106
 LenX= 24076120106 LenY= 24076089040
 Requested convergence on RMS density matrix=1.00D-08 within 128 cycles.
 Requested convergence on MAX density matrix=1.00D-06.
 Requested convergence on             energy=1.00D-06.
 No special actions if energy rises.
 FoFCou: FMM=F IPFlag=           0 FMFlag=           0 FMFlg1=           0
         NFxFlg=           0 DoJE=F BraDBF=F KetDBF=F FulRan=T
         wScrn=  0.000000 ICntrl=     600 IOpCl=  0 I1Cent=           0 NGrid=           0
         NMat0=    1 NMatS0=  12880 NMatT0=    0 NMatD0=    1 NMtDS0=    0 NMtDT0=    0
 Symmetry not used in FoFCou.
 Integral accuracy reduced to 1.0D-05 until final iterations.

 Cycle   1  Pass 0  IDiag  1:
 E= -229.804044922740    
 DIIS: error= 3.35D-02 at cycle   1 NSaved=   1.
 NSaved= 1 IEnMin= 1 EnMin= -229.804044922740     IErMin= 1 ErrMin= 3.35D-02
 ErrMax= 3.35D-02  0.00D+00 EMaxC= 1.00D-01 BMatC= 1.69D-01 BMatP= 1.69D-01
 IDIUse=3 WtCom= 6.65D-01 WtEn= 3.35D-01
 Coeff-Com:  0.100D+01
 Coeff-En:   0.100D+01
 Coeff:      0.100D+01
 Gap=     0.186 Goal=   None    Shift=    0.000
 GapD=    0.186 DampG=1.000 DampE=0.500 DampFc=0.5000 IDamp=-1.
 Damping current iteration by 5.00D-01
 RMSDP=4.69D-03 MaxDP=1.68D-01              OVMax= 2.22D-01

 Cycle   2  Pass 0  IDiag  1:
 E= -229.878229156426     Delta-E=       -0.074184233687 Rises=F Damp=T
 DIIS: error= 9.43D-03 at cycle   2 NSaved=   2.
 NSaved= 2 IEnMin= 2 EnMin= -229.878229156426     IErMin= 2 ErrMin= 9.43D-03
 ErrMax= 9.43D-03  0.00D+00 EMaxC= 1.00D-01 BMatC= 8.73D-03 BMatP= 1.69D-01
 IDIUse=3 WtCom= 9.06D-01 WtEn= 9.43D-02
 Coeff-Com:  0.467D-01 0.953D+00
 Coeff-En:   0.758D-01 0.924D+00
 Coeff:      0.495D-01 0.951D+00
 Gap=     0.256 Goal=   None    Shift=    0.000
 RMSDP=1.03D-03 MaxDP=4.27D-02 DE=-7.42D-02 OVMax= 1.73D-01

 Cycle   3  Pass 0  IDiag  1:
 E= -229.957037656044     Delta-E=       -0.078808499618 Rises=F Damp=F
 DIIS: error= 7.78D-03 at cycle   3 NSaved=   3.
 NSaved= 3 IEnMin= 3 EnMin= -229.957037656044     IErMin= 3 ErrMin= 7.78D-03
 ErrMax= 7.78D-03  0.00D+00 EMaxC= 1.00D-01 BMatC= 8.31D-03 BMatP= 8.73D-03
 IDIUse=3 WtCom= 9.22D-01 WtEn= 7.78D-02
 Coeff-Com: -0.182D-01 0.497D+00 0.521D+00
 Coeff-En:   0.000D+00 0.000D+00 0.100D+01
 Coeff:     -0.168D-01 0.459D+00 0.558D+00
 Gap=     0.211 Goal=   None    Shift=    0.000
 RMSDP=6.89D-04 MaxDP=3.23D-02 DE=-7.88D-02 OVMax= 6.93D-02

 Cycle   4  Pass 0  IDiag  1:
 E= -229.964226592560     Delta-E=       -0.007188936516 Rises=F Damp=F
 DIIS: error= 3.26D-03 at cycle   4 NSaved=   4.
 NSaved= 4 IEnMin= 4 EnMin= -229.964226592560     IErMin= 4 ErrMin= 3.26D-03
 ErrMax= 3.26D-03  0.00D+00 EMaxC= 1.00D-01 BMatC= 1.53D-03 BMatP= 8.31D-03
 IDIUse=3 WtCom= 9.67D-01 WtEn= 3.26D-02
 Coeff-Com: -0.785D-02 0.902D-01 0.318D+00 0.600D+00
 Coeff-En:   0.000D+00 0.000D+00 0.177D+00 0.823D+00
 Coeff:     -0.759D-02 0.873D-01 0.313D+00 0.607D+00
 Gap=     0.212 Goal=   None    Shift=    0.000
 RMSDP=2.60D-04 MaxDP=1.03D-02 DE=-7.19D-03 OVMax= 2.28D-02

 Cycle   5  Pass 0  IDiag  1:
 E= -229.965670156574     Delta-E=       -0.001443564014 Rises=F Damp=F
 DIIS: error= 9.94D-04 at cycle   5 NSaved=   5.
 NSaved= 5 IEnMin= 5 EnMin= -229.965670156574     IErMin= 5 ErrMin= 9.94D-04
 ErrMax= 9.94D-04  0.00D+00 EMaxC= 1.00D-01 BMatC= 2.36D-04 BMatP= 1.53D-03
 IDIUse=3 WtCom= 9.90D-01 WtEn= 9.94D-03
 Coeff-Com: -0.330D-02 0.201D-01 0.171D+00 0.407D+00 0.405D+00
 Coeff-En:   0.000D+00 0.000D+00 0.000D+00 0.439D-01 0.956D+00
 Coeff:     -0.326D-02 0.199D-01 0.170D+00 0.403D+00 0.411D+00
 Gap=     0.213 Goal=   None    Shift=    0.000
 RMSDP=8.72D-05 MaxDP=2.97D-03 DE=-1.44D-03 OVMax= 5.73D-03

 Cycle   6  Pass 0  IDiag  1:
 E= -229.965871186407     Delta-E=       -0.000201029833 Rises=F Damp=F
 DIIS: error= 2.65D-04 at cycle   6 NSaved=   6.
 NSaved= 6 IEnMin= 6 EnMin= -229.965871186407     IErMin= 6 ErrMin= 2.65D-04
 ErrMax= 2.65D-04  0.00D+00 EMaxC= 1.00D-01 BMatC= 8.83D-06 BMatP= 2.36D-04
 IDIUse=3 WtCom= 9.97D-01 WtEn= 2.65D-03
 Coeff-Com: -0.899D-03 0.278D-02 0.638D-01 0.162D+00 0.222D+00 0.550D+00
 Coeff-En:   0.000D+00 0.000D+00 0.000D+00 0.000D+00 0.000D+00 0.100D+01
 Coeff:     -0.896D-03 0.277D-02 0.636D-01 0.162D+00 0.222D+00 0.551D+00
 Gap=     0.213 Goal=   None    Shift=    0.000
 RMSDP=2.05D-05 MaxDP=9.54D-04 DE=-2.01D-04 OVMax= 1.66D-03

 Cycle   7  Pass 0  IDiag  1:
 E= -229.965877074463     Delta-E=       -0.000005888057 Rises=F Damp=F
 DIIS: error= 1.32D-04 at cycle   7 NSaved=   7.
 NSaved= 7 IEnMin= 7 EnMin= -229.965877074463     IErMin= 7 ErrMin= 1.32D-04
 ErrMax= 1.32D-04  0.00D+00 EMaxC= 1.00D-01 BMatC= 3.21D-06 BMatP= 8.83D-06
 IDIUse=3 WtCom= 9.99D-01 WtEn= 1.32D-03
 Coeff-Com: -0.159D-03-0.784D-03 0.202D-01 0.553D-01 0.101D+00 0.410D+00
 Coeff-Com:  0.414D+00
 Coeff-En:   0.000D+00 0.000D+00 0.000D+00 0.000D+00 0.000D+00 0.291D+00
 Coeff-En:   0.709D+00
 Coeff:     -0.158D-03-0.783D-03 0.202D-01 0.553D-01 0.101D+00 0.410D+00
 Coeff:      0.415D+00
 Gap=     0.213 Goal=   None    Shift=    0.000
 RMSDP=9.24D-06 MaxDP=2.85D-04 DE=-5.89D-06 OVMax= 6.96D-04

 Initial convergence to 1.0D-05 achieved.  Increase integral accuracy.
 Cycle   8  Pass 1  IDiag  1:
 E= -229.965879236266     Delta-E=       -0.000002161803 Rises=F Damp=F
 DIIS: error= 9.31D-06 at cycle   1 NSaved=   1.
 NSaved= 1 IEnMin= 1 EnMin= -229.965879236266     IErMin= 1 ErrMin= 9.31D-06
 ErrMax= 9.31D-06  0.00D+00 EMaxC= 1.00D-01 BMatC= 2.00D-08 BMatP= 2.00D-08
 IDIUse=1 WtCom= 1.00D+00 WtEn= 0.00D+00
 Coeff-Com:  0.100D+01
 Coeff:      0.100D+01
 Gap=     0.213 Goal=   None    Shift=    0.000
 RMSDP=9.24D-06 MaxDP=2.85D-04 DE=-2.16D-06 OVMax= 5.01D-05

 Cycle   9  Pass 1  IDiag  1:
 E= -229.965879248312     Delta-E=       -0.000000012046 Rises=F Damp=F
 DIIS: error= 5.06D-06 at cycle   2 NSaved=   2.
 NSaved= 2 IEnMin= 2 EnMin= -229.965879248312     IErMin= 2 ErrMin= 5.06D-06
 ErrMax= 5.06D-06  0.00D+00 EMaxC= 1.00D-01 BMatC= 6.06D-09 BMatP= 2.00D-08
 IDIUse=1 WtCom= 1.00D+00 WtEn= 0.00D+00
 Coeff-Com:  0.303D+00 0.697D+00
 Coeff:      0.303D+00 0.697D+00
 Gap=     0.213 Goal=   None    Shift=    0.000
 RMSDP=7.16D-07 MaxDP=2.59D-05 DE=-1.20D-08 OVMax= 3.97D-05

 Cycle  10  Pass 1  IDiag  1:
 E= -229.965879248392     Delta-E=       -0.000000000080 Rises=F Damp=F
 DIIS: error= 6.53D-06 at cycle   3 NSaved=   3.
 NSaved= 3 IEnMin= 3 EnMin= -229.965879248392     IErMin= 2 ErrMin= 5.06D-06
 ErrMax= 6.53D-06  0.00D+00 EMaxC= 1.00D-01 BMatC= 5.77D-09 BMatP= 6.06D-09
 IDIUse=1 WtCom= 1.00D+00 WtEn= 0.00D+00
 Coeff-Com:  0.398D-01 0.489D+00 0.471D+00
 Coeff:      0.398D-01 0.489D+00 0.471D+00
 Gap=     0.213 Goal=   None    Shift=    0.000
 RMSDP=3.90D-07 MaxDP=1.41D-05 DE=-8.04D-11 OVMax= 2.65D-05

 Cycle  11  Pass 1  IDiag  1:
 E= -229.965879253321     Delta-E=       -0.000000004929 Rises=F Damp=F
 DIIS: error= 1.68D-06 at cycle   4 NSaved=   4.
 NSaved= 4 IEnMin= 4 EnMin= -229.965879253321     IErMin= 4 ErrMin= 1.68D-06
 ErrMax= 1.68D-06  0.00D+00 EMaxC= 1.00D-01 BMatC= 4.49D-10 BMatP= 5.77D-09
 IDIUse=1 WtCom= 1.00D+00 WtEn= 0.00D+00
 Coeff-Com: -0.121D-02 0.237D+00 0.292D+00 0.472D+00
 Coeff:     -0.121D-02 0.237D+00 0.292D+00 0.472D+00
 Gap=     0.213 Goal=   None    Shift=    0.000
 RMSDP=1.36D-07 MaxDP=5.37D-06 DE=-4.93D-09 OVMax= 1.16D-05

 Cycle  12  Pass 1  IDiag  1:
 E= -229.965879253724     Delta-E=       -0.000000000402 Rises=F Damp=F
 DIIS: error= 5.92D-07 at cycle   5 NSaved=   5.
 NSaved= 5 IEnMin= 5 EnMin= -229.965879253724     IErMin= 5 ErrMin= 5.92D-07
 ErrMax= 5.92D-07  0.00D+00 EMaxC= 1.00D-01 BMatC= 6.35D-11 BMatP= 4.49D-10
 IDIUse=1 WtCom= 1.00D+00 WtEn= 0.00D+00
 Coeff-Com: -0.693D-02 0.844D-01 0.121D+00 0.305D+00 0.496D+00
 Coeff:     -0.693D-02 0.844D-01 0.121D+00 0.305D+00 0.496D+00
 Gap=     0.213 Goal=   None    Shift=    0.000
 RMSDP=4.35D-08 MaxDP=1.90D-06 DE=-4.02D-10 OVMax= 4.05D-06

 Cycle  13  Pass 1  IDiag  1:
 E= -229.965879253790     Delta-E=       -0.000000000066 Rises=F Damp=F
 DIIS: error= 9.52D-08 at cycle   6 NSaved=   6.
 NSaved= 6 IEnMin= 6 EnMin= -229.965879253790     IErMin= 6 ErrMin= 9.52D-08
 ErrMax= 9.52D-08  0.00D+00 EMaxC= 1.00D-01 BMatC= 1.40D-12 BMatP= 6.35D-11
 IDIUse=1 WtCom= 1.00D+00 WtEn= 0.00D+00
 Coeff-Com: -0.358D-02 0.335D-01 0.481D-01 0.130D+00 0.247D+00 0.544D+00
 Coeff:     -0.358D-02 0.335D-01 0.481D-01 0.130D+00 0.247D+00 0.544D+00
 Gap=     0.213 Goal=   None    Shift=    0.000
 RMSDP=1.04D-08 MaxDP=3.67D-07 DE=-6.64D-11 OVMax= 8.49D-07

 Cycle  14  Pass 1  IDiag  1:
 E= -229.965879253787     Delta-E=        0.000000000004 Rises=F Damp=F
 DIIS: error= 5.19D-08 at cycle   7 NSaved=   7.
 NSaved= 7 IEnMin= 6 EnMin= -229.965879253790     IErMin= 7 ErrMin= 5.19D-08
 ErrMax= 5.19D-08  0.00D+00 EMaxC= 1.00D-01 BMatC= 3.75D-13 BMatP= 1.40D-12
 IDIUse=1 WtCom= 1.00D+00 WtEn= 0.00D+00
 Coeff-Com: -0.929D-04-0.311D-02-0.560D-02-0.506D-02 0.230D-01 0.350D+00
 Coeff-Com:  0.641D+00
 Coeff:     -0.929D-04-0.311D-02-0.560D-02-0.506D-02 0.230D-01 0.350D+00
 Coeff:      0.641D+00
 Gap=     0.213 Goal=   None    Shift=    0.000
 RMSDP=3.97D-09 MaxDP=1.69D-07 DE= 3.52D-12 OVMax= 3.86D-07

 SCF Done:  E(RB3LYP) =  -229.965879254     A.U. after   14 cycles
            NFock= 14  Conv=0.40D-08     -V/T= 2.0081
 KE= 2.281292705440D+02 PE=-8.212826965190D+02 EE= 2.206718895520D+02
 Leave Link  502 at Fri Aug 26 13:58:18 2022, MaxMem= 24159191040 cpu:        55.9
 (Enter /public/home/users/caep010/software/Gaussian09/g09/l601.exe)
 Copying SCF densities to generalized density rwf, IOpCl= 0 IROHF=0.

 **********************************************************************

            Population analysis using the SCF density.

 **********************************************************************

 Orbital symmetries:
       Occupied  (A) (A) (A) (A) (A) (A) (A) (A) (A) (A) (A) (A)
                 (A) (A) (A) (A) (A) (A)
       Virtual   (A) (A) (A) (A) (A) (A) (A) (A) (A) (A) (A) (A)
                 (A) (A) (A) (A) (A) (A) (A) (A) (A) (A) (A) (A)
                 (A) (A) (A) (A) (A) (A) (A) (A) (A) (A) (A) (A)
                 (A) (A) (A) (A) (A) (A) (A) (A) (A) (A) (A) (A)
                 (A) (A) (A) (A) (A) (A) (A) (A) (A) (A) (A) (A)
                 (A) (A) (A) (A) (A) (A) (A) (A) (A) (A) (A) (A)
                 (A) (A) (A) (A) (A) (A) (A) (A) (A) (A) (A) (A)
                 (A) (A) (A) (A) (A) (A) (A) (A) (A) (A) (A) (A)
                 (A) (A) (A) (A) (A) (A) (A) (A) (A) (A) (A) (A)
                 (A) (A) (A) (A) (A) (A) (A) (A) (A) (A) (A) (A)
                 (A) (A) (A) (A) (A) (A) (A) (A) (A) (A) (A) (A)
                 (A) (A) (A) (A) (A) (A) (A) (A) (A) (A)
 The electronic state is 1-A.
 Alpha  occ. eigenvalues --  -19.16953 -10.26488 -10.19554 -10.18959 -10.17414
 Alpha  occ. eigenvalues --   -1.03545  -0.79203  -0.73536  -0.61356  -0.57331
 Alpha  occ. eigenvalues --   -0.51784  -0.45351  -0.40535  -0.39557  -0.36073
 Alpha  occ. eigenvalues --   -0.29818  -0.28567  -0.22612
 Alpha virt. eigenvalues --   -0.01343   0.02378   0.07117   0.11942   0.13287
 Alpha virt. eigenvalues --    0.15234   0.17058   0.22199   0.30157   0.34450
 Alpha virt. eigenvalues --    0.37444   0.43383   0.46778   0.49335   0.49532
 Alpha virt. eigenvalues --    0.54393   0.55746   0.58753   0.59747   0.65654
 Alpha virt. eigenvalues --    0.66121   0.68041   0.70375   0.70677   0.71758
 Alpha virt. eigenvalues --    0.75636   0.77406   0.79701   0.81534   0.83172
 Alpha virt. eigenvalues --    0.87137   0.89685   0.90308   0.95850   0.97915
 Alpha virt. eigenvalues --    1.00909   1.01096   1.11926   1.12863   1.14893
 Alpha virt. eigenvalues --    1.15713   1.20658   1.24212   1.27942   1.34800
 Alpha virt. eigenvalues --    1.40820   1.42109   1.47884   1.52749   1.59465
 Alpha virt. eigenvalues --    1.60932   1.67330   1.73110   1.74434   1.76296
 Alpha virt. eigenvalues --    1.83130   1.91351   2.06021   2.10693   2.19624
 Alpha virt. eigenvalues --    2.22164   2.34946   2.41058   2.46182   2.52644
 Alpha virt. eigenvalues --    2.53373   2.63551   2.64941   2.65600   2.66570
 Alpha virt. eigenvalues --    2.68207   2.75625   2.77238   2.82021   2.84917
 Alpha virt. eigenvalues --    2.90901   2.98576   3.00077   3.01835   3.03711
 Alpha virt. eigenvalues --    3.08067   3.10492   3.13084   3.18959   3.21235
 Alpha virt. eigenvalues --    3.26007   3.31561   3.36664   3.44501   3.47786
 Alpha virt. eigenvalues --    3.49731   3.50974   3.58557   3.60261   3.63160
 Alpha virt. eigenvalues --    3.71024   3.77951   3.82218   3.93549   3.98668
 Alpha virt. eigenvalues --    4.04965   4.11067   4.18897   4.20612   4.23819
 Alpha virt. eigenvalues --    4.27477   4.30369   4.33066   4.33512   4.42187
 Alpha virt. eigenvalues --    4.42957   4.48869   4.52129   4.54618   4.61438
 Alpha virt. eigenvalues --    4.63108   4.72013   4.76824   4.78187   4.91262
 Alpha virt. eigenvalues --    5.02417   5.16095   5.17557   5.22909   5.23889
 Alpha virt. eigenvalues --    5.26135   5.28351   5.33249   5.46584   5.55393
 Alpha virt. eigenvalues --    5.72703   5.81592   5.93150   6.21847   6.36425
 Alpha virt. eigenvalues --    6.76133   7.06174   9.58046  10.25678  11.06640
 Alpha virt. eigenvalues --   11.90651  13.30168
          Condensed to atoms (all electrons):
               1          2          3          4          5          6
     1  C    5.235512   0.925631  -0.041520  -0.002210  -0.011020   0.372443
     2  C    0.925631   4.571237   0.365440  -0.022708  -0.079911   0.002834
     3  C   -0.041520   0.365440   4.400183   0.591660   0.436467  -0.000258
     4  C   -0.002210  -0.022708   0.591660   5.120709  -0.019809   0.000014
     5  O   -0.011020  -0.079911   0.436467  -0.019809   7.838888  -0.000039
     6  H    0.372443   0.002834  -0.000258   0.000014  -0.000039   0.418309
     7  H    0.000015   0.004578  -0.002349   0.343672  -0.003360   0.000001
     8  H   -0.000436  -0.012609  -0.006312   0.375220   0.001652  -0.000013
     9  H    0.000184   0.003926  -0.054356   0.005220   0.298281  -0.000012
               7          8          9
     1  C    0.000015  -0.000436   0.000184
     2  C    0.004578  -0.012609   0.003926
     3  C   -0.002349  -0.006312  -0.054356
     4  C    0.343672   0.375220   0.005220
     5  O   -0.003360   0.001652   0.298281
     6  H    0.000001  -0.000013  -0.000012
     7  H    0.573868  -0.036303  -0.000281
     8  H   -0.036303   0.550517  -0.000169
     9  H   -0.000281  -0.000169   0.423654
 Mulliken charges:
               1
     1  C   -0.478599
     2  C    0.241582
     3  C    0.311047
     4  C   -0.391768
     5  O   -0.461148
     6  H    0.206722
     7  H    0.120158
     8  H    0.128454
     9  H    0.323553
 Sum of Mulliken charges =  -0.00000
 Mulliken charges with hydrogens summed into heavy atoms:
               1
     1  C   -0.271877
     2  C    0.241582
     3  C    0.311047
     4  C   -0.143156
     5  O   -0.137596
 Electronic spatial extent (au):  <R**2>=            416.2959
 Charge=             -0.0000 electrons
 Dipole moment (field-independent basis, Debye):
    X=             -1.1708    Y=             -0.8651    Z=              0.0001  Tot=              1.4557
 Quadrupole moment (field-independent basis, Debye-Ang):
   XX=            -25.3367   YY=            -23.8947   ZZ=            -30.9084
   XY=              0.9664   XZ=              0.0000   YZ=             -0.0002
 Traceless Quadrupole moment (field-independent basis, Debye-Ang):
   XX=              1.3765   YY=              2.8186   ZZ=             -4.1952
   XY=              0.9664   XZ=              0.0000   YZ=             -0.0002
 Octapole moment (field-independent basis, Debye-Ang**2):
  XXX=            -16.7039  YYY=            -15.8771  ZZZ=              0.0000  XYY=              5.5717
  XXY=              1.2434  XXZ=              0.0002  XZZ=              2.4497  YZZ=             -3.0947
  YYZ=              0.0003  XYZ=             -0.0001
 Hexadecapole moment (field-independent basis, Debye-Ang**3):
 XXXX=           -267.7963 YYYY=           -116.4080 ZZZZ=            -29.8260 XXXY=              2.9854
 XXXZ=             -0.0004 YYYX=            -13.5427 YYYZ=             -0.0008 ZZZX=             -0.0001
 ZZZY=             -0.0000 XXYY=            -89.8618 XXZZ=            -70.5310 YYZZ=            -32.8352
 XXYZ=             -0.0001 YYXZ=              0.0002 ZZXY=             -3.0555
 N-N= 1.425156571693D+02 E-N=-8.212826987341D+02  KE= 2.281292705440D+02
 No NMR shielding tensors so no spin-rotation constants.
 Leave Link  601 at Fri Aug 26 13:58:19 2022, MaxMem= 24159191040 cpu:        13.0
 (Enter /public/home/users/caep010/software/Gaussian09/g09/l701.exe)
 Compute integral first derivatives.
 ... and contract with generalized density number  0.
 Leave Link  701 at Fri Aug 26 13:58:19 2022, MaxMem= 24159191040 cpu:        13.8
 (Enter /public/home/users/caep010/software/Gaussian09/g09/l702.exe)
 L702 exits ... SP integral derivatives will be done elsewhere.
 Leave Link  702 at Fri Aug 26 13:58:19 2022, MaxMem= 24159191040 cpu:         0.5
 (Enter /public/home/users/caep010/software/Gaussian09/g09/l703.exe)
 Compute integral first derivatives, UseDBF=F ICtDFT=           0.
 Integral derivatives from FoFJK, PRISM(SPDF).
 Calling FoFJK, ICntrl=      2127 FMM=F ISym2X=0 I1Cent= 0 IOpClX= 0 NMat=1 NMatS=1 NMatT=0.
 FoFJK:  IHMeth= 1 ICntrl=    2127 DoSepK=F KAlg= 0 I1Cent=   0 FoldK=F
 IRaf=         0 NMat=   1 IRICut=       1 DoRegI=T DoRafI=F ISym2E= 0.
 FoFCou: FMM=F IPFlag=           0 FMFlag=      100000 FMFlg1=         800
         NFxFlg=           0 DoJE=F BraDBF=F KetDBF=F FulRan=T
         wScrn=  0.000000 ICntrl=    2127 IOpCl=  0 I1Cent=           0 NGrid=           0
         NMat0=    1 NMatS0=      1 NMatT0=    0 NMatD0=    1 NMtDS0=    0 NMtDT0=    0
 Symmetry not used in FoFCou.
 Leave Link  703 at Fri Aug 26 13:58:20 2022, MaxMem= 24159191040 cpu:        27.8
 (Enter /public/home/users/caep010/software/Gaussian09/g09/l716.exe)
 Dipole        =-4.60639982D-01-3.40347732D-01 5.43552173D-05
 ***** Axes restored to original set *****
 -------------------------------------------------------------------
 Center     Atomic                   Forces (Hartrees/Bohr)
 Number     Number              X              Y              Z
 -------------------------------------------------------------------
      1        6          -0.006244792    0.001844027    0.000450898
      2        6          -0.006539447    0.006720452    0.001530168
      3        6           0.016723731    0.023406832    0.005135441
      4        6          -0.009627662   -0.005395345   -0.001149790
      5        8           0.010614909    0.019825925    0.004370920
      6        1           0.003085497   -0.000494805   -0.000128461
      7        1          -0.000686254   -0.000388796   -0.000084719
      8        1           0.000155603    0.003137857    0.000700373
      9        1          -0.007481584   -0.048656146   -0.010824829
 -------------------------------------------------------------------
 Cartesian Forces:  Max     0.048656146 RMS     0.012466433
 Leave Link  716 at Fri Aug 26 13:58:20 2022, MaxMem= 24159191040 cpu:         0.7
 (Enter /public/home/users/caep010/software/Gaussian09/g09/l103.exe)

 GradGradGradGradGradGradGradGradGradGradGradGradGradGradGradGradGradGrad
 Berny optimization.
 FormGI is forming the generalized inverse of G from B-inverse, IUseBI=4.
 Internal  Forces:  Max     0.046364834 RMS     0.013899440
 Search for a local minimum.
 Step number   1 out of a maximum of   35
 All quantities printed in internal units (Hartrees-Bohrs-Radians)
 RMS Force = .13899D-01 SwitMx=.10000D-02 MixMth= 1
 Mixed Optimization -- RFO/linear search
 Second derivative matrix not updated -- first step.
 ITU=  0
     Eigenvalues ---    0.00655   0.00655   0.01549   0.01549   0.01796
     Eigenvalues ---    0.02616   0.03023   0.03023   0.16000   0.16000
     Eigenvalues ---    0.16000   0.25000   0.25000   0.35569   0.35690
     Eigenvalues ---    0.38760   0.39472   0.45417   0.46958   0.59662
     Eigenvalues ---    1.02066
 RFO step:  Lambda=-1.59471724D-02 EMin= 6.55245526D-03
 Linear search not attempted -- first point.
 Iteration  1 RMS(Cart)=  0.13406728 RMS(Int)=  0.01065702
 Iteration  2 RMS(Cart)=  0.01032883 RMS(Int)=  0.00004973
 Iteration  3 RMS(Cart)=  0.00007974 RMS(Int)=  0.00000011
 Iteration  4 RMS(Cart)=  0.00000001 RMS(Int)=  0.00000011
 ITry= 1 IFail=0 DXMaxC= 4.01D-01 DCOld= 1.00D+10 DXMaxT= 3.00D-01 DXLimC= 3.00D+00 Rises=F
 Variable       Old X    -DE/DX   Delta X   Delta X   Delta X     New X
                                 (Linear)    (Quad)   (Total)
    R1        2.27823  -0.00322   0.00000  -0.00311  -0.00311   2.27512
    R2        1.99974   0.00311   0.00000   0.00770   0.00770   2.00744
    R3        2.72277  -0.01009   0.00000  -0.02457  -0.02457   2.69820
    R4        2.51209   0.00780   0.00000   0.01274   0.01274   2.52483
    R5        2.63066  -0.02771   0.00000  -0.05706  -0.05706   2.57359
    R6        2.04569   0.00067   0.00000   0.00179   0.00179   2.04747
    R7        2.04761  -0.00283   0.00000  -0.00760  -0.00760   2.04000
    R8        1.91494  -0.04636   0.00000  -0.09862  -0.09862   1.81632
    A1        2.09921   0.01232   0.00000   0.04633   0.04633   2.14553
    A2        2.09448  -0.01099   0.00000  -0.04131  -0.04131   2.05317
    A3        2.08950  -0.00133   0.00000  -0.00502  -0.00502   2.08448
    A4        2.09862   0.00164   0.00000   0.00931   0.00931   2.10793
    A5        2.11344  -0.00240   0.00000  -0.01362  -0.01362   2.09982
    A6        2.07112   0.00076   0.00000   0.00431   0.00431   2.07543
    A7        2.11461  -0.03786   0.00000  -0.21517  -0.21517   1.89944
    A8        3.14154  -0.00073   0.00000  -0.03238  -0.03238   3.10916
    A9        3.14267   0.00208   0.00000   0.06620   0.06620   3.20887
   A10        3.14176  -0.00000   0.00000  -0.00006  -0.00006   3.14170
   A11        3.14171  -0.00000   0.00000  -0.00014  -0.00014   3.14156
    D1        3.14156   0.00000   0.00000   0.00002   0.00002   3.14158
    D2       -0.00001   0.00000   0.00000  -0.00000  -0.00000  -0.00001
    D3       -0.00005   0.00000   0.00000   0.00004   0.00004  -0.00001
    D4        3.14156   0.00000   0.00000   0.00002   0.00002   3.14158
    D5       -0.00006   0.00000   0.00000   0.00001   0.00001  -0.00005
    D6        3.14155  -0.00000   0.00000  -0.00001  -0.00001   3.14154
         Item               Value     Threshold  Converged?
 Maximum Force            0.046365     0.000450     NO 
 RMS     Force            0.013899     0.000300     NO 
 Maximum Displacement     0.401036     0.001800     NO 
 RMS     Displacement     0.136430     0.001200     NO 
 Predicted change in Energy=-8.529944D-03
 Lowest energy point so far.  Saving SCF results.
 GradGradGradGradGradGradGradGradGradGradGradGradGradGradGradGradGradGrad

 Leave Link  103 at Fri Aug 26 13:58:20 2022, MaxMem= 24159191040 cpu:         2.2
 (Enter /public/home/users/caep010/software/Gaussian09/g09/l202.exe)
                          Input orientation:                          
 ---------------------------------------------------------------------
 Center     Atomic      Atomic             Coordinates (Angstroms)
 Number     Number       Type             X           Y           Z
 ---------------------------------------------------------------------
      1          6           0        2.148998    0.109330   -0.223226
      2          6           0        0.945613    0.072798   -0.224770
      3          6           0       -0.481197    0.123203   -0.205642
      4          6           0       -1.248899   -0.944909   -0.439911
      5          8           0       -1.067413    1.322228    0.065331
      6          1           0        3.211271    0.107930   -0.229311
      7          1           0       -2.329316   -0.866968   -0.416533
      8          1           0       -0.799219   -1.902193   -0.656160
      9          1           0       -0.379838    1.978481    0.208122
 ---------------------------------------------------------------------
                    Distance matrix (angstroms):
                    1          2          3          4          5
     1  C    0.000000
     2  C    1.203941   0.000000
     3  C    2.630290   1.427828   0.000000
     4  C    3.564278   2.428558   1.336081   0.000000
     5  O    3.449592   2.386945   1.361887   2.329831   0.000000
     6  H    1.062291   2.265935   3.692575   4.587586   4.457406
     7  H    4.587573   3.412491   2.107240   1.083476   2.572386
     8  H    3.595225   2.670417   2.099127   1.079523   3.315021
     9  H    3.174082   2.361322   1.903557   3.117919   0.961154
                    6          7          8          9
     6  H    0.000000
     7  H    5.628817   0.000000
     8  H    4.506310   1.862876   0.000000
     9  H    4.072636   3.505316   3.997811   0.000000
 Stoichiometry    C4H4O
 Framework group  C1[X(C4H4O)]
 Deg. of freedom    21
 Full point group                 C1      NOp   1
 RotChk:  IX=3 Diff= 1.15D-01
 Largest Abelian subgroup         C1      NOp   1
 Largest concise Abelian subgroup C1      NOp   1
                         Standard orientation:                         
 ---------------------------------------------------------------------
 Center     Atomic      Atomic             Coordinates (Angstroms)
 Number     Number       Type             X           Y           Z
 ---------------------------------------------------------------------
      1          6           0       -2.166293    0.085533   -0.000004
      2          6           0       -0.962581    0.109002   -0.000017
      3          6           0        0.463616    0.040797   -0.000005
      4          6           0        1.242665    1.126244    0.000006
      5          8           0        1.037020   -1.194494   -0.000002
      6          1           0       -3.228496    0.099277    0.000074
      7          1           0        2.322195    1.033846    0.000028
      8          1           0        0.803214    2.112272   -0.000005
      9          1           0        0.342485   -1.858902    0.000035
 ---------------------------------------------------------------------
 Rotational constants (GHZ):     10.7064851      4.1228625      2.9766222
 Leave Link  202 at Fri Aug 26 13:58:20 2022, MaxMem= 24159191040 cpu:         0.2
 (Enter /public/home/users/caep010/software/Gaussian09/g09/l301.exe)
 Standard basis: GTBas3 (6D, 7F)
 Ernie: Thresh=  0.10000D-02 Tol=  0.10000D-05 Strict=F.
 There are   175 symmetry adapted cartesian basis functions of A   symmetry.
 There are   160 symmetry adapted basis functions of A   symmetry.
   160 basis functions,   248 primitive gaussians,   175 cartesian basis functions
    18 alpha electrons       18 beta electrons
       nuclear repulsion energy       144.1584112836 Hartrees.
 IExCor=  402 DFT=T Ex+Corr=B3LYP ExCW=0 ScaHFX=  0.200000
 ScaDFX=  0.800000  0.720000  1.000000  0.810000 ScalE2=  1.000000  1.000000
 IRadAn=      0 IRanWt=     -1 IRanGd=            0 ICorTp=0 IEmpDi=  4
 NAtoms=    9 NActive=    9 NUniq=    9 SFac= 1.00D+00 NAtFMM=   60 NAOKFM=F Big=F
 Integral buffers will be    131072 words long.
 Raffenetti 2 integral format.
 Two-electron integral symmetry is turned on.
 Leave Link  301 at Fri Aug 26 13:58:20 2022, MaxMem= 24159191040 cpu:         1.6
 (Enter /public/home/users/caep010/software/Gaussian09/g09/l302.exe)
 NPDir=0 NMtPBC=     1 NCelOv=     1 NCel=       1 NClECP=     1 NCelD=      1
         NCelK=      1 NCelE2=     1 NClLst=     1 CellRange=     0.0.
 One-electron integrals computed using PRISM.
 NBasis=   160 RedAO= T EigKep=  1.49D-04  NBF=   160
 NBsUse=   160 1.00D-06 EigRej= -1.00D+00 NBFU=   160
 Precomputing XC quadrature grid using
 IXCGrd= 4 IRadAn=           0 IRanWt=          -1 IRanGd=           0 AccXCQ= 0.00D+00.
 Generated NRdTot=       0 NPtTot=           0 NUsed=           0 NTot=          32
 NSgBfM=   175   175   175   175   175 MxSgAt=     9 MxSgA2=     9.
 Leave Link  302 at Fri Aug 26 13:58:21 2022, MaxMem= 24159191040 cpu:        13.5
 (Enter /public/home/users/caep010/software/Gaussian09/g09/l303.exe)
 DipDrv:  MaxL=1.
 Leave Link  303 at Fri Aug 26 13:58:21 2022, MaxMem= 24159191040 cpu:         0.7
 (Enter /public/home/users/caep010/software/Gaussian09/g09/l401.exe)
 Initial guess from the checkpoint file:  "G4.Frag_639.chk"
 B after Tr=    -0.000000    0.000000    0.000000
         Rot=    0.999282    0.000000    0.000000    0.037889 Ang=   4.34 deg.
 Guess basis will be translated and rotated to current coordinates.
 JPrj=2 DoOrth=T DoCkMO=T.
 Generating alternative initial guess.
 ExpMin= 1.61D-01 ExpMax= 5.48D+03 ExpMxC= 8.25D+02 IAcc=1 IRadAn=         1 AccDes= 0.00D+00
 Harris functional with IExCor=  402 and IRadAn=       1 diagonalized for initial guess.
 HarFok:  IExCor=  402 AccDes= 0.00D+00 IRadAn=         1 IDoV= 1 UseB2=F ITyADJ=14
 ICtDFT=  3500011 ScaDFX=  1.000000  1.000000  1.000000  1.000000
 FoFCou: FMM=F IPFlag=           0 FMFlag=      100000 FMFlg1=           0
         NFxFlg=           0 DoJE=T BraDBF=F KetDBF=T FulRan=T
         wScrn=  0.000000 ICntrl=     500 IOpCl=  0 I1Cent=   200000004 NGrid=           0
         NMat0=    1 NMatS0=      1 NMatT0=    0 NMatD0=    1 NMtDS0=    0 NMtDT0=    0
 Petite list used in FoFCou.
 Harris En= -230.036204469475    
 Leave Link  401 at Fri Aug 26 13:58:22 2022, MaxMem= 24159191040 cpu:        15.6
 (Enter /public/home/users/caep010/software/Gaussian09/g09/l502.exe)
 Closed shell SCF:
 Using DIIS extrapolation, IDIIS=  1040.
 Integral symmetry usage will be decided dynamically.
 Keep R1 ints in memory in canonical form, NReq=85796735.
 IVT=      117295 IEndB=      117295 NGot= 24159191040 MDV= 24076120106
 LenX= 24076120106 LenY= 24076089040
 Requested convergence on RMS density matrix=1.00D-08 within 128 cycles.
 Requested convergence on MAX density matrix=1.00D-06.
 Requested convergence on             energy=1.00D-06.
 No special actions if energy rises.
 FoFCou: FMM=F IPFlag=           0 FMFlag=           0 FMFlg1=           0
         NFxFlg=           0 DoJE=F BraDBF=F KetDBF=F FulRan=T
         wScrn=  0.000000 ICntrl=     600 IOpCl=  0 I1Cent=           0 NGrid=           0
         NMat0=    1 NMatS0=  12880 NMatT0=    0 NMatD0=    1 NMtDS0=    0 NMtDT0=    0
 Symmetry not used in FoFCou.
 Integral accuracy reduced to 1.0D-05 until final iterations.

 Cycle   1  Pass 0  IDiag  1:
 E= -229.964192294252    
 DIIS: error= 7.52D-03 at cycle   1 NSaved=   1.
 NSaved= 1 IEnMin= 1 EnMin= -229.964192294252     IErMin= 1 ErrMin= 7.52D-03
 ErrMax= 7.52D-03  0.00D+00 EMaxC= 1.00D-01 BMatC= 8.86D-03 BMatP= 8.86D-03
 IDIUse=3 WtCom= 9.25D-01 WtEn= 7.52D-02
 Coeff-Com:  0.100D+01
 Coeff-En:   0.100D+01
 Coeff:      0.100D+01
 Gap=     0.935 Goal=   None    Shift=    0.000
 GapD=    0.935 DampG=2.000 DampE=1.000 DampFc=2.0000 IDamp=-1.
 RMSDP=9.16D-04 MaxDP=3.36D-02              OVMax= 2.84D-02

 Cycle   2  Pass 0  IDiag  1:
 E= -229.973690761358     Delta-E=       -0.009498467106 Rises=F Damp=F
 DIIS: error= 1.54D-03 at cycle   2 NSaved=   2.
 NSaved= 2 IEnMin= 2 EnMin= -229.973690761358     IErMin= 2 ErrMin= 1.54D-03
 ErrMax= 1.54D-03  0.00D+00 EMaxC= 1.00D-01 BMatC= 5.42D-04 BMatP= 8.86D-03
 IDIUse=3 WtCom= 9.85D-01 WtEn= 1.54D-02
 Coeff-Com:  0.674D-01 0.933D+00
 Coeff-En:   0.000D+00 0.100D+01
 Coeff:      0.664D-01 0.934D+00
 Gap=     0.209 Goal=   None    Shift=    0.000
 RMSDP=2.76D-04 MaxDP=1.06D-02 DE=-9.50D-03 OVMax= 1.76D-02

 Cycle   3  Pass 0  IDiag  1:
 E= -229.973178147026     Delta-E=        0.000512614332 Rises=F Damp=F
 DIIS: error= 2.38D-03 at cycle   3 NSaved=   3.
 NSaved= 3 IEnMin= 2 EnMin= -229.973690761358     IErMin= 2 ErrMin= 1.54D-03
 ErrMax= 2.38D-03  0.00D+00 EMaxC= 1.00D-01 BMatC= 1.09D-03 BMatP= 5.42D-04
 IDIUse=3 WtCom= 1.70D-01 WtEn= 8.30D-01
 Coeff-Com: -0.133D-01 0.598D+00 0.415D+00
 Coeff-En:   0.000D+00 0.662D+00 0.338D+00
 Coeff:     -0.227D-02 0.652D+00 0.351D+00
 Gap=     0.209 Goal=   None    Shift=    0.000
 RMSDP=1.83D-04 MaxDP=5.37D-03 DE= 5.13D-04 OVMax= 1.09D-02

 Cycle   4  Pass 0  IDiag  1:
 E= -229.974126211616     Delta-E=       -0.000948064590 Rises=F Damp=F
 DIIS: error= 2.39D-04 at cycle   4 NSaved=   4.
 NSaved= 4 IEnMin= 4 EnMin= -229.974126211616     IErMin= 4 ErrMin= 2.39D-04
 ErrMax= 2.39D-04  0.00D+00 EMaxC= 1.00D-01 BMatC= 2.35D-05 BMatP= 5.42D-04
 IDIUse=3 WtCom= 9.98D-01 WtEn= 2.39D-03
 Coeff-Com: -0.126D-01 0.237D+00 0.140D+00 0.636D+00
 Coeff-En:   0.000D+00 0.000D+00 0.000D+00 0.100D+01
 Coeff:     -0.125D-01 0.236D+00 0.139D+00 0.637D+00
 Gap=     0.209 Goal=   None    Shift=    0.000
 RMSDP=4.12D-05 MaxDP=1.19D-03 DE=-9.48D-04 OVMax= 1.82D-03

 Cycle   5  Pass 0  IDiag  1:
 E= -229.974134870757     Delta-E=       -0.000008659141 Rises=F Damp=F
 DIIS: error= 2.48D-04 at cycle   5 NSaved=   5.
 NSaved= 5 IEnMin= 5 EnMin= -229.974134870757     IErMin= 4 ErrMin= 2.39D-04
 ErrMax= 2.48D-04  0.00D+00 EMaxC= 1.00D-01 BMatC= 1.17D-05 BMatP= 2.35D-05
 IDIUse=3 WtCom= 9.98D-01 WtEn= 2.48D-03
 Coeff-Com: -0.700D-02 0.101D+00 0.553D-01 0.434D+00 0.417D+00
 Coeff-En:   0.000D+00 0.000D+00 0.000D+00 0.366D+00 0.634D+00
 Coeff:     -0.698D-02 0.101D+00 0.552D-01 0.433D+00 0.418D+00
 Gap=     0.209 Goal=   None    Shift=    0.000
 RMSDP=1.79D-05 MaxDP=6.43D-04 DE=-8.66D-06 OVMax= 1.19D-03

 Cycle   6  Pass 0  IDiag  1:
 E= -229.974145046166     Delta-E=       -0.000010175409 Rises=F Damp=F
 DIIS: error= 4.92D-05 at cycle   6 NSaved=   6.
 NSaved= 6 IEnMin= 6 EnMin= -229.974145046166     IErMin= 6 ErrMin= 4.92D-05
 ErrMax= 4.92D-05  0.00D+00 EMaxC= 1.00D-01 BMatC= 4.36D-07 BMatP= 1.17D-05
 IDIUse=1 WtCom= 1.00D+00 WtEn= 0.00D+00
 Coeff-Com: -0.218D-02 0.236D-01 0.124D-01 0.148D+00 0.213D+00 0.605D+00
 Coeff:     -0.218D-02 0.236D-01 0.124D-01 0.148D+00 0.213D+00 0.605D+00
 Gap=     0.209 Goal=   None    Shift=    0.000
 RMSDP=4.82D-06 MaxDP=2.03D-04 DE=-1.02D-05 OVMax= 4.31D-04

 Initial convergence to 1.0D-05 achieved.  Increase integral accuracy.
 Cycle   7  Pass 1  IDiag  1:
 E= -229.974122282210     Delta-E=        0.000022763956 Rises=F Damp=F
 DIIS: error= 2.07D-05 at cycle   1 NSaved=   1.
 NSaved= 1 IEnMin= 1 EnMin= -229.974122282210     IErMin= 1 ErrMin= 2.07D-05
 ErrMax= 2.07D-05  0.00D+00 EMaxC= 1.00D-01 BMatC= 1.08D-07 BMatP= 1.08D-07
 IDIUse=1 WtCom= 1.00D+00 WtEn= 0.00D+00
 Coeff-Com:  0.100D+01
 Coeff:      0.100D+01
 Gap=     0.209 Goal=   None    Shift=    0.000
 RMSDP=4.82D-06 MaxDP=2.03D-04 DE= 2.28D-05 OVMax= 5.00D-04

 Cycle   8  Pass 1  IDiag  1:
 E= -229.974122032269     Delta-E=        0.000000249941 Rises=F Damp=F
 DIIS: error= 3.84D-05 at cycle   2 NSaved=   2.
 NSaved= 2 IEnMin= 1 EnMin= -229.974122282210     IErMin= 1 ErrMin= 2.07D-05
 ErrMax= 3.84D-05  0.00D+00 EMaxC= 1.00D-01 BMatC= 3.34D-07 BMatP= 1.08D-07
 IDIUse=1 WtCom= 1.00D+00 WtEn= 0.00D+00
 Coeff-Com:  0.643D+00 0.357D+00
 Coeff:      0.643D+00 0.357D+00
 Gap=     0.209 Goal=   None    Shift=    0.000
 RMSDP=3.35D-06 MaxDP=1.56D-04 DE= 2.50D-07 OVMax= 3.59D-04

 Cycle   9  Pass 1  IDiag  1:
 E= -229.974122384938     Delta-E=       -0.000000352669 Rises=F Damp=F
 DIIS: error= 6.35D-06 at cycle   3 NSaved=   3.
 NSaved= 3 IEnMin= 3 EnMin= -229.974122384938     IErMin= 3 ErrMin= 6.35D-06
 ErrMax= 6.35D-06  0.00D+00 EMaxC= 1.00D-01 BMatC= 6.83D-09 BMatP= 1.08D-07
 IDIUse=1 WtCom= 1.00D+00 WtEn= 0.00D+00
 Coeff-Com:  0.292D+00 0.189D+00 0.519D+00
 Coeff:      0.292D+00 0.189D+00 0.519D+00
 Gap=     0.209 Goal=   None    Shift=    0.000
 RMSDP=5.81D-07 MaxDP=2.25D-05 DE=-3.53D-07 OVMax= 3.90D-05

 Cycle  10  Pass 1  IDiag  1:
 E= -229.974122389742     Delta-E=       -0.000000004805 Rises=F Damp=F
 DIIS: error= 3.30D-06 at cycle   4 NSaved=   4.
 NSaved= 4 IEnMin= 4 EnMin= -229.974122389742     IErMin= 4 ErrMin= 3.30D-06
 ErrMax= 3.30D-06  0.00D+00 EMaxC= 1.00D-01 BMatC= 2.10D-09 BMatP= 6.83D-09
 IDIUse=1 WtCom= 1.00D+00 WtEn= 0.00D+00
 Coeff-Com:  0.336D-01 0.370D-01 0.363D+00 0.567D+00
 Coeff:      0.336D-01 0.370D-01 0.363D+00 0.567D+00
 Gap=     0.209 Goal=   None    Shift=    0.000
 RMSDP=2.40D-07 MaxDP=9.16D-06 DE=-4.80D-09 OVMax= 1.69D-05

 Cycle  11  Pass 1  IDiag  1:
 E= -229.974122391422     Delta-E=       -0.000000001680 Rises=F Damp=F
 DIIS: error= 1.00D-06 at cycle   5 NSaved=   5.
 NSaved= 5 IEnMin= 5 EnMin= -229.974122391422     IErMin= 5 ErrMin= 1.00D-06
 ErrMax= 1.00D-06  0.00D+00 EMaxC= 1.00D-01 BMatC= 2.54D-10 BMatP= 2.10D-09
 IDIUse=1 WtCom= 1.00D+00 WtEn= 0.00D+00
 Coeff-Com: -0.392D-02 0.707D-02 0.191D+00 0.363D+00 0.443D+00
 Coeff:     -0.392D-02 0.707D-02 0.191D+00 0.363D+00 0.443D+00
 Gap=     0.209 Goal=   None    Shift=    0.000
 RMSDP=9.84D-08 MaxDP=3.33D-06 DE=-1.68D-09 OVMax= 6.67D-06

 Cycle  12  Pass 1  IDiag  1:
 E= -229.974122391663     Delta-E=       -0.000000000241 Rises=F Damp=F
 DIIS: error= 2.44D-07 at cycle   6 NSaved=   6.
 NSaved= 6 IEnMin= 6 EnMin= -229.974122391663     IErMin= 6 ErrMin= 2.44D-07
 ErrMax= 2.44D-07  0.00D+00 EMaxC= 1.00D-01 BMatC= 1.26D-11 BMatP= 2.54D-10
 IDIUse=1 WtCom= 1.00D+00 WtEn= 0.00D+00
 Coeff-Com: -0.477D-02 0.839D-03 0.767D-01 0.153D+00 0.251D+00 0.523D+00
 Coeff:     -0.477D-02 0.839D-03 0.767D-01 0.153D+00 0.251D+00 0.523D+00
 Gap=     0.209 Goal=   None    Shift=    0.000
 RMSDP=2.27D-08 MaxDP=7.48D-07 DE=-2.41D-10 OVMax= 1.18D-06

 Cycle  13  Pass 1  IDiag  1:
 E= -229.974122391672     Delta-E=       -0.000000000009 Rises=F Damp=F
 DIIS: error= 4.62D-08 at cycle   7 NSaved=   7.
 NSaved= 7 IEnMin= 7 EnMin= -229.974122391672     IErMin= 7 ErrMin= 4.62D-08
 ErrMax= 4.62D-08  0.00D+00 EMaxC= 1.00D-01 BMatC= 5.28D-13 BMatP= 1.26D-11
 IDIUse=1 WtCom= 1.00D+00 WtEn= 0.00D+00
 Coeff-Com: -0.223D-02-0.138D-04 0.273D-01 0.542D-01 0.100D+00 0.257D+00
 Coeff-Com:  0.563D+00
 Coeff:     -0.223D-02-0.138D-04 0.273D-01 0.542D-01 0.100D+00 0.257D+00
 Coeff:      0.563D+00
 Gap=     0.209 Goal=   None    Shift=    0.000
 RMSDP=4.50D-09 MaxDP=1.11D-07 DE=-8.53D-12 OVMax= 1.87D-07

 SCF Done:  E(RB3LYP) =  -229.974122392     A.U. after   13 cycles
            NFock= 13  Conv=0.45D-08     -V/T= 2.0072
 KE= 2.283282031454D+02 PE=-8.245721998887D+02 EE= 2.221114630680D+02
 Leave Link  502 at Fri Aug 26 13:58:25 2022, MaxMem= 24159191040 cpu:        57.0
 (Enter /public/home/users/caep010/software/Gaussian09/g09/l701.exe)
 Compute integral first derivatives.
 ... and contract with generalized density number  0.
 Leave Link  701 at Fri Aug 26 13:58:26 2022, MaxMem= 24159191040 cpu:        13.9
 (Enter /public/home/users/caep010/software/Gaussian09/g09/l702.exe)
 L702 exits ... SP integral derivatives will be done elsewhere.
 Leave Link  702 at Fri Aug 26 13:58:26 2022, MaxMem= 24159191040 cpu:         0.5
 (Enter /public/home/users/caep010/software/Gaussian09/g09/l703.exe)
 Compute integral first derivatives, UseDBF=F ICtDFT=           0.
 Integral derivatives from FoFJK, PRISM(SPDF).
 Calling FoFJK, ICntrl=      2127 FMM=F ISym2X=0 I1Cent= 0 IOpClX= 0 NMat=1 NMatS=1 NMatT=0.
 FoFJK:  IHMeth= 1 ICntrl=    2127 DoSepK=F KAlg= 0 I1Cent=   0 FoldK=F
 IRaf=         0 NMat=   1 IRICut=       1 DoRegI=T DoRafI=F ISym2E= 0.
 FoFCou: FMM=F IPFlag=           0 FMFlag=      100000 FMFlg1=         800
         NFxFlg=           0 DoJE=F BraDBF=F KetDBF=F FulRan=T
         wScrn=  0.000000 ICntrl=    2127 IOpCl=  0 I1Cent=           0 NGrid=           0
         NMat0=    1 NMatS0=      1 NMatT0=    0 NMatD0=    1 NMtDS0=    0 NMtDT0=    0
 Symmetry not used in FoFCou.
 Leave Link  703 at Fri Aug 26 13:58:27 2022, MaxMem= 24159191040 cpu:        28.1
 (Enter /public/home/users/caep010/software/Gaussian09/g09/l716.exe)
 Dipole        =-5.91043662D-01-2.17545681D-01 5.42575593D-05
 ***** Axes restored to original set *****
 -------------------------------------------------------------------
 Center     Atomic                   Forces (Hartrees/Bohr)
 Number     Number              X              Y              Z
 -------------------------------------------------------------------
      1        6           0.001143340   -0.000303771   -0.000072315
      2        6          -0.002417596    0.002968302    0.000677145
      3        6          -0.001102507   -0.007515093   -0.001673103
      4        6          -0.000050254   -0.003106347   -0.000693265
      5        8           0.000888778    0.006698235    0.001491025
      6        1          -0.000062072    0.000073124    0.000014982
      7        1           0.000724589    0.000439910    0.000094069
      8        1           0.000130515   -0.000436846   -0.000098305
      9        1           0.000745207    0.001182486    0.000259768
 -------------------------------------------------------------------
 Cartesian Forces:  Max     0.007515093 RMS     0.002260758
 Leave Link  716 at Fri Aug 26 13:58:27 2022, MaxMem= 24159191040 cpu:         0.5
 (Enter /public/home/users/caep010/software/Gaussian09/g09/l103.exe)

 GradGradGradGradGradGradGradGradGradGradGradGradGradGradGradGradGradGrad
 Berny optimization.
 Using GEDIIS/GDIIS optimizer.
 FormGI is forming the generalized inverse of G from B-inverse, IUseBI=4.
 Internal  Forces:  Max     0.006583383 RMS     0.002271930
 Search for a local minimum.
 Step number   2 out of a maximum of   35
 All quantities printed in internal units (Hartrees-Bohrs-Radians)
 RMS Force = .22719D-02 SwitMx=.10000D-02 MixMth= 1
 Mixed Optimization -- RFO/linear search
 Update second derivatives using D2CorX and points    1    2
 DE= -8.24D-03 DEPred=-8.53D-03 R= 9.66D-01
 TightC=F SS=  1.41D+00  RLast= 2.64D-01 DXNew= 5.0454D-01 7.9245D-01
 Trust test= 9.66D-01 RLast= 2.64D-01 DXMaxT set to 5.05D-01
 ITU=  1  0
 Use linear search instead of GDIIS.
     Eigenvalues ---    0.00655   0.00657   0.01549   0.01566   0.01796
     Eigenvalues ---    0.02643   0.03023   0.03023   0.15946   0.16000
     Eigenvalues ---    0.16645   0.24061   0.25566   0.35582   0.35696
     Eigenvalues ---    0.38760   0.39297   0.45123   0.50569   0.59517
     Eigenvalues ---    1.02117
 RFO step:  Lambda=-4.02205306D-04 EMin= 6.55245521D-03
 Quartic linear search produced a step of -0.01972.
 Iteration  1 RMS(Cart)=  0.01447696 RMS(Int)=  0.00010525
 Iteration  2 RMS(Cart)=  0.00014404 RMS(Int)=  0.00000001
 Iteration  3 RMS(Cart)=  0.00000001 RMS(Int)=  0.00000000
 ITry= 1 IFail=0 DXMaxC= 4.22D-02 DCOld= 1.00D+10 DXMaxT= 5.05D-01 DXLimC= 3.00D+00 Rises=F
 Variable       Old X    -DE/DX   Delta X   Delta X   Delta X     New X
                                 (Linear)    (Quad)   (Total)
    R1        2.27512   0.00107   0.00006   0.00088   0.00095   2.27606
    R2        2.00744  -0.00006  -0.00015   0.00022   0.00007   2.00751
    R3        2.69820  -0.00144   0.00048  -0.00477  -0.00429   2.69391
    R4        2.52483   0.00214  -0.00025   0.00413   0.00388   2.52870
    R5        2.57359   0.00658   0.00113   0.01097   0.01210   2.58569
    R6        2.04747  -0.00069  -0.00004  -0.00180  -0.00184   2.04564
    R7        2.04000   0.00046   0.00015   0.00090   0.00105   2.04105
    R8        1.81632   0.00138   0.00194  -0.00181   0.00014   1.81646
    A1        2.14553   0.00062  -0.00091   0.00477   0.00386   2.14939
    A2        2.05317  -0.00636   0.00081  -0.02700  -0.02618   2.02699
    A3        2.08448   0.00574   0.00010   0.02223   0.02232   2.10681
    A4        2.10793  -0.00073  -0.00018  -0.00397  -0.00416   2.10378
    A5        2.09982   0.00043   0.00027   0.00193   0.00220   2.10202
    A6        2.07543   0.00030  -0.00008   0.00204   0.00196   2.07739
    A7        1.89944   0.00063   0.00424  -0.00752  -0.00328   1.89616
    A8        3.10916   0.00015   0.00064   0.01499   0.01563   3.12479
    A9        3.20887  -0.00046  -0.00131  -0.02056  -0.02187   3.18701
   A10        3.14170  -0.00000   0.00000  -0.00028  -0.00028   3.14142
   A11        3.14156   0.00000   0.00000   0.00013   0.00013   3.14169
    D1        3.14158   0.00000  -0.00000   0.00001   0.00001   3.14159
    D2       -0.00001   0.00000   0.00000   0.00000   0.00000  -0.00001
    D3       -0.00001   0.00000  -0.00000   0.00001   0.00001  -0.00001
    D4        3.14158  -0.00000  -0.00000  -0.00000  -0.00000   3.14158
    D5       -0.00005   0.00000  -0.00000   0.00001   0.00001  -0.00004
    D6        3.14154   0.00000   0.00000   0.00001   0.00001   3.14155
         Item               Value     Threshold  Converged?
 Maximum Force            0.006583     0.000450     NO 
 RMS     Force            0.002272     0.000300     NO 
 Maximum Displacement     0.042160     0.001800     NO 
 RMS     Displacement     0.014517     0.001200     NO 
 Predicted change in Energy=-2.052717D-04
 Lowest energy point so far.  Saving SCF results.
 GradGradGradGradGradGradGradGradGradGradGradGradGradGradGradGradGradGrad

 Leave Link  103 at Fri Aug 26 13:58:27 2022, MaxMem= 24159191040 cpu:         0.7
 (Enter /public/home/users/caep010/software/Gaussian09/g09/l202.exe)
                          Input orientation:                          
 ---------------------------------------------------------------------
 Center     Atomic      Atomic             Coordinates (Angstroms)
 Number     Number       Type             X           Y           Z
 ---------------------------------------------------------------------
      1          6           0        2.140718    0.108444   -0.223306
      2          6           0        0.936498    0.085422   -0.221783
      3          6           0       -0.488519    0.121374   -0.205982
      4          6           0       -1.250273   -0.953211   -0.441765
      5          8           0       -1.057866    1.335017    0.068111
      6          1           0        3.203027    0.111355   -0.228641
      7          1           0       -2.329906   -0.877786   -0.419029
      8          1           0       -0.796151   -1.909097   -0.657687
      9          1           0       -0.357528    1.978383    0.207981
 ---------------------------------------------------------------------
                    Distance matrix (angstroms):
                    1          2          3          4          5
     1  C    0.000000
     2  C    1.204441   0.000000
     3  C    2.629326   1.425558   0.000000
     4  C    3.560008   2.430868   1.338131   0.000000
     5  O    3.438072   2.371289   1.368288   2.352229   0.000000
     6  H    1.062327   2.266688   3.691630   4.583733   4.443042
     7  H    4.582296   3.411169   2.105806   1.082503   2.598440
     8  H    3.589479   2.677721   2.102733   1.080077   3.334599
     9  H    3.150224   2.332917   1.907094   3.132636   0.961227
                    6          7          8          9
     6  H    0.000000
     7  H    5.623878   0.000000
     8  H    4.501082   1.863589   0.000000
     9  H    4.044006   3.527198   4.006778   0.000000
 Stoichiometry    C4H4O
 Framework group  C1[X(C4H4O)]
 Deg. of freedom    21
 Full point group                 C1      NOp   1
 RotChk:  IX=1 Diff= 7.71D-03
 Largest Abelian subgroup         C1      NOp   1
 Largest concise Abelian subgroup C1      NOp   1
                         Standard orientation:                         
 ---------------------------------------------------------------------
 Center     Atomic      Atomic             Coordinates (Angstroms)
 Number     Number       Type             X           Y           Z
 ---------------------------------------------------------------------
      1          6           0       -2.159224    0.100907   -0.000003
      2          6           0       -0.954787    0.103946    0.000052
      3          6           0        0.469460    0.042823    0.000008
      4          6           0        1.248574    1.130747   -0.000009
      5          8           0        1.019014   -1.210253   -0.000016
      6          1           0       -3.221443    0.116074   -0.000157
      7          1           0        2.326841    1.035071   -0.000037
      8          1           0        0.810041    2.117791    0.000000
      9          1           0        0.308315   -1.857450    0.000037
 ---------------------------------------------------------------------
 Rotational constants (GHZ):     10.5348963      4.1542294      2.9793724
 Leave Link  202 at Fri Aug 26 13:58:27 2022, MaxMem= 24159191040 cpu:         0.2
 (Enter /public/home/users/caep010/software/Gaussian09/g09/l301.exe)
 Standard basis: GTBas3 (6D, 7F)
 Ernie: Thresh=  0.10000D-02 Tol=  0.10000D-05 Strict=F.
 There are   175 symmetry adapted cartesian basis functions of A   symmetry.
 There are   160 symmetry adapted basis functions of A   symmetry.
   160 basis functions,   248 primitive gaussians,   175 cartesian basis functions
    18 alpha electrons       18 beta electrons
       nuclear repulsion energy       144.0504483308 Hartrees.
 IExCor=  402 DFT=T Ex+Corr=B3LYP ExCW=0 ScaHFX=  0.200000
 ScaDFX=  0.800000  0.720000  1.000000  0.810000 ScalE2=  1.000000  1.000000
 IRadAn=      0 IRanWt=     -1 IRanGd=            0 ICorTp=0 IEmpDi=  4
 NAtoms=    9 NActive=    9 NUniq=    9 SFac= 1.00D+00 NAtFMM=   60 NAOKFM=F Big=F
 Integral buffers will be    131072 words long.
 Raffenetti 2 integral format.
 Two-electron integral symmetry is turned on.
 Leave Link  301 at Fri Aug 26 13:58:27 2022, MaxMem= 24159191040 cpu:         1.7
 (Enter /public/home/users/caep010/software/Gaussian09/g09/l302.exe)
 NPDir=0 NMtPBC=     1 NCelOv=     1 NCel=       1 NClECP=     1 NCelD=      1
         NCelK=      1 NCelE2=     1 NClLst=     1 CellRange=     0.0.
 One-electron integrals computed using PRISM.
 NBasis=   160 RedAO= T EigKep=  1.46D-04  NBF=   160
 NBsUse=   160 1.00D-06 EigRej= -1.00D+00 NBFU=   160
 Precomputing XC quadrature grid using
 IXCGrd= 4 IRadAn=           0 IRanWt=          -1 IRanGd=           0 AccXCQ= 0.00D+00.
 Generated NRdTot=       0 NPtTot=           0 NUsed=           0 NTot=          32
 NSgBfM=   175   175   175   175   175 MxSgAt=     9 MxSgA2=     9.
 Leave Link  302 at Fri Aug 26 13:58:27 2022, MaxMem= 24159191040 cpu:        13.5
 (Enter /public/home/users/caep010/software/Gaussian09/g09/l303.exe)
 DipDrv:  MaxL=1.
 Leave Link  303 at Fri Aug 26 13:58:27 2022, MaxMem= 24159191040 cpu:         0.7
 (Enter /public/home/users/caep010/software/Gaussian09/g09/l401.exe)
 Initial guess from the checkpoint file:  "G4.Frag_639.chk"
 B after Tr=     0.000000   -0.000000   -0.000000
         Rot=    0.999995   -0.000000   -0.000000    0.003148 Ang=  -0.36 deg.
 Guess basis will be translated and rotated to current coordinates.
 JPrj=2 DoOrth=T DoCkMO=T.
 Generating alternative initial guess.
 ExpMin= 1.61D-01 ExpMax= 5.48D+03 ExpMxC= 8.25D+02 IAcc=1 IRadAn=         1 AccDes= 0.00D+00
 Harris functional with IExCor=  402 and IRadAn=       1 diagonalized for initial guess.
 HarFok:  IExCor=  402 AccDes= 0.00D+00 IRadAn=         1 IDoV= 1 UseB2=F ITyADJ=14
 ICtDFT=  3500011 ScaDFX=  1.000000  1.000000  1.000000  1.000000
 FoFCou: FMM=F IPFlag=           0 FMFlag=      100000 FMFlg1=           0
         NFxFlg=           0 DoJE=T BraDBF=F KetDBF=T FulRan=T
         wScrn=  0.000000 ICntrl=     500 IOpCl=  0 I1Cent=   200000004 NGrid=           0
         NMat0=    1 NMatS0=      1 NMatT0=    0 NMatD0=    1 NMtDS0=    0 NMtDT0=    0
 Petite list used in FoFCou.
 Harris En= -230.035615459861    
 Leave Link  401 at Fri Aug 26 13:58:28 2022, MaxMem= 24159191040 cpu:        14.8
 (Enter /public/home/users/caep010/software/Gaussian09/g09/l502.exe)
 Closed shell SCF:
 Using DIIS extrapolation, IDIIS=  1040.
 Integral symmetry usage will be decided dynamically.
 Keep R1 ints in memory in canonical form, NReq=85796735.
 IVT=      117295 IEndB=      117295 NGot= 24159191040 MDV= 24076120106
 LenX= 24076120106 LenY= 24076089040
 Requested convergence on RMS density matrix=1.00D-08 within 128 cycles.
 Requested convergence on MAX density matrix=1.00D-06.
 Requested convergence on             energy=1.00D-06.
 No special actions if energy rises.
 FoFCou: FMM=F IPFlag=           0 FMFlag=           0 FMFlg1=           0
         NFxFlg=           0 DoJE=F BraDBF=F KetDBF=F FulRan=T
         wScrn=  0.000000 ICntrl=     600 IOpCl=  0 I1Cent=           0 NGrid=           0
         NMat0=    1 NMatS0=  12880 NMatT0=    0 NMatD0=    1 NMtDS0=    0 NMtDT0=    0
 Symmetry not used in FoFCou.
 Integral accuracy reduced to 1.0D-05 until final iterations.

 Cycle   1  Pass 0  IDiag  1:
 E= -229.974099236352    
 DIIS: error= 7.79D-04 at cycle   1 NSaved=   1.
 NSaved= 1 IEnMin= 1 EnMin= -229.974099236352     IErMin= 1 ErrMin= 7.79D-04
 ErrMax= 7.79D-04  0.00D+00 EMaxC= 1.00D-01 BMatC= 1.92D-04 BMatP= 1.92D-04
 IDIUse=3 WtCom= 9.92D-01 WtEn= 7.79D-03
 Coeff-Com:  0.100D+01
 Coeff-En:   0.100D+01
 Coeff:      0.100D+01
 Gap=     0.938 Goal=   None    Shift=    0.000
 RMSDP=3.10D-04 MaxDP=7.97D-03              OVMax= 4.72D-03

 Cycle   2  Pass 0  IDiag  1:
 E= -229.974335106444     Delta-E=       -0.000235870092 Rises=F Damp=F
 DIIS: error= 2.01D-04 at cycle   2 NSaved=   2.
 NSaved= 2 IEnMin= 2 EnMin= -229.974335106444     IErMin= 2 ErrMin= 2.01D-04
 ErrMax= 2.01D-04  0.00D+00 EMaxC= 1.00D-01 BMatC= 5.07D-06 BMatP= 1.92D-04
 IDIUse=3 WtCom= 9.98D-01 WtEn= 2.01D-03
 Coeff-Com: -0.287D-03 0.100D+01
 Coeff-En:   0.000D+00 0.100D+01
 Coeff:     -0.286D-03 0.100D+01
 Gap=     0.209 Goal=   None    Shift=    0.000
 RMSDP=2.44D-05 MaxDP=5.43D-04 DE=-2.36D-04 OVMax= 1.09D-03

 Cycle   3  Pass 0  IDiag  1:
 E= -229.974336489862     Delta-E=       -0.000001383417 Rises=F Damp=F
 DIIS: error= 1.57D-04 at cycle   3 NSaved=   3.
 NSaved= 3 IEnMin= 3 EnMin= -229.974336489862     IErMin= 3 ErrMin= 1.57D-04
 ErrMax= 1.57D-04  0.00D+00 EMaxC= 1.00D-01 BMatC= 3.93D-06 BMatP= 5.07D-06
 IDIUse=3 WtCom= 9.98D-01 WtEn= 1.57D-03
 Coeff-Com: -0.250D-01 0.477D+00 0.548D+00
 Coeff-En:   0.000D+00 0.399D+00 0.601D+00
 Coeff:     -0.250D-01 0.477D+00 0.548D+00
 Gap=     0.209 Goal=   None    Shift=    0.000
 RMSDP=1.25D-05 MaxDP=3.45D-04 DE=-1.38D-06 OVMax= 5.01D-04

 Cycle   4  Pass 0  IDiag  1:
 E= -229.974340026972     Delta-E=       -0.000003537110 Rises=F Damp=F
 DIIS: error= 2.25D-05 at cycle   4 NSaved=   4.
 NSaved= 4 IEnMin= 4 EnMin= -229.974340026972     IErMin= 4 ErrMin= 2.25D-05
 ErrMax= 2.25D-05  0.00D+00 EMaxC= 1.00D-01 BMatC= 1.27D-07 BMatP= 3.93D-06
 IDIUse=1 WtCom= 1.00D+00 WtEn= 0.00D+00
 Coeff-Com: -0.872D-02 0.133D+00 0.224D+00 0.652D+00
 Coeff:     -0.872D-02 0.133D+00 0.224D+00 0.652D+00
 Gap=     0.209 Goal=   None    Shift=    0.000
 RMSDP=2.42D-06 MaxDP=8.93D-05 DE=-3.54D-06 OVMax= 1.59D-04

 Initial convergence to 1.0D-05 achieved.  Increase integral accuracy.
 Cycle   5  Pass 1  IDiag  1:
 E= -229.974317658052     Delta-E=        0.000022368920 Rises=F Damp=F
 DIIS: error= 9.83D-06 at cycle   1 NSaved=   1.
 NSaved= 1 IEnMin= 1 EnMin= -229.974317658052     IErMin= 1 ErrMin= 9.83D-06
 ErrMax= 9.83D-06  0.00D+00 EMaxC= 1.00D-01 BMatC= 2.97D-08 BMatP= 2.97D-08
 IDIUse=1 WtCom= 1.00D+00 WtEn= 0.00D+00
 Coeff-Com:  0.100D+01
 Coeff:      0.100D+01
 Gap=     0.209 Goal=   None    Shift=    0.000
 RMSDP=2.42D-06 MaxDP=8.93D-05 DE= 2.24D-05 OVMax= 1.54D-04

 Cycle   6  Pass 1  IDiag  1:
 E= -229.974317614582     Delta-E=        0.000000043469 Rises=F Damp=F
 DIIS: error= 1.89D-05 at cycle   2 NSaved=   2.
 NSaved= 2 IEnMin= 1 EnMin= -229.974317658052     IErMin= 1 ErrMin= 9.83D-06
 ErrMax= 1.89D-05  0.00D+00 EMaxC= 1.00D-01 BMatC= 7.03D-08 BMatP= 2.97D-08
 IDIUse=1 WtCom= 1.00D+00 WtEn= 0.00D+00
 Coeff-Com:  0.619D+00 0.381D+00
 Coeff:      0.619D+00 0.381D+00
 Gap=     0.209 Goal=   None    Shift=    0.000
 RMSDP=1.50D-06 MaxDP=6.26D-05 DE= 4.35D-08 OVMax= 1.18D-04

 Cycle   7  Pass 1  IDiag  1:
 E= -229.974317681947     Delta-E=       -0.000000067364 Rises=F Damp=F
 DIIS: error= 5.02D-06 at cycle   3 NSaved=   3.
 NSaved= 3 IEnMin= 3 EnMin= -229.974317681947     IErMin= 3 ErrMin= 5.02D-06
 ErrMax= 5.02D-06  0.00D+00 EMaxC= 1.00D-01 BMatC= 3.99D-09 BMatP= 2.97D-08
 IDIUse=1 WtCom= 1.00D+00 WtEn= 0.00D+00
 Coeff-Com:  0.148D+00 0.205D+00 0.647D+00
 Coeff:      0.148D+00 0.205D+00 0.647D+00
 Gap=     0.209 Goal=   None    Shift=    0.000
 RMSDP=4.71D-07 MaxDP=2.10D-05 DE=-6.74D-08 OVMax= 3.55D-05

 Cycle   8  Pass 1  IDiag  1:
 E= -229.974317684473     Delta-E=       -0.000000002526 Rises=F Damp=F
 DIIS: error= 3.22D-06 at cycle   4 NSaved=   4.
 NSaved= 4 IEnMin= 4 EnMin= -229.974317684473     IErMin= 4 ErrMin= 3.22D-06
 ErrMax= 3.22D-06  0.00D+00 EMaxC= 1.00D-01 BMatC= 1.42D-09 BMatP= 3.99D-09
 IDIUse=1 WtCom= 1.00D+00 WtEn= 0.00D+00
 Coeff-Com:  0.343D-02 0.817D-01 0.448D+00 0.467D+00
 Coeff:      0.343D-02 0.817D-01 0.448D+00 0.467D+00
 Gap=     0.209 Goal=   None    Shift=    0.000
 RMSDP=2.22D-07 MaxDP=9.58D-06 DE=-2.53D-09 OVMax= 1.91D-05

 Cycle   9  Pass 1  IDiag  1:
 E= -229.974317685894     Delta-E=       -0.000000001421 Rises=F Damp=F
 DIIS: error= 6.58D-07 at cycle   5 NSaved=   5.
 NSaved= 5 IEnMin= 5 EnMin= -229.974317685894     IErMin= 5 ErrMin= 6.58D-07
 ErrMax= 6.58D-07  0.00D+00 EMaxC= 1.00D-01 BMatC= 8.48D-11 BMatP= 1.42D-09
 IDIUse=1 WtCom= 1.00D+00 WtEn= 0.00D+00
 Coeff-Com: -0.760D-02 0.349D-01 0.221D+00 0.277D+00 0.474D+00
 Coeff:     -0.760D-02 0.349D-01 0.221D+00 0.277D+00 0.474D+00
 Gap=     0.209 Goal=   None    Shift=    0.000
 RMSDP=6.06D-08 MaxDP=2.60D-06 DE=-1.42D-09 OVMax= 5.47D-06

 Cycle  10  Pass 1  IDiag  1:
 E= -229.974317685981     Delta-E=       -0.000000000086 Rises=F Damp=F
 DIIS: error= 2.02D-07 at cycle   6 NSaved=   6.
 NSaved= 6 IEnMin= 6 EnMin= -229.974317685981     IErMin= 6 ErrMin= 2.02D-07
 ErrMax= 2.02D-07  0.00D+00 EMaxC= 1.00D-01 BMatC= 6.31D-12 BMatP= 8.48D-11
 IDIUse=1 WtCom= 1.00D+00 WtEn= 0.00D+00
 Coeff-Com: -0.511D-02 0.179D-01 0.119D+00 0.152D+00 0.298D+00 0.419D+00
 Coeff:     -0.511D-02 0.179D-01 0.119D+00 0.152D+00 0.298D+00 0.419D+00
 Gap=     0.209 Goal=   None    Shift=    0.000
 RMSDP=1.33D-08 MaxDP=5.47D-07 DE=-8.61D-11 OVMax= 8.31D-07

 Cycle  11  Pass 1  IDiag  1:
 E= -229.974317685987     Delta-E=       -0.000000000007 Rises=F Damp=F
 DIIS: error= 1.56D-08 at cycle   7 NSaved=   7.
 NSaved= 7 IEnMin= 7 EnMin= -229.974317685987     IErMin= 7 ErrMin= 1.56D-08
 ErrMax= 1.56D-08  0.00D+00 EMaxC= 1.00D-01 BMatC= 7.07D-14 BMatP= 6.31D-12
 IDIUse=1 WtCom= 1.00D+00 WtEn= 0.00D+00
 Coeff-Com: -0.774D-03 0.186D-02 0.134D-01 0.167D-01 0.470D-01 0.107D+00
 Coeff-Com:  0.815D+00
 Coeff:     -0.774D-03 0.186D-02 0.134D-01 0.167D-01 0.470D-01 0.107D+00
 Coeff:      0.815D+00
 Gap=     0.209 Goal=   None    Shift=    0.000
 RMSDP=2.41D-09 MaxDP=6.32D-08 DE=-6.93D-12 OVMax= 1.41D-07

 SCF Done:  E(RB3LYP) =  -229.974317686     A.U. after   11 cycles
            NFock= 11  Conv=0.24D-08     -V/T= 2.0073
 KE= 2.283090835612D+02 PE=-8.243401271235D+02 EE= 2.220062775455D+02
 Leave Link  502 at Fri Aug 26 13:58:31 2022, MaxMem= 24159191040 cpu:        52.7
 (Enter /public/home/users/caep010/software/Gaussian09/g09/l701.exe)
 Compute integral first derivatives.
 ... and contract with generalized density number  0.
 Leave Link  701 at Fri Aug 26 13:58:31 2022, MaxMem= 24159191040 cpu:        13.9
 (Enter /public/home/users/caep010/software/Gaussian09/g09/l702.exe)
 L702 exits ... SP integral derivatives will be done elsewhere.
 Leave Link  702 at Fri Aug 26 13:58:31 2022, MaxMem= 24159191040 cpu:         0.5
 (Enter /public/home/users/caep010/software/Gaussian09/g09/l703.exe)
 Compute integral first derivatives, UseDBF=F ICtDFT=           0.
 Integral derivatives from FoFJK, PRISM(SPDF).
 Calling FoFJK, ICntrl=      2127 FMM=F ISym2X=0 I1Cent= 0 IOpClX= 0 NMat=1 NMatS=1 NMatT=0.
 FoFJK:  IHMeth= 1 ICntrl=    2127 DoSepK=F KAlg= 0 I1Cent=   0 FoldK=F
 IRaf=         0 NMat=   1 IRICut=       1 DoRegI=T DoRafI=F ISym2E= 0.
 FoFCou: FMM=F IPFlag=           0 FMFlag=      100000 FMFlg1=         800
         NFxFlg=           0 DoJE=F BraDBF=F KetDBF=F FulRan=T
         wScrn=  0.000000 ICntrl=    2127 IOpCl=  0 I1Cent=           0 NGrid=           0
         NMat0=    1 NMatS0=      1 NMatT0=    0 NMatD0=    1 NMtDS0=    0 NMtDT0=    0
 Symmetry not used in FoFCou.
 Leave Link  703 at Fri Aug 26 13:58:32 2022, MaxMem= 24159191040 cpu:        27.1
 (Enter /public/home/users/caep010/software/Gaussian09/g09/l716.exe)
 Dipole        =-5.95090048D-01-1.90449685D-01-3.02476459D-05
 ***** Axes restored to original set *****
 -------------------------------------------------------------------
 Center     Atomic                   Forces (Hartrees/Bohr)
 Number     Number              X              Y              Z
 -------------------------------------------------------------------
      1        6          -0.000029396    0.000606545    0.000133575
      2        6           0.001073060   -0.000690730   -0.000165472
      3        6          -0.000833592   -0.002894266   -0.000637514
      4        6           0.000404963    0.001351416    0.000299537
      5        8          -0.001449573    0.000661912    0.000156099
      6        1          -0.000091248   -0.000031923   -0.000003292
      7        1          -0.000093541    0.000105710    0.000023529
      8        1           0.000215796    0.000248025    0.000054572
      9        1           0.000803530    0.000643311    0.000138966
 -------------------------------------------------------------------
 Cartesian Forces:  Max     0.002894266 RMS     0.000802407
 Leave Link  716 at Fri Aug 26 13:58:32 2022, MaxMem= 24159191040 cpu:         0.5
 (Enter /public/home/users/caep010/software/Gaussian09/g09/l103.exe)

 GradGradGradGradGradGradGradGradGradGradGradGradGradGradGradGradGradGrad
 Berny optimization.
 Using GEDIIS/GDIIS optimizer.
 FormGI is forming the generalized inverse of G from B-inverse, IUseBI=4.
 Internal  Forces:  Max     0.001735345 RMS     0.000627116
 Search for a local minimum.
 Step number   3 out of a maximum of   35
 All quantities printed in internal units (Hartrees-Bohrs-Radians)
 RMS Force = .62712D-03 SwitMx=.10000D-02 MixMth= 2
 Mixed Optimization -- En-DIIS/RFO-DIIS
 Update second derivatives using D2CorX and points    1    2    3
 DE= -1.95D-04 DEPred=-2.05D-04 R= 9.51D-01
 TightC=F SS=  1.41D+00  RLast= 4.63D-02 DXNew= 8.4853D-01 1.3889D-01
 Trust test= 9.51D-01 RLast= 4.63D-02 DXMaxT set to 5.05D-01
 ITU=  1  1  0
 Use linear search instead of GDIIS.
     Eigenvalues ---    0.00655   0.00660   0.01549   0.01764   0.01796
     Eigenvalues ---    0.02652   0.03023   0.03023   0.15396   0.16080
     Eigenvalues ---    0.16265   0.22174   0.27017   0.35601   0.35747
     Eigenvalues ---    0.38763   0.40278   0.45086   0.47046   0.62481
     Eigenvalues ---    1.02170
 RFO step:  Lambda=-1.14760622D-04 EMin= 6.55246005D-03
 Quartic linear search produced a step of -0.04113.
 Iteration  1 RMS(Cart)=  0.04756177 RMS(Int)=  0.00093957
 Iteration  2 RMS(Cart)=  0.00149666 RMS(Int)=  0.00000010
 Iteration  3 RMS(Cart)=  0.00000027 RMS(Int)=  0.00000001
 ITry= 1 IFail=0 DXMaxC= 1.43D-01 DCOld= 1.00D+10 DXMaxT= 5.05D-01 DXLimC= 3.00D+00 Rises=F
 Variable       Old X    -DE/DX   Delta X   Delta X   Delta X     New X
                                 (Linear)    (Quad)   (Total)
    R1        2.27606  -0.00011  -0.00004   0.00021   0.00017   2.27624
    R2        2.00751  -0.00009  -0.00000  -0.00020  -0.00020   2.00731
    R3        2.69391   0.00096   0.00018   0.00085   0.00103   2.69494
    R4        2.52870  -0.00174  -0.00016  -0.00147  -0.00163   2.52708
    R5        2.58569   0.00149  -0.00050   0.00703   0.00653   2.59222
    R6        2.04564   0.00010   0.00008  -0.00035  -0.00027   2.04536
    R7        2.04105  -0.00014  -0.00004  -0.00003  -0.00007   2.04098
    R8        1.81646   0.00104  -0.00001   0.00215   0.00214   1.81860
    A1        2.14939   0.00068  -0.00016   0.00392   0.00377   2.15315
    A2        2.02699  -0.00036   0.00108  -0.01019  -0.00911   2.01787
    A3        2.10681  -0.00032  -0.00092   0.00627   0.00535   2.11216
    A4        2.10378   0.00007   0.00017  -0.00097  -0.00080   2.10298
    A5        2.10202  -0.00034  -0.00009  -0.00133  -0.00142   2.10060
    A6        2.07739   0.00027  -0.00008   0.00230   0.00222   2.07961
    A7        1.89616  -0.00013   0.00013  -0.00205  -0.00192   1.89424
[...]
 Alpha virt. eigenvalues --    0.03381   0.04497   0.04840   0.05674   0.06196
 Alpha virt. eigenvalues --    0.06961   0.07887   0.08983   0.09136   0.09949
 Alpha virt. eigenvalues --    0.10203   0.10904   0.12539   0.13442   0.14236
 Alpha virt. eigenvalues --    0.15462   0.16580   0.17120   0.17625   0.18417
 Alpha virt. eigenvalues --    0.18989   0.19831   0.22838   0.24671   0.24741
 Alpha virt. eigenvalues --    0.26132   0.28105   0.30369   0.30408   0.32912
 Alpha virt. eigenvalues --    0.33648   0.36205   0.37144   0.37458   0.38885
 Alpha virt. eigenvalues --    0.39790   0.40072   0.42437   0.42683   0.43490
 Alpha virt. eigenvalues --    0.44322   0.46477   0.46769   0.48077   0.50208
 Alpha virt. eigenvalues --    0.52111   0.54132   0.55293   0.57371   0.57456
 Alpha virt. eigenvalues --    0.59731   0.60671   0.61487   0.64167   0.64859
 Alpha virt. eigenvalues --    0.65994   0.68893   0.69460   0.72012   0.72224
 Alpha virt. eigenvalues --    0.72631   0.77092   0.80641   0.81885   0.83878
 Alpha virt. eigenvalues --    0.86321   0.89431   0.91706   0.91877   0.93561
 Alpha virt. eigenvalues --    0.94922   0.97489   0.98286   0.99251   1.00374
 Alpha virt. eigenvalues --    1.00710   1.01290   1.03246   1.04049   1.04724
 Alpha virt. eigenvalues --    1.06661   1.07261   1.11933   1.12421   1.12604
 Alpha virt. eigenvalues --    1.15845   1.16930   1.18514   1.19017   1.22349
 Alpha virt. eigenvalues --    1.25873   1.27768   1.28692   1.30153   1.31713
 Alpha virt. eigenvalues --    1.32290   1.34880   1.38335   1.38934   1.41245
 Alpha virt. eigenvalues --    1.43520   1.44043   1.45058   1.46325   1.49655
 Alpha virt. eigenvalues --    1.50386   1.50753   1.53023   1.53770   1.55668
 Alpha virt. eigenvalues --    1.56026   1.59339   1.60722   1.60864   1.65153
 Alpha virt. eigenvalues --    1.65655   1.66270   1.68717   1.70111   1.70418
 Alpha virt. eigenvalues --    1.72847   1.74725   1.75495   1.79197   1.81048
 Alpha virt. eigenvalues --    1.82747   1.84693   1.86252   1.89961   1.93215
 Alpha virt. eigenvalues --    1.93233   1.95659   2.00556   2.01456   2.03326
 Alpha virt. eigenvalues --    2.06552   2.10652   2.13065   2.14478   2.14991
 Alpha virt. eigenvalues --    2.17875   2.18249   2.24113   2.25528   2.28444
 Alpha virt. eigenvalues --    2.29028   2.34743   2.36351   2.40954   2.41719
 Alpha virt. eigenvalues --    2.44956   2.46783   2.47736   2.53908   2.54431
 Alpha virt. eigenvalues --    2.58605   2.58827   2.60461   2.61259   2.62331
 Alpha virt. eigenvalues --    2.63115   2.68850   2.70771   2.72363   2.72522
 Alpha virt. eigenvalues --    2.74923   2.79820   2.82103   2.84030   2.84349
 Alpha virt. eigenvalues --    2.90794   2.92465   2.94558   2.96194   2.96789
 Alpha virt. eigenvalues --    2.96841   2.99303   3.03698   3.06146   3.07702
 Alpha virt. eigenvalues --    3.09871   3.12173   3.12756   3.17690   3.17710
 Alpha virt. eigenvalues --    3.21502   3.22939   3.24343   3.25068   3.25617
 Alpha virt. eigenvalues --    3.27448   3.29235   3.31594   3.32660   3.36871
 Alpha virt. eigenvalues --    3.37955   3.38510   3.39181   3.47091   3.47805
 Alpha virt. eigenvalues --    3.49768   3.50394   3.55286   3.57706   3.57921
 Alpha virt. eigenvalues --    3.60406   3.63229   3.63882   3.66488   3.66957
 Alpha virt. eigenvalues --    3.68819   3.71236   3.73235   3.74556   3.76875
 Alpha virt. eigenvalues --    3.78680   3.78700   3.82674   3.82746   3.83856
 Alpha virt. eigenvalues --    3.84913   3.87289   3.91366   3.92755   3.93620
 Alpha virt. eigenvalues --    3.95856   3.96841   3.97316   3.99611   4.02755
 Alpha virt. eigenvalues --    4.03046   4.05547   4.07037   4.07482   4.09739
 Alpha virt. eigenvalues --    4.13039   4.15534   4.16611   4.21195   4.22701
 Alpha virt. eigenvalues --    4.23520   4.24491   4.26260   4.28677   4.31045
 Alpha virt. eigenvalues --    4.35295   4.37570   4.41442   4.41855   4.47529
 Alpha virt. eigenvalues --    4.52248   4.52393   4.59023   4.59377   4.65514
 Alpha virt. eigenvalues --    4.67122   4.69856   4.73265   4.76503   4.77029
 Alpha virt. eigenvalues --    4.78594   4.82929   4.89023   4.90472   4.92492
 Alpha virt. eigenvalues --    4.95175   4.96208   5.00584   5.02503   5.04101
 Alpha virt. eigenvalues --    5.08105   5.09806   5.14828   5.15803   5.19814
 Alpha virt. eigenvalues --    5.27270   5.27423   5.32229   5.35445   5.39336
 Alpha virt. eigenvalues --    5.44877   5.48780   5.49344   5.56673   5.57824
 Alpha virt. eigenvalues --    5.62826   5.75718   5.81277   5.95583   5.97992
 Alpha virt. eigenvalues --    6.03833   6.08735   6.17186   6.27812   6.29590
 Alpha virt. eigenvalues --    6.30548   6.35298   6.36927   6.47750   6.55672
 Alpha virt. eigenvalues --    6.57520   6.66179   6.67761   6.74211   6.86135
 Alpha virt. eigenvalues --    6.87267   6.97232   7.03991   7.07353   7.11620
 Alpha virt. eigenvalues --    7.12132   7.15400   7.18439   7.21973   7.28769
 Alpha virt. eigenvalues --    7.29786   7.37246   7.39015   7.45374   7.51025
 Alpha virt. eigenvalues --    7.53821   7.58551   7.59445   7.61303   7.61510
 Alpha virt. eigenvalues --    7.65147   7.73520   7.78848   7.85203   7.85794
 Alpha virt. eigenvalues --    7.92222   7.92290   7.93454   7.94613   7.96940
 Alpha virt. eigenvalues --    8.03351   8.06035   8.07575   8.10810   8.19822
 Alpha virt. eigenvalues --    8.21783   8.26580   8.28218   8.30170   8.33948
 Alpha virt. eigenvalues --    8.38074   8.39082   8.40673   8.43461   8.44157
 Alpha virt. eigenvalues --    8.49772   8.51684   8.53529   8.60645   8.61526
 Alpha virt. eigenvalues --    8.66197   8.67740   8.68315   8.73259   8.75145
 Alpha virt. eigenvalues --    8.76041   8.78756   8.79987   8.82534   8.87143
 Alpha virt. eigenvalues --    8.89914   8.91690   8.95413   8.97167   8.98204
 Alpha virt. eigenvalues --    9.00387   9.00847   9.04442   9.04868   9.05030
 Alpha virt. eigenvalues --    9.10151   9.14775   9.17625   9.20966   9.22282
 Alpha virt. eigenvalues --    9.23787   9.30333   9.30499   9.32814   9.35521
 Alpha virt. eigenvalues --    9.40922   9.41603   9.42794   9.47742   9.51581
 Alpha virt. eigenvalues --    9.59024   9.61950   9.64685   9.68015   9.70657
 Alpha virt. eigenvalues --    9.75207   9.78824   9.80185   9.81769   9.86730
 Alpha virt. eigenvalues --    9.89622   9.90728   9.91556   9.92556   9.95022
 Alpha virt. eigenvalues --    9.96925  10.00375  10.01365  10.02952  10.04590
 Alpha virt. eigenvalues --   10.07084  10.08030  10.09546  10.12830  10.14358
 Alpha virt. eigenvalues --   10.15990  10.21430  10.24270  10.27189  10.28175
 Alpha virt. eigenvalues --   10.28623  10.30991  10.34131  10.37253  10.41221
 Alpha virt. eigenvalues --   10.42611  10.47354  10.53612  10.53659  10.56553
 Alpha virt. eigenvalues --   10.61023  10.63383  10.66720  10.74352  10.75753
 Alpha virt. eigenvalues --   10.85234  10.85607  10.91502  10.93339  10.96645
 Alpha virt. eigenvalues --   10.98161  11.01291  11.04584  11.09628  11.14451
 Alpha virt. eigenvalues --   11.24026  11.27902  11.28546  11.29557  11.30624
 Alpha virt. eigenvalues --   11.35046  11.41368  11.41546  11.43850  11.48514
 Alpha virt. eigenvalues --   11.59388  11.63910  11.66969  11.70267  11.72168
 Alpha virt. eigenvalues --   11.76661  11.81985  11.85251  11.88087  11.90348
 Alpha virt. eigenvalues --   11.93285  11.94608  12.05814  12.06069  12.14006
 Alpha virt. eigenvalues --   12.17926  12.21082  12.34396  12.35823  12.43552
 Alpha virt. eigenvalues --   12.45250  12.53590  12.64048  12.70802  12.75614
 Alpha virt. eigenvalues --   12.78879  12.80972  12.90734  13.06726  13.09348
 Alpha virt. eigenvalues --   13.17368  13.20584  13.31230  13.49053  13.54955
 Alpha virt. eigenvalues --   13.63741  13.73656  13.81673  13.87067  13.96887
 Alpha virt. eigenvalues --   14.05005  14.14748  14.34976  14.35057  14.61003
 Alpha virt. eigenvalues --   14.69119  14.76874  14.78960  15.03279  15.11998
 Alpha virt. eigenvalues --   15.15590  15.32413  15.44429  15.47688  15.50628
 Alpha virt. eigenvalues --   15.63612  15.68779  15.75122  15.81012  15.92458
 Alpha virt. eigenvalues --   16.46249  16.62285  16.78989  16.81914  16.90715
 Alpha virt. eigenvalues --   17.33083  17.61297  17.71904  18.10497  18.60058
 Alpha virt. eigenvalues --   18.65799  18.73703  18.84173  19.09328  19.13538
 Alpha virt. eigenvalues --   19.32047  19.34652  19.41062  19.42707  19.51780
 Alpha virt. eigenvalues --   19.66289  19.68251  20.03856  20.08725  20.13395
 Alpha virt. eigenvalues --   20.65096  21.22985  22.41110  22.41870  23.15662
 Alpha virt. eigenvalues --   23.17812  23.80538  24.14338  38.47795  39.62345
 Alpha virt. eigenvalues --   40.77678  41.80943  63.34321
          Condensed to atoms (all electrons):
               1          2          3          4          5          6
     1  C    5.227074   0.956571  -0.102093  -0.003939  -0.000466   0.414097
     2  C    0.956571   4.746513   0.359718  -0.126279  -0.060174  -0.030059
     3  C   -0.102093   0.359718   4.493062   0.766681   0.288030   0.002874
     4  C   -0.003939  -0.126279   0.766681   5.055212  -0.080881  -0.000128
     5  O   -0.000466  -0.060174   0.288030  -0.080881   8.098825  -0.000117
     6  H    0.414097  -0.030059   0.002874  -0.000128  -0.000117   0.354264
     7  H   -0.000230   0.009149  -0.024501   0.400028  -0.001764   0.000005
     8  H   -0.000652  -0.012502  -0.018802   0.420399   0.003519  -0.000024
     9  H    0.004128  -0.002841  -0.031193   0.006846   0.316375   0.000005
               7          8          9
     1  C   -0.000230  -0.000652   0.004128
     2  C    0.009149  -0.012502  -0.002841
     3  C   -0.024501  -0.018802  -0.031193
     4  C    0.400028   0.420399   0.006846
     5  O   -0.001764   0.003519   0.316375
     6  H    0.000005  -0.000024   0.000005
     7  H    0.420201  -0.020228  -0.000436
     8  H   -0.020228   0.429623  -0.000164
     9  H   -0.000436  -0.000164   0.313325
 Mulliken charges:
               1
     1  C   -0.494489
     2  C    0.159904
     3  C    0.266224
     4  C   -0.437939
     5  O   -0.563347
     6  H    0.259084
     7  H    0.217777
     8  H    0.198831
     9  H    0.393955
 Sum of Mulliken charges =  -0.00000
 Mulliken charges with hydrogens summed into heavy atoms:
               1
     1  C   -0.235405
     2  C    0.159904
     3  C    0.266224
     4  C   -0.021331
     5  O   -0.169392
 Electronic spatial extent (au):  <R**2>=            411.0094
 Charge=             -0.0000 electrons
 Dipole moment (field-independent basis, Debye):
    X=             -1.6727    Y=             -0.1565    Z=              0.0000  Tot=              1.6801
 Quadrupole moment (field-independent basis, Debye-Ang):
   XX=            -24.7361   YY=            -26.9649   ZZ=            -32.6697
   XY=              2.6861   XZ=              0.0000   YZ=             -0.0001
 Traceless Quadrupole moment (field-independent basis, Debye-Ang):
   XX=              3.3875   YY=              1.1587   ZZ=             -4.5461
   XY=              2.6861   XZ=              0.0000   YZ=             -0.0001
 Octapole moment (field-independent basis, Debye-Ang**2):
  XXX=            -17.8659  YYY=            -11.1161  ZZZ=             -0.0000  XYY=              2.1287
  XXY=              3.7877  XXZ=             -0.0001  XZZ=              2.3439  YZZ=             -3.5924
  YYZ=              0.0001  XYZ=             -0.0000
 Hexadecapole moment (field-independent basis, Debye-Ang**3):
 XXXX=           -256.7568 YYYY=           -128.2433 ZZZZ=            -37.6748 XXXY=              0.1345
 XXXZ=              0.0004 YYYX=              0.3748 YYYZ=             -0.0003 ZZZX=              0.0000
 ZZZY=             -0.0000 XXYY=            -95.9556 XXZZ=            -75.3803 YYZZ=            -35.0540
 XXYZ=             -0.0000 YYXZ=              0.0000 ZZXY=             -2.6715
 N-N= 1.440199085241D+02 E-N=-8.235670172201D+02  KE= 2.283737517291D+02
 No NMR shielding tensors so no spin-rotation constants.
 Leave Link  601 at Fri Aug 26 14:06:15 2022, MaxMem= 24159191040 cpu:        23.5
 (Enter /public/home/users/caep010/software/Gaussian09/g09/l9999.exe)
 1\1\GINC-B1052\SP\RHF\GFHFB2\C4H4O1\ROOT\26-Aug-2022\0\\#P Geom=AllChe
 ck Guess=TCheck SCRF=Check HF/GFHFB2 SCF=Tight\\Frag_639\\0,1\C,0,2.14
 16802741,0.1180578332,-0.2212068974\C,0,0.9380448574,0.0741144656,-0.2
 243960662\C,0,-0.4882084987,0.1129728421,-0.207873384\C,0,-1.257148678
 9,-0.9545712907,-0.442025656\O,0,-1.0505130555,1.3323903288,0.06751159
 57\H,0,3.2038273783,0.1306328714,-0.2242507972\H,0,-2.3362520912,-0.87
 1815351,-0.4176097564\H,0,-0.8077610775,-1.9124451132,-0.6583928595\H,
 0,-0.3436691079,1.9705634138,0.2061438209\\Version=ES64L-G09RevE.01\St
 ate=1-A\HF=-228.6710973\RMSD=5.938e-09\Dipole=0.6564051,0.0764896,0.01
 34753\Quadrupole=2.4201702,0.7581345,-3.1783047,1.9928802,0.4130648,0.
 9131206\PG=C01 [X(C4H4O1)]\\@


 TIME GOES, YOU SAY?  AH NO!
 ALAS, TIME STAYS, WE GO.
    -- A. DOBSON (1840-1921)
 Diagonal vibrational polarizability:
        0.0000000       0.0000000       0.0000000

 Temperature=              298.150000 Pressure=                      1.000000
 E(ZPE)=                     0.064773 E(Thermal)=                    0.070271
 E(CCSD(T))=              -229.293342 E(Empiric)=                   -0.090311
 DE(Plus)=                  -0.018248 DE(2DF)=                      -0.178864
 E(Delta-G3XP)=             -0.307715 DE(HF)=                       -0.023042
 G4(0 K)=                 -229.846749 G4 Energy=                  -229.841251
 G4 Enthalpy=             -229.840307 G4 Free Energy=             -229.874767
 1\1\GINC-B1052\Mixed\G4\G4\C4H4O1\ROOT\26-Aug-2022\0\\#P Geom=AllCheck
  Guess=TCheck SCRF=Check HF/GFHFB2 SCF=Tight\\Frag_639\\0,1\C,0,2.1416
 802741,0.1180578332,-0.2212068974\C,0,0.9380448574,0.0741144656,-0.224
 3960662\C,0,-0.4882084987,0.1129728421,-0.207873384\C,0,-1.2571486789,
 -0.9545712907,-0.442025656\O,0,-1.0505130555,1.3323903288,0.0675115957
 \H,0,3.2038273783,0.1306328714,-0.2242507972\H,0,-2.3362520912,-0.8718
 15351,-0.4176097564\H,0,-0.8077610775,-1.9124451132,-0.6583928595\H,0,
 -0.3436691079,1.9705634138,0.2061438209\\Version=ES64L-G09RevE.01\Stat
 e=1-A\MP2/GTBas1=-229.2359681\MP4/GTBas1=-229.2945873\CCSD(T)/G3Bas1=-
 229.2933423\MP2/GTBas2=-229.2537072\MP4/GTBas2=-229.3128349\MP2/GTBas3
 =-229.4059278\MP4/GTBas3=-229.4734518\HF/GTLargeXP=-228.6489421\MP2/GT
 LargeXP=-229.7313819\HF/GFHFB1=-228.6674571\HF/GFHFB2=-228.6710973\G4=
 -229.8467494\FreqCoord=4.0471891822,0.2230969725,-0.4180204548,1.77264
 78808,0.1400560425,-0.4240471104,-0.9225803583,0.2134877321,-0.3928237
 661,-2.3756667115,-1.8038783138,-0.8353074335,-1.9851819739,2.51785282
 35,0.1275784267,6.054356322,0.2468603509,-0.4237725919,-4.4148766298,-
 1.6474922519,-0.7891680699,-1.5264472173,-3.6139975081,-1.2441821923,-
 0.6494404942,3.7238251796,0.3895553655\PG=C01 [X(C4H4O1)]\NImag=0\\1.5
 2326447,0.03761621,0.04760518,0.00022101,0.00203775,0.03800652,-1.0822
 5441,-0.03225399,-0.00139075,1.43845453,-0.02862440,-0.03011518,-0.000
 69583,0.01801930,0.10937574,-0.00058083,-0.00067588,-0.02644135,-0.003
 51402,0.00900183,0.07064778,-0.01906182,0.00039051,0.00021051,-0.28771
 608,-0.00161543,0.00089508,0.68366101,-0.01477522,0.00261001,-0.000091
 30,0.01780517,-0.06981753,-0.00241299,0.14279577,0.71931764,-0.0031758
 7,-0.00017466,0.00336092,0.00523160,-0.00230616,-0.05999398,0.02893504
 ,0.12700366,0.17524208,0.00275807,0.00045202,0.00009208,-0.03951837,-0
 .02953642,-0.00633917,-0.25027590,-0.20135429,-0.04389760,0.71825676,0
 .01076617,0.00000346,-0.00031442,-0.01938343,0.00540744,-0.00026276,-0
 .18386670,-0.35662881,-0.06596147,0.07210781,0.75677450,0.00239521,-0.
 00025774,0.00107572,-0.00407206,-0.00020693,0.00703811,-0.03999263,-0.
 06586547,-0.07119285,0.01264110,0.14866532,0.12236248,0.00292158,0.000
 18983,0.00003521,-0.03760581,0.04090429,0.00937371,-0.13226094,0.04640
 241,0.01086761,0.02169860,-0.01938963,-0.00438110,0.45873156,-0.000278
 17,0.00108660,-0.00011560,0.02045218,-0.01471900,-0.00474326,0.0856481
 3,-0.25526637,-0.04851873,0.01712203,-0.05771122,-0.01573859,0.1380476
 3,0.56081142,-0.00006930,-0.00011819,0.00158523,0.00480691,-0.00485576
 ,0.00490836,0.01963147,-0.04830381,-0.05098639,0.00377195,-0.01553786,
 0.00885950,0.02841892,0.12006634,0.04639796,-0.42617403,-0.00553567,0.
 00102166,0.00689253,0.00038039,0.00004287,0.00042341,0.00017086,0.0000
 6988,0.00018340,-0.00012069,-0.00002859,0.00024449,-0.00014483,-0.0000
 3496,0.41853735,-0.00324241,-0.02188921,-0.00122493,-0.00180328,0.0007
 4228,0.00034634,0.00033394,0.00655918,0.00008260,0.00110555,-0.0004464
 8,-0.00008003,-0.00128021,0.00040544,0.00014910,0.00505755,0.01453684,
 0.00153421,-0.00121230,-0.01660291,-0.00044520,0.00033431,-0.00068712,
 0.00010631,0.00008352,0.00619917,0.00024521,-0.00007332,-0.00013299,-0
 .00028850,0.00014285,-0.00019724,-0.00111276,0.00063858,0.01170113,-0.
 00002226,-0.00019168,-0.00004566,-0.00159724,-0.00280406,-0.00056083,-
 0.01451221,0.00609748,0.00147960,-0.34368247,0.01950091,0.00608152,0.0
 0088802,0.00128196,0.00024843,0.00000611,0.00011673,0.00002231,0.36443
 277,-0.00083031,0.00022784,0.00017657,-0.00225779,-0.00315558,-0.00298
 674,-0.02685090,0.00516418,-0.00025005,0.02629071,-0.05651534,-0.00611
 703,0.00120239,0.00205863,0.00179009,0.00000216,0.00016941,0.00018890,
 -0.02177634,0.04949251,-0.00018827,0.00017308,-0.00050272,-0.00043887,
 -0.00298376,0.00961164,-0.00587780,-0.00043123,0.00688140,0.00759766,-
 0.00607970,-0.03116877,0.00023069,0.00178966,-0.00558912,-0.00000328,0
 .00018825,-0.00063452,-0.00675901,0.00676688,0.02127336,0.00017898,-0.
 00008221,-0.00001761,0.00035192,-0.00001553,-0.00003837,0.00897889,-0.
 01810208,-0.00410050,-0.10797188,0.11651167,0.02647771,-0.00235418,-0.
 00359114,-0.00074811,-0.00001041,-0.00005915,-0.00001123,-0.00575223,0
 .02396015,0.00538866,0.10580805,-0.00020035,0.00025574,-0.00001194,0.0
 0045181,0.00028375,0.00139890,0.01562351,-0.01693126,-0.00350478,0.108
 10696,-0.28712240,-0.05929006,-0.00456963,-0.00106638,-0.00187142,-0.0
 0003865,-0.00005218,-0.00008955,-0.00238035,0.00228908,0.00025300,-0.1
 1770117,0.30308394,-0.00004399,-0.00001261,0.00031158,0.00006599,0.001
 40149,-0.00567942,0.00343047,-0.00331916,-0.00238083,0.02460091,-0.059
 33643,-0.03765527,-0.00096653,-0.00187681,0.00701277,-0.00000665,-0.00
 008943,0.00032986,-0.00049322,0.00010812,0.00124154,-0.02675743,0.0639
 6144,0.03397828,-0.00161059,-0.00058504,-0.00012645,0.00299291,0.00329
 187,0.00072156,0.01076364,0.02095989,0.00459025,-0.00144820,0.00387389
 ,0.00087884,-0.31226332,-0.25853779,-0.05602533,-0.00010284,-0.0002287
 1,-0.00005036,0.00023952,0.00025992,0.00005021,0.00077085,0.00070787,0
 .00017045,0.30065803,-0.00043153,0.00021555,0.00023970,-0.00102998,0.0
 0199808,0.00033455,-0.03245882,-0.03500704,-0.00637041,0.00570562,-0.0
 0376115,-0.00110947,-0.20150708,-0.23559911,-0.05131849,0.00022887,-0.
 00002529,-0.00001299,0.00015535,0.00026928,0.00032382,-0.00092054,-0.0
 0074029,-0.00083661,0.23025810,0.27264998,-0.00009218,0.00024055,-0.00
 079298,-0.00024361,0.00031081,0.00059598,-0.00733846,-0.00666323,-0.00
 712951,0.00128787,-0.00109937,0.00081409,-0.04329002,-0.05100586,-0.01
 199108,0.00005182,-0.00001048,0.00002462,0.00002686,0.00032327,-0.0011
 1282,-0.00019312,-0.00084559,0.00284149,0.04979083,0.05874990,0.016750
 20\\0.00003054,-0.00000482,-0.00000109,0.00004512,-0.00002178,-0.00000
 497,-0.00016203,0.00002394,0.00000623,0.00004833,-0.00002311,-0.000005
 41,0.00000900,-0.00003000,-0.00000694,0.00000009,0.00000351,0.00000060
 ,-0.00001048,-0.00000531,-0.00000109,0.00000761,0.00001411,0.00000304,
 0.00003183,0.00004346,0.00000962\\\@
 Job cpu time:       0 days  0 hours 33 minutes 59.2 seconds.
 File lengths (MBytes):  RWF=   1482 Int=      0 D2E=      0 Chk=     20 Scr=      1
 Normal termination of Gaussian 09 at Fri Aug 26 14:06:15 2022.
