 Entering Gaussian System, Link 0=g09
 Input=G4.Frag_446.gjf
 Output=G4.Frag_446.log
 Initial command:
 /public/home/users/caep010/software/Gaussian09/g09/l1.exe "/public/home/users/caep010/.cache/gau_scr/Gau-125956.inp" -scrdir="/public/home/users/caep010/.cache/gau_scr/"
 Entering Link 1 = /public/home/users/caep010/software/Gaussian09/g09/l1.exe PID=    125957.
  
 Copyright (c) 1988,1990,1992,1993,1995,1998,2003,2009,2015,
            Gaussian, Inc.  All Rights Reserved.
  
 This is part of the Gaussian(R) 09 program.  It is based on
 the Gaussian(R) 03 system (copyright 2003, Gaussian, Inc.),
 the Gaussian(R) 98 system (copyright 1998, Gaussian, Inc.),
 the Gaussian(R) 94 system (copyright 1995, Gaussian, Inc.),
 the Gaussian 92(TM) system (copyright 1992, Gaussian, Inc.),
 the Gaussian 90(TM) system (copyright 1990, Gaussian, Inc.),
 the Gaussian 88(TM) system (copyright 1988, Gaussian, Inc.),
 the Gaussian 86(TM) system (copyright 1986, Carnegie Mellon
 University), and the Gaussian 82(TM) system (copyright 1983,
 Carnegie Mellon University). Gaussian is a federally registered
 trademark of Gaussian, Inc.
  
 This software contains proprietary and confidential information,
 including trade secrets, belonging to Gaussian, Inc.
  
 This software is provided under written license and may be
 used, copied, transmitted, or stored only in accord with that
 written license.
  
 The following legend is applicable only to US Government
 contracts under FAR:
  
                    RESTRICTED RIGHTS LEGEND
  
 Use, reproduction and disclosure by the US Government is
 subject to restrictions as set forth in subparagraphs (a)
 and (c) of the Commercial Computer Software - Restricted
 Rights clause in FAR 52.227-19.
  
 Gaussian, Inc.
 340 Quinnipiac St., Bldg. 40, Wallingford CT 06492
  
  
 ---------------------------------------------------------------
 Warning -- This program may not be used in any manner that
 competes with the business of Gaussian, Inc. or will provide
 assistance to any competitor of Gaussian, Inc.  The licensee
 of this program is prohibited from giving any competitor of
 Gaussian, Inc. access to this program.  By using this program,
 the user acknowledges that Gaussian, Inc. is engaged in the
 business of creating and licensing software in the field of
 computational chemistry and represents and warrants to the
 licensee that it is not a competitor of Gaussian, Inc. and that
 it will not use this program in any manner prohibited above.
 ---------------------------------------------------------------
  

 Cite this work as:
 Gaussian 09, Revision E.01,
 M. J. Frisch, G. W. Trucks, H. B. Schlegel, G. E. Scuseria, 
 M. A. Robb, J. R. Cheeseman, G. Scalmani, V. Barone, B. Mennucci, 
 G. A. Petersson, H. Nakatsuji, M. Caricato, X. Li, H. P. Hratchian, 
 A. F. Izmaylov, J. Bloino, G. Zheng, J. L. Sonnenberg, M. Hada, 
 M. Ehara, K. Toyota, R. Fukuda, J. Hasegawa, M. Ishida, T. Nakajima, 
 Y. Honda, O. Kitao, H. Nakai, T. Vreven, J. A. Montgomery, Jr., 
 J. E. Peralta, F. Ogliaro, M. Bearpark, J. J. Heyd, E. Brothers, 
 K. N. Kudin, V. N. Staroverov, T. Keith, R. Kobayashi, J. Normand, 
 K. Raghavachari, A. Rendell, J. C. Burant, S. S. Iyengar, J. Tomasi, 
 M. Cossi, N. Rega, J. M. Millam, M. Klene, J. E. Knox, J. B. Cross, 
 V. Bakken, C. Adamo, J. Jaramillo, R. Gomperts, R. E. Stratmann, 
 O. Yazyev, A. J. Austin, R. Cammi, C. Pomelli, J. W. Ochterski, 
 R. L. Martin, K. Morokuma, V. G. Zakrzewski, G. A. Voth, 
 P. Salvador, J. J. Dannenberg, S. Dapprich, A. D. Daniels, 
 O. Farkas, J. B. Foresman, J. V. Ortiz, J. Cioslowski, 
 and D. J. Fox, Gaussian, Inc., Wallingford CT, 2013.
 
 ******************************************
 Gaussian 09:  ES64L-G09RevE.01 30-Nov-2015
                26-Aug-2022 
 ******************************************
 %nproc=32
 Will use up to   32 processors via shared memory.
 %mem=180GB
 %chk=G4.Frag_446.chk
 -----
 #P G4
 -----
 1/14=-1,18=20,19=15,26=3,38=1/1,3;
 2/9=110,12=2,17=6,18=5,40=1/2;
 3/5=35,7=104,11=2,16=1,25=1,30=1,71=1,74=-5/1,2,3;
 4//1;
 5/5=2,38=5/2;
 6/7=2,8=2,9=2,10=2,28=1/1;
 7//1,2,3,16;
 1/14=-1,18=20,19=15,26=3/3(2);
 2/9=110/2;
 99//99;
 2/9=110/2;
 3/5=35,7=104,11=2,16=1,25=1,30=1,71=1,74=-5/1,2,3;
 4/5=5,16=3,69=1/1;
 5/5=2,38=5/2;
 7//1,2,3,16;
 1/14=-1,18=20,19=15,26=3/3(-5);
 2/9=110/2;
 6/7=2,8=2,9=2,10=2,19=2,28=1/1;
 99/9=1/99;
 Leave Link    1 at Fri Aug 26 14:37:25 2022, MaxMem= 24159191040 cpu:         3.1
 (Enter /public/home/users/caep010/software/Gaussian09/g09/l101.exe)
 --------
 Frag_446
 --------
 Symbolic Z-matrix:
 Charge =  0 Multiplicity = 1
 C                     2.1151    0.0527    0.0559 
 O                     1.032    -0.3953   -0.7364 
 C                    -0.2532   -0.1049   -0.1863 
 C                    -0.4      -0.552     1.2896 
 C                    -1.2679   -0.9029   -1.0232 
 C                    -0.5922    1.3956   -0.3303 
 H                     2.009     1.1076    0.3792 
 H                     3.0392   -0.0054   -0.5548 
 H                     2.264    -0.614     0.9313 
 H                     0.21      0.0828    1.9667 
 H                    -0.0796   -1.6096    1.4055 
 H                    -1.4571   -0.4652    1.6221 
 H                    -2.3082   -0.7278   -0.672 
 H                    -1.0523   -1.9911   -0.9544 
 H                    -1.204    -0.6072   -2.0929 
 H                    -0.3752    1.7408   -1.3639 
 H                    -1.6678    1.5771   -0.1161 
 H                    -0.0117    2.0188    0.3801 
 
 NAtoms=     18 NQM=       18 NQMF=       0 NMMI=      0 NMMIF=      0
                NMic=       0 NMicF=      0.
                    Isotopes and Nuclear Properties:
 (Nuclear quadrupole moments (NQMom) in fm**2, nuclear magnetic moments (NMagM)
  in nuclear magnetons)

  Atom         1           2           3           4           5           6           7           8           9          10
 IAtWgt=          12          16          12          12          12          12           1           1           1           1
 AtmWgt=  12.0000000  15.9949146  12.0000000  12.0000000  12.0000000  12.0000000   1.0078250   1.0078250   1.0078250   1.0078250
 NucSpn=           0           0           0           0           0           0           1           1           1           1
 AtZEff=   0.0000000   0.0000000   0.0000000   0.0000000   0.0000000   0.0000000   0.0000000   0.0000000   0.0000000   0.0000000
 NQMom=    0.0000000   0.0000000   0.0000000   0.0000000   0.0000000   0.0000000   0.0000000   0.0000000   0.0000000   0.0000000
 NMagM=    0.0000000   0.0000000   0.0000000   0.0000000   0.0000000   0.0000000   2.7928460   2.7928460   2.7928460   2.7928460
 AtZNuc=   6.0000000   8.0000000   6.0000000   6.0000000   6.0000000   6.0000000   1.0000000   1.0000000   1.0000000   1.0000000

  Atom        11          12          13          14          15          16          17          18
 IAtWgt=           1           1           1           1           1           1           1           1
 AtmWgt=   1.0078250   1.0078250   1.0078250   1.0078250   1.0078250   1.0078250   1.0078250   1.0078250
 NucSpn=           1           1           1           1           1           1           1           1
 AtZEff=   0.0000000   0.0000000   0.0000000   0.0000000   0.0000000   0.0000000   0.0000000   0.0000000
 NQMom=    0.0000000   0.0000000   0.0000000   0.0000000   0.0000000   0.0000000   0.0000000   0.0000000
 NMagM=    2.7928460   2.7928460   2.7928460   2.7928460   2.7928460   2.7928460   2.7928460   2.7928460
 AtZNuc=   1.0000000   1.0000000   1.0000000   1.0000000   1.0000000   1.0000000   1.0000000   1.0000000
 Leave Link  101 at Fri Aug 26 14:37:26 2022, MaxMem= 24159191040 cpu:         9.9
 (Enter /public/home/users/caep010/software/Gaussian09/g09/l103.exe)

 GradGradGradGradGradGradGradGradGradGradGradGradGradGradGradGradGradGrad
 Berny optimization.
 Initialization pass.
                           ----------------------------
                           !    Initial Parameters    !
                           ! (Angstroms and Degrees)  !
 --------------------------                            --------------------------
 ! Name  Definition              Value          Derivative Info.                !
 --------------------------------------------------------------------------------
 ! R1    R(1,2)                  1.4148         estimate D2E/DX2                !
 ! R2    R(1,7)                  1.1084         estimate D2E/DX2                !
 ! R3    R(1,8)                  1.1092         estimate D2E/DX2                !
 ! R4    R(1,9)                  1.1104         estimate D2E/DX2                !
 ! R5    R(2,3)                  1.4278         estimate D2E/DX2                !
 ! R6    R(3,4)                  1.5491         estimate D2E/DX2                !
 ! R7    R(3,5)                  1.5384         estimate D2E/DX2                !
 ! R8    R(3,6)                  1.545          estimate D2E/DX2                !
 ! R9    R(4,10)                 1.1106         estimate D2E/DX2                !
 ! R10   R(4,11)                 1.1111         estimate D2E/DX2                !
 ! R11   R(4,12)                 1.1116         estimate D2E/DX2                !
 ! R12   R(5,13)                 1.1119         estimate D2E/DX2                !
 ! R13   R(5,14)                 1.1115         estimate D2E/DX2                !
 ! R14   R(5,15)                 1.1117         estimate D2E/DX2                !
 ! R15   R(6,16)                 1.1111         estimate D2E/DX2                !
 ! R16   R(6,17)                 1.1116         estimate D2E/DX2                !
 ! R17   R(6,18)                 1.1091         estimate D2E/DX2                !
 ! A1    A(2,1,7)              113.0438         estimate D2E/DX2                !
 ! A2    A(2,1,8)              108.2338         estimate D2E/DX2                !
 ! A3    A(2,1,9)              110.7343         estimate D2E/DX2                !
 ! A4    A(7,1,8)              106.8695         estimate D2E/DX2                !
 ! A5    A(7,1,9)              110.7513         estimate D2E/DX2                !
 ! A6    A(8,1,9)              106.9113         estimate D2E/DX2                !
 ! A7    A(1,2,3)              114.1378         estimate D2E/DX2                !
 ! A8    A(2,3,4)              113.1826         estimate D2E/DX2                !
 ! A9    A(2,3,5)              106.1765         estimate D2E/DX2                !
 ! A10   A(2,3,6)              111.0455         estimate D2E/DX2                !
 ! A11   A(4,3,5)              107.8227         estimate D2E/DX2                !
 ! A12   A(4,3,6)              110.3835         estimate D2E/DX2                !
 ! A13   A(5,3,6)              107.9589         estimate D2E/DX2                !
 ! A14   A(3,4,10)             111.3353         estimate D2E/DX2                !
 ! A15   A(3,4,11)             110.2897         estimate D2E/DX2                !
 ! A16   A(3,4,12)             110.6451         estimate D2E/DX2                !
 ! A17   A(10,4,11)            108.7875         estimate D2E/DX2                !
 ! A18   A(10,4,12)            107.1772         estimate D2E/DX2                !
 ! A19   A(11,4,12)            108.503          estimate D2E/DX2                !
 ! A20   A(3,5,13)             111.3212         estimate D2E/DX2                !
 ! A21   A(3,5,14)             110.2568         estimate D2E/DX2                !
 ! A22   A(3,5,15)             110.3388         estimate D2E/DX2                !
 ! A23   A(13,5,14)            108.4287         estimate D2E/DX2                !
 ! A24   A(13,5,15)            108.4114         estimate D2E/DX2                !
 ! A25   A(14,5,15)            107.9894         estimate D2E/DX2                !
 ! A26   A(3,6,16)             110.2166         estimate D2E/DX2                !
 ! A27   A(3,6,17)             110.6651         estimate D2E/DX2                !
 ! A28   A(3,6,18)             111.788          estimate D2E/DX2                !
 ! A29   A(16,6,17)            108.5111         estimate D2E/DX2                !
 ! A30   A(16,6,18)            108.6058         estimate D2E/DX2                !
 ! A31   A(17,6,18)            106.9343         estimate D2E/DX2                !
 ! D1    D(7,1,2,3)            -48.8871         estimate D2E/DX2                !
 ! D2    D(8,1,2,3)           -167.062          estimate D2E/DX2                !
 ! D3    D(9,1,2,3)             76.0537         estimate D2E/DX2                !
 ! D4    D(1,2,3,4)            -50.7647         estimate D2E/DX2                !
 ! D5    D(1,2,3,5)           -168.8579         estimate D2E/DX2                !
 ! D6    D(1,2,3,6)             74.0381         estimate D2E/DX2                !
 ! D7    D(2,3,4,10)            70.4544         estimate D2E/DX2                !
 ! D8    D(2,3,4,11)           -50.4117         estimate D2E/DX2                !
 ! D9    D(2,3,4,12)          -170.4688         estimate D2E/DX2                !
 ! D10   D(5,3,4,10)          -172.4146         estimate D2E/DX2                !
 ! D11   D(5,3,4,11)            66.7193         estimate D2E/DX2                !
 ! D12   D(5,3,4,12)           -53.3379         estimate D2E/DX2                !
 ! D13   D(6,3,4,10)           -54.7061         estimate D2E/DX2                !
 ! D14   D(6,3,4,11)          -175.5722         estimate D2E/DX2                !
 ! D15   D(6,3,4,12)            64.3706         estimate D2E/DX2                !
 ! D16   D(2,3,5,13)          -179.312          estimate D2E/DX2                !
 ! D17   D(2,3,5,14)            60.3057         estimate D2E/DX2                !
 ! D18   D(2,3,5,15)           -58.8964         estimate D2E/DX2                !
 ! D19   D(4,3,5,13)            59.0995         estimate D2E/DX2                !
 ! D20   D(4,3,5,14)           -61.2829         estimate D2E/DX2                !
 ! D21   D(4,3,5,15)           179.515          estimate D2E/DX2                !
 ! D22   D(6,3,5,13)           -60.1626         estimate D2E/DX2                !
 ! D23   D(6,3,5,14)           179.455          estimate D2E/DX2                !
 ! D24   D(6,3,5,15)            60.2529         estimate D2E/DX2                !
 ! D25   D(2,3,6,16)            47.1964         estimate D2E/DX2                !
 ! D26   D(2,3,6,17)           167.2291         estimate D2E/DX2                !
 ! D27   D(2,3,6,18)           -73.6916         estimate D2E/DX2                !
 ! D28   D(4,3,6,16)           173.5627         estimate D2E/DX2                !
 ! D29   D(4,3,6,17)           -66.4047         estimate D2E/DX2                !
 ! D30   D(4,3,6,18)            52.6747         estimate D2E/DX2                !
 ! D31   D(5,3,6,16)           -68.8127         estimate D2E/DX2                !
 ! D32   D(5,3,6,17)            51.22           estimate D2E/DX2                !
 ! D33   D(5,3,6,18)           170.2993         estimate D2E/DX2                !
 --------------------------------------------------------------------------------
 Trust Radius=3.00D-01 FncErr=1.00D-07 GrdErr=1.00D-06
 Number of steps in this run=     91 maximum allowed number of steps=    108.
 GradGradGradGradGradGradGradGradGradGradGradGradGradGradGradGradGradGrad

 Leave Link  103 at Fri Aug 26 14:37:26 2022, MaxMem= 24159191040 cpu:         0.4
 (Enter /public/home/users/caep010/software/Gaussian09/g09/l202.exe)
                          Input orientation:                          
 ---------------------------------------------------------------------
 Center     Atomic      Atomic             Coordinates (Angstroms)
 Number     Number       Type             X           Y           Z
 ---------------------------------------------------------------------
      1          6           0        2.115100    0.052700    0.055900
      2          8           0        1.032000   -0.395300   -0.736400
      3          6           0       -0.253200   -0.104900   -0.186300
      4          6           0       -0.400000   -0.552000    1.289600
      5          6           0       -1.267900   -0.902900   -1.023200
      6          6           0       -0.592200    1.395600   -0.330300
      7          1           0        2.009000    1.107600    0.379200
      8          1           0        3.039200   -0.005400   -0.554800
      9          1           0        2.264000   -0.614000    0.931300
     10          1           0        0.210000    0.082800    1.966700
     11          1           0       -0.079600   -1.609600    1.405500
     12          1           0       -1.457100   -0.465200    1.622100
     13          1           0       -2.308200   -0.727800   -0.672000
     14          1           0       -1.052300   -1.991100   -0.954400
     15          1           0       -1.204000   -0.607200   -2.092900
     16          1           0       -0.375200    1.740800   -1.363900
     17          1           0       -1.667800    1.577100   -0.116100
     18          1           0       -0.011700    2.018800    0.380100
 ---------------------------------------------------------------------
                    Distance matrix (angstroms):
                    1          2          3          4          5
     1  C    0.000000
     2  O    1.414761   0.000000
     3  C    2.385863   1.427824   0.000000
     4  C    2.865904   2.485931   1.549106   0.000000
     5  C    3.677270   2.372647   1.538448   2.495080   0.000000
     6  C    3.046638   2.451584   1.545043   2.540504   2.493949
     7  H    1.108420   2.111350   2.628211   3.063720   4.092299
     8  H    1.109185   2.052767   3.314452   3.940645   4.424479
     9  H    1.110399   2.084917   2.800805   2.688702   4.046956
    10  H    2.698420   2.865487   2.210248   1.110646   3.477829
    11  H    3.066165   2.701465   2.197291   1.111129   2.794649
    12  H    3.934694   3.429727   2.202158   1.111553   2.687934
    13  H    4.550231   3.357326   2.201575   2.742263   1.111857
    14  H    3.902595   2.634086   2.187759   2.744456   1.111484
    15  H    4.008645   2.623869   2.188938   3.477178   1.111656
    16  H    3.326726   2.633798   2.192769   3.506937   2.811074
    17  H    4.082121   3.400596   2.198896   2.848925   2.670796
    18  H    2.914435   2.857230   2.211161   2.754447   3.476150
                    6          7          8          9         10
     6  C    0.000000
     7  H    2.711563   0.000000
     8  H    3.898752   1.781134   0.000000
     9  H    3.713220   1.825855   1.783206   0.000000
    10  H    2.764630   2.608979   3.790793   2.403435   0.000000
    11  H    3.508132   3.577530   4.017854   2.590086   1.806386
    12  H    2.832401   4.004042   5.016675   3.787602   1.788372
    13  H    2.751407   4.807487   5.397248   4.846497   3.736461
    14  H    3.474324   4.555435   4.565420   4.055874   3.798327
    15  H    2.737200   4.401725   4.553313   4.601397   4.353831
    16  H    1.111117   3.020555   3.919437   4.216444   3.766208
    17  H    1.111638   3.739600   4.985240   4.621365   3.177597
    18  H    1.109066   2.216645   3.778811   3.523389   2.512876
                   11         12         13         14         15
    11  H    0.000000
    12  H    1.803905   0.000000
    13  H    3.171787   2.460940   0.000000
    14  H    2.580856   3.021686   1.803597   0.000000
    15  H    3.808922   3.726318   1.803541   1.798437   0.000000
    16  H    4.356849   3.866929   3.210794   3.814870   2.594505
    17  H    3.872041   2.690116   2.455952   3.716670   2.982284
    18  H    3.771119   3.130815   3.731573   4.352360   3.799103
                   16         17         18
    16  H    0.000000
    17  H    1.804056   0.000000
    18  H    1.803040   1.784371   0.000000
 Stoichiometry    C5H12O
 Framework group  C1[X(C5H12O)]
 Deg. of freedom    48
 Full point group                 C1      NOp   1
 Largest Abelian subgroup         C1      NOp   1
 Largest concise Abelian subgroup C1      NOp   1
                         Standard orientation:                         
 ---------------------------------------------------------------------
 Center     Atomic      Atomic             Coordinates (Angstroms)
 Number     Number       Type             X           Y           Z
 ---------------------------------------------------------------------
      1          6           0        2.017375    0.017909   -0.133342
      2          8           0        0.794063    0.118207   -0.836902
      3          6           0       -0.365331    0.002235   -0.011653
      4          6           0       -0.335512   -1.242166    0.910467
      5          6           0       -1.559661   -0.149903   -0.969385
      6          6           0       -0.583531    1.284654    0.821983
      7          1           0        2.056128    0.667040    0.764277
      8          1           0        2.833382    0.350856   -0.806818
      9          1           0        2.230928   -1.038125    0.135308
     10          1           0        0.421973   -1.130831    1.715051
     11          1           0       -0.099369   -2.153495    0.320278
     12          1           0       -1.320483   -1.387387    1.404729
     13          1           0       -2.517309   -0.235403   -0.410971
     14          1           0       -1.436413   -1.059036   -1.596826
     15          1           0       -1.625722    0.728699   -1.647231
     16          1           0       -0.488997    2.183487    0.175652
     17          1           0       -1.595344    1.285852    1.282389
     18          1           0        0.148691    1.366319    1.650963
 ---------------------------------------------------------------------
 Rotational constants (GHZ):      4.3853479      2.7286489      2.7024071
 Leave Link  202 at Fri Aug 26 14:37:26 2022, MaxMem= 24159191040 cpu:         0.8
 (Enter /public/home/users/caep010/software/Gaussian09/g09/l301.exe)
 Standard basis: GTBas3 (6D, 7F)
 Ernie: Thresh=  0.10000D-02 Tol=  0.10000D-05 Strict=F.
 There are   246 symmetry adapted cartesian basis functions of A   symmetry.
 There are   228 symmetry adapted basis functions of A   symmetry.
   228 basis functions,   348 primitive gaussians,   246 cartesian basis functions
    25 alpha electrons       25 beta electrons
       nuclear repulsion energy       269.8391165195 Hartrees.
 IExCor=  402 DFT=T Ex+Corr=B3LYP ExCW=0 ScaHFX=  0.200000
 ScaDFX=  0.800000  0.720000  1.000000  0.810000 ScalE2=  1.000000  1.000000
 IRadAn=      0 IRanWt=     -1 IRanGd=            0 ICorTp=0 IEmpDi=  4
 NAtoms=   18 NActive=   18 NUniq=   18 SFac= 1.00D+00 NAtFMM=   60 NAOKFM=F Big=F
 Integral buffers will be    131072 words long.
 Raffenetti 2 integral format.
 Two-electron integral symmetry is turned on.
 Leave Link  301 at Fri Aug 26 14:37:26 2022, MaxMem= 24159191040 cpu:         2.0
 (Enter /public/home/users/caep010/software/Gaussian09/g09/l302.exe)
 NPDir=0 NMtPBC=     1 NCelOv=     1 NCel=       1 NClECP=     1 NCelD=      1
         NCelK=      1 NCelE2=     1 NClLst=     1 CellRange=     0.0.
 One-electron integrals computed using PRISM.
 NBasis=   228 RedAO= T EigKep=  8.84D-04  NBF=   228
 NBsUse=   228 1.00D-06 EigRej= -1.00D+00 NBFU=   228
 Precomputing XC quadrature grid using
 IXCGrd= 4 IRadAn=           0 IRanWt=          -1 IRanGd=           0 AccXCQ= 0.00D+00.
 Generated NRdTot=       0 NPtTot=           0 NUsed=           0 NTot=          32
 NSgBfM=   246   246   246   246   246 MxSgAt=    18 MxSgA2=    18.
 Leave Link  302 at Fri Aug 26 14:37:27 2022, MaxMem= 24159191040 cpu:        14.1
 (Enter /public/home/users/caep010/software/Gaussian09/g09/l303.exe)
 DipDrv:  MaxL=1.
 Leave Link  303 at Fri Aug 26 14:37:27 2022, MaxMem= 24159191040 cpu:         0.8
 (Enter /public/home/users/caep010/software/Gaussian09/g09/l401.exe)
 ExpMin= 1.61D-01 ExpMax= 5.48D+03 ExpMxC= 8.25D+02 IAcc=1 IRadAn=         1 AccDes= 0.00D+00
 Harris functional with IExCor=  402 and IRadAn=       1 diagonalized for initial guess.
 HarFok:  IExCor=  402 AccDes= 0.00D+00 IRadAn=         1 IDoV= 1 UseB2=F ITyADJ=14
 ICtDFT=  3500011 ScaDFX=  1.000000  1.000000  1.000000  1.000000
 FoFCou: FMM=F IPFlag=           0 FMFlag=      100000 FMFlg1=           0
         NFxFlg=           0 DoJE=T BraDBF=F KetDBF=T FulRan=T
         wScrn=  0.000000 ICntrl=     500 IOpCl=  0 I1Cent=   200000004 NGrid=           0
         NMat0=    1 NMatS0=      1 NMatT0=    0 NMatD0=    1 NMtDS0=    0 NMtDT0=    0
 Petite list used in FoFCou.
 Harris En= -273.047082772755    
 JPrj=0 DoOrth=F DoCkMO=F.
 Leave Link  401 at Fri Aug 26 14:37:27 2022, MaxMem= 24159191040 cpu:        18.6
 (Enter /public/home/users/caep010/software/Gaussian09/g09/l502.exe)
 Closed shell SCF:
 Using DIIS extrapolation, IDIIS=  1040.
 Integral symmetry usage will be decided dynamically.
 Keep R1 ints in memory in canonical form, NReq=348518941.
 IVT=      209782 IEndB=      209782 NGot= 24159191040 MDV= 23818206588
 LenX= 23818206588 LenY= 23818145631
 Requested convergence on RMS density matrix=1.00D-08 within 128 cycles.
 Requested convergence on MAX density matrix=1.00D-06.
 Requested convergence on             energy=1.00D-06.
 No special actions if energy rises.
 FoFCou: FMM=F IPFlag=           0 FMFlag=           0 FMFlg1=           0
         NFxFlg=           0 DoJE=F BraDBF=F KetDBF=F FulRan=T
         wScrn=  0.000000 ICntrl=     600 IOpCl=  0 I1Cent=           0 NGrid=           0
         NMat0=    1 NMatS0=  26106 NMatT0=    0 NMatD0=    1 NMtDS0=    0 NMtDT0=    0
 Symmetry not used in FoFCou.
 Integral accuracy reduced to 1.0D-05 until final iterations.

 Cycle   1  Pass 0  IDiag  1:
 E= -272.763146424530    
 DIIS: error= 2.39D-02 at cycle   1 NSaved=   1.
 NSaved= 1 IEnMin= 1 EnMin= -272.763146424530     IErMin= 1 ErrMin= 2.39D-02
 ErrMax= 2.39D-02  0.00D+00 EMaxC= 1.00D-01 BMatC= 2.21D-01 BMatP= 2.21D-01
 IDIUse=3 WtCom= 7.61D-01 WtEn= 2.39D-01
 Coeff-Com:  0.100D+01
 Coeff-En:   0.100D+01
 Coeff:      0.100D+01
 Gap=     0.282 Goal=   None    Shift=    0.000
 GapD=    0.282 DampG=1.000 DampE=0.500 DampFc=0.5000 IDamp=-1.
 Damping current iteration by 5.00D-01
 RMSDP=4.74D-03 MaxDP=1.31D-01              OVMax= 1.73D-01

 Cycle   2  Pass 0  IDiag  1:
 E= -272.866778963737     Delta-E=       -0.103632539207 Rises=F Damp=T
 DIIS: error= 5.51D-03 at cycle   2 NSaved=   2.
 NSaved= 2 IEnMin= 2 EnMin= -272.866778963737     IErMin= 2 ErrMin= 5.51D-03
 ErrMax= 5.51D-03  0.00D+00 EMaxC= 1.00D-01 BMatC= 9.85D-03 BMatP= 2.21D-01
 IDIUse=3 WtCom= 9.45D-01 WtEn= 5.51D-02
 Coeff-Com:  0.714D-01 0.929D+00
 Coeff-En:   0.122D+00 0.878D+00
 Coeff:      0.742D-01 0.926D+00
 Gap=     0.335 Goal=   None    Shift=    0.000
 RMSDP=8.61D-04 MaxDP=3.02D-02 DE=-1.04D-01 OVMax= 9.70D-02

 Cycle   3  Pass 0  IDiag  1:
 E= -272.993010931480     Delta-E=       -0.126231967743 Rises=F Damp=F
 DIIS: error= 3.57D-03 at cycle   3 NSaved=   3.
 NSaved= 3 IEnMin= 3 EnMin= -272.993010931480     IErMin= 3 ErrMin= 3.57D-03
 ErrMax= 3.57D-03  0.00D+00 EMaxC= 1.00D-01 BMatC= 1.95D-03 BMatP= 9.85D-03
 IDIUse=3 WtCom= 9.64D-01 WtEn= 3.57D-02
 Coeff-Com: -0.414D-03 0.253D+00 0.747D+00
 Coeff-En:   0.000D+00 0.000D+00 0.100D+01
 Coeff:     -0.399D-03 0.244D+00 0.756D+00
 Gap=     0.315 Goal=   None    Shift=    0.000
 RMSDP=3.26D-04 MaxDP=1.16D-02 DE=-1.26D-01 OVMax= 1.38D-02

 Cycle   4  Pass 0  IDiag  1:
 E= -272.993696743058     Delta-E=       -0.000685811579 Rises=F Damp=F
 DIIS: error= 2.23D-03 at cycle   4 NSaved=   4.
 NSaved= 4 IEnMin= 4 EnMin= -272.993696743058     IErMin= 4 ErrMin= 2.23D-03
 ErrMax= 2.23D-03  0.00D+00 EMaxC= 1.00D-01 BMatC= 1.29D-03 BMatP= 1.95D-03
 IDIUse=3 WtCom= 9.78D-01 WtEn= 2.23D-02
 Coeff-Com: -0.483D-02 0.565D-01 0.453D+00 0.495D+00
 Coeff-En:   0.000D+00 0.000D+00 0.381D+00 0.619D+00
 Coeff:     -0.472D-02 0.552D-01 0.451D+00 0.498D+00
 Gap=     0.323 Goal=   None    Shift=    0.000
 RMSDP=1.50D-04 MaxDP=6.76D-03 DE=-6.86D-04 OVMax= 7.32D-03

 Cycle   5  Pass 0  IDiag  1:
 E= -272.994674848662     Delta-E=       -0.000978105604 Rises=F Damp=F
 DIIS: error= 2.17D-04 at cycle   5 NSaved=   5.
 NSaved= 5 IEnMin= 5 EnMin= -272.994674848662     IErMin= 5 ErrMin= 2.17D-04
 ErrMax= 2.17D-04  0.00D+00 EMaxC= 1.00D-01 BMatC= 2.90D-05 BMatP= 1.29D-03
 IDIUse=3 WtCom= 9.98D-01 WtEn= 2.17D-03
 Coeff-Com: -0.133D-02 0.484D-02 0.140D+00 0.205D+00 0.651D+00
 Coeff-En:   0.000D+00 0.000D+00 0.000D+00 0.000D+00 0.100D+01
 Coeff:     -0.133D-02 0.483D-02 0.140D+00 0.205D+00 0.652D+00
 Gap=     0.322 Goal=   None    Shift=    0.000
 RMSDP=2.24D-05 MaxDP=1.05D-03 DE=-9.78D-04 OVMax= 1.00D-03

 Cycle   6  Pass 0  IDiag  1:
 E= -272.994693890718     Delta-E=       -0.000019042056 Rises=F Damp=F
 DIIS: error= 1.35D-04 at cycle   6 NSaved=   6.
 NSaved= 6 IEnMin= 6 EnMin= -272.994693890718     IErMin= 6 ErrMin= 1.35D-04
 ErrMax= 1.35D-04  0.00D+00 EMaxC= 1.00D-01 BMatC= 4.26D-06 BMatP= 2.90D-05
 IDIUse=3 WtCom= 9.99D-01 WtEn= 1.35D-03
 Coeff-Com: -0.352D-03-0.284D-03 0.571D-01 0.910D-01 0.370D+00 0.482D+00
 Coeff-En:   0.000D+00 0.000D+00 0.000D+00 0.000D+00 0.459D-01 0.954D+00
 Coeff:     -0.351D-03-0.284D-03 0.571D-01 0.908D-01 0.370D+00 0.483D+00
 Gap=     0.322 Goal=   None    Shift=    0.000
 RMSDP=8.61D-06 MaxDP=4.74D-04 DE=-1.90D-05 OVMax= 3.73D-04

 Initial convergence to 1.0D-05 achieved.  Increase integral accuracy.
 Cycle   7  Pass 1  IDiag  1:
 E= -272.994738607687     Delta-E=       -0.000044716969 Rises=F Damp=F
 DIIS: error= 2.04D-05 at cycle   1 NSaved=   1.
 NSaved= 1 IEnMin= 1 EnMin= -272.994738607687     IErMin= 1 ErrMin= 2.04D-05
 ErrMax= 2.04D-05  0.00D+00 EMaxC= 1.00D-01 BMatC= 2.70D-07 BMatP= 2.70D-07
 IDIUse=1 WtCom= 1.00D+00 WtEn= 0.00D+00
 Coeff-Com:  0.100D+01
 Coeff:      0.100D+01
 Gap=     0.322 Goal=   None    Shift=    0.000
 RMSDP=8.61D-06 MaxDP=4.74D-04 DE=-4.47D-05 OVMax= 1.17D-04

 Cycle   8  Pass 1  IDiag  1:
 E= -272.994738778684     Delta-E=       -0.000000170997 Rises=F Damp=F
 DIIS: error= 2.15D-05 at cycle   2 NSaved=   2.
 NSaved= 2 IEnMin= 2 EnMin= -272.994738778684     IErMin= 1 ErrMin= 2.04D-05
 ErrMax= 2.15D-05  0.00D+00 EMaxC= 1.00D-01 BMatC= 8.25D-08 BMatP= 2.70D-07
 IDIUse=1 WtCom= 1.00D+00 WtEn= 0.00D+00
 Coeff-Com:  0.295D+00 0.705D+00
 Coeff:      0.295D+00 0.705D+00
 Gap=     0.322 Goal=   None    Shift=    0.000
 RMSDP=1.98D-06 MaxDP=9.23D-05 DE=-1.71D-07 OVMax= 8.36D-05

 Cycle   9  Pass 1  IDiag  1:
 E= -272.994738818805     Delta-E=       -0.000000040121 Rises=F Damp=F
 DIIS: error= 1.51D-05 at cycle   3 NSaved=   3.
 NSaved= 3 IEnMin= 3 EnMin= -272.994738818805     IErMin= 3 ErrMin= 1.51D-05
 ErrMax= 1.51D-05  0.00D+00 EMaxC= 1.00D-01 BMatC= 3.98D-08 BMatP= 8.25D-08
 IDIUse=1 WtCom= 1.00D+00 WtEn= 0.00D+00
 Coeff-Com: -0.988D-02 0.408D+00 0.602D+00
 Coeff:     -0.988D-02 0.408D+00 0.602D+00
 Gap=     0.322 Goal=   None    Shift=    0.000
 RMSDP=8.48D-07 MaxDP=4.34D-05 DE=-4.01D-08 OVMax= 3.57D-05

 Cycle  10  Pass 1  IDiag  1:
 E= -272.994738853614     Delta-E=       -0.000000034809 Rises=F Damp=F
 DIIS: error= 1.24D-06 at cycle   4 NSaved=   4.
 NSaved= 4 IEnMin= 4 EnMin= -272.994738853614     IErMin= 4 ErrMin= 1.24D-06
 ErrMax= 1.24D-06  0.00D+00 EMaxC= 1.00D-01 BMatC= 9.31D-10 BMatP= 3.98D-08
 IDIUse=1 WtCom= 1.00D+00 WtEn= 0.00D+00
 Coeff-Com: -0.123D-01 0.172D+00 0.285D+00 0.554D+00
 Coeff:     -0.123D-01 0.172D+00 0.285D+00 0.554D+00
 Gap=     0.322 Goal=   None    Shift=    0.000
 RMSDP=1.49D-07 MaxDP=6.23D-06 DE=-3.48D-08 OVMax= 7.42D-06

 Cycle  11  Pass 1  IDiag  1:
 E= -272.994738854353     Delta-E=       -0.000000000739 Rises=F Damp=F
 DIIS: error= 6.69D-07 at cycle   5 NSaved=   5.
 NSaved= 5 IEnMin= 5 EnMin= -272.994738854353     IErMin= 5 ErrMin= 6.69D-07
 ErrMax= 6.69D-07  0.00D+00 EMaxC= 1.00D-01 BMatC= 1.06D-10 BMatP= 9.31D-10
 IDIUse=1 WtCom= 1.00D+00 WtEn= 0.00D+00
 Coeff-Com: -0.641D-02 0.745D-01 0.127D+00 0.316D+00 0.489D+00
 Coeff:     -0.641D-02 0.745D-01 0.127D+00 0.316D+00 0.489D+00
 Gap=     0.322 Goal=   None    Shift=    0.000
 RMSDP=4.63D-08 MaxDP=2.08D-06 DE=-7.39D-10 OVMax= 2.19D-06

 Cycle  12  Pass 1  IDiag  1:
 E= -272.994738854433     Delta-E=       -0.000000000080 Rises=F Damp=F
 DIIS: error= 7.40D-08 at cycle   6 NSaved=   6.
 NSaved= 6 IEnMin= 6 EnMin= -272.994738854433     IErMin= 6 ErrMin= 7.40D-08
 ErrMax= 7.40D-08  0.00D+00 EMaxC= 1.00D-01 BMatC= 1.97D-12 BMatP= 1.06D-10
 IDIUse=1 WtCom= 1.00D+00 WtEn= 0.00D+00
 Coeff-Com: -0.403D-03 0.110D-02 0.268D-02 0.258D-01 0.136D+00 0.834D+00
 Coeff:     -0.403D-03 0.110D-02 0.268D-02 0.258D-01 0.136D+00 0.834D+00
 Gap=     0.322 Goal=   None    Shift=    0.000
 RMSDP=6.58D-09 MaxDP=2.20D-07 DE=-8.05D-11 OVMax= 2.66D-07

 SCF Done:  E(RB3LYP) =  -272.994738854     A.U. after   12 cycles
            NFock= 12  Conv=0.66D-08     -V/T= 2.0091
 KE= 2.705241518248D+02 PE=-1.173978161190D+03 EE= 3.606201539912D+02
 Leave Link  502 at Fri Aug 26 14:37:37 2022, MaxMem= 24159191040 cpu:        98.1
 (Enter /public/home/users/caep010/software/Gaussian09/g09/l601.exe)
 Copying SCF densities to generalized density rwf, IOpCl= 0 IROHF=0.

 **********************************************************************

            Population analysis using the SCF density.

 **********************************************************************

 Orbital symmetries:
       Occupied  (A) (A) (A) (A) (A) (A) (A) (A) (A) (A) (A) (A)
                 (A) (A) (A) (A) (A) (A) (A) (A) (A) (A) (A) (A)
                 (A)
       Virtual   (A) (A) (A) (A) (A) (A) (A) (A) (A) (A) (A) (A)
                 (A) (A) (A) (A) (A) (A) (A) (A) (A) (A) (A) (A)
                 (A) (A) (A) (A) (A) (A) (A) (A) (A) (A) (A) (A)
                 (A) (A) (A) (A) (A) (A) (A) (A) (A) (A) (A) (A)
                 (A) (A) (A) (A) (A) (A) (A) (A) (A) (A) (A) (A)
                 (A) (A) (A) (A) (A) (A) (A) (A) (A) (A) (A) (A)
                 (A) (A) (A) (A) (A) (A) (A) (A) (A) (A) (A) (A)
                 (A) (A) (A) (A) (A) (A) (A) (A) (A) (A) (A) (A)
                 (A) (A) (A) (A) (A) (A) (A) (A) (A) (A) (A) (A)
                 (A) (A) (A) (A) (A) (A) (A) (A) (A) (A) (A) (A)
                 (A) (A) (A) (A) (A) (A) (A) (A) (A) (A) (A) (A)
                 (A) (A) (A) (A) (A) (A) (A) (A) (A) (A) (A) (A)
                 (A) (A) (A) (A) (A) (A) (A) (A) (A) (A) (A) (A)
                 (A) (A) (A) (A) (A) (A) (A) (A) (A) (A) (A) (A)
                 (A) (A) (A) (A) (A) (A) (A) (A) (A) (A) (A) (A)
                 (A) (A) (A) (A) (A) (A) (A) (A) (A) (A) (A) (A)
                 (A) (A) (A) (A) (A) (A) (A) (A) (A) (A) (A)
 The electronic state is 1-A.
 Alpha  occ. eigenvalues --  -19.13223 -10.23672 -10.22108 -10.17717 -10.17401
 Alpha  occ. eigenvalues --  -10.17161  -1.02267  -0.78822  -0.68900  -0.68116
 Alpha  occ. eigenvalues --   -0.66213  -0.54270  -0.47550  -0.45711  -0.45424
 Alpha  occ. eigenvalues --   -0.42296  -0.40479  -0.39163  -0.37639  -0.36709
 Alpha  occ. eigenvalues --   -0.35798  -0.33762  -0.33542  -0.29478  -0.24723
 Alpha virt. eigenvalues --    0.07487   0.10512   0.12555   0.13326   0.14830
 Alpha virt. eigenvalues --    0.15440   0.15985   0.17261   0.17576   0.18889
 Alpha virt. eigenvalues --    0.19715   0.20491   0.20963   0.22567   0.24354
 Alpha virt. eigenvalues --    0.25384   0.27173   0.43212   0.44254   0.46041
 Alpha virt. eigenvalues --    0.48053   0.51052   0.52203   0.53459   0.54012
 Alpha virt. eigenvalues --    0.55343   0.58540   0.61887   0.63692   0.65065
 Alpha virt. eigenvalues --    0.70405   0.70935   0.71688   0.72408   0.72802
 Alpha virt. eigenvalues --    0.73898   0.74418   0.75417   0.75867   0.77374
 Alpha virt. eigenvalues --    0.79320   0.81119   0.81927   0.84235   0.85907
 Alpha virt. eigenvalues --    0.88506   0.89321   0.92401   0.93027   0.97030
 Alpha virt. eigenvalues --    1.01043   1.11054   1.12971   1.18518   1.20808
 Alpha virt. eigenvalues --    1.25679   1.32217   1.35325   1.36439   1.37146
 Alpha virt. eigenvalues --    1.40080   1.41491   1.43256   1.43699   1.47124
 Alpha virt. eigenvalues --    1.50998   1.52548   1.54311   1.57414   1.58505
 Alpha virt. eigenvalues --    1.62520   1.65677   1.69121   1.72976   1.77013
 Alpha virt. eigenvalues --    1.80185   1.83158   1.85900   1.87027   1.88441
 Alpha virt. eigenvalues --    1.92209   1.95153   1.95689   1.95938   1.98029
 Alpha virt. eigenvalues --    1.99365   2.14823   2.25918   2.27584   2.29603
 Alpha virt. eigenvalues --    2.30560   2.31987   2.33047   2.37165   2.41392
 Alpha virt. eigenvalues --    2.44386   2.44842   2.48808   2.49402   2.66267
 Alpha virt. eigenvalues --    2.66530   2.68554   2.72216   2.75630   2.77255
 Alpha virt. eigenvalues --    2.81493   2.83587   2.84641   2.85249   2.86810
 Alpha virt. eigenvalues --    2.89184   2.91102   2.91540   2.92752   2.92855
 Alpha virt. eigenvalues --    2.94559   2.96434   2.99332   3.00023   3.05076
 Alpha virt. eigenvalues --    3.09212   3.09711   3.12843   3.22793   3.32868
 Alpha virt. eigenvalues --    3.35553   3.37932   3.39046   3.40922   3.43268
 Alpha virt. eigenvalues --    3.47160   3.48082   3.50321   3.54472   3.56028
 Alpha virt. eigenvalues --    3.57829   3.63627   3.63895   3.65450   3.67311
 Alpha virt. eigenvalues --    3.74819   3.80014   3.80074   3.86753   3.91854
 Alpha virt. eigenvalues --    3.96279   4.04668   4.06979   4.10455   4.19459
 Alpha virt. eigenvalues --    4.20480   4.26761   4.28910   4.31998   4.36042
 Alpha virt. eigenvalues --    4.37479   4.40973   4.44262   4.46221   4.48551
 Alpha virt. eigenvalues --    4.49139   4.54505   4.54843   4.59513   4.62740
 Alpha virt. eigenvalues --    4.65886   4.67668   4.68168   4.69173   4.71411
 Alpha virt. eigenvalues --    4.72980   4.75715   4.76619   4.78704   4.82380
 Alpha virt. eigenvalues --    4.83914   4.86860   4.89539   4.91564   4.94128
 Alpha virt. eigenvalues --    4.99397   5.11038   5.17679   5.21163   5.39081
 Alpha virt. eigenvalues --    5.44047   5.47271   5.49365   5.55269   5.67035
 Alpha virt. eigenvalues --    5.73393   5.89816   5.96790   6.02329   6.15830
 Alpha virt. eigenvalues --    6.21103   7.15150  11.23817  11.31710  11.87492
 Alpha virt. eigenvalues --   11.93863  12.51892  13.56867
          Condensed to atoms (all electrons):
               1          2          3          4          5          6
     1  C    4.844405   0.371932  -0.085823  -0.005595   0.005693  -0.005659
     2  O    0.371932   7.704758   0.394580  -0.044243  -0.032252  -0.049491
     3  C   -0.085823   0.394580   4.316076   0.369939   0.401546   0.376940
     4  C   -0.005595  -0.044243   0.369939   5.148834  -0.055251  -0.076921
     5  C    0.005693  -0.032252   0.401546  -0.055251   5.064418  -0.058603
     6  C   -0.005659  -0.049491   0.376940  -0.076921  -0.058603   5.141258
     7  H    0.363999  -0.033101  -0.004026  -0.003912   0.000081   0.007105
     8  H    0.379979  -0.019467   0.004678   0.000050  -0.000280   0.000265
     9  H    0.373475  -0.033287  -0.007194   0.008247   0.000187  -0.001196
    10  H    0.001312  -0.001762  -0.018496   0.362127   0.005279  -0.006243
    11  H   -0.000371   0.000507  -0.013784   0.356395  -0.004864   0.005573
    12  H   -0.000006   0.002162  -0.015348   0.362771  -0.004217   0.000171
    13  H   -0.000230   0.002106  -0.019198  -0.003007   0.364798  -0.001331
    14  H    0.000104   0.001006  -0.015662  -0.005826   0.357220   0.005872
    15  H   -0.000012   0.000422  -0.015350   0.005759   0.358725  -0.005802
    16  H    0.000464   0.001044  -0.014269   0.005597  -0.004115   0.357525
    17  H    0.000062   0.002478  -0.015342   0.001789  -0.005416   0.357103
    18  H   -0.001473  -0.000988  -0.017249  -0.006805   0.005451   0.360063
               7          8          9         10         11         12
     1  C    0.363999   0.379979   0.373475   0.001312  -0.000371  -0.000006
     2  O   -0.033101  -0.019467  -0.033287  -0.001762   0.000507   0.002162
     3  C   -0.004026   0.004678  -0.007194  -0.018496  -0.013784  -0.015348
     4  C   -0.003912   0.000050   0.008247   0.362127   0.356395   0.362771
     5  C    0.000081  -0.000280   0.000187   0.005279  -0.004864  -0.004217
     6  C    0.007105   0.000265  -0.001196  -0.006243   0.005573   0.000171
     7  H    0.641807  -0.034564  -0.047324   0.000704   0.000474   0.000009
     8  H   -0.034564   0.587699  -0.039567  -0.000038  -0.000016  -0.000004
     9  H   -0.047324  -0.039567   0.638375   0.000390   0.000032  -0.000193
    10  H    0.000704  -0.000038   0.000390   0.604361  -0.031252  -0.030679
    11  H    0.000474  -0.000016   0.000032  -0.031252   0.592303  -0.027590
    12  H    0.000009  -0.000004  -0.000193  -0.030679  -0.027590   0.594988
    13  H    0.000015   0.000003   0.000002  -0.000028   0.000272   0.001927
    14  H    0.000033  -0.000000  -0.000083  -0.000063   0.003963   0.000314
    15  H   -0.000012  -0.000007   0.000020  -0.000210  -0.000116  -0.000024
    16  H    0.000082  -0.000094   0.000080  -0.000037  -0.000195  -0.000101
    17  H   -0.000520   0.000001   0.000020  -0.000006  -0.000122   0.000779
    18  H    0.003213  -0.000061   0.000098   0.004425  -0.000039   0.000081
              13         14         15         16         17         18
     1  C   -0.000230   0.000104  -0.000012   0.000464   0.000062  -0.001473
     2  O    0.002106   0.001006   0.000422   0.001044   0.002478  -0.000988
     3  C   -0.019198  -0.015662  -0.015350  -0.014269  -0.015342  -0.017249
     4  C   -0.003007  -0.005826   0.005759   0.005597   0.001789  -0.006805
     5  C    0.364798   0.357220   0.358725  -0.004115  -0.005416   0.005451
     6  C   -0.001331   0.005872  -0.005802   0.357525   0.357103   0.360063
     7  H    0.000015   0.000033  -0.000012   0.000082  -0.000520   0.003213
     8  H    0.000003  -0.000000  -0.000007  -0.000094   0.000001  -0.000061
     9  H    0.000002  -0.000083   0.000020   0.000080   0.000020   0.000098
    10  H   -0.000028  -0.000063  -0.000210  -0.000037  -0.000006   0.004425
    11  H    0.000272   0.003963  -0.000116  -0.000195  -0.000122  -0.000039
    12  H    0.001927   0.000314  -0.000024  -0.000101   0.000779   0.000081
    13  H    0.602806  -0.029164  -0.029698   0.000168   0.001577  -0.000049
    14  H   -0.029164   0.599012  -0.029454  -0.000122  -0.000043  -0.000215
    15  H   -0.029698  -0.029454   0.596355   0.003717   0.000497  -0.000065
    16  H    0.000168  -0.000122   0.003717   0.589424  -0.027326  -0.030877
    17  H    0.001577  -0.000043   0.000497  -0.027326   0.602898  -0.030470
    18  H   -0.000049  -0.000215  -0.000065  -0.030877  -0.030470   0.607069
 Mulliken charges:
               1
     1  C   -0.242254
     2  O   -0.266403
     3  C    0.377979
     4  C   -0.419947
     5  C   -0.398398
     6  C   -0.406631
     7  H    0.105938
     8  H    0.121424
     9  H    0.107920
    10  H    0.110216
    11  H    0.118832
    12  H    0.114961
    13  H    0.109031
    14  H    0.113108
    15  H    0.115255
    16  H    0.119035
    17  H    0.112041
    18  H    0.107892
 Sum of Mulliken charges =   0.00000
 Mulliken charges with hydrogens summed into heavy atoms:
               1
     1  C    0.093028
     2  O   -0.266403
     3  C    0.377979
     4  C   -0.075938
     5  C   -0.061003
     6  C   -0.067663
 Electronic spatial extent (au):  <R**2>=            644.8168
 Charge=              0.0000 electrons
 Dipole moment (field-independent basis, Debye):
    X=              0.0045    Y=             -0.1693    Z=              1.1342  Tot=              1.1467
 Quadrupole moment (field-independent basis, Debye-Ang):
   XX=            -37.2301   YY=            -39.6933   ZZ=            -41.2549
   XY=              0.0273   XZ=              0.5470   YZ=              0.1649
 Traceless Quadrupole moment (field-independent basis, Debye-Ang):
   XX=              2.1626   YY=             -0.3005   ZZ=             -1.8621
   XY=              0.0273   XZ=              0.5470   YZ=              0.1649
 Octapole moment (field-independent basis, Debye-Ang**2):
  XXX=              8.9856  YYY=             -0.0434  ZZZ=             -2.3506  XYY=              1.7378
  XXY=              0.5732  XXZ=             -0.5112  XZZ=              0.7545  YZZ=              0.4329
  YYZ=             -3.2599  XYZ=              0.5414
 Hexadecapole moment (field-independent basis, Debye-Ang**3):
 XXXX=           -412.7967 YYYY=           -230.0287 ZZZZ=           -215.4623 XXXY=              2.9323
 XXXZ=            -14.3761 YYYX=             -0.5839 YYYZ=             -0.3996 ZZZX=             -1.0883
 ZZZY=             -0.1833 XXYY=           -110.5247 XXZZ=           -105.3663 YYZZ=            -74.7487
 XXYZ=             -1.6114 YYXZ=              0.6154 ZZXY=              0.9898
 N-N= 2.698391165195D+02 E-N=-1.173978169470D+03  KE= 2.705241518248D+02
 No NMR shielding tensors so no spin-rotation constants.
 Leave Link  601 at Fri Aug 26 14:37:38 2022, MaxMem= 24159191040 cpu:        16.6
 (Enter /public/home/users/caep010/software/Gaussian09/g09/l701.exe)
 Compute integral first derivatives.
 ... and contract with generalized density number  0.
 Leave Link  701 at Fri Aug 26 14:37:38 2022, MaxMem= 24159191040 cpu:        15.1
 (Enter /public/home/users/caep010/software/Gaussian09/g09/l702.exe)
 L702 exits ... SP integral derivatives will be done elsewhere.
 Leave Link  702 at Fri Aug 26 14:37:38 2022, MaxMem= 24159191040 cpu:         0.6
 (Enter /public/home/users/caep010/software/Gaussian09/g09/l703.exe)
 Compute integral first derivatives, UseDBF=F ICtDFT=           0.
 Integral derivatives from FoFJK, PRISM(SPDF).
 Calling FoFJK, ICntrl=      2127 FMM=F ISym2X=0 I1Cent= 0 IOpClX= 0 NMat=1 NMatS=1 NMatT=0.
 FoFJK:  IHMeth= 1 ICntrl=    2127 DoSepK=F KAlg= 0 I1Cent=   0 FoldK=F
 IRaf=         0 NMat=   1 IRICut=       1 DoRegI=T DoRafI=F ISym2E= 0.
 FoFCou: FMM=F IPFlag=           0 FMFlag=      100000 FMFlg1=         800
         NFxFlg=           0 DoJE=F BraDBF=F KetDBF=F FulRan=T
         wScrn=  0.000000 ICntrl=    2127 IOpCl=  0 I1Cent=           0 NGrid=           0
         NMat0=    1 NMatS0=      1 NMatT0=    0 NMatD0=    1 NMtDS0=    0 NMtDT0=    0
 Symmetry not used in FoFCou.
 Leave Link  703 at Fri Aug 26 14:37:40 2022, MaxMem= 24159191040 cpu:        55.0
 (Enter /public/home/users/caep010/software/Gaussian09/g09/l716.exe)
 Dipole        = 1.75231844D-03-6.65959648D-02 4.46213056D-01
 ***** Axes restored to original set *****
 -------------------------------------------------------------------
 Center     Atomic                   Forces (Hartrees/Bohr)
 Number     Number              X              Y              Z
 -------------------------------------------------------------------
      1        6           0.011249545   -0.003633232   -0.002113773
      2        8           0.000955142    0.003780045    0.005267826
      3        6          -0.019855222    0.000278130    0.002451975
      4        6           0.003822342    0.000406509    0.006617237
      5        6          -0.000696926   -0.007817656   -0.009536253
      6        6           0.000567629    0.008833894    0.000880291
      7        1          -0.000019405   -0.007522584    0.000376835
      8        1          -0.009447421   -0.000709663    0.002207475
      9        1          -0.000494325    0.008452887   -0.003088861
     10        1          -0.005546413   -0.007312385   -0.004957693
     11        1          -0.003386612    0.009804676   -0.000345033
     12        1           0.010581517   -0.000931181   -0.004486555
     13        1           0.011528448   -0.001178180   -0.003217893
     14        1          -0.002322477    0.010196000   -0.001215966
     15        1          -0.000770992   -0.003349366    0.010027713
     16        1          -0.002356280   -0.003465055    0.010017369
     17        1           0.010616372   -0.002051726   -0.002067612
     18        1          -0.004424924   -0.003781114   -0.006817080
 -------------------------------------------------------------------
 Cartesian Forces:  Max     0.019855222 RMS     0.006305672
 Leave Link  716 at Fri Aug 26 14:37:40 2022, MaxMem= 24159191040 cpu:         1.0
 (Enter /public/home/users/caep010/software/Gaussian09/g09/l103.exe)

 GradGradGradGradGradGradGradGradGradGradGradGradGradGradGradGradGradGrad
 Berny optimization.
 FormGI is forming the generalized inverse of G from B-inverse, IUseBI=4.
 Internal  Forces:  Max     0.016041864 RMS     0.004611011
 Search for a local minimum.
 Step number   1 out of a maximum of   91
 All quantities printed in internal units (Hartrees-Bohrs-Radians)
 RMS Force = .46110D-02 SwitMx=.10000D-02 MixMth= 1
 Mixed Optimization -- RFO/linear search
 Second derivative matrix not updated -- first step.
 ITU=  0
     Eigenvalues ---    0.00230   0.00230   0.00257   0.01324   0.01497
     Eigenvalues ---    0.04793   0.05391   0.05436   0.05438   0.05447
     Eigenvalues ---    0.05512   0.05517   0.05585   0.06518   0.09846
     Eigenvalues ---    0.10509   0.15783   0.15985   0.16000   0.16000
     Eigenvalues ---    0.16000   0.16000   0.16000   0.16000   0.16000
     Eigenvalues ---    0.16000   0.16000   0.16000   0.16000   0.16000
     Eigenvalues ---    0.25000   0.27727   0.28077   0.28657   0.32404
     Eigenvalues ---    0.32425   0.32427   0.32436   0.32443   0.32481
     Eigenvalues ---    0.32482   0.32532   0.32558   0.32686   0.32699
     Eigenvalues ---    0.32768   0.41304   0.43259
 RFO step:  Lambda=-7.00706571D-03 EMin= 2.30000000D-03
 Linear search not attempted -- first point.
 Iteration  1 RMS(Cart)=  0.05468759 RMS(Int)=  0.00203052
 Iteration  2 RMS(Cart)=  0.00264693 RMS(Int)=  0.00021443
 Iteration  3 RMS(Cart)=  0.00000519 RMS(Int)=  0.00021439
 Iteration  4 RMS(Cart)=  0.00000000 RMS(Int)=  0.00021439
 ITry= 1 IFail=0 DXMaxC= 1.64D-01 DCOld= 1.00D+10 DXMaxT= 3.00D-01 DXLimC= 3.00D+00 Rises=F
 Variable       Old X    -DE/DX   Delta X   Delta X   Delta X     New X
                                 (Linear)    (Quad)   (Total)
    R1        2.67351  -0.00155   0.00000  -0.00353  -0.00353   2.66998
    R2        2.09461  -0.00704   0.00000  -0.02105  -0.02105   2.07356
    R3        2.09606  -0.00905   0.00000  -0.02711  -0.02711   2.06895
    R4        2.09835  -0.00758   0.00000  -0.02278  -0.02278   2.07557
    R5        2.69820   0.00092   0.00000   0.00218   0.00218   2.70038
    R6        2.92739  -0.00411   0.00000  -0.01446  -0.01446   2.91293
    R7        2.90725  -0.00184   0.00000  -0.00628  -0.00628   2.90096
    R8        2.91971  -0.00160   0.00000  -0.00557  -0.00557   2.91414
    R9        2.09882  -0.01025   0.00000  -0.03085  -0.03085   2.06797
   R10        2.09973  -0.01034   0.00000  -0.03117  -0.03117   2.06856
   R11        2.10053  -0.01148   0.00000  -0.03464  -0.03464   2.06589
   R12        2.10110  -0.01199   0.00000  -0.03622  -0.03622   2.06488
   R13        2.10040  -0.01051   0.00000  -0.03171  -0.03171   2.06869
   R14        2.10073  -0.01058   0.00000  -0.03194  -0.03194   2.06879
   R15        2.09971  -0.01086   0.00000  -0.03272  -0.03272   2.06698
   R16        2.10069  -0.01100   0.00000  -0.03322  -0.03322   2.06748
   R17        2.09583  -0.00881   0.00000  -0.02637  -0.02637   2.06946
    A1        1.97299  -0.00010   0.00000  -0.00287  -0.00286   1.97012
    A2        1.88904  -0.00531   0.00000  -0.03006  -0.03001   1.85903
    A3        1.93268   0.00556   0.00000   0.03368   0.03379   1.96646
    A4        1.86523   0.00232   0.00000   0.01286   0.01280   1.87802
    A5        1.93297  -0.00443   0.00000  -0.02953  -0.02948   1.90350
    A6        1.86595   0.00190   0.00000   0.01604   0.01620   1.88216
    A7        1.99208   0.01604   0.00000   0.06242   0.06242   2.05450
    A8        1.97541   0.00002   0.00000  -0.01425  -0.01392   1.96149
    A9        1.85313  -0.00434   0.00000  -0.04417  -0.04381   1.80932
   A10        1.93811   0.00061   0.00000  -0.00835  -0.00796   1.93015
   A11        1.88186   0.00293   0.00000   0.03084   0.03013   1.91200
   A12        1.92656  -0.00180   0.00000   0.00586   0.00479   1.93134
   A13        1.88424   0.00275   0.00000   0.03208   0.03147   1.91570
   A14        1.94317   0.00286   0.00000   0.01999   0.01997   1.96314
   A15        1.92492   0.00082   0.00000   0.00361   0.00354   1.92846
   A16        1.93112  -0.00217   0.00000  -0.01451  -0.01449   1.91663
   A17        1.89870  -0.00158   0.00000  -0.00657  -0.00666   1.89204
   A18        1.87059  -0.00002   0.00000   0.00242   0.00249   1.87309
   A19        1.89373   0.00000   0.00000  -0.00551  -0.00555   1.88819
   A20        1.94292  -0.00166   0.00000  -0.01060  -0.01059   1.93233
   A21        1.92434   0.00100   0.00000   0.00662   0.00661   1.93095
   A22        1.92578   0.00081   0.00000   0.00488   0.00487   1.93064
   A23        1.89244   0.00033   0.00000   0.00190   0.00191   1.89435
   A24        1.89214   0.00029   0.00000   0.00057   0.00057   1.89271
   A25        1.88477  -0.00076   0.00000  -0.00330  -0.00332   1.88145
   A26        1.92364  -0.00048   0.00000  -0.00491  -0.00491   1.91873
   A27        1.93147  -0.00063   0.00000  -0.00350  -0.00353   1.92794
   A28        1.95107   0.00210   0.00000   0.01436   0.01436   1.96542
   A29        1.89388   0.00013   0.00000  -0.00268  -0.00271   1.89116
   A30        1.89553  -0.00090   0.00000  -0.00583  -0.00581   1.88972
   A31        1.86636  -0.00027   0.00000   0.00229   0.00227   1.86862
    D1       -0.85324  -0.00022   0.00000  -0.02096  -0.02087  -0.87411
    D2       -2.91578   0.00045   0.00000  -0.01539  -0.01557  -2.93135
    D3        1.32739  -0.00182   0.00000  -0.03589  -0.03579   1.29159
    D4       -0.88601  -0.00004   0.00000  -0.04312  -0.04279  -0.92881
    D5       -2.94713  -0.00086   0.00000  -0.04460  -0.04469  -2.99181
    D6        1.29221  -0.00194   0.00000  -0.05283  -0.05307   1.23914
    D7        1.22966   0.00082   0.00000  -0.00678  -0.00667   1.22299
    D8       -0.87985   0.00036   0.00000  -0.01420  -0.01416  -0.89401
    D9       -2.97524   0.00123   0.00000  -0.00030  -0.00027  -2.97552
   D10       -3.00920  -0.00262   0.00000  -0.04960  -0.04961  -3.05882
   D11        1.16447  -0.00308   0.00000  -0.05702  -0.05710   1.10737
   D12       -0.93092  -0.00221   0.00000  -0.04312  -0.04321  -0.97413
   D13       -0.95480   0.00142   0.00000   0.01046   0.01050  -0.94430
   D14       -3.06431   0.00096   0.00000   0.00303   0.00302  -3.06129
   D15        1.12348   0.00182   0.00000   0.01693   0.01690   1.14038
   D16       -3.12958  -0.00011   0.00000   0.00227   0.00228  -3.12730
   D17        1.05253  -0.00010   0.00000   0.00242   0.00245   1.05498
   D18       -1.02794  -0.00029   0.00000  -0.00074  -0.00073  -1.02867
   D19        1.03148   0.00070   0.00000   0.02703   0.02742   1.05890
   D20       -1.06959   0.00071   0.00000   0.02719   0.02759  -1.04200
   D21        3.13313   0.00051   0.00000   0.02403   0.02441  -3.12565
   D22       -1.05004  -0.00030   0.00000  -0.01458  -0.01500  -1.06504
   D23        3.13208  -0.00029   0.00000  -0.01443  -0.01483   3.11725
   D24        1.05161  -0.00049   0.00000  -0.01759  -0.01801   1.03360
   D25        0.82373  -0.00036   0.00000   0.02704   0.02700   0.85073
   D26        2.91870  -0.00090   0.00000   0.01826   0.01824   2.93693
   D27       -1.28616  -0.00029   0.00000   0.02819   0.02818  -1.25798
   D28        3.02924  -0.00123   0.00000   0.00663   0.00661   3.03585
   D29       -1.15898  -0.00177   0.00000  -0.00215  -0.00216  -1.16114
   D30        0.91935  -0.00116   0.00000   0.00779   0.00779   0.92713
   D31       -1.20101   0.00292   0.00000   0.06597   0.06599  -1.13502
   D32        0.89396   0.00237   0.00000   0.05719   0.05722   0.95118
   D33        2.97228   0.00299   0.00000   0.06713   0.06717   3.03946
         Item               Value     Threshold  Converged?
 Maximum Force            0.016042     0.000450     NO 
 RMS     Force            0.004611     0.000300     NO 
 Maximum Displacement     0.164076     0.001800     NO 
 RMS     Displacement     0.054840     0.001200     NO 
 Predicted change in Energy=-3.722253D-03
 Lowest energy point so far.  Saving SCF results.
 GradGradGradGradGradGradGradGradGradGradGradGradGradGradGradGradGradGrad

 Leave Link  103 at Fri Aug 26 14:37:41 2022, MaxMem= 24159191040 cpu:         2.9
 (Enter /public/home/users/caep010/software/Gaussian09/g09/l202.exe)
                          Input orientation:                          
 ---------------------------------------------------------------------
 Center     Atomic      Atomic             Coordinates (Angstroms)
 Number     Number       Type             X           Y           Z
 ---------------------------------------------------------------------
      1          6           0        2.131826    0.054146    0.029441
      2          8           0        1.002920   -0.399770   -0.688748
      3          6           0       -0.288524   -0.100700   -0.155165
      4          6           0       -0.436451   -0.551360    1.311499
      5          6           0       -1.243863   -0.912731   -1.040905
      6          6           0       -0.598491    1.403336   -0.296055
      7          1           0        2.070850    1.117712    0.292375
      8          1           0        2.994228   -0.074309   -0.632704
      9          1           0        2.317110   -0.530564    0.940563
     10          1           0        0.163595    0.054025    1.997790
     11          1           0       -0.137469   -1.598490    1.422659
     12          1           0       -1.480039   -0.459503    1.623946
     13          1           0       -2.281399   -0.754284   -0.736960
     14          1           0       -1.020033   -1.982006   -0.970678
     15          1           0       -1.141389   -0.617591   -2.090132
     16          1           0       -0.386553    1.733752   -1.316990
     17          1           0       -1.653812    1.597966   -0.083016
     18          1           0       -0.012406    2.020371    0.393181
 ---------------------------------------------------------------------
                    Distance matrix (angstroms):
                    1          2          3          4          5
     1  C    0.000000
     2  O    1.412892   0.000000
     3  C    2.432314   1.428979   0.000000
     4  C    2.933660   2.468959   1.541454   0.000000
     5  C    3.670936   2.331347   1.535123   2.513227   0.000000
     6  C    3.062824   2.443341   1.542094   2.536006   2.517037
     7  H    1.097281   2.099007   2.692855   3.179776   4.109460
     8  H    1.094840   2.018508   3.317409   3.972036   4.339470
     9  H    1.098344   2.097345   2.859149   2.778511   4.093018
    10  H    2.783583   2.850944   2.205349   1.094322   3.485573
    11  H    3.134001   2.682435   2.180761   1.094636   2.786309
    12  H    3.981439   3.393701   2.171102   1.093223   2.713416
    13  H    4.551646   3.303749   2.176513   2.764271   1.092689
    14  H    3.883345   2.583660   2.177035   2.756020   1.094705
    15  H    3.956988   2.570872   2.176845   3.474539   1.094754
    16  H    3.313032   2.622448   2.173628   3.483272   2.795546
    17  H    4.089876   3.378770   2.180524   2.836590   2.718311
    18  H    2.931908   2.838757   2.208137   2.763499   3.489438
                    6          7          8          9         10
     6  C    0.000000
     7  H    2.748311   0.000000
     8  H    3.899282   1.768987   0.000000
     9  H    3.710785   1.788185   1.772520   0.000000
    10  H    2.768238   2.770829   3.866323   2.469231   0.000000
    11  H    3.489624   3.678583   4.044153   2.719897   1.775449
    12  H    2.816682   4.107250   5.025924   3.858809   1.762102
    13  H    2.771624   4.848296   5.320289   4.900043   3.756356
    14  H    3.477550   4.555998   4.457334   4.110480   3.789221
    15  H    2.756374   4.359598   4.418437   4.599337   4.343404
    16  H    1.093801   3.001398   3.894485   4.187298   3.756582
    17  H    1.094061   3.774212   4.970206   4.620236   3.164882
    18  H    1.095114   2.272645   3.805257   3.497649   2.544065
                   11         12         13         14         15
    11  H    0.000000
    12  H    1.772090   0.000000
    13  H    3.158017   2.510568   0.000000
    14  H    2.579548   3.043303   1.775660   0.000000
    15  H    3.782819   3.732834   1.774650   1.769048   0.000000
    16  H    4.321059   3.828209   3.180755   3.785246   2.587729
    17  H    3.844956   2.679010   2.520831   3.742435   3.033115
    18  H    3.764522   3.133449   3.758226   4.346774   3.794771
                   16         17         18
    16  H    0.000000
    17  H    1.774000   0.000000
    18  H    1.773928   1.760512   0.000000
 Stoichiometry    C5H12O
 Framework group  C1[X(C5H12O)]
 Deg. of freedom    48
 Full point group                 C1      NOp   1
 RotChk:  IX=0 Diff= 5.77D-02
 Largest Abelian subgroup         C1      NOp   1
 Largest concise Abelian subgroup C1      NOp   1
                         Standard orientation:                         
 ---------------------------------------------------------------------
 Center     Atomic      Atomic             Coordinates (Angstroms)
 Number     Number       Type             X           Y           Z
 ---------------------------------------------------------------------
      1          6           0        2.038548    0.004974   -0.140936
      2          8           0        0.789404    0.051811   -0.799503
      3          6           0       -0.389275   -0.000355    0.006708
      4          6           0       -0.393140   -1.209047    0.963332
      5          6           0       -1.522760   -0.152158   -1.017388
      6          6           0       -0.568243    1.315056    0.791384
      7          1           0        2.114072    0.726396    0.682394
      8          1           0        2.793813    0.273431   -0.886711
      9          1           0        2.280442   -0.997466    0.237165
     10          1           0        0.344429   -1.110013    1.765657
     11          1           0       -0.184766   -2.132886    0.414397
     12          1           0       -1.375061   -1.305959    1.434051
     13          1           0       -2.493367   -0.189663   -0.516904
     14          1           0       -1.395895   -1.070202   -1.600036
     15          1           0       -1.525928    0.690205   -1.716603
     16          1           0       -0.456362    2.169405    0.117610
     17          1           0       -1.564427    1.359405    1.241518
     18          1           0        0.157037    1.422042    1.604893
 ---------------------------------------------------------------------
 Rotational constants (GHZ):      4.3514760      2.7148852      2.7108079
 Leave Link  202 at Fri Aug 26 14:37:41 2022, MaxMem= 24159191040 cpu:         1.5
 (Enter /public/home/users/caep010/software/Gaussian09/g09/l301.exe)
 Standard basis: GTBas3 (6D, 7F)
 Ernie: Thresh=  0.10000D-02 Tol=  0.10000D-05 Strict=F.
 There are   246 symmetry adapted cartesian basis functions of A   symmetry.
 There are   228 symmetry adapted basis functions of A   symmetry.
   228 basis functions,   348 primitive gaussians,   246 cartesian basis functions
    25 alpha electrons       25 beta electrons
       nuclear repulsion energy       270.3361446675 Hartrees.
 IExCor=  402 DFT=T Ex+Corr=B3LYP ExCW=0 ScaHFX=  0.200000
 ScaDFX=  0.800000  0.720000  1.000000  0.810000 ScalE2=  1.000000  1.000000
 IRadAn=      0 IRanWt=     -1 IRanGd=            0 ICorTp=0 IEmpDi=  4
 NAtoms=   18 NActive=   18 NUniq=   18 SFac= 1.00D+00 NAtFMM=   60 NAOKFM=F Big=F
 Integral buffers will be    131072 words long.
 Raffenetti 2 integral format.
 Two-electron integral symmetry is turned on.
 Leave Link  301 at Fri Aug 26 14:37:41 2022, MaxMem= 24159191040 cpu:         1.6
 (Enter /public/home/users/caep010/software/Gaussian09/g09/l302.exe)
 NPDir=0 NMtPBC=     1 NCelOv=     1 NCel=       1 NClECP=     1 NCelD=      1
         NCelK=      1 NCelE2=     1 NClLst=     1 CellRange=     0.0.
 One-electron integrals computed using PRISM.
 NBasis=   228 RedAO= T EigKep=  8.73D-04  NBF=   228
 NBsUse=   228 1.00D-06 EigRej= -1.00D+00 NBFU=   228
 Precomputing XC quadrature grid using
 IXCGrd= 4 IRadAn=           0 IRanWt=          -1 IRanGd=           0 AccXCQ= 0.00D+00.
 Generated NRdTot=       0 NPtTot=           0 NUsed=           0 NTot=          32
 NSgBfM=   246   246   246   246   246 MxSgAt=    18 MxSgA2=    18.
 Leave Link  302 at Fri Aug 26 14:37:41 2022, MaxMem= 24159191040 cpu:        17.1
 (Enter /public/home/users/caep010/software/Gaussian09/g09/l303.exe)
 DipDrv:  MaxL=1.
 Leave Link  303 at Fri Aug 26 14:37:41 2022, MaxMem= 24159191040 cpu:         0.8
 (Enter /public/home/users/caep010/software/Gaussian09/g09/l401.exe)
 Initial guess from the checkpoint file:  "G4.Frag_446.chk"
 B after Tr=    -0.000000    0.000000   -0.000000
         Rot=    0.999793    0.017331    0.006837    0.008184 Ang=   2.33 deg.
 Guess basis will be translated and rotated to current coordinates.
 JPrj=2 DoOrth=T DoCkMO=T.
 Generating alternative initial guess.
 ExpMin= 1.61D-01 ExpMax= 5.48D+03 ExpMxC= 8.25D+02 IAcc=1 IRadAn=         1 AccDes= 0.00D+00
 Harris functional with IExCor=  402 and IRadAn=       1 diagonalized for initial guess.
 HarFok:  IExCor=  402 AccDes= 0.00D+00 IRadAn=         1 IDoV= 1 UseB2=F ITyADJ=14
 ICtDFT=  3500011 ScaDFX=  1.000000  1.000000  1.000000  1.000000
 FoFCou: FMM=F IPFlag=           0 FMFlag=      100000 FMFlg1=           0
         NFxFlg=           0 DoJE=T BraDBF=F KetDBF=T FulRan=T
         wScrn=  0.000000 ICntrl=     500 IOpCl=  0 I1Cent=   200000004 NGrid=           0
         NMat0=    1 NMatS0=      1 NMatT0=    0 NMatD0=    1 NMtDS0=    0 NMtDT0=    0
 Petite list used in FoFCou.
 Harris En= -273.065745947243    
 Leave Link  401 at Fri Aug 26 14:37:42 2022, MaxMem= 24159191040 cpu:        16.9
 (Enter /public/home/users/caep010/software/Gaussian09/g09/l502.exe)
 Closed shell SCF:
 Using DIIS extrapolation, IDIIS=  1040.
 Integral symmetry usage will be decided dynamically.
 Keep R1 ints in memory in canonical form, NReq=348518941.
 IVT=      209782 IEndB=      209782 NGot= 24159191040 MDV= 23818206588
 LenX= 23818206588 LenY= 23818145631
 Requested convergence on RMS density matrix=1.00D-08 within 128 cycles.
 Requested convergence on MAX density matrix=1.00D-06.
 Requested convergence on             energy=1.00D-06.
 No special actions if energy rises.
 FoFCou: FMM=F IPFlag=           0 FMFlag=           0 FMFlg1=           0
         NFxFlg=           0 DoJE=F BraDBF=F KetDBF=F FulRan=T
         wScrn=  0.000000 ICntrl=     600 IOpCl=  0 I1Cent=           0 NGrid=           0
         NMat0=    1 NMatS0=  26106 NMatT0=    0 NMatD0=    1 NMtDS0=    0 NMtDT0=    0
 Symmetry not used in FoFCou.
 Integral accuracy reduced to 1.0D-05 until final iterations.

 Cycle   1  Pass 0  IDiag  1:
 E= -272.993594293677    
 DIIS: error= 2.61D-03 at cycle   1 NSaved=   1.
 NSaved= 1 IEnMin= 1 EnMin= -272.993594293677     IErMin= 1 ErrMin= 2.61D-03
 ErrMax= 2.61D-03  0.00D+00 EMaxC= 1.00D-01 BMatC= 2.83D-03 BMatP= 2.83D-03
 IDIUse=3 WtCom= 9.74D-01 WtEn= 2.61D-02
 Coeff-Com:  0.100D+01
 Coeff-En:   0.100D+01
 Coeff:      0.100D+01
 Gap=     1.038 Goal=   None    Shift=    0.000
 GapD=    1.038 DampG=2.000 DampE=1.000 DampFc=2.0000 IDamp=-1.
 RMSDP=3.33D-04 MaxDP=8.88D-03              OVMax= 1.70D-02

 Cycle   2  Pass 0  IDiag  1:
 E= -272.997989297304     Delta-E=       -0.004395003627 Rises=F Damp=F
 DIIS: error= 8.31D-04 at cycle   2 NSaved=   2.
 NSaved= 2 IEnMin= 2 EnMin= -272.997989297304     IErMin= 2 ErrMin= 8.31D-04
 ErrMax= 8.31D-04  0.00D+00 EMaxC= 1.00D-01 BMatC= 2.29D-04 BMatP= 2.83D-03
 IDIUse=3 WtCom= 9.92D-01 WtEn= 8.31D-03
 Coeff-Com:  0.592D-01 0.941D+00
 Coeff-En:   0.000D+00 0.100D+01
 Coeff:      0.587D-01 0.941D+00
 Gap=     0.325 Goal=   None    Shift=    0.000
 RMSDP=1.22D-04 MaxDP=3.78D-03 DE=-4.40D-03 OVMax= 5.09D-03

 Cycle   3  Pass 0  IDiag  1:
 E= -272.997972023107     Delta-E=        0.000017274197 Rises=F Damp=F
 DIIS: error= 8.67D-04 at cycle   3 NSaved=   3.
 NSaved= 3 IEnMin= 2 EnMin= -272.997989297304     IErMin= 2 ErrMin= 8.31D-04
 ErrMax= 8.67D-04  0.00D+00 EMaxC= 1.00D-01 BMatC= 2.84D-04 BMatP= 2.29D-04
 IDIUse=3 WtCom= 2.53D-01 WtEn= 7.47D-01
 Coeff-Com: -0.388D-01 0.544D+00 0.495D+00
 Coeff-En:   0.000D+00 0.517D+00 0.483D+00
 Coeff:     -0.982D-02 0.524D+00 0.486D+00
 Gap=     0.323 Goal=   None    Shift=    0.000
 RMSDP=6.66D-05 MaxDP=2.35D-03 DE= 1.73D-05 OVMax= 2.94D-03

 Cycle   4  Pass 0  IDiag  1:
 E= -272.998226568342     Delta-E=       -0.000254545235 Rises=F Damp=F
 DIIS: error= 1.29D-04 at cycle   4 NSaved=   4.
 NSaved= 4 IEnMin= 4 EnMin= -272.998226568342     IErMin= 4 ErrMin= 1.29D-04
 ErrMax= 1.29D-04  0.00D+00 EMaxC= 1.00D-01 BMatC= 8.25D-06 BMatP= 2.29D-04
 IDIUse=3 WtCom= 9.99D-01 WtEn= 1.29D-03
 Coeff-Com: -0.215D-01 0.239D+00 0.258D+00 0.525D+00
 Coeff-En:   0.000D+00 0.000D+00 0.000D+00 0.100D+01
 Coeff:     -0.215D-01 0.238D+00 0.258D+00 0.526D+00
 Gap=     0.324 Goal=   None    Shift=    0.000
 RMSDP=1.22D-05 MaxDP=6.78D-04 DE=-2.55D-04 OVMax= 6.65D-04

 Cycle   5  Pass 0  IDiag  1:
 E= -272.998232066558     Delta-E=       -0.000005498215 Rises=F Damp=F
 DIIS: error= 3.17D-05 at cycle   5 NSaved=   5.
 NSaved= 5 IEnMin= 5 EnMin= -272.998232066558     IErMin= 5 ErrMin= 3.17D-05
 ErrMax= 3.17D-05  0.00D+00 EMaxC= 1.00D-01 BMatC= 5.89D-07 BMatP= 8.25D-06
 IDIUse=1 WtCom= 1.00D+00 WtEn= 0.00D+00
 Coeff-Com: -0.416D-02 0.307D-01 0.448D-01 0.243D+00 0.685D+00
 Coeff:     -0.416D-02 0.307D-01 0.448D-01 0.243D+00 0.685D+00
 Gap=     0.323 Goal=   None    Shift=    0.000
 RMSDP=3.18D-06 MaxDP=1.45D-04 DE=-5.50D-06 OVMax= 1.58D-04

 Initial convergence to 1.0D-05 achieved.  Increase integral accuracy.
 Cycle   6  Pass 1  IDiag  1:
 E= -272.998362480166     Delta-E=       -0.000130413609 Rises=F Damp=F
 DIIS: error= 2.90D-05 at cycle   1 NSaved=   1.
 NSaved= 1 IEnMin= 1 EnMin= -272.998362480166     IErMin= 1 ErrMin= 2.90D-05
 ErrMax= 2.90D-05  0.00D+00 EMaxC= 1.00D-01 BMatC= 2.69D-07 BMatP= 2.69D-07
 IDIUse=1 WtCom= 1.00D+00 WtEn= 0.00D+00
 Coeff-Com:  0.100D+01
 Coeff:      0.100D+01
 Gap=     0.323 Goal=   None    Shift=    0.000
 RMSDP=3.18D-06 MaxDP=1.45D-04 DE=-1.30D-04 OVMax= 1.34D-04

 Cycle   7  Pass 1  IDiag  1:
 E= -272.998362718112     Delta-E=       -0.000000237946 Rises=F Damp=F
 DIIS: error= 8.60D-06 at cycle   2 NSaved=   2.
 NSaved= 2 IEnMin= 2 EnMin= -272.998362718112     IErMin= 2 ErrMin= 8.60D-06
 ErrMax= 8.60D-06  0.00D+00 EMaxC= 1.00D-01 BMatC= 2.31D-08 BMatP= 2.69D-07
 IDIUse=1 WtCom= 1.00D+00 WtEn= 0.00D+00
 Coeff-Com:  0.105D+00 0.895D+00
 Coeff:      0.105D+00 0.895D+00
 Gap=     0.323 Goal=   None    Shift=    0.000
 RMSDP=1.37D-06 MaxDP=4.19D-05 DE=-2.38D-07 OVMax= 5.55D-05

 Cycle   8  Pass 1  IDiag  1:
 E= -272.998362717168     Delta-E=        0.000000000943 Rises=F Damp=F
 DIIS: error= 9.82D-06 at cycle   3 NSaved=   3.
 NSaved= 3 IEnMin= 2 EnMin= -272.998362718112     IErMin= 2 ErrMin= 8.60D-06
 ErrMax= 9.82D-06  0.00D+00 EMaxC= 1.00D-01 BMatC= 2.73D-08 BMatP= 2.31D-08
 IDIUse=1 WtCom= 1.00D+00 WtEn= 0.00D+00
 Coeff-Com: -0.142D-01 0.525D+00 0.489D+00
 Coeff:     -0.142D-01 0.525D+00 0.489D+00
 Gap=     0.323 Goal=   None    Shift=    0.000
 RMSDP=7.34D-07 MaxDP=2.96D-05 DE= 9.43D-10 OVMax= 3.17D-05

 Cycle   9  Pass 1  IDiag  1:
 E= -272.998362739215     Delta-E=       -0.000000022047 Rises=F Damp=F
 DIIS: error= 1.11D-06 at cycle   4 NSaved=   4.
 NSaved= 4 IEnMin= 4 EnMin= -272.998362739215     IErMin= 4 ErrMin= 1.11D-06
 ErrMax= 1.11D-06  0.00D+00 EMaxC= 1.00D-01 BMatC= 7.69D-10 BMatP= 2.31D-08
 IDIUse=1 WtCom= 1.00D+00 WtEn= 0.00D+00
 Coeff-Com: -0.115D-01 0.214D+00 0.238D+00 0.559D+00
 Coeff:     -0.115D-01 0.214D+00 0.238D+00 0.559D+00
 Gap=     0.323 Goal=   None    Shift=    0.000
 RMSDP=1.18D-07 MaxDP=5.47D-06 DE=-2.20D-08 OVMax= 6.07D-06

 Cycle  10  Pass 1  IDiag  1:
 E= -272.998362739785     Delta-E=       -0.000000000569 Rises=F Damp=F
 DIIS: error= 3.30D-07 at cycle   5 NSaved=   5.
 NSaved= 5 IEnMin= 5 EnMin= -272.998362739785     IErMin= 5 ErrMin= 3.30D-07
 ErrMax= 3.30D-07  0.00D+00 EMaxC= 1.00D-01 BMatC= 4.58D-11 BMatP= 7.69D-10
 IDIUse=1 WtCom= 1.00D+00 WtEn= 0.00D+00
 Coeff-Com: -0.489D-02 0.752D-01 0.868D-01 0.266D+00 0.577D+00
 Coeff:     -0.489D-02 0.752D-01 0.868D-01 0.266D+00 0.577D+00
 Gap=     0.323 Goal=   None    Shift=    0.000
 RMSDP=3.26D-08 MaxDP=1.20D-06 DE=-5.69D-10 OVMax= 1.48D-06

 Cycle  11  Pass 1  IDiag  1:
 E= -272.998362739815     Delta-E=       -0.000000000030 Rises=F Damp=F
 DIIS: error= 1.39D-07 at cycle   6 NSaved=   6.
 NSaved= 6 IEnMin= 6 EnMin= -272.998362739815     IErMin= 6 ErrMin= 1.39D-07
 ErrMax= 1.39D-07  0.00D+00 EMaxC= 1.00D-01 BMatC= 4.57D-12 BMatP= 4.58D-11
 IDIUse=1 WtCom= 1.00D+00 WtEn= 0.00D+00
 Coeff-Com: -0.601D-03 0.513D-02 0.652D-02 0.386D-01 0.264D+00 0.686D+00
 Coeff:     -0.601D-03 0.513D-02 0.652D-02 0.386D-01 0.264D+00 0.686D+00
 Gap=     0.323 Goal=   None    Shift=    0.000
 RMSDP=9.93D-09 MaxDP=4.40D-07 DE=-3.05D-11 OVMax= 4.54D-07

 SCF Done:  E(RB3LYP) =  -272.998362740     A.U. after   11 cycles
            NFock= 11  Conv=0.99D-08     -V/T= 2.0082
 KE= 2.707712805195D+02 PE=-1.175199245943D+03 EE= 3.610934580162D+02
 Leave Link  502 at Fri Aug 26 14:37:51 2022, MaxMem= 24159191040 cpu:        96.3
 (Enter /public/home/users/caep010/software/Gaussian09/g09/l701.exe)
 Compute integral first derivatives.
 ... and contract with generalized density number  0.
 Leave Link  701 at Fri Aug 26 14:37:51 2022, MaxMem= 24159191040 cpu:        14.2
 (Enter /public/home/users/caep010/software/Gaussian09/g09/l702.exe)
 L702 exits ... SP integral derivatives will be done elsewhere.
 Leave Link  702 at Fri Aug 26 14:37:52 2022, MaxMem= 24159191040 cpu:         0.5
 (Enter /public/home/users/caep010/software/Gaussian09/g09/l703.exe)
 Compute integral first derivatives, UseDBF=F ICtDFT=           0.
 Integral derivatives from FoFJK, PRISM(SPDF).
 Calling FoFJK, ICntrl=      2127 FMM=F ISym2X=0 I1Cent= 0 IOpClX= 0 NMat=1 NMatS=1 NMatT=0.
 FoFJK:  IHMeth= 1 ICntrl=    2127 DoSepK=F KAlg= 0 I1Cent=   0 FoldK=F
 IRaf=         0 NMat=   1 IRICut=       1 DoRegI=T DoRafI=F ISym2E= 0.
 FoFCou: FMM=F IPFlag=           0 FMFlag=      100000 FMFlg1=         800
         NFxFlg=           0 DoJE=F BraDBF=F KetDBF=F FulRan=T
         wScrn=  0.000000 ICntrl=    2127 IOpCl=  0 I1Cent=           0 NGrid=           0
         NMat0=    1 NMatS0=      1 NMatT0=    0 NMatD0=    1 NMtDS0=    0 NMtDT0=    0
 Symmetry not used in FoFCou.
 Leave Link  703 at Fri Aug 26 14:37:53 2022, MaxMem= 24159191040 cpu:        55.7
 (Enter /public/home/users/caep010/software/Gaussian09/g09/l716.exe)
 Dipole        =-3.69159964D-03-3.02364517D-02 4.29413135D-01
 ***** Axes restored to original set *****
 -------------------------------------------------------------------
 Center     Atomic                   Forces (Hartrees/Bohr)
 Number     Number              X              Y              Z
 -------------------------------------------------------------------
      1        6          -0.000204982   -0.000825098   -0.003713778
      2        8           0.004482309   -0.000127845    0.001489075
      3        6          -0.004681234    0.000474382    0.001252486
      4        6           0.001379046    0.000002018   -0.001408863
      5        6           0.000562416   -0.000160763   -0.001008184
      6        6           0.000561778   -0.000361401    0.000355824
      7        1          -0.000319564    0.000579206    0.001149075
      8        1          -0.000669476   -0.000453977    0.000107551
      9        1          -0.001013108    0.000624229    0.001143987
     10        1           0.000572321    0.000066344   -0.000752502
     11        1          -0.000156456    0.000037107   -0.000123698
     12        1          -0.000539839    0.000019138    0.000322974
     13        1          -0.000813018    0.000097428    0.000111111
     14        1           0.000437278    0.000813081    0.000561132
     15        1           0.000508752    0.000367754    0.000793531
     16        1          -0.000292918   -0.000163217   -0.000177051
     17        1          -0.000289446   -0.000056833    0.000191647
     18        1           0.000476139   -0.000931554   -0.000294318
 -------------------------------------------------------------------
 Cartesian Forces:  Max     0.004681234 RMS     0.001195454
 Leave Link  716 at Fri Aug 26 14:37:53 2022, MaxMem= 24159191040 cpu:         0.5
 (Enter /public/home/users/caep010/software/Gaussian09/g09/l103.exe)

 GradGradGradGradGradGradGradGradGradGradGradGradGradGradGradGradGradGrad
 Berny optimization.
 Using GEDIIS/GDIIS optimizer.
 FormGI is forming the generalized inverse of G from B-inverse, IUseBI=4.
 Internal  Forces:  Max     0.002443210 RMS     0.000759719
 Search for a local minimum.
 Step number   2 out of a maximum of   91
 All quantities printed in internal units (Hartrees-Bohrs-Radians)
 RMS Force = .75972D-03 SwitMx=.10000D-02 MixMth= 2
 Mixed Optimization -- En-DIIS/RFO-DIIS
 Update second derivatives using D2CorX and points    1    2
 DE= -3.62D-03 DEPred=-3.72D-03 R= 9.74D-01
 TightC=F SS=  1.41D+00  RLast= 2.40D-01 DXNew= 5.0454D-01 7.2055D-01
 Trust test= 9.74D-01 RLast= 2.40D-01 DXMaxT set to 5.05D-01
 ITU=  1  0
 Use linear search instead of GDIIS.
     Eigenvalues ---    0.00230   0.00230   0.00257   0.01311   0.01483
     Eigenvalues ---    0.04379   0.05304   0.05308   0.05491   0.05529
     Eigenvalues ---    0.05544   0.05567   0.05635   0.06750   0.09669
     Eigenvalues ---    0.10578   0.15563   0.15856   0.16000   0.16000
     Eigenvalues ---    0.16000   0.16000   0.16000   0.16000   0.16000
     Eigenvalues ---    0.16000   0.16000   0.16000   0.16265   0.16812
     Eigenvalues ---    0.25751   0.27298   0.28011   0.28581   0.31965
     Eigenvalues ---    0.32417   0.32431   0.32434   0.32466   0.32481
     Eigenvalues ---    0.32521   0.32538   0.32629   0.32694   0.32697
     Eigenvalues ---    0.34062   0.41463   0.43449
 RFO step:  Lambda=-5.98648268D-04 EMin= 2.29585007D-03
 Quartic linear search produced a step of  0.03227.
 Iteration  1 RMS(Cart)=  0.04511989 RMS(Int)=  0.00128969
 Iteration  2 RMS(Cart)=  0.00136514 RMS(Int)=  0.00002694
 Iteration  3 RMS(Cart)=  0.00000099 RMS(Int)=  0.00002693
 ITry= 1 IFail=0 DXMaxC= 1.62D-01 DCOld= 1.00D+10 DXMaxT= 5.05D-01 DXLimC= 3.00D+00 Rises=F
 Variable       Old X    -DE/DX   Delta X   Delta X   Delta X     New X
                                 (Linear)    (Quad)   (Total)
    R1        2.66998  -0.00244  -0.00011  -0.00586  -0.00598   2.66400
    R2        2.07356   0.00086  -0.00068   0.00235   0.00167   2.07523
    R3        2.06895  -0.00054  -0.00087  -0.00214  -0.00301   2.06594
    R4        2.07557   0.00045  -0.00074   0.00106   0.00032   2.07589
    R5        2.70038   0.00202   0.00007   0.00507   0.00514   2.70552
    R6        2.91293  -0.00203  -0.00047  -0.00774  -0.00821   2.90472
    R7        2.90096  -0.00129  -0.00020  -0.00471  -0.00492   2.89605
    R8        2.91414  -0.00157  -0.00018  -0.00584  -0.00602   2.90811
    R9        2.06797  -0.00013  -0.00100  -0.00089  -0.00188   2.06609
   R10        2.06856  -0.00009  -0.00101  -0.00078  -0.00178   2.06678
   R11        2.06589   0.00061  -0.00112   0.00139   0.00027   2.06616
   R12        2.06488   0.00081  -0.00117   0.00200   0.00083   2.06572
   R13        2.06869  -0.00067  -0.00102  -0.00263  -0.00365   2.06504
   R14        2.06879  -0.00061  -0.00103  -0.00244  -0.00347   2.06532
   R15        2.06698   0.00006  -0.00106  -0.00034  -0.00139   2.06559
   R16        2.06748   0.00031  -0.00107   0.00044  -0.00063   2.06685
   R17        2.06946  -0.00045  -0.00085  -0.00185  -0.00270   2.06677
[...]
 H,0,2.2127067712,-0.1875257062,1.0480738633\H,0,0.167481709,-0.0388649
 957,2.0067907863\H,0,-0.2016039716,-1.6636360121,1.3952851162\H,0,-1.4
 997554924,-0.4793734636,1.6389461187\H,0,-2.2868227565,-0.738610809,-0
 .7773106732\H,0,-1.0284538752,-1.9732331316,-1.0028169089\H,0,-1.10598
 34839,-0.5828515222,-2.0963641183\H,0,-0.391918376,1.7280270678,-1.271
 8889438\H,0,-1.6157275308,1.5987129433,0.0058902117\H,0,0.0559058523,1
 .9673813515,0.4287486514\\Version=ES64L-G09RevE.01\State=1-A\MP2/GTBas
 1=-272.0145618\MP4/GTBas1=-272.1065763\CCSD(T)/G3Bas1=-272.107723\MP2/
 GTBas2=-272.0307726\MP4/GTBas2=-272.1244556\MP2/GTBas3=-272.262899\MP4
 /GTBas3=-272.3710887\HF/GTLargeXP=-271.271299\MP2/GTLargeXP=-272.65475
 1\HF/GFHFB1=-271.2929019\HF/GFHFB2=-271.2976169\G4=-272.7643728\FreqCo
 ord=4.0156730788,0.2147645906,-0.0106399543,1.8997813454,-0.8528737574
 ,-1.2210990267,-0.5623092691,-0.2353138121,-0.2599586969,-0.8737486939
 ,-1.1416109675,2.4825283535,-2.3481960582,-1.7051172996,-2.0020387485,
 -1.0838149896,2.6148397078,-0.471111249,4.035670636,2.2904618085,-0.09
 73844202,5.6775569579,-0.4860002089,-1.0191498765,4.1814098099,-0.3543
 722277,1.9805725687,0.3164945623,-0.0734441981,3.792284992,-0.38097629
 37,-3.1438164477,2.6367067469,-2.8341271469,-0.9058845615,3.0971593109
 ,-4.3214687243,-1.3957721478,-1.4689042924,-1.9434961644,-3.7288702152
 ,-1.8950493192,-2.0900058921,-1.101429753,-3.9615540585,-0.740618397,3
 .2654979083,-2.4035217752,-3.0532825385,3.021129628,0.0111308869,0.105
 6467501,3.7178119532,0.810217531\PG=C01 [X(C5H12O1)]\NImag=0\\0.521021
 01,-0.04326733,0.54562315,-0.05296711,-0.00446026,0.54961974,-0.169029
 99,-0.05432486,-0.06157264,0.47533934,-0.03489793,-0.09857658,-0.04556
 798,0.04188896,0.17956691,-0.03679558,-0.04418771,-0.11457952,0.026762
 96,0.09951086,0.22401525,-0.04616109,-0.00082965,0.00181287,-0.1464696
 5,0.01201484,0.02127016,0.45071340,-0.01279857,0.00141155,0.00996158,0
 .03003038,-0.08115845,-0.02681288,0.02018033,0.49344204,-0.01343757,0.
 00911512,0.00687405,0.04424670,-0.02554646,-0.09745415,0.02811013,0.00
 928739,0.49486402,0.00293179,0.00146859,0.00501771,-0.02377101,-0.0065
 0339,0.04068518,-0.07409290,-0.00236259,-0.00470379,0.57199527,0.00024
 650,-0.00044549,0.00048432,0.00274533,0.00413689,-0.00751195,-0.003329
 37,-0.08941391,0.03074255,-0.00849170,0.56544323,0.00182361,-0.0006435
 8,0.00190746,0.01421014,0.00165680,-0.01511507,0.00072394,0.02979616,-
 0.15769147,0.01625558,0.03856393,0.46867554,-0.00408953,0.00165979,0.0
 0238865,-0.05031136,-0.01854580,-0.01984949,-0.10100529,-0.02873929,-0
 .03491170,0.00340784,0.00100204,-0.00395685,0.54250588,0.00187477,-0.0
 0057739,-0.00040882,0.00324754,0.00496893,0.00306314,-0.03559344,-0.10
 592369,-0.03307823,0.00594566,0.00561146,0.00413494,-0.03705817,0.5492
 3877,0.00264818,-0.00039163,-0.00105320,0.00787788,0.00461087,0.007688
 64,-0.04361410,-0.03355649,-0.11747692,-0.02105058,-0.01620844,-0.0289
 9023,-0.04445381,-0.03634878,0.53682049,0.00266622,0.00463023,0.002440
 85,-0.02683087,0.03940567,0.00492526,-0.07480540,0.00304334,-0.0044092
 7,0.00446916,-0.00235896,-0.00231582,0.00519965,-0.02106361,0.00083663
 ,0.56845484,0.00176262,0.00224855,-0.00001128,0.01202885,-0.00904779,-
 0.00284531,0.00849587,-0.16743494,0.01022983,0.00013828,-0.01657854,0.
 00698853,-0.00220870,-0.02598637,-0.00288720,0.02617410,0.45934448,0.0
 0042752,0.00082000,-0.00051761,0.00835463,-0.01329582,0.00110978,-0.00
 414692,0.01149227,-0.07893156,-0.00585283,0.03502312,-0.00602939,0.001
 43357,-0.02223722,0.00083859,-0.00479198,0.01056680,0.57826129,-0.0514
 4408,0.01410973,0.00060983,-0.00992539,-0.03564368,-0.00538450,0.00480
 177,-0.00340657,-0.00070739,-0.00063621,0.00018912,0.00001369,-0.00025
 273,0.00028972,0.00012103,-0.00056048,0.00076711,-0.00002899,0.0567553
 3,0.00965306,-0.28996156,0.01824906,-0.01623875,-0.01338843,-0.0076446
 1,0.00485488,-0.00100435,-0.00183322,-0.00061563,0.00009853,0.00001958
 ,-0.00037573,0.00018903,0.00019465,-0.00010476,-0.00044602,-0.00048438
 ,-0.00265939,0.32253220,-0.00075742,0.01968566,-0.05349258,-0.00620868
 ,-0.02163121,0.00096336,0.00213868,0.00029508,-0.00025029,-0.00017362,
 0.00014612,-0.00010486,0.00000919,-0.00004634,0.00012249,-0.00015881,0
 .00037466,0.00081541,0.00557352,-0.01314339,0.05192256,-0.20356699,0.0
 7253296,0.10312219,-0.03815660,0.00462594,0.00867560,0.00115959,-0.002
 90104,-0.00380798,-0.00010153,0.00014865,-0.00048480,-0.00123580,0.000
 48838,0.00072386,-0.00007163,-0.00050306,0.00007378,0.00081756,0.00152
 381,0.00134179,0.23860458,0.07970158,-0.08365443,-0.04900837,-0.017631
 16,0.00585599,0.00700216,-0.00162155,-0.00130538,-0.00114205,-0.000200
 97,0.00018193,-0.00017642,-0.00056011,0.00033676,0.00019134,-0.0000915
 6,-0.00037558,-0.00054943,0.02461890,-0.01039550,-0.01710499,-0.076086
 25,0.08466901,0.11224431,-0.04850236,-0.11915549,-0.01966806,0.0054338
 9,0.00963153,-0.00216516,-0.00104946,-0.00150856,-0.00012840,-0.000433
 41,-0.00051392,-0.00061037,0.00011740,0.00041028,-0.00020095,-0.000289
 36,0.00001251,-0.00277422,0.00221728,0.00192179,-0.11031762,0.05381837
 ,0.12281431,-0.05107239,0.00269885,-0.00268991,-0.01271029,0.00178024,
 -0.03503997,0.00479154,0.00036665,-0.00383782,-0.00050500,-0.00030555,
 0.00070011,-0.00026068,0.00003259,0.00033894,-0.00065260,-0.00006960,0
 .00022345,0.00191886,0.00271638,-0.00169573,0.00267228,-0.00837176,0.0
 2329336,0.05712146,0.00251121,-0.07547701,0.07233302,-0.00438496,0.006
 83766,-0.01893764,0.00127184,0.00015565,0.00024803,-0.00018231,0.00074
 482,0.00072900,0.00007102,0.00010059,-0.00005325,-0.00005198,-0.000138
 06,0.00010388,0.00015402,-0.00922964,0.03135093,0.00008384,0.00411177,
 -0.01187915,0.00095705,0.07359868,-0.00724818,0.07056649,-0.26838997,-
 0.01736269,-0.00401755,-0.01648975,0.00498767,-0.00123655,-0.00139817,
 -0.00011409,-0.00018455,-0.00043096,-0.00034675,0.00014445,0.00022041,
 -0.00059271,-0.00007591,0.00014841,0.00198299,0.00113323,-0.00140648,0
 .00054548,0.00641474,-0.01443517,0.01683298,-0.07355409,0.30054944,-0.
 00123914,-0.00005069,0.00051079,0.00024580,0.00000079,-0.00097669,0.00
 182793,0.00274235,0.00259989,-0.13418787,-0.07985081,-0.09573249,0.000
 39035,0.00034187,0.00024641,-0.00015238,0.00001063,-0.00002522,0.00008
 180,0.00006500,-0.00011818,0.00009550,0.00007213,0.00015516,-0.0017846
 9,-0.00012677,0.00133154,0.14632344,-0.00157315,0.00034385,-0.00124774
 ,0.00090598,0.00023645,-0.00083199,0.00770750,0.00483143,0.00651075,-0
 .08008126,-0.12033298,-0.08595364,-0.00012166,-0.00039015,0.00188582,0
 .00070181,0.00108441,0.00027130,-0.00000795,-0.00010297,0.00018591,0.0
 0008439,-0.00011495,0.00036247,0.00002353,-0.00012859,0.00084607,0.089
 00422,0.12686249,-0.00053835,0.00000100,-0.00079646,0.00072995,0.00043
 103,0.00196355,-0.02147344,-0.01777610,-0.01844129,-0.09469321,-0.0846
 7153,-0.14848469,0.00226766,0.00339874,-0.00558441,0.00005061,-0.00175
 205,0.00112585,0.00011435,0.00015695,0.00002667,0.00016442,0.00001021,
 0.00053127,0.00133374,-0.00026641,0.00054021,0.10523098,0.09315955,0.1
 6215278,-0.00015774,-0.00031019,-0.00000511,0.00076296,-0.00032231,-0.
 00062641,-0.00081372,-0.00394378,0.00098961,-0.06196786,0.06155334,-0.
 00544734,-0.00026938,0.00055263,-0.00000920,0.00000628,-0.00045386,0.0
 0067658,0.00006452,0.00012965,-0.00007196,0.00000243,0.00004000,-0.000
 00868,0.00002467,-0.00002499,-0.00011094,0.00472136,-0.01930603,0.0019
 4038,0.06264885,-0.00023660,-0.00024131,0.00034947,-0.00048490,0.00178
 014,-0.00092548,0.00332064,-0.01216650,0.00001035,0.06120297,-0.294499
 86,0.01581495,-0.00024276,0.00034266,-0.00082743,-0.00074670,0.0007424
 0,0.00302047,0.00008601,0.00017054,-0.00016641,-0.00006113,0.00003158,
 -0.00000278,-0.00011910,-0.00026252,-0.00016336,0.00459890,-0.01499732
 ,0.00137297,-0.06765773,0.32035705,0.00063913,0.00027578,0.00032901,-0
 .00140925,-0.00197541,0.00290288,-0.00903601,0.03191712,-0.00248663,-0
 .00430531,0.01387722,-0.04776635,0.00038835,0.00118801,0.00162786,0.00
 126504,0.00072141,-0.00638484,-0.00014595,-0.00009644,-0.00012340,0.00
 002923,0.00001303,0.00003075,0.00004178,0.00009596,-0.00019632,0.00611
 543,-0.01902676,0.00120202,0.00528203,-0.01861611,0.05133964,0.0005660
 7,0.00056840,0.00003512,0.00069567,-0.00107983,0.00074484,-0.00452126,
 0.00131354,-0.00085644,-0.28467760,0.02940054,0.07357403,-0.00021611,0
 .00006411,-0.00074028,-0.00022561,0.00023748,-0.00019942,-0.00006580,-
 0.00010634,0.00001779,-0.00000055,-0.00003742,0.00017713,0.00036444,-0
 .00007189,0.00013706,-0.01737709,0.00272055,0.00547567,-0.00619154,-0.
 00006325,0.00137156,0.30976570,0.00015233,0.00032677,0.00021835,-0.001
 27307,0.00078844,0.00202620,-0.00974692,-0.00026561,0.00122951,0.02975
 420,-0.04963908,-0.00798178,0.00012126,0.00011612,-0.00046696,0.000092
 99,-0.00009936,-0.00025112,-0.00001404,0.00000198,-0.00005318,0.000008
 72,-0.00000920,0.00010622,0.00013224,-0.00029608,-0.00005015,-0.016908
 58,0.00155733,0.00561627,0.03008088,-0.00210244,-0.00928039,-0.0325344
 8,0.04975290,-0.00289208,-0.00091148,-0.00199206,0.00494273,0.00245325
 ,-0.00803302,0.02870278,-0.00568224,-0.00474267,0.07159245,-0.00743762
 ,-0.06751184,0.00067401,-0.00044125,0.00097544,-0.00024843,-0.00029733
 ,0.00086011,0.00024273,0.00023096,0.00019762,0.00024955,0.00001785,0.0
 0033442,0.00005570,-0.00022024,0.00099426,-0.01954452,0.00310374,0.006
 01693,-0.00251269,-0.00010998,-0.00020244,-0.07960963,0.00876519,0.073
 40579,0.00038060,0.00066970,0.00088598,-0.00481903,-0.00311640,-0.0035
 8903,-0.01606842,0.00636319,0.00906331,0.00004697,0.00039904,0.0009803
 6,-0.28581840,0.03735261,0.06444807,0.00005049,0.00087028,0.00060661,-
 0.00023789,-0.00025392,-0.00010600,-0.00032084,-0.00014535,-0.00016174
 ,-0.00023659,-0.00005369,-0.00025347,0.00044878,-0.00011542,-0.0000771
 4,0.00000580,-0.00008511,-0.00003006,0.00072070,-0.00003497,-0.0007683
 8,0.31235351,-0.00074503,0.00090616,0.00020837,-0.00350824,-0.00135142
 ,-0.00213469,-0.01373755,0.00194329,0.00647112,0.00034682,0.00009763,0
 .00042798,0.03978086,-0.05364663,-0.01189414,-0.00016875,0.00024880,0.
 00038298,0.00010380,-0.00001742,0.00005799,-0.00029137,-0.00011115,-0.
 00013233,-0.00010037,-0.00002893,-0.00009911,-0.00000374,-0.00012498,0
 .00017063,0.00013882,0.00004079,-0.00006409,0.00002377,0.00032471,-0.0
 0005840,-0.04197787,0.05443102,-0.00091814,0.00010570,0.00098739,-0.00
 408022,-0.00215942,-0.00193824,-0.01649558,0.00504585,0.00520477,-0.00
 009801,0.00030649,0.00038533,0.06753576,-0.01172222,-0.06619425,0.0002
 9491,0.00042674,0.00023332,-0.00005815,-0.00008551,-0.00002629,-0.0003
 4690,-0.00014237,-0.00014775,0.00009511,0.00006648,-0.00001446,0.00023
 786,0.00001132,0.00025930,-0.00008883,0.00001805,-0.00007571,-0.000222
 74,-0.00015302,-0.00065635,-0.07225098,0.01373747,0.06855050,0.0000074
 9,0.00000535,-0.00005316,0.00181015,0.00051165,0.00013658,0.00286503,-
 0.02091955,0.00139407,0.00037636,-0.00004514,0.00106980,-0.05714736,0.
 05486164,-0.00314112,-0.00279980,-0.00133119,-0.00224841,0.00015542,0.
 00010915,0.00004632,0.00002243,0.00001671,0.00001579,0.00007092,0.0000
 0215,0.00006305,-0.00010370,-0.00000628,0.00021890,0.00023836,0.000241
 52,-0.00023953,0.00000300,0.00018323,-0.00005158,-0.00496124,0.0301328
 3,-0.00271790,0.05856595,-0.00025214,0.00022930,0.00005431,0.00102784,
 0.00195540,0.00054491,0.00465083,-0.01883771,0.00140510,0.00053420,0.0
 0051921,0.00118330,0.05233874,-0.29937716,0.01563659,-0.00324808,-0.00
 049499,-0.00304125,0.00022808,0.00021769,0.00006021,-0.00007670,0.0000
 0738,-0.00003295,0.00001123,-0.00000591,-0.00000004,-0.00015854,0.0003
 7191,0.00006809,-0.00012299,0.00070858,-0.00073495,-0.00007794,-0.0000
 0912,-0.00004697,0.00024057,-0.00299268,0.00048411,-0.05748130,0.32674
 919,0.00010700,-0.00000408,-0.00004020,0.00149328,0.00103598,0.0003940
 1,0.00475278,-0.02098434,-0.00014583,0.00076149,-0.00083588,0.00125926
 ,-0.00383827,0.01756863,-0.04788441,-0.00276219,-0.00146915,-0.0024617
 3,0.00008293,0.00005385,-0.00001375,0.00001090,0.00004170,-0.00000280,
 -0.00001239,-0.00001155,-0.00002533,0.00002927,0.00031086,0.00022514,-
 0.00033517,0.00026192,-0.00039582,0.00003474,-0.00005505,-0.00010749,0
 .00137959,-0.00887229,-0.00041009,0.00561177,-0.01569172,0.04986871,-0
 .00001141,-0.00005089,0.00001023,0.00181815,0.00013364,0.00050900,0.00
 137952,0.00654713,-0.02017061,-0.00281538,-0.00214570,-0.00163615,-0.0
 5067263,-0.01086028,0.03511141,0.00031183,0.00106343,0.00027149,0.0000
 6885,0.00006690,0.00001393,0.00001675,0.00001085,0.00001684,0.00017095
 ,0.00003239,0.00012028,0.00036225,0.00014431,-0.00137789,-0.00004223,-
 0.00012810,0.00022234,0.00028944,-0.00011596,-0.00019050,-0.00275538,-
 0.00998104,0.02902452,0.00026353,0.00208699,-0.00692743,0.05145171,0.0
 0016198,-0.00002906,-0.00007753,0.00135414,0.00021149,0.00055756,0.002
 53097,0.00395098,-0.01716226,-0.00210174,-0.00159524,-0.00167926,-0.01
 083307,-0.07131173,0.07707060,0.00051780,0.00125107,-0.00069956,-0.000
 00923,-0.00001799,-0.00001369,0.00003234,-0.00000136,0.00003853,0.0000
 3964,-0.00002304,0.00000078,-0.00020236,0.00076150,-0.00103039,-0.0002
 3214,0.00026261,-0.00028178,-0.00009109,-0.00019312,0.00015857,0.00057
 438,0.00075073,-0.00587697,-0.00499516,-0.00850437,0.03007969,0.013397
 93,0.07467154,-0.00020579,-0.00002174,0.00023778,0.00136227,0.00018916
 ,0.00212804,0.00387083,0.00675057,-0.02144805,-0.00350565,-0.00338551,
 -0.00134680,0.03263676,0.07496216,-0.28243348,0.00062193,0.00132247,0.
 00059120,0.00000428,-0.00000668,-0.00001061,-0.00006974,-0.00004121,0.
 00001167,0.00024395,0.00001590,0.00021151,0.00004492,0.00047034,-0.001
 40050,0.00002926,0.00004329,0.00024050,0.00001761,-0.00004133,0.000452
 85,0.00034219,0.00210859,-0.00635876,0.00032027,-0.00000269,-0.0008961
 9,-0.03541280,-0.08133572,0.30907493,-0.00023236,0.00006434,-0.0003170
 0,0.00083945,-0.00074153,-0.00033412,-0.00060485,0.00259445,-0.0060274
 5,-0.00020978,0.00128403,-0.00012948,-0.00025976,-0.00028989,0.0004731
 9,-0.05412905,-0.01498316,0.04159618,0.00001763,-0.00009449,-0.0000739
 4,-0.00000009,-0.00001935,0.00003754,0.00009191,-0.00010312,0.00011917
 ,0.00008593,0.00000218,0.00034818,0.00061985,0.00028625,-0.00027893,0.
 00025739,0.00012281,-0.00028561,0.00001537,-0.00011460,0.00012094,-0.0
 0007784,0.00006036,-0.00018361,0.00027923,-0.00025917,-0.00011761,0.05
 405206,0.00066778,0.00020350,0.00031356,-0.00152241,0.00336625,-0.0015
 0613,-0.00709658,-0.01076737,0.03248495,0.00180449,-0.00666406,-0.0012
 2097,0.00039330,0.00148920,0.00147395,-0.01389742,-0.07060517,0.073111
 18,0.00008851,-0.00018542,0.00010578,0.00004134,0.00003012,0.00001238,
 -0.00016080,-0.00006489,-0.00013296,0.00020335,0.00012415,-0.00002497,
 -0.00012523,-0.00072660,0.00222360,-0.00014711,0.00013012,-0.00028878,
 -0.00000930,-0.00006788,-0.00007963,0.00020533,0.00031748,-0.00029941,
 -0.00030638,-0.00026776,-0.00095772,0.01539881,0.07734824,-0.00010379,
 0.00043268,-0.00004516,-0.00074512,-0.00052672,0.00124210,0.00087449,0
 .00039938,-0.00410075,-0.00043492,0.00109148,0.00123736,-0.00006429,-0
 .00054696,0.00047550,0.04138793,0.07510473,-0.27951455,-0.00010989,-0.
 00014464,-0.00026464,-0.00005027,-0.00000541,0.00003449,0.00006450,-0.
 00020883,0.00008443,0.00013886,-0.00018994,0.00030283,0.00015480,0.000
 24151,-0.00012788,-0.00000017,-0.00020702,0.00009392,-0.00008869,-0.00
 000538,0.00002206,-0.00006042,0.00004262,0.00022154,0.00018897,0.00005
 834,0.00053388,-0.04563871,-0.08298974,0.30296744,0.00076521,0.0000549
 9,0.00061751,0.00018349,0.00157499,-0.00082410,-0.00656450,-0.00133429
 ,0.00179509,-0.00017176,-0.00032724,0.00018702,-0.00019248,-0.00083448
 ,-0.00008937,-0.28653219,0.04832028,0.05924794,0.00035848,0.00011905,-
 0.00007843,-0.00002501,0.00016832,0.00000237,-0.00008789,0.00002550,-0
 .00010985,-0.00005392,0.00007402,0.00008780,0.00027172,0.00002851,-0.0
 0013814,0.00066150,0.00009844,-0.00028186,0.00076766,-0.00015049,-0.00
 003980,0.00028193,0.00003739,-0.00012702,0.00001124,0.00005412,-0.0000
 6601,-0.00397530,0.00048573,0.00019185,0.31178161,-0.00274406,-0.00189
 531,-0.00121495,0.00571451,-0.00810961,-0.00017317,0.02957425,-0.00149
 059,-0.00800914,-0.00034112,0.00089251,-0.00001799,0.00052046,0.001124
 62,-0.00023008,0.04634559,-0.05534544,-0.01005128,-0.00001377,0.000992
 75,0.00008776,0.00022401,0.00031464,0.00007799,0.00023717,0.00016421,0
 .00024620,-0.00004079,-0.00006532,0.00004564,-0.00031637,0.00019060,-0
 .00026263,-0.00018859,-0.00035706,0.00071860,-0.00066027,-0.00061300,-
 0.00023580,-0.00014854,0.00038155,0.00030124,-0.00009067,-0.00008109,-
 0.00006275,-0.00992761,0.00123413,0.00140018,-0.05193242,0.05968464,-0
 .00054740,-0.00031099,0.00003532,-0.00000479,-0.00031582,0.00137444,-0
 .00251103,0.00033497,-0.00147032,0.00003400,0.00001804,-0.00018259,0.0
 0029844,-0.00015383,-0.00005511,0.05916766,-0.01071383,-0.05995440,0.0
 0008960,0.00026124,-0.00028795,0.00005814,0.00017245,0.00003485,0.0000
 5201,-0.00001614,0.00005674,-0.00013587,0.00005995,0.00000359,0.000050
 82,-0.00018621,0.00001934,-0.00004456,0.00049534,-0.00004752,-0.000217
 89,-0.00037096,0.00023503,-0.00018649,0.00008609,-0.00011470,0.0001677
 8,-0.00006343,-0.00004287,0.02915490,-0.00637951,-0.00575234,-0.065215
 01,0.01257631,0.06145196,-0.00133367,0.00037067,0.00015321,0.00032918,
 -0.00108583,-0.00028966,0.00356829,0.00322431,0.00467121,-0.00009051,-
 0.00011412,0.00016466,0.00022779,0.00064836,0.00027285,-0.13439849,-0.
 08031938,-0.09561798,-0.00191765,0.00121114,0.00030153,0.00008793,0.00
 013697,0.00009271,0.00008311,-0.00010931,0.00001847,0.00031565,-0.0001
 5675,0.00019740,0.00007566,0.00006059,0.00022829,-0.00004834,-0.000119
 09,-0.00007465,0.00042788,0.00025215,0.00000814,0.00042935,0.00020147,
 -0.00007767,-0.00012643,0.00006066,-0.00011667,0.00323021,0.00397659,0
 .00429486,-0.01747977,-0.01621178,-0.02021031,0.14661979,-0.00021700,-
 0.00043470,-0.00017511,0.00042481,0.00192772,0.00080674,-0.02264691,-0
 .01596645,-0.02096335,-0.00031450,0.00144293,-0.00164150,0.00279782,-0
 .00630502,0.00180057,-0.07917970,-0.11836747,-0.08418194,0.00111961,0.
 00054658,-0.00019088,0.00012516,0.00042836,0.00013729,0.00013159,-0.00
 005872,0.00016231,0.00030304,0.00008374,0.00109040,0.00032030,0.000369
 59,0.00002644,0.00006956,-0.00002730,0.00004612,-0.00001748,0.00021097
 ,0.00025272,-0.00134240,-0.00123575,-0.00143039,0.00019546,0.00016484,
 -0.00000714,0.00671969,0.00510595,0.00605370,0.00353759,0.00297777,0.0
 0450633,0.08797336,0.12913695,-0.00147834,-0.00156861,0.00007151,0.001
 07091,-0.00028548,0.00019617,0.00219792,0.00181771,0.00060381,0.000713
 99,0.00041562,0.00070321,0.00039914,0.00040619,0.00049230,-0.09551066,
 -0.08539372,-0.15020239,0.00037413,0.00092207,0.00001095,0.00008238,0.
 00048840,-0.00000419,0.00000021,0.00020413,-0.00001879,-0.00010813,0.0
 0007199,0.00035720,0.00009283,-0.00013521,0.00006739,0.00008770,0.0000
 8293,-0.00003796,-0.00016272,0.00006627,-0.00005580,-0.00017794,-0.000
 01478,0.00052968,0.00005860,0.00025653,0.00045491,-0.01846364,-0.01584
 559,-0.01741024,0.00484002,0.00480387,0.00469655,0.10598361,0.09370769
 ,0.15954571\\0.00005224,0.00000409,0.00001481,-0.00007100,0.00001571,-
 0.00000779,0.00006162,-0.00002963,-0.00001326,-0.00001277,0.00000048,0
 .00000920,-0.00000309,-0.00000546,0.00000569,-0.00001335,0.00002373,-0
 .00000038,-0.00000417,-0.00000687,-0.00000250,-0.00001720,-0.00000888,
 -0.00000726,-0.00000986,0.00000242,-0.00000763,0.00000061,-0.00000201,
 -0.00000693,0.00000105,-0.00000036,0.00000296,0.00000455,0.00000020,0.
 00000121,0.00000493,0.00000572,0.00000365,-0.00000094,0.00000363,0.000
 00202,-0.00000201,0.00000247,0.00000532,0.00000143,-0.00000230,0.00000
 174,0.00000583,0.00000261,0.00000183,0.00000211,-0.00000556,-0.0000026
 8\\\@
 Job cpu time:       0 days  4 hours 50 minutes 16.2 seconds.
 File lengths (MBytes):  RWF=   7023 Int=      0 D2E=      0 Chk=     46 Scr=      1
 Normal termination of Gaussian 09 at Fri Aug 26 15:04:08 2022.
