 Entering Gaussian System, Link 0=g09
 Input=G4.Frag_1088.gjf
 Output=G4.Frag_1088.log
 Initial command:
 /public/home/users/caep010/software/Gaussian09/g09/l1.exe "/public/home/users/caep010/.cache/gau_scr/Gau-92852.inp" -scrdir="/public/home/users/caep010/.cache/gau_scr/"
 Entering Link 1 = /public/home/users/caep010/software/Gaussian09/g09/l1.exe PID=     92853.
  
 Copyright (c) 1988,1990,1992,1993,1995,1998,2003,2009,2015,
            Gaussian, Inc.  All Rights Reserved.
  
 This is part of the Gaussian(R) 09 program.  It is based on
 the Gaussian(R) 03 system (copyright 2003, Gaussian, Inc.),
 the Gaussian(R) 98 system (copyright 1998, Gaussian, Inc.),
 the Gaussian(R) 94 system (copyright 1995, Gaussian, Inc.),
 the Gaussian 92(TM) system (copyright 1992, Gaussian, Inc.),
 the Gaussian 90(TM) system (copyright 1990, Gaussian, Inc.),
 the Gaussian 88(TM) system (copyright 1988, Gaussian, Inc.),
 the Gaussian 86(TM) system (copyright 1986, Carnegie Mellon
 University), and the Gaussian 82(TM) system (copyright 1983,
 Carnegie Mellon University). Gaussian is a federally registered
 trademark of Gaussian, Inc.
  
 This software contains proprietary and confidential information,
 including trade secrets, belonging to Gaussian, Inc.
  
 This software is provided under written license and may be
 used, copied, transmitted, or stored only in accord with that
 written license.
  
 The following legend is applicable only to US Government
 contracts under FAR:
  
                    RESTRICTED RIGHTS LEGEND
  
 Use, reproduction and disclosure by the US Government is
 subject to restrictions as set forth in subparagraphs (a)
 and (c) of the Commercial Computer Software - Restricted
 Rights clause in FAR 52.227-19.
  
 Gaussian, Inc.
 340 Quinnipiac St., Bldg. 40, Wallingford CT 06492
  
  
 ---------------------------------------------------------------
 Warning -- This program may not be used in any manner that
 competes with the business of Gaussian, Inc. or will provide
 assistance to any competitor of Gaussian, Inc.  The licensee
 of this program is prohibited from giving any competitor of
 Gaussian, Inc. access to this program.  By using this program,
 the user acknowledges that Gaussian, Inc. is engaged in the
 business of creating and licensing software in the field of
 computational chemistry and represents and warrants to the
 licensee that it is not a competitor of Gaussian, Inc. and that
 it will not use this program in any manner prohibited above.
 ---------------------------------------------------------------
  

 Cite this work as:
 Gaussian 09, Revision E.01,
 M. J. Frisch, G. W. Trucks, H. B. Schlegel, G. E. Scuseria, 
 M. A. Robb, J. R. Cheeseman, G. Scalmani, V. Barone, B. Mennucci, 
 G. A. Petersson, H. Nakatsuji, M. Caricato, X. Li, H. P. Hratchian, 
 A. F. Izmaylov, J. Bloino, G. Zheng, J. L. Sonnenberg, M. Hada, 
 M. Ehara, K. Toyota, R. Fukuda, J. Hasegawa, M. Ishida, T. Nakajima, 
 Y. Honda, O. Kitao, H. Nakai, T. Vreven, J. A. Montgomery, Jr., 
 J. E. Peralta, F. Ogliaro, M. Bearpark, J. J. Heyd, E. Brothers, 
 K. N. Kudin, V. N. Staroverov, T. Keith, R. Kobayashi, J. Normand, 
 K. Raghavachari, A. Rendell, J. C. Burant, S. S. Iyengar, J. Tomasi, 
 M. Cossi, N. Rega, J. M. Millam, M. Klene, J. E. Knox, J. B. Cross, 
 V. Bakken, C. Adamo, J. Jaramillo, R. Gomperts, R. E. Stratmann, 
 O. Yazyev, A. J. Austin, R. Cammi, C. Pomelli, J. W. Ochterski, 
 R. L. Martin, K. Morokuma, V. G. Zakrzewski, G. A. Voth, 
 P. Salvador, J. J. Dannenberg, S. Dapprich, A. D. Daniels, 
 O. Farkas, J. B. Foresman, J. V. Ortiz, J. Cioslowski, 
 and D. J. Fox, Gaussian, Inc., Wallingford CT, 2013.
 
 ******************************************
 Gaussian 09:  ES64L-G09RevE.01 30-Nov-2015
                26-Aug-2022 
 ******************************************
 %nproc=32
 Will use up to   32 processors via shared memory.
 %mem=180GB
 %chk=G4.Frag_1088.chk
 -----
 #P G4
 -----
 1/14=-1,18=20,19=15,26=3,38=1/1,3;
 2/9=110,12=2,17=6,18=5,40=1/2;
 3/5=35,7=104,11=2,16=1,25=1,30=1,71=1,74=-5/1,2,3;
 4//1;
 5/5=2,38=5/2;
 6/7=2,8=2,9=2,10=2,28=1/1;
 7//1,2,3,16;
 1/14=-1,18=20,19=15,26=3/3(2);
 2/9=110/2;
 99//99;
 2/9=110/2;
 3/5=35,7=104,11=2,16=1,25=1,30=1,71=1,74=-5/1,2,3;
 4/5=5,16=3,69=1/1;
 5/5=2,38=5/2;
 7//1,2,3,16;
 1/14=-1,18=20,19=15,26=3/3(-5);
 2/9=110/2;
 6/7=2,8=2,9=2,10=2,19=2,28=1/1;
 99/9=1/99;
 Leave Link    1 at Fri Aug 26 10:13:27 2022, MaxMem= 24159191040 cpu:         2.2
 (Enter /public/home/users/caep010/software/Gaussian09/g09/l101.exe)
 ---------
 Frag_1088
 ---------
 Symbolic Z-matrix:
 Charge =  0 Multiplicity = 1
 C                     2.039    -0.2347    0.192 
 N                     1.0568    0.5866    0.0572 
 C                    -0.3356    0.1973    0.2024 
 N                    -1.1645    1.4041    0.1545 
 N                    -0.7262   -0.7136   -0.8837 
 O                    -0.5125   -0.4341    1.4479 
 H                     1.8724   -1.2805    0.4338 
 H                     3.0558    0.1211    0.0691 
 H                    -1.0109    1.8838   -0.7628 
 H                    -2.1723    1.1244    0.1831 
 H                    -0.2035   -1.6138   -0.7837 
 H                    -0.4448   -0.2926   -1.7994 
 H                    -1.4537   -0.7481    1.4897 
 
 Add atom      1 valence  3 ND=      2 dihedral       2      1      7      8
 NAtoms=     13 NQM=       13 NQMF=       0 NMMI=      0 NMMIF=      0
                NMic=       0 NMicF=      0.
                    Isotopes and Nuclear Properties:
 (Nuclear quadrupole moments (NQMom) in fm**2, nuclear magnetic moments (NMagM)
  in nuclear magnetons)

  Atom         1           2           3           4           5           6           7           8           9          10
 IAtWgt=          12          14          12          14          14          16           1           1           1           1
 AtmWgt=  12.0000000  14.0030740  12.0000000  14.0030740  14.0030740  15.9949146   1.0078250   1.0078250   1.0078250   1.0078250
 NucSpn=           0           2           0           2           2           0           1           1           1           1
 AtZEff=   0.0000000   0.0000000   0.0000000   0.0000000   0.0000000   0.0000000   0.0000000   0.0000000   0.0000000   0.0000000
 NQMom=    0.0000000   2.0440000   0.0000000   2.0440000   2.0440000   0.0000000   0.0000000   0.0000000   0.0000000   0.0000000
 NMagM=    0.0000000   0.4037610   0.0000000   0.4037610   0.4037610   0.0000000   2.7928460   2.7928460   2.7928460   2.7928460
 AtZNuc=   6.0000000   7.0000000   6.0000000   7.0000000   7.0000000   8.0000000   1.0000000   1.0000000   1.0000000   1.0000000

  Atom        11          12          13
 IAtWgt=           1           1           1
 AtmWgt=   1.0078250   1.0078250   1.0078250
 NucSpn=           1           1           1
 AtZEff=   0.0000000   0.0000000   0.0000000
 NQMom=    0.0000000   0.0000000   0.0000000
 NMagM=    2.7928460   2.7928460   2.7928460
 AtZNuc=   1.0000000   1.0000000   1.0000000
 Leave Link  101 at Fri Aug 26 10:13:27 2022, MaxMem= 24159191040 cpu:        10.7
 (Enter /public/home/users/caep010/software/Gaussian09/g09/l103.exe)

 GradGradGradGradGradGradGradGradGradGradGradGradGradGradGradGradGradGrad
 Berny optimization.
 Initialization pass.
                           ----------------------------
                           !    Initial Parameters    !
                           ! (Angstroms and Degrees)  !
 --------------------------                            --------------------------
 ! Name  Definition              Value          Derivative Info.                !
 --------------------------------------------------------------------------------
 ! R1    R(1,2)                  1.2874         estimate D2E/DX2                !
 ! R2    R(1,7)                  1.0862         estimate D2E/DX2                !
 ! R3    R(1,8)                  1.0842         estimate D2E/DX2                !
 ! R4    R(2,3)                  1.4531         estimate D2E/DX2                !
 ! R5    R(3,4)                  1.4648         estimate D2E/DX2                !
 ! R6    R(3,5)                  1.4703         estimate D2E/DX2                !
 ! R7    R(3,6)                  1.4076         estimate D2E/DX2                !
 ! R8    R(4,9)                  1.0465         estimate D2E/DX2                !
 ! R9    R(4,10)                 1.0463         estimate D2E/DX2                !
 ! R10   R(5,11)                 1.0457         estimate D2E/DX2                !
 ! R11   R(5,12)                 1.0464         estimate D2E/DX2                !
 ! R12   R(6,13)                 0.9931         estimate D2E/DX2                !
 ! A1    A(2,1,7)              121.3653         estimate D2E/DX2                !
 ! A2    A(2,1,8)              119.6208         estimate D2E/DX2                !
 ! A3    A(7,1,8)              119.0127         estimate D2E/DX2                !
 ! A4    A(1,2,3)              123.346          estimate D2E/DX2                !
 ! A5    A(2,3,4)              108.5572         estimate D2E/DX2                !
 ! A6    A(2,3,5)              110.2871         estimate D2E/DX2                !
 ! A7    A(2,3,6)              109.2101         estimate D2E/DX2                !
 ! A8    A(4,3,5)              109.6277         estimate D2E/DX2                !
 ! A9    A(4,3,6)              109.1097         estimate D2E/DX2                !
 ! A10   A(5,3,6)              110.0192         estimate D2E/DX2                !
 ! A11   A(3,4,9)              108.8596         estimate D2E/DX2                !
 ! A12   A(3,4,10)             108.9003         estimate D2E/DX2                !
 ! A13   A(9,4,10)             106.7309         estimate D2E/DX2                !
 ! A14   A(3,5,11)             109.2611         estimate D2E/DX2                !
 ! A15   A(3,5,12)             109.0092         estimate D2E/DX2                !
 ! A16   A(11,5,12)            107.1938         estimate D2E/DX2                !
 ! A17   A(3,6,13)             107.3491         estimate D2E/DX2                !
 ! D1    D(7,1,2,3)             -0.4906         estimate D2E/DX2                !
 ! D2    D(8,1,2,3)            179.9176         estimate D2E/DX2                !
 ! D3    D(2,1,7,8)           -179.5942         estimate D2E/DX2                !
 ! D4    D(1,2,3,4)            172.8481         estimate D2E/DX2                !
 ! D5    D(1,2,3,5)            -67.0288         estimate D2E/DX2                !
 ! D6    D(1,2,3,6)             53.9885         estimate D2E/DX2                !
 ! D7    D(2,3,4,9)             59.6035         estimate D2E/DX2                !
 ! D8    D(2,3,4,10)           175.6117         estimate D2E/DX2                !
 ! D9    D(5,3,4,9)            -60.9289         estimate D2E/DX2                !
 ! D10   D(5,3,4,10)            55.0793         estimate D2E/DX2                !
 ! D11   D(6,3,4,9)            178.5263         estimate D2E/DX2                !
 ! D12   D(6,3,4,10)           -65.4655         estimate D2E/DX2                !
 ! D13   D(2,3,5,11)            66.4943         estimate D2E/DX2                !
 ! D14   D(2,3,5,12)           -50.3505         estimate D2E/DX2                !
 ! D15   D(4,3,5,11)          -174.0297         estimate D2E/DX2                !
 ! D16   D(4,3,5,12)            69.1255         estimate D2E/DX2                !
 ! D17   D(6,3,5,11)           -54.0388         estimate D2E/DX2                !
 ! D18   D(6,3,5,12)          -170.8836         estimate D2E/DX2                !
 ! D19   D(2,3,6,13)          -175.8484         estimate D2E/DX2                !
 ! D20   D(4,3,6,13)            65.6363         estimate D2E/DX2                !
 ! D21   D(5,3,6,13)           -54.6681         estimate D2E/DX2                !
 --------------------------------------------------------------------------------
 Trust Radius=3.00D-01 FncErr=1.00D-07 GrdErr=1.00D-06
 Number of steps in this run=     60 maximum allowed number of steps=    100.
 GradGradGradGradGradGradGradGradGradGradGradGradGradGradGradGradGradGrad

 Leave Link  103 at Fri Aug 26 10:13:28 2022, MaxMem= 24159191040 cpu:         0.6
 (Enter /public/home/users/caep010/software/Gaussian09/g09/l202.exe)
                          Input orientation:                          
 ---------------------------------------------------------------------
 Center     Atomic      Atomic             Coordinates (Angstroms)
 Number     Number       Type             X           Y           Z
 ---------------------------------------------------------------------
      1          6           0        2.039000   -0.234700    0.192000
      2          7           0        1.056800    0.586600    0.057200
      3          6           0       -0.335600    0.197300    0.202400
      4          7           0       -1.164500    1.404100    0.154500
      5          7           0       -0.726200   -0.713600   -0.883700
      6          8           0       -0.512500   -0.434100    1.447900
      7          1           0        1.872400   -1.280500    0.433800
      8          1           0        3.055800    0.121100    0.069100
      9          1           0       -1.010900    1.883800   -0.762800
     10          1           0       -2.172300    1.124400    0.183100
     11          1           0       -0.203500   -1.613800   -0.783700
     12          1           0       -0.444800   -0.292600   -1.799400
     13          1           0       -1.453700   -0.748100    1.489700
 ---------------------------------------------------------------------
                    Distance matrix (angstroms):
                    1          2          3          4          5
     1  C    0.000000
     2  N    1.287409   0.000000
     3  C    2.413598   1.453071   0.000000
     4  N    3.598539   2.368955   1.464833   0.000000
     5  N    3.005463   2.398938   1.470347   2.398879   0.000000
     6  O    2.850824   2.332076   1.407562   2.340292   2.357996
     7  H    1.086241   2.071978   2.666965   4.062985   2.968148
     8  H    1.084242   2.052519   3.394874   4.411838   3.988493
     9  H    3.834263   2.574978   2.057164   1.046491   2.615752
    10  H    4.425187   3.275999   2.057512   1.046284   2.570508
    11  H    2.807617   2.671559   2.066380   3.303250   1.045742
    12  H    3.184068   2.544555   2.063766   2.685979   1.046391
    13  H    3.761191   3.183723   1.949633   2.549188   2.482634
                    6          7          8          9         10
     6  O    0.000000
     7  H    2.726268   0.000000
     8  H    3.865501   1.870274   0.000000
     9  H    3.241644   4.445004   4.509680   0.000000
    10  H    2.604530   4.712323   5.324719   1.679365   0.000000
    11  H    2.543071   2.429559   3.789483   3.589643   3.508364
    12  H    3.251086   3.366384   3.989566   2.476232   2.987047
    13  H    0.993076   3.530059   4.807203   3.492381   2.393710
                   11         12         13
    11  H    0.000000
    12  H    1.683877   0.000000
    13  H    2.735102   3.470380   0.000000
 Stoichiometry    C2H7N3O
 Framework group  C1[X(C2H7N3O)]
 Deg. of freedom    33
 Full point group                 C1      NOp   1
 Largest Abelian subgroup         C1      NOp   1
 Largest concise Abelian subgroup C1      NOp   1
                         Standard orientation:                         
 ---------------------------------------------------------------------
 Center     Atomic      Atomic             Coordinates (Angstroms)
 Number     Number       Type             X           Y           Z
 ---------------------------------------------------------------------
      1          6           0        2.060616   -0.111153   -0.113526
      2          7           0        0.913947   -0.643789   -0.356159
      3          6           0       -0.349269    0.001993   -0.042046
      4          7           0       -1.436609   -0.802423   -0.604488
      5          7           0       -0.517859    0.110827    1.414544
      6          8           0       -0.373012    1.282098   -0.626850
      7          1           0        2.142525    0.872072    0.340874
      8          1           0        2.966399   -0.648067   -0.372101
      9          1           0       -1.399870   -1.760814   -0.185822
     10          1           0       -2.351461   -0.383385   -0.317845
     11          1           0        0.200314    0.767855    1.796796
     12          1           0       -0.343158   -0.825061    1.848742
     13          1           0       -1.215092    1.723279   -0.339690
 ---------------------------------------------------------------------
 Rotational constants (GHZ):      5.1245761      2.9696856      2.9399629
 Leave Link  202 at Fri Aug 26 10:13:28 2022, MaxMem= 24159191040 cpu:         0.7
 (Enter /public/home/users/caep010/software/Gaussian09/g09/l301.exe)
 Standard basis: GTBas3 (6D, 7F)
 Ernie: Thresh=  0.10000D-02 Tol=  0.10000D-05 Strict=F.
 There are   221 symmetry adapted cartesian basis functions of A   symmetry.
 There are   203 symmetry adapted basis functions of A   symmetry.
   203 basis functions,   313 primitive gaussians,   221 cartesian basis functions
    24 alpha electrons       24 beta electrons
       nuclear repulsion energy       255.0982503795 Hartrees.
 IExCor=  402 DFT=T Ex+Corr=B3LYP ExCW=0 ScaHFX=  0.200000
 ScaDFX=  0.800000  0.720000  1.000000  0.810000 ScalE2=  1.000000  1.000000
 IRadAn=      0 IRanWt=     -1 IRanGd=            0 ICorTp=0 IEmpDi=  4
 NAtoms=   13 NActive=   13 NUniq=   13 SFac= 1.00D+00 NAtFMM=   60 NAOKFM=F Big=F
 Integral buffers will be    131072 words long.
 Raffenetti 2 integral format.
 Two-electron integral symmetry is turned on.
 Leave Link  301 at Fri Aug 26 10:13:28 2022, MaxMem= 24159191040 cpu:         2.1
 (Enter /public/home/users/caep010/software/Gaussian09/g09/l302.exe)
 NPDir=0 NMtPBC=     1 NCelOv=     1 NCel=       1 NClECP=     1 NCelD=      1
         NCelK=      1 NCelE2=     1 NClLst=     1 CellRange=     0.0.
 One-electron integrals computed using PRISM.
 NBasis=   203 RedAO= T EigKep=  3.47D-04  NBF=   203
 NBsUse=   203 1.00D-06 EigRej= -1.00D+00 NBFU=   203
 Precomputing XC quadrature grid using
 IXCGrd= 4 IRadAn=           0 IRanWt=          -1 IRanGd=           0 AccXCQ= 0.00D+00.
 Generated NRdTot=       0 NPtTot=           0 NUsed=           0 NTot=          32
 NSgBfM=   221   221   221   221   221 MxSgAt=    13 MxSgA2=    13.
 Leave Link  302 at Fri Aug 26 10:13:28 2022, MaxMem= 24159191040 cpu:        14.5
 (Enter /public/home/users/caep010/software/Gaussian09/g09/l303.exe)
 DipDrv:  MaxL=1.
 Leave Link  303 at Fri Aug 26 10:13:28 2022, MaxMem= 24159191040 cpu:         0.9
 (Enter /public/home/users/caep010/software/Gaussian09/g09/l401.exe)
 ExpMin= 1.61D-01 ExpMax= 5.48D+03 ExpMxC= 8.25D+02 IAcc=1 IRadAn=         1 AccDes= 0.00D+00
 Harris functional with IExCor=  402 and IRadAn=       1 diagonalized for initial guess.
 HarFok:  IExCor=  402 AccDes= 0.00D+00 IRadAn=         1 IDoV= 1 UseB2=F ITyADJ=14
 ICtDFT=  3500011 ScaDFX=  1.000000  1.000000  1.000000  1.000000
 FoFCou: FMM=F IPFlag=           0 FMFlag=      100000 FMFlg1=           0
         NFxFlg=           0 DoJE=T BraDBF=F KetDBF=T FulRan=T
         wScrn=  0.000000 ICntrl=     500 IOpCl=  0 I1Cent=   200000004 NGrid=           0
         NMat0=    1 NMatS0=      1 NMatT0=    0 NMatD0=    1 NMtDS0=    0 NMtDT0=    0
 Petite list used in FoFCou.
 Harris En= -319.886712475277    
 JPrj=0 DoOrth=F DoCkMO=F.
 Leave Link  401 at Fri Aug 26 10:13:29 2022, MaxMem= 24159191040 cpu:        13.8
 (Enter /public/home/users/caep010/software/Gaussian09/g09/l502.exe)
 Closed shell SCF:
 Using DIIS extrapolation, IDIIS=  1040.
 Integral symmetry usage will be decided dynamically.
 Keep R1 ints in memory in canonical form, NReq=220023741.
 IVT=      173757 IEndB=      173757 NGot= 24159191040 MDV= 23944637713
 LenX= 23944637713 LenY= 23944588431
 Requested convergence on RMS density matrix=1.00D-08 within 128 cycles.
 Requested convergence on MAX density matrix=1.00D-06.
 Requested convergence on             energy=1.00D-06.
 No special actions if energy rises.
 FoFCou: FMM=F IPFlag=           0 FMFlag=           0 FMFlg1=           0
         NFxFlg=           0 DoJE=F BraDBF=F KetDBF=F FulRan=T
         wScrn=  0.000000 ICntrl=     600 IOpCl=  0 I1Cent=           0 NGrid=           0
         NMat0=    1 NMatS0=  20706 NMatT0=    0 NMatD0=    1 NMtDS0=    0 NMtDT0=    0
 Symmetry not used in FoFCou.
 Integral accuracy reduced to 1.0D-05 until final iterations.

 Cycle   1  Pass 0  IDiag  1:
 E= -319.691448580701    
 DIIS: error= 2.52D-02 at cycle   1 NSaved=   1.
 NSaved= 1 IEnMin= 1 EnMin= -319.691448580701     IErMin= 1 ErrMin= 2.52D-02
 ErrMax= 2.52D-02  0.00D+00 EMaxC= 1.00D-01 BMatC= 2.36D-01 BMatP= 2.36D-01
 IDIUse=3 WtCom= 7.48D-01 WtEn= 2.52D-01
 Coeff-Com:  0.100D+01
 Coeff-En:   0.100D+01
 Coeff:      0.100D+01
 Gap=     0.196 Goal=   None    Shift=    0.000
 GapD=    0.196 DampG=1.000 DampE=0.500 DampFc=0.5000 IDamp=-1.
 Damping current iteration by 5.00D-01
 RMSDP=5.09D-03 MaxDP=1.48D-01              OVMax= 1.60D-01

 Cycle   2  Pass 0  IDiag  1:
 E= -319.764757527211     Delta-E=       -0.073308946510 Rises=F Damp=T
 DIIS: error= 9.09D-03 at cycle   2 NSaved=   2.
 NSaved= 2 IEnMin= 2 EnMin= -319.764757527211     IErMin= 2 ErrMin= 9.09D-03
 ErrMax= 9.09D-03  0.00D+00 EMaxC= 1.00D-01 BMatC= 1.59D-02 BMatP= 2.36D-01
 IDIUse=3 WtCom= 9.09D-01 WtEn= 9.09D-02
 Coeff-Com:  0.139D+00 0.861D+00
 Coeff-En:   0.238D+00 0.762D+00
 Coeff:      0.148D+00 0.852D+00
 Gap=     0.228 Goal=   None    Shift=    0.000
 RMSDP=9.03D-04 MaxDP=4.99D-02 DE=-7.33D-02 OVMax= 9.85D-02

 Cycle   3  Pass 0  IDiag  1:
 E= -319.877912071426     Delta-E=       -0.113154544214 Rises=F Damp=F
 DIIS: error= 3.91D-03 at cycle   3 NSaved=   3.
 NSaved= 3 IEnMin= 3 EnMin= -319.877912071426     IErMin= 3 ErrMin= 3.91D-03
 ErrMax= 3.91D-03  0.00D+00 EMaxC= 1.00D-01 BMatC= 3.96D-03 BMatP= 1.59D-02
 IDIUse=3 WtCom= 9.61D-01 WtEn= 3.91D-02
 Coeff-Com:  0.286D-01 0.306D+00 0.665D+00
 Coeff-En:   0.000D+00 0.000D+00 0.100D+01
 Coeff:      0.275D-01 0.294D+00 0.678D+00
 Gap=     0.208 Goal=   None    Shift=    0.000
 RMSDP=4.29D-04 MaxDP=2.64D-02 DE=-1.13D-01 OVMax= 4.68D-02

 Cycle   4  Pass 0  IDiag  1:
 E= -319.878728039365     Delta-E=       -0.000815967940 Rises=F Damp=F
 DIIS: error= 4.07D-03 at cycle   4 NSaved=   4.
 NSaved= 4 IEnMin= 4 EnMin= -319.878728039365     IErMin= 3 ErrMin= 3.91D-03
 ErrMax= 4.07D-03  0.00D+00 EMaxC= 1.00D-01 BMatC= 3.22D-03 BMatP= 3.96D-03
 IDIUse=3 WtCom= 9.59D-01 WtEn= 4.07D-02
 Coeff-Com: -0.958D-03 0.642D-01 0.470D+00 0.467D+00
 Coeff-En:   0.000D+00 0.000D+00 0.450D+00 0.550D+00
 Coeff:     -0.919D-03 0.616D-01 0.469D+00 0.470D+00
 Gap=     0.213 Goal=   None    Shift=    0.000
 RMSDP=2.34D-04 MaxDP=1.43D-02 DE=-8.16D-04 OVMax= 2.66D-02

 Cycle   5  Pass 0  IDiag  1:
 E= -319.881436909665     Delta-E=       -0.002708870300 Rises=F Damp=F
 DIIS: error= 6.92D-04 at cycle   5 NSaved=   5.
 NSaved= 5 IEnMin= 5 EnMin= -319.881436909665     IErMin= 5 ErrMin= 6.92D-04
 ErrMax= 6.92D-04  0.00D+00 EMaxC= 1.00D-01 BMatC= 2.22D-04 BMatP= 3.22D-03
 IDIUse=3 WtCom= 9.93D-01 WtEn= 6.92D-03
 Coeff-Com: -0.218D-02 0.128D-01 0.236D+00 0.286D+00 0.468D+00
 Coeff-En:   0.000D+00 0.000D+00 0.000D+00 0.000D+00 0.100D+01
 Coeff:     -0.216D-02 0.127D-01 0.234D+00 0.284D+00 0.472D+00
 Gap=     0.214 Goal=   None    Shift=    0.000
 RMSDP=7.34D-05 MaxDP=3.35D-03 DE=-2.71D-03 OVMax= 4.93D-03

 Cycle   6  Pass 0  IDiag  1:
 E= -319.881623665681     Delta-E=       -0.000186756016 Rises=F Damp=F
 DIIS: error= 1.24D-04 at cycle   6 NSaved=   6.
 NSaved= 6 IEnMin= 6 EnMin= -319.881623665681     IErMin= 6 ErrMin= 1.24D-04
 ErrMax= 1.24D-04  0.00D+00 EMaxC= 1.00D-01 BMatC= 7.27D-06 BMatP= 2.22D-04
 IDIUse=3 WtCom= 9.99D-01 WtEn= 1.24D-03
 Coeff-Com: -0.826D-03 0.126D-02 0.759D-01 0.947D-01 0.224D+00 0.605D+00
 Coeff-En:   0.000D+00 0.000D+00 0.000D+00 0.000D+00 0.000D+00 0.100D+01
 Coeff:     -0.825D-03 0.126D-02 0.758D-01 0.946D-01 0.224D+00 0.606D+00
 Gap=     0.214 Goal=   None    Shift=    0.000
 RMSDP=1.35D-05 MaxDP=4.52D-04 DE=-1.87D-04 OVMax= 6.11D-04

 Cycle   7  Pass 0  IDiag  1:
 E= -319.881628745610     Delta-E=       -0.000005079929 Rises=F Damp=F
 DIIS: error= 3.87D-05 at cycle   7 NSaved=   7.
 NSaved= 7 IEnMin= 7 EnMin= -319.881628745610     IErMin= 7 ErrMin= 3.87D-05
 ErrMax= 3.87D-05  0.00D+00 EMaxC= 1.00D-01 BMatC= 8.66D-07 BMatP= 7.27D-06
 IDIUse=1 WtCom= 1.00D+00 WtEn= 0.00D+00
 Coeff-Com: -0.320D-03-0.162D-03 0.272D-01 0.336D-01 0.954D-01 0.344D+00
 Coeff-Com:  0.500D+00
 Coeff:     -0.320D-03-0.162D-03 0.272D-01 0.336D-01 0.954D-01 0.344D+00
 Coeff:      0.500D+00
 Gap=     0.214 Goal=   None    Shift=    0.000
 RMSDP=4.40D-06 MaxDP=1.25D-04 DE=-5.08D-06 OVMax= 1.84D-04

 Initial convergence to 1.0D-05 achieved.  Increase integral accuracy.
 Cycle   8  Pass 1  IDiag  1:
 E= -319.881655177407     Delta-E=       -0.000026431797 Rises=F Damp=F
 DIIS: error= 1.34D-05 at cycle   1 NSaved=   1.
 NSaved= 1 IEnMin= 1 EnMin= -319.881655177407     IErMin= 1 ErrMin= 1.34D-05
 ErrMax= 1.34D-05  0.00D+00 EMaxC= 1.00D-01 BMatC= 6.48D-08 BMatP= 6.48D-08
 IDIUse=1 WtCom= 1.00D+00 WtEn= 0.00D+00
 Coeff-Com:  0.100D+01
 Coeff:      0.100D+01
 Gap=     0.214 Goal=   None    Shift=    0.000
 RMSDP=4.40D-06 MaxDP=1.25D-04 DE=-2.64D-05 OVMax= 6.54D-05

 Cycle   9  Pass 1  IDiag  1:
 E= -319.881655212719     Delta-E=       -0.000000035312 Rises=F Damp=F
 DIIS: error= 5.92D-06 at cycle   2 NSaved=   2.
 NSaved= 2 IEnMin= 2 EnMin= -319.881655212719     IErMin= 2 ErrMin= 5.92D-06
 ErrMax= 5.92D-06  0.00D+00 EMaxC= 1.00D-01 BMatC= 2.02D-08 BMatP= 6.48D-08
 IDIUse=1 WtCom= 1.00D+00 WtEn= 0.00D+00
 Coeff-Com:  0.294D+00 0.706D+00
 Coeff:      0.294D+00 0.706D+00
 Gap=     0.214 Goal=   None    Shift=    0.000
 RMSDP=1.17D-06 MaxDP=4.17D-05 DE=-3.53D-08 OVMax= 6.65D-05

 Cycle  10  Pass 1  IDiag  1:
 E= -319.881655214190     Delta-E=       -0.000000001471 Rises=F Damp=F
 DIIS: error= 5.67D-06 at cycle   3 NSaved=   3.
 NSaved= 3 IEnMin= 3 EnMin= -319.881655214190     IErMin= 3 ErrMin= 5.67D-06
 ErrMax= 5.67D-06  0.00D+00 EMaxC= 1.00D-01 BMatC= 1.88D-08 BMatP= 2.02D-08
 IDIUse=1 WtCom= 1.00D+00 WtEn= 0.00D+00
 Coeff-Com: -0.323D-02 0.491D+00 0.512D+00
 Coeff:     -0.323D-02 0.491D+00 0.512D+00
 Gap=     0.214 Goal=   None    Shift=    0.000
 RMSDP=6.15D-07 MaxDP=2.70D-05 DE=-1.47D-09 OVMax= 4.76D-05

 Cycle  11  Pass 1  IDiag  1:
 E= -319.881655229478     Delta-E=       -0.000000015288 Rises=F Damp=F
 DIIS: error= 2.03D-06 at cycle   4 NSaved=   4.
 NSaved= 4 IEnMin= 4 EnMin= -319.881655229478     IErMin= 4 ErrMin= 2.03D-06
 ErrMax= 2.03D-06  0.00D+00 EMaxC= 1.00D-01 BMatC= 1.19D-09 BMatP= 1.88D-08
 IDIUse=1 WtCom= 1.00D+00 WtEn= 0.00D+00
 Coeff-Com: -0.141D-01 0.282D+00 0.324D+00 0.408D+00
 Coeff:     -0.141D-01 0.282D+00 0.324D+00 0.408D+00
 Gap=     0.214 Goal=   None    Shift=    0.000
 RMSDP=1.54D-07 MaxDP=9.12D-06 DE=-1.53D-08 OVMax= 1.47D-05

 Cycle  12  Pass 1  IDiag  1:
 E= -319.881655230479     Delta-E=       -0.000000001002 Rises=F Damp=F
 DIIS: error= 3.17D-07 at cycle   5 NSaved=   5.
 NSaved= 5 IEnMin= 5 EnMin= -319.881655230479     IErMin= 5 ErrMin= 3.17D-07
 ErrMax= 3.17D-07  0.00D+00 EMaxC= 1.00D-01 BMatC= 4.44D-11 BMatP= 1.19D-09
 IDIUse=1 WtCom= 1.00D+00 WtEn= 0.00D+00
 Coeff-Com: -0.712D-02 0.106D+00 0.127D+00 0.220D+00 0.553D+00
 Coeff:     -0.712D-02 0.106D+00 0.127D+00 0.220D+00 0.553D+00
 Gap=     0.214 Goal=   None    Shift=    0.000
 RMSDP=2.84D-08 MaxDP=1.04D-06 DE=-1.00D-09 OVMax= 2.16D-06

 Cycle  13  Pass 1  IDiag  1:
 E= -319.881655230514     Delta-E=       -0.000000000035 Rises=F Damp=F
 DIIS: error= 6.91D-08 at cycle   6 NSaved=   6.
 NSaved= 6 IEnMin= 6 EnMin= -319.881655230514     IErMin= 6 ErrMin= 6.91D-08
 ErrMax= 6.91D-08  0.00D+00 EMaxC= 1.00D-01 BMatC= 1.95D-12 BMatP= 4.44D-11
 IDIUse=1 WtCom= 1.00D+00 WtEn= 0.00D+00
 Coeff-Com: -0.183D-02 0.209D-01 0.267D-01 0.612D-01 0.233D+00 0.660D+00
 Coeff:     -0.183D-02 0.209D-01 0.267D-01 0.612D-01 0.233D+00 0.660D+00
 Gap=     0.214 Goal=   None    Shift=    0.000
 RMSDP=8.25D-09 MaxDP=3.07D-07 DE=-3.50D-11 OVMax= 4.75D-07

 SCF Done:  E(RB3LYP) =  -319.881655231     A.U. after   13 cycles
            NFock= 13  Conv=0.83D-08     -V/T= 2.0078
 KE= 3.173947765707D+02 PE=-1.258207437107D+03 EE= 3.658327549268D+02
 Leave Link  502 at Fri Aug 26 10:13:35 2022, MaxMem= 24159191040 cpu:        80.3
 (Enter /public/home/users/caep010/software/Gaussian09/g09/l601.exe)
 Copying SCF densities to generalized density rwf, IOpCl= 0 IROHF=0.

 **********************************************************************

            Population analysis using the SCF density.

 **********************************************************************

 Orbital symmetries:
       Occupied  (A) (A) (A) (A) (A) (A) (A) (A) (A) (A) (A) (A)
                 (A) (A) (A) (A) (A) (A) (A) (A) (A) (A) (A) (A)
       Virtual   (A) (A) (A) (A) (A) (A) (A) (A) (A) (A) (A) (A)
                 (A) (A) (A) (A) (A) (A) (A) (A) (A) (A) (A) (A)
                 (A) (A) (A) (A) (A) (A) (A) (A) (A) (A) (A) (A)
                 (A) (A) (A) (A) (A) (A) (A) (A) (A) (A) (A) (A)
                 (A) (A) (A) (A) (A) (A) (A) (A) (A) (A) (A) (A)
                 (A) (A) (A) (A) (A) (A) (A) (A) (A) (A) (A) (A)
                 (A) (A) (A) (A) (A) (A) (A) (A) (A) (A) (A) (A)
                 (A) (A) (A) (A) (A) (A) (A) (A) (A) (A) (A) (A)
                 (A) (A) (A) (A) (A) (A) (A) (A) (A) (A) (A) (A)
                 (A) (A) (A) (A) (A) (A) (A) (A) (A) (A) (A) (A)
                 (A) (A) (A) (A) (A) (A) (A) (A) (A) (A) (A) (A)
                 (A) (A) (A) (A) (A) (A) (A) (A) (A) (A) (A) (A)
                 (A) (A) (A) (A) (A) (A) (A) (A) (A) (A) (A) (A)
                 (A) (A) (A) (A) (A) (A) (A) (A) (A) (A) (A) (A)
                 (A) (A) (A) (A) (A) (A) (A) (A) (A) (A) (A)
 The electronic state is 1-A.
 Alpha  occ. eigenvalues --  -19.14703 -14.32733 -14.32260 -14.31176 -10.31401
 Alpha  occ. eigenvalues --  -10.23061  -1.04624  -0.92096  -0.86696  -0.83275
 Alpha  occ. eigenvalues --   -0.66888  -0.57337  -0.51980  -0.50813  -0.48762
 Alpha  occ. eigenvalues --   -0.45496  -0.45181  -0.41546  -0.35959  -0.33368
 Alpha  occ. eigenvalues --   -0.29348  -0.27741  -0.24655  -0.23582
 Alpha virt. eigenvalues --   -0.02228   0.05621   0.09435   0.10801   0.12799
 Alpha virt. eigenvalues --    0.14164   0.16825   0.18495   0.24073   0.26041
 Alpha virt. eigenvalues --    0.27174   0.28168   0.31946   0.46449   0.48388
 Alpha virt. eigenvalues --    0.51356   0.52057   0.53992   0.55017   0.56766
 Alpha virt. eigenvalues --    0.58683   0.61037   0.61819   0.63000   0.64531
 Alpha virt. eigenvalues --    0.66503   0.68493   0.71656   0.74661   0.78021
 Alpha virt. eigenvalues --    0.78956   0.79935   0.81618   0.83185   0.85546
 Alpha virt. eigenvalues --    0.86532   0.88440   0.88801   0.89332   0.93175
 Alpha virt. eigenvalues --    0.93933   0.96699   0.97203   1.03889   1.05729
 Alpha virt. eigenvalues --    1.08178   1.13097   1.22571   1.27159   1.32307
 Alpha virt. eigenvalues --    1.34793   1.39147   1.40389   1.43784   1.51681
 Alpha virt. eigenvalues --    1.52801   1.55027   1.56691   1.57248   1.61306
 Alpha virt. eigenvalues --    1.61713   1.63483   1.66268   1.71646   1.77810
 Alpha virt. eigenvalues --    1.79654   1.83189   1.85077   1.88161   1.93453
 Alpha virt. eigenvalues --    2.06440   2.10141   2.13369   2.18572   2.19920
 Alpha virt. eigenvalues --    2.20456   2.22216   2.37101   2.39547   2.48913
 Alpha virt. eigenvalues --    2.53379   2.55250   2.57235   2.60666   2.63825
 Alpha virt. eigenvalues --    2.70622   2.80119   2.83233   2.84324   2.86023
 Alpha virt. eigenvalues --    2.88295   2.89248   2.95461   2.98227   3.00823
 Alpha virt. eigenvalues --    3.02967   3.05387   3.08829   3.11175   3.15826
 Alpha virt. eigenvalues --    3.23241   3.28438   3.32653   3.35056   3.37506
 Alpha virt. eigenvalues --    3.41263   3.44861   3.53353   3.62631   3.73408
 Alpha virt. eigenvalues --    3.75518   3.79313   3.85732   3.88898   3.91129
 Alpha virt. eigenvalues --    3.97382   4.02013   4.05447   4.08443   4.09611
 Alpha virt. eigenvalues --    4.12293   4.14066   4.17671   4.19918   4.21787
 Alpha virt. eigenvalues --    4.25294   4.28814   4.31736   4.34614   4.35369
 Alpha virt. eigenvalues --    4.35877   4.40210   4.41312   4.45252   4.46365
 Alpha virt. eigenvalues --    4.49327   4.53528   4.57627   4.61200   4.62747
 Alpha virt. eigenvalues --    4.64508   4.67552   4.69872   4.73875   4.76157
 Alpha virt. eigenvalues --    4.77447   4.79039   4.81617   4.83978   4.88338
 Alpha virt. eigenvalues --    4.94081   4.98691   5.00455   5.04772   5.10874
 Alpha virt. eigenvalues --    5.16764   5.24278   5.32637   5.35889   5.41359
 Alpha virt. eigenvalues --    5.44117   5.50534   5.54985   5.61815   5.66699
 Alpha virt. eigenvalues --    5.79864   6.00818   6.03265   6.12438   7.11018
 Alpha virt. eigenvalues --    8.87901  10.01020  11.04921  11.29097  11.43581
 Alpha virt. eigenvalues --   11.61498  12.63792  13.48811  13.85374
          Condensed to atoms (all electrons):
               1          2          3          4          5          6
     1  C    4.902917   0.626880  -0.079898   0.004659   0.003416  -0.001032
     2  N    0.626880   6.338748   0.381081  -0.041139  -0.098666  -0.041052
     3  C   -0.079898   0.381081   4.507909   0.356734   0.386830   0.337576
     4  N    0.004659  -0.041139   0.356734   6.685520  -0.090774  -0.049126
     5  N    0.003416  -0.098666   0.386830  -0.090774   6.752747  -0.059071
     6  O   -0.001032  -0.041052   0.337576  -0.049126  -0.059071   7.913972
     7  H    0.358583  -0.051697  -0.006237  -0.000061   0.003857   0.006708
     8  H    0.366199  -0.019317   0.004488  -0.000046  -0.000158   0.000025
     9  H   -0.000505   0.003911  -0.035732   0.313155   0.000397   0.004276
    10  H   -0.000362   0.005156  -0.040670   0.315572   0.003323   0.001490
    11  H    0.002548   0.000388  -0.046446   0.007835   0.311455   0.006065
    12  H    0.001893   0.002991  -0.039436   0.004071   0.313675   0.004653
    13  H   -0.000625   0.006996  -0.046972  -0.000917   0.001086   0.294217
               7          8          9         10         11         12
     1  C    0.358583   0.366199  -0.000505  -0.000362   0.002548   0.001893
     2  N   -0.051697  -0.019317   0.003911   0.005156   0.000388   0.002991
     3  C   -0.006237   0.004488  -0.035732  -0.040670  -0.046446  -0.039436
     4  N   -0.000061  -0.000046   0.313155   0.315572   0.007835   0.004071
     5  N    0.003857  -0.000158   0.000397   0.003323   0.311455   0.313675
     6  O    0.006708   0.000025   0.004276   0.001490   0.006065   0.004653
     7  H    0.635057  -0.057911   0.000038   0.000009   0.004242   0.000673
     8  H   -0.057911   0.575956  -0.000038   0.000002  -0.000075  -0.000080
     9  H    0.000038  -0.000038   0.509238  -0.022801  -0.000078   0.002185
    10  H    0.000009   0.000002  -0.022801   0.513804  -0.000089   0.000240
    11  H    0.004242  -0.000075  -0.000078  -0.000089   0.513085  -0.022116
    12  H    0.000673  -0.000080   0.002185   0.000240  -0.022116   0.502816
    13  H   -0.000686   0.000020  -0.000327   0.002790  -0.000538  -0.000376
              13
     1  C   -0.000625
     2  N    0.006996
     3  C   -0.046972
     4  N   -0.000917
     5  N    0.001086
     6  O    0.294217
     7  H   -0.000686
     8  H    0.000020
     9  H   -0.000327
    10  H    0.002790
    11  H   -0.000538
    12  H   -0.000376
    13  H    0.453562
 Mulliken charges:
               1
     1  C   -0.184672
     2  N   -0.114281
     3  C    0.320774
     4  N   -0.505484
     5  N   -0.528117
     6  O   -0.418699
     7  H    0.107426
     8  H    0.130934
     9  H    0.226280
    10  H    0.221534
    11  H    0.223724
    12  H    0.228810
    13  H    0.291770
 Sum of Mulliken charges =  -0.00000
 Mulliken charges with hydrogens summed into heavy atoms:
               1
     1  C    0.053688
     2  N   -0.114281
     3  C    0.320774
     4  N   -0.057669
     5  N   -0.075583
     6  O   -0.126930
 Electronic spatial extent (au):  <R**2>=            537.7555
 Charge=             -0.0000 electrons
 Dipole moment (field-independent basis, Debye):
    X=              0.2111    Y=              0.4370    Z=              2.6110  Tot=              2.6557
 Quadrupole moment (field-independent basis, Debye-Ang):
   XX=            -29.2298   YY=            -34.1657   ZZ=            -39.1914
   XY=             -0.2287   XZ=              1.0048   YZ=             -1.6739
 Traceless Quadrupole moment (field-independent basis, Debye-Ang):
   XX=              4.9658   YY=              0.0300   ZZ=             -4.9958
   XY=             -0.2287   XZ=              1.0048   YZ=             -1.6739
 Octapole moment (field-independent basis, Debye-Ang**2):
  XXX=             -1.3639  YYY=              4.4582  ZZZ=              6.7051  XYY=             -9.4369
  XXY=              3.1994  XXZ=             -2.7717  XZZ=              5.6219  YZZ=              0.9441
  YYZ=              5.0576  XYZ=              4.1169
 Hexadecapole moment (field-independent basis, Debye-Ang**3):
 XXXX=           -305.2968 YYYY=           -137.0215 ZZZZ=           -155.0182 XXXY=            -10.2623
 XXXZ=             -0.4846 YYYX=             -2.1519 YYYZ=             -5.2608 ZZZX=              4.0952
 ZZZY=             -8.1325 XXYY=            -74.8414 XXZZ=            -97.8492 YYZZ=            -51.2046
 XXYZ=             -3.7897 YYXZ=              1.3266 ZZXY=              0.6023
 N-N= 2.550982503795D+02 E-N=-1.258207433224D+03  KE= 3.173947765707D+02
 No NMR shielding tensors so no spin-rotation constants.
 Leave Link  601 at Fri Aug 26 10:13:36 2022, MaxMem= 24159191040 cpu:        13.2
 (Enter /public/home/users/caep010/software/Gaussian09/g09/l701.exe)
 Compute integral first derivatives.
 ... and contract with generalized density number  0.
 Leave Link  701 at Fri Aug 26 10:13:37 2022, MaxMem= 24159191040 cpu:        14.7
 (Enter /public/home/users/caep010/software/Gaussian09/g09/l702.exe)
 L702 exits ... SP integral derivatives will be done elsewhere.
 Leave Link  702 at Fri Aug 26 10:13:37 2022, MaxMem= 24159191040 cpu:         0.5
 (Enter /public/home/users/caep010/software/Gaussian09/g09/l703.exe)
 Compute integral first derivatives, UseDBF=F ICtDFT=           0.
 Integral derivatives from FoFJK, PRISM(SPDF).
 Calling FoFJK, ICntrl=      2127 FMM=F ISym2X=0 I1Cent= 0 IOpClX= 0 NMat=1 NMatS=1 NMatT=0.
 FoFJK:  IHMeth= 1 ICntrl=    2127 DoSepK=F KAlg= 0 I1Cent=   0 FoldK=F
 IRaf=         0 NMat=   1 IRICut=       1 DoRegI=T DoRafI=F ISym2E= 0.
 FoFCou: FMM=F IPFlag=           0 FMFlag=      100000 FMFlg1=         800
         NFxFlg=           0 DoJE=F BraDBF=F KetDBF=F FulRan=T
         wScrn=  0.000000 ICntrl=    2127 IOpCl=  0 I1Cent=           0 NGrid=           0
         NMat0=    1 NMatS0=      1 NMatT0=    0 NMatD0=    1 NMtDS0=    0 NMtDT0=    0
 Symmetry not used in FoFCou.
 Leave Link  703 at Fri Aug 26 10:13:38 2022, MaxMem= 24159191040 cpu:        45.7
 (Enter /public/home/users/caep010/software/Gaussian09/g09/l716.exe)
 Dipole        = 8.30437473D-02 1.71944550D-01 1.02723327D+00
 ***** Axes restored to original set *****
 -------------------------------------------------------------------
 Center     Atomic                   Forces (Hartrees/Bohr)
 Number     Number              X              Y              Z
 -------------------------------------------------------------------
      1        6          -0.043182948    0.018794971    0.001274931
      2        7           0.031139911    0.002894597    0.001181669
      3        6          -0.004939485   -0.005507441   -0.004234187
      4        7          -0.006109929    0.005502956   -0.014842299
      5        7           0.007206424   -0.014835315   -0.011595577
      6        8          -0.020423192   -0.011688213   -0.004721823
      7        1           0.004224280   -0.007462492    0.004240712
      8        1           0.002104348    0.001211319   -0.002281078
      9        1          -0.003216290   -0.009708818    0.020564637
     10        1           0.022782558    0.003851495   -0.003768263
     11        1          -0.008316401    0.019018939   -0.003725793
     12        1          -0.005563000   -0.010045077    0.020340114
     13        1           0.024293724    0.007973078   -0.002433043
 -------------------------------------------------------------------
 Cartesian Forces:  Max     0.043182948 RMS     0.013747155
 Leave Link  716 at Fri Aug 26 10:13:38 2022, MaxMem= 24159191040 cpu:         0.8
 (Enter /public/home/users/caep010/software/Gaussian09/g09/l103.exe)

 GradGradGradGradGradGradGradGradGradGradGradGradGradGradGradGradGradGrad
 Berny optimization.
 FormGI is forming the generalized inverse of G from B-inverse, IUseBI=4.
 Internal  Forces:  Max     0.035787998 RMS     0.010501738
 Search for a local minimum.
 Step number   1 out of a maximum of   60
 All quantities printed in internal units (Hartrees-Bohrs-Radians)
 RMS Force = .10502D-01 SwitMx=.10000D-02 MixMth= 1
 Mixed Optimization -- RFO/linear search
 Second derivative matrix not updated -- first step.
 ITU=  0
     Eigenvalues ---    0.00761   0.00834   0.00990   0.01258   0.01592
     Eigenvalues ---    0.03181   0.04465   0.04603   0.07479   0.08170
     Eigenvalues ---    0.09516   0.16000   0.16000   0.16000   0.16000
     Eigenvalues ---    0.16000   0.16000   0.16000   0.18451   0.19145
     Eigenvalues ---    0.25000   0.35251   0.35487   0.35699   0.36366
     Eigenvalues ---    0.37845   0.40367   0.40381   0.40396   0.40472
     Eigenvalues ---    0.44390   0.48927   0.70815
 RFO step:  Lambda=-1.77176813D-02 EMin= 7.61223998D-03
 Linear search not attempted -- first point.
 Iteration  1 RMS(Cart)=  0.11563836 RMS(Int)=  0.00737080
 Iteration  2 RMS(Cart)=  0.00957340 RMS(Int)=  0.00035729
 Iteration  3 RMS(Cart)=  0.00005780 RMS(Int)=  0.00035514
 Iteration  4 RMS(Cart)=  0.00000001 RMS(Int)=  0.00035514
 ITry= 1 IFail=0 DXMaxC= 5.02D-01 DCOld= 1.00D+10 DXMaxT= 3.00D-01 DXLimC= 3.00D+00 Rises=F
 Variable       Old X    -DE/DX   Delta X   Delta X   Delta X     New X
                                 (Linear)    (Quad)   (Total)
    R1        2.43285  -0.03579   0.00000  -0.04930  -0.04930   2.38355
    R2        2.05270   0.00748   0.00000   0.02019   0.02019   2.07289
    R3        2.04892   0.00263   0.00000   0.00706   0.00706   2.05598
    R4        2.74591  -0.00177   0.00000  -0.00447  -0.00447   2.74143
    R5        2.76813  -0.00797   0.00000  -0.02090  -0.02090   2.74723
    R6        2.77855   0.00170   0.00000   0.00453   0.00453   2.78308
    R7        2.65991  -0.00515   0.00000  -0.01115  -0.01115   2.64876
    R8        1.97758  -0.02295   0.00000  -0.05446  -0.05446   1.92312
    R9        1.97719  -0.02307   0.00000  -0.05472  -0.05472   1.92247
   R10        1.97617  -0.02088   0.00000  -0.04943  -0.04943   1.92673
   R11        1.97739  -0.02334   0.00000  -0.05537  -0.05537   1.92202
   R12        1.87664  -0.02565   0.00000  -0.05060  -0.05060   1.82604
    A1        2.11822   0.00783   0.00000   0.04402   0.04399   2.16222
    A2        2.08778  -0.00475   0.00000  -0.02677  -0.02680   2.06098
    A3        2.07716  -0.00308   0.00000  -0.01735  -0.01738   2.05979
    A4        2.15279  -0.02408   0.00000  -0.08995  -0.08995   2.06284
    A5        1.89468  -0.01113   0.00000  -0.05533  -0.05593   1.83875
    A6        1.92487   0.01018   0.00000   0.05871   0.05909   1.98396
    A7        1.90608  -0.00043   0.00000  -0.01403  -0.01352   1.89256
    A8        1.91336   0.00464   0.00000   0.03093   0.03131   1.94467
    A9        1.90432   0.00652   0.00000   0.02552   0.02547   1.92980
   A10        1.92020  -0.00981   0.00000  -0.04621  -0.04609   1.87411
   A11        1.89996   0.00123   0.00000   0.00249   0.00240   1.90236
   A12        1.90067  -0.00440   0.00000  -0.02916  -0.02925   1.87142
   A13        1.86281   0.00009   0.00000  -0.00912  -0.00932   1.85349
   A14        1.90697  -0.00044   0.00000  -0.00730  -0.00736   1.89961
   A15        1.90257   0.00001   0.00000  -0.00482  -0.00488   1.89769
   A16        1.87088  -0.00123   0.00000  -0.01721  -0.01735   1.85354
   A17        1.87360  -0.00222   0.00000  -0.01250  -0.01250   1.86110
    D1       -0.00856  -0.00428   0.00000  -0.08939  -0.08936  -0.09792
    D2        3.14016  -0.00383   0.00000  -0.07430  -0.07433   3.06582
    D3       -3.13451   0.00046   0.00000   0.01503   0.01506  -3.11945
    D4        3.01677  -0.00586   0.00000  -0.18259  -0.18163   2.83514
    D5       -1.16987  -0.00096   0.00000  -0.14375  -0.14417  -1.31404
    D6        0.94228  -0.00698   0.00000  -0.17301  -0.17355   0.76873
    D7        1.04028   0.00346   0.00000  -0.00436  -0.00472   1.03556
    D8        3.06500   0.00183   0.00000  -0.02981  -0.03005   3.03495
    D9       -1.06341  -0.00493   0.00000  -0.06066  -0.06017  -1.12358
   D10        0.96132  -0.00656   0.00000  -0.08611  -0.08550   0.87581
   D11        3.11587   0.00021   0.00000  -0.03875  -0.03906   3.07682
   D12       -1.14259  -0.00141   0.00000  -0.06420  -0.06439  -1.20698
   D13        1.16054  -0.00009   0.00000  -0.03731  -0.03809   1.12245
   D14       -0.87878   0.00163   0.00000  -0.00982  -0.01068  -0.88946
   D15       -3.03739  -0.00460   0.00000  -0.04982  -0.04901  -3.08640
   D16        1.20647  -0.00288   0.00000  -0.02233  -0.02159   1.18487
   D17       -0.94315   0.00025   0.00000  -0.02773  -0.02765  -0.97080
   D18       -2.98248   0.00196   0.00000  -0.00024  -0.00024  -2.98272
   D19       -3.06913  -0.00495   0.00000  -0.01984  -0.02034  -3.08948
   D20        1.14557   0.00494   0.00000   0.04033   0.04040   1.18597
   D21       -0.95414   0.00119   0.00000   0.01477   0.01519  -0.93895
         Item               Value     Threshold  Converged?
 Maximum Force            0.035788     0.000450     NO 
 RMS     Force            0.010502     0.000300     NO 
 Maximum Displacement     0.502354     0.001800     NO 
 RMS     Displacement     0.118174     0.001200     NO 
 Predicted change in Energy=-1.028889D-02
 Lowest energy point so far.  Saving SCF results.
 GradGradGradGradGradGradGradGradGradGradGradGradGradGradGradGradGradGrad

 Leave Link  103 at Fri Aug 26 10:13:38 2022, MaxMem= 24159191040 cpu:         2.6
 (Enter /public/home/users/caep010/software/Gaussian09/g09/l202.exe)
                          Input orientation:                          
 ---------------------------------------------------------------------
 Center     Atomic      Atomic             Coordinates (Angstroms)
 Number     Number       Type             X           Y           Z
 ---------------------------------------------------------------------
      1          6           0        1.976109   -0.197136    0.251945
      2          7           0        1.054481    0.617689   -0.026595
      3          6           0       -0.319094    0.183576    0.144808
      4          7           0       -1.108336    1.404213    0.169176
      5          7           0       -0.784019   -0.736658   -0.906852
      6          8           0       -0.420736   -0.493077    1.368109
      7          1           0        1.805398   -1.183889    0.699634
      8          1           0        3.002866    0.104005    0.055006
      9          1           0       -0.968898    1.906365   -0.704925
     10          1           0       -2.087712    1.129419    0.185467
     11          1           0       -0.240424   -1.597673   -0.854824
     12          1           0       -0.578760   -0.325893   -1.814382
     13          1           0       -1.330877   -0.811040    1.433532
 ---------------------------------------------------------------------
                    Distance matrix (angstroms):
                    1          2          3          4          5
     1  C    0.000000
     2  N    1.261318   0.000000
     3  C    2.329030   1.450704   0.000000
     4  N    3.476345   2.309702   1.453771   0.000000
     5  N    3.041743   2.447282   1.472744   2.417921   0.000000
     6  O    2.660501   2.314145   1.401661   2.347327   2.316625
     7  H    1.096927   2.082539   2.586747   3.933129   3.079918
     8  H    1.087980   2.016615   3.324127   4.313416   3.996547
     9  H    3.743446   2.492966   2.027879   1.017670   2.657165
    10  H    4.275373   3.190645   2.006061   1.017327   2.524880
    11  H    2.845956   2.696400   2.044089   3.288337   1.019582
    12  H    3.288411   2.598847   2.040934   2.684813   1.017089
    13  H    3.564994   3.140569   1.916710   2.560365   2.404576
                    6          7          8          9         10
     6  O    0.000000
     7  H    2.424820   0.000000
     8  H    3.715077   1.873005   0.000000
     9  H    3.217961   4.383968   4.427291   0.000000
    10  H    2.609588   4.557639   5.194467   1.627326   0.000000
    11  H    2.488790   2.602489   3.773915   3.582098   3.454230
    12  H    3.190795   3.569404   4.062939   2.523109   2.897286
    13  H    0.966301   3.242506   4.638855   3.476827   2.428137
                   11         12         13
    11  H    0.000000
    12  H    1.628694   0.000000
    13  H    2.654139   3.368976   0.000000
 Stoichiometry    C2H7N3O
 Framework group  C1[X(C2H7N3O)]
 Deg. of freedom    33
 Full point group                 C1      NOp   1
 RotChk:  IX=3 Diff= 6.95D-01
 Largest Abelian subgroup         C1      NOp   1
 Largest concise Abelian subgroup C1      NOp   1
                         Standard orientation:                         
 ---------------------------------------------------------------------
 Center     Atomic      Atomic             Coordinates (Angstroms)
 Number     Number       Type             X           Y           Z
 ---------------------------------------------------------------------
      1          6           0        1.987646   -0.144303    0.006109
      2          7           0        0.897099   -0.769892    0.107440
      3          6           0       -0.337866   -0.020596   -0.026571
      4          7           0       -1.364719   -1.015128   -0.291008
      5          7           0       -0.667937    0.791860    1.156621
      6          8           0       -0.209183    0.855330   -1.113240
      7          1           0        2.061542    0.916076   -0.264790
      8          1           0        2.911022   -0.693386    0.178113
      9          1           0       -1.395504   -1.673711    0.484217
     10          1           0       -2.259920   -0.531844   -0.288514
     11          1           0        0.048352    1.507783    1.274658
     12          1           0       -0.617454    0.201000    1.982941
     13          1           0       -1.024352    1.372957   -1.149302
 ---------------------------------------------------------------------
 Rotational constants (GHZ):      5.0906141      3.1252115      3.0336642
 Leave Link  202 at Fri Aug 26 10:13:38 2022, MaxMem= 24159191040 cpu:         0.2
 (Enter /public/home/users/caep010/software/Gaussian09/g09/l301.exe)
 Standard basis: GTBas3 (6D, 7F)
 Ernie: Thresh=  0.10000D-02 Tol=  0.10000D-05 Strict=F.
 There are   221 symmetry adapted cartesian basis functions of A   symmetry.
 There are   203 symmetry adapted basis functions of A   symmetry.
   203 basis functions,   313 primitive gaussians,   221 cartesian basis functions
    24 alpha electrons       24 beta electrons
       nuclear repulsion energy       258.1327872650 Hartrees.
 IExCor=  402 DFT=T Ex+Corr=B3LYP ExCW=0 ScaHFX=  0.200000
 ScaDFX=  0.800000  0.720000  1.000000  0.810000 ScalE2=  1.000000  1.000000
 IRadAn=      0 IRanWt=     -1 IRanGd=            0 ICorTp=0 IEmpDi=  4
 NAtoms=   13 NActive=   13 NUniq=   13 SFac= 1.00D+00 NAtFMM=   60 NAOKFM=F Big=F
 Integral buffers will be    131072 words long.
 Raffenetti 2 integral format.
 Two-electron integral symmetry is turned on.
 Leave Link  301 at Fri Aug 26 10:13:39 2022, MaxMem= 24159191040 cpu:         1.6
 (Enter /public/home/users/caep010/software/Gaussian09/g09/l302.exe)
 NPDir=0 NMtPBC=     1 NCelOv=     1 NCel=       1 NClECP=     1 NCelD=      1
         NCelK=      1 NCelE2=     1 NClLst=     1 CellRange=     0.0.
 One-electron integrals computed using PRISM.
 NBasis=   203 RedAO= T EigKep=  3.37D-04  NBF=   203
 NBsUse=   203 1.00D-06 EigRej= -1.00D+00 NBFU=   203
 Precomputing XC quadrature grid using
 IXCGrd= 4 IRadAn=           0 IRanWt=          -1 IRanGd=           0 AccXCQ= 0.00D+00.
 Generated NRdTot=       0 NPtTot=           0 NUsed=           0 NTot=          32
 NSgBfM=   221   221   221   221   221 MxSgAt=    13 MxSgA2=    13.
 Leave Link  302 at Fri Aug 26 10:13:39 2022, MaxMem= 24159191040 cpu:        14.8
 (Enter /public/home/users/caep010/software/Gaussian09/g09/l303.exe)
 DipDrv:  MaxL=1.
 Leave Link  303 at Fri Aug 26 10:13:39 2022, MaxMem= 24159191040 cpu:         0.7
 (Enter /public/home/users/caep010/software/Gaussian09/g09/l401.exe)
 Initial guess from the checkpoint file:  "G4.Frag_1088.chk"
 B after Tr=     0.000000   -0.000000   -0.000000
         Rot=    0.970057    0.239723    0.038257    0.007702 Ang=  28.11 deg.
 Guess basis will be translated and rotated to current coordinates.
 JPrj=2 DoOrth=T DoCkMO=T.
 Generating alternative initial guess.
 ExpMin= 1.61D-01 ExpMax= 5.48D+03 ExpMxC= 8.25D+02 IAcc=1 IRadAn=         1 AccDes= 0.00D+00
 Harris functional with IExCor=  402 and IRadAn=       1 diagonalized for initial guess.
 HarFok:  IExCor=  402 AccDes= 0.00D+00 IRadAn=         1 IDoV= 1 UseB2=F ITyADJ=14
 ICtDFT=  3500011 ScaDFX=  1.000000  1.000000  1.000000  1.000000
 FoFCou: FMM=F IPFlag=           0 FMFlag=      100000 FMFlg1=           0
         NFxFlg=           0 DoJE=T BraDBF=F KetDBF=T FulRan=T
         wScrn=  0.000000 ICntrl=     500 IOpCl=  0 I1Cent=   200000004 NGrid=           0
         NMat0=    1 NMatS0=      1 NMatT0=    0 NMatD0=    1 NMtDS0=    0 NMtDT0=    0
 Petite list used in FoFCou.
 Harris En= -319.900408587524    
 Leave Link  401 at Fri Aug 26 10:13:40 2022, MaxMem= 24159191040 cpu:        16.7
 (Enter /public/home/users/caep010/software/Gaussian09/g09/l502.exe)
 Closed shell SCF:
 Using DIIS extrapolation, IDIIS=  1040.
 Integral symmetry usage will be decided dynamically.
 Keep R1 ints in memory in canonical form, NReq=220023741.
 IVT=      173757 IEndB=      173757 NGot= 24159191040 MDV= 23944637713
 LenX= 23944637713 LenY= 23944588431
 Requested convergence on RMS density matrix=1.00D-08 within 128 cycles.
 Requested convergence on MAX density matrix=1.00D-06.
 Requested convergence on             energy=1.00D-06.
 No special actions if energy rises.
 FoFCou: FMM=F IPFlag=           0 FMFlag=           0 FMFlg1=           0
         NFxFlg=           0 DoJE=F BraDBF=F KetDBF=F FulRan=T
         wScrn=  0.000000 ICntrl=     600 IOpCl=  0 I1Cent=           0 NGrid=           0
         NMat0=    1 NMatS0=  20706 NMatT0=    0 NMatD0=    1 NMtDS0=    0 NMtDT0=    0
 Symmetry not used in FoFCou.
 Integral accuracy reduced to 1.0D-05 until final iterations.

 Cycle   1  Pass 0  IDiag  1:
 E= -319.869958847993    
 DIIS: error= 5.54D-03 at cycle   1 NSaved=   1.
 NSaved= 1 IEnMin= 1 EnMin= -319.869958847993     IErMin= 1 ErrMin= 5.54D-03
 ErrMax= 5.54D-03  0.00D+00 EMaxC= 1.00D-01 BMatC= 1.29D-02 BMatP= 1.29D-02
 IDIUse=3 WtCom= 9.45D-01 WtEn= 5.54D-02
 Coeff-Com:  0.100D+01
 Coeff-En:   0.100D+01
 Coeff:      0.100D+01
 Gap=     0.930 Goal=   None    Shift=    0.000
 GapD=    0.930 DampG=2.000 DampE=1.000 DampFc=2.0000 IDamp=-1.
 RMSDP=9.33D-04 MaxDP=3.16D-02              OVMax= 6.02D-02

 Cycle   2  Pass 0  IDiag  1:
 E= -319.890715446046     Delta-E=       -0.020756598053 Rises=F Damp=F
 DIIS: error= 1.06D-03 at cycle   2 NSaved=   2.
 NSaved= 2 IEnMin= 2 EnMin= -319.890715446046     IErMin= 2 ErrMin= 1.06D-03
 ErrMax= 1.06D-03  0.00D+00 EMaxC= 1.00D-01 BMatC= 3.90D-04 BMatP= 1.29D-02
 IDIUse=3 WtCom= 9.89D-01 WtEn= 1.06D-02
 Coeff-Com: -0.266D-01 0.103D+01
 Coeff-En:   0.000D+00 0.100D+01
 Coeff:     -0.263D-01 0.103D+01
 Gap=     0.231 Goal=   None    Shift=    0.000
 RMSDP=1.96D-04 MaxDP=5.14D-03 DE=-2.08D-02 OVMax= 1.18D-02

 Cycle   3  Pass 0  IDiag  1:
 E= -319.890933589643     Delta-E=       -0.000218143597 Rises=F Damp=F
 DIIS: error= 7.97D-04 at cycle   3 NSaved=   3.
 NSaved= 3 IEnMin= 3 EnMin= -319.890933589643     IErMin= 3 ErrMin= 7.97D-04
 ErrMax= 7.97D-04  0.00D+00 EMaxC= 1.00D-01 BMatC= 3.77D-04 BMatP= 3.90D-04
 IDIUse=3 WtCom= 9.92D-01 WtEn= 7.97D-03
 Coeff-Com: -0.322D-01 0.524D+00 0.508D+00
 Coeff-En:   0.000D+00 0.283D+00 0.717D+00
 Coeff:     -0.319D-01 0.522D+00 0.510D+00
 Gap=     0.233 Goal=   None    Shift=    0.000
 RMSDP=1.21D-04 MaxDP=5.26D-03 DE=-2.18D-04 OVMax= 7.23D-03

 Cycle   4  Pass 0  IDiag  1:
 E= -319.891226015947     Delta-E=       -0.000292426304 Rises=F Damp=F
 DIIS: error= 4.07D-04 at cycle   4 NSaved=   4.
 NSaved= 4 IEnMin= 4 EnMin= -319.891226015947     IErMin= 4 ErrMin= 4.07D-04
 ErrMax= 4.07D-04  0.00D+00 EMaxC= 1.00D-01 BMatC= 5.97D-05 BMatP= 3.77D-04
 IDIUse=3 WtCom= 9.96D-01 WtEn= 4.07D-03
 Coeff-Com: -0.149D-01 0.178D+00 0.303D+00 0.534D+00
 Coeff-En:   0.000D+00 0.000D+00 0.103D+00 0.897D+00
 Coeff:     -0.148D-01 0.177D+00 0.302D+00 0.535D+00
 Gap=     0.233 Goal=   None    Shift=    0.000
 RMSDP=3.82D-05 MaxDP=2.18D-03 DE=-2.92D-04 OVMax= 4.24D-03

 Cycle   5  Pass 0  IDiag  1:
 E= -319.891274024029     Delta-E=       -0.000048008082 Rises=F Damp=F
 DIIS: error= 1.72D-04 at cycle   5 NSaved=   5.
 NSaved= 5 IEnMin= 5 EnMin= -319.891274024029     IErMin= 5 ErrMin= 1.72D-04
 ErrMax= 1.72D-04  0.00D+00 EMaxC= 1.00D-01 BMatC= 9.53D-06 BMatP= 5.97D-05
 IDIUse=3 WtCom= 9.98D-01 WtEn= 1.72D-03
 Coeff-Com: -0.248D-02 0.864D-02 0.927D-01 0.330D+00 0.571D+00
 Coeff-En:   0.000D+00 0.000D+00 0.000D+00 0.105D+00 0.895D+00
 Coeff:     -0.247D-02 0.862D-02 0.925D-01 0.330D+00 0.571D+00
 Gap=     0.233 Goal=   None    Shift=    0.000
 RMSDP=1.38D-05 MaxDP=7.75D-04 DE=-4.80D-05 OVMax= 1.05D-03

 Cycle   6  Pass 0  IDiag  1:
 E= -319.891282240850     Delta-E=       -0.000008216821 Rises=F Damp=F
 DIIS: error= 2.83D-05 at cycle   6 NSaved=   6.
 NSaved= 6 IEnMin= 6 EnMin= -319.891282240850     IErMin= 6 ErrMin= 2.83D-05
 ErrMax= 2.83D-05  0.00D+00 EMaxC= 1.00D-01 BMatC= 5.54D-07 BMatP= 9.53D-06
 IDIUse=1 WtCom= 1.00D+00 WtEn= 0.00D+00
 Coeff-Com:  0.720D-03-0.214D-01 0.695D-02 0.989D-01 0.271D+00 0.644D+00
 Coeff:      0.720D-03-0.214D-01 0.695D-02 0.989D-01 0.271D+00 0.644D+00
 Gap=     0.233 Goal=   None    Shift=    0.000
 RMSDP=4.24D-06 MaxDP=1.43D-04 DE=-8.22D-06 OVMax= 2.27D-04

 Initial convergence to 1.0D-05 achieved.  Increase integral accuracy.
 Cycle   7  Pass 1  IDiag  1:
 E= -319.891289027132     Delta-E=       -0.000006786282 Rises=F Damp=F
 DIIS: error= 1.87D-05 at cycle   1 NSaved=   1.
 NSaved= 1 IEnMin= 1 EnMin= -319.891289027132     IErMin= 1 ErrMin= 1.87D-05
 ErrMax= 1.87D-05  0.00D+00 EMaxC= 1.00D-01 BMatC= 1.63D-07 BMatP= 1.63D-07
 IDIUse=1 WtCom= 1.00D+00 WtEn= 0.00D+00
 Coeff-Com:  0.100D+01
 Coeff:      0.100D+01
 Gap=     0.233 Goal=   None    Shift=    0.000
 RMSDP=4.24D-06 MaxDP=1.43D-04 DE=-6.79D-06 OVMax= 1.51D-04

 Cycle   8  Pass 1  IDiag  1:
 E= -319.891289120792     Delta-E=       -0.000000093661 Rises=F Damp=F
 DIIS: error= 1.04D-05 at cycle   2 NSaved=   2.
 NSaved= 2 IEnMin= 2 EnMin= -319.891289120792     IErMin= 2 ErrMin= 1.04D-05
 ErrMax= 1.04D-05  0.00D+00 EMaxC= 1.00D-01 BMatC= 6.60D-08 BMatP= 1.63D-07
 IDIUse=1 WtCom= 1.00D+00 WtEn= 0.00D+00
 Coeff-Com:  0.343D+00 0.657D+00
 Coeff:      0.343D+00 0.657D+00
 Gap=     0.233 Goal=   None    Shift=    0.000
 RMSDP=1.90D-06 MaxDP=7.17D-05 DE=-9.37D-08 OVMax= 8.39D-05

 Cycle   9  Pass 1  IDiag  1:
 E= -319.891289156984     Delta-E=       -0.000000036191 Rises=F Damp=F
 DIIS: error= 6.46D-06 at cycle   3 NSaved=   3.
 NSaved= 3 IEnMin= 3 EnMin= -319.891289156984     IErMin= 3 ErrMin= 6.46D-06
 ErrMax= 6.46D-06  0.00D+00 EMaxC= 1.00D-01 BMatC= 2.77D-08 BMatP= 6.60D-08
 IDIUse=1 WtCom= 1.00D+00 WtEn= 0.00D+00
 Coeff-Com: -0.843D-02 0.390D+00 0.618D+00
 Coeff:     -0.843D-02 0.390D+00 0.618D+00
 Gap=     0.233 Goal=   None    Shift=    0.000
 RMSDP=7.77D-07 MaxDP=3.12D-05 DE=-3.62D-08 OVMax= 4.34D-05

 Cycle  10  Pass 1  IDiag  1:
 E= -319.891289179007     Delta-E=       -0.000000022023 Rises=F Damp=F
 DIIS: error= 2.41D-06 at cycle   4 NSaved=   4.
 NSaved= 4 IEnMin= 4 EnMin= -319.891289179007     IErMin= 4 ErrMin= 2.41D-06
 ErrMax= 2.41D-06  0.00D+00 EMaxC= 1.00D-01 BMatC= 1.84D-09 BMatP= 2.77D-08
 IDIUse=1 WtCom= 1.00D+00 WtEn= 0.00D+00
 Coeff-Com: -0.164D-01 0.210D+00 0.367D+00 0.440D+00
 Coeff:     -0.164D-01 0.210D+00 0.367D+00 0.440D+00
 Gap=     0.233 Goal=   None    Shift=    0.000
 RMSDP=1.83D-07 MaxDP=1.25D-05 DE=-2.20D-08 OVMax= 2.01D-05

 Cycle  11  Pass 1  IDiag  1:
 E= -319.891289180592     Delta-E=       -0.000000001585 Rises=F Damp=F
 DIIS: error= 6.46D-07 at cycle   5 NSaved=   5.
 NSaved= 5 IEnMin= 5 EnMin= -319.891289180592     IErMin= 5 ErrMin= 6.46D-07
 ErrMax= 6.46D-07  0.00D+00 EMaxC= 1.00D-01 BMatC= 1.42D-10 BMatP= 1.84D-09
 IDIUse=1 WtCom= 1.00D+00 WtEn= 0.00D+00
 Coeff-Com: -0.844D-02 0.860D-01 0.155D+00 0.259D+00 0.508D+00
 Coeff:     -0.844D-02 0.860D-01 0.155D+00 0.259D+00 0.508D+00
 Gap=     0.233 Goal=   None    Shift=    0.000
 RMSDP=6.27D-08 MaxDP=3.52D-06 DE=-1.59D-09 OVMax= 4.86D-06

 Cycle  12  Pass 1  IDiag  1:
 E= -319.891289180727     Delta-E=       -0.000000000134 Rises=F Damp=F
 DIIS: error= 1.23D-07 at cycle   6 NSaved=   6.
 NSaved= 6 IEnMin= 6 EnMin= -319.891289180727     IErMin= 6 ErrMin= 1.23D-07
 ErrMax= 1.23D-07  0.00D+00 EMaxC= 1.00D-01 BMatC= 1.05D-11 BMatP= 1.42D-10
 IDIUse=1 WtCom= 1.00D+00 WtEn= 0.00D+00
 Coeff-Com: -0.129D-02 0.433D-02 0.105D-01 0.482D-01 0.239D+00 0.700D+00
 Coeff:     -0.129D-02 0.433D-02 0.105D-01 0.482D-01 0.239D+00 0.700D+00
 Gap=     0.233 Goal=   None    Shift=    0.000
 RMSDP=2.03D-08 MaxDP=7.36D-07 DE=-1.34D-10 OVMax= 1.31D-06

 Cycle  13  Pass 1  IDiag  1:
 E= -319.891289180731     Delta-E=       -0.000000000004 Rises=F Damp=F
 DIIS: error= 4.80D-08 at cycle   7 NSaved=   7.
 NSaved= 7 IEnMin= 7 EnMin= -319.891289180731     IErMin= 7 ErrMin= 4.80D-08
 ErrMax= 4.80D-08  0.00D+00 EMaxC= 1.00D-01 BMatC= 8.15D-13 BMatP= 1.05D-11
 IDIUse=1 WtCom= 1.00D+00 WtEn= 0.00D+00
 Coeff-Com:  0.403D-03-0.812D-02-0.132D-01-0.102D-01 0.382D-01 0.265D+00
 Coeff-Com:  0.728D+00
 Coeff:      0.403D-03-0.812D-02-0.132D-01-0.102D-01 0.382D-01 0.265D+00
 Coeff:      0.728D+00
 Gap=     0.233 Goal=   None    Shift=    0.000
 RMSDP=6.06D-09 MaxDP=2.03D-07 DE=-4.32D-12 OVMax= 4.13D-07

 SCF Done:  E(RB3LYP) =  -319.891289181     A.U. after   13 cycles
            NFock= 13  Conv=0.61D-08     -V/T= 2.0067
 KE= 3.177510130974D+02 PE=-1.264495648220D+03 EE= 3.687205586771D+02
 Leave Link  502 at Fri Aug 26 10:13:47 2022, MaxMem= 24159191040 cpu:        88.4
 (Enter /public/home/users/caep010/software/Gaussian09/g09/l701.exe)
 Compute integral first derivatives.
 ... and contract with generalized density number  0.
 Leave Link  701 at Fri Aug 26 10:13:47 2022, MaxMem= 24159191040 cpu:        14.0
 (Enter /public/home/users/caep010/software/Gaussian09/g09/l702.exe)
 L702 exits ... SP integral derivatives will be done elsewhere.
 Leave Link  702 at Fri Aug 26 10:13:48 2022, MaxMem= 24159191040 cpu:         0.5
 (Enter /public/home/users/caep010/software/Gaussian09/g09/l703.exe)
 Compute integral first derivatives, UseDBF=F ICtDFT=           0.
 Integral derivatives from FoFJK, PRISM(SPDF).
 Calling FoFJK, ICntrl=      2127 FMM=F ISym2X=0 I1Cent= 0 IOpClX= 0 NMat=1 NMatS=1 NMatT=0.
 FoFJK:  IHMeth= 1 ICntrl=    2127 DoSepK=F KAlg= 0 I1Cent=   0 FoldK=F
 IRaf=         0 NMat=   1 IRICut=       1 DoRegI=T DoRafI=F ISym2E= 0.
 FoFCou: FMM=F IPFlag=           0 FMFlag=      100000 FMFlg1=         800
         NFxFlg=           0 DoJE=F BraDBF=F KetDBF=F FulRan=T
         wScrn=  0.000000 ICntrl=    2127 IOpCl=  0 I1Cent=           0 NGrid=           0
         NMat0=    1 NMatS0=      1 NMatT0=    0 NMatD0=    1 NMtDS0=    0 NMtDT0=    0
 Symmetry not used in FoFCou.
 Leave Link  703 at Fri Aug 26 10:13:49 2022, MaxMem= 24159191040 cpu:        47.4
 (Enter /public/home/users/caep010/software/Gaussian09/g09/l716.exe)
 Dipole        =-3.12441209D-02 6.29699414D-01 7.72398355D-01
 ***** Axes restored to original set *****
 -------------------------------------------------------------------
 Center     Atomic                   Forces (Hartrees/Bohr)
 Number     Number              X              Y              Z
 -------------------------------------------------------------------
      1        6           0.001202327    0.000300193    0.004489590
      2        7           0.004540267   -0.000316887   -0.013829193
      3        6          -0.004784341    0.002738640    0.004477685
      4        7          -0.003430988   -0.004169666   -0.000460368
      5        7           0.002778453    0.001951100    0.001568686
      6        8          -0.005904284   -0.002884614    0.001844118
      7        1           0.001104824    0.000482955   -0.000352540
      8        1           0.002574885   -0.000905074    0.001189467
      9        1           0.002566508    0.000882673    0.002022628
     10        1          -0.001430400    0.001523547   -0.000771294
     11        1          -0.000107293    0.001232168    0.000192629
     12        1          -0.001609382    0.000019225   -0.000808804
     13        1           0.002499425   -0.000854261    0.000437398
 -------------------------------------------------------------------
 Cartesian Forces:  Max     0.013829193 RMS     0.003253690
 Leave Link  716 at Fri Aug 26 10:13:49 2022, MaxMem= 24159191040 cpu:         0.6
 (Enter /public/home/users/caep010/software/Gaussian09/g09/l103.exe)

 GradGradGradGradGradGradGradGradGradGradGradGradGradGradGradGradGradGrad
 Berny optimization.
 Using GEDIIS/GDIIS optimizer.
 FormGI is forming the generalized inverse of G from B-inverse, IUseBI=4.
 Internal  Forces:  Max     0.009798946 RMS     0.002421829
 Search for a local minimum.
 Step number   2 out of a maximum of   60
 All quantities printed in internal units (Hartrees-Bohrs-Radians)
 RMS Force = .24218D-02 SwitMx=.10000D-02 MixMth= 1
 Mixed Optimization -- RFO/linear search
 Update second derivatives using D2CorX and points    1    2
 DE= -9.63D-03 DEPred=-1.03D-02 R= 9.36D-01
 TightC=F SS=  1.41D+00  RLast= 4.04D-01 DXNew= 5.0454D-01 1.2121D+00
 Trust test= 9.36D-01 RLast= 4.04D-01 DXMaxT set to 5.05D-01
 ITU=  1  0
 Use linear search instead of GDIIS.
     Eigenvalues ---    0.00759   0.00818   0.00951   0.01251   0.01589
     Eigenvalues ---    0.03297   0.04622   0.04853   0.07120   0.08176
     Eigenvalues ---    0.10183   0.15755   0.15999   0.16000   0.16000
     Eigenvalues ---    0.16000   0.16000   0.16305   0.18832   0.19529
     Eigenvalues ---    0.25768   0.34994   0.35403   0.35686   0.36160
     Eigenvalues ---    0.36900   0.40308   0.40385   0.40435   0.41890
     Eigenvalues ---    0.45189   0.48479   0.72858
 RFO step:  Lambda=-4.50542012D-03 EMin= 7.59079282D-03
 Quartic linear search produced a step of  0.04507.
 Iteration  1 RMS(Cart)=  0.09493083 RMS(Int)=  0.01550510
 Iteration  2 RMS(Cart)=  0.02771563 RMS(Int)=  0.00051555
 Iteration  3 RMS(Cart)=  0.00075461 RMS(Int)=  0.00008137
 Iteration  4 RMS(Cart)=  0.00000046 RMS(Int)=  0.00008136
 ITry= 1 IFail=0 DXMaxC= 4.89D-01 DCOld= 1.00D+10 DXMaxT= 5.05D-01 DXLimC= 3.00D+00 Rises=F
 Variable       Old X    -DE/DX   Delta X   Delta X   Delta X     New X
                                 (Linear)    (Quad)   (Total)
    R1        2.38355   0.00482  -0.00222   0.00306   0.00083   2.38438
    R2        2.07289  -0.00075   0.00091  -0.00062   0.00029   2.07319
    R3        2.05598   0.00197   0.00032   0.00602   0.00634   2.06233
    R4        2.74143   0.00980  -0.00020   0.02538   0.02518   2.76661
    R5        2.74723  -0.00022  -0.00094  -0.00217  -0.00311   2.74412
    R6        2.78308  -0.00301   0.00020  -0.00804  -0.00784   2.77524
    R7        2.64876   0.00404  -0.00050   0.00823   0.00773   2.65648
    R8        1.92312  -0.00094  -0.00245  -0.00640  -0.00885   1.91427
    R9        1.92247   0.00095  -0.00247  -0.00175  -0.00421   1.91826
   R10        1.92673  -0.00108  -0.00223  -0.00636  -0.00859   1.91814
   R11        1.92202   0.00040  -0.00250  -0.00316  -0.00566   1.91636
   R12        1.82604  -0.00205  -0.00228  -0.00797  -0.01025   1.81579
    A1        2.16222  -0.00001   0.00198   0.00290   0.00475   2.16697
    A2        2.06098   0.00211  -0.00121   0.01079   0.00945   2.07043
    A3        2.05979  -0.00211  -0.00078  -0.01423  -0.01514   2.04465
    A4        2.06284   0.00250  -0.00405   0.00331  -0.00075   2.06210
    A5        1.83875   0.00137  -0.00252   0.00691   0.00421   1.84295
    A6        1.98396  -0.00298   0.00266  -0.01698  -0.01424   1.96972
    A7        1.89256   0.00288  -0.00061   0.02557   0.02490   1.91746
    A8        1.94467   0.00021   0.00141  -0.00466  -0.00325   1.94142
    A9        1.92980  -0.00065   0.00115   0.00241   0.00340   1.93319
   A10        1.87411  -0.00073  -0.00208  -0.01172  -0.01373   1.86038
   A11        1.90236  -0.00065   0.00011   0.00137   0.00138   1.90374
   A12        1.87142   0.00353  -0.00132   0.02491   0.02349   1.89490
   A13        1.85349  -0.00003  -0.00042   0.01130   0.01066   1.86415
   A14        1.89961  -0.00102  -0.00033  -0.00424  -0.00458   1.89503
   A15        1.89769   0.00198  -0.00022   0.01429   0.01406   1.91175
   A16        1.85354   0.00011  -0.00078   0.00503   0.00423   1.85777
   A17        1.86110   0.00229  -0.00056   0.01310   0.01254   1.87363
    D1       -0.09792   0.00058  -0.00403   0.00470   0.00054  -0.09738
    D2        3.06582   0.00112  -0.00335   0.03445   0.03123   3.09705
    D3       -3.11945   0.00048   0.00068   0.02944   0.02998  -3.08947
    D4        2.83514  -0.00287  -0.00819  -0.23701  -0.24507   2.59007
    D5       -1.31404  -0.00346  -0.00650  -0.24825  -0.25471  -1.56875
    D6        0.76873  -0.00426  -0.00782  -0.25604  -0.26403   0.50470
    D7        1.03556  -0.00412  -0.00021  -0.12724  -0.12753   0.90803
    D8        3.03495  -0.00265  -0.00135  -0.10039  -0.10170   2.93325
    D9       -1.12358  -0.00149  -0.00271  -0.10818  -0.11093  -1.23450
   D10        0.87581  -0.00001  -0.00385  -0.08133  -0.08510   0.79072
   D11        3.07682  -0.00028  -0.00176  -0.09202  -0.09385   2.98297
   D12       -1.20698   0.00120  -0.00290  -0.06517  -0.06802  -1.27500
   D13        1.12245   0.00027  -0.00172  -0.03070  -0.03242   1.09003
   D14       -0.88946  -0.00037  -0.00048  -0.04206  -0.04257  -0.93203
   D15       -3.08640   0.00014  -0.00221  -0.03682  -0.03899  -3.12539
   D16        1.18487  -0.00051  -0.00097  -0.04819  -0.04913   1.13574
   D17       -0.97080  -0.00100  -0.00125  -0.04427  -0.04553  -1.01633
   D18       -2.98272  -0.00165  -0.00001  -0.05564  -0.05567  -3.03839
   D19       -3.08948   0.00245  -0.00092   0.04656   0.04574  -3.04374
   D20        1.18597  -0.00049   0.00182   0.02240   0.02416   1.21013
   D21       -0.93895   0.00011   0.00068   0.03410   0.03475  -0.90419
         Item               Value     Threshold  Converged?
 Maximum Force            0.009799     0.000450     NO 
 RMS     Force            0.002422     0.000300     NO 
 Maximum Displacement     0.489341     0.001800     NO 
 RMS     Displacement     0.118561     0.001200     NO 
 Predicted change in Energy=-2.957985D-03
 Lowest energy point so far.  Saving SCF results.
 GradGradGradGradGradGradGradGradGradGradGradGradGradGradGradGradGradGrad

 Leave Link  103 at Fri Aug 26 10:13:49 2022, MaxMem= 24159191040 cpu:         3.1
 (Enter /public/home/users/caep010/software/Gaussian09/g09/l202.exe)
                          Input orientation:                          
 ---------------------------------------------------------------------
 Center     Atomic      Atomic             Coordinates (Angstroms)
 Number     Number       Type             X           Y           Z
 ---------------------------------------------------------------------
      1          6           0        1.994746   -0.165518    0.297724
      2          7           0        1.065118    0.553204   -0.161915
      3          6           0       -0.316560    0.148720    0.104058
      4          7           0       -1.076481    1.383611    0.183023
      5          7           0       -0.858361   -0.744171   -0.928399
      6          8           0       -0.382601   -0.555626    1.318829
      7          1           0        1.837968   -1.027072    0.958583
      8          1           0        3.026886    0.105072    0.068636
      9          1           0       -0.891415    1.939638   -0.643249
     10          1           0       -2.065622    1.156008    0.168171
     11          1           0       -0.309077   -1.597686   -0.938485
     12          1           0       -0.742198   -0.317269   -1.840896
     13          1           0       -1.282403   -0.879010    1.414019
 ---------------------------------------------------------------------
                    Distance matrix (angstroms):
                    1          2          3          4          5
     1  C    0.000000
     2  N    1.261760   0.000000
     3  C    2.340596   1.464030   0.000000
     4  N    3.441714   2.322715   1.452127   0.000000
     5  N    3.158867   2.443450   1.468595   2.410455   0.000000
     6  O    2.616605   2.349042   1.405750   2.352056   2.304763
     7  H    1.097082   2.085686   2.598979   3.860946   3.303169
     8  H    1.091336   2.025466   3.343919   4.299462   4.100054
     9  H    3.694189   2.445793   2.023935   1.012986   2.699117
    10  H    4.271979   3.205286   2.019395   1.015097   2.504121
    11  H    2.981093   2.667920   2.033933   3.276403   1.015038
    12  H    3.476721   2.615930   2.044789   2.664767   1.014095
    13  H    3.534811   3.169488   1.924858   2.584030   2.384306
                    6          7          8          9         10
     6  O    0.000000
     7  H    2.298470   0.000000
     8  H    3.691085   1.867427   0.000000
     9  H    3.214807   4.337829   4.384689   0.000000
    10  H    2.662004   4.541872   5.200770   1.628263   0.000000
    11  H    2.487320   2.921347   3.878444   3.597074   3.448618
    12  H    3.189042   3.872746   4.246255   2.559347   2.821054
    13  H    0.960875   3.156906   4.620438   3.511410   2.511348
                   11         12         13
    11  H    0.000000
    12  H    1.625240   0.000000
    13  H    2.645399   3.346916   0.000000
 Stoichiometry    C2H7N3O
 Framework group  C1[X(C2H7N3O)]
 Deg. of freedom    33
 Full point group                 C1      NOp   1
 RotChk:  IX=3 Diff= 1.54D-01
 Largest Abelian subgroup         C1      NOp   1
 Largest concise Abelian subgroup C1      NOp   1
                         Standard orientation:                         
 ---------------------------------------------------------------------
 Center     Atomic      Atomic             Coordinates (Angstroms)
 Number     Number       Type             X           Y           Z
 ---------------------------------------------------------------------
      1          6           0        2.001979   -0.122250    0.014616
      2          7           0        0.917583   -0.739458    0.202170
      3          6           0       -0.335956   -0.018521   -0.026462
      4          7           0       -1.282933   -1.018444   -0.486959
      5          7           0       -0.827859    0.665981    1.176144
      6          8           0       -0.144745    0.974039   -1.003395
      7          1           0        2.069782    0.893987   -0.393127
      8          1           0        2.940435   -0.638770    0.223238
      9          1           0       -1.289007   -1.793725    0.164994
     10          1           0       -2.213784   -0.613879   -0.470610
     11          1           0       -0.144851    1.363870    1.453187
     12          1           0       -0.888809    0.004107    1.942040
     13          1           0       -0.959479    1.480175   -1.060971
 ---------------------------------------------------------------------
 Rotational constants (GHZ):      5.0810584      3.1094469      3.0032689
 Leave Link  202 at Fri Aug 26 10:13:49 2022, MaxMem= 24159191040 cpu:         0.2
 (Enter /public/home/users/caep010/software/Gaussian09/g09/l301.exe)
 Standard basis: GTBas3 (6D, 7F)
 Ernie: Thresh=  0.10000D-02 Tol=  0.10000D-05 Strict=F.
 There are   221 symmetry adapted cartesian basis functions of A   symmetry.
 There are   203 symmetry adapted basis functions of A   symmetry.
   203 basis functions,   313 primitive gaussians,   221 cartesian basis functions
    24 alpha electrons       24 beta electrons
       nuclear repulsion energy       257.6701078156 Hartrees.
 IExCor=  402 DFT=T Ex+Corr=B3LYP ExCW=0 ScaHFX=  0.200000
 ScaDFX=  0.800000  0.720000  1.000000  0.810000 ScalE2=  1.000000  1.000000
 IRadAn=      0 IRanWt=     -1 IRanGd=            0 ICorTp=0 IEmpDi=  4
 NAtoms=   13 NActive=   13 NUniq=   13 SFac= 1.00D+00 NAtFMM=   60 NAOKFM=F Big=F
 Integral buffers will be    131072 words long.
 Raffenetti 2 integral format.
 Two-electron integral symmetry is turned on.
 Leave Link  301 at Fri Aug 26 10:13:49 2022, MaxMem= 24159191040 cpu:         1.6
 (Enter /public/home/users/caep010/software/Gaussian09/g09/l302.exe)
 NPDir=0 NMtPBC=     1 NCelOv=     1 NCel=       1 NClECP=     1 NCelD=      1
         NCelK=      1 NCelE2=     1 NClLst=     1 CellRange=     0.0.
 One-electron integrals computed using PRISM.
 NBasis=   203 RedAO= T EigKep=  3.54D-04  NBF=   203
 NBsUse=   203 1.00D-06 EigRej= -1.00D+00 NBFU=   203
 Precomputing XC quadrature grid using
 IXCGrd= 4 IRadAn=           0 IRanWt=          -1 IRanGd=           0 AccXCQ= 0.00D+00.
 Generated NRdTot=       0 NPtTot=           0 NUsed=           0 NTot=          32
 NSgBfM=   221   221   221   221   221 MxSgAt=    13 MxSgA2=    13.
 Leave Link  302 at Fri Aug 26 10:13:50 2022, MaxMem= 24159191040 cpu:        15.5
 (Enter /public/home/users/caep010/software/Gaussian09/g09/l303.exe)
 DipDrv:  MaxL=1.
 Leave Link  303 at Fri Aug 26 10:13:50 2022, MaxMem= 24159191040 cpu:         0.7
 (Enter /public/home/users/caep010/software/Gaussian09/g09/l401.exe)
 Initial guess from the checkpoint file:  "G4.Frag_1088.chk"
 B after Tr=     0.000000   -0.000000    0.000000
         Rot=    0.998331   -0.046637    0.030554   -0.015087 Ang=  -6.62 deg.
 Guess basis will be translated and rotated to current coordinates.
 JPrj=2 DoOrth=T DoCkMO=T.
 Generating alternative initial guess.
 ExpMin= 1.61D-01 ExpMax= 5.48D+03 ExpMxC= 8.25D+02 IAcc=1 IRadAn=         1 AccDes= 0.00D+00
 Harris functional with IExCor=  402 and IRadAn=       1 diagonalized for initial guess.
 HarFok:  IExCor=  402 AccDes= 0.00D+00 IRadAn=         1 IDoV= 1 UseB2=F ITyADJ=14
 ICtDFT=  3500011 ScaDFX=  1.000000  1.000000  1.000000  1.000000
 FoFCou: FMM=F IPFlag=           0 FMFlag=      100000 FMFlg1=           0
         NFxFlg=           0 DoJE=T BraDBF=F KetDBF=T FulRan=T
         wScrn=  0.000000 ICntrl=     500 IOpCl=  0 I1Cent=   200000004 NGrid=           0
         NMat0=    1 NMatS0=      1 NMatT0=    0 NMatD0=    1 NMtDS0=    0 NMtDT0=    0
 Petite list used in FoFCou.
 Harris En= -319.903979511351    
 Leave Link  401 at Fri Aug 26 10:13:51 2022, MaxMem= 24159191040 cpu:        16.7
 (Enter /public/home/users/caep010/software/Gaussian09/g09/l502.exe)
 Closed shell SCF:
 Using DIIS extrapolation, IDIIS=  1040.
 Integral symmetry usage will be decided dynamically.
[...]
 Alpha virt. eigenvalues --   14.52149  14.53324  14.56627  14.57443  14.60702
 Alpha virt. eigenvalues --   14.64812  14.66332  14.68530  14.75237  14.78342
 Alpha virt. eigenvalues --   14.80885  14.81775  14.85983  14.89713  14.93067
 Alpha virt. eigenvalues --   14.94287  14.99143  14.99513  15.02883  15.05012
 Alpha virt. eigenvalues --   15.06219  15.09942  15.12942  15.14602  15.19083
 Alpha virt. eigenvalues --   15.21293  15.25011  15.26617  15.33268  15.35918
 Alpha virt. eigenvalues --   15.37301  15.38820  15.42717  15.45543  15.48835
 Alpha virt. eigenvalues --   15.52772  15.57008  15.61966  15.63728  15.74068
 Alpha virt. eigenvalues --   15.76651  15.79919  15.83846  15.89310  15.90829
 Alpha virt. eigenvalues --   15.95223  16.00095  16.02363  16.11884  16.16048
 Alpha virt. eigenvalues --   16.23440  16.26375  16.32053  16.35498  16.44397
 Alpha virt. eigenvalues --   16.46709  16.52173  16.74942  17.00270  17.14718
 Alpha virt. eigenvalues --   17.39327  17.45726  17.51046  17.57812  17.77446
 Alpha virt. eigenvalues --   18.05611  18.33025  18.35485  18.39283  18.46000
 Alpha virt. eigenvalues --   18.47684  18.50381  18.65182  18.72149  18.77629
 Alpha virt. eigenvalues --   18.86409  18.88176  18.93412  19.04831  19.09182
 Alpha virt. eigenvalues --   19.12727  19.17854  19.22392  19.30575  19.41109
 Alpha virt. eigenvalues --   19.42126  19.51625  19.55643  19.62254  19.65164
 Alpha virt. eigenvalues --   19.71102  19.73497  19.77901  19.88616  20.00427
 Alpha virt. eigenvalues --   20.06381  20.14327  20.26530  20.34482  20.37193
 Alpha virt. eigenvalues --   20.40862  21.14063  22.49270  22.51347  23.11414
 Alpha virt. eigenvalues --   23.22891  23.72499  24.01024  39.90438  40.97555
 Alpha virt. eigenvalues --   50.82582  50.90825  51.49108  63.41929
          Condensed to atoms (all electrons):
               1          2          3          4          5          6
     1  C    4.837738   0.614185  -0.033146   0.008150  -0.010250  -0.013025
     2  N    0.614185   6.774463   0.245125  -0.079581  -0.062793  -0.039192
     3  C   -0.033146   0.245125   4.389868   0.330403   0.312368   0.252036
     4  N    0.008150  -0.079581   0.330403   6.855427  -0.067535  -0.050072
     5  N   -0.010250  -0.062793   0.312368  -0.067535   6.818864  -0.059410
     6  O   -0.013025  -0.039192   0.252036  -0.050072  -0.059410   8.223271
     7  H    0.394881  -0.001473  -0.017124  -0.001144   0.000704  -0.001620
     8  H    0.429509  -0.064741   0.008727  -0.000149  -0.001740  -0.001308
     9  H   -0.000338  -0.010562  -0.018649   0.385258   0.000251   0.002557
    10  H   -0.000979   0.005838  -0.040352   0.393658   0.002546   0.002196
    11  H    0.000283  -0.001274  -0.016182   0.004663   0.385207  -0.007156
    12  H   -0.001943  -0.004751  -0.024687  -0.001802   0.384502   0.003502
    13  H   -0.001150   0.000172  -0.014457   0.000053   0.004697   0.310233
               7          8          9         10         11         12
     1  C    0.394881   0.429509  -0.000338  -0.000979   0.000283  -0.001943
     2  N   -0.001473  -0.064741  -0.010562   0.005838  -0.001274  -0.004751
     3  C   -0.017124   0.008727  -0.018649  -0.040352  -0.016182  -0.024687
     4  N   -0.001144  -0.000149   0.385258   0.393658   0.004663  -0.001802
     5  N    0.000704  -0.001740   0.000251   0.002546   0.385207   0.384502
     6  O   -0.001620  -0.001308   0.002557   0.002196  -0.007156   0.003502
     7  H    0.449747  -0.037297   0.000189  -0.000051   0.000129   0.000063
     8  H   -0.037297   0.452427  -0.000150   0.000039   0.000046  -0.000072
     9  H    0.000189  -0.000150   0.348594  -0.026944  -0.000319  -0.000039
    10  H   -0.000051   0.000039  -0.026944   0.339849   0.000407  -0.000261
    11  H    0.000129   0.000046  -0.000319   0.000407   0.363332  -0.027260
    12  H    0.000063  -0.000072  -0.000039  -0.000261  -0.027260   0.364288
    13  H   -0.000114   0.000015   0.001009  -0.000563   0.000201  -0.000359
              13
     1  C   -0.001150
     2  N    0.000172
     3  C   -0.014457
     4  N    0.000053
     5  N    0.004697
     6  O    0.310233
     7  H   -0.000114
     8  H    0.000015
     9  H    0.001009
    10  H   -0.000563
    11  H    0.000201
    12  H   -0.000359
    13  H    0.298554
 Mulliken charges:
               1
     1  C   -0.223915
     2  N   -0.375417
     3  C    0.626070
     4  N   -0.777328
     5  N   -0.707412
     6  O   -0.622012
     7  H    0.213110
     8  H    0.214695
     9  H    0.319143
    10  H    0.324615
    11  H    0.297922
    12  H    0.308819
    13  H    0.401710
 Sum of Mulliken charges =  -0.00000
 Mulliken charges with hydrogens summed into heavy atoms:
               1
     1  C    0.203891
     2  N   -0.375417
     3  C    0.626070
     4  N   -0.133570
     5  N   -0.100671
     6  O   -0.220302
 Electronic spatial extent (au):  <R**2>=            529.0843
 Charge=             -0.0000 electrons
 Dipole moment (field-independent basis, Debye):
    X=              1.2619    Y=             -0.1523    Z=              0.2554  Tot=              1.2964
 Quadrupole moment (field-independent basis, Debye-Ang):
   XX=            -33.6774   YY=            -36.3245   ZZ=            -35.8578
   XY=              2.2835   XZ=             -2.6634   YZ=              1.4886
 Traceless Quadrupole moment (field-independent basis, Debye-Ang):
   XX=              1.6092   YY=             -1.0380   ZZ=             -0.5712
   XY=              2.2835   XZ=             -2.6634   YZ=              1.4886
 Octapole moment (field-independent basis, Debye-Ang**2):
  XXX=             10.7709  YYY=             10.9298  ZZZ=             -5.1644  XYY=             -0.9711
  XXY=             -6.4528  XXZ=             -1.5934  XZZ=             -4.5689  YZZ=             -4.6074
  YYZ=              2.8258  XYZ=              1.5044
 Hexadecapole moment (field-independent basis, Debye-Ang**3):
 XXXX=           -306.6135 YYYY=           -165.1361 ZZZZ=           -144.2991 XXXY=             17.5010
 XXXZ=              5.0202 YYYX=             -3.3929 YYYZ=             -7.2123 ZZZX=             -8.0501
 ZZZY=             13.4460 XXYY=            -93.8632 XXZZ=            -84.2208 YYZZ=            -47.7428
 XXYZ=             -4.4624 YYXZ=             -4.9953 ZZXY=              2.5325
 N-N= 2.575891321999D+02 E-N=-1.262664272893D+03  KE= 3.177080296722D+02
 No NMR shielding tensors so no spin-rotation constants.
 Leave Link  601 at Fri Aug 26 10:34:48 2022, MaxMem= 24159191040 cpu:        32.7
 (Enter /public/home/users/caep010/software/Gaussian09/g09/l9999.exe)
 1\1\GINC-B1851\SP\RHF\GFHFB2\C2H7N3O1\ROOT\26-Aug-2022\0\\#P Geom=AllC
 heck Guess=TCheck SCRF=Check HF/GFHFB2 SCF=Tight\\Frag_1088\\0,1\C,0,1
 .9334714165,-0.0842496863,0.3605850935\N,0,0.9882684291,0.4008767861,-
 0.3237943834\C,0,-0.3944585335,-0.0138157378,-0.0138967091\N,0,-1.1125
 090447,1.2084768295,0.2855975575\N,0,-0.9475872003,-0.7291609235,-1.15
 62129033\O,0,-0.5145573634,-0.8961400192,1.074651866\H,0,1.7751169461,
 -0.7825064684,1.188058881\H,0,2.9591132214,0.1949737928,0.1155479351\H
 ,0,-0.7061989273,1.9751451039,-0.2393356928\H,0,-2.0767688144,1.091987
 445,-0.0117479141\H,0,-0.6453747787,-1.6984585467,-1.1078230173\H,0,-0
 .5521614051,-0.333722775,-2.0049608981\H,0,-0.7063539457,-0.3335058004
 ,1.8334301851\\Version=ES64L-G09RevE.01\State=1-A\HF=-318.1475844\RMSD
 =2.929e-09\Dipole=0.5041548,0.072224,0.0276357\Quadrupole=0.5698831,-1
 .3344131,0.76453,-2.608749,0.9897184,-0.0413518\PG=C01 [X(C2H7N3O1)]\\
 @


 We're simply so accustomed to the marvels of everyday thought
 that we never wonder about it.
 -- Marvin Minsky in "Why people think computers are smart"
 Diagonal vibrational polarizability:
        0.0000000       0.0000000       0.0000000

 Temperature=              298.150000 Pressure=                      1.000000
 E(ZPE)=                     0.106227 E(Thermal)=                    0.113146
 E(CCSD(T))=              -318.981397 E(Empiric)=                   -0.125046
 DE(Plus)=                  -0.031467 DE(2DF)=                      -0.262235
 E(Delta-G3XP)=             -0.400475 DE(HF)=                       -0.031125
 G4(0 K)=                 -319.725518 G4 Energy=                  -319.718599
 G4 Enthalpy=             -319.717654 G4 Free Energy=             -319.755472
 1\1\GINC-B1851\Mixed\G4\G4\C2H7N3O1\ROOT\26-Aug-2022\0\\#P Geom=AllChe
 ck Guess=TCheck SCRF=Check HF/GFHFB2 SCF=Tight\\Frag_1088\\0,1\C,0,1.9
 334714165,-0.0842496863,0.3605850935\N,0,0.9882684291,0.4008767861,-0.
 3237943834\C,0,-0.3944585335,-0.0138157378,-0.0138967091\N,0,-1.112509
 0447,1.2084768295,0.2855975575\N,0,-0.9475872003,-0.7291609235,-1.1562
 129033\O,0,-0.5145573634,-0.8961400192,1.074651866\H,0,1.7751169461,-0
 .7825064684,1.188058881\H,0,2.9591132214,0.1949737928,0.1155479351\H,0
 ,-0.7061989273,1.9751451039,-0.2393356928\H,0,-2.0767688144,1.09198744
 5,-0.0117479141\H,0,-0.6453747787,-1.6984585467,-1.1078230173\H,0,-0.5
 521614051,-0.333722775,-2.0049608981\H,0,-0.7063539457,-0.3335058004,1
 .8334301851\\Version=ES64L-G09RevE.01\State=1-A\MP2/GTBas1=-318.909762
 9\MP4/GTBas1=-318.9817564\CCSD(T)/G3Bas1=-318.9813966\MP2/GTBas2=-318.
 9397109\MP4/GTBas2=-319.0132232\MP2/GTBas3=-319.1573765\MP4/GTBas3=-31
 9.2439915\HF/GTLargeXP=-318.1177674\MP2/GTLargeXP=-319.5877997\HF/GFHF
 B1=-318.1422153\HF/GFHFB2=-318.1475844\G4=-319.7255185\FreqCoord=3.653
 731463,-0.1592088338,0.6814070744,1.8675566767,0.7575473387,-0.6118827
 081,-0.7454185991,-0.0261079608,-0.0262609744,-2.1023374148,2.28369024
 57,0.5397011678,-1.7906802956,-1.3779144522,-2.1849257386,-0.972372496
 5,-1.693459213,2.0307977149,3.354484882,-1.4787229225,2.2451059148,5.5
 919135847,0.3684470716,0.2183539526,-1.334522568,3.7324833191,-0.45227
 89132,-3.9245243006,2.0635572116,-0.0222003402,-1.2195815847,-3.209621
 5014,-2.0934821065,-1.0434338368,-0.630644649,-3.7888270045,-1.3348155
 102,-0.6302346265,3.4646809336\PG=C01 [X(C2H7N3O1)]\NImag=0\\0.8224118
 0,-0.04947685,0.37285129,0.12861729,-0.29026125,0.50253520,-0.41639131
 ,0.16631891,-0.23683308,0.65735423,0.13528242,-0.15464816,0.14113363,-
 0.14875254,0.24850522,-0.20022683,0.14427903,-0.24159630,0.22216402,-0
 .16968164,0.34264057,-0.05358004,-0.00318055,-0.00441066,-0.11950204,0
 .00540946,-0.00011706,0.46334010,0.01226700,0.00916140,-0.00581584,-0.
 01063752,-0.09069394,0.00037026,-0.03625103,0.52128831,-0.02492568,-0.
 00409160,0.00469897,0.03097205,0.00249850,-0.08572054,0.00410855,0.004
 38605,0.53075656,-0.00203522,-0.00215384,0.00367805,-0.04491647,0.0366
 4108,0.01174312,-0.12745353,0.04594358,0.03299910,0.65370634,-0.001326
 50,-0.00076132,-0.00042248,0.00797617,0.00686733,-0.00022858,0.0343210
 3,-0.16586455,-0.03436982,0.08080601,0.57411838,0.00018589,-0.00044890
 ,0.00004013,0.01064651,-0.00375820,0.00576902,-0.00061629,0.01503823,-
 0.07936247,0.00764016,-0.13343143,0.25155278,-0.00241525,-0.00452451,0
 .00217061,-0.02664642,-0.02823059,-0.03377845,-0.08196236,-0.00873526,
 -0.01481438,0.01018369,0.00709014,0.00751625,0.22406959,-0.00096489,-0
 .00049414,0.00133115,-0.01776609,-0.00663756,-0.01564148,-0.03795248,-
 0.12325123,-0.03999769,-0.00410956,-0.03664706,-0.04029871,-0.00734678
 ,0.65627243,0.00124117,-0.00252175,0.00180582,-0.01639483,-0.00822697,
 -0.00377456,-0.05160570,-0.02787034,-0.14737095,-0.00221074,-0.0157388
 0,-0.00206433,-0.06537657,-0.07170788,0.58031188,-0.00160647,-0.001984
 13,0.00252043,-0.01436896,-0.02471080,0.02996978,-0.07362283,-0.004135
 82,0.01310906,0.01156928,0.02035577,-0.01304242,0.00756194,0.00579407,
 -0.01202902,0.09641768,0.00535113,-0.00292117,0.00498737,-0.01989488,-
 0.00670918,0.02043036,0.00681114,-0.13565911,0.01937167,0.00160421,-0.
 05160666,0.02937564,0.00102681,0.01038930,-0.00791907,-0.05462306,0.39
 954269,-0.00706645,0.00458043,-0.00515415,0.02246316,0.02029755,-0.014
 53014,0.00213816,0.06141695,-0.15551991,0.00043344,0.01472543,0.005166
 41,0.00148096,0.02479628,-0.05932174,-0.10086582,0.12091548,0.55032504
 ,-0.06732927,-0.03233076,0.03810844,0.00540951,0.01944745,-0.02636620,
 0.00257901,0.00320502,-0.00305596,-0.00040504,-0.00111089,0.00082383,-
 0.00045077,-0.00050083,0.00081180,-0.00173276,-0.00055207,0.00125905,0
 .06333814,-0.02782184,-0.15390076,0.12210533,0.00575506,0.00790975,0.0
 2928241,-0.00284535,-0.00750867,-0.00354513,0.00113913,-0.00015993,-0.
 00014288,-0.00144795,-0.00035760,-0.00096019,-0.00265331,0.00064327,-0
 .00311739,0.02686608,0.15198470,0.03256485,0.12071089,-0.19372524,-0.0
 1084936,0.03004034,-0.00653651,0.00637727,-0.00223411,-0.00582622,0.00
 043422,0.00002127,0.00031409,-0.00142827,-0.00053498,-0.00116203,0.002
 58768,-0.00251841,0.00192728,-0.02969955,-0.15040566,0.20429570,-0.276
 59896,-0.07128844,0.06443265,-0.03443391,-0.00012236,-0.00287932,0.003
 09517,0.00169558,-0.00126999,-0.00077092,-0.00009703,0.00023106,-0.001
 19572,-0.00060439,-0.00091293,0.00025465,-0.00018801,0.00038994,-0.001
 52594,-0.00016157,-0.00047608,0.31092120,-0.07364757,-0.07044247,0.028
 24564,0.01901347,0.00007403,-0.01026558,-0.00154390,0.00787252,0.01033
 397,-0.00170758,-0.00025562,-0.00036755,0.00393141,0.00123570,0.001277
 60,-0.00143507,0.00068732,-0.00130584,-0.01517216,0.00168438,0.0055454
 6,0.07072579,0.05867972,0.06869345,0.02824926,-0.06969836,-0.02515156,
 -0.01117456,0.00110768,-0.00186975,0.01066207,0.00398423,-0.00252703,-
 0.00073664,0.00001304,0.00198025,0.00039286,0.00092770,0.00157435,-0.0
 0134916,0.00189569,0.01750050,0.00662719,0.00053560,-0.05929585,-0.033
 29147,0.06123110,-0.00104287,-0.00000900,0.00019067,-0.00167147,0.0008
 3154,-0.00118496,0.01211630,0.01191546,-0.01186558,-0.11995684,-0.1094
 8806,0.07790638,-0.00052994,0.00031634,0.00002209,-0.00295546,0.007180
 41,-0.00229981,0.00053587,0.00035801,0.00044634,0.00005178,-0.00022512
 ,-0.00018224,0.12605832,0.00034276,0.00009958,-0.00044640,-0.00330547,
 0.00309299,0.00087062,-0.01448595,-0.02576112,0.02214750,-0.10583479,-
 0.25591698,0.14073522,0.00063893,0.00008333,-0.00140410,0.00301274,-0.
 00463452,0.00064351,-0.00037684,-0.00001628,-0.00046123,-0.00011911,0.
 00001311,-0.00011835,0.11895836,0.28643085,-0.00018162,0.00021513,-0.0
 0060865,-0.00042883,-0.00105839,0.00011294,-0.00176503,-0.01344390,-0.
 00239065,0.09700396,0.18784725,-0.12470675,0.00108532,-0.00171609,-0.0
 0109641,-0.00175323,0.00502623,-0.00039061,-0.00002370,0.00023101,0.00
 010641,-0.00013918,-0.00009876,0.00000317,-0.08679234,-0.16320535,0.12
 579436,-0.00008432,-0.00042960,0.00092433,-0.00313293,0.00456064,0.000
 48315,-0.02241978,-0.00233060,-0.00748797,-0.37815885,-0.04088225,-0.0
 9183175,0.00211612,-0.00421529,-0.00033135,0.00037269,0.00027071,-0.00
 021999,-0.00003083,0.00005270,-0.00001732,-0.00009178,-0.00015552,-0.0
 0035078,-0.01307512,0.00046192,-0.00832866,0.41393129,0.00088984,0.000
 70825,-0.00071959,0.00278584,-0.00475206,-0.00104976,0.03726097,0.0049
 6582,0.00984099,-0.05066982,-0.06725912,-0.00405033,-0.00141513,0.0019
 4112,0.00106165,-0.00168298,-0.00177026,-0.00032268,0.00006634,-0.0004
 1814,-0.00026196,0.00019922,0.00049710,0.00069095,-0.02972661,-0.00185
 611,-0.01237857,0.04258390,0.06744002,0.00122920,0.00026252,0.00077441
 ,0.00280810,-0.00391982,-0.00092108,0.01265064,-0.00665293,-0.00113718
 ,-0.14691333,-0.00556996,-0.05485408,-0.00006698,0.00327390,0.00006298
 ,0.00173297,0.00262485,-0.00121700,-0.00003663,0.00011295,0.00001407,0
 .00001168,0.00016212,0.00018048,0.02222221,0.00294689,0.00230066,0.108
 11200,0.00712770,0.05466372,-0.00094987,0.00061994,-0.00028799,0.00010
 817,-0.00050616,-0.00113060,-0.00300250,-0.01767889,-0.00436382,0.0014
 5890,0.00147767,0.00140064,-0.05041506,0.14308076,-0.00895684,-0.00047
 664,-0.00124752,0.00135625,0.00004883,0.00002852,-0.00005740,0.0000264
 4,0.00003108,0.00000405,-0.00007403,0.00012459,0.00017453,0.00102602,-
 0.00036867,-0.00049207,0.05257622,-0.00022643,0.00034367,-0.00029373,-
 0.00006643,0.00128771,0.00090927,0.01049151,-0.02117240,0.00099806,-0.
 00133828,-0.00141888,-0.00404694,0.09226776,-0.38266718,0.02023398,-0.
 00082426,0.00228745,0.00309443,-0.00008451,0.00004954,0.00001371,0.000
 04622,-0.00018823,-0.00013092,0.00021436,-0.00000779,-0.00035326,-0.00
 077374,0.00004875,0.00027703,-0.10814582,0.41516745,-0.00044972,-0.000
 22959,0.00036853,0.00064301,0.00101173,-0.00042693,0.01108068,-0.03168
 695,0.00477252,-0.00047982,-0.00636496,-0.00628755,-0.00823598,0.02113
 440,-0.06160599,-0.00010131,0.00063040,0.00093152,-0.00020367,0.000026
 66,-0.00005862,-0.00001502,0.00006891,-0.00014194,0.00018480,-0.000152
 87,-0.00076810,-0.00084699,0.00021822,0.00047914,0.00947211,-0.0194219
 9,0.06307409,-0.00014437,-0.00014775,-0.00027934,-0.00037652,0.0012093
 8,0.00049100,-0.00005936,0.00377089,-0.01785489,-0.00063189,0.00137204
 ,-0.00095437,-0.08017275,-0.07714851,0.15970051,0.00081820,-0.00122029
 ,-0.00377020,0.00039079,-0.00024756,-0.00012448,0.00022926,-0.00005634
 ,0.00004153,0.00056273,0.00026444,0.00042700,-0.00031984,-0.00033219,0
 .00078497,-0.00006303,0.00804751,-0.01146449,0.07966914,-0.00067451,-0
 .00043739,0.00035728,-0.00025706,-0.00044254,-0.00120025,0.00963880,0.
 00932785,-0.01414824,-0.00055066,-0.00074551,0.00183998,-0.05339472,-0
 .11751595,0.11040124,-0.00173254,0.00048077,-0.00391815,0.00026294,-0.
 00009166,0.00007416,-0.00001583,0.00016790,0.00004913,-0.00009855,-0.0
 0071421,-0.00069403,0.00029161,0.00024035,-0.00031273,-0.01752565,-0.0
 1343308,0.03429710,0.06432511,0.12234314,-0.00005712,-0.00018835,0.000
 19292,0.00136661,0.00224286,0.00317429,0.01633246,0.01603083,-0.026285
 85,-0.00068108,-0.00088397,0.00140316,0.10783459,0.11453156,-0.3024161
 7,-0.00107942,-0.00319690,-0.00702902,0.00040126,-0.00034383,-0.000000
 59,0.00005738,-0.00019180,-0.00000534,0.00023412,-0.00072924,-0.000318
 71,-0.00008767,-0.00015589,-0.00027822,0.00280563,-0.00176440,-0.00065
 849,-0.12581576,-0.12629332,0.33349661,-0.00023387,-0.00141342,0.00116
 859,-0.00143189,-0.00105952,0.00083235,0.00047187,0.00097159,0.0044495
 3,-0.00258944,-0.00049408,0.00009410,-0.00014307,0.00141767,-0.0039575
 9,-0.02223132,0.05548141,0.08470131,-0.00082755,0.00097809,0.00024211,
 0.00003872,0.00024151,-0.00041693,-0.00001929,0.00031842,0.00072179,-0
 .00013269,0.00040927,-0.00204277,-0.00026346,0.00039211,0.00041641,0.0
 0009764,-0.00026896,-0.00131099,0.02726436,0.00000544,0.00044124,-0.00
 020111,-0.00116946,-0.00385359,0.00192533,-0.00767365,0.01729512,0.026
 57573,0.00023053,-0.00035009,-0.00044412,0.00013987,-0.00235118,0.0033
 7463,0.06461939,-0.21072990,-0.24180601,0.00028023,0.00018140,0.000010
 51,-0.00007007,-0.00002544,0.00012964,-0.00022714,-0.00081284,-0.00037
 128,0.00056552,0.00021427,-0.00033254,0.00011015,-0.00029702,0.0004689
 2,0.00016328,0.00082034,0.00094243,-0.05697409,0.19946768,0.00037558,-
 0.00055582,0.00036673,-0.00140578,0.00059497,0.00070154,0.00769672,-0.
 02020032,-0.04059851,-0.00112006,-0.00484733,0.00301655,0.00163266,0.0
 0443667,-0.00429621,0.07737695,-0.18837847,-0.31708337,0.00048083,0.00
 012951,0.00011606,-0.00013434,-0.00011271,-0.00003307,0.00111831,-0.00
 082618,0.00196233,-0.00001700,-0.00000074,-0.00006790,0.00007551,0.000
 48474,0.00032182,-0.00118148,-0.00045219,-0.00127460,-0.08489791,0.209
 72785,0.35686861\\-0.00000061,0.00000760,-0.00000302,0.00000300,0.0000
 0351,-0.00000136,0.00000508,0.00001142,0.00002141,0.00000063,0.0000006
 8,-0.00001713,-0.00000052,-0.00001030,0.00000549,0.00000243,-0.0000077
 4,-0.00000802,-0.00000179,0.00000202,-0.00000284,-0.00000567,0.0000073
 5,-0.00000864,-0.00000581,-0.00000279,0.00000735,-0.00000122,-0.000002
 95,0.00000635,0.00000114,-0.00000673,-0.00000086,-0.00000259,-0.000001
 64,0.00000616,0.00000593,-0.00000044,-0.00000488\\\@
 Job cpu time:       0 days  3 hours 38 minutes 44.5 seconds.
 File lengths (MBytes):  RWF=   4827 Int=      0 D2E=      0 Chk=     33 Scr=      1
 Normal termination of Gaussian 09 at Fri Aug 26 10:34:48 2022.
