 Entering Gaussian System, Link 0=g09
 Input=G4.Frag_949.gjf
 Output=G4.Frag_949.log
 Initial command:
 /public/home/users/caep010/software/Gaussian09/g09/l1.exe "/public/home/users/caep010/.cache/gau_scr/Gau-211363.inp" -scrdir="/public/home/users/caep010/.cache/gau_scr/"
 Entering Link 1 = /public/home/users/caep010/software/Gaussian09/g09/l1.exe PID=    211364.
  
 Copyright (c) 1988,1990,1992,1993,1995,1998,2003,2009,2015,
            Gaussian, Inc.  All Rights Reserved.
  
 This is part of the Gaussian(R) 09 program.  It is based on
 the Gaussian(R) 03 system (copyright 2003, Gaussian, Inc.),
 the Gaussian(R) 98 system (copyright 1998, Gaussian, Inc.),
 the Gaussian(R) 94 system (copyright 1995, Gaussian, Inc.),
 the Gaussian 92(TM) system (copyright 1992, Gaussian, Inc.),
 the Gaussian 90(TM) system (copyright 1990, Gaussian, Inc.),
 the Gaussian 88(TM) system (copyright 1988, Gaussian, Inc.),
 the Gaussian 86(TM) system (copyright 1986, Carnegie Mellon
 University), and the Gaussian 82(TM) system (copyright 1983,
 Carnegie Mellon University). Gaussian is a federally registered
 trademark of Gaussian, Inc.
  
 This software contains proprietary and confidential information,
 including trade secrets, belonging to Gaussian, Inc.
  
 This software is provided under written license and may be
 used, copied, transmitted, or stored only in accord with that
 written license.
  
 The following legend is applicable only to US Government
 contracts under FAR:
  
                    RESTRICTED RIGHTS LEGEND
  
 Use, reproduction and disclosure by the US Government is
 subject to restrictions as set forth in subparagraphs (a)
 and (c) of the Commercial Computer Software - Restricted
 Rights clause in FAR 52.227-19.
  
 Gaussian, Inc.
 340 Quinnipiac St., Bldg. 40, Wallingford CT 06492
  
  
 ---------------------------------------------------------------
 Warning -- This program may not be used in any manner that
 competes with the business of Gaussian, Inc. or will provide
 assistance to any competitor of Gaussian, Inc.  The licensee
 of this program is prohibited from giving any competitor of
 Gaussian, Inc. access to this program.  By using this program,
 the user acknowledges that Gaussian, Inc. is engaged in the
 business of creating and licensing software in the field of
 computational chemistry and represents and warrants to the
 licensee that it is not a competitor of Gaussian, Inc. and that
 it will not use this program in any manner prohibited above.
 ---------------------------------------------------------------
  

 Cite this work as:
 Gaussian 09, Revision E.01,
 M. J. Frisch, G. W. Trucks, H. B. Schlegel, G. E. Scuseria, 
 M. A. Robb, J. R. Cheeseman, G. Scalmani, V. Barone, B. Mennucci, 
 G. A. Petersson, H. Nakatsuji, M. Caricato, X. Li, H. P. Hratchian, 
 A. F. Izmaylov, J. Bloino, G. Zheng, J. L. Sonnenberg, M. Hada, 
 M. Ehara, K. Toyota, R. Fukuda, J. Hasegawa, M. Ishida, T. Nakajima, 
 Y. Honda, O. Kitao, H. Nakai, T. Vreven, J. A. Montgomery, Jr., 
 J. E. Peralta, F. Ogliaro, M. Bearpark, J. J. Heyd, E. Brothers, 
 K. N. Kudin, V. N. Staroverov, T. Keith, R. Kobayashi, J. Normand, 
 K. Raghavachari, A. Rendell, J. C. Burant, S. S. Iyengar, J. Tomasi, 
 M. Cossi, N. Rega, J. M. Millam, M. Klene, J. E. Knox, J. B. Cross, 
 V. Bakken, C. Adamo, J. Jaramillo, R. Gomperts, R. E. Stratmann, 
 O. Yazyev, A. J. Austin, R. Cammi, C. Pomelli, J. W. Ochterski, 
 R. L. Martin, K. Morokuma, V. G. Zakrzewski, G. A. Voth, 
 P. Salvador, J. J. Dannenberg, S. Dapprich, A. D. Daniels, 
 O. Farkas, J. B. Foresman, J. V. Ortiz, J. Cioslowski, 
 and D. J. Fox, Gaussian, Inc., Wallingford CT, 2013.
 
 ******************************************
 Gaussian 09:  ES64L-G09RevE.01 30-Nov-2015
                19-Aug-2022 
 ******************************************
 %nproc=32
 Will use up to   32 processors via shared memory.
 %mem=180MB
 %chk=G4.Frag_949.chk
 -----
 #P G4
 -----
 1/14=-1,18=20,19=15,26=3,38=1/1,3;
 2/9=110,12=2,17=6,18=5,40=1/2;
 3/5=35,7=104,11=2,16=1,25=1,30=1,71=1,74=-5/1,2,3;
 4//1;
 5/5=2,38=5/2;
 6/7=2,8=2,9=2,10=2,28=1/1;
 7//1,2,3,16;
 1/14=-1,18=20,19=15,26=3/3(2);
 2/9=110/2;
 99//99;
 2/9=110/2;
 3/5=35,7=104,11=2,16=1,25=1,30=1,71=1,74=-5/1,2,3;
 4/5=5,16=3,69=1/1;
 5/5=2,38=5/2;
 7//1,2,3,16;
 1/14=-1,18=20,19=15,26=3/3(-5);
 2/9=110/2;
 6/7=2,8=2,9=2,10=2,19=2,28=1/1;
 99/9=1/99;
 Leave Link    1 at Fri Aug 19 19:11:25 2022, MaxMem=    23592960 cpu:         2.2
 (Enter /public/home/users/caep010/software/Gaussian09/g09/l101.exe)
 --------
 Frag_949
 --------
 Symbolic Z-matrix:
 Charge =  0 Multiplicity = 1
 C                    -1.046    -0.8935   -0.0056 
 C                    -0.5696    0.3505    0.0595 
 O                    -1.342     1.3941   -0.4389 
 O                     0.6826    0.6405    0.6187 
 N                     1.529    -0.3407    1.0926 
 H                    -0.4848   -1.7363    0.3747 
 H                    -2.0182   -1.0806   -0.4434 
 H                    -1.0054    2.3485   -0.4008 
 H                     1.9276   -0.8326    0.2606 
 H                     2.3269    0.1502    1.554 
 
 Add atom      5 valence  3 ND=      2 dihedral       4      5      9     10
 NAtoms=     10 NQM=       10 NQMF=       0 NMMI=      0 NMMIF=      0
                NMic=       0 NMicF=      0.
                    Isotopes and Nuclear Properties:
 (Nuclear quadrupole moments (NQMom) in fm**2, nuclear magnetic moments (NMagM)
  in nuclear magnetons)

  Atom         1           2           3           4           5           6           7           8           9          10
 IAtWgt=          12          12          16          16          14           1           1           1           1           1
 AtmWgt=  12.0000000  12.0000000  15.9949146  15.9949146  14.0030740   1.0078250   1.0078250   1.0078250   1.0078250   1.0078250
 NucSpn=           0           0           0           0           2           1           1           1           1           1
 AtZEff=   0.0000000   0.0000000   0.0000000   0.0000000   0.0000000   0.0000000   0.0000000   0.0000000   0.0000000   0.0000000
 NQMom=    0.0000000   0.0000000   0.0000000   0.0000000   2.0440000   0.0000000   0.0000000   0.0000000   0.0000000   0.0000000
 NMagM=    0.0000000   0.0000000   0.0000000   0.0000000   0.4037610   2.7928460   2.7928460   2.7928460   2.7928460   2.7928460
 AtZNuc=   6.0000000   6.0000000   8.0000000   8.0000000   7.0000000   1.0000000   1.0000000   1.0000000   1.0000000   1.0000000
 Leave Link  101 at Fri Aug 19 19:11:26 2022, MaxMem=    23592960 cpu:         2.8
 (Enter /public/home/users/caep010/software/Gaussian09/g09/l103.exe)

 GradGradGradGradGradGradGradGradGradGradGradGradGradGradGradGradGradGrad
 Berny optimization.
 Initialization pass.
                           ----------------------------
                           !    Initial Parameters    !
                           ! (Angstroms and Degrees)  !
 --------------------------                            --------------------------
 ! Name  Definition              Value          Derivative Info.                !
 --------------------------------------------------------------------------------
 ! R1    R(1,2)                  1.3337         estimate D2E/DX2                !
 ! R2    R(1,6)                  1.0816         estimate D2E/DX2                !
 ! R3    R(1,7)                  1.0825         estimate D2E/DX2                !
 ! R4    R(2,3)                  1.3907         estimate D2E/DX2                !
 ! R5    R(2,4)                  1.4017         estimate D2E/DX2                !
 ! R6    R(3,8)                  1.0127         estimate D2E/DX2                !
 ! R7    R(4,5)                  1.3798         estimate D2E/DX2                !
 ! R8    R(5,9)                  1.0455         estimate D2E/DX2                !
 ! R9    R(5,10)                 1.0443         estimate D2E/DX2                !
 ! A1    A(2,1,6)              121.6215         estimate D2E/DX2                !
 ! A2    A(2,1,7)              120.1163         estimate D2E/DX2                !
 ! A3    A(6,1,7)              118.2618         estimate D2E/DX2                !
 ! A4    A(1,2,3)              118.9506         estimate D2E/DX2                !
 ! A5    A(1,2,4)              122.1103         estimate D2E/DX2                !
 ! A6    A(3,2,4)              118.9387         estimate D2E/DX2                !
 ! A7    A(2,3,8)              120.6039         estimate D2E/DX2                !
 ! A8    A(2,4,5)              122.541          estimate D2E/DX2                !
 ! A9    A(4,5,9)              107.1656         estimate D2E/DX2                !
 ! A10   A(4,5,10)             106.6288         estimate D2E/DX2                !
 ! A11   A(9,5,10)             106.3484         estimate D2E/DX2                !
 ! D1    D(6,1,2,3)           -179.5906         estimate D2E/DX2                !
 ! D2    D(6,1,2,4)              0.1668         estimate D2E/DX2                !
 ! D3    D(7,1,2,3)              0.1705         estimate D2E/DX2                !
 ! D4    D(7,1,2,4)            179.9278         estimate D2E/DX2                !
 ! D5    D(1,2,3,8)            179.8944         estimate D2E/DX2                !
 ! D6    D(4,2,3,8)              0.1292         estimate D2E/DX2                !
 ! D7    D(1,2,4,5)              2.5357         estimate D2E/DX2                !
 ! D8    D(3,2,4,5)           -177.7069         estimate D2E/DX2                !
 ! D9    D(2,4,5,9)             73.1868         estimate D2E/DX2                !
 ! D10   D(2,4,5,10)          -173.253          estimate D2E/DX2                !
 ! D11   D(4,5,9,10)           113.7498         estimate D2E/DX2                !
 --------------------------------------------------------------------------------
 Trust Radius=3.00D-01 FncErr=1.00D-07 GrdErr=1.00D-06
 Number of steps in this run=     41 maximum allowed number of steps=    100.
 GradGradGradGradGradGradGradGradGradGradGradGradGradGradGradGradGradGrad

 Leave Link  103 at Fri Aug 19 19:11:26 2022, MaxMem=    23592960 cpu:         0.4
 (Enter /public/home/users/caep010/software/Gaussian09/g09/l202.exe)
                          Input orientation:                          
 ---------------------------------------------------------------------
 Center     Atomic      Atomic             Coordinates (Angstroms)
 Number     Number       Type             X           Y           Z
 ---------------------------------------------------------------------
      1          6           0       -1.046000   -0.893500   -0.005600
      2          6           0       -0.569600    0.350500    0.059500
      3          8           0       -1.342000    1.394100   -0.438900
      4          8           0        0.682600    0.640500    0.618700
      5          7           0        1.529000   -0.340700    1.092600
      6          1           0       -0.484800   -1.736300    0.374700
      7          1           0       -2.018200   -1.080600   -0.443400
      8          1           0       -1.005400    2.348500   -0.400800
      9          1           0        1.927600   -0.832600    0.260600
     10          1           0        2.326900    0.150200    1.554000
 ---------------------------------------------------------------------
                    Distance matrix (angstroms):
                    1          2          3          4          5
     1  C    0.000000
     2  C    1.333691   0.000000
     3  O    2.347015   1.390721   0.000000
     4  O    2.393943   1.401717   2.405293   0.000000
     5  N    2.853464   2.439093   3.687501   1.379756   0.000000
     6  H    1.081612   2.112173   3.346064   2.659236   2.553129
     7  H    1.082519   2.097474   2.565425   3.374102   3.935654
     8  H    3.266251   2.096140   1.012734   2.608829   3.985627
     9  H    2.986113   2.770591   4.017185   1.961704   1.045501
    10  H    3.859808   3.265480   4.356577   1.954201   1.044278
                    6          7          8          9         10
     6  H    0.000000
     7  H    1.857564   0.000000
     8  H    4.190229   3.575794   0.000000
     9  H    2.578637   4.015776   4.377138   0.000000
    10  H    3.585427   4.938053   4.444996   1.672788   0.000000
 Stoichiometry    C2H5NO2
 Framework group  C1[X(C2H5NO2)]
 Deg. of freedom    24
 Full point group                 C1      NOp   1
 Largest Abelian subgroup         C1      NOp   1
 Largest concise Abelian subgroup C1      NOp   1
                         Standard orientation:                         
 ---------------------------------------------------------------------
 Center     Atomic      Atomic             Coordinates (Angstroms)
 Number     Number       Type             X           Y           Z
 ---------------------------------------------------------------------
      1          6           0       -0.589503    1.386639   -0.032246
      2          6           0       -0.534365    0.054231   -0.012740
      3          8           0       -1.721791   -0.668010    0.037172
      4          8           0        0.681921   -0.641724   -0.045959
      5          7           0        1.903828   -0.000898   -0.049474
      6          1           0        0.306573    1.990701   -0.077441
      7          1           0       -1.546964    1.891077   -0.006576
      8          1           0       -1.709172   -1.680567    0.051334
      9          1           0        2.056875    0.376924    0.913282
     10          1           0        2.628062   -0.739203   -0.194070
 ---------------------------------------------------------------------
 Rotational constants (GHZ):     10.3356917      3.8628035      2.8426428
 Leave Link  202 at Fri Aug 19 19:11:26 2022, MaxMem=    23592960 cpu:         0.4
 (Enter /public/home/users/caep010/software/Gaussian09/g09/l301.exe)
 Standard basis: GTBas3 (6D, 7F)
 Ernie: Thresh=  0.10000D-02 Tol=  0.10000D-05 Strict=F.
 There are   180 symmetry adapted cartesian basis functions of A   symmetry.
 There are   165 symmetry adapted basis functions of A   symmetry.
   165 basis functions,   255 primitive gaussians,   180 cartesian basis functions
    20 alpha electrons       20 beta electrons
       nuclear repulsion energy       178.0076026295 Hartrees.
 IExCor=  402 DFT=T Ex+Corr=B3LYP ExCW=0 ScaHFX=  0.200000
 ScaDFX=  0.800000  0.720000  1.000000  0.810000 ScalE2=  1.000000  1.000000
 IRadAn=      0 IRanWt=     -1 IRanGd=            0 ICorTp=0 IEmpDi=  4
 NAtoms=   10 NActive=   10 NUniq=   10 SFac= 1.00D+00 NAtFMM=   60 NAOKFM=F Big=F
 Integral buffers will be    131072 words long.
 Raffenetti 2 integral format.
 Two-electron integral symmetry is turned on.
 Leave Link  301 at Fri Aug 19 19:11:26 2022, MaxMem=    23592960 cpu:         2.6
 (Enter /public/home/users/caep010/software/Gaussian09/g09/l302.exe)
 NPDir=0 NMtPBC=     1 NCelOv=     1 NCel=       1 NClECP=     1 NCelD=      1
         NCelK=      1 NCelE2=     1 NClLst=     1 CellRange=     0.0.
 One-electron integrals computed using PRISM.
 PrsmSu:  requested number of processors reduced to:   3 ShMem   1 Linda.
 PrsmSu:  requested number of processors reduced to:  11 ShMem   1 Linda.
 NBasis=   165 RedAO= T EigKep=  1.02D-03  NBF=   165
 NBsUse=   165 1.00D-06 EigRej= -1.00D+00 NBFU=   165
 Precomputing XC quadrature grid using
 IXCGrd= 4 IRadAn=           0 IRanWt=          -1 IRanGd=           0 AccXCQ= 0.00D+00.
 Generated NRdTot=       0 NPtTot=           0 NUsed=           0 NTot=          32
 NSgBfM=   180   180   180   180   180 MxSgAt=    10 MxSgA2=    10.
 Leave Link  302 at Fri Aug 19 19:11:26 2022, MaxMem=    23592960 cpu:         4.1
 (Enter /public/home/users/caep010/software/Gaussian09/g09/l303.exe)
 DipDrv:  MaxL=1.
 Leave Link  303 at Fri Aug 19 19:11:26 2022, MaxMem=    23592960 cpu:         0.7
 (Enter /public/home/users/caep010/software/Gaussian09/g09/l401.exe)
 ExpMin= 1.61D-01 ExpMax= 5.48D+03 ExpMxC= 8.25D+02 IAcc=1 IRadAn=         1 AccDes= 0.00D+00
 Harris functional with IExCor=  402 and IRadAn=       1 diagonalized for initial guess.
 HarFok:  IExCor=  402 AccDes= 0.00D+00 IRadAn=         1 IDoV= 1 UseB2=F ITyADJ=14
 ICtDFT=  3500011 ScaDFX=  1.000000  1.000000  1.000000  1.000000
 CalDSu:  requested number of processors reduced to:  21 ShMem   1 Linda.
 FoFCou: FMM=F IPFlag=           0 FMFlag=      100000 FMFlg1=           0
         NFxFlg=           0 DoJE=T BraDBF=F KetDBF=T FulRan=T
         wScrn=  0.000000 ICntrl=     500 IOpCl=  0 I1Cent=   200000004 NGrid=           0
         NMat0=    1 NMatS0=      1 NMatT0=    0 NMatD0=    1 NMtDS0=    0 NMtDT0=    0
 Petite list used in FoFCou.
 CoulSu:  requested number of processors reduced to:  11 ShMem   1 Linda.
 CoulSu:  requested number of processors reduced to:  11 ShMem   1 Linda.
 CoulSu:  requested number of processors reduced to:  12 ShMem   1 Linda.
 CoulSu:  requested number of processors reduced to:  12 ShMem   1 Linda.
 Harris En= -284.369465049007    
 JPrj=0 DoOrth=F DoCkMO=F.
 Leave Link  401 at Fri Aug 19 19:11:26 2022, MaxMem=    23592960 cpu:         4.1
 (Enter /public/home/users/caep010/software/Gaussian09/g09/l502.exe)
 Closed shell SCF:
 Using DIIS extrapolation, IDIIS=  1040.
 Integral symmetry usage will be decided dynamically.
 IVT=      122820 IEndB=      122820 NGot=    23592960 MDV=    23519361
 LenX=    23519361 LenY=    23486520
 Requested convergence on RMS density matrix=1.00D-08 within 128 cycles.
 Requested convergence on MAX density matrix=1.00D-06.
 Requested convergence on             energy=1.00D-06.
 No special actions if energy rises.
 Fock matrices will be formed incrementally for  20 cycles.
 Integral accuracy reduced to 1.0D-05 until final iterations.

 Cycle   1  Pass 0  IDiag  1:
 FoFJK:  IHMeth= 1 ICntrl=       0 DoSepK=F KAlg= 0 I1Cent=   0 FoldK=F
 IRaf= 980000000 NMat=   1 IRICut=       1 DoRegI=T DoRafI=F ISym2E= 0.
 FoFCou: FMM=F IPFlag=           0 FMFlag=      100000 FMFlg1=           0
         NFxFlg=           0 DoJE=F BraDBF=F KetDBF=F FulRan=T
         wScrn=  0.000000 ICntrl=       0 IOpCl=  0 I1Cent=           0 NGrid=           0
         NMat0=    1 NMatS0=      1 NMatT0=    0 NMatD0=    1 NMtDS0=    0 NMtDT0=    0
 Symmetry not used in FoFCou.
 CoulSu:  requested number of processors reduced to:  11 ShMem   1 Linda.
 CalDSu:  requested number of processors reduced to:  21 ShMem   1 Linda.
 E= -284.162193621317    
 DIIS: error= 2.75D-02 at cycle   1 NSaved=   1.
 NSaved= 1 IEnMin= 1 EnMin= -284.162193621317     IErMin= 1 ErrMin= 2.75D-02
 ErrMax= 2.75D-02  0.00D+00 EMaxC= 1.00D-01 BMatC= 1.88D-01 BMatP= 1.88D-01
 IDIUse=3 WtCom= 7.25D-01 WtEn= 2.75D-01
 Coeff-Com:  0.100D+01
 Coeff-En:   0.100D+01
 Coeff:      0.100D+01
 Gap=     0.273 Goal=   None    Shift=    0.000
 GapD=    0.273 DampG=1.000 DampE=0.500 DampFc=0.5000 IDamp=-1.
 Damping current iteration by 5.00D-01
 RMSDP=5.11D-03 MaxDP=2.41D-01              OVMax= 3.65D-01

 Cycle   2  Pass 0  IDiag  1:
 RMSU=  2.52D-03    CP:  9.78D-01
 CoulSu:  requested number of processors reduced to:  11 ShMem   1 Linda.
 CalDSu:  requested number of processors reduced to:  21 ShMem   1 Linda.
 E= -284.222156939705     Delta-E=       -0.059963318388 Rises=F Damp=T
 DIIS: error= 8.08D-03 at cycle   2 NSaved=   2.
 NSaved= 2 IEnMin= 2 EnMin= -284.222156939705     IErMin= 2 ErrMin= 8.08D-03
 ErrMax= 8.08D-03  0.00D+00 EMaxC= 1.00D-01 BMatC= 1.79D-02 BMatP= 1.88D-01
 IDIUse=3 WtCom= 9.19D-01 WtEn= 8.08D-02
 Coeff-Com:  0.145D+00 0.855D+00
 Coeff-En:   0.269D+00 0.731D+00
 Coeff:      0.155D+00 0.845D+00
 Gap=     0.230 Goal=   None    Shift=    0.000
 RMSDP=1.29D-03 MaxDP=6.23D-02 DE=-6.00D-02 OVMax= 2.59D-01

 Cycle   3  Pass 0  IDiag  1:
 RMSU=  1.21D-03    CP:  9.74D-01  8.29D-01
 CoulSu:  requested number of processors reduced to:  11 ShMem   1 Linda.
 CalDSu:  requested number of processors reduced to:  21 ShMem   1 Linda.
 E= -284.317901826798     Delta-E=       -0.095744887093 Rises=F Damp=F
 DIIS: error= 8.05D-03 at cycle   3 NSaved=   3.
 NSaved= 3 IEnMin= 3 EnMin= -284.317901826798     IErMin= 3 ErrMin= 8.05D-03
 ErrMax= 8.05D-03  0.00D+00 EMaxC= 1.00D-01 BMatC= 1.28D-02 BMatP= 1.79D-02
 IDIUse=3 WtCom= 9.19D-01 WtEn= 8.05D-02
 Coeff-Com:  0.317D-01 0.451D+00 0.517D+00
 Coeff-En:   0.000D+00 0.000D+00 0.100D+01
 Coeff:      0.291D-01 0.415D+00 0.556D+00
 Gap=     0.256 Goal=   None    Shift=    0.000
 RMSDP=8.26D-04 MaxDP=3.38D-02 DE=-9.57D-02 OVMax= 6.44D-02

 Cycle   4  Pass 0  IDiag  1:
 RMSU=  4.96D-04    CP:  9.76D-01  8.71D-01  4.64D-01
 CoulSu:  requested number of processors reduced to:  11 ShMem   1 Linda.
 CalDSu:  requested number of processors reduced to:  21 ShMem   1 Linda.
 E= -284.327653384889     Delta-E=       -0.009751558091 Rises=F Damp=F
 DIIS: error= 2.87D-03 at cycle   4 NSaved=   4.
 NSaved= 4 IEnMin= 4 EnMin= -284.327653384889     IErMin= 4 ErrMin= 2.87D-03
 ErrMax= 2.87D-03  0.00D+00 EMaxC= 1.00D-01 BMatC= 2.37D-03 BMatP= 1.28D-02
 IDIUse=3 WtCom= 9.71D-01 WtEn= 2.87D-02
 Coeff-Com: -0.379D-03 0.831D-01 0.314D+00 0.603D+00
 Coeff-En:   0.000D+00 0.000D+00 0.158D+00 0.842D+00
 Coeff:     -0.368D-03 0.807D-01 0.309D+00 0.610D+00
 Gap=     0.254 Goal=   None    Shift=    0.000
 RMSDP=2.62D-04 MaxDP=9.87D-03 DE=-9.75D-03 OVMax= 1.79D-02

 Cycle   5  Pass 0  IDiag  1:
 RMSU=  9.58D-05    CP:  9.76D-01  8.57D-01  6.06D-01  6.62D-01
 CoulSu:  requested number of processors reduced to:  11 ShMem   1 Linda.
 CalDSu:  requested number of processors reduced to:  21 ShMem   1 Linda.
 E= -284.329517429843     Delta-E=       -0.001864044954 Rises=F Damp=F
 DIIS: error= 5.23D-04 at cycle   5 NSaved=   5.
 NSaved= 5 IEnMin= 5 EnMin= -284.329517429843     IErMin= 5 ErrMin= 5.23D-04
 ErrMax= 5.23D-04  0.00D+00 EMaxC= 1.00D-01 BMatC= 1.45D-04 BMatP= 2.37D-03
 IDIUse=3 WtCom= 9.95D-01 WtEn= 5.23D-03
 Coeff-Com: -0.929D-03 0.151D-01 0.130D+00 0.324D+00 0.532D+00
 Coeff-En:   0.000D+00 0.000D+00 0.000D+00 0.000D+00 0.100D+01
 Coeff:     -0.924D-03 0.151D-01 0.129D+00 0.322D+00 0.534D+00
 Gap=     0.252 Goal=   None    Shift=    0.000
 RMSDP=5.81D-05 MaxDP=1.88D-03 DE=-1.86D-03 OVMax= 2.76D-03

 Cycle   6  Pass 0  IDiag  1:
 RMSU=  3.06D-05    CP:  9.76D-01  8.64D-01  6.06D-01  6.88D-01  5.37D-01
 CoulSu:  requested number of processors reduced to:  11 ShMem   1 Linda.
 CalDSu:  requested number of processors reduced to:  21 ShMem   1 Linda.
 E= -284.329618241712     Delta-E=       -0.000100811870 Rises=F Damp=F
 DIIS: error= 1.71D-04 at cycle   6 NSaved=   6.
 NSaved= 6 IEnMin= 6 EnMin= -284.329618241712     IErMin= 6 ErrMin= 1.71D-04
 ErrMax= 1.71D-04  0.00D+00 EMaxC= 1.00D-01 BMatC= 1.06D-05 BMatP= 1.45D-04
 IDIUse=3 WtCom= 9.98D-01 WtEn= 1.71D-03
 Coeff-Com: -0.340D-03-0.103D-02 0.346D-01 0.101D+00 0.276D+00 0.589D+00
 Coeff-En:   0.000D+00 0.000D+00 0.000D+00 0.000D+00 0.000D+00 0.100D+01
 Coeff:     -0.339D-03-0.103D-02 0.346D-01 0.101D+00 0.276D+00 0.590D+00
 Gap=     0.253 Goal=   None    Shift=    0.000
 RMSDP=1.36D-05 MaxDP=3.76D-04 DE=-1.01D-04 OVMax= 5.23D-04

 Cycle   7  Pass 0  IDiag  1:
 RMSU=  5.84D-06    CP:  9.76D-01  8.62D-01  6.06D-01  6.92D-01  6.03D-01
                    CP:  7.05D-01
 CoulSu:  requested number of processors reduced to:  11 ShMem   1 Linda.
 CalDSu:  requested number of processors reduced to:  21 ShMem   1 Linda.
 E= -284.329626777447     Delta-E=       -0.000008535734 Rises=F Damp=F
 DIIS: error= 1.32D-05 at cycle   7 NSaved=   7.
 NSaved= 7 IEnMin= 7 EnMin= -284.329626777447     IErMin= 7 ErrMin= 1.32D-05
 ErrMax= 1.32D-05  0.00D+00 EMaxC= 1.00D-01 BMatC= 7.94D-08 BMatP= 1.06D-05
 IDIUse=1 WtCom= 1.00D+00 WtEn= 0.00D+00
 Coeff-Com:  0.114D-03-0.928D-03 0.303D-02 0.845D-02 0.396D-01 0.937D-01
 Coeff-Com:  0.856D+00
 Coeff:      0.114D-03-0.928D-03 0.303D-02 0.845D-02 0.396D-01 0.937D-01
 Coeff:      0.856D+00
 Gap=     0.253 Goal=   None    Shift=    0.000
 RMSDP=1.85D-06 MaxDP=4.97D-05 DE=-8.54D-06 OVMax= 6.70D-05

 Initial convergence to 1.0D-05 achieved.  Increase integral accuracy.
 Cycle   8  Pass 1  IDiag  1:
 CoulSu:  requested number of processors reduced to:  11 ShMem   1 Linda.
 CalDSu:  requested number of processors reduced to:  21 ShMem   1 Linda.
 E= -284.329646528377     Delta-E=       -0.000019750930 Rises=F Damp=F
 DIIS: error= 2.23D-05 at cycle   1 NSaved=   1.
 NSaved= 1 IEnMin= 1 EnMin= -284.329646528377     IErMin= 1 ErrMin= 2.23D-05
 ErrMax= 2.23D-05  0.00D+00 EMaxC= 1.00D-01 BMatC= 7.51D-08 BMatP= 7.51D-08
 IDIUse=1 WtCom= 1.00D+00 WtEn= 0.00D+00
 Coeff-Com:  0.100D+01
 Coeff:      0.100D+01
 Gap=     0.253 Goal=   None    Shift=    0.000
 RMSDP=1.85D-06 MaxDP=4.97D-05 DE=-1.98D-05 OVMax= 1.31D-04

 Cycle   9  Pass 1  IDiag  1:
 RMSU=  4.85D-06    CP:  1.00D+00
 CoulSu:  requested number of processors reduced to:  11 ShMem   1 Linda.
 CalDSu:  requested number of processors reduced to:  21 ShMem   1 Linda.
 E= -284.329646511561     Delta-E=        0.000000016816 Rises=F Damp=F
 DIIS: error= 1.87D-05 at cycle   2 NSaved=   2.
 NSaved= 2 IEnMin= 1 EnMin= -284.329646528377     IErMin= 2 ErrMin= 1.87D-05
 ErrMax= 1.87D-05  0.00D+00 EMaxC= 1.00D-01 BMatC= 9.50D-08 BMatP= 7.51D-08
 IDIUse=1 WtCom= 1.00D+00 WtEn= 0.00D+00
 Coeff-Com:  0.536D+00 0.464D+00
 Coeff:      0.536D+00 0.464D+00
 Gap=     0.253 Goal=   None    Shift=    0.000
 RMSDP=1.82D-06 MaxDP=6.81D-05 DE= 1.68D-08 OVMax= 1.25D-04

 Cycle  10  Pass 1  IDiag  1:
 RMSU=  1.69D-06    CP:  1.00D+00  8.61D-01
 CoulSu:  requested number of processors reduced to:  11 ShMem   1 Linda.
 CalDSu:  requested number of processors reduced to:  21 ShMem   1 Linda.
 E= -284.329646583783     Delta-E=       -0.000000072223 Rises=F Damp=F
 DIIS: error= 5.86D-06 at cycle   3 NSaved=   3.
 NSaved= 3 IEnMin= 3 EnMin= -284.329646583783     IErMin= 3 ErrMin= 5.86D-06
 ErrMax= 5.86D-06  0.00D+00 EMaxC= 1.00D-01 BMatC= 8.38D-09 BMatP= 7.51D-08
 IDIUse=1 WtCom= 1.00D+00 WtEn= 0.00D+00
 Coeff-Com: -0.924D-02 0.224D+00 0.785D+00
 Coeff:     -0.924D-02 0.224D+00 0.785D+00
 Gap=     0.253 Goal=   None    Shift=    0.000
 RMSDP=4.95D-07 MaxDP=2.02D-05 DE=-7.22D-08 OVMax= 3.91D-05

 Cycle  11  Pass 1  IDiag  1:
 RMSU=  2.02D-07    CP:  1.00D+00  9.23D-01  8.00D-01
 CoulSu:  requested number of processors reduced to:  11 ShMem   1 Linda.
 CalDSu:  requested number of processors reduced to:  21 ShMem   1 Linda.
 E= -284.329646590595     Delta-E=       -0.000000006811 Rises=F Damp=F
 DIIS: error= 9.89D-07 at cycle   4 NSaved=   4.
 NSaved= 4 IEnMin= 4 EnMin= -284.329646590595     IErMin= 4 ErrMin= 9.89D-07
 ErrMax= 9.89D-07  0.00D+00 EMaxC= 1.00D-01 BMatC= 5.30D-10 BMatP= 8.38D-09
 IDIUse=1 WtCom= 1.00D+00 WtEn= 0.00D+00
 Coeff-Com: -0.124D-01 0.127D+00 0.468D+00 0.418D+00
 Coeff:     -0.124D-01 0.127D+00 0.468D+00 0.418D+00
 Gap=     0.253 Goal=   None    Shift=    0.000
 RMSDP=1.36D-07 MaxDP=5.20D-06 DE=-6.81D-09 OVMax= 1.08D-05

 Cycle  12  Pass 1  IDiag  1:
 RMSU=  6.15D-08    CP:  1.00D+00  9.20D-01  8.11D-01  4.07D-01
 CoulSu:  requested number of processors reduced to:  11 ShMem   1 Linda.
 CalDSu:  requested number of processors reduced to:  21 ShMem   1 Linda.
 E= -284.329646591037     Delta-E=       -0.000000000442 Rises=F Damp=F
 DIIS: error= 1.74D-07 at cycle   5 NSaved=   5.
 NSaved= 5 IEnMin= 5 EnMin= -284.329646591037     IErMin= 5 ErrMin= 1.74D-07
 ErrMax= 1.74D-07  0.00D+00 EMaxC= 1.00D-01 BMatC= 1.90D-11 BMatP= 5.30D-10
 IDIUse=1 WtCom= 1.00D+00 WtEn= 0.00D+00
 Coeff-Com: -0.468D-02 0.349D-01 0.133D+00 0.204D+00 0.632D+00
 Coeff:     -0.468D-02 0.349D-01 0.133D+00 0.204D+00 0.632D+00
 Gap=     0.253 Goal=   None    Shift=    0.000
 RMSDP=2.39D-08 MaxDP=7.68D-07 DE=-4.42D-10 OVMax= 1.50D-06

 Cycle  13  Pass 1  IDiag  1:
 RMSU=  1.67D-08    CP:  1.00D+00  9.21D-01  8.10D-01  4.77D-01  8.45D-01
 CoulSu:  requested number of processors reduced to:  11 ShMem   1 Linda.
 CalDSu:  requested number of processors reduced to:  21 ShMem   1 Linda.
 E= -284.329646591049     Delta-E=       -0.000000000012 Rises=F Damp=F
 DIIS: error= 1.28D-07 at cycle   6 NSaved=   6.
 NSaved= 6 IEnMin= 6 EnMin= -284.329646591049     IErMin= 6 ErrMin= 1.28D-07
 ErrMax= 1.28D-07  0.00D+00 EMaxC= 1.00D-01 BMatC= 2.37D-12 BMatP= 1.90D-11
 IDIUse=1 WtCom= 1.00D+00 WtEn= 0.00D+00
 Coeff-Com: -0.132D-02 0.685D-02 0.277D-01 0.753D-01 0.343D+00 0.549D+00
 Coeff:     -0.132D-02 0.685D-02 0.277D-01 0.753D-01 0.343D+00 0.549D+00
 Gap=     0.253 Goal=   None    Shift=    0.000
 RMSDP=8.41D-09 MaxDP=3.42D-07 DE=-1.20D-11 OVMax= 3.50D-07

 SCF Done:  E(RB3LYP) =  -284.329646591     A.U. after   13 cycles
            NFock= 13  Conv=0.84D-08     -V/T= 2.0075
 KE= 2.822039011741D+02 PE=-1.022819943593D+03 EE= 2.782787931985D+02
 Leave Link  502 at Fri Aug 19 19:11:31 2022, MaxMem=    23592960 cpu:        84.9
 (Enter /public/home/users/caep010/software/Gaussian09/g09/l601.exe)
 Copying SCF densities to generalized density rwf, IOpCl= 0 IROHF=0.

 **********************************************************************

            Population analysis using the SCF density.

 **********************************************************************

 Orbital symmetries:
       Occupied  (A) (A) (A) (A) (A) (A) (A) (A) (A) (A) (A) (A)
                 (A) (A) (A) (A) (A) (A) (A) (A)
       Virtual   (A) (A) (A) (A) (A) (A) (A) (A) (A) (A) (A) (A)
                 (A) (A) (A) (A) (A) (A) (A) (A) (A) (A) (A) (A)
                 (A) (A) (A) (A) (A) (A) (A) (A) (A) (A) (A) (A)
                 (A) (A) (A) (A) (A) (A) (A) (A) (A) (A) (A) (A)
                 (A) (A) (A) (A) (A) (A) (A) (A) (A) (A) (A) (A)
                 (A) (A) (A) (A) (A) (A) (A) (A) (A) (A) (A) (A)
                 (A) (A) (A) (A) (A) (A) (A) (A) (A) (A) (A) (A)
                 (A) (A) (A) (A) (A) (A) (A) (A) (A) (A) (A) (A)
                 (A) (A) (A) (A) (A) (A) (A) (A) (A) (A) (A) (A)
                 (A) (A) (A) (A) (A) (A) (A) (A) (A) (A) (A) (A)
                 (A) (A) (A) (A) (A) (A) (A) (A) (A) (A) (A) (A)
                 (A) (A) (A) (A) (A) (A) (A) (A) (A) (A) (A) (A)
                 (A)
 The electronic state is 1-A.
 Alpha  occ. eigenvalues --  -19.18960 -19.17623 -14.38521 -10.28966 -10.14418
 Alpha  occ. eigenvalues --   -1.10112  -1.03259  -0.82971  -0.72618  -0.59091
 Alpha  occ. eigenvalues --   -0.56106  -0.51128  -0.46753  -0.42683  -0.39514
 Alpha  occ. eigenvalues --   -0.37757  -0.37090  -0.32837  -0.25045  -0.19987
 Alpha virt. eigenvalues --    0.05306   0.06168   0.06825   0.10460   0.13339
 Alpha virt. eigenvalues --    0.16900   0.17876   0.23339   0.32536   0.33181
 Alpha virt. eigenvalues --    0.39367   0.45681   0.51464   0.52909   0.53685
 Alpha virt. eigenvalues --    0.58064   0.60316   0.60516   0.64941   0.65899
 Alpha virt. eigenvalues --    0.70740   0.72787   0.75547   0.77551   0.78527
 Alpha virt. eigenvalues --    0.80511   0.84640   0.86505   0.86767   0.87777
 Alpha virt. eigenvalues --    0.91096   0.92666   0.94120   0.99693   1.01592
 Alpha virt. eigenvalues --    1.02604   1.03907   1.08260   1.17321   1.27294
 Alpha virt. eigenvalues --    1.28080   1.35046   1.36448   1.38374   1.45226
 Alpha virt. eigenvalues --    1.48030   1.56067   1.56972   1.60484   1.68041
 Alpha virt. eigenvalues --    1.68446   1.69031   1.73292   1.76429   1.78750
 Alpha virt. eigenvalues --    1.93348   1.99050   2.09389   2.11763   2.16077
 Alpha virt. eigenvalues --    2.20081   2.24264   2.24937   2.40923   2.46482
 Alpha virt. eigenvalues --    2.53835   2.56122   2.73339   2.78646   2.82169
 Alpha virt. eigenvalues --    2.82756   2.86298   2.87516   2.95050   2.96952
 Alpha virt. eigenvalues --    2.98297   3.07390   3.09423   3.13150   3.20091
 Alpha virt. eigenvalues --    3.24018   3.30137   3.43185   3.47315   3.53950
 Alpha virt. eigenvalues --    3.56937   3.59702   3.66237   3.69189   3.72635
 Alpha virt. eigenvalues --    3.84190   3.89559   3.96169   4.06028   4.08959
 Alpha virt. eigenvalues --    4.10257   4.13851   4.20156   4.26011   4.28195
 Alpha virt. eigenvalues --    4.29438   4.31269   4.33190   4.33956   4.37674
 Alpha virt. eigenvalues --    4.41138   4.42843   4.48996   4.52357   4.55702
 Alpha virt. eigenvalues --    4.56259   4.58363   4.60075   4.63231   4.68737
 Alpha virt. eigenvalues --    4.75113   4.77297   4.91475   4.99356   5.10750
 Alpha virt. eigenvalues --    5.12478   5.13079   5.24992   5.28451   5.34062
 Alpha virt. eigenvalues --    5.41902   5.45055   5.65453   5.70654   5.72212
 Alpha virt. eigenvalues --    5.76014   5.88473   5.94604   5.98684   6.13062
 Alpha virt. eigenvalues --    6.32588   6.55744   6.99786   7.09775   7.38530
 Alpha virt. eigenvalues --   10.36579  11.32570  11.49419  13.20157  13.42510
          Condensed to atoms (all electrons):
               1          2          3          4          5          6
     1  C    5.256647   0.542598  -0.029667  -0.044275   0.002280   0.369998
     2  C    0.542598   4.240541   0.418790   0.406673  -0.056321  -0.012199
     3  O   -0.029667   0.418790   7.805461  -0.031180   0.001408   0.001195
     4  O   -0.044275   0.406673  -0.031180   7.822321   0.232465  -0.012516
     5  N    0.002280  -0.056321   0.001408   0.232465   6.515122   0.012610
     6  H    0.369998  -0.012199   0.001195  -0.012516   0.012610   0.566240
     7  H    0.346306   0.006963  -0.004642   0.002582  -0.000062  -0.039109
     8  H    0.008077  -0.044734   0.287621   0.001301  -0.000092  -0.000143
     9  H    0.005268  -0.001250  -0.000125  -0.044838   0.314205  -0.000856
    10  H   -0.000246   0.001580  -0.000050  -0.029101   0.330163  -0.000216
               7          8          9         10
     1  C    0.346306   0.008077   0.005268  -0.000246
     2  C    0.006963  -0.044734  -0.001250   0.001580
     3  O   -0.004642   0.287621  -0.000125  -0.000050
     4  O    0.002582   0.001301  -0.044838  -0.029101
     5  N   -0.000062  -0.000092   0.314205   0.330163
     6  H   -0.039109  -0.000143  -0.000856  -0.000216
     7  H    0.580060  -0.000215  -0.000095  -0.000000
     8  H   -0.000215   0.424772   0.000001  -0.000032
     9  H   -0.000095   0.000001   0.512535  -0.032852
    10  H   -0.000000  -0.000032  -0.032852   0.461770
 Mulliken charges:
               1
     1  C   -0.456985
     2  C    0.497358
     3  O   -0.448812
     4  O   -0.303431
     5  N   -0.351776
     6  H    0.114997
     7  H    0.108212
     8  H    0.323445
     9  H    0.248008
    10  H    0.268984
 Sum of Mulliken charges =  -0.00000
 Mulliken charges with hydrogens summed into heavy atoms:
               1
     1  C   -0.233775
     2  C    0.497358
     3  O   -0.125367
     4  O   -0.303431
     5  N    0.165216
 Electronic spatial extent (au):  <R**2>=            429.8268
 Charge=             -0.0000 electrons
 Dipole moment (field-independent basis, Debye):
    X=              1.5213    Y=             -1.9408    Z=              1.0615  Tot=              2.6847
 Quadrupole moment (field-independent basis, Debye-Ang):
   XX=            -24.5029   YY=            -25.6636   ZZ=            -30.5647
   XY=              1.0848   XZ=              2.1229   YZ=              0.8620
 Traceless Quadrupole moment (field-independent basis, Debye-Ang):
   XX=              2.4075   YY=              1.2468   ZZ=             -3.6543
   XY=              1.0848   XZ=              2.1229   YZ=              0.8620
 Octapole moment (field-independent basis, Debye-Ang**2):
  XXX=             19.3340  YYY=            -15.2453  ZZZ=              1.5760  XYY=             -6.8273
  XXY=            -12.0471  XXZ=              4.2881  XZZ=              2.3116  YZZ=             -4.0130
  YYZ=              0.2581  XYZ=              2.4534
 Hexadecapole moment (field-independent basis, Debye-Ang**3):
 XXXX=           -284.2312 YYYY=           -140.4124 ZZZZ=            -30.0176 XXXY=             -8.3426
 XXXZ=              7.7755 YYYX=             18.3763 YYYZ=             -0.1525 ZZZX=              2.7547
 ZZZY=              1.2139 XXYY=            -61.1822 XXZZ=            -59.7040 YYZZ=            -34.2785
 XXYZ=              5.1180 YYXZ=             -0.3439 ZZXY=              2.8244
 N-N= 1.780076026295D+02 E-N=-1.022819935920D+03  KE= 2.822039011741D+02
 PrsmSu:  requested number of processors reduced to:  11 ShMem   1 Linda.
 No NMR shielding tensors so no spin-rotation constants.
 Leave Link  601 at Fri Aug 19 19:11:32 2022, MaxMem=    23592960 cpu:         2.7
 (Enter /public/home/users/caep010/software/Gaussian09/g09/l701.exe)
 Compute integral first derivatives.
 ... and contract with generalized density number  0.
 PrsmSu:  requested number of processors reduced to:   3 ShMem   1 Linda.
 PrsmSu:  requested number of processors reduced to:   6 ShMem   1 Linda.
 Leave Link  701 at Fri Aug 19 19:11:32 2022, MaxMem=    23592960 cpu:         6.4
 (Enter /public/home/users/caep010/software/Gaussian09/g09/l702.exe)
 L702 exits ... SP integral derivatives will be done elsewhere.
 Leave Link  702 at Fri Aug 19 19:11:32 2022, MaxMem=    23592960 cpu:         0.6
 (Enter /public/home/users/caep010/software/Gaussian09/g09/l703.exe)
 Compute integral first derivatives, UseDBF=F ICtDFT=           0.
 Integral derivatives from FoFJK, PRISM(SPDF).
 Calling FoFJK, ICntrl=      2127 FMM=F ISym2X=0 I1Cent= 0 IOpClX= 0 NMat=1 NMatS=1 NMatT=0.
 FoFJK:  IHMeth= 1 ICntrl=    2127 DoSepK=F KAlg= 0 I1Cent=   0 FoldK=F
 IRaf=         0 NMat=   1 IRICut=       1 DoRegI=T DoRafI=F ISym2E= 0.
 FoFCou: FMM=F IPFlag=           0 FMFlag=      100000 FMFlg1=         800
         NFxFlg=           0 DoJE=F BraDBF=F KetDBF=F FulRan=T
         wScrn=  0.000000 ICntrl=    2127 IOpCl=  0 I1Cent=           0 NGrid=           0
         NMat0=    1 NMatS0=      1 NMatT0=    0 NMatD0=    1 NMtDS0=    0 NMtDT0=    0
 Symmetry not used in FoFCou.
 CoulSu:  requested number of processors reduced to:   6 ShMem   1 Linda.
 CalDSu:  requested number of processors reduced to:  18 ShMem   1 Linda.
 Leave Link  703 at Fri Aug 19 19:11:34 2022, MaxMem=    23592960 cpu:        14.0
 (Enter /public/home/users/caep010/software/Gaussian09/g09/l716.exe)
 Dipole        = 5.98522504D-01-7.63554503D-01 4.17643174D-01
 ***** Axes restored to original set *****
 -------------------------------------------------------------------
 Center     Atomic                   Forces (Hartrees/Bohr)
 Number     Number              X              Y              Z
 -------------------------------------------------------------------
      1        6          -0.002828199   -0.001379601   -0.003739619
      2        6           0.009626869   -0.013210080    0.010336756
      3        8           0.029654383    0.021372877    0.011325722
      4        8          -0.031103053    0.068973505   -0.026061605
      5        7           0.017442084   -0.042492659    0.001941806
      6        1           0.000558098    0.003462450    0.001265481
      7        1           0.001436262    0.001392866   -0.000032717
      8        1           0.000769659   -0.046874854    0.006383010
      9        1          -0.004694145    0.009822980    0.011784123
     10        1          -0.020861959   -0.001067483   -0.013202958
 -------------------------------------------------------------------
 Cartesian Forces:  Max     0.068973505 RMS     0.021216746
 Leave Link  716 at Fri Aug 19 19:11:34 2022, MaxMem=    23592960 cpu:         0.7
 (Enter /public/home/users/caep010/software/Gaussian09/g09/l103.exe)

 GradGradGradGradGradGradGradGradGradGradGradGradGradGradGradGradGradGrad
 Berny optimization.
 FormGI is forming the generalized inverse of G from B-inverse, IUseBI=4.
 Internal  Forces:  Max     0.053644201 RMS     0.020637603
 Search for a local minimum.
 Step number   1 out of a maximum of   41
 All quantities printed in internal units (Hartrees-Bohrs-Radians)
 RMS Force = .20638D-01 SwitMx=.10000D-02 MixMth= 1
 Mixed Optimization -- RFO/linear search
 Second derivative matrix not updated -- first step.
 ITU=  0
     Eigenvalues ---    0.01563   0.01669   0.01815   0.02363   0.02966
     Eigenvalues ---    0.02966   0.05366   0.12609   0.16000   0.16000
     Eigenvalues ---    0.16000   0.16000   0.25000   0.25000   0.25000
     Eigenvalues ---    0.35692   0.35800   0.40506   0.40680   0.45337
     Eigenvalues ---    0.45518   0.47193   0.49147   0.58642
 RFO step:  Lambda=-3.98109322D-02 EMin= 1.56258944D-02
 Linear search not attempted -- first point.
 Maximum step size (   0.300) exceeded in Quadratic search.
    -- Step size scaled by   0.835
 Iteration  1 RMS(Cart)=  0.12339951 RMS(Int)=  0.00617855
 Iteration  2 RMS(Cart)=  0.00615746 RMS(Int)=  0.00026944
 Iteration  3 RMS(Cart)=  0.00002888 RMS(Int)=  0.00026889
 Iteration  4 RMS(Cart)=  0.00000000 RMS(Int)=  0.00026889
 ITry= 1 IFail=0 DXMaxC= 3.62D-01 DCOld= 1.00D+10 DXMaxT= 3.00D-01 DXLimC= 3.00D+00 Rises=F
 Variable       Old X    -DE/DX   Delta X   Delta X   Delta X     New X
                                 (Linear)    (Quad)   (Total)
    R1        2.52031  -0.00282   0.00000  -0.00377  -0.00377   2.51654
    R2        2.04395  -0.00197   0.00000  -0.00413  -0.00413   2.03983
    R3        2.04567  -0.00152   0.00000  -0.00319  -0.00319   2.04247
    R4        2.62808  -0.04238   0.00000  -0.06917  -0.06917   2.55891
    R5        2.64886  -0.03794   0.00000  -0.06425  -0.06425   2.58461
    R6        1.91379  -0.04368   0.00000  -0.07370  -0.07370   1.84009
    R7        2.60736   0.01920   0.00000   0.03018   0.03018   2.63754
    R8        1.97571  -0.01579   0.00000  -0.02964  -0.02964   1.94607
    R9        1.97340  -0.02228   0.00000  -0.04166  -0.04166   1.93174
    A1        2.12270  -0.00311   0.00000  -0.01300  -0.01301   2.10968
    A2        2.09642   0.00031   0.00000   0.00129   0.00128   2.09770
    A3        2.06406   0.00280   0.00000   0.01168   0.01167   2.07573
    A4        2.07608   0.01871   0.00000   0.05392   0.05390   2.12998
    A5        2.13123   0.02282   0.00000   0.06579   0.06576   2.19699
    A6        2.07587  -0.04152   0.00000  -0.11967  -0.11968   1.95619
    A7        2.10494  -0.03481   0.00000  -0.14551  -0.14551   1.95942
    A8        2.13874  -0.05364   0.00000  -0.15461  -0.15461   1.98414
    A9        1.87039   0.00119   0.00000  -0.00577  -0.00602   1.86437
   A10        1.86102  -0.01035   0.00000  -0.07084  -0.07118   1.78985
   A11        1.85613   0.00200   0.00000  -0.00187  -0.00260   1.85353
    D1       -3.13445   0.00071   0.00000   0.00761   0.00733  -3.12712
    D2        0.00291   0.00157   0.00000   0.01974   0.02002   0.02293
    D3        0.00298  -0.00001   0.00000  -0.00105  -0.00133   0.00165
    D4        3.14033   0.00085   0.00000   0.01108   0.01136  -3.13149
    D5        3.13975   0.00045   0.00000   0.00542   0.00508  -3.13836
    D6        0.00226  -0.00054   0.00000  -0.00676  -0.00642  -0.00416
    D7        0.04426  -0.00092   0.00000  -0.01242  -0.01214   0.03212
    D8       -3.10157   0.00009   0.00000   0.00012  -0.00017  -3.10174
    D9        1.27735   0.00239   0.00000   0.03990   0.03927   1.31662
   D10       -3.02383   0.00039   0.00000   0.00201   0.00265  -3.02119
   D11        1.98531  -0.01034   0.00000  -0.08439  -0.08432   1.90099
         Item               Value     Threshold  Converged?
 Maximum Force            0.053644     0.000450     NO 
 RMS     Force            0.020638     0.000300     NO 
 Maximum Displacement     0.361815     0.001800     NO 
 RMS     Displacement     0.124048     0.001200     NO 
 Predicted change in Energy=-2.133983D-02
 Lowest energy point so far.  Saving SCF results.
 GradGradGradGradGradGradGradGradGradGradGradGradGradGradGradGradGradGrad

 Leave Link  103 at Fri Aug 19 19:11:34 2022, MaxMem=    23592960 cpu:         2.9
 (Enter /public/home/users/caep010/software/Gaussian09/g09/l202.exe)
                          Input orientation:                          
 ---------------------------------------------------------------------
 Center     Atomic      Atomic             Coordinates (Angstroms)
 Number     Number       Type             X           Y           Z
 ---------------------------------------------------------------------
      1          6           0       -1.014023   -0.910803    0.006960
      2          6           0       -0.563190    0.340957    0.064085
      3          8           0       -1.277999    1.384673   -0.418964
      4          8           0        0.637118    0.737588    0.586194
      5          7           0        1.423832   -0.318545    1.048495
      6          1           0       -0.434253   -1.727317    0.409874
      7          1           0       -1.977055   -1.121960   -0.435956
      8          1           0       -0.813936    2.233281   -0.306417
      9          1           0        1.816558   -0.783467    0.217751
     10          1           0        2.203046    0.165694    1.499378
 ---------------------------------------------------------------------
                    Distance matrix (angstroms):
                    1          2          3          4          5
     1  C    0.000000
     2  C    1.331697   0.000000
     3  O    2.349533   1.354116   0.000000
     4  O    2.403949   1.367719   2.257595   0.000000
     5  N    2.716376   2.313496   3.514865   1.395728   0.000000
     6  H    1.079429   2.100941   3.329168   2.693452   2.417634
     7  H    1.080830   2.095038   2.602341   3.366989   3.796722
     8  H    3.165992   1.944488   0.973733   2.267027   3.654478
     9  H    2.841273   2.636502   3.831777   1.959703   1.029816
    10  H    3.706169   3.121353   4.157357   1.900815   1.022231
                    6          7          8          9         10
     6  H    0.000000
     7  H    1.860678   0.000000
     8  H    4.042718   3.553487   0.000000
     9  H    2.448247   3.864376   4.036709   0.000000
    10  H    3.424304   4.782971   4.078969   1.640990   0.000000
 Stoichiometry    C2H5NO2
 Framework group  C1[X(C2H5NO2)]
 Deg. of freedom    24
 Full point group                 C1      NOp   1
 RotChk:  IX=0 Diff= 6.47D-03
 Largest Abelian subgroup         C1      NOp   1
 Largest concise Abelian subgroup C1      NOp   1
                         Standard orientation:                         
 ---------------------------------------------------------------------
 Center     Atomic      Atomic             Coordinates (Angstroms)
 Number     Number       Type             X           Y           Z
 ---------------------------------------------------------------------
      1          6           0       -0.533081    1.405802   -0.031131
      2          6           0       -0.509712    0.074389   -0.016636
      3          8           0       -1.643852   -0.663429    0.037982
      4          8           0        0.611825   -0.707964   -0.043729
      5          7           0        1.802904    0.019604   -0.049277
      6          1           0        0.382105    1.975303   -0.088324
      7          1           0       -1.475875    1.933244    0.002580
      8          1           0       -1.461786   -1.619967    0.044600
      9          1           0        1.941170    0.372226    0.908356
     10          1           0        2.507027   -0.708032   -0.189687
 ---------------------------------------------------------------------
 Rotational constants (GHZ):      9.9607735      4.3262645      3.0512178
 Leave Link  202 at Fri Aug 19 19:11:34 2022, MaxMem=    23592960 cpu:         0.2
 (Enter /public/home/users/caep010/software/Gaussian09/g09/l301.exe)
 Standard basis: GTBas3 (6D, 7F)
 Ernie: Thresh=  0.10000D-02 Tol=  0.10000D-05 Strict=F.
 There are   180 symmetry adapted cartesian basis functions of A   symmetry.
 There are   165 symmetry adapted basis functions of A   symmetry.
   165 basis functions,   255 primitive gaussians,   180 cartesian basis functions
    20 alpha electrons       20 beta electrons
       nuclear repulsion energy       182.1631444648 Hartrees.
 IExCor=  402 DFT=T Ex+Corr=B3LYP ExCW=0 ScaHFX=  0.200000
 ScaDFX=  0.800000  0.720000  1.000000  0.810000 ScalE2=  1.000000  1.000000
 IRadAn=      0 IRanWt=     -1 IRanGd=            0 ICorTp=0 IEmpDi=  4
 NAtoms=   10 NActive=   10 NUniq=   10 SFac= 1.00D+00 NAtFMM=   60 NAOKFM=F Big=F
 Integral buffers will be    131072 words long.
 Raffenetti 2 integral format.
 Two-electron integral symmetry is turned on.
 Leave Link  301 at Fri Aug 19 19:11:34 2022, MaxMem=    23592960 cpu:         1.8
 (Enter /public/home/users/caep010/software/Gaussian09/g09/l302.exe)
 NPDir=0 NMtPBC=     1 NCelOv=     1 NCel=       1 NClECP=     1 NCelD=      1
         NCelK=      1 NCelE2=     1 NClLst=     1 CellRange=     0.0.
 One-electron integrals computed using PRISM.
 PrsmSu:  requested number of processors reduced to:   3 ShMem   1 Linda.
 PrsmSu:  requested number of processors reduced to:  11 ShMem   1 Linda.
 NBasis=   165 RedAO= T EigKep=  9.13D-04  NBF=   165
 NBsUse=   165 1.00D-06 EigRej= -1.00D+00 NBFU=   165
 Precomputing XC quadrature grid using
 IXCGrd= 4 IRadAn=           0 IRanWt=          -1 IRanGd=           0 AccXCQ= 0.00D+00.
 Generated NRdTot=       0 NPtTot=           0 NUsed=           0 NTot=          32
 NSgBfM=   180   180   180   180   180 MxSgAt=    10 MxSgA2=    10.
 Leave Link  302 at Fri Aug 19 19:11:34 2022, MaxMem=    23592960 cpu:         3.9
 (Enter /public/home/users/caep010/software/Gaussian09/g09/l303.exe)
 DipDrv:  MaxL=1.
 Leave Link  303 at Fri Aug 19 19:11:34 2022, MaxMem=    23592960 cpu:         0.7
 (Enter /public/home/users/caep010/software/Gaussian09/g09/l401.exe)
 Initial guess from the checkpoint file:  "G4.Frag_949.chk"
 B after Tr=     0.000000    0.000000    0.000000
         Rot=    0.999993    0.000210    0.000088    0.003647 Ang=   0.42 deg.
 Guess basis will be translated and rotated to current coordinates.
 JPrj=2 DoOrth=T DoCkMO=T.
 Generating alternative initial guess.
 ExpMin= 1.61D-01 ExpMax= 5.48D+03 ExpMxC= 8.25D+02 IAcc=1 IRadAn=         1 AccDes= 0.00D+00
 Harris functional with IExCor=  402 and IRadAn=       1 diagonalized for initial guess.
 HarFok:  IExCor=  402 AccDes= 0.00D+00 IRadAn=         1 IDoV= 1 UseB2=F ITyADJ=14
 ICtDFT=  3500011 ScaDFX=  1.000000  1.000000  1.000000  1.000000
 CalDSu:  requested number of processors reduced to:  21 ShMem   1 Linda.
 FoFCou: FMM=F IPFlag=           0 FMFlag=      100000 FMFlg1=           0
         NFxFlg=           0 DoJE=T BraDBF=F KetDBF=T FulRan=T
         wScrn=  0.000000 ICntrl=     500 IOpCl=  0 I1Cent=   200000004 NGrid=           0
         NMat0=    1 NMatS0=      1 NMatT0=    0 NMatD0=    1 NMtDS0=    0 NMtDT0=    0
 Petite list used in FoFCou.
 CoulSu:  requested number of processors reduced to:  11 ShMem   1 Linda.
 CoulSu:  requested number of processors reduced to:  11 ShMem   1 Linda.
 CoulSu:  requested number of processors reduced to:  12 ShMem   1 Linda.
 CoulSu:  requested number of processors reduced to:  12 ShMem   1 Linda.
 Harris En= -284.387176244090    
 Leave Link  401 at Fri Aug 19 19:11:35 2022, MaxMem=    23592960 cpu:        11.2
 (Enter /public/home/users/caep010/software/Gaussian09/g09/l502.exe)
 Closed shell SCF:
 Using DIIS extrapolation, IDIIS=  1040.
 Integral symmetry usage will be decided dynamically.
 IVT=      122820 IEndB=      122820 NGot=    23592960 MDV=    23519361
 LenX=    23519361 LenY=    23486520
 Requested convergence on RMS density matrix=1.00D-08 within 128 cycles.
 Requested convergence on MAX density matrix=1.00D-06.
 Requested convergence on             energy=1.00D-06.
 No special actions if energy rises.
 Fock matrices will be formed incrementally for  20 cycles.
 Integral accuracy reduced to 1.0D-05 until final iterations.

 Cycle   1  Pass 0  IDiag  1:
 FoFJK:  IHMeth= 1 ICntrl=       0 DoSepK=F KAlg= 0 I1Cent=   0 FoldK=F
 IRaf= 980000000 NMat=   1 IRICut=       1 DoRegI=T DoRafI=F ISym2E= 0.
 FoFCou: FMM=F IPFlag=           0 FMFlag=      100000 FMFlg1=           0
         NFxFlg=           0 DoJE=F BraDBF=F KetDBF=F FulRan=T
         wScrn=  0.000000 ICntrl=       0 IOpCl=  0 I1Cent=           0 NGrid=           0
         NMat0=    1 NMatS0=      1 NMatT0=    0 NMatD0=    1 NMtDS0=    0 NMtDT0=    0
 Symmetry not used in FoFCou.
 CoulSu:  requested number of processors reduced to:  11 ShMem   1 Linda.
 CalDSu:  requested number of processors reduced to:  21 ShMem   1 Linda.
 E= -284.341397626933    
 DIIS: error= 4.78D-03 at cycle   1 NSaved=   1.
 NSaved= 1 IEnMin= 1 EnMin= -284.341397626933     IErMin= 1 ErrMin= 4.78D-03
 ErrMax= 4.78D-03  0.00D+00 EMaxC= 1.00D-01 BMatC= 8.06D-03 BMatP= 8.06D-03
 IDIUse=3 WtCom= 9.52D-01 WtEn= 4.78D-02
 Coeff-Com:  0.100D+01
 Coeff-En:   0.100D+01
 Coeff:      0.100D+01
 Gap=     0.881 Goal=   None    Shift=    0.000
 GapD=    0.881 DampG=2.000 DampE=1.000 DampFc=2.0000 IDamp=-1.
 RMSDP=8.01D-04 MaxDP=2.58D-02              OVMax= 3.28D-02

 Cycle   2  Pass 0  IDiag  1:
 RMSU=  8.00D-04    CP:  9.98D-01
 CoulSu:  requested number of processors reduced to:  11 ShMem   1 Linda.
 CalDSu:  requested number of processors reduced to:  21 ShMem   1 Linda.
 E= -284.350625327622     Delta-E=       -0.009227700689 Rises=F Damp=F
 DIIS: error= 8.42D-04 at cycle   2 NSaved=   2.
 NSaved= 2 IEnMin= 2 EnMin= -284.350625327622     IErMin= 2 ErrMin= 8.42D-04
 ErrMax= 8.42D-04  0.00D+00 EMaxC= 1.00D-01 BMatC= 3.60D-04 BMatP= 8.06D-03
 IDIUse=3 WtCom= 9.92D-01 WtEn= 8.42D-03
 Coeff-Com:  0.451D-01 0.955D+00
 Coeff-En:   0.000D+00 0.100D+01
 Coeff:      0.447D-01 0.955D+00
 Gap=     0.269 Goal=   None    Shift=    0.000
 RMSDP=1.87D-04 MaxDP=7.50D-03 DE=-9.23D-03 OVMax= 1.30D-02

 Cycle   3  Pass 0  IDiag  1:
 RMSU=  1.82D-04    CP:  9.98D-01  1.05D+00
 CoulSu:  requested number of processors reduced to:  11 ShMem   1 Linda.
 CalDSu:  requested number of processors reduced to:  21 ShMem   1 Linda.
 E= -284.350564653311     Delta-E=        0.000060674312 Rises=F Damp=F
 DIIS: error= 1.06D-03 at cycle   3 NSaved=   3.
 NSaved= 3 IEnMin= 2 EnMin= -284.350625327622     IErMin= 2 ErrMin= 8.42D-04
 ErrMax= 1.06D-03  0.00D+00 EMaxC= 1.00D-01 BMatC= 4.55D-04 BMatP= 3.60D-04
 IDIUse=3 WtCom= 2.35D-01 WtEn= 7.65D-01
 Coeff-Com: -0.191D-01 0.537D+00 0.482D+00
 Coeff-En:   0.000D+00 0.545D+00 0.455D+00
 Coeff:     -0.448D-02 0.543D+00 0.461D+00
 Gap=     0.269 Goal=   None    Shift=    0.000
 RMSDP=1.21D-04 MaxDP=4.73D-03 DE= 6.07D-05 OVMax= 1.02D-02

 Cycle   4  Pass 0  IDiag  1:
 RMSU=  5.89D-05    CP:  9.98D-01  1.06D+00  4.22D-01
 CoulSu:  requested number of processors reduced to:  11 ShMem   1 Linda.
 CalDSu:  requested number of processors reduced to:  21 ShMem   1 Linda.
 E= -284.350920451364     Delta-E=       -0.000355798053 Rises=F Damp=F
 DIIS: error= 3.22D-04 at cycle   4 NSaved=   4.
 NSaved= 4 IEnMin= 4 EnMin= -284.350920451364     IErMin= 4 ErrMin= 3.22D-04
 ErrMax= 3.22D-04  0.00D+00 EMaxC= 1.00D-01 BMatC= 2.96D-05 BMatP= 3.60D-04
 IDIUse=3 WtCom= 9.97D-01 WtEn= 3.22D-03
 Coeff-Com: -0.123D-01 0.184D+00 0.251D+00 0.577D+00
 Coeff-En:   0.000D+00 0.000D+00 0.000D+00 0.100D+01
 Coeff:     -0.123D-01 0.183D+00 0.251D+00 0.578D+00
 Gap=     0.269 Goal=   None    Shift=    0.000
 RMSDP=3.37D-05 MaxDP=1.71D-03 DE=-3.56D-04 OVMax= 3.10D-03

 Cycle   5  Pass 0  IDiag  1:
 RMSU=  1.89D-05    CP:  9.98D-01  1.07D+00  5.09D-01  6.19D-01
 CoulSu:  requested number of processors reduced to:  11 ShMem   1 Linda.
 CalDSu:  requested number of processors reduced to:  21 ShMem   1 Linda.
 E= -284.350946727731     Delta-E=       -0.000026276367 Rises=F Damp=F
 DIIS: error= 9.25D-05 at cycle   5 NSaved=   5.
 NSaved= 5 IEnMin= 5 EnMin= -284.350946727731     IErMin= 5 ErrMin= 9.25D-05
 ErrMax= 9.25D-05  0.00D+00 EMaxC= 1.00D-01 BMatC= 2.23D-06 BMatP= 2.96D-05
 IDIUse=1 WtCom= 1.00D+00 WtEn= 0.00D+00
 Coeff-Com: -0.485D-02 0.509D-01 0.879D-01 0.291D+00 0.575D+00
 Coeff:     -0.485D-02 0.509D-01 0.879D-01 0.291D+00 0.575D+00
 Gap=     0.269 Goal=   None    Shift=    0.000
 RMSDP=8.61D-06 MaxDP=3.57D-04 DE=-2.63D-05 OVMax= 5.57D-04

 Initial convergence to 1.0D-05 achieved.  Increase integral accuracy.
 Cycle   6  Pass 1  IDiag  1:
 CoulSu:  requested number of processors reduced to:  11 ShMem   1 Linda.
 CalDSu:  requested number of processors reduced to:  21 ShMem   1 Linda.
 E= -284.350968336677     Delta-E=       -0.000021608946 Rises=F Damp=F
 DIIS: error= 2.45D-05 at cycle   1 NSaved=   1.
 NSaved= 1 IEnMin= 1 EnMin= -284.350968336677     IErMin= 1 ErrMin= 2.45D-05
 ErrMax= 2.45D-05  0.00D+00 EMaxC= 1.00D-01 BMatC= 3.21D-07 BMatP= 3.21D-07
 IDIUse=1 WtCom= 1.00D+00 WtEn= 0.00D+00
 Coeff-Com:  0.100D+01
 Coeff:      0.100D+01
 Gap=     0.269 Goal=   None    Shift=    0.000
 RMSDP=8.61D-06 MaxDP=3.57D-04 DE=-2.16D-05 OVMax= 2.57D-04

 Cycle   7  Pass 1  IDiag  1:
 RMSU=  6.99D-06    CP:  1.00D+00
 CoulSu:  requested number of processors reduced to:  11 ShMem   1 Linda.
 CalDSu:  requested number of processors reduced to:  21 ShMem   1 Linda.
 E= -284.350967993248     Delta-E=        0.000000343428 Rises=F Damp=F
 DIIS: error= 4.34D-05 at cycle   2 NSaved=   2.
 NSaved= 2 IEnMin= 1 EnMin= -284.350968336677     IErMin= 1 ErrMin= 2.45D-05
 ErrMax= 4.34D-05  0.00D+00 EMaxC= 1.00D-01 BMatC= 8.11D-07 BMatP= 3.21D-07
 IDIUse=1 WtCom= 1.00D+00 WtEn= 0.00D+00
 Coeff-Com:  0.620D+00 0.380D+00
 Coeff:      0.620D+00 0.380D+00
 Gap=     0.269 Goal=   None    Shift=    0.000
 RMSDP=3.89D-06 MaxDP=1.63D-04 DE= 3.43D-07 OVMax= 1.79D-04

 Cycle   8  Pass 1  IDiag  1:
 RMSU=  2.43D-06    CP:  1.00D+00  5.66D-01
 CoulSu:  requested number of processors reduced to:  11 ShMem   1 Linda.
 CalDSu:  requested number of processors reduced to:  21 ShMem   1 Linda.
 E= -284.350968574555     Delta-E=       -0.000000581307 Rises=F Damp=F
 DIIS: error= 3.98D-06 at cycle   3 NSaved=   3.
 NSaved= 3 IEnMin= 3 EnMin= -284.350968574555     IErMin= 3 ErrMin= 3.98D-06
 ErrMax= 3.98D-06  0.00D+00 EMaxC= 1.00D-01 BMatC= 7.28D-09 BMatP= 3.21D-07
 IDIUse=1 WtCom= 1.00D+00 WtEn= 0.00D+00
 Coeff-Com:  0.122D+00 0.120D+00 0.758D+00
 Coeff:      0.122D+00 0.120D+00 0.758D+00
 Gap=     0.269 Goal=   None    Shift=    0.000
 RMSDP=5.98D-07 MaxDP=1.97D-05 DE=-5.81D-07 OVMax= 4.20D-05

 Cycle   9  Pass 1  IDiag  1:
 RMSU=  5.33D-07    CP:  1.00D+00  6.02D-01  9.59D-01
 CoulSu:  requested number of processors reduced to:  11 ShMem   1 Linda.
 CalDSu:  requested number of processors reduced to:  21 ShMem   1 Linda.
 E= -284.350968577795     Delta-E=       -0.000000003240 Rises=F Damp=F
 DIIS: error= 2.44D-06 at cycle   4 NSaved=   4.
 NSaved= 4 IEnMin= 4 EnMin= -284.350968577795     IErMin= 4 ErrMin= 2.44D-06
 ErrMax= 2.44D-06  0.00D+00 EMaxC= 1.00D-01 BMatC= 2.79D-09 BMatP= 7.28D-09
 IDIUse=1 WtCom= 1.00D+00 WtEn= 0.00D+00
 Coeff-Com:  0.146D-01 0.368D-01 0.441D+00 0.508D+00
 Coeff:      0.146D-01 0.368D-01 0.441D+00 0.508D+00
 Gap=     0.269 Goal=   None    Shift=    0.000
 RMSDP=3.06D-07 MaxDP=1.07D-05 DE=-3.24D-09 OVMax= 2.50D-05

 Cycle  10  Pass 1  IDiag  1:
 RMSU=  1.55D-07    CP:  1.00D+00  6.02D-01  9.85D-01  5.20D-01
 CoulSu:  requested number of processors reduced to:  11 ShMem   1 Linda.
 CalDSu:  requested number of processors reduced to:  21 ShMem   1 Linda.
 E= -284.350968579901     Delta-E=       -0.000000002107 Rises=F Damp=F
 DIIS: error= 1.03D-06 at cycle   5 NSaved=   5.
 NSaved= 5 IEnMin= 5 EnMin= -284.350968579901     IErMin= 5 ErrMin= 1.03D-06
 ErrMax= 1.03D-06  0.00D+00 EMaxC= 1.00D-01 BMatC= 2.54D-10 BMatP= 2.79D-09
 IDIUse=1 WtCom= 1.00D+00 WtEn= 0.00D+00
 Coeff-Com: -0.757D-02 0.641D-02 0.152D+00 0.286D+00 0.563D+00
 Coeff:     -0.757D-02 0.641D-02 0.152D+00 0.286D+00 0.563D+00
 Gap=     0.269 Goal=   None    Shift=    0.000
 RMSDP=7.88D-08 MaxDP=3.64D-06 DE=-2.11D-09 OVMax= 7.41D-06

 Cycle  11  Pass 1  IDiag  1:
 RMSU=  3.57D-08    CP:  1.00D+00  6.03D-01  9.82D-01  5.93D-01  6.32D-01
 CoulSu:  requested number of processors reduced to:  11 ShMem   1 Linda.
 CalDSu:  requested number of processors reduced to:  21 ShMem   1 Linda.
 E= -284.350968580125     Delta-E=       -0.000000000223 Rises=F Damp=F
 DIIS: error= 1.32D-07 at cycle   6 NSaved=   6.
 NSaved= 6 IEnMin= 6 EnMin= -284.350968580125     IErMin= 6 ErrMin= 1.32D-07
 ErrMax= 1.32D-07  0.00D+00 EMaxC= 1.00D-01 BMatC= 3.95D-12 BMatP= 2.54D-10
 IDIUse=1 WtCom= 1.00D+00 WtEn= 0.00D+00
 Coeff-Com: -0.342D-02 0.208D-02 0.539D-01 0.106D+00 0.236D+00 0.605D+00
 Coeff:     -0.342D-02 0.208D-02 0.539D-01 0.106D+00 0.236D+00 0.605D+00
 Gap=     0.269 Goal=   None    Shift=    0.000
 RMSDP=1.45D-08 MaxDP=7.29D-07 DE=-2.23D-10 OVMax= 1.04D-06

 Cycle  12  Pass 1  IDiag  1:
 RMSU=  1.19D-08    CP:  1.00D+00  6.03D-01  9.83D-01  5.91D-01  6.70D-01
                    CP:  8.54D-01
 CoulSu:  requested number of processors reduced to:  11 ShMem   1 Linda.
 CalDSu:  requested number of processors reduced to:  21 ShMem   1 Linda.
 E= -284.350968580126     Delta-E=       -0.000000000002 Rises=F Damp=F
 DIIS: error= 4.61D-08 at cycle   7 NSaved=   7.
 NSaved= 7 IEnMin= 7 EnMin= -284.350968580126     IErMin= 7 ErrMin= 4.61D-08
 ErrMax= 4.61D-08  0.00D+00 EMaxC= 1.00D-01 BMatC= 5.20D-13 BMatP= 3.95D-12
 IDIUse=1 WtCom= 1.00D+00 WtEn= 0.00D+00
 Coeff-Com: -0.234D-03-0.288D-04-0.119D-02-0.736D-03 0.851D-02 0.263D+00
 Coeff-Com:  0.731D+00
 Coeff:     -0.234D-03-0.288D-04-0.119D-02-0.736D-03 0.851D-02 0.263D+00
 Coeff:      0.731D+00
 Gap=     0.269 Goal=   None    Shift=    0.000
 RMSDP=5.13D-09 MaxDP=2.05D-07 DE=-1.59D-12 OVMax= 3.71D-07

 SCF Done:  E(RB3LYP) =  -284.350968580     A.U. after   12 cycles
            NFock= 12  Conv=0.51D-08     -V/T= 2.0064
 KE= 2.825392935642D+02 PE=-1.031232517368D+03 EE= 2.821791107592D+02
 Leave Link  502 at Fri Aug 19 19:11:40 2022, MaxMem=    23592960 cpu:        75.2
 (Enter /public/home/users/caep010/software/Gaussian09/g09/l701.exe)
 Compute integral first derivatives.
 ... and contract with generalized density number  0.
 PrsmSu:  requested number of processors reduced to:   3 ShMem   1 Linda.
 PrsmSu:  requested number of processors reduced to:   6 ShMem   1 Linda.
 Leave Link  701 at Fri Aug 19 19:11:40 2022, MaxMem=    23592960 cpu:         1.8
 (Enter /public/home/users/caep010/software/Gaussian09/g09/l702.exe)
 L702 exits ... SP integral derivatives will be done elsewhere.
 Leave Link  702 at Fri Aug 19 19:11:40 2022, MaxMem=    23592960 cpu:         0.5
 (Enter /public/home/users/caep010/software/Gaussian09/g09/l703.exe)
 Compute integral first derivatives, UseDBF=F ICtDFT=           0.
 Integral derivatives from FoFJK, PRISM(SPDF).
 Calling FoFJK, ICntrl=      2127 FMM=F ISym2X=0 I1Cent= 0 IOpClX= 0 NMat=1 NMatS=1 NMatT=0.
 FoFJK:  IHMeth= 1 ICntrl=    2127 DoSepK=F KAlg= 0 I1Cent=   0 FoldK=F
 IRaf=         0 NMat=   1 IRICut=       1 DoRegI=T DoRafI=F ISym2E= 0.
 FoFCou: FMM=F IPFlag=           0 FMFlag=      100000 FMFlg1=         800
         NFxFlg=           0 DoJE=F BraDBF=F KetDBF=F FulRan=T
         wScrn=  0.000000 ICntrl=    2127 IOpCl=  0 I1Cent=           0 NGrid=           0
         NMat0=    1 NMatS0=      1 NMatT0=    0 NMatD0=    1 NMtDS0=    0 NMtDT0=    0
 Symmetry not used in FoFCou.
 CoulSu:  requested number of processors reduced to:   6 ShMem   1 Linda.
 CalDSu:  requested number of processors reduced to:  18 ShMem   1 Linda.
 Leave Link  703 at Fri Aug 19 19:11:42 2022, MaxMem=    23592960 cpu:        17.2
 (Enter /public/home/users/caep010/software/Gaussian09/g09/l716.exe)
 Dipole        = 7.26849966D-01-7.24724590D-01 4.12763092D-01
 ***** Axes restored to original set *****
 -------------------------------------------------------------------
 Center     Atomic                   Forces (Hartrees/Bohr)
 Number     Number              X              Y              Z
 -------------------------------------------------------------------
      1        6           0.000795351   -0.003312503   -0.001390122
      2        6          -0.002200808   -0.005563506    0.002662050
      3        8           0.006050377    0.008637492    0.002042734
      4        8          -0.015213387    0.025987234   -0.014211816
      5        7           0.014985677   -0.020366114    0.008900732
      6        1          -0.000884182    0.001661324    0.000670967
      7        1           0.000608782    0.001935097   -0.000163141
      8        1           0.000586941   -0.012159182    0.001788500
      9        1          -0.001431055    0.004201090    0.001944013
     10        1          -0.003297697   -0.001020933   -0.002243917
 -------------------------------------------------------------------
 Cartesian Forces:  Max     0.025987234 RMS     0.008561715
 Leave Link  716 at Fri Aug 19 19:11:42 2022, MaxMem=    23592960 cpu:         0.6
 (Enter /public/home/users/caep010/software/Gaussian09/g09/l103.exe)

 GradGradGradGradGradGradGradGradGradGradGradGradGradGradGradGradGradGrad
 Berny optimization.
 Using GEDIIS/GDIIS optimizer.
 FormGI is forming the generalized inverse of G from B-inverse, IUseBI=4.
 Internal  Forces:  Max     0.021645949 RMS     0.006383590
 Search for a local minimum.
 Step number   2 out of a maximum of   41
 All quantities printed in internal units (Hartrees-Bohrs-Radians)
 RMS Force = .63836D-02 SwitMx=.10000D-02 MixMth= 1
 Mixed Optimization -- RFO/linear search
 Update second derivatives using D2CorX and points    1    2
 DE= -2.13D-02 DEPred=-2.13D-02 R= 9.99D-01
 TightC=F SS=  1.41D+00  RLast= 3.15D-01 DXNew= 5.0454D-01 9.4591D-01
 Trust test= 9.99D-01 RLast= 3.15D-01 DXMaxT set to 5.05D-01
 ITU=  1  0
 Use linear search instead of GDIIS.
     Eigenvalues ---    0.01562   0.01670   0.01815   0.02421   0.02964
     Eigenvalues ---    0.02966   0.05851   0.12578   0.15082   0.16000
     Eigenvalues ---    0.16000   0.16305   0.23049   0.25000   0.28427
     Eigenvalues ---    0.35686   0.35790   0.40322   0.40683   0.43847
     Eigenvalues ---    0.45578   0.46697   0.52887   0.58651
 RFO step:  Lambda=-2.67927486D-03 EMin= 1.56226013D-02
 Quartic linear search produced a step of  0.25349.
 Iteration  1 RMS(Cart)=  0.06856052 RMS(Int)=  0.00257447
 Iteration  2 RMS(Cart)=  0.00245115 RMS(Int)=  0.00013499
 Iteration  3 RMS(Cart)=  0.00000198 RMS(Int)=  0.00013498
 Iteration  4 RMS(Cart)=  0.00000000 RMS(Int)=  0.00013498
 ITry= 1 IFail=0 DXMaxC= 1.99D-01 DCOld= 1.00D+10 DXMaxT= 5.05D-01 DXLimC= 3.00D+00 Rises=F
 Variable       Old X    -DE/DX   Delta X   Delta X   Delta X     New X
                                 (Linear)    (Quad)   (Total)
    R1        2.51654  -0.00041  -0.00095   0.00012  -0.00083   2.51571
    R2        2.03983  -0.00149  -0.00105  -0.00395  -0.00499   2.03483
    R3        2.04247  -0.00085  -0.00081  -0.00203  -0.00284   2.03963
    R4        2.55891  -0.00759  -0.01753  -0.00097  -0.01850   2.54041
    R5        2.58461  -0.00395  -0.01629   0.00700  -0.00928   2.57533
    R6        1.84009  -0.01010  -0.01868  -0.00719  -0.02588   1.81421
    R7        2.63754   0.02165   0.00765   0.04662   0.05427   2.69181
    R8        1.94607  -0.00401  -0.00751  -0.00388  -0.01139   1.93468
    R9        1.93174  -0.00399  -0.01056  -0.00036  -0.01092   1.92081
    A1        2.10968   0.00042  -0.00330   0.00809   0.00467   2.11436
    A2        2.09770  -0.00210   0.00032  -0.01671  -0.01650   2.08120
    A3        2.07573   0.00167   0.00296   0.00833   0.01118   2.08691
    A4        2.12998   0.00656   0.01366   0.01505   0.02870   2.15868
    A5        2.19699   0.00925   0.01667   0.02450   0.04115   2.23814
    A6        1.95619  -0.01581  -0.03034  -0.03960  -0.06996   1.88623
    A7        1.95942  -0.01291  -0.03689  -0.04384  -0.08073   1.87870
    A8        1.98414  -0.00245  -0.03919   0.03795  -0.00124   1.98290
    A9        1.86437  -0.00397  -0.00153  -0.02979  -0.03143   1.83294
   A10        1.78985  -0.00015  -0.01804   0.02421   0.00592   1.79577
   A11        1.85353  -0.00014  -0.00066  -0.00375  -0.00463   1.84889
    D1       -3.12712   0.00078   0.00186   0.02253   0.02420  -3.10292
    D2        0.02293   0.00133   0.00507   0.03081   0.03607   0.05900
    D3        0.00165  -0.00012  -0.00034  -0.00350  -0.00402  -0.00237
    D4       -3.13149   0.00042   0.00288   0.00478   0.00785  -3.12364
    D5       -3.13836   0.00027   0.00129   0.00906   0.01009  -3.12827
    D6       -0.00416  -0.00012  -0.00163   0.00207   0.00069  -0.00347
    D7        0.03212  -0.00022  -0.00308   0.00560   0.00271   0.03483
    D8       -3.10174   0.00020  -0.00004   0.01298   0.01276  -3.08898
    D9        1.31662   0.00192   0.00995   0.04310   0.05291   1.36953
   D10       -3.02119   0.00028   0.00067   0.03828   0.03909  -2.98209
   D11        1.90099  -0.00186  -0.02137   0.01337  -0.00784   1.89316
         Item               Value     Threshold  Converged?
 Maximum Force            0.021646     0.000450     NO 
 RMS     Force            0.006384     0.000300     NO 
 Maximum Displacement     0.199451     0.001800     NO 
 RMS     Displacement     0.068511     0.001200     NO 
 Predicted change in Energy=-2.688383D-03
 Lowest energy point so far.  Saving SCF results.
 GradGradGradGradGradGradGradGradGradGradGradGradGradGradGradGradGradGrad

 Leave Link  103 at Fri Aug 19 19:11:42 2022, MaxMem=    23592960 cpu:         0.8
 (Enter /public/home/users/caep010/software/Gaussian09/g09/l202.exe)
                          Input orientation:                          
 ---------------------------------------------------------------------
 Center     Atomic      Atomic             Coordinates (Angstroms)
 Number     Number       Type             X           Y           Z
 ---------------------------------------------------------------------
      1          6           0       -1.046679   -0.932373    0.000152
      2          6           0       -0.584997    0.314801    0.060571
      3          8           0       -1.253530    1.381008   -0.412160
      4          8           0        0.604032    0.750552    0.564127
      5          7           0        1.441820   -0.299289    1.038465
      6          1           0       -0.492241   -1.752575    0.423634
      7          1           0       -2.011028   -1.116497   -0.448262
      8          1           0       -0.708391    2.156674   -0.261025
      9          1           0        1.860997   -0.704909    0.197093
     10          1           0        2.190118    0.202709    1.508805
 ---------------------------------------------------------------------
                    Distance matrix (angstroms):
                    1          2          3          4          5
     1  C    0.000000
     2  C    1.331256   0.000000
     3  O    2.358924   1.344325   0.000000
     4  O    2.423871   1.362805   2.191153   0.000000
     5  N    2.769750   2.332674   3.491793   1.424447   0.000000
     6  H    1.076786   2.101062   3.331284   2.736274   2.496127
     7  H    1.079327   2.083528   2.610103   3.368879   3.847121
     8  H    3.118471   1.873805   0.960040   2.092967   3.513379
     9  H    2.923201   2.653551   3.797699   1.957815   1.023789
    10  H    3.747172   3.132285   4.115484   1.925673   1.016450
                    6          7          8          9         10
     6  H    0.000000
     7  H    1.863199   0.000000
     8  H    3.974632   3.527828   0.000000
     9  H    2.585856   3.946957   3.873020   0.000000
    10  H    3.492246   4.818718   3.918116   1.628705   0.000000
 Stoichiometry    C2H5NO2
 Framework group  C1[X(C2H5NO2)]
 Deg. of freedom    24
 Full point group                 C1      NOp   1
 RotChk:  IX=0 Diff= 5.20D-02
 Largest Abelian subgroup         C1      NOp   1
 Largest concise Abelian subgroup C1      NOp   1
                         Standard orientation:                         
 ---------------------------------------------------------------------
 Center     Atomic      Atomic             Coordinates (Angstroms)
 Number     Number       Type             X           Y           Z
 ---------------------------------------------------------------------
      1          6           0       -0.601554    1.413217   -0.025712
      2          6           0       -0.518579    0.084561   -0.020090
      3          8           0       -1.587171   -0.728942    0.039352
      4          8           0        0.601878   -0.690679   -0.048664
      5          7           0        1.813821    0.057801   -0.043765
      6          1           0        0.279916    2.025896   -0.109997
      7          1           0       -1.573281    1.881030    0.017225
      8          1           0       -1.264658   -1.633184    0.042072
      9          1           0        1.945283    0.343482    0.930528
     10          1           0        2.519138   -0.651534   -0.224163
 ---------------------------------------------------------------------
 Rotational constants (GHZ):      9.6977348      4.3895781      3.0591745
 Leave Link  202 at Fri Aug 19 19:11:42 2022, MaxMem=    23592960 cpu:         0.2
 (Enter /public/home/users/caep010/software/Gaussian09/g09/l301.exe)
 Standard basis: GTBas3 (6D, 7F)
 Ernie: Thresh=  0.10000D-02 Tol=  0.10000D-05 Strict=F.
 There are   180 symmetry adapted cartesian basis functions of A   symmetry.
 There are   165 symmetry adapted basis functions of A   symmetry.
   165 basis functions,   255 primitive gaussians,   180 cartesian basis functions
    20 alpha electrons       20 beta electrons
       nuclear repulsion energy       182.3315003803 Hartrees.
 IExCor=  402 DFT=T Ex+Corr=B3LYP ExCW=0 ScaHFX=  0.200000
 ScaDFX=  0.800000  0.720000  1.000000  0.810000 ScalE2=  1.000000  1.000000
 IRadAn=      0 IRanWt=     -1 IRanGd=            0 ICorTp=0 IEmpDi=  4
 NAtoms=   10 NActive=   10 NUniq=   10 SFac= 1.00D+00 NAtFMM=   60 NAOKFM=F Big=F
 Integral buffers will be    131072 words long.
 Raffenetti 2 integral format.
 Two-electron integral symmetry is turned on.
 Leave Link  301 at Fri Aug 19 19:11:42 2022, MaxMem=    23592960 cpu:         1.7
 (Enter /public/home/users/caep010/software/Gaussian09/g09/l302.exe)
 NPDir=0 NMtPBC=     1 NCelOv=     1 NCel=       1 NClECP=     1 NCelD=      1
         NCelK=      1 NCelE2=     1 NClLst=     1 CellRange=     0.0.
 One-electron integrals computed using PRISM.
 PrsmSu:  requested number of processors reduced to:   3 ShMem   1 Linda.
 PrsmSu:  requested number of processors reduced to:  11 ShMem   1 Linda.
 NBasis=   165 RedAO= T EigKep=  9.12D-04  NBF=   165
 NBsUse=   165 1.00D-06 EigRej= -1.00D+00 NBFU=   165
 Precomputing XC quadrature grid using
 IXCGrd= 4 IRadAn=           0 IRanWt=          -1 IRanGd=           0 AccXCQ= 0.00D+00.
 Generated NRdTot=       0 NPtTot=           0 NUsed=           0 NTot=          32
 NSgBfM=   180   180   180   180   180 MxSgAt=    10 MxSgA2=    10.
 Leave Link  302 at Fri Aug 19 19:11:42 2022, MaxMem=    23592960 cpu:         6.0
 (Enter /public/home/users/caep010/software/Gaussian09/g09/l303.exe)
 DipDrv:  MaxL=1.
 Leave Link  303 at Fri Aug 19 19:11:42 2022, MaxMem=    23592960 cpu:         0.6
 (Enter /public/home/users/caep010/software/Gaussian09/g09/l401.exe)
 Initial guess from the checkpoint file:  "G4.Frag_949.chk"
 B after Tr=    -0.000000   -0.000000    0.000000
         Rot=    0.999862   -0.002713   -0.000753   -0.016357 Ang=  -1.90 deg.
 Guess basis will be translated and rotated to current coordinates.
 JPrj=2 DoOrth=T DoCkMO=T.
 Generating alternative initial guess.
 ExpMin= 1.61D-01 ExpMax= 5.48D+03 ExpMxC= 8.25D+02 IAcc=1 IRadAn=         1 AccDes= 0.00D+00
 Harris functional with IExCor=  402 and IRadAn=       1 diagonalized for initial guess.
 HarFok:  IExCor=  402 AccDes= 0.00D+00 IRadAn=         1 IDoV= 1 UseB2=F ITyADJ=14
 ICtDFT=  3500011 ScaDFX=  1.000000  1.000000  1.000000  1.000000
 CalDSu:  requested number of processors reduced to:  21 ShMem   1 Linda.
 FoFCou: FMM=F IPFlag=           0 FMFlag=      100000 FMFlg1=           0
         NFxFlg=           0 DoJE=T BraDBF=F KetDBF=T FulRan=T
         wScrn=  0.000000 ICntrl=     500 IOpCl=  0 I1Cent=   200000004 NGrid=           0
         NMat0=    1 NMatS0=      1 NMatT0=    0 NMatD0=    1 NMtDS0=    0 NMtDT0=    0
 Petite list used in FoFCou.
 CoulSu:  requested number of processors reduced to:  11 ShMem   1 Linda.
 CoulSu:  requested number of processors reduced to:  11 ShMem   1 Linda.
 CoulSu:  requested number of processors reduced to:  12 ShMem   1 Linda.
 CoulSu:  requested number of processors reduced to:  12 ShMem   1 Linda.
 Harris En= -284.388926271524    
 Leave Link  401 at Fri Aug 19 19:11:43 2022, MaxMem=    23592960 cpu:         6.1
 (Enter /public/home/users/caep010/software/Gaussian09/g09/l502.exe)
 Closed shell SCF:
 Using DIIS extrapolation, IDIIS=  1040.
 Integral symmetry usage will be decided dynamically.
 IVT=      122820 IEndB=      122820 NGot=    23592960 MDV=    23519361
 LenX=    23519361 LenY=    23486520
 Requested convergence on RMS density matrix=1.00D-08 within 128 cycles.
 Requested convergence on MAX density matrix=1.00D-06.
 Requested convergence on             energy=1.00D-06.
 No special actions if energy rises.
 Fock matrices will be formed incrementally for  20 cycles.
 Integral accuracy reduced to 1.0D-05 until final iterations.

 Cycle   1  Pass 0  IDiag  1:
 FoFJK:  IHMeth= 1 ICntrl=       0 DoSepK=F KAlg= 0 I1Cent=   0 FoldK=F
 IRaf= 980000000 NMat=   1 IRICut=       1 DoRegI=T DoRafI=F ISym2E= 0.
 FoFCou: FMM=F IPFlag=           0 FMFlag=      100000 FMFlg1=           0
         NFxFlg=           0 DoJE=F BraDBF=F KetDBF=F FulRan=T
         wScrn=  0.000000 ICntrl=       0 IOpCl=  0 I1Cent=           0 NGrid=           0
         NMat0=    1 NMatS0=      1 NMatT0=    0 NMatD0=    1 NMtDS0=    0 NMtDT0=    0
 Symmetry not used in FoFCou.
 CoulSu:  requested number of processors reduced to:  11 ShMem   1 Linda.
 CalDSu:  requested number of processors reduced to:  21 ShMem   1 Linda.
 E= -284.349189821358    
 DIIS: error= 3.24D-03 at cycle   1 NSaved=   1.
 NSaved= 1 IEnMin= 1 EnMin= -284.349189821358     IErMin= 1 ErrMin= 3.24D-03
 ErrMax= 3.24D-03  0.00D+00 EMaxC= 1.00D-01 BMatC= 3.40D-03 BMatP= 3.40D-03
 IDIUse=3 WtCom= 9.68D-01 WtEn= 3.24D-02
 Coeff-Com:  0.100D+01
 Coeff-En:   0.100D+01
 Coeff:      0.100D+01
 Gap=     0.874 Goal=   None    Shift=    0.000
 GapD=    0.874 DampG=2.000 DampE=1.000 DampFc=2.0000 IDamp=-1.
 RMSDP=4.99D-04 MaxDP=1.88D-02              OVMax= 1.96D-02

 Cycle   2  Pass 0  IDiag  1:
 RMSU=  4.99D-04    CP:  1.00D+00
 CoulSu:  requested number of processors reduced to:  11 ShMem   1 Linda.
 CalDSu:  requested number of processors reduced to:  21 ShMem   1 Linda.
 E= -284.353200998262     Delta-E=       -0.004011176904 Rises=F Damp=F
 DIIS: error= 5.41D-04 at cycle   2 NSaved=   2.
 NSaved= 2 IEnMin= 2 EnMin= -284.353200998262     IErMin= 2 ErrMin= 5.41D-04
 ErrMax= 5.41D-04  0.00D+00 EMaxC= 1.00D-01 BMatC= 9.12D-05 BMatP= 3.40D-03
 IDIUse=3 WtCom= 9.95D-01 WtEn= 5.41D-03
 Coeff-Com: -0.327D-02 0.100D+01
 Coeff-En:   0.000D+00 0.100D+01
 Coeff:     -0.326D-02 0.100D+01
 Gap=     0.268 Goal=   None    Shift=    0.000
 RMSDP=8.31D-05 MaxDP=3.33D-03 DE=-4.01D-03 OVMax= 5.26D-03

 Cycle   3  Pass 0  IDiag  1:
 RMSU=  7.84D-05    CP:  9.99D-01  1.05D+00
 CoulSu:  requested number of processors reduced to:  11 ShMem   1 Linda.
 CalDSu:  requested number of processors reduced to:  21 ShMem   1 Linda.
 E= -284.353208559025     Delta-E=       -0.000007560763 Rises=F Damp=F
 DIIS: error= 4.69D-04 at cycle   3 NSaved=   3.
 NSaved= 3 IEnMin= 3 EnMin= -284.353208559025     IErMin= 3 ErrMin= 4.69D-04
 ErrMax= 4.69D-04  0.00D+00 EMaxC= 1.00D-01 BMatC= 9.23D-05 BMatP= 9.12D-05
 IDIUse=3 WtCom= 9.95D-01 WtEn= 4.69D-03
 Coeff-Com: -0.258D-01 0.516D+00 0.510D+00
 Coeff-En:   0.000D+00 0.470D+00 0.530D+00
 Coeff:     -0.257D-01 0.516D+00 0.510D+00
 Gap=     0.268 Goal=   None    Shift=    0.000
 RMSDP=5.55D-05 MaxDP=2.36D-03 DE=-7.56D-06 OVMax= 4.32D-03

 Cycle   4  Pass 0  IDiag  1:
 RMSU=  3.08D-05    CP:  1.00D+00  1.06D+00  4.15D-01
 CoulSu:  requested number of processors reduced to:  11 ShMem   1 Linda.
 CalDSu:  requested number of processors reduced to:  21 ShMem   1 Linda.
[...]
 Alpha virt. eigenvalues --    2.08041   2.10057   2.11573   2.13655   2.18228
 Alpha virt. eigenvalues --    2.18980   2.22010   2.23138   2.27574   2.27982
 Alpha virt. eigenvalues --    2.28946   2.30892   2.31763   2.33440   2.37579
 Alpha virt. eigenvalues --    2.40121   2.41452   2.42805   2.45343   2.46351
 Alpha virt. eigenvalues --    2.46917   2.49108   2.53104   2.54749   2.61570
 Alpha virt. eigenvalues --    2.61685   2.62496   2.65908   2.68330   2.68472
 Alpha virt. eigenvalues --    2.69642   2.70307   2.73287   2.75922   2.77305
 Alpha virt. eigenvalues --    2.77443   2.79118   2.82475   2.85012   2.87915
 Alpha virt. eigenvalues --    2.89951   2.90225   2.91949   2.94951   2.95985
 Alpha virt. eigenvalues --    2.99724   3.02025   3.04204   3.05229   3.08077
 Alpha virt. eigenvalues --    3.10916   3.11371   3.13884   3.15590   3.20253
 Alpha virt. eigenvalues --    3.20341   3.21485   3.21589   3.22870   3.25980
 Alpha virt. eigenvalues --    3.28177   3.30425   3.30958   3.34276   3.35856
 Alpha virt. eigenvalues --    3.35862   3.38211   3.38397   3.44358   3.45136
 Alpha virt. eigenvalues --    3.46953   3.47401   3.50153   3.51209   3.53298
 Alpha virt. eigenvalues --    3.57645   3.59442   3.59759   3.62593   3.63223
 Alpha virt. eigenvalues --    3.66198   3.70946   3.71496   3.72305   3.76378
 Alpha virt. eigenvalues --    3.76732   3.78975   3.84316   3.86115   3.90493
 Alpha virt. eigenvalues --    3.91632   3.91943   3.95819   3.99324   3.99709
 Alpha virt. eigenvalues --    4.08635   4.10671   4.11046   4.11920   4.15874
 Alpha virt. eigenvalues --    4.18202   4.18309   4.20606   4.21324   4.25178
 Alpha virt. eigenvalues --    4.26562   4.30168   4.34695   4.38075   4.40200
 Alpha virt. eigenvalues --    4.41124   4.43639   4.44130   4.54673   4.56447
 Alpha virt. eigenvalues --    4.59101   4.60423   4.67735   4.68420   4.72292
 Alpha virt. eigenvalues --    4.77079   4.78555   4.79798   4.85619   4.88770
 Alpha virt. eigenvalues --    4.92754   5.01983   5.02948   5.03614   5.04109
 Alpha virt. eigenvalues --    5.12136   5.14487   5.21526   5.24298   5.31669
 Alpha virt. eigenvalues --    5.33736   5.33752   5.38838   5.42530   5.44155
 Alpha virt. eigenvalues --    5.46686   5.48787   5.55233   5.60367   5.61682
 Alpha virt. eigenvalues --    5.67145   5.71648   5.73126   5.77811   5.82278
 Alpha virt. eigenvalues --    5.86084   5.86319   5.93778   5.96630   5.99376
 Alpha virt. eigenvalues --    6.05539   6.10053   6.17310   6.18161   6.22168
 Alpha virt. eigenvalues --    6.28790   6.29795   6.34571   6.38910   6.43552
 Alpha virt. eigenvalues --    6.53762   6.58899   6.59852   6.61877   6.64011
 Alpha virt. eigenvalues --    6.71025   6.73666   6.83457   6.85652   6.94248
 Alpha virt. eigenvalues --    6.97243   7.01382   7.05263   7.05847   7.10961
 Alpha virt. eigenvalues --    7.11980   7.13729   7.17521   7.29870   7.32149
 Alpha virt. eigenvalues --    7.33636   7.35002   7.35779   7.42180   7.42984
 Alpha virt. eigenvalues --    7.47797   7.58119   7.58832   7.60084   7.63114
 Alpha virt. eigenvalues --    7.64378   7.68923   7.71635   7.76308   7.80420
 Alpha virt. eigenvalues --    7.86152   7.88129   7.93052   7.98826   8.00908
 Alpha virt. eigenvalues --    8.02322   8.03596   8.06277   8.06479   8.13950
 Alpha virt. eigenvalues --    8.14568   8.26213   8.26446   8.29142   8.31114
 Alpha virt. eigenvalues --    8.32432   8.33017   8.38169   8.42108   8.42732
 Alpha virt. eigenvalues --    8.47020   8.47850   8.49910   8.50008   8.56692
 Alpha virt. eigenvalues --    8.58503   8.63346   8.68225   8.68542   8.71540
 Alpha virt. eigenvalues --    8.73661   8.75346   8.76406   8.79802   8.81468
 Alpha virt. eigenvalues --    8.85832   8.90474   8.91563   8.96116   8.98391
 Alpha virt. eigenvalues --    9.00176   9.05305   9.09726   9.11247   9.11791
 Alpha virt. eigenvalues --    9.13468   9.15891   9.20453   9.23766   9.25733
 Alpha virt. eigenvalues --    9.25868   9.30530   9.32813   9.33169   9.37806
 Alpha virt. eigenvalues --    9.47278   9.49001   9.49027   9.53137   9.55347
 Alpha virt. eigenvalues --    9.62196   9.66123   9.72267   9.76928   9.81213
 Alpha virt. eigenvalues --    9.84572   9.87138   9.88211   9.89269   9.95633
 Alpha virt. eigenvalues --   10.01055  10.06373  10.10963  10.12325  10.16090
 Alpha virt. eigenvalues --   10.18335  10.20808  10.24297  10.24416  10.26257
 Alpha virt. eigenvalues --   10.31077  10.35726  10.39686  10.42078  10.46989
 Alpha virt. eigenvalues --   10.48032  10.52510  10.54825  10.63921  10.70166
 Alpha virt. eigenvalues --   10.70787  10.71247  10.73008  10.78846  10.86616
 Alpha virt. eigenvalues --   10.99378  11.00519  11.06644  11.06910  11.22335
 Alpha virt. eigenvalues --   11.29719  11.32936  11.34125  11.38068  11.38569
 Alpha virt. eigenvalues --   11.41727  11.48012  11.56844  11.60493  11.67044
 Alpha virt. eigenvalues --   11.72361  11.77643  11.79714  11.81455  11.87165
 Alpha virt. eigenvalues --   11.94084  11.98315  11.99960  12.09996  12.13525
 Alpha virt. eigenvalues --   12.14198  12.20442  12.23106  12.45147  12.48501
 Alpha virt. eigenvalues --   12.60558  12.66293  12.71272  12.76266  12.80419
 Alpha virt. eigenvalues --   12.86392  12.89000  12.96702  13.00869  13.20281
 Alpha virt. eigenvalues --   13.21826  13.36657  13.39446  13.46184  13.64356
 Alpha virt. eigenvalues --   13.68132  13.73289  13.76794  14.14859  14.24880
 Alpha virt. eigenvalues --   14.28240  14.30331  14.34355  14.36879  14.45077
 Alpha virt. eigenvalues --   14.50086  14.57117  14.58272  14.60366  14.64834
 Alpha virt. eigenvalues --   14.68019  14.76866  14.79455  14.81369  14.83998
 Alpha virt. eigenvalues --   14.94830  15.01710  15.03231  15.08523  15.13154
 Alpha virt. eigenvalues --   15.13533  15.21565  15.23380  15.26419  15.35402
 Alpha virt. eigenvalues --   15.37917  15.43280  15.44125  15.53762  15.58481
 Alpha virt. eigenvalues --   15.59490  15.68724  15.69822  15.76429  15.84096
 Alpha virt. eigenvalues --   15.84226  15.90230  16.02102  16.10264  16.26312
 Alpha virt. eigenvalues --   16.49595  16.53466  16.66210  16.90199  17.13256
 Alpha virt. eigenvalues --   17.34678  17.72296  17.80774  18.08088  18.14684
 Alpha virt. eigenvalues --   18.23526  18.32535  18.44218  18.60689  18.71362
 Alpha virt. eigenvalues --   18.75106  18.80328  18.83071  18.89647  18.96512
 Alpha virt. eigenvalues --   19.05821  19.07358  19.15459  19.29352  19.35056
 Alpha virt. eigenvalues --   19.41842  19.42059  19.42360  19.45381  19.48475
 Alpha virt. eigenvalues --   19.50695  19.58645  19.64293  19.66591  19.68568
 Alpha virt. eigenvalues --   19.72047  19.94609  20.09276  20.10516  20.11611
 Alpha virt. eigenvalues --   20.12991  20.25298  20.33655  20.45507  20.76442
 Alpha virt. eigenvalues --   20.87070  21.13705  21.37805  21.68430  22.40242
 Alpha virt. eigenvalues --   22.40911  22.64133  23.00631  23.19509  23.19641
 Alpha virt. eigenvalues --   23.27749  23.77310  23.97385  24.14922  24.50133
 Alpha virt. eigenvalues --   39.13211  41.49073  50.14614  63.41890  63.74777
          Condensed to atoms (all electrons):
               1          2          3          4          5          6
     1  C    5.090406   0.770915  -0.088221  -0.071693  -0.024123   0.419205
     2  C    0.770915   4.355197   0.296085   0.244210  -0.030086  -0.022872
     3  O   -0.088221   0.296085   8.090827  -0.039169  -0.000163   0.003656
     4  O   -0.071693   0.244210  -0.039169   8.188286   0.091102  -0.003450
     5  N   -0.024123  -0.030086  -0.000163   0.091102   6.706365  -0.016145
     6  H    0.419205  -0.022872   0.003656  -0.003450  -0.016145   0.412044
     7  H    0.411788  -0.025807  -0.003566   0.003431  -0.000557  -0.019430
     8  H    0.006636  -0.018415   0.302222  -0.003861   0.000983  -0.000249
     9  H    0.001043   0.001517   0.000088  -0.039120   0.381740   0.000452
    10  H    0.001043   0.001517   0.000089  -0.039123   0.381732   0.000451
               7          8          9         10
     1  C    0.411788   0.006636   0.001043   0.001043
     2  C   -0.025807  -0.018415   0.001517   0.001517
     3  O   -0.003566   0.302222   0.000088   0.000089
     4  O    0.003431  -0.003861  -0.039120  -0.039123
     5  N   -0.000557   0.000983   0.381740   0.381732
     6  H   -0.019430  -0.000249   0.000452   0.000451
     7  H    0.423338  -0.000183   0.000036   0.000036
     8  H   -0.000183   0.314601  -0.000162  -0.000162
     9  H    0.000036  -0.000162   0.368942  -0.032905
    10  H    0.000036  -0.000162  -0.032905   0.368962
 Mulliken charges:
               1
     1  C   -0.516999
     2  C    0.427738
     3  O   -0.561849
     4  O   -0.330613
     5  N   -0.490848
     6  H    0.226338
     7  H    0.210914
     8  H    0.398589
     9  H    0.318369
    10  H    0.318361
 Sum of Mulliken charges =  -0.00000
 Mulliken charges with hydrogens summed into heavy atoms:
               1
     1  C   -0.079747
     2  C    0.427738
     3  O   -0.163261
     4  O   -0.330613
     5  N    0.145882
 Electronic spatial extent (au):  <R**2>=            410.3376
 Charge=             -0.0000 electrons
 Dipole moment (field-independent basis, Debye):
    X=              2.7097    Y=             -1.7788    Z=             -0.0013  Tot=              3.2414
 Quadrupole moment (field-independent basis, Debye-Ang):
   XX=            -26.0861   YY=            -27.9050   ZZ=            -30.4078
   XY=             -1.0319   XZ=              0.0014   YZ=              0.0026
 Traceless Quadrupole moment (field-independent basis, Debye-Ang):
   XX=              2.0469   YY=              0.2280   ZZ=             -2.2748
   XY=             -1.0319   XZ=              0.0014   YZ=              0.0026
 Octapole moment (field-independent basis, Debye-Ang**2):
  XXX=             26.2047  YYY=            -14.4636  ZZZ=             -0.0000  XYY=             -6.2226
  XXY=             -6.2705  XXZ=             -0.0029  XZZ=              6.5114  YZZ=             -6.0233
  YYZ=             -0.0028  XYZ=             -0.0049
 Hexadecapole moment (field-independent basis, Debye-Ang**3):
 XXXX=           -269.7634 YYYY=           -151.7963 ZZZZ=            -35.0984 XXXY=            -14.4392
 XXXZ=              0.0029 YYYX=             14.1193 YYYZ=              0.0107 ZZZX=             -0.0014
 ZZZY=              0.0020 XXYY=            -73.1134 XXZZ=            -48.8002 YYZZ=            -38.6988
 XXYZ=              0.0010 YYXZ=              0.0064 ZZXY=              0.7099
 N-N= 1.814216678971D+02 E-N=-1.029127212165D+03  KE= 2.824827422288D+02
 PrsmSu:  requested number of processors reduced to:   1 ShMem   1 Linda.
 No NMR shielding tensors so no spin-rotation constants.
 Leave Link  601 at Fri Aug 19 21:04:39 2022, MaxMem=    23592960 cpu:         7.0
 (Enter /public/home/users/caep010/software/Gaussian09/g09/l9999.exe)
 1\1\GINC-B1567\SP\RHF\GFHFB2\C2H5N1O2\ROOT\19-Aug-2022\0\\#P Geom=AllC
 heck Guess=TCheck SCRF=Check HF/GFHFB2 SCF=Tight\\Frag_949\\0,1\C,0,-1
 .1118267968,-0.926302171,0.0749811255\C,0,-0.59368725,0.2944929286,0.0
 21525791\O,0,-1.2744611156,1.3859403086,-0.3968473079\O,0,0.676718963,
 0.6962635272,0.3600475099\N,0,1.5028662115,-0.3812824253,0.8227098157\
 H,0,-0.5197046251,-1.7579176267,0.4171634685\H,0,-2.1373952973,-1.0709
 64379,-0.2308643713\H,0,-0.6768111059,2.1411797875,-0.3393924608\H,0,2
 .3144096149,-0.3287653555,0.2079871185\H,0,1.8199914014,-0.0525445942,
 1.7340893109\\Version=ES64L-G09RevE.01\State=1-A\HF=-282.8639378\RMSD=
 3.016e-09\Dipole=1.1840973,0.3482668,0.3208525\Quadrupole=1.5315971,-0
 .1895776,-1.3420195,0.3143936,0.986228,-0.1680838\PG=C01 [X(C2H5N1O2)]
 \\@


 HE WHO LOVES TO READ, AND KNOWS HOW TO REFLECT,
 HAS LAID BY A PERPETUAL FEAST FOR HIS OLD AGE.
 -- UNCLE ESEK, "SCRIBNER'S MONTHLY", SEPT. 1880
 Diagonal vibrational polarizability:
        0.0000000       0.0000000       0.0000000

 Temperature=              298.150000 Pressure=                      1.000000
 E(ZPE)=                     0.076535 E(Thermal)=                    0.082685
 E(CCSD(T))=              -283.546185 E(Empiric)=                   -0.104205
 DE(Plus)=                  -0.025493 DE(2DF)=                      -0.228064
 E(Delta-G3XP)=             -0.346071 DE(HF)=                       -0.029762
 G4(0 K)=                 -284.203246 G4 Energy=                  -284.197096
 G4 Enthalpy=             -284.196152 G4 Free Energy=             -284.232514
 1\1\GINC-B1567\Mixed\G4\G4\C2H5N1O2\ROOT\19-Aug-2022\0\\#P Geom=AllChe
 ck Guess=TCheck SCRF=Check HF/GFHFB2 SCF=Tight\\Frag_949\\0,1\C,0,-1.1
 118267968,-0.926302171,0.0749811255\C,0,-0.59368725,0.2944929286,0.021
 525791\O,0,-1.2744611156,1.3859403086,-0.3968473079\O,0,0.676718963,0.
 6962635272,0.3600475099\N,0,1.5028662115,-0.3812824253,0.8227098157\H,
 0,-0.5197046251,-1.7579176267,0.4171634685\H,0,-2.1373952973,-1.070964
 379,-0.2308643713\H,0,-0.6768111059,2.1411797875,-0.3393924608\H,0,2.3
 144096149,-0.3287653555,0.2079871185\H,0,1.8199914014,-0.0525445942,1.
 7340893109\\Version=ES64L-G09RevE.01\State=1-A\MP2/GTBas1=-283.4885878
 \MP4/GTBas1=-283.5470099\CCSD(T)/G3Bas1=-283.5461853\MP2/GTBas2=-283.5
 125651\MP4/GTBas2=-283.5725031\MP2/GTBas3=-283.7038252\MP4/GTBas3=-283
 .7750743\HF/GTLargeXP=-282.8353906\MP2/GTLargeXP=-284.0738734\HF/GFHFB
 1=-282.8589509\HF/GFHFB2=-282.8639378\G4=-284.2032457\FreqCoord=-2.101
 0481532,-1.7504574196,0.1416937923,-1.1219063111,0.5565109831,0.040677
 8498,-2.4083824756,2.6190476198,-0.7499327286,1.278813509,1.3157473827
 ,0.6803911886,2.840005554,-0.7205193631,1.5546962385,-0.9820994114,-3.
 3219828786,0.7883247082,-4.0390917496,-2.0238293745,-0.4362704356,-1.2
 789876339,4.0462433996,-0.6413588025,4.3736003315,-0.6212764839,0.3930
 386931,3.4392853128,-0.0992948929,3.2769538875\PG=C01 [X(C2H5N1O2)]\NI
 mag=0\\0.64543739,0.08297316,0.81053711,0.17035251,-0.10676206,0.14722
 585,-0.16866211,-0.14989721,-0.00890606,0.54526344,-0.15669878,-0.4639
 1428,0.02292716,0.13836522,0.93095218,-0.00766935,0.02514827,-0.064306
 83,0.09966637,-0.09486903,0.20955914,0.01757758,-0.00579120,0.00260911
 ,-0.14585424,0.04711286,-0.04056237,0.41330974,0.02642113,-0.05128184,
 0.02017014,0.09740068,-0.25692137,0.06958527,0.11653264,0.61630037,-0.
 00322485,0.00973181,0.00994177,-0.04966360,0.05327231,-0.07284851,0.10
 586234,-0.06964371,0.06907217,-0.03254368,-0.01606379,-0.01137642,-0.2
 1924317,-0.09233464,-0.04038088,-0.05086365,0.01515021,-0.02045347,0.4
 6191880,-0.04221931,-0.00018505,-0.01152997,-0.06020781,-0.14658025,-0
 .00070315,0.04850730,0.00073105,0.01626757,-0.02005547,0.31342443,-0.0
 0664141,-0.00306237,0.01000775,-0.04619956,-0.01110315,-0.05579895,-0.
 02650113,0.00546591,-0.00574743,0.13256612,-0.05174617,0.11599364,0.00
 144326,-0.00285251,0.00045862,-0.02892414,0.03650444,-0.01313642,-0.00
 455978,-0.00052964,-0.00350637,-0.11165280,0.07263921,-0.03007125,0.49
 399634,-0.00484536,-0.00270931,-0.00078490,0.01414160,0.00988726,0.001
 20292,-0.00468904,0.00598845,-0.00141577,0.04856310,-0.15118033,0.0323
 5208,-0.02389375,0.23656804,0.00082209,-0.00013929,0.00190846,-0.00908
 001,0.00843754,-0.01324395,-0.00275879,-0.00006324,0.00569059,-0.02571
 803,0.04015832,-0.07498689,-0.04258856,0.06504501,0.61317135,-0.140201
 65,0.13236434,-0.06280454,0.01096031,-0.00796404,0.00519898,-0.0006744
 5,-0.00415991,-0.00148011,-0.00213333,0.00268175,0.00076681,-0.0034014
 5,-0.00317392,-0.00017686,0.14276530,0.12477584,-0.23532002,0.07933029
 ,0.01933763,-0.01733711,0.00928154,-0.00423410,-0.00314000,0.00032256,
 0.00145806,0.00028938,-0.00066699,0.00092208,0.00031272,0.00004608,-0.
 13850755,0.24801009,-0.06142854,0.08177603,-0.05488595,0.00025381,0.00
 045394,-0.00064610,-0.00146236,0.00034498,0.00569349,0.00098756,-0.000
 27140,-0.00563353,-0.00091777,-0.00127994,-0.00114525,0.06534137,-0.08
 640575,0.05514619,-0.31952285,-0.04281575,-0.08883387,-0.01119950,0.00
 254472,-0.00369218,0.00033622,0.00125626,0.00109787,0.00222336,-0.0008
 9692,-0.00281202,-0.00000696,-0.00055114,0.00013550,-0.00811465,-0.004
 64290,-0.00158394,0.33649630,-0.03515707,-0.05661671,-0.00496662,-0.03
 013032,-0.00144078,-0.00971623,0.00078511,0.00158690,-0.00071362,-0.00
 283520,-0.00575853,0.00219271,0.00224674,0.00044629,0.00062504,0.01964
 428,0.00709492,0.00496232,0.04517685,0.05400199,-0.09022653,-0.0074481
 1,-0.04904540,0.00223155,0.00086546,-0.00065669,0.00118222,-0.00055986
 ,-0.00327331,-0.00246408,0.00281917,0.01010323,-0.00037127,-0.00028059
 ,-0.00018650,-0.00597978,-0.00290105,-0.00203797,0.09504321,0.00804564
 ,0.04697506,-0.00294900,0.00289535,-0.00171863,0.01690073,0.02277841,0
 .00247381,-0.22584528,-0.25272498,-0.02761614,-0.00202014,0.00273087,-
 0.00114070,-0.00143513,-0.00185286,0.00041218,0.00066435,0.00074946,-0
 .00105998,-0.00013329,0.00024828,0.00053835,0.21481626,0.00565767,-0.0
 0098204,0.00214000,-0.02432884,-0.04586356,-0.00021985,-0.20097027,-0.
 31233037,-0.00876149,-0.00262731,0.00355564,-0.00149874,-0.00079762,0.
 00054699,-0.00065895,-0.00111192,-0.00077919,0.00042110,0.00015098,0.0
 0041226,-0.00037719,0.22457146,0.35482255,-0.00221897,0.00124874,-0.00
 021125,0.01099185,0.01507110,-0.00258110,-0.03697287,-0.02556176,-0.00
 737860,-0.00017320,0.00023716,-0.00012001,0.00022061,-0.00100041,-0.00
 142104,-0.00072103,0.00102221,0.00309463,0.00055529,-0.00034455,-0.001
 69038,0.02827893,0.00921044,0.01013418,0.00000560,-0.00038307,-0.00030
 832,-0.00068917,0.00515965,0.00233765,-0.00117496,0.00013751,-0.001257
 29,-0.02608251,0.00068180,0.00383749,-0.26837805,0.00049946,0.18568801
 ,-0.00003346,0.00009590,0.00008971,-0.00003928,0.00003531,0.00006513,-
 0.00014039,-0.00017931,0.00021525,0.28761712,-0.00039128,0.00009594,-0
 .00073090,-0.00172721,-0.00457790,-0.00174411,0.00091861,-0.00027435,0
 .00136463,0.04194645,-0.01163756,-0.01147674,-0.04926517,-0.02298203,0
 .04858530,0.00001393,0.00050800,0.00039453,-0.00009987,0.00011689,-0.0
 0014005,0.00043389,0.00022756,-0.00021471,-0.00062602,0.04022097,-0.00
 032494,-0.00057982,-0.00047171,-0.00004351,0.00356846,0.00151349,-0.00
 137191,0.00016454,-0.00130426,-0.02281283,0.00448056,0.01082303,0.1717
 1621,0.00908918,-0.19619726,0.00007604,-0.00000012,0.00023510,-0.00000
 363,-0.00009115,-0.00007403,0.00008397,-0.00026508,0.00030914,-0.18071
 755,-0.02194905,0.20881596,-0.00058453,-0.00042932,0.00052759,0.001447
 85,0.00453216,-0.00423561,-0.00225118,0.00051610,0.00024163,-0.0196028
 7,-0.00386143,-0.02380435,-0.07708130,-0.02419808,-0.10673553,0.000169
 03,0.00004559,-0.00021987,-0.00003936,-0.00001396,-0.00001880,0.000141
 89,-0.00036483,-0.00017586,0.00891511,0.00879668,0.03339814,0.08888535
 ,-0.00051599,0.00037620,0.00020685,-0.00295372,-0.00420420,0.00203439,
 0.00182809,-0.00065883,-0.00042430,0.02679859,-0.00265878,0.03954346,-
 0.03497377,-0.07687809,-0.16203582,0.00021304,0.00036121,-0.00039581,-
 0.00012223,0.00015676,-0.00002342,0.00017013,0.00039015,0.00033177,-0.
 00542123,-0.00169752,0.00558248,0.01497709,0.08481310,0.00055998,0.000
 08679,-0.00016269,0.00074915,0.00137621,-0.00099050,-0.00002424,0.0000
 9773,0.00015408,-0.01017476,0.00028793,-0.00464084,-0.08180382,-0.1029
 2758,-0.33358951,-0.00022089,-0.00002877,0.00017940,0.00009378,0.00000
 645,-0.00011399,-0.00025177,0.00000975,-0.00013558,-0.00995009,-0.0140
 8890,-0.02364947,0.10102266,0.11518039,0.36294910\\-0.00001560,-0.0000
 2191,0.00000338,-0.00010493,-0.00003784,-0.00001259,0.00000761,-0.0000
 0482,-0.00000776,0.00007939,0.00002118,0.00002602,0.00001817,-0.000001
 55,-0.00000385,0.00001560,0.00001627,-0.00000305,-0.00000180,0.0000124
 2,-0.00000382,0.00000816,0.00001573,0.00000165,-0.00000071,-0.00000307
 ,-0.00000069,-0.00000589,0.00000359,0.00000072\\\@
 Job cpu time:       0 days  1 hours 16 minutes 50.2 seconds.
 File lengths (MBytes):  RWF=   5097 Int=      0 D2E=      0 Chk=     23 Scr=      1
 Normal termination of Gaussian 09 at Fri Aug 19 21:04:39 2022.
