 Entering Gaussian System, Link 0=g09
 Input=G4.Frag_758.gjf
 Output=G4.Frag_758.log
 Initial command:
 /public/home/users/caep010/software/Gaussian09/g09/l1.exe "/public/home/users/caep010/.cache/gau_scr/Gau-92085.inp" -scrdir="/public/home/users/caep010/.cache/gau_scr/"
 Entering Link 1 = /public/home/users/caep010/software/Gaussian09/g09/l1.exe PID=     92086.
  
 Copyright (c) 1988,1990,1992,1993,1995,1998,2003,2009,2015,
            Gaussian, Inc.  All Rights Reserved.
  
 This is part of the Gaussian(R) 09 program.  It is based on
 the Gaussian(R) 03 system (copyright 2003, Gaussian, Inc.),
 the Gaussian(R) 98 system (copyright 1998, Gaussian, Inc.),
 the Gaussian(R) 94 system (copyright 1995, Gaussian, Inc.),
 the Gaussian 92(TM) system (copyright 1992, Gaussian, Inc.),
 the Gaussian 90(TM) system (copyright 1990, Gaussian, Inc.),
 the Gaussian 88(TM) system (copyright 1988, Gaussian, Inc.),
 the Gaussian 86(TM) system (copyright 1986, Carnegie Mellon
 University), and the Gaussian 82(TM) system (copyright 1983,
 Carnegie Mellon University). Gaussian is a federally registered
 trademark of Gaussian, Inc.
  
 This software contains proprietary and confidential information,
 including trade secrets, belonging to Gaussian, Inc.
  
 This software is provided under written license and may be
 used, copied, transmitted, or stored only in accord with that
 written license.
  
 The following legend is applicable only to US Government
 contracts under FAR:
  
                    RESTRICTED RIGHTS LEGEND
  
 Use, reproduction and disclosure by the US Government is
 subject to restrictions as set forth in subparagraphs (a)
 and (c) of the Commercial Computer Software - Restricted
 Rights clause in FAR 52.227-19.
  
 Gaussian, Inc.
 340 Quinnipiac St., Bldg. 40, Wallingford CT 06492
  
  
 ---------------------------------------------------------------
 Warning -- This program may not be used in any manner that
 competes with the business of Gaussian, Inc. or will provide
 assistance to any competitor of Gaussian, Inc.  The licensee
 of this program is prohibited from giving any competitor of
 Gaussian, Inc. access to this program.  By using this program,
 the user acknowledges that Gaussian, Inc. is engaged in the
 business of creating and licensing software in the field of
 computational chemistry and represents and warrants to the
 licensee that it is not a competitor of Gaussian, Inc. and that
 it will not use this program in any manner prohibited above.
 ---------------------------------------------------------------
  

 Cite this work as:
 Gaussian 09, Revision E.01,
 M. J. Frisch, G. W. Trucks, H. B. Schlegel, G. E. Scuseria, 
 M. A. Robb, J. R. Cheeseman, G. Scalmani, V. Barone, B. Mennucci, 
 G. A. Petersson, H. Nakatsuji, M. Caricato, X. Li, H. P. Hratchian, 
 A. F. Izmaylov, J. Bloino, G. Zheng, J. L. Sonnenberg, M. Hada, 
 M. Ehara, K. Toyota, R. Fukuda, J. Hasegawa, M. Ishida, T. Nakajima, 
 Y. Honda, O. Kitao, H. Nakai, T. Vreven, J. A. Montgomery, Jr., 
 J. E. Peralta, F. Ogliaro, M. Bearpark, J. J. Heyd, E. Brothers, 
 K. N. Kudin, V. N. Staroverov, T. Keith, R. Kobayashi, J. Normand, 
 K. Raghavachari, A. Rendell, J. C. Burant, S. S. Iyengar, J. Tomasi, 
 M. Cossi, N. Rega, J. M. Millam, M. Klene, J. E. Knox, J. B. Cross, 
 V. Bakken, C. Adamo, J. Jaramillo, R. Gomperts, R. E. Stratmann, 
 O. Yazyev, A. J. Austin, R. Cammi, C. Pomelli, J. W. Ochterski, 
 R. L. Martin, K. Morokuma, V. G. Zakrzewski, G. A. Voth, 
 P. Salvador, J. J. Dannenberg, S. Dapprich, A. D. Daniels, 
 O. Farkas, J. B. Foresman, J. V. Ortiz, J. Cioslowski, 
 and D. J. Fox, Gaussian, Inc., Wallingford CT, 2013.
 
 ******************************************
 Gaussian 09:  ES64L-G09RevE.01 30-Nov-2015
                30-Aug-2022 
 ******************************************
 %nproc=32
 Will use up to   32 processors via shared memory.
 %mem=180GB
 %chk=G4.Frag_758.chk
 -----
 #P G4
 -----
 1/14=-1,18=20,19=15,26=3,38=1/1,3;
 2/9=110,12=2,17=6,18=5,40=1/2;
 3/5=35,7=104,11=2,16=1,25=1,30=1,71=1,74=-5/1,2,3;
 4//1;
 5/5=2,38=5/2;
 6/7=2,8=2,9=2,10=2,28=1/1;
 7//1,2,3,16;
 1/14=-1,18=20,19=15,26=3/3(2);
 2/9=110/2;
 99//99;
 2/9=110/2;
 3/5=35,7=104,11=2,16=1,25=1,30=1,71=1,74=-5/1,2,3;
 4/5=5,16=3,69=1/1;
 5/5=2,38=5/2;
 7//1,2,3,16;
 1/14=-1,18=20,19=15,26=3/3(-5);
 2/9=110/2;
 6/7=2,8=2,9=2,10=2,19=2,28=1/1;
 99/9=1/99;
 Leave Link    1 at Tue Aug 30 11:36:20 2022, MaxMem= 24159191040 cpu:         2.4
 (Enter /public/home/users/caep010/software/Gaussian09/g09/l101.exe)
 --------
 Frag_758
 --------
 Symbolic Z-matrix:
 Charge =  0 Multiplicity = 1
 C                     1.01592   0.89277  -0.73929 
 C                    -0.0668   -0.00332  -0.04287 
 C                     0.50766  -1.38126   0.2219 
 C                    -0.57727   0.63611   1.28579 
 C                    -1.23459  -0.19336  -1.11177 
 O                    -1.1237   -0.67492  -1.99493 
 H                     1.91739   0.9717   -0.09972 
 H                     0.59599   1.8865   -0.93563 
 H                     1.35307   0.48895  -1.70769 
 H                    -0.19237  -2.03874   0.72174 
 H                     0.78731  -1.88467  -0.72995 
 H                     1.36598  -1.24971   0.86864 
 H                     0.24316   0.78049   2.01066 
 H                    -1.35087   0.01114   1.77687 
 H                    -1.01052   1.61094   1.10232 
 H                    -2.23036   0.14738  -1.08097 
 
 NAtoms=     16 NQM=       16 NQMF=       0 NMMI=      0 NMMIF=      0
                NMic=       0 NMicF=      0.
                    Isotopes and Nuclear Properties:
 (Nuclear quadrupole moments (NQMom) in fm**2, nuclear magnetic moments (NMagM)
  in nuclear magnetons)

  Atom         1           2           3           4           5           6           7           8           9          10
 IAtWgt=          12          12          12          12          12          16           1           1           1           1
 AtmWgt=  12.0000000  12.0000000  12.0000000  12.0000000  12.0000000  15.9949146   1.0078250   1.0078250   1.0078250   1.0078250
 NucSpn=           0           0           0           0           0           0           1           1           1           1
 AtZEff=   0.0000000   0.0000000   0.0000000   0.0000000   0.0000000   0.0000000   0.0000000   0.0000000   0.0000000   0.0000000
 NQMom=    0.0000000   0.0000000   0.0000000   0.0000000   0.0000000   0.0000000   0.0000000   0.0000000   0.0000000   0.0000000
 NMagM=    0.0000000   0.0000000   0.0000000   0.0000000   0.0000000   0.0000000   2.7928460   2.7928460   2.7928460   2.7928460
 AtZNuc=   6.0000000   6.0000000   6.0000000   6.0000000   6.0000000   8.0000000   1.0000000   1.0000000   1.0000000   1.0000000

  Atom        11          12          13          14          15          16
 IAtWgt=           1           1           1           1           1           1
 AtmWgt=   1.0078250   1.0078250   1.0078250   1.0078250   1.0078250   1.0078250
 NucSpn=           1           1           1           1           1           1
 AtZEff=   0.0000000   0.0000000   0.0000000   0.0000000   0.0000000   0.0000000
 NQMom=    0.0000000   0.0000000   0.0000000   0.0000000   0.0000000   0.0000000
 NMagM=    2.7928460   2.7928460   2.7928460   2.7928460   2.7928460   2.7928460
 AtZNuc=   1.0000000   1.0000000   1.0000000   1.0000000   1.0000000   1.0000000
 Leave Link  101 at Tue Aug 30 11:36:21 2022, MaxMem= 24159191040 cpu:        10.6
 (Enter /public/home/users/caep010/software/Gaussian09/g09/l103.exe)

 GradGradGradGradGradGradGradGradGradGradGradGradGradGradGradGradGradGrad
 Berny optimization.
 Initialization pass.
                           ----------------------------
                           !    Initial Parameters    !
                           ! (Angstroms and Degrees)  !
 --------------------------                            --------------------------
 ! Name  Definition              Value          Derivative Info.                !
 --------------------------------------------------------------------------------
 ! R1    R(1,2)                  1.5685         estimate D2E/DX2                !
 ! R2    R(1,7)                  1.1081         estimate D2E/DX2                !
 ! R3    R(1,8)                  1.0965         estimate D2E/DX2                !
 ! R4    R(1,9)                  1.1021         estimate D2E/DX2                !
 ! R5    R(2,3)                  1.5162         estimate D2E/DX2                !
 ! R6    R(2,4)                  1.5604         estimate D2E/DX2                !
 ! R7    R(2,5)                  1.5945         estimate D2E/DX2                !
 ! R8    R(3,10)                 1.0827         estimate D2E/DX2                !
 ! R9    R(3,11)                 1.1125         estimate D2E/DX2                !
 ! R10   R(3,12)                 1.0827         estimate D2E/DX2                !
 ! R11   R(4,13)                 1.1043         estimate D2E/DX2                !
 ! R12   R(4,14)                 1.1091         estimate D2E/DX2                !
 ! R13   R(4,15)                 1.0824         estimate D2E/DX2                !
 ! R14   R(5,6)                  1.012          estimate D2E/DX2                !
 ! R15   R(5,16)                 1.0529         estimate D2E/DX2                !
 ! A1    A(2,1,7)              110.242          estimate D2E/DX2                !
 ! A2    A(2,1,8)              109.4437         estimate D2E/DX2                !
 ! A3    A(2,1,9)              113.0783         estimate D2E/DX2                !
 ! A4    A(7,1,8)              110.5077         estimate D2E/DX2                !
 ! A5    A(7,1,9)              106.5225         estimate D2E/DX2                !
 ! A6    A(8,1,9)              106.9713         estimate D2E/DX2                !
 ! A7    A(1,2,3)              109.5848         estimate D2E/DX2                !
 ! A8    A(1,2,4)              111.7015         estimate D2E/DX2                !
 ! A9    A(1,2,5)              106.0219         estimate D2E/DX2                !
 ! A10   A(3,2,4)              110.3453         estimate D2E/DX2                !
 ! A11   A(3,2,5)              106.6331         estimate D2E/DX2                !
 ! A12   A(4,2,5)              112.3376         estimate D2E/DX2                !
 ! A13   A(2,3,10)             112.802          estimate D2E/DX2                !
 ! A14   A(2,3,11)             110.9202         estimate D2E/DX2                !
 ! A15   A(2,3,12)             107.1124         estimate D2E/DX2                !
 ! A16   A(10,3,11)            106.4242         estimate D2E/DX2                !
 ! A17   A(10,3,12)            108.0944         estimate D2E/DX2                !
 ! A18   A(11,3,12)            111.5175         estimate D2E/DX2                !
 ! A19   A(2,4,13)             111.683          estimate D2E/DX2                !
 ! A20   A(2,4,14)             111.9796         estimate D2E/DX2                !
 ! A21   A(2,4,15)             110.8341         estimate D2E/DX2                !
 ! A22   A(13,4,14)            107.5321         estimate D2E/DX2                !
 ! A23   A(13,4,15)            106.9114         estimate D2E/DX2                !
 ! A24   A(14,4,15)            107.6578         estimate D2E/DX2                !
 ! A25   A(2,5,6)              124.158          estimate D2E/DX2                !
 ! A26   A(2,5,16)             129.3807         estimate D2E/DX2                !
 ! A27   A(6,5,16)             106.4482         estimate D2E/DX2                !
 ! D1    D(7,1,2,3)            -58.6223         estimate D2E/DX2                !
 ! D2    D(7,1,2,4)             63.9778         estimate D2E/DX2                !
 ! D3    D(7,1,2,5)           -173.3473         estimate D2E/DX2                !
 ! D4    D(8,1,2,3)            179.6317         estimate D2E/DX2                !
 ! D5    D(8,1,2,4)            -57.7682         estimate D2E/DX2                !
 ! D6    D(8,1,2,5)             64.9067         estimate D2E/DX2                !
 ! D7    D(9,1,2,3)             60.4954         estimate D2E/DX2                !
 ! D8    D(9,1,2,4)           -176.9045         estimate D2E/DX2                !
 ! D9    D(9,1,2,5)            -54.2296         estimate D2E/DX2                !
 ! D10   D(1,2,3,10)           178.8256         estimate D2E/DX2                !
 ! D11   D(1,2,3,11)           -61.895          estimate D2E/DX2                !
 ! D12   D(1,2,3,12)            60.0127         estimate D2E/DX2                !
 ! D13   D(4,2,3,10)            55.4228         estimate D2E/DX2                !
 ! D14   D(4,2,3,11)           174.7022         estimate D2E/DX2                !
 ! D15   D(4,2,3,12)           -63.3901         estimate D2E/DX2                !
 ! D16   D(5,2,3,10)           -66.8418         estimate D2E/DX2                !
 ! D17   D(5,2,3,11)            52.4376         estimate D2E/DX2                !
 ! D18   D(5,2,3,12)           174.3453         estimate D2E/DX2                !
 ! D19   D(1,2,4,13)           -59.9207         estimate D2E/DX2                !
 ! D20   D(1,2,4,14)           179.4111         estimate D2E/DX2                !
 ! D21   D(1,2,4,15)            59.1737         estimate D2E/DX2                !
 ! D22   D(3,2,4,13)            62.2438         estimate D2E/DX2                !
 ! D23   D(3,2,4,14)           -58.4244         estimate D2E/DX2                !
 ! D24   D(3,2,4,15)          -178.6618         estimate D2E/DX2                !
 ! D25   D(5,2,4,13)          -178.9127         estimate D2E/DX2                !
 ! D26   D(5,2,4,14)            60.4191         estimate D2E/DX2                !
 ! D27   D(5,2,4,15)           -59.8183         estimate D2E/DX2                !
 ! D28   D(1,2,5,6)             64.1944         estimate D2E/DX2                !
 ! D29   D(1,2,5,16)          -114.3069         estimate D2E/DX2                !
 ! D30   D(3,2,5,6)            -52.5341         estimate D2E/DX2                !
 ! D31   D(3,2,5,16)           128.9646         estimate D2E/DX2                !
 ! D32   D(4,2,5,6)           -173.5349         estimate D2E/DX2                !
 ! D33   D(4,2,5,16)             7.9638         estimate D2E/DX2                !
 --------------------------------------------------------------------------------
 Trust Radius=3.00D-01 FncErr=1.00D-07 GrdErr=1.00D-06
 Number of steps in this run=     85 maximum allowed number of steps=    100.
 GradGradGradGradGradGradGradGradGradGradGradGradGradGradGradGradGradGrad

 Leave Link  103 at Tue Aug 30 11:36:21 2022, MaxMem= 24159191040 cpu:         0.5
 (Enter /public/home/users/caep010/software/Gaussian09/g09/l202.exe)
                          Input orientation:                          
 ---------------------------------------------------------------------
 Center     Atomic      Atomic             Coordinates (Angstroms)
 Number     Number       Type             X           Y           Z
 ---------------------------------------------------------------------
      1          6           0        1.015920    0.892769   -0.739291
      2          6           0       -0.066802   -0.003322   -0.042870
      3          6           0        0.507661   -1.381262    0.221901
      4          6           0       -0.577268    0.636107    1.285793
      5          6           0       -1.234593   -0.193362   -1.111766
      6          8           0       -1.123699   -0.674920   -1.994929
      7          1           0        1.917390    0.971702   -0.099720
      8          1           0        0.595988    1.886502   -0.935626
      9          1           0        1.353072    0.488949   -1.707694
     10          1           0       -0.192368   -2.038740    0.721742
     11          1           0        0.787305   -1.884668   -0.729953
     12          1           0        1.365975   -1.249711    0.868638
     13          1           0        0.243162    0.780491    2.010657
     14          1           0       -1.350865    0.011142    1.776872
     15          1           0       -1.010523    1.610940    1.102318
     16          1           0       -2.230356    0.147383   -1.080972
 ---------------------------------------------------------------------
                    Distance matrix (angstroms):
                    1          2          3          4          5
     1  C    0.000000
     2  C    1.568524   0.000000
     3  C    2.520602   1.516189   0.000000
     4  C    2.589419   1.560381   2.525612   0.000000
     5  C    2.526505   1.594487   2.495040   2.620760   0.000000
     6  O    2.934663   2.319183   2.841582   3.574985   1.012014
     7  H    1.108120   2.211543   2.761741   2.873254   3.509503
     8  H    1.096538   2.192656   3.467845   2.806193   2.776308
     9  H    1.102065   2.242769   2.817046   3.564945   2.741658
    10  H    3.491178   2.177918   1.082663   2.760635   2.802393
    11  H    2.786846   2.177394   1.112495   3.504226   2.663526
    12  H    2.701517   2.106462   1.082718   2.739803   3.435233
    13  H    2.858667   2.219778   2.818294   1.104255   3.589105
    14  H    3.565111   2.227215   2.794788   1.109140   2.898201
    15  H    2.830859   2.192694   3.468903   1.082438   2.864940
    16  H    3.348231   2.404440   3.395728   2.927990   1.052900
                    6          7          8          9         10
     6  O    0.000000
     7  H    3.943527   0.000000
     8  H    3.261952   1.811547   0.000000
     9  H    2.751634   1.771182   1.767037   0.000000
    10  H    3.179258   3.766781   4.333117   3.831417   0.000000
    11  H    2.591446   3.135783   3.781617   2.628712   1.758100
    12  H    3.837822   2.485247   3.699200   3.108149   1.752877
    13  H    4.475628   2.700610   3.166754   3.891405   3.130344
    14  H    3.840413   3.889185   3.829472   4.436415   2.580200
    15  H    3.851091   3.228962   2.609603   3.839481   3.759572
    16  H    1.654143   4.341216   3.321729   3.653820   3.490316
                   11         12         13         14         15
    11  H    0.000000
    12  H    1.814806   0.000000
    13  H    3.861361   2.585853   0.000000
    14  H    3.801321   3.129834   1.785350   0.000000
    15  H    4.336897   3.726349   1.756830   1.769240   0.000000
    16  H    3.654959   4.322782   4.009649   2.993215   2.897714
                   16
    16  H    0.000000
 Stoichiometry    C5H10O
 Framework group  C1[X(C5H10O)]
 Deg. of freedom    42
 Full point group                 C1      NOp   1
 Largest Abelian subgroup         C1      NOp   1
 Largest concise Abelian subgroup C1      NOp   1
                         Standard orientation:                         
 ---------------------------------------------------------------------
 Center     Atomic      Atomic             Coordinates (Angstroms)
 Number     Number       Type             X           Y           Z
 ---------------------------------------------------------------------
      1          6           0       -0.451413    1.429628   -0.620077
      2          6           0       -0.341521   -0.006529    0.000925
      3          6           0       -0.391248    0.088559    1.513312
      4          6           0       -1.470621   -0.948702   -0.520836
      5          6           0        1.113748   -0.538518   -0.375334
      6          8           0        1.974418   -0.119347   -0.047133
      7          1           0       -1.394475    1.914974   -0.299134
      8          1           0       -0.408600    1.358769   -1.713485
      9          1           0        0.367128    2.098681   -0.308780
     10          1           0       -0.339533   -0.878929    1.996480
     11          1           0        0.466340    0.680768    1.902510
     12          1           0       -1.338650    0.543873    1.772922
     13          1           0       -2.473780   -0.560428   -0.271249
     14          1           0       -1.391072   -1.968720   -0.092551
     15          1           0       -1.427795   -1.040824   -1.598496
     16          1           0        1.391416   -1.340024   -0.999102
 ---------------------------------------------------------------------
 Rotational constants (GHZ):      4.4930521      2.8136241      2.7657033
 Leave Link  202 at Tue Aug 30 11:36:21 2022, MaxMem= 24159191040 cpu:         0.4
 (Enter /public/home/users/caep010/software/Gaussian09/g09/l301.exe)
 Standard basis: GTBas3 (6D, 7F)
 Ernie: Thresh=  0.10000D-02 Tol=  0.10000D-05 Strict=F.
 There are   236 symmetry adapted cartesian basis functions of A   symmetry.
 There are   218 symmetry adapted basis functions of A   symmetry.
   218 basis functions,   334 primitive gaussians,   236 cartesian basis functions
    24 alpha electrons       24 beta electrons
       nuclear repulsion energy       251.4509844235 Hartrees.
 IExCor=  402 DFT=T Ex+Corr=B3LYP ExCW=0 ScaHFX=  0.200000
 ScaDFX=  0.800000  0.720000  1.000000  0.810000 ScalE2=  1.000000  1.000000
 IRadAn=      0 IRanWt=     -1 IRanGd=            0 ICorTp=0 IEmpDi=  4
 NAtoms=   16 NActive=   16 NUniq=   16 SFac= 1.00D+00 NAtFMM=   60 NAOKFM=F Big=F
 Integral buffers will be    131072 words long.
 Raffenetti 2 integral format.
 Two-electron integral symmetry is turned on.
 Leave Link  301 at Tue Aug 30 11:36:21 2022, MaxMem= 24159191040 cpu:         2.2
 (Enter /public/home/users/caep010/software/Gaussian09/g09/l302.exe)
 NPDir=0 NMtPBC=     1 NCelOv=     1 NCel=       1 NClECP=     1 NCelD=      1
         NCelK=      1 NCelE2=     1 NClLst=     1 CellRange=     0.0.
 One-electron integrals computed using PRISM.
 NBasis=   218 RedAO= T EigKep=  8.35D-04  NBF=   218
 NBsUse=   218 1.00D-06 EigRej= -1.00D+00 NBFU=   218
 Precomputing XC quadrature grid using
 IXCGrd= 4 IRadAn=           0 IRanWt=          -1 IRanGd=           0 AccXCQ= 0.00D+00.
 Generated NRdTot=       0 NPtTot=           0 NUsed=           0 NTot=          32
 NSgBfM=   236   236   236   236   236 MxSgAt=    16 MxSgA2=    16.
 Leave Link  302 at Tue Aug 30 11:36:21 2022, MaxMem= 24159191040 cpu:        14.7
 (Enter /public/home/users/caep010/software/Gaussian09/g09/l303.exe)
 DipDrv:  MaxL=1.
 Leave Link  303 at Tue Aug 30 11:36:21 2022, MaxMem= 24159191040 cpu:         2.6
 (Enter /public/home/users/caep010/software/Gaussian09/g09/l401.exe)
 ExpMin= 1.61D-01 ExpMax= 5.48D+03 ExpMxC= 8.25D+02 IAcc=1 IRadAn=         1 AccDes= 0.00D+00
 Harris functional with IExCor=  402 and IRadAn=       1 diagonalized for initial guess.
 HarFok:  IExCor=  402 AccDes= 0.00D+00 IRadAn=         1 IDoV= 1 UseB2=F ITyADJ=14
 ICtDFT=  3500011 ScaDFX=  1.000000  1.000000  1.000000  1.000000
 FoFCou: FMM=F IPFlag=           0 FMFlag=      100000 FMFlg1=           0
         NFxFlg=           0 DoJE=T BraDBF=F KetDBF=T FulRan=T
         wScrn=  0.000000 ICntrl=     500 IOpCl=  0 I1Cent=   200000004 NGrid=           0
         NMat0=    1 NMatS0=      1 NMatT0=    0 NMatD0=    1 NMtDS0=    0 NMtDT0=    0
 Petite list used in FoFCou.
 Harris En= -271.767816952506    
 JPrj=0 DoOrth=F DoCkMO=F.
 Leave Link  401 at Tue Aug 30 11:36:22 2022, MaxMem= 24159191040 cpu:        14.4
 (Enter /public/home/users/caep010/software/Gaussian09/g09/l502.exe)
 Closed shell SCF:
 Using DIIS extrapolation, IDIIS=  1040.
 Integral symmetry usage will be decided dynamically.
 Keep R1 ints in memory in canonical form, NReq=291775086.
 IVT=      194922 IEndB=      194922 NGot= 24159191040 MDV= 23874071863
 LenX= 23874071863 LenY= 23874015726
 Requested convergence on RMS density matrix=1.00D-08 within 128 cycles.
 Requested convergence on MAX density matrix=1.00D-06.
 Requested convergence on             energy=1.00D-06.
 No special actions if energy rises.
 FoFCou: FMM=F IPFlag=           0 FMFlag=           0 FMFlg1=           0
         NFxFlg=           0 DoJE=F BraDBF=F KetDBF=F FulRan=T
         wScrn=  0.000000 ICntrl=     600 IOpCl=  0 I1Cent=           0 NGrid=           0
         NMat0=    1 NMatS0=  23871 NMatT0=    0 NMatD0=    1 NMtDS0=    0 NMtDT0=    0
 Symmetry not used in FoFCou.
 Integral accuracy reduced to 1.0D-05 until final iterations.

 Cycle   1  Pass 0  IDiag  1:
 E= -271.417498097316    
 DIIS: error= 2.54D-02 at cycle   1 NSaved=   1.
 NSaved= 1 IEnMin= 1 EnMin= -271.417498097316     IErMin= 1 ErrMin= 2.54D-02
 ErrMax= 2.54D-02  0.00D+00 EMaxC= 1.00D-01 BMatC= 2.76D-01 BMatP= 2.76D-01
 IDIUse=3 WtCom= 7.46D-01 WtEn= 2.54D-01
 Coeff-Com:  0.100D+01
 Coeff-En:   0.100D+01
 Coeff:      0.100D+01
 Gap=     0.238 Goal=   None    Shift=    0.000
 GapD=    0.238 DampG=1.000 DampE=0.500 DampFc=0.5000 IDamp=-1.
 Damping current iteration by 5.00D-01
 RMSDP=6.28D-03 MaxDP=2.63D-01              OVMax= 1.88D-01

 Cycle   2  Pass 0  IDiag  1:
 E= -271.530458098815     Delta-E=       -0.112960001500 Rises=F Damp=T
 DIIS: error= 6.52D-03 at cycle   2 NSaved=   2.
 NSaved= 2 IEnMin= 2 EnMin= -271.530458098815     IErMin= 2 ErrMin= 6.52D-03
 ErrMax= 6.52D-03  0.00D+00 EMaxC= 1.00D-01 BMatC= 1.34D-02 BMatP= 2.76D-01
 IDIUse=3 WtCom= 9.35D-01 WtEn= 6.52D-02
 Coeff-Com:  0.870D-01 0.913D+00
 Coeff-En:   0.142D+00 0.858D+00
 Coeff:      0.906D-01 0.909D+00
 Gap=     0.266 Goal=   None    Shift=    0.000
 RMSDP=1.26D-03 MaxDP=6.09D-02 DE=-1.13D-01 OVMax= 1.25D-01

 Cycle   3  Pass 0  IDiag  1:
 E= -271.673319437937     Delta-E=       -0.142861339121 Rises=F Damp=F
 DIIS: error= 4.37D-03 at cycle   3 NSaved=   3.
 NSaved= 3 IEnMin= 3 EnMin= -271.673319437937     IErMin= 3 ErrMin= 4.37D-03
 ErrMax= 4.37D-03  0.00D+00 EMaxC= 1.00D-01 BMatC= 5.63D-03 BMatP= 1.34D-02
 IDIUse=3 WtCom= 9.56D-01 WtEn= 4.37D-02
 Coeff-Com:  0.445D-02 0.371D+00 0.625D+00
 Coeff-En:   0.000D+00 0.000D+00 0.100D+01
 Coeff:      0.425D-02 0.355D+00 0.641D+00
 Gap=     0.252 Goal=   None    Shift=    0.000
 RMSDP=3.82D-04 MaxDP=1.87D-02 DE=-1.43D-01 OVMax= 3.30D-02

 Cycle   4  Pass 0  IDiag  1:
 E= -271.676301359183     Delta-E=       -0.002981921246 Rises=F Damp=F
 DIIS: error= 2.06D-03 at cycle   4 NSaved=   4.
 NSaved= 4 IEnMin= 4 EnMin= -271.676301359183     IErMin= 4 ErrMin= 2.06D-03
 ErrMax= 2.06D-03  0.00D+00 EMaxC= 1.00D-01 BMatC= 1.65D-03 BMatP= 5.63D-03
 IDIUse=3 WtCom= 9.79D-01 WtEn= 2.06D-02
 Coeff-Com: -0.658D-02 0.707D-01 0.366D+00 0.570D+00
 Coeff-En:   0.000D+00 0.000D+00 0.234D+00 0.766D+00
 Coeff:     -0.644D-02 0.692D-01 0.363D+00 0.574D+00
 Gap=     0.255 Goal=   None    Shift=    0.000
 RMSDP=1.75D-04 MaxDP=7.09D-03 DE=-2.98D-03 OVMax= 1.14D-02

 Cycle   5  Pass 0  IDiag  1:
 E= -271.677503101799     Delta-E=       -0.001201742616 Rises=F Damp=F
 DIIS: error= 5.49D-04 at cycle   5 NSaved=   5.
 NSaved= 5 IEnMin= 5 EnMin= -271.677503101799     IErMin= 5 ErrMin= 5.49D-04
 ErrMax= 5.49D-04  0.00D+00 EMaxC= 1.00D-01 BMatC= 6.75D-05 BMatP= 1.65D-03
 IDIUse=3 WtCom= 9.95D-01 WtEn= 5.49D-03
 Coeff-Com: -0.309D-02 0.133D-01 0.143D+00 0.279D+00 0.568D+00
 Coeff-En:   0.000D+00 0.000D+00 0.000D+00 0.000D+00 0.100D+01
 Coeff:     -0.308D-02 0.132D-01 0.143D+00 0.277D+00 0.570D+00
 Gap=     0.256 Goal=   None    Shift=    0.000
 RMSDP=5.49D-05 MaxDP=3.45D-03 DE=-1.20D-03 OVMax= 2.69D-03

 Cycle   6  Pass 0  IDiag  1:
 E= -271.677559137503     Delta-E=       -0.000056035704 Rises=F Damp=F
 DIIS: error= 1.67D-04 at cycle   6 NSaved=   6.
 NSaved= 6 IEnMin= 6 EnMin= -271.677559137503     IErMin= 6 ErrMin= 1.67D-04
 ErrMax= 1.67D-04  0.00D+00 EMaxC= 1.00D-01 BMatC= 6.48D-06 BMatP= 6.75D-05
 IDIUse=3 WtCom= 9.98D-01 WtEn= 1.67D-03
 Coeff-Com: -0.668D-03 0.303D-04 0.405D-01 0.896D-01 0.296D+00 0.574D+00
 Coeff-En:   0.000D+00 0.000D+00 0.000D+00 0.000D+00 0.985D-02 0.990D+00
 Coeff:     -0.666D-03 0.302D-04 0.404D-01 0.895D-01 0.296D+00 0.575D+00
 Gap=     0.255 Goal=   None    Shift=    0.000
 RMSDP=1.53D-05 MaxDP=1.16D-03 DE=-5.60D-05 OVMax= 7.60D-04

 Cycle   7  Pass 0  IDiag  1:
 E= -271.677564994523     Delta-E=       -0.000005857020 Rises=F Damp=F
 DIIS: error= 1.82D-05 at cycle   7 NSaved=   7.
 NSaved= 7 IEnMin= 7 EnMin= -271.677564994523     IErMin= 7 ErrMin= 1.82D-05
 ErrMax= 1.82D-05  0.00D+00 EMaxC= 1.00D-01 BMatC= 9.72D-08 BMatP= 6.48D-06
 IDIUse=1 WtCom= 1.00D+00 WtEn= 0.00D+00
 Coeff-Com: -0.334D-04-0.471D-03 0.789D-02 0.186D-01 0.762D-01 0.192D+00
 Coeff-Com:  0.706D+00
 Coeff:     -0.334D-04-0.471D-03 0.789D-02 0.186D-01 0.762D-01 0.192D+00
 Coeff:      0.706D+00
 Gap=     0.255 Goal=   None    Shift=    0.000
 RMSDP=2.54D-06 MaxDP=1.15D-04 DE=-5.86D-06 OVMax= 9.65D-05

 Initial convergence to 1.0D-05 achieved.  Increase integral accuracy.
 Cycle   8  Pass 1  IDiag  1:
 E= -271.677559144536     Delta-E=        0.000005849986 Rises=F Damp=F
 DIIS: error= 1.97D-05 at cycle   1 NSaved=   1.
 NSaved= 1 IEnMin= 1 EnMin= -271.677559144536     IErMin= 1 ErrMin= 1.97D-05
 ErrMax= 1.97D-05  0.00D+00 EMaxC= 1.00D-01 BMatC= 1.37D-07 BMatP= 1.37D-07
 IDIUse=1 WtCom= 1.00D+00 WtEn= 0.00D+00
 Coeff-Com:  0.100D+01
 Coeff:      0.100D+01
 Gap=     0.255 Goal=   None    Shift=    0.000
 RMSDP=2.54D-06 MaxDP=1.15D-04 DE= 5.85D-06 OVMax= 1.05D-04

 Cycle   9  Pass 1  IDiag  1:
 E= -271.677559255970     Delta-E=       -0.000000111434 Rises=F Damp=F
 DIIS: error= 7.86D-06 at cycle   2 NSaved=   2.
 NSaved= 2 IEnMin= 2 EnMin= -271.677559255970     IErMin= 2 ErrMin= 7.86D-06
 ErrMax= 7.86D-06  0.00D+00 EMaxC= 1.00D-01 BMatC= 2.39D-08 BMatP= 1.37D-07
 IDIUse=1 WtCom= 1.00D+00 WtEn= 0.00D+00
 Coeff-Com:  0.197D+00 0.803D+00
 Coeff:      0.197D+00 0.803D+00
 Gap=     0.255 Goal=   None    Shift=    0.000
 RMSDP=1.28D-06 MaxDP=5.33D-05 DE=-1.11D-07 OVMax= 6.33D-05

 Cycle  10  Pass 1  IDiag  1:
 E= -271.677559263430     Delta-E=       -0.000000007460 Rises=F Damp=F
 DIIS: error= 7.02D-06 at cycle   3 NSaved=   3.
 NSaved= 3 IEnMin= 3 EnMin= -271.677559263430     IErMin= 3 ErrMin= 7.02D-06
 ErrMax= 7.02D-06  0.00D+00 EMaxC= 1.00D-01 BMatC= 1.67D-08 BMatP= 2.39D-08
 IDIUse=1 WtCom= 1.00D+00 WtEn= 0.00D+00
 Coeff-Com: -0.185D-01 0.456D+00 0.562D+00
 Coeff:     -0.185D-01 0.456D+00 0.562D+00
 Gap=     0.255 Goal=   None    Shift=    0.000
 RMSDP=5.84D-07 MaxDP=2.71D-05 DE=-7.46D-09 OVMax= 2.77D-05

 Cycle  11  Pass 1  IDiag  1:
 E= -271.677559278312     Delta-E=       -0.000000014882 Rises=F Damp=F
 DIIS: error= 1.43D-06 at cycle   4 NSaved=   4.
 NSaved= 4 IEnMin= 4 EnMin= -271.677559278312     IErMin= 4 ErrMin= 1.43D-06
 ErrMax= 1.43D-06  0.00D+00 EMaxC= 1.00D-01 BMatC= 5.76D-10 BMatP= 1.67D-08
 IDIUse=1 WtCom= 1.00D+00 WtEn= 0.00D+00
 Coeff-Com: -0.144D-01 0.241D+00 0.317D+00 0.456D+00
 Coeff:     -0.144D-01 0.241D+00 0.317D+00 0.456D+00
 Gap=     0.255 Goal=   None    Shift=    0.000
 RMSDP=1.50D-07 MaxDP=9.06D-06 DE=-1.49D-08 OVMax= 6.74D-06

 Cycle  12  Pass 1  IDiag  1:
 E= -271.677559278730     Delta-E=       -0.000000000418 Rises=F Damp=F
 DIIS: error= 2.32D-07 at cycle   5 NSaved=   5.
 NSaved= 5 IEnMin= 5 EnMin= -271.677559278730     IErMin= 5 ErrMin= 2.32D-07
 ErrMax= 2.32D-07  0.00D+00 EMaxC= 1.00D-01 BMatC= 2.18D-11 BMatP= 5.76D-10
 IDIUse=1 WtCom= 1.00D+00 WtEn= 0.00D+00
 Coeff-Com: -0.445D-02 0.598D-01 0.817D-01 0.201D+00 0.662D+00
 Coeff:     -0.445D-02 0.598D-01 0.817D-01 0.201D+00 0.662D+00
 Gap=     0.255 Goal=   None    Shift=    0.000
 RMSDP=2.23D-08 MaxDP=9.02D-07 DE=-4.18D-10 OVMax= 1.22D-06

 Cycle  13  Pass 1  IDiag  1:
 E= -271.677559278754     Delta-E=       -0.000000000023 Rises=F Damp=F
 DIIS: error= 5.31D-08 at cycle   6 NSaved=   6.
 NSaved= 6 IEnMin= 6 EnMin= -271.677559278754     IErMin= 6 ErrMin= 5.31D-08
 ErrMax= 5.31D-08  0.00D+00 EMaxC= 1.00D-01 BMatC= 1.48D-12 BMatP= 2.18D-11
 IDIUse=1 WtCom= 1.00D+00 WtEn= 0.00D+00
 Coeff-Com: -0.527D-03 0.271D-02 0.457D-02 0.407D-01 0.259D+00 0.694D+00
 Coeff:     -0.527D-03 0.271D-02 0.457D-02 0.407D-01 0.259D+00 0.694D+00
 Gap=     0.255 Goal=   None    Shift=    0.000
 RMSDP=5.87D-09 MaxDP=2.83D-07 DE=-2.33D-11 OVMax= 3.14D-07

 SCF Done:  E(RB3LYP) =  -271.677559279     A.U. after   13 cycles
            NFock= 13  Conv=0.59D-08     -V/T= 2.0037
 KE= 2.706887890191D+02 PE=-1.135280498595D+03 EE= 3.414631658735D+02
 Leave Link  502 at Tue Aug 30 11:36:31 2022, MaxMem= 24159191040 cpu:        91.1
 (Enter /public/home/users/caep010/software/Gaussian09/g09/l601.exe)
 Copying SCF densities to generalized density rwf, IOpCl= 0 IROHF=0.

 **********************************************************************

            Population analysis using the SCF density.

 **********************************************************************

 Orbital symmetries:
       Occupied  (A) (A) (A) (A) (A) (A) (A) (A) (A) (A) (A) (A)
                 (A) (A) (A) (A) (A) (A) (A) (A) (A) (A) (A) (A)
       Virtual   (A) (A) (A) (A) (A) (A) (A) (A) (A) (A) (A) (A)
                 (A) (A) (A) (A) (A) (A) (A) (A) (A) (A) (A) (A)
                 (A) (A) (A) (A) (A) (A) (A) (A) (A) (A) (A) (A)
                 (A) (A) (A) (A) (A) (A) (A) (A) (A) (A) (A) (A)
                 (A) (A) (A) (A) (A) (A) (A) (A) (A) (A) (A) (A)
                 (A) (A) (A) (A) (A) (A) (A) (A) (A) (A) (A) (A)
                 (A) (A) (A) (A) (A) (A) (A) (A) (A) (A) (A) (A)
                 (A) (A) (A) (A) (A) (A) (A) (A) (A) (A) (A) (A)
                 (A) (A) (A) (A) (A) (A) (A) (A) (A) (A) (A) (A)
                 (A) (A) (A) (A) (A) (A) (A) (A) (A) (A) (A) (A)
                 (A) (A) (A) (A) (A) (A) (A) (A) (A) (A) (A) (A)
                 (A) (A) (A) (A) (A) (A) (A) (A) (A) (A) (A) (A)
                 (A) (A) (A) (A) (A) (A) (A) (A) (A) (A) (A) (A)
                 (A) (A) (A) (A) (A) (A) (A) (A) (A) (A) (A) (A)
                 (A) (A) (A) (A) (A) (A) (A) (A) (A) (A) (A) (A)
                 (A) (A) (A) (A) (A) (A) (A) (A) (A) (A) (A) (A)
                 (A) (A)
 The electronic state is 1-A.
 Alpha  occ. eigenvalues --  -19.13142 -10.23844 -10.19736 -10.18144 -10.17933
 Alpha  occ. eigenvalues --  -10.17244  -1.16653  -0.80811  -0.68669  -0.68578
 Alpha  occ. eigenvalues --   -0.60328  -0.56828  -0.49113  -0.47429  -0.46691
 Alpha  occ. eigenvalues --   -0.42850  -0.42761  -0.38712  -0.38304  -0.37843
 Alpha  occ. eigenvalues --   -0.36522  -0.33108  -0.32883  -0.22134
 Alpha virt. eigenvalues --    0.03412   0.08474   0.12432   0.14481   0.14604
 Alpha virt. eigenvalues --    0.14763   0.15510   0.15979   0.18621   0.19891
 Alpha virt. eigenvalues --    0.20512   0.21741   0.23972   0.25281   0.26919
 Alpha virt. eigenvalues --    0.30222   0.42226   0.44356   0.44779   0.45850
 Alpha virt. eigenvalues --    0.49556   0.51781   0.52913   0.58837   0.59426
 Alpha virt. eigenvalues --    0.61083   0.66155   0.66414   0.67548   0.70069
 Alpha virt. eigenvalues --    0.71020   0.71525   0.72615   0.73930   0.74787
 Alpha virt. eigenvalues --    0.76050   0.76809   0.79652   0.79808   0.80378
 Alpha virt. eigenvalues --    0.85348   0.87398   0.89505   0.90202   0.94000
 Alpha virt. eigenvalues --    0.94711   0.99643   1.00530   1.01686   1.04843
 Alpha virt. eigenvalues --    1.09460   1.14202   1.18749   1.23494   1.30017
 Alpha virt. eigenvalues --    1.35219   1.36086   1.39613   1.40418   1.42843
 Alpha virt. eigenvalues --    1.43009   1.45495   1.49463   1.50630   1.55391
 Alpha virt. eigenvalues --    1.56842   1.58785   1.61965   1.68030   1.71012
 Alpha virt. eigenvalues --    1.73175   1.78996   1.81361   1.81928   1.83439
 Alpha virt. eigenvalues --    1.85112   1.85385   1.92197   1.94611   1.96503
 Alpha virt. eigenvalues --    1.97828   1.99487   2.19986   2.25630   2.26763
 Alpha virt. eigenvalues --    2.30019   2.32149   2.34680   2.38262   2.39198
 Alpha virt. eigenvalues --    2.42365   2.47289   2.48685   2.62678   2.63496
 Alpha virt. eigenvalues --    2.67812   2.74264   2.77402   2.80374   2.82449
 Alpha virt. eigenvalues --    2.83475   2.87610   2.88591   2.90764   2.92490
 Alpha virt. eigenvalues --    2.94241   2.96838   2.97401   2.98266   3.00352
 Alpha virt. eigenvalues --    3.03451   3.04199   3.05899   3.12301   3.15518
 Alpha virt. eigenvalues --    3.18895   3.22098   3.34194   3.35702   3.38903
 Alpha virt. eigenvalues --    3.41897   3.43628   3.47296   3.48163   3.51829
 Alpha virt. eigenvalues --    3.55529   3.57312   3.62112   3.64663   3.68242
 Alpha virt. eigenvalues --    3.76480   3.78907   3.80782   3.81987   3.84484
 Alpha virt. eigenvalues --    3.93479   3.94393   4.00964   4.02296   4.10454
 Alpha virt. eigenvalues --    4.11341   4.14221   4.17480   4.21362   4.22788
 Alpha virt. eigenvalues --    4.28955   4.37415   4.39041   4.41076   4.43554
 Alpha virt. eigenvalues --    4.44269   4.48123   4.56334   4.60037   4.62816
 Alpha virt. eigenvalues --    4.64480   4.67185   4.70086   4.70927   4.71647
 Alpha virt. eigenvalues --    4.73017   4.77311   4.79126   4.81595   4.84677
 Alpha virt. eigenvalues --    4.86405   4.90937   4.91687   4.94460   4.95623
 Alpha virt. eigenvalues --    5.04337   5.13887   5.17031   5.20481   5.37330
 Alpha virt. eigenvalues --    5.41677   5.45079   5.51699   5.56883   5.60990
 Alpha virt. eigenvalues --    5.78045   5.84552   5.90961   5.97455   6.25049
 Alpha virt. eigenvalues --    6.32882   6.61844   6.94891  11.18189  11.75283
 Alpha virt. eigenvalues --   11.91118  11.91789  12.67109  13.25918
          Condensed to atoms (all electrons):
               1          2          3          4          5          6
     1  C    5.036233   0.374846  -0.041242  -0.049629  -0.009636  -0.005272
     2  C    0.374846   4.982307   0.384930   0.348256   0.219723  -0.084260
     3  C   -0.041242   0.384930   5.011563  -0.056396  -0.008316  -0.007081
     4  C   -0.049629   0.348256  -0.056396   5.092226  -0.013605   0.001962
     5  C   -0.009636   0.219723  -0.008316  -0.013605   4.474113   0.903735
     6  O   -0.005272  -0.084260  -0.007081   0.001962   0.903735   7.323059
     7  H    0.371980  -0.021431  -0.005485  -0.003111   0.001140   0.000026
     8  H    0.366560  -0.026970   0.004908  -0.003567   0.000016   0.000247
     9  H    0.367353  -0.023702  -0.003295   0.004882  -0.001225   0.005492
    10  H    0.005525  -0.028435   0.370589  -0.004661  -0.000177   0.000464
    11  H   -0.003413  -0.028127   0.363137   0.006068  -0.003942   0.010393
    12  H   -0.006853  -0.024047   0.372639  -0.003607   0.001625   0.000047
    13  H   -0.003760  -0.015016  -0.003908   0.370378   0.001286  -0.000045
    14  H    0.004365  -0.021390  -0.003105   0.366709  -0.001222   0.000046
    15  H   -0.002694  -0.022873   0.005171   0.366278  -0.001306   0.000028
    16  H    0.004770  -0.146827   0.006009   0.004614   0.374595  -0.117092
               7          8          9         10         11         12
     1  C    0.371980   0.366560   0.367353   0.005525  -0.003413  -0.006853
     2  C   -0.021431  -0.026970  -0.023702  -0.028435  -0.028127  -0.024047
     3  C   -0.005485   0.004908  -0.003295   0.370589   0.363137   0.372639
     4  C   -0.003111  -0.003567   0.004882  -0.004661   0.006068  -0.003607
     5  C    0.001140   0.000016  -0.001225  -0.000177  -0.003942   0.001625
     6  O    0.000026   0.000247   0.005492   0.000464   0.010393   0.000047
     7  H    0.598569  -0.029024  -0.033427  -0.000107  -0.000377   0.005127
     8  H   -0.029024   0.600762  -0.030787  -0.000202   0.000006  -0.000060
     9  H   -0.033427  -0.030787   0.581683  -0.000046   0.004043  -0.000303
    10  H   -0.000107  -0.000202  -0.000046   0.606785  -0.031500  -0.033882
    11  H   -0.000377   0.000006   0.004043  -0.031500   0.588723  -0.028149
    12  H    0.005127  -0.000060  -0.000303  -0.033882  -0.028149   0.603918
    13  H    0.003154  -0.000085  -0.000100  -0.000145  -0.000120   0.003752
    14  H   -0.000074  -0.000040  -0.000137   0.004162  -0.000007  -0.000243
    15  H   -0.000244   0.003839  -0.000040   0.000011  -0.000184  -0.000138
    16  H   -0.000208   0.000911   0.000734   0.000648   0.000935  -0.000229
              13         14         15         16
     1  C   -0.003760   0.004365  -0.002694   0.004770
     2  C   -0.015016  -0.021390  -0.022873  -0.146827
     3  C   -0.003908  -0.003105   0.005171   0.006009
     4  C    0.370378   0.366709   0.366278   0.004614
     5  C    0.001286  -0.001222  -0.001306   0.374595
     6  O   -0.000045   0.000046   0.000028  -0.117092
     7  H    0.003154  -0.000074  -0.000244  -0.000208
     8  H   -0.000085  -0.000040   0.003839   0.000911
     9  H   -0.000100  -0.000137  -0.000040   0.000734
    10  H   -0.000145   0.004162   0.000011   0.000648
    11  H   -0.000120  -0.000007  -0.000184   0.000935
    12  H    0.003752  -0.000243  -0.000138  -0.000229
    13  H    0.594854  -0.032290  -0.033577  -0.000305
    14  H   -0.032290   0.597831  -0.030945   0.002195
    15  H   -0.033577  -0.030945   0.597433   0.003328
    16  H   -0.000305   0.002195   0.003328   0.850069
 Mulliken charges:
               1
     1  C   -0.409134
     2  C    0.133017
     3  C   -0.390119
     4  C   -0.426796
     5  C    0.063195
     6  O   -0.031751
     7  H    0.113491
     8  H    0.113489
     9  H    0.128876
    10  H    0.110972
    11  H    0.122515
    12  H    0.110404
    13  H    0.115927
    14  H    0.114145
    15  H    0.115913
    16  H    0.015854
 Sum of Mulliken charges =  -0.00000
 Mulliken charges with hydrogens summed into heavy atoms:
               1
     1  C   -0.053277
     2  C    0.133017
     3  C   -0.046227
     4  C   -0.080811
     5  C    0.079050
     6  O   -0.031751
 Electronic spatial extent (au):  <R**2>=            604.2862
 Charge=             -0.0000 electrons
 Dipole moment (field-independent basis, Debye):
    X=             -1.3138    Y=             -0.2567    Z=             -0.2626  Tot=              1.3642
 Quadrupole moment (field-independent basis, Debye-Ang):
   XX=            -41.5047   YY=            -37.3887   ZZ=            -37.5560
   XY=             -0.7463   XZ=             -0.6721   YZ=             -0.3476
 Traceless Quadrupole moment (field-independent basis, Debye-Ang):
   XX=             -2.6882   YY=              1.4278   ZZ=              1.2604
   XY=             -0.7463   XZ=             -0.6721   YZ=             -0.3476
 Octapole moment (field-independent basis, Debye-Ang**2):
  XXX=             -0.8851  YYY=             -1.0204  ZZZ=             -2.4523  XYY=              4.6173
  XXY=              0.0787  XXZ=             -0.1424  XZZ=              4.7655  YZZ=             -0.4995
  YYZ=              1.6345  XYZ=             -0.2379
 Hexadecapole moment (field-independent basis, Debye-Ang**3):
 XXXX=           -369.1511 YYYY=           -224.3536 ZZZZ=           -214.4965 XXXY=             -6.7023
 XXXZ=             -4.9448 YYYX=             -0.3889 YYYZ=             -1.6118 ZZZX=              1.1214
 ZZZY=             -1.6507 XXYY=            -93.8146 XXZZ=            -92.9784 YYZZ=            -74.3308
 XXYZ=              0.8662 YYXZ=             -1.0681 ZZXY=              0.1535
 N-N= 2.514509844235D+02 E-N=-1.135280501095D+03  KE= 2.706887890191D+02
 No NMR shielding tensors so no spin-rotation constants.
 Leave Link  601 at Tue Aug 30 11:36:31 2022, MaxMem= 24159191040 cpu:        13.1
 (Enter /public/home/users/caep010/software/Gaussian09/g09/l701.exe)
 Compute integral first derivatives.
 ... and contract with generalized density number  0.
 Leave Link  701 at Tue Aug 30 11:36:32 2022, MaxMem= 24159191040 cpu:        14.5
 (Enter /public/home/users/caep010/software/Gaussian09/g09/l702.exe)
 L702 exits ... SP integral derivatives will be done elsewhere.
 Leave Link  702 at Tue Aug 30 11:36:32 2022, MaxMem= 24159191040 cpu:         0.6
 (Enter /public/home/users/caep010/software/Gaussian09/g09/l703.exe)
 Compute integral first derivatives, UseDBF=F ICtDFT=           0.
 Integral derivatives from FoFJK, PRISM(SPDF).
 Calling FoFJK, ICntrl=      2127 FMM=F ISym2X=0 I1Cent= 0 IOpClX= 0 NMat=1 NMatS=1 NMatT=0.
 FoFJK:  IHMeth= 1 ICntrl=    2127 DoSepK=F KAlg= 0 I1Cent=   0 FoldK=F
 IRaf=         0 NMat=   1 IRICut=       1 DoRegI=T DoRafI=F ISym2E= 0.
 FoFCou: FMM=F IPFlag=           0 FMFlag=      100000 FMFlg1=         800
         NFxFlg=           0 DoJE=F BraDBF=F KetDBF=F FulRan=T
         wScrn=  0.000000 ICntrl=    2127 IOpCl=  0 I1Cent=           0 NGrid=           0
         NMat0=    1 NMatS0=      1 NMatT0=    0 NMatD0=    1 NMtDS0=    0 NMtDT0=    0
 Symmetry not used in FoFCou.
 Leave Link  703 at Tue Aug 30 11:36:33 2022, MaxMem= 24159191040 cpu:        51.2
 (Enter /public/home/users/caep010/software/Gaussian09/g09/l716.exe)
 Dipole        =-5.16907251D-01-1.00987481D-01-1.03323582D-01
 ***** Axes restored to original set *****
 -------------------------------------------------------------------
 Center     Atomic                   Forces (Hartrees/Bohr)
 Number     Number              X              Y              Z
 -------------------------------------------------------------------
      1        6          -0.003928425   -0.004265338    0.006233969
      2        6          -0.010416308    0.014901376    0.002190093
      3        6           0.003840950   -0.006125826   -0.014137491
      4        6           0.004061744   -0.010144179   -0.005129692
      5        6          -0.050549917    0.271113188    0.497522052
      6        8           0.113973306   -0.317852186   -0.553927211
      7        1          -0.008152983    0.002732578   -0.003298639
      8        1           0.004375006    0.001450786    0.002268649
      9        1          -0.005087113   -0.002365977    0.004742076
     10        1          -0.006635995   -0.003692105    0.005413286
     11        1           0.001550103    0.006109265    0.010346708
     12        1           0.009458656   -0.005822646    0.002134494
     13        1          -0.003104382   -0.002417787   -0.004693095
     14        1           0.006313405    0.003442376   -0.005221158
     15        1          -0.004259065    0.007721678   -0.001532562
     16        1          -0.051438982    0.045214801    0.057088519
 -------------------------------------------------------------------
 Cartesian Forces:  Max     0.553927211 RMS     0.125326217
 Leave Link  716 at Tue Aug 30 11:36:33 2022, MaxMem= 24159191040 cpu:         0.7
 (Enter /public/home/users/caep010/software/Gaussian09/g09/l103.exe)

 GradGradGradGradGradGradGradGradGradGradGradGradGradGradGradGradGradGrad
 Berny optimization.
 FormGI is forming the generalized inverse of G from B-inverse, IUseBI=4.
 Internal  Forces:  Max     0.647138679 RMS     0.075937486
 Search for a local minimum.
 Step number   1 out of a maximum of   85
 All quantities printed in internal units (Hartrees-Bohrs-Radians)
 RMS Force = .75937D-01 SwitMx=.10000D-02 MixMth= 1
 Mixed Optimization -- RFO/linear search
 Second derivative matrix not updated -- first step.
 ITU=  0
     Eigenvalues ---    0.00230   0.00230   0.00230   0.00231   0.00552
     Eigenvalues ---    0.04379   0.04974   0.05268   0.05347   0.05411
     Eigenvalues ---    0.05540   0.05589   0.05952   0.06130   0.14810
     Eigenvalues ---    0.15355   0.16000   0.16000   0.16000   0.16000
     Eigenvalues ---    0.16000   0.16000   0.16000   0.16000   0.16000
     Eigenvalues ---    0.16000   0.22000   0.24190   0.26134   0.26787
     Eigenvalues ---    0.30737   0.32337   0.32691   0.32800   0.33216
     Eigenvalues ---    0.33455   0.34068   0.35668   0.35674   0.35701
     Eigenvalues ---    0.39478   3.06095
 RFO step:  Lambda=-1.65211017D-01 EMin= 2.30000000D-03
 Linear search not attempted -- first point.
 Maximum step size (   0.300) exceeded in Quadratic search.
    -- Step size scaled by   0.814
 Iteration  1 RMS(Cart)=  0.04301528 RMS(Int)=  0.00240640
 Iteration  2 RMS(Cart)=  0.00251159 RMS(Int)=  0.00002120
 Iteration  3 RMS(Cart)=  0.00001289 RMS(Int)=  0.00001831
 Iteration  4 RMS(Cart)=  0.00000000 RMS(Int)=  0.00001831
 ITry= 1 IFail=0 DXMaxC= 2.55D-01 DCOld= 1.00D+10 DXMaxT= 3.00D-01 DXLimC= 3.00D+00 Rises=F
 Variable       Old X    -DE/DX   Delta X   Delta X   Delta X     New X
                                 (Linear)    (Quad)   (Total)
    R1        2.96408  -0.01465   0.00000  -0.02795  -0.02795   2.93613
    R2        2.09404  -0.00834   0.00000  -0.01376  -0.01376   2.08028
    R3        2.07216  -0.00077   0.00000  -0.00123  -0.00123   2.07092
    R4        2.08260  -0.00486   0.00000  -0.00791  -0.00791   2.07469
    R5        2.86518   0.01243   0.00000   0.02141   0.02141   2.88659
    R6        2.94869  -0.01567   0.00000  -0.02946  -0.02946   2.91924
    R7        3.01314  -0.00905   0.00000  -0.01810  -0.01810   2.99504
    R8        2.04594   0.00903   0.00000   0.01408   0.01408   2.06002
    R9        2.10231  -0.01123   0.00000  -0.01870  -0.01870   2.08361
   R10        2.04604   0.00807   0.00000   0.01258   0.01258   2.05862
   R11        2.08674  -0.00571   0.00000  -0.00934  -0.00934   2.07740
   R12        2.09597  -0.00865   0.00000  -0.01431  -0.01431   2.08166
   R13        2.04551   0.00892   0.00000   0.01390   0.01390   2.05941
   R14        1.91243   0.64714   0.00000   0.16327   0.16327   2.07570
   R15        1.98969   0.06495   0.00000   0.09440   0.09440   2.08410
    A1        1.92409   0.00061   0.00000   0.00108   0.00106   1.92515
    A2        1.91015   0.00570   0.00000   0.01426   0.01430   1.92446
    A3        1.97359  -0.00833   0.00000  -0.02039  -0.02036   1.95323
    A4        1.92872  -0.00426   0.00000  -0.01157  -0.01158   1.91715
    A5        1.85917   0.00400   0.00000   0.01004   0.01003   1.86920
    A6        1.86700   0.00207   0.00000   0.00607   0.00615   1.87315
    A7        1.91261   0.00037   0.00000   0.00240   0.00241   1.91502
    A8        1.94956  -0.00210   0.00000  -0.00661  -0.00663   1.94293
    A9        1.85043   0.00124   0.00000   0.00251   0.00247   1.85290
   A10        1.92589   0.00229   0.00000   0.00651   0.00652   1.93241
   A11        1.86110   0.00054   0.00000   0.00295   0.00296   1.86405
   A12        1.96066  -0.00225   0.00000  -0.00739  -0.00740   1.95326
   A13        1.96877  -0.00377   0.00000  -0.00885  -0.00884   1.95993
   A14        1.93592  -0.00008   0.00000  -0.00069  -0.00069   1.93523
   A15        1.86946   0.01004   0.00000   0.02506   0.02507   1.89453
   A16        1.85745   0.00221   0.00000   0.00569   0.00568   1.86314
   A17        1.88660  -0.00238   0.00000  -0.00493  -0.00490   1.88170
   A18        1.94635  -0.00653   0.00000  -0.01754  -0.01755   1.92880
   A19        1.94924  -0.00241   0.00000  -0.00607  -0.00608   1.94316
   A20        1.95441  -0.00275   0.00000  -0.00730  -0.00732   1.94709
   A21        1.93442   0.00135   0.00000   0.00384   0.00385   1.93827
   A22        1.87679   0.00191   0.00000   0.00393   0.00389   1.88068
   A23        1.86596   0.00140   0.00000   0.00431   0.00432   1.87028
   A24        1.87898   0.00080   0.00000   0.00206   0.00207   1.88106
   A25        2.16697  -0.01746   0.00000  -0.03687  -0.03687   2.13010
   A26        2.25812  -0.05202   0.00000  -0.13358  -0.13358   2.12454
   A27        1.85787   0.06948   0.00000   0.17051   0.17051   2.02838
    D1       -1.02315  -0.00046   0.00000  -0.00112  -0.00112  -1.02427
    D2        1.11662   0.00129   0.00000   0.00435   0.00436   1.12098
    D3       -3.02548  -0.00192   0.00000  -0.00703  -0.00704  -3.03252
    D4        3.13516   0.00074   0.00000   0.00329   0.00327   3.13843
    D5       -1.00824   0.00249   0.00000   0.00877   0.00874  -0.99950
    D6        1.13284  -0.00072   0.00000  -0.00262  -0.00265   1.13018
    D7        1.05584  -0.00043   0.00000  -0.00106  -0.00102   1.05482
    D8       -3.08757   0.00132   0.00000   0.00442   0.00445  -3.08311
    D9       -0.94649  -0.00189   0.00000  -0.00696  -0.00694  -0.95343
   D10        3.12110  -0.00058   0.00000  -0.00146  -0.00146   3.11963
   D11       -1.08027  -0.00035   0.00000  -0.00064  -0.00063  -1.08090
   D12        1.04742  -0.00197   0.00000  -0.00650  -0.00648   1.04094
   D13        0.96731   0.00028   0.00000   0.00087   0.00086   0.96817
   D14        3.04913   0.00051   0.00000   0.00170   0.00169   3.05082
   D15       -1.10637  -0.00111   0.00000  -0.00416  -0.00415  -1.11052
   D16       -1.16661   0.00134   0.00000   0.00420   0.00418  -1.16243
   D17        0.91521   0.00156   0.00000   0.00502   0.00501   0.92022
   D18        3.04290  -0.00005   0.00000  -0.00084  -0.00083   3.04207
   D19       -1.04581  -0.00144   0.00000  -0.00600  -0.00597  -1.05178
   D20        3.13131  -0.00027   0.00000  -0.00165  -0.00164   3.12967
   D21        1.03278  -0.00036   0.00000  -0.00199  -0.00197   1.03081
   D22        1.08636  -0.00080   0.00000  -0.00291  -0.00289   1.08347
   D23       -1.01970   0.00037   0.00000   0.00144   0.00143  -1.01827
   D24       -3.11824   0.00028   0.00000   0.00111   0.00111  -3.11713
   D25       -3.12262  -0.00004   0.00000   0.00039   0.00038  -3.12223
   D26        1.05451   0.00113   0.00000   0.00474   0.00471   1.05922
   D27       -1.04403   0.00104   0.00000   0.00440   0.00438  -1.03964
   D28        1.12040   0.00216   0.00000   0.00882   0.00883   1.12924
   D29       -1.99503   0.00100   0.00000   0.00312   0.00313  -1.99190
   D30       -0.91689   0.00088   0.00000   0.00348   0.00347  -0.91342
   D31        2.25086  -0.00028   0.00000  -0.00223  -0.00223   2.24862
   D32       -3.02876  -0.00096   0.00000  -0.00210  -0.00210  -3.03085
   D33        0.13899  -0.00212   0.00000  -0.00780  -0.00780   0.13119
         Item               Value     Threshold  Converged?
 Maximum Force            0.647139     0.000450     NO 
 RMS     Force            0.075937     0.000300     NO 
 Maximum Displacement     0.255385     0.001800     NO 
 RMS     Displacement     0.043682     0.001200     NO 
 Predicted change in Energy=-8.723044D-02
 Lowest energy point so far.  Saving SCF results.
 GradGradGradGradGradGradGradGradGradGradGradGradGradGradGradGradGradGrad

 Leave Link  103 at Tue Aug 30 11:36:34 2022, MaxMem= 24159191040 cpu:         4.7
 (Enter /public/home/users/caep010/software/Gaussian09/g09/l202.exe)
                          Input orientation:                          
 ---------------------------------------------------------------------
 Center     Atomic      Atomic             Coordinates (Angstroms)
 Number     Number       Type             X           Y           Z
 ---------------------------------------------------------------------
      1          6           0        1.002737    0.894101   -0.730486
      2          6           0       -0.067508   -0.001568   -0.047516
      3          6           0        0.515377   -1.387801    0.220661
      4          6           0       -0.582434    0.637345    1.261310
      5          6           0       -1.228168   -0.190328   -1.110141
      6          8           0       -1.069476   -0.721522   -2.058383
      7          1           0        1.894817    0.978373   -0.091009
      8          1           0        0.592531    1.890546   -0.929969
      9          1           0        1.332578    0.477973   -1.691410
     10          1           0       -0.195621   -2.045782    0.720556
     11          1           0        0.798869   -1.884051   -0.722254
     12          1           0        1.382814   -1.279175    0.870654
     13          1           0        0.233427    0.781886    1.983785
     14          1           0       -1.350360    0.011191    1.742633
     15          1           0       -1.021930    1.616551    1.072497
     16          1           0       -2.237655    0.222261   -0.945828
 ---------------------------------------------------------------------
                    Distance matrix (angstroms):
                    1          2          3          4          5
     1  C    0.000000
     2  C    1.553735   0.000000
     3  C    2.519777   1.527519   0.000000
     4  C    2.558504   1.544793   2.527718   0.000000
     5  C    2.509395   1.584908   2.498985   2.593414   0.000000
     6  O    2.944081   2.359207   2.854772   3.619957   1.098414
     7  H    1.100836   2.193831   2.756587   2.842858   3.486765
     8  H    1.095886   2.189628   3.475264   2.784378   2.770821
     9  H    1.097877   2.211920   2.793733   3.522958   2.709599
    10  H    3.490629   2.187500   1.090116   2.764273   2.803625
    11  H    2.785635   2.179362   1.102597   3.492844   2.669838
    12  H    2.726030   2.139801   1.089375   2.772699   3.453457
    13  H    2.823419   2.197851   2.809919   1.099314   3.557223
    14  H    3.526033   2.202387   2.784700   1.101567   2.862492
    15  H    2.805700   2.187158   3.480670   1.089794   2.840995
    16  H    3.316305   2.359365   3.395907   2.789894   1.102857
                    6          7          8          9         10
     6  O    0.000000
     7  H    3.942998   0.000000
     8  H    3.295222   1.797738   0.000000
     9  H    2.709856   1.768558   1.767153   0.000000
    10  H    3.199966   3.764848   4.340518   3.810815   0.000000
    11  H    2.574378   3.129384   3.785936   2.608307   1.759791
    12  H    3.860564   2.506685   3.730137   3.107132   1.761157
    13  H    4.505209   2.665256   3.138159   3.848059   3.126585
    14  H    3.881170   3.850826   3.801263   4.382773   2.570836
    15  H    3.907845   3.204439   2.586779   3.805161   3.770852
    16  H    1.868997   4.287161   3.285328   3.656207   3.477177
                   11         12         13         14         15
    11  H    0.000000
    12  H    1.801173   0.000000
    13  H    3.840520   2.609238   0.000000
    14  H    3.779787   3.145732   1.777782   0.000000
    15  H    4.334818   3.769451   1.761543   1.770347   0.000000
    16  H    3.702299   4.319921   3.873249   2.838955   2.737821
                   16
    16  H    0.000000
 Stoichiometry    C5H10O
 Framework group  C1[X(C5H10O)]
 Deg. of freedom    42
 Full point group                 C1      NOp   1
 RotChk:  IX=0 Diff= 3.03D-01
 Largest Abelian subgroup         C1      NOp   1
 Largest concise Abelian subgroup C1      NOp   1
                         Standard orientation:                         
 ---------------------------------------------------------------------
 Center     Atomic      Atomic             Coordinates (Angstroms)
 Number     Number       Type             X           Y           Z
 ---------------------------------------------------------------------
      1          6           0       -0.441523    1.253837   -0.903240
      2          6           0       -0.346886   -0.005966    0.001213
      3          6           0       -0.361647    0.411929    1.470383
      4          6           0       -1.492774   -0.998358   -0.296252
      5          6           0        1.076332   -0.644520   -0.279205
      6          8           0        2.009276   -0.122350   -0.027280
      7          1           0       -1.361975    1.815299   -0.681051
      8          1           0       -0.428397    0.964183   -1.960072
      9          1           0        0.401245    1.938600   -0.741452
     10          1           0       -0.318999   -0.443899    2.144247
     11          1           0        0.508372    1.046513    1.707215
     12          1           0       -1.289634    0.946751    1.669238
     13          1           0       -2.475663   -0.539615   -0.117429
     14          1           0       -1.422511   -1.898696    0.334544
     15          1           0       -1.472384   -1.319228   -1.337538
     16          1           0        1.184730   -1.632641   -0.756865
 ---------------------------------------------------------------------
 Rotational constants (GHZ):      4.5049163      2.7828524      2.7631635
 Leave Link  202 at Tue Aug 30 11:36:34 2022, MaxMem= 24159191040 cpu:         0.2
 (Enter /public/home/users/caep010/software/Gaussian09/g09/l301.exe)
 Standard basis: GTBas3 (6D, 7F)
 Ernie: Thresh=  0.10000D-02 Tol=  0.10000D-05 Strict=F.
 There are   236 symmetry adapted cartesian basis functions of A   symmetry.
 There are   218 symmetry adapted basis functions of A   symmetry.
   218 basis functions,   334 primitive gaussians,   236 cartesian basis functions
    24 alpha electrons       24 beta electrons
       nuclear repulsion energy       249.3935712260 Hartrees.
 IExCor=  402 DFT=T Ex+Corr=B3LYP ExCW=0 ScaHFX=  0.200000
 ScaDFX=  0.800000  0.720000  1.000000  0.810000 ScalE2=  1.000000  1.000000
 IRadAn=      0 IRanWt=     -1 IRanGd=            0 ICorTp=0 IEmpDi=  4
 NAtoms=   16 NActive=   16 NUniq=   16 SFac= 1.00D+00 NAtFMM=   60 NAOKFM=F Big=F
 Integral buffers will be    131072 words long.
 Raffenetti 2 integral format.
 Two-electron integral symmetry is turned on.
 Leave Link  301 at Tue Aug 30 11:36:34 2022, MaxMem= 24159191040 cpu:         1.6
 (Enter /public/home/users/caep010/software/Gaussian09/g09/l302.exe)
 NPDir=0 NMtPBC=     1 NCelOv=     1 NCel=       1 NClECP=     1 NCelD=      1
         NCelK=      1 NCelE2=     1 NClLst=     1 CellRange=     0.0.
 One-electron integrals computed using PRISM.
 NBasis=   218 RedAO= T EigKep=  8.41D-04  NBF=   218
 NBsUse=   218 1.00D-06 EigRej= -1.00D+00 NBFU=   218
 Precomputing XC quadrature grid using
 IXCGrd= 4 IRadAn=           0 IRanWt=          -1 IRanGd=           0 AccXCQ= 0.00D+00.
 Generated NRdTot=       0 NPtTot=           0 NUsed=           0 NTot=          32
 NSgBfM=   236   236   236   236   236 MxSgAt=    16 MxSgA2=    16.
 Leave Link  302 at Tue Aug 30 11:36:34 2022, MaxMem= 24159191040 cpu:        14.4
 (Enter /public/home/users/caep010/software/Gaussian09/g09/l303.exe)
 DipDrv:  MaxL=1.
 Leave Link  303 at Tue Aug 30 11:36:34 2022, MaxMem= 24159191040 cpu:         0.7
 (Enter /public/home/users/caep010/software/Gaussian09/g09/l401.exe)
 Initial guess from the checkpoint file:  "G4.Frag_758.chk"
 B after Tr=    -0.000000    0.000000    0.000000
         Rot=    0.994293    0.106071   -0.007382    0.008685 Ang=  12.25 deg.
 Guess basis will be translated and rotated to current coordinates.
 JPrj=2 DoOrth=T DoCkMO=T.
 Generating alternative initial guess.
 ExpMin= 1.61D-01 ExpMax= 5.48D+03 ExpMxC= 8.25D+02 IAcc=1 IRadAn=         1 AccDes= 0.00D+00
 Harris functional with IExCor=  402 and IRadAn=       1 diagonalized for initial guess.
 HarFok:  IExCor=  402 AccDes= 0.00D+00 IRadAn=         1 IDoV= 1 UseB2=F ITyADJ=14
 ICtDFT=  3500011 ScaDFX=  1.000000  1.000000  1.000000  1.000000
 FoFCou: FMM=F IPFlag=           0 FMFlag=      100000 FMFlg1=           0
         NFxFlg=           0 DoJE=T BraDBF=F KetDBF=T FulRan=T
         wScrn=  0.000000 ICntrl=     500 IOpCl=  0 I1Cent=   200000004 NGrid=           0
         NMat0=    1 NMatS0=      1 NMatT0=    0 NMatD0=    1 NMtDS0=    0 NMtDT0=    0
 Petite list used in FoFCou.
 Harris En= -271.835471291724    
 Leave Link  401 at Tue Aug 30 11:36:35 2022, MaxMem= 24159191040 cpu:        18.6
 (Enter /public/home/users/caep010/software/Gaussian09/g09/l502.exe)
 Closed shell SCF:
 Using DIIS extrapolation, IDIIS=  1040.
 Integral symmetry usage will be decided dynamically.
 Keep R1 ints in memory in canonical form, NReq=291775086.
 IVT=      194922 IEndB=      194922 NGot= 24159191040 MDV= 23874071863
 LenX= 23874071863 LenY= 23874015726
 Requested convergence on RMS density matrix=1.00D-08 within 128 cycles.
 Requested convergence on MAX density matrix=1.00D-06.
 Requested convergence on             energy=1.00D-06.
 No special actions if energy rises.
 FoFCou: FMM=F IPFlag=           0 FMFlag=           0 FMFlg1=           0
         NFxFlg=           0 DoJE=F BraDBF=F KetDBF=F FulRan=T
         wScrn=  0.000000 ICntrl=     600 IOpCl=  0 I1Cent=           0 NGrid=           0
         NMat0=    1 NMatS0=  23871 NMatT0=    0 NMatD0=    1 NMtDS0=    0 NMtDT0=    0
 Symmetry not used in FoFCou.
 Integral accuracy reduced to 1.0D-05 until final iterations.

 Cycle   1  Pass 0  IDiag  1:
 E= -271.757948980539    
 DIIS: error= 5.51D-03 at cycle   1 NSaved=   1.
 NSaved= 1 IEnMin= 1 EnMin= -271.757948980539     IErMin= 1 ErrMin= 5.51D-03
 ErrMax= 5.51D-03  0.00D+00 EMaxC= 1.00D-01 BMatC= 1.05D-02 BMatP= 1.05D-02
 IDIUse=3 WtCom= 9.45D-01 WtEn= 5.51D-02
 Coeff-Com:  0.100D+01
 Coeff-En:   0.100D+01
 Coeff:      0.100D+01
 Gap=     1.138 Goal=   None    Shift=    0.000
 GapD=    1.138 DampG=2.000 DampE=1.000 DampFc=2.0000 IDamp=-1.
 RMSDP=6.86D-04 MaxDP=2.69D-02              OVMax= 2.44D-02

 Cycle   2  Pass 0  IDiag  1:
 E= -271.766113441969     Delta-E=       -0.008164461430 Rises=F Damp=F
 DIIS: error= 2.29D-03 at cycle   2 NSaved=   2.
 NSaved= 2 IEnMin= 2 EnMin= -271.766113441969     IErMin= 2 ErrMin= 2.29D-03
 ErrMax= 2.29D-03  0.00D+00 EMaxC= 1.00D-01 BMatC= 1.45D-03 BMatP= 1.05D-02
 IDIUse=3 WtCom= 9.77D-01 WtEn= 2.29D-02
 Coeff-Com:  0.214D+00 0.786D+00
 Coeff-En:   0.000D+00 0.100D+01
 Coeff:      0.209D+00 0.791D+00
 Gap=     0.241 Goal=   None    Shift=    0.000
 RMSDP=2.95D-04 MaxDP=1.50D-02 DE=-8.16D-03 OVMax= 1.56D-02

 Cycle   3  Pass 0  IDiag  1:
 E= -271.766756870337     Delta-E=       -0.000643428368 Rises=F Damp=F
 DIIS: error= 1.00D-03 at cycle   3 NSaved=   3.
 NSaved= 3 IEnMin= 3 EnMin= -271.766756870337     IErMin= 3 ErrMin= 1.00D-03
 ErrMax= 1.00D-03  0.00D+00 EMaxC= 1.00D-01 BMatC= 4.88D-04 BMatP= 1.45D-03
 IDIUse=3 WtCom= 9.90D-01 WtEn= 1.00D-02
 Coeff-Com:  0.175D-01 0.367D+00 0.615D+00
 Coeff-En:   0.000D+00 0.261D+00 0.739D+00
 Coeff:      0.173D-01 0.366D+00 0.617D+00
 Gap=     0.242 Goal=   None    Shift=    0.000
 RMSDP=1.55D-04 MaxDP=8.50D-03 DE=-6.43D-04 OVMax= 7.61D-03

 Cycle   4  Pass 0  IDiag  1:
 E= -271.767122504636     Delta-E=       -0.000365634299 Rises=F Damp=F
 DIIS: error= 4.90D-04 at cycle   4 NSaved=   4.
 NSaved= 4 IEnMin= 4 EnMin= -271.767122504636     IErMin= 4 ErrMin= 4.90D-04
 ErrMax= 4.90D-04  0.00D+00 EMaxC= 1.00D-01 BMatC= 6.88D-05 BMatP= 4.88D-04
 IDIUse=3 WtCom= 9.95D-01 WtEn= 4.90D-03
 Coeff-Com: -0.642D-03 0.150D+00 0.358D+00 0.493D+00
 Coeff-En:   0.000D+00 0.000D+00 0.325D-01 0.968D+00
 Coeff:     -0.638D-03 0.149D+00 0.356D+00 0.495D+00
 Gap=     0.243 Goal=   None    Shift=    0.000
 RMSDP=4.17D-05 MaxDP=2.26D-03 DE=-3.66D-04 OVMax= 2.17D-03

 Cycle   5  Pass 0  IDiag  1:
 E= -271.767173285073     Delta-E=       -0.000050780436 Rises=F Damp=F
 DIIS: error= 1.52D-04 at cycle   5 NSaved=   5.
 NSaved= 5 IEnMin= 5 EnMin= -271.767173285073     IErMin= 5 ErrMin= 1.52D-04
 ErrMax= 1.52D-04  0.00D+00 EMaxC= 1.00D-01 BMatC= 6.63D-06 BMatP= 6.88D-05
 IDIUse=3 WtCom= 9.98D-01 WtEn= 1.52D-03
 Coeff-Com: -0.255D-02 0.339D-01 0.124D+00 0.283D+00 0.561D+00
 Coeff-En:   0.000D+00 0.000D+00 0.000D+00 0.184D-01 0.982D+00
 Coeff:     -0.255D-02 0.339D-01 0.124D+00 0.283D+00 0.562D+00
 Gap=     0.242 Goal=   None    Shift=    0.000
 RMSDP=9.07D-06 MaxDP=5.06D-04 DE=-5.08D-05 OVMax= 7.07D-04

 Initial convergence to 1.0D-05 achieved.  Increase integral accuracy.
 Cycle   6  Pass 1  IDiag  1:
 E= -271.767188534808     Delta-E=       -0.000015249735 Rises=F Damp=F
 DIIS: error= 3.34D-05 at cycle   1 NSaved=   1.
 NSaved= 1 IEnMin= 1 EnMin= -271.767188534808     IErMin= 1 ErrMin= 3.34D-05
 ErrMax= 3.34D-05  0.00D+00 EMaxC= 1.00D-01 BMatC= 4.03D-07 BMatP= 4.03D-07
 IDIUse=1 WtCom= 1.00D+00 WtEn= 0.00D+00
 Coeff-Com:  0.100D+01
 Coeff:      0.100D+01
 Gap=     0.242 Goal=   None    Shift=    0.000
 RMSDP=9.07D-06 MaxDP=5.06D-04 DE=-1.52D-05 OVMax= 2.42D-04

 Cycle   7  Pass 1  IDiag  1:
 E= -271.767188556706     Delta-E=       -0.000000021898 Rises=F Damp=F
 DIIS: error= 2.82D-05 at cycle   2 NSaved=   2.
 NSaved= 2 IEnMin= 2 EnMin= -271.767188556706     IErMin= 2 ErrMin= 2.82D-05
 ErrMax= 2.82D-05  0.00D+00 EMaxC= 1.00D-01 BMatC= 4.06D-07 BMatP= 4.03D-07
 IDIUse=1 WtCom= 1.00D+00 WtEn= 0.00D+00
 Coeff-Com:  0.501D+00 0.499D+00
 Coeff:      0.501D+00 0.499D+00
 Gap=     0.242 Goal=   None    Shift=    0.000
 RMSDP=2.96D-06 MaxDP=1.20D-04 DE=-2.19D-08 OVMax= 1.66D-04

 Cycle   8  Pass 1  IDiag  1:
 E= -271.767188892891     Delta-E=       -0.000000336185 Rises=F Damp=F
 DIIS: error= 1.19D-05 at cycle   3 NSaved=   3.
 NSaved= 3 IEnMin= 3 EnMin= -271.767188892891     IErMin= 3 ErrMin= 1.19D-05
 ErrMax= 1.19D-05  0.00D+00 EMaxC= 1.00D-01 BMatC= 3.14D-08 BMatP= 4.03D-07
 IDIUse=1 WtCom= 1.00D+00 WtEn= 0.00D+00
 Coeff-Com:  0.919D-01 0.230D+00 0.678D+00
 Coeff:      0.919D-01 0.230D+00 0.678D+00
 Gap=     0.242 Goal=   None    Shift=    0.000
 RMSDP=8.64D-07 MaxDP=4.84D-05 DE=-3.36D-07 OVMax= 5.44D-05

 Cycle   9  Pass 1  IDiag  1:
 E= -271.767188910153     Delta-E=       -0.000000017262 Rises=F Damp=F
 DIIS: error= 5.07D-06 at cycle   4 NSaved=   4.
 NSaved= 4 IEnMin= 4 EnMin= -271.767188910153     IErMin= 4 ErrMin= 5.07D-06
 ErrMax= 5.07D-06  0.00D+00 EMaxC= 1.00D-01 BMatC= 7.73D-09 BMatP= 3.14D-08
 IDIUse=1 WtCom= 1.00D+00 WtEn= 0.00D+00
 Coeff-Com: -0.198D-02 0.794D-01 0.408D+00 0.515D+00
 Coeff:     -0.198D-02 0.794D-01 0.408D+00 0.515D+00
 Gap=     0.242 Goal=   None    Shift=    0.000
 RMSDP=4.54D-07 MaxDP=2.40D-05 DE=-1.73D-08 OVMax= 2.17D-05

 Cycle  10  Pass 1  IDiag  1:
 E= -271.767188916221     Delta-E=       -0.000000006068 Rises=F Damp=F
 DIIS: error= 1.02D-06 at cycle   5 NSaved=   5.
 NSaved= 5 IEnMin= 5 EnMin= -271.767188916221     IErMin= 5 ErrMin= 1.02D-06
 ErrMax= 1.02D-06  0.00D+00 EMaxC= 1.00D-01 BMatC= 5.15D-10 BMatP= 7.73D-09
 IDIUse=1 WtCom= 1.00D+00 WtEn= 0.00D+00
 Coeff-Com: -0.842D-02 0.263D-01 0.171D+00 0.285D+00 0.526D+00
 Coeff:     -0.842D-02 0.263D-01 0.171D+00 0.285D+00 0.526D+00
 Gap=     0.242 Goal=   None    Shift=    0.000
 RMSDP=1.16D-07 MaxDP=7.38D-06 DE=-6.07D-09 OVMax= 5.35D-06

 Cycle  11  Pass 1  IDiag  1:
 E= -271.767188916680     Delta-E=       -0.000000000459 Rises=F Damp=F
 DIIS: error= 1.36D-07 at cycle   6 NSaved=   6.
 NSaved= 6 IEnMin= 6 EnMin= -271.767188916680     IErMin= 6 ErrMin= 1.36D-07
 ErrMax= 1.36D-07  0.00D+00 EMaxC= 1.00D-01 BMatC= 4.29D-12 BMatP= 5.15D-10
 IDIUse=1 WtCom= 1.00D+00 WtEn= 0.00D+00
 Coeff-Com: -0.273D-02 0.721D-02 0.471D-01 0.836D-01 0.169D+00 0.696D+00
 Coeff:     -0.273D-02 0.721D-02 0.471D-01 0.836D-01 0.169D+00 0.696D+00
 Gap=     0.242 Goal=   None    Shift=    0.000
 RMSDP=1.44D-08 MaxDP=6.13D-07 DE=-4.59D-10 OVMax= 7.02D-07

 Cycle  12  Pass 1  IDiag  1:
 E= -271.767188916676     Delta-E=        0.000000000004 Rises=F Damp=F
 DIIS: error= 5.83D-08 at cycle   7 NSaved=   7.
 NSaved= 7 IEnMin= 6 EnMin= -271.767188916680     IErMin= 7 ErrMin= 5.83D-08
 ErrMax= 5.83D-08  0.00D+00 EMaxC= 1.00D-01 BMatC= 1.15D-12 BMatP= 4.29D-12
 IDIUse=1 WtCom= 1.00D+00 WtEn= 0.00D+00
 Coeff-Com: -0.139D-03-0.198D-03-0.190D-02-0.865D-04 0.491D-02 0.345D+00
 Coeff-Com:  0.652D+00
 Coeff:     -0.139D-03-0.198D-03-0.190D-02-0.865D-04 0.491D-02 0.345D+00
 Coeff:      0.652D+00
 Gap=     0.242 Goal=   None    Shift=    0.000
 RMSDP=5.12D-09 MaxDP=2.16D-07 DE= 4.09D-12 OVMax= 2.30D-07

 SCF Done:  E(RB3LYP) =  -271.767188917     A.U. after   12 cycles
            NFock= 12  Conv=0.51D-08     -V/T= 2.0064
 KE= 2.700409969549D+02 PE=-1.130861907599D+03 EE= 3.396601505015D+02
 Leave Link  502 at Tue Aug 30 11:36:44 2022, MaxMem= 24159191040 cpu:        96.6
 (Enter /public/home/users/caep010/software/Gaussian09/g09/l701.exe)
 Compute integral first derivatives.
 ... and contract with generalized density number  0.
 Leave Link  701 at Tue Aug 30 11:36:44 2022, MaxMem= 24159191040 cpu:        14.2
 (Enter /public/home/users/caep010/software/Gaussian09/g09/l702.exe)
 L702 exits ... SP integral derivatives will be done elsewhere.
 Leave Link  702 at Tue Aug 30 11:36:44 2022, MaxMem= 24159191040 cpu:         0.5
 (Enter /public/home/users/caep010/software/Gaussian09/g09/l703.exe)
 Compute integral first derivatives, UseDBF=F ICtDFT=           0.
 Integral derivatives from FoFJK, PRISM(SPDF).
 Calling FoFJK, ICntrl=      2127 FMM=F ISym2X=0 I1Cent= 0 IOpClX= 0 NMat=1 NMatS=1 NMatT=0.
 FoFJK:  IHMeth= 1 ICntrl=    2127 DoSepK=F KAlg= 0 I1Cent=   0 FoldK=F
 IRaf=         0 NMat=   1 IRICut=       1 DoRegI=T DoRafI=F ISym2E= 0.
 FoFCou: FMM=F IPFlag=           0 FMFlag=      100000 FMFlg1=         800
         NFxFlg=           0 DoJE=F BraDBF=F KetDBF=F FulRan=T
         wScrn=  0.000000 ICntrl=    2127 IOpCl=  0 I1Cent=           0 NGrid=           0
         NMat0=    1 NMatS0=      1 NMatT0=    0 NMatD0=    1 NMtDS0=    0 NMtDT0=    0
 Symmetry not used in FoFCou.
 Leave Link  703 at Tue Aug 30 11:36:46 2022, MaxMem= 24159191040 cpu:        57.1
 (Enter /public/home/users/caep010/software/Gaussian09/g09/l716.exe)
 Dipole        =-6.75606263D-01-1.68730596D-01-1.01440361D-01
 ***** Axes restored to original set *****
 -------------------------------------------------------------------
 Center     Atomic                   Forces (Hartrees/Bohr)
 Number     Number              X              Y              Z
 -------------------------------------------------------------------
      1        6          -0.002175496   -0.002511955    0.001918521
      2        6          -0.010950242    0.005879510   -0.003267628
      3        6           0.001643356   -0.004029349   -0.005972523
      4        6           0.000711144   -0.004140696   -0.003698114
      5        6          -0.021871106    0.111170398    0.200782869
      6        8           0.043454387   -0.125017155   -0.217476836
      7        1          -0.004157194    0.002391981   -0.001027759
      8        1           0.002970076    0.001198340    0.001714907
      9        1          -0.002975305   -0.001473469    0.002514194
     10        1          -0.003218103   -0.000948821    0.002707687
     11        1           0.001481449    0.003827081    0.005435970
     12        1           0.004657885   -0.003317834    0.000378183
     13        1          -0.001514794   -0.001502094   -0.002397557
     14        1           0.002891802    0.001685802   -0.002085488
     15        1          -0.002116545    0.003487727   -0.000593066
     16        1          -0.008831313    0.013300534    0.021066640
 -------------------------------------------------------------------
 Cartesian Forces:  Max     0.217476836 RMS     0.049817270
 Leave Link  716 at Tue Aug 30 11:36:46 2022, MaxMem= 24159191040 cpu:         0.5
 (Enter /public/home/users/caep010/software/Gaussian09/g09/l103.exe)

 GradGradGradGradGradGradGradGradGradGradGradGradGradGradGradGradGradGrad
 Berny optimization.
 Using GEDIIS/GDIIS optimizer.
 FormGI is forming the generalized inverse of G from B-inverse, IUseBI=4.
 Internal  Forces:  Max     0.254478079 RMS     0.029793520
 Search for a local minimum.
 Step number   2 out of a maximum of   85
 All quantities printed in internal units (Hartrees-Bohrs-Radians)
 RMS Force = .29794D-01 SwitMx=.10000D-02 MixMth= 1
 Mixed Optimization -- RFO/linear search
 Update second derivatives using D2CorX and points    1    2
 DE= -8.96D-02 DEPred=-8.72D-02 R= 1.03D+00
 TightC=F SS=  1.41D+00  RLast= 3.01D-01 DXNew= 5.0454D-01 9.0301D-01
 Trust test= 1.03D+00 RLast= 3.01D-01 DXMaxT set to 5.05D-01
 ITU=  1  0
 Use linear search instead of GDIIS.
     Eigenvalues ---    0.00230   0.00230   0.00230   0.00231   0.00552
     Eigenvalues ---    0.04381   0.05025   0.05334   0.05413   0.05436
     Eigenvalues ---    0.05490   0.05611   0.05832   0.06072   0.14843
     Eigenvalues ---    0.15330   0.15981   0.16000   0.16000   0.16000
     Eigenvalues ---    0.16000   0.16000   0.16000   0.16000   0.16000
     Eigenvalues ---    0.17740   0.22623   0.24104   0.26167   0.26816
     Eigenvalues ---    0.30740   0.32332   0.32696   0.32804   0.33215
     Eigenvalues ---    0.33454   0.34068   0.35669   0.35679   0.35703
     Eigenvalues ---    0.41035   2.27842
 RFO step:  Lambda=-3.37400787D-02 EMin= 2.29999766D-03
 Quartic linear search produced a step of  1.07728.
 Iteration  1 RMS(Cart)=  0.08810338 RMS(Int)=  0.03260076
 Iteration  2 RMS(Cart)=  0.04844978 RMS(Int)=  0.00471646
 Iteration  3 RMS(Cart)=  0.00438094 RMS(Int)=  0.00049542
 Iteration  4 RMS(Cart)=  0.00000228 RMS(Int)=  0.00049542
 Iteration  5 RMS(Cart)=  0.00000000 RMS(Int)=  0.00049542
 ITry= 1 IFail=0 DXMaxC= 7.88D-01 DCOld= 1.00D+10 DXMaxT= 5.05D-01 DXLimC= 3.00D+00 Rises=F
 Variable       Old X    -DE/DX   Delta X   Delta X   Delta X     New X
                                 (Linear)    (Quad)   (Total)
    R1        2.93613  -0.00684  -0.03011  -0.03227  -0.06237   2.87376
    R2        2.08028  -0.00378  -0.01483  -0.01170  -0.02653   2.05375
    R3        2.07092  -0.00034  -0.00133  -0.00094  -0.00227   2.06865
    R4        2.07469  -0.00253  -0.00852  -0.00840  -0.01692   2.05777
    R5        2.88659   0.00624   0.02306   0.02330   0.04636   2.93295
    R6        2.91924  -0.00762  -0.03173  -0.03511  -0.06685   2.85239
    R7        2.99504  -0.01221  -0.01950  -0.08196  -0.10146   2.89359
    R8        2.06002   0.00392   0.01517   0.00985   0.02503   2.08505
    R9        2.08361  -0.00599  -0.02015  -0.02133  -0.04148   2.04213
   R10        2.05862   0.00360   0.01355   0.00935   0.02291   2.08153
   R11        2.07740  -0.00289  -0.01006  -0.00953  -0.01959   2.05781
   R12        2.08166  -0.00389  -0.01542  -0.01201  -0.02743   2.05423
   R13        2.05941   0.00409   0.01498   0.01089   0.02587   2.08528
   R14        2.07570   0.25448   0.17589  -0.04968   0.12621   2.20192
   R15        2.08410   0.01620   0.10170   0.00025   0.10195   2.18605
    A1        1.92515   0.00036   0.00114  -0.00217  -0.00104   1.92411
    A2        1.92446   0.00368   0.01541   0.03646   0.05246   1.97691
    A3        1.95323  -0.00487  -0.02193  -0.04256  -0.06406   1.88918
    A4        1.91715  -0.00309  -0.01247  -0.04542  -0.05772   1.85942
    A5        1.86920   0.00257   0.01080   0.02885   0.03943   1.90862
    A6        1.87315   0.00126   0.00663   0.02408   0.03170   1.90485
    A7        1.91502  -0.00017   0.00259   0.01923   0.02178   1.93680
    A8        1.94293  -0.00082  -0.00714  -0.02442  -0.03252   1.91041
    A9        1.85290   0.00108   0.00266   0.00445   0.00485   1.85775
   A10        1.93241   0.00141   0.00703   0.02240   0.03028   1.96269
   A11        1.86405   0.00109   0.00318   0.03180   0.03526   1.89932
   A12        1.95326  -0.00252  -0.00798  -0.05129  -0.05991   1.89334
   A13        1.95993  -0.00256  -0.00952  -0.01878  -0.02830   1.93163
   A14        1.93523  -0.00043  -0.00075  -0.00974  -0.01030   1.92493
   A15        1.89453   0.00555   0.02701   0.05429   0.08157   1.97610
   A16        1.86314   0.00194   0.00612   0.02425   0.03028   1.89341
   A17        1.88170  -0.00103  -0.00528   0.00030  -0.00489   1.87680
   A18        1.92880  -0.00372  -0.01891  -0.05275  -0.07121   1.85758
   A19        1.94316  -0.00160  -0.00655  -0.01738  -0.02418   1.91897
   A20        1.94709  -0.00087  -0.00789  -0.01309  -0.02123   1.92587
   A21        1.93827   0.00088   0.00414   0.01443   0.01870   1.95697
   A22        1.88068   0.00076   0.00419  -0.00233   0.00122   1.88190
   A23        1.87028   0.00082   0.00465   0.01683   0.02162   1.89189
   A24        1.88106   0.00012   0.00223   0.00281   0.00516   1.88622
   A25        2.13010   0.00447  -0.03972   0.05127   0.01056   2.14066
   A26        2.12454  -0.02400  -0.14390  -0.24171  -0.38661   1.73793
   A27        2.02838   0.01953   0.18369   0.19157   0.37426   2.40264
    D1       -1.02427  -0.00030  -0.00121  -0.00530  -0.00648  -1.03075
    D2        1.12098   0.00081   0.00469   0.01997   0.02463   1.14561
    D3       -3.03252  -0.00206  -0.00758  -0.05421  -0.06213  -3.09465
    D4        3.13843   0.00090   0.00352   0.02902   0.03247  -3.11228
    D5       -0.99950   0.00201   0.00942   0.05429   0.06358  -0.93592
    D6        1.13018  -0.00086  -0.00286  -0.01989  -0.02318   1.10700
    D7        1.05482   0.00002  -0.00110   0.00197   0.00133   1.05615
    D8       -3.08311   0.00113   0.00480   0.02724   0.03244  -3.05067
    D9       -0.95343  -0.00175  -0.00748  -0.04694  -0.05432  -1.00775
   D10        3.11963  -0.00053  -0.00158  -0.00724  -0.00871   3.11092
   D11       -1.08090  -0.00007  -0.00068   0.00435   0.00396  -1.07694
   D12        1.04094  -0.00132  -0.00698  -0.03173  -0.03866   1.00228
   D13        0.96817  -0.00032   0.00093  -0.00472  -0.00375   0.96442
[...]
 Quadrupole moment (field-independent basis, Debye-Ang):
   XX=            -46.4350   YY=            -37.2930   ZZ=            -37.8783
   XY=             -0.8571   XZ=             -0.0011   YZ=              0.0017
 Traceless Quadrupole moment (field-independent basis, Debye-Ang):
   XX=             -5.8996   YY=              3.2424   ZZ=              2.6571
   XY=             -0.8571   XZ=             -0.0011   YZ=              0.0017
 Octapole moment (field-independent basis, Debye-Ang**2):
  XXX=            -15.6582  YYY=             -4.1641  ZZZ=              0.0061  XYY=              3.6207
  XXY=              0.8936  XXZ=              0.0050  XZZ=              3.9712  YZZ=              0.9015
  YYZ=             -0.0165  XYZ=             -0.0015
 Hexadecapole moment (field-independent basis, Debye-Ang**3):
 XXXX=           -406.9014 YYYY=           -227.2721 ZZZZ=           -217.5743 XXXY=             -2.7572
 XXXZ=             -0.0073 YYYX=             -1.0343 YYYZ=              0.0163 ZZZX=              0.0042
 ZZZY=             -0.0089 XXYY=            -98.3234 XXZZ=            -98.9769 YYZZ=            -75.6913
 XXYZ=              0.0057 YYXZ=             -0.0059 ZZXY=              0.5453
 N-N= 2.474478631590D+02 E-N=-1.126150039945D+03  KE= 2.697987300815D+02
 No NMR shielding tensors so no spin-rotation constants.
 Leave Link  601 at Tue Aug 30 12:02:50 2022, MaxMem= 24159191040 cpu:        29.7
 (Enter /public/home/users/caep010/software/Gaussian09/g09/l9999.exe)
 1\1\GINC-B0874\SP\RHF\GFHFB2\C5H10O1\ROOT\30-Aug-2022\0\\#P Geom=AllCh
 eck Guess=TCheck SCRF=Check HF/GFHFB2 SCF=Tight\\Frag_758\\0,1\C,0,1.0
 847722782,0.7419588178,-0.7658812664\C,0,-0.0531459945,-0.040874083,-0
 .0764953721\C,0,0.4354415105,-1.4046750219,0.4205376724\C,0,-0.6280612
 117,0.8020573801,1.0820655268\C,0,-1.1665402496,-0.2122740239,-1.10231
 23535\O,0,-1.6159210154,-1.2610858529,-1.4845379733\H,0,1.8759281523,0
 .9680185948,-0.0437003948\H,0,0.7270699216,1.6927962666,-1.1761929767\
 H,0,1.52682245,0.1637839273,-1.5834457121\H,0,-0.3783233753,-1.9665304
 373,0.8868129424\H,0,0.817857342,-2.0091251767,-0.4062937899\H,0,1.235
 878134,-1.2800018011,1.1569074623\H,0,0.1590677029,1.0276398539,1.8087
 849164\H,0,-1.4283319415,0.2677557356,1.6037971241\H,0,-1.0327679996,1
 .7548469028,0.7231606983\H,0,-1.5597467039,0.7557089179,-1.4981065037\
 \Version=ES64L-G09RevE.01\State=1-A\HF=-270.1405611\RMSD=2.209e-09\Dip
 ole=0.618268,0.9443357,0.5420529\Quadrupole=-0.1383279,-0.1714052,0.30
 97331,-2.4990226,-1.8769616,-2.2454443\PG=C01 [X(C5H10O1)]\\@


 READER, WHETHER YOU BE DILETTANTE OR PROFESSOR ... SHOW YOURSELF TO BE
 MORE HUMAN THAN CRITICAL, AND THEN YOUR PLEASURE WILL INCREASE.
                                           -- DOMENICO SCARLATTI (1738)
 Diagonal vibrational polarizability:
        0.0000000       0.0000000       0.0000000

 Temperature=              298.150000 Pressure=                      1.000000
 E(ZPE)=                     0.137931 E(Thermal)=                    0.145691
 E(CCSD(T))=              -270.936674 E(Empiric)=                   -0.125046
 DE(Plus)=                  -0.016830 DE(2DF)=                      -0.245807
 E(Delta-G3XP)=             -0.371969 DE(HF)=                       -0.026865
 G4(0 K)=                 -271.585261 G4 Energy=                  -271.577500
 G4 Enthalpy=             -271.576556 G4 Free Energy=             -271.616333
 1\1\GINC-B0874\Mixed\G4\G4\C5H10O1\ROOT\30-Aug-2022\0\\#P Geom=AllChec
 k Guess=TCheck SCRF=Check HF/GFHFB2 SCF=Tight\\Frag_758\\0,1\C,0,1.084
 7722782,0.7419588178,-0.7658812664\C,0,-0.0531459945,-0.040874083,-0.0
 764953721\C,0,0.4354415105,-1.4046750219,0.4205376724\C,0,-0.628061211
 7,0.8020573801,1.0820655268\C,0,-1.1665402496,-0.2122740239,-1.1023123
 535\O,0,-1.6159210154,-1.2610858529,-1.4845379733\H,0,1.8759281523,0.9
 680185948,-0.0437003948\H,0,0.7270699216,1.6927962666,-1.1761929767\H,
 0,1.52682245,0.1637839273,-1.5834457121\H,0,-0.3783233753,-1.966530437
 3,0.8868129424\H,0,0.817857342,-2.0091251767,-0.4062937899\H,0,1.23587
 8134,-1.2800018011,1.1569074623\H,0,0.1590677029,1.0276398539,1.808784
 9164\H,0,-1.4283319415,0.2677557356,1.6037971241\H,0,-1.0327679996,1.7
 548469028,0.7231606983\H,0,-1.5597467039,0.7557089179,-1.4981065037\\V
 ersion=ES64L-G09RevE.01\State=1-A\MP2/GTBas1=-270.8511547\MP4/GTBas1=-
 270.9377705\CCSD(T)/G3Bas1=-270.9366744\MP2/GTBas2=-270.866704\MP4/GTB
 as2=-270.9546003\MP2/GTBas3=-271.0824023\MP4/GTBas3=-271.1835772\HF/GT
 LargeXP=-270.114777\MP2/GTLargeXP=-271.4699204\HF/GFHFB1=-270.1361236\
 HF/GFHFB2=-270.1405611\G4=-271.5852606\FreqCoord=2.0499225223,1.402098
 9675,-1.4473058439,-0.1004313747,-0.0772408229,-0.1445553036,0.8228652
 018,-2.6544510972,0.7947010294,-1.1868636848,1.5156687913,2.0448075034
 ,-2.2044415947,-0.4011397702,-2.083068461,-3.0536481716,-2.3831068921,
 -2.8053702035,3.5449904528,1.8292900356,-0.0825817781,1.3739630313,3.1
 989213427,-2.2226826054,2.885276284,0.3095067675,-2.9922787422,-0.7149
 27569,-3.7162039585,1.6758335921,1.5455263922,-3.7966963507,-0.7677839
 924,2.3354712069,-2.4188528536,2.1862382648,0.300594395,1.941957887,3.
 4181081252,-2.6991561962,0.5059850108,3.0307373373,-1.9516486781,3.316
 1800515,1.3665756699,-2.947494107,1.4280828911,-2.8310110099\PG=C01 [X
 (C5H10O1)]\NImag=0\\0.50076122,-0.04941526,0.53690743,0.03940377,0.032
 03175,0.54372798,-0.12509632,-0.02844205,0.01717863,0.45318459,-0.0313
 9507,-0.09507297,0.01932566,-0.01553547,0.49665519,0.03438654,0.025069
 91,-0.08616330,0.02394963,-0.01672825,0.45051958,0.00822715,-0.0233515
 6,0.00962405,-0.08704690,0.02819506,-0.01084360,0.56541664,0.00228134,
 -0.02175059,0.01068181,0.02729147,-0.15709210,0.02790598,0.03250662,0.
 48610518,-0.00277749,0.01591078,-0.00679005,-0.01081720,0.02874416,-0.
 08728437,-0.01287480,0.03311737,0.56520968,-0.01495792,0.01296387,0.02
 751230,-0.08117546,0.01681507,0.01227155,-0.00537610,0.01062757,0.0095
 6361,0.55123651,-0.00567334,0.00828593,0.01170498,0.02336022,-0.098587
 36,-0.03171731,0.01345636,-0.02331506,-0.02375586,0.02893016,0.5312638
 4,0.01242837,-0.00787498,-0.01818103,0.02919037,-0.03475680,-0.1264756
 7,-0.00209360,0.00259687,0.00840032,0.03307754,-0.05417018,0.49878302,
 -0.03056522,-0.01395389,-0.01112350,-0.12415272,0.01256644,-0.04045788
 ,-0.01389467,0.00727400,-0.01354492,0.01564853,-0.00538070,0.00311289,
 0.43037829,-0.01952442,-0.00710888,-0.00957008,0.01587420,-0.07988532,
 0.01469954,0.02598869,0.00342884,0.02398092,-0.01227337,-0.00771625,-0
 .01962334,0.14604443,0.91324330,0.00712826,-0.00368788,0.01676172,-0.0
 4058535,0.01161999,-0.11890604,-0.01415923,0.00663731,-0.01284899,-0.0
 1471724,-0.01393415,-0.02885170,0.18858718,0.11281143,0.39276200,0.000
 86106,0.00069126,-0.00195341,-0.00192064,-0.03419958,-0.02290984,0.000
 54257,-0.00232829,0.00272483,-0.00829518,0.00047914,-0.00213427,-0.180
 70840,-0.21877616,-0.10002251,0.16682070,0.00229251,0.00218783,-0.0038
 9969,-0.02104235,-0.01122397,-0.01835756,0.00159991,-0.00245053,0.0014
 7995,-0.00342125,0.00240547,0.00260925,-0.22350598,-0.63120153,-0.1886
 4345,0.25883524,0.69047331,-0.00289374,0.00015921,-0.00787249,-0.02333
 958,-0.03053495,0.00338689,0.00259510,-0.00215246,0.00016223,-0.001110
 86,0.00067561,0.00106605,-0.09987249,-0.18427426,-0.15159064,0.1260175
 8,0.21804366,0.13135977,-0.17923066,-0.03657837,-0.12680106,-0.0218376
 1,-0.00497900,-0.01515500,0.00064344,0.00108511,-0.00059623,0.00127982
 ,0.00014370,-0.00182569,-0.00124585,-0.00305173,0.00533341,-0.00067684
 ,-0.00084127,-0.00206771,0.19694187,-0.03652338,-0.05503166,-0.0365466
 0,-0.01552333,-0.00485550,-0.01028755,-0.00030614,0.00079487,-0.001197
 56,0.00156178,0.00031238,-0.00034776,0.00032252,-0.00183041,0.00395737
 ,-0.00083221,-0.00040773,-0.00141029,0.04321486,0.05792585,-0.12750174
 ,-0.03617909,-0.16387793,0.01365053,0.00372746,0.00847393,0.00010700,-
 0.00062089,0.00055856,0.00037138,0.00044071,0.00172047,0.00129500,0.00
 099656,-0.00294608,0.00041349,0.00088309,0.00179135,0.13713300,0.03768
 583,0.17692729,-0.07728175,0.07700630,-0.03179800,0.00952614,-0.020643
 20,0.00858279,-0.00410218,-0.00191795,0.00172664,0.00108234,-0.0005783
 0,-0.00063812,0.00117257,-0.00225234,0.00014543,-0.00018378,0.00098044
 ,0.00026006,-0.00783174,0.02059201,-0.00730123,0.08243900,0.07623937,-
 0.24067867,0.08290646,0.00499298,-0.01514656,0.00468328,-0.00407122,-0
 .00054203,0.00141827,0.00074369,0.00049877,-0.00079011,0.00253995,-0.0
 0136922,0.00152382,-0.00061274,0.00074022,-0.00034108,-0.00223639,0.00
 618096,-0.00292437,-0.08223701,0.26327934,-0.03191531,0.08252511,-0.08
 247512,-0.00517888,0.01150086,-0.00646108,0.00293475,0.00067348,-0.001
 11709,-0.00114146,0.00082834,0.00056955,-0.00097506,-0.00076743,-0.000
 20783,0.00023791,0.00011244,0.00018554,-0.00687322,0.01939885,-0.00798
 567,0.03406717,-0.09313375,0.08651282,-0.08767486,0.05540690,0.0762949
 5,-0.01071056,0.01321722,0.01647423,0.00070585,0.00117509,-0.00069828,
 -0.00386662,-0.00354214,0.00148621,0.00088744,0.00206601,0.00219021,-0
 .00005127,-0.00098631,-0.00066095,0.01005430,-0.01311751,-0.01720882,-
 0.00477427,0.00550739,0.00805983,0.09514023,0.05648029,-0.12438168,-0.
 10615890,-0.00600935,0.00862946,0.01298108,-0.00014370,0.00146764,0.00
 047288,-0.00269569,-0.00168254,0.00146102,0.00027220,0.00057354,0.0000
 7618,0.00030782,0.00019459,0.00022881,0.00254281,-0.00379847,-0.003409
 63,0.00967933,-0.01415565,-0.02136346,-0.05964921,0.13230634,0.0763262
 5,-0.10508259,-0.19268763,0.00470117,-0.00702513,-0.00974391,-0.000329
 19,-0.00117283,0.00015740,0.00249572,0.00241357,-0.00066107,-0.0009852
 7,-0.00046962,-0.00060168,0.00046434,0.00074113,0.00047861,0.00914761,
 -0.01166288,-0.01539940,-0.00552502,0.00681035,0.01005185,-0.08690971,
 0.11511039,0.20781607,-0.00036566,0.00159969,-0.00082569,0.00871260,0.
 00557560,-0.00444380,-0.19771774,-0.10132770,0.08629220,0.00056587,0.0
 0011048,-0.00039599,0.00037143,-0.00046695,-0.00062163,-0.00033215,0.0
 0072295,-0.00046716,0.00012248,0.00029005,0.00005790,0.00056052,0.0004
 5406,-0.00031003,-0.00004396,0.00006246,-0.00019401,0.21298852,0.00360
 985,-0.00490679,0.00163858,-0.02217118,-0.01523362,0.01216479,-0.09954
 089,-0.11405670,0.05686364,-0.00162690,0.00115490,0.00074227,-0.001514
 83,-0.00054662,-0.00109307,0.00054902,0.00123238,0.00007192,0.00022485
 ,0.00020948,-0.00026088,-0.00145810,-0.00094375,0.00108012,0.00006858,
 0.00016644,0.00013363,0.10923332,0.12578535,-0.00167845,0.00183035,-0.
 00069943,0.00785762,0.00438219,-0.00613595,0.08448636,0.05724784,-0.09
 390391,-0.00028885,-0.00071141,0.00033283,0.00179256,0.00188471,0.0007
 5824,-0.00057842,-0.00170064,0.00042488,0.00019342,0.00010251,0.000134
 24,0.00061823,0.00073107,0.00012708,-0.00032121,-0.00015873,0.00035663
 ,-0.09358340,-0.06446245,0.09854944,0.00027792,-0.00068121,-0.00029911
 ,-0.00529030,0.00476860,0.00806870,-0.07802323,0.05047974,0.07015324,-
 0.00077000,0.00176462,-0.00158922,0.00086394,0.00186108,0.00164666,0.0
 0028784,-0.00163084,-0.00055585,0.00001475,-0.00006013,-0.00008183,-0.
 00008424,-0.00000205,-0.00010438,0.00036301,-0.00001912,-0.00001121,-0
 .00848983,0.01371633,0.01857646,0.08103355,0.00063279,0.00110001,-0.00
 168350,0.00994846,-0.01632584,-0.02245659,0.05030490,-0.12497318,-0.10
 917379,0.00174419,-0.00484504,0.00368800,-0.00127488,-0.00064123,-0.00
 145552,0.00012463,0.00133375,0.00050812,-0.00004596,-0.00007492,0.0000
 8642,0.00001826,0.00045753,0.00027616,-0.00061298,-0.00016047,0.000861
 49,-0.00551595,0.00937494,0.01293424,-0.05704578,0.13782213,-0.0003914
 8,0.00015656,0.00066829,-0.00347995,0.00619153,0.00896655,0.07191011,-
 0.11104025,-0.20272870,-0.00080071,0.00164346,-0.00035744,-0.00063991,
 -0.00055599,0.00035612,-0.00049700,0.00081608,-0.00030036,0.00008283,-
 0.00001788,-0.00008446,-0.00012320,-0.00008798,0.00019890,-0.00009637,
 -0.00011678,0.00021055,0.00355397,-0.00732161,-0.01045454,-0.07775179,
 0.11981887,0.21853487,0.00045638,-0.00049402,0.00064244,-0.00884041,-0
 .00152160,-0.00657792,-0.18674457,-0.02392861,-0.12788590,0.00010445,-
 0.00092977,-0.00036536,0.00028258,0.00144110,-0.00006094,0.00031546,0.
 00049619,-0.00009062,0.00054478,0.00015168,-0.00013446,0.00005644,0.00
 013963,0.00015873,0.00006675,0.00006127,0.00004654,-0.01676531,-0.0022
 9629,-0.01684862,0.00919276,0.00095140,0.00839891,0.20142246,0.0007723
 2,0.00160721,-0.00023733,0.02306619,0.00219951,0.02121496,-0.02468502,
 -0.05052137,-0.02274131,-0.00010623,0.00165243,0.00076423,0.00035802,-
 0.00771670,0.00059231,-0.00075965,0.00205763,-0.00075805,-0.00053629,-
 0.00024240,-0.00012625,0.00000561,0.00018744,-0.00036262,-0.00015784,-
 0.00008920,0.00002118,-0.01048098,-0.00233269,-0.01175650,-0.01358921,
 -0.00237257,-0.01029827,0.02513465,0.05559734,-0.00044256,-0.00093309,
 0.00012793,-0.00738358,-0.00153663,-0.00845706,-0.12785658,-0.02203496
 ,-0.16521122,0.00065464,-0.00047850,0.00042682,-0.00002988,0.00159645,
 0.00021950,-0.00005069,0.00040758,0.00033609,0.00040811,0.00060720,0.0
 0010296,0.00026024,0.00000153,0.00024484,-0.00005916,0.00002434,-0.000
 11969,0.01081568,0.00121577,0.01022057,-0.01851660,-0.00224898,-0.0156
 9934,0.14265946,0.02293140,0.17753453,0.00161319,0.00041951,0.00037720
 ,0.00790869,0.00329624,0.01077194,0.00046737,-0.00051929,0.00012696,-0
 .18561366,-0.03897155,-0.12696421,-0.00228047,0.00082055,0.00135722,0.
 00162868,0.00075868,0.00018413,0.00015907,0.00001731,-0.00058091,-0.00
 007858,-0.00008170,-0.00000435,0.00022602,0.00002884,-0.00013464,-0.00
 008234,0.00008045,-0.00007910,0.00014908,-0.00023893,0.00007282,0.0001
 4363,-0.00018825,-0.00009307,0.20030811,-0.00033339,0.00036619,0.00160
 610,-0.01245546,-0.00528729,-0.01562158,-0.00122070,0.00088438,-0.0002
 1801,-0.03931992,-0.05476866,-0.03310035,0.00417157,-0.00210052,-0.000
 01685,-0.00161510,-0.00043947,-0.00073117,0.00047570,0.00058424,-0.000
 01157,0.00014197,0.00003606,0.00007082,-0.00004181,-0.00018893,0.00021
 953,-0.00002046,-0.00008187,-0.00005257,0.00013203,0.00023110,0.000274
 77,0.00061504,-0.00026847,0.00013605,0.04094545,0.05800799,-0.00183446
 ,0.00020709,0.00133276,-0.01718128,-0.00524033,-0.02082805,-0.00050765
 ,0.00114196,0.00065312,-0.12627362,-0.03318586,-0.15773883,0.00517820,
 -0.00327871,-0.00164877,-0.00221815,-0.00083593,-0.00047902,0.00120798
 ,0.00042150,0.00009912,0.00004024,0.00002725,-0.00010119,0.00017176,0.
 00003434,0.00058860,0.00008969,-0.00005346,0.00001756,0.00019386,0.000
 23350,0.00008504,0.00040644,-0.00051559,0.00053536,0.13698937,0.039793
 13,0.17344114,-0.00026932,0.00216248,0.00206002,-0.00790929,-0.0053028
 3,0.00445583,0.00006063,-0.00104552,-0.00025161,-0.18712308,-0.0954690
 7,0.08884060,-0.00050887,-0.00030846,-0.00086009,0.00049188,0.00067025
 ,0.00041039,0.00059680,0.00018495,-0.00016752,0.00003330,-0.00019454,0
 .00003557,-0.00025559,-0.00055470,0.00066282,0.00022605,0.00080148,-0.
 00002813,0.00031479,0.00012649,-0.00022326,-0.00011708,0.00001184,0.00
 006275,-0.01637521,-0.01181503,0.01162238,0.20120194,0.00124233,-0.002
 02535,-0.00294404,0.01361313,0.00858780,-0.00785130,0.00048184,0.00152
 646,-0.00019391,-0.09646170,-0.11352564,0.06206913,0.00021353,0.000661
 08,0.00029468,0.00021708,0.00013918,0.00026981,0.00001624,-0.00019716,
 0.00004612,-0.00000699,0.00017893,-0.00030223,0.00084547,0.00089159,-0
 .00068151,-0.00013957,-0.00019889,0.00001055,-0.00017056,0.00017171,0.
 00007537,0.00002984,-0.00009412,0.00006165,-0.00333541,-0.00359692,0.0
 0291721,0.10455183,0.12055828,0.00105625,-0.00382969,-0.00391669,0.016
 24978,0.01243757,-0.01249257,-0.00062534,0.00125312,0.00074030,0.08880
 785,0.06092223,-0.10408885,0.00235981,0.00202427,0.00070524,-0.0007413
 6,-0.00102113,-0.00000711,0.00014092,-0.00004824,0.00022603,-0.0002869
 6,-0.00017495,0.00018631,0.00156535,0.00079798,-0.00043266,-0.00010181
 ,-0.00065499,0.00039679,-0.00034016,0.00006301,-0.00000716,-0.00005137
 ,-0.00015104,0.00006968,-0.01552471,-0.01119470,0.01082135,-0.10031665
 ,-0.06546428,0.11348430,0.00044085,0.00074781,-0.00109316,-0.00562679,
 0.00944504,-0.00416118,-0.00072480,0.00062032,0.00252885,-0.08163379,0
 .08184053,-0.03170844,-0.00024033,-0.00100228,-0.00074915,0.00021572,0
 .00021099,0.00017987,-0.00009439,0.00008470,-0.00000939,-0.00010800,-0
 .00028426,0.00066263,0.00015018,-0.00030008,0.00002934,0.00018649,0.00
 027960,-0.00013545,0.00020620,0.00091871,-0.00029919,0.00026452,-0.000
 35813,0.00015728,-0.00845353,0.02113709,-0.00757809,0.00969117,-0.0210
 9494,0.00781933,0.08531445,-0.00075304,0.00050607,0.00086399,0.0050560
 9,-0.01617680,0.00564410,0.00115197,-0.00081950,-0.00437791,0.08215967
 ,-0.24117287,0.07658198,0.00168292,-0.00138451,0.00253610,-0.00036083,
 0.00075922,-0.00062537,0.00002766,0.00003382,-0.00008764,0.00029711,0.
 00064527,-0.00035956,-0.00019920,0.00018932,-0.00018596,-0.00008388,0.
 00045176,-0.00001043,0.00074849,-0.00103598,0.00046037,0.00001982,0.00
 020287,0.00012813,-0.00283050,0.00617257,-0.00223721,0.00619944,-0.013
 11396,0.00502736,-0.09211457,0.26409096,-0.00058338,-0.00059548,0.0012
 0991,0.00890374,-0.02088314,0.00974861,0.00136545,-0.00213713,-0.00421
 629,-0.03157393,0.07737605,-0.07764656,0.00012541,-0.00210150,0.001214
 92,0.00027260,0.00092558,-0.00023166,0.00004403,0.00013238,-0.00008286
 ,0.00018603,0.00028101,-0.00017183,-0.00029004,0.00002088,0.00005928,-
 0.00014104,-0.00001625,-0.00006513,0.00057437,-0.00150135,0.00057219,0
 .00024338,0.00001890,0.00001961,-0.00648221,0.01883618,-0.00734851,-0.
 00650577,0.01177205,-0.00545464,0.03409768,-0.08248218,0.08281223,0.00
 280394,0.00191856,0.00080057,0.00027498,0.01969749,-0.01441201,-0.0024
 3345,-0.00227390,-0.00366991,-0.00110571,0.00045966,-0.00042110,-0.096
 00826,0.06355965,-0.03461223,0.02100434,-0.01513917,0.00141181,0.00055
 978,-0.00005716,-0.00004240,-0.00042575,-0.00089716,0.00034609,-0.0002
 1666,-0.00006318,0.00021526,0.00006302,0.00004471,0.00001698,-0.000046
 22,-0.00003537,0.00028422,-0.00038284,0.00151295,-0.00058604,0.0002799
 5,-0.00079696,-0.00030667,-0.00005812,-0.00000213,-0.00001094,0.000412
 05,-0.00100115,-0.00023631,0.07527894,0.00006711,-0.00000409,0.0002808
 0,-0.00202356,-0.00118463,-0.00134351,-0.00036613,0.00131371,-0.000329
 61,0.00035907,0.00003968,0.00015076,0.07018470,-0.17640556,0.06878174,
 -0.00171962,-0.05580037,0.00087049,0.00053809,0.00039666,-0.00024587,0
 .00037286,0.00063135,-0.00017714,0.00002034,0.00003803,-0.00003074,-0.
 00001313,-0.00007433,-0.00027072,-0.00027199,-0.00006196,0.00000174,0.
 00012967,0.00013308,0.00012207,-0.00020139,0.00044961,0.00057110,-0.00
 001864,0.00003702,0.00001349,-0.00013052,0.00065177,0.00035401,-0.0669
 2686,0.22984002,-0.00071085,0.00029203,-0.00116492,-0.01371562,0.01877
 582,0.00185242,-0.00373282,-0.00209720,-0.00178098,0.00115208,0.001948
 32,0.00270209,-0.03482215,0.06264705,-0.09517600,0.00097490,-0.0115603
 8,0.02128987,-0.00037239,-0.00078685,0.00034244,-0.00021431,-0.0009308
 0,0.00044290,0.00000199,-0.00000041,-0.00007297,0.00027511,-0.00004800
 ,-0.00005930,0.00003685,0.00004992,0.00003949,-0.00054072,0.00140398,-
 0.00035057,-0.00001645,0.00001021,0.00057033,0.00020267,-0.00007930,-0
 .00023033,0.00025906,-0.00087577,-0.00041928,0.05122266,-0.06874861,0.
 07201482\\0.00002833,0.00000005,0.00003275,0.00000226,-0.00002368,-0.0
 0008009,0.00003173,0.00002288,0.00000409,0.00000264,0.00001967,0.00003
 432,-0.00008967,-0.00003660,-0.00002448,0.00004056,0.00003959,0.000025
 82,-0.00001556,0.00001306,-0.00000546,-0.00000431,-0.00000154,-0.00000
 860,-0.00001496,-0.00000377,0.00000320,0.00000655,-0.00000562,0.000015
 20,0.00000399,0.00000284,0.00001396,0.00000990,0.00000370,0.00000692,-
 0.00001234,0.00000877,-0.00000618,0.00000221,-0.00000038,-0.00000768,-
 0.00000917,0.00000196,-0.00001239,0.00001785,-0.00004093,0.00000861\\\
 @
 Job cpu time:       0 days  4 hours 39 minutes 26.3 seconds.
 File lengths (MBytes):  RWF=   5601 Int=      0 D2E=      0 Chk=     42 Scr=      1
 Normal termination of Gaussian 09 at Tue Aug 30 12:02:50 2022.
