 Entering Gaussian System, Link 0=g09
 Input=G4.Frag_1094.gjf
 Output=G4.Frag_1094.log
 Initial command:
 /public/home/users/caep010/software/Gaussian09/g09/l1.exe "/public/home/users/caep010/.cache/gau_scr/Gau-97346.inp" -scrdir="/public/home/users/caep010/.cache/gau_scr/"
 Entering Link 1 = /public/home/users/caep010/software/Gaussian09/g09/l1.exe PID=     97347.
  
 Copyright (c) 1988,1990,1992,1993,1995,1998,2003,2009,2015,
            Gaussian, Inc.  All Rights Reserved.
  
 This is part of the Gaussian(R) 09 program.  It is based on
 the Gaussian(R) 03 system (copyright 2003, Gaussian, Inc.),
 the Gaussian(R) 98 system (copyright 1998, Gaussian, Inc.),
 the Gaussian(R) 94 system (copyright 1995, Gaussian, Inc.),
 the Gaussian 92(TM) system (copyright 1992, Gaussian, Inc.),
 the Gaussian 90(TM) system (copyright 1990, Gaussian, Inc.),
 the Gaussian 88(TM) system (copyright 1988, Gaussian, Inc.),
 the Gaussian 86(TM) system (copyright 1986, Carnegie Mellon
 University), and the Gaussian 82(TM) system (copyright 1983,
 Carnegie Mellon University). Gaussian is a federally registered
 trademark of Gaussian, Inc.
  
 This software contains proprietary and confidential information,
 including trade secrets, belonging to Gaussian, Inc.
  
 This software is provided under written license and may be
 used, copied, transmitted, or stored only in accord with that
 written license.
  
 The following legend is applicable only to US Government
 contracts under FAR:
  
                    RESTRICTED RIGHTS LEGEND
  
 Use, reproduction and disclosure by the US Government is
 subject to restrictions as set forth in subparagraphs (a)
 and (c) of the Commercial Computer Software - Restricted
 Rights clause in FAR 52.227-19.
  
 Gaussian, Inc.
 340 Quinnipiac St., Bldg. 40, Wallingford CT 06492
  
  
 ---------------------------------------------------------------
 Warning -- This program may not be used in any manner that
 competes with the business of Gaussian, Inc. or will provide
 assistance to any competitor of Gaussian, Inc.  The licensee
 of this program is prohibited from giving any competitor of
 Gaussian, Inc. access to this program.  By using this program,
 the user acknowledges that Gaussian, Inc. is engaged in the
 business of creating and licensing software in the field of
 computational chemistry and represents and warrants to the
 licensee that it is not a competitor of Gaussian, Inc. and that
 it will not use this program in any manner prohibited above.
 ---------------------------------------------------------------
  

 Cite this work as:
 Gaussian 09, Revision E.01,
 M. J. Frisch, G. W. Trucks, H. B. Schlegel, G. E. Scuseria, 
 M. A. Robb, J. R. Cheeseman, G. Scalmani, V. Barone, B. Mennucci, 
 G. A. Petersson, H. Nakatsuji, M. Caricato, X. Li, H. P. Hratchian, 
 A. F. Izmaylov, J. Bloino, G. Zheng, J. L. Sonnenberg, M. Hada, 
 M. Ehara, K. Toyota, R. Fukuda, J. Hasegawa, M. Ishida, T. Nakajima, 
 Y. Honda, O. Kitao, H. Nakai, T. Vreven, J. A. Montgomery, Jr., 
 J. E. Peralta, F. Ogliaro, M. Bearpark, J. J. Heyd, E. Brothers, 
 K. N. Kudin, V. N. Staroverov, T. Keith, R. Kobayashi, J. Normand, 
 K. Raghavachari, A. Rendell, J. C. Burant, S. S. Iyengar, J. Tomasi, 
 M. Cossi, N. Rega, J. M. Millam, M. Klene, J. E. Knox, J. B. Cross, 
 V. Bakken, C. Adamo, J. Jaramillo, R. Gomperts, R. E. Stratmann, 
 O. Yazyev, A. J. Austin, R. Cammi, C. Pomelli, J. W. Ochterski, 
 R. L. Martin, K. Morokuma, V. G. Zakrzewski, G. A. Voth, 
 P. Salvador, J. J. Dannenberg, S. Dapprich, A. D. Daniels, 
 O. Farkas, J. B. Foresman, J. V. Ortiz, J. Cioslowski, 
 and D. J. Fox, Gaussian, Inc., Wallingford CT, 2013.
 
 ******************************************
 Gaussian 09:  ES64L-G09RevE.01 30-Nov-2015
                26-Aug-2022 
 ******************************************
 %nproc=32
 Will use up to   32 processors via shared memory.
 %mem=180GB
 %chk=G4.Frag_1094.chk
 -----
 #P G4
 -----
 1/14=-1,18=20,19=15,26=3,38=1/1,3;
 2/9=110,12=2,17=6,18=5,40=1/2;
 3/5=35,7=104,11=2,16=1,25=1,30=1,71=1,74=-5/1,2,3;
 4//1;
 5/5=2,38=5/2;
 6/7=2,8=2,9=2,10=2,28=1/1;
 7//1,2,3,16;
 1/14=-1,18=20,19=15,26=3/3(2);
 2/9=110/2;
 99//99;
 2/9=110/2;
 3/5=35,7=104,11=2,16=1,25=1,30=1,71=1,74=-5/1,2,3;
 4/5=5,16=3,69=1/1;
 5/5=2,38=5/2;
 7//1,2,3,16;
 1/14=-1,18=20,19=15,26=3/3(-5);
 2/9=110/2;
 6/7=2,8=2,9=2,10=2,19=2,28=1/1;
 99/9=1/99;
 Leave Link    1 at Fri Aug 26 09:19:47 2022, MaxMem= 24159191040 cpu:         2.7
 (Enter /public/home/users/caep010/software/Gaussian09/g09/l101.exe)
 ---------
 Frag_1094
 ---------
 Symbolic Z-matrix:
 Charge =  0 Multiplicity = 1
 C                    -1.5096   -0.0776   -0.1004 
 N                    -0.5911   -0.0879   -1.249 
 N                     0.7283    0.3367   -0.9319 
 C                     1.3683   -0.4425    0.146 
 O                     0.7414    1.6814   -0.6871 
 H                    -1.2367   -0.8553    0.6437 
 H                    -1.5515    0.9215    0.3776 
 H                    -2.5335   -0.3097   -0.4608 
 H                    -0.5378   -1.0632   -1.6253 
 H                     0.9343   -0.2072    1.1413 
 H                     2.4514   -0.2011    0.1753 
 H                     1.2658   -1.5303   -0.0537 
 H                     0.4706    1.835     0.2555 
 
 NAtoms=     13 NQM=       13 NQMF=       0 NMMI=      0 NMMIF=      0
                NMic=       0 NMicF=      0.
                    Isotopes and Nuclear Properties:
 (Nuclear quadrupole moments (NQMom) in fm**2, nuclear magnetic moments (NMagM)
  in nuclear magnetons)

  Atom         1           2           3           4           5           6           7           8           9          10
 IAtWgt=          12          14          14          12          16           1           1           1           1           1
 AtmWgt=  12.0000000  14.0030740  14.0030740  12.0000000  15.9949146   1.0078250   1.0078250   1.0078250   1.0078250   1.0078250
 NucSpn=           0           2           2           0           0           1           1           1           1           1
 AtZEff=   0.0000000   0.0000000   0.0000000   0.0000000   0.0000000   0.0000000   0.0000000   0.0000000   0.0000000   0.0000000
 NQMom=    0.0000000   2.0440000   2.0440000   0.0000000   0.0000000   0.0000000   0.0000000   0.0000000   0.0000000   0.0000000
 NMagM=    0.0000000   0.4037610   0.4037610   0.0000000   0.0000000   2.7928460   2.7928460   2.7928460   2.7928460   2.7928460
 AtZNuc=   6.0000000   7.0000000   7.0000000   6.0000000   8.0000000   1.0000000   1.0000000   1.0000000   1.0000000   1.0000000

  Atom        11          12          13
 IAtWgt=           1           1           1
 AtmWgt=   1.0078250   1.0078250   1.0078250
 NucSpn=           1           1           1
 AtZEff=   0.0000000   0.0000000   0.0000000
 NQMom=    0.0000000   0.0000000   0.0000000
 NMagM=    2.7928460   2.7928460   2.7928460
 AtZNuc=   1.0000000   1.0000000   1.0000000
 Leave Link  101 at Fri Aug 26 09:19:47 2022, MaxMem= 24159191040 cpu:        10.4
 (Enter /public/home/users/caep010/software/Gaussian09/g09/l103.exe)

 GradGradGradGradGradGradGradGradGradGradGradGradGradGradGradGradGradGrad
 Berny optimization.
 Initialization pass.
                           ----------------------------
                           !    Initial Parameters    !
                           ! (Angstroms and Degrees)  !
 --------------------------                            --------------------------
 ! Name  Definition              Value          Derivative Info.                !
 --------------------------------------------------------------------------------
 ! R1    R(1,2)                  1.4707         estimate D2E/DX2                !
 ! R2    R(1,6)                  1.1104         estimate D2E/DX2                !
 ! R3    R(1,7)                  1.1084         estimate D2E/DX2                !
 ! R4    R(1,8)                  1.11           estimate D2E/DX2                !
 ! R5    R(2,3)                  1.4218         estimate D2E/DX2                !
 ! R6    R(2,9)                  1.0467         estimate D2E/DX2                !
 ! R7    R(3,4)                  1.476          estimate D2E/DX2                !
 ! R8    R(3,5)                  1.3669         estimate D2E/DX2                !
 ! R9    R(4,10)                 1.111          estimate D2E/DX2                !
 ! R10   R(4,11)                 1.1101         estimate D2E/DX2                !
 ! R11   R(4,12)                 1.1107         estimate D2E/DX2                !
 ! R12   R(5,13)                 0.9927         estimate D2E/DX2                !
 ! A1    A(2,1,6)              111.4049         estimate D2E/DX2                !
 ! A2    A(2,1,7)              111.5144         estimate D2E/DX2                !
 ! A3    A(2,1,8)              108.7259         estimate D2E/DX2                !
 ! A4    A(6,1,7)              110.5871         estimate D2E/DX2                !
 ! A5    A(6,1,8)              107.3273         estimate D2E/DX2                !
 ! A6    A(7,1,8)              107.076          estimate D2E/DX2                !
 ! A7    A(1,2,3)              113.7821         estimate D2E/DX2                !
 ! A8    A(1,2,9)              108.6077         estimate D2E/DX2                !
 ! A9    A(3,2,9)              108.1297         estimate D2E/DX2                !
 ! A10   A(2,3,4)              114.0527         estimate D2E/DX2                !
 ! A11   A(2,3,5)              110.0365         estimate D2E/DX2                !
 ! A12   A(4,3,5)              112.6066         estimate D2E/DX2                !
 ! A13   A(3,4,10)             111.9029         estimate D2E/DX2                !
 ! A14   A(3,4,11)             109.1197         estimate D2E/DX2                !
 ! A15   A(3,4,12)             110.2247         estimate D2E/DX2                !
 ! A16   A(10,4,11)            108.1463         estimate D2E/DX2                !
 ! A17   A(10,4,12)            109.4169         estimate D2E/DX2                !
 ! A18   A(11,4,12)            107.9246         estimate D2E/DX2                !
 ! A19   A(3,5,13)             108.6429         estimate D2E/DX2                !
 ! D1    D(6,1,2,3)            -68.2625         estimate D2E/DX2                !
 ! D2    D(6,1,2,9)             52.2131         estimate D2E/DX2                !
 ! D3    D(7,1,2,3)             55.8273         estimate D2E/DX2                !
 ! D4    D(7,1,2,9)            176.3029         estimate D2E/DX2                !
 ! D5    D(8,1,2,3)            173.6607         estimate D2E/DX2                !
 ! D6    D(8,1,2,9)            -65.8637         estimate D2E/DX2                !
 ! D7    D(1,2,3,4)             56.5836         estimate D2E/DX2                !
 ! D8    D(1,2,3,5)            -71.0671         estimate D2E/DX2                !
 ! D9    D(9,2,3,4)            -64.1602         estimate D2E/DX2                !
 ! D10   D(9,2,3,5)            168.189          estimate D2E/DX2                !
 ! D11   D(2,3,4,10)           -72.7327         estimate D2E/DX2                !
 ! D12   D(2,3,4,11)           167.6206         estimate D2E/DX2                !
 ! D13   D(2,3,4,12)            49.2707         estimate D2E/DX2                !
 ! D14   D(5,3,4,10)            53.5859         estimate D2E/DX2                !
 ! D15   D(5,3,4,11)           -66.0609         estimate D2E/DX2                !
 ! D16   D(5,3,4,12)           175.5893         estimate D2E/DX2                !
 ! D17   D(2,3,5,13)            83.2461         estimate D2E/DX2                !
 ! D18   D(4,3,5,13)           -45.2015         estimate D2E/DX2                !
 --------------------------------------------------------------------------------
 Trust Radius=3.00D-01 FncErr=1.00D-07 GrdErr=1.00D-06
 Number of steps in this run=     59 maximum allowed number of steps=    100.
 GradGradGradGradGradGradGradGradGradGradGradGradGradGradGradGradGradGrad

 Leave Link  103 at Fri Aug 26 09:19:48 2022, MaxMem= 24159191040 cpu:         0.4
 (Enter /public/home/users/caep010/software/Gaussian09/g09/l202.exe)
                          Input orientation:                          
 ---------------------------------------------------------------------
 Center     Atomic      Atomic             Coordinates (Angstroms)
 Number     Number       Type             X           Y           Z
 ---------------------------------------------------------------------
      1          6           0       -1.509600   -0.077600   -0.100400
      2          7           0       -0.591100   -0.087900   -1.249000
      3          7           0        0.728300    0.336700   -0.931900
      4          6           0        1.368300   -0.442500    0.146000
      5          8           0        0.741400    1.681400   -0.687100
      6          1           0       -1.236700   -0.855300    0.643700
      7          1           0       -1.551500    0.921500    0.377600
      8          1           0       -2.533500   -0.309700   -0.460800
      9          1           0       -0.537800   -1.063200   -1.625300
     10          1           0        0.934300   -0.207200    1.141300
     11          1           0        2.451400   -0.201100    0.175300
     12          1           0        1.265800   -1.530300   -0.053700
     13          1           0        0.470600    1.835000    0.255500
 ---------------------------------------------------------------------
                    Distance matrix (angstroms):
                    1          2          3          4          5
     1  C    0.000000
     2  N    1.470724   0.000000
     3  N    2.423063   1.421849   0.000000
     4  C    2.911387   2.431258   1.476015   0.000000
     5  O    2.916385   2.285106   1.366864   2.366012   0.000000
     6  H    1.110395   2.141965   2.786504   2.684052   3.481200
     7  H    1.108350   2.141748   2.693375   3.231001   2.639777
     8  H    1.110013   2.107931   3.358438   3.950935   3.839357
     9  H    2.059399   1.046734   2.010854   2.675068   3.170079
    10  H    2.744315   2.838065   2.153235   1.111010   2.635729
    11  H    3.972503   3.361287   2.117592   1.110062   2.685450
    12  H    3.132948   2.637677   2.132095   1.110718   3.315299
    13  H    2.775949   2.662381   1.929049   2.450482   0.992683
                    6          7          8          9         10
     6  H    0.000000
     7  H    1.823986   0.000000
     8  H    1.788656   1.784122   0.000000
     9  H    2.383284   2.996370   2.430358   0.000000
    10  H    2.319672   2.834855   3.821370   3.248675   0.000000
    11  H    3.774845   4.162255   5.026494   3.594537   1.798551
    12  H    2.684120   3.759591   4.011269   2.437433   1.813425
    13  H    3.209873   2.222224   3.759979   3.599145   2.273816
                   11         12         13
    11  H    0.000000
    12  H    1.795790   0.000000
    13  H    2.841778   3.471771   0.000000
 Stoichiometry    C2H8N2O
 Framework group  C1[X(C2H8N2O)]
 Deg. of freedom    33
 Full point group                 C1      NOp   1
 Largest Abelian subgroup         C1      NOp   1
 Largest concise Abelian subgroup C1      NOp   1
                         Standard orientation:                         
 ---------------------------------------------------------------------
 Center     Atomic      Atomic             Coordinates (Angstroms)
 Number     Number       Type             X           Y           Z
 ---------------------------------------------------------------------
      1          6           0        1.644608    0.051524    0.469725
      2          7           0        0.819842   -0.090844   -0.739623
      3          7           0       -0.578823   -0.082279   -0.484048
      4          6           0       -1.052788    1.120224    0.228668
      5          8           0       -0.948259   -1.241753    0.138409
      6          1           0        1.541843    1.064217    0.913424
      7          1           0        1.404691   -0.728664    1.219515
      8          1           0        2.710987   -0.080817    0.191421
      9          1           0        1.037418    0.701958   -1.387526
     10          1           0       -0.745397    1.117312    1.296304
     11          1           0       -2.161616    1.153433    0.188242
     12          1           0       -0.665130    2.036745   -0.264693
     13          1           0       -0.774779   -1.148781    1.111384
 ---------------------------------------------------------------------
 Rotational constants (GHZ):      7.0548694      4.3857729      3.5234706
 Leave Link  202 at Fri Aug 26 09:19:48 2022, MaxMem= 24159191040 cpu:         0.4
 (Enter /public/home/users/caep010/software/Gaussian09/g09/l301.exe)
 Standard basis: GTBas3 (6D, 7F)
 Ernie: Thresh=  0.10000D-02 Tol=  0.10000D-05 Strict=F.
 There are   195 symmetry adapted cartesian basis functions of A   symmetry.
 There are   180 symmetry adapted basis functions of A   symmetry.
   180 basis functions,   276 primitive gaussians,   195 cartesian basis functions
    21 alpha electrons       21 beta electrons
       nuclear repulsion energy       201.9070593679 Hartrees.
 IExCor=  402 DFT=T Ex+Corr=B3LYP ExCW=0 ScaHFX=  0.200000
 ScaDFX=  0.800000  0.720000  1.000000  0.810000 ScalE2=  1.000000  1.000000
 IRadAn=      0 IRanWt=     -1 IRanGd=            0 ICorTp=0 IEmpDi=  4
 NAtoms=   13 NActive=   13 NUniq=   13 SFac= 1.00D+00 NAtFMM=   60 NAOKFM=F Big=F
 Integral buffers will be    131072 words long.
 Raffenetti 2 integral format.
 Two-electron integral symmetry is turned on.
 Leave Link  301 at Fri Aug 26 09:19:48 2022, MaxMem= 24159191040 cpu:         2.1
 (Enter /public/home/users/caep010/software/Gaussian09/g09/l302.exe)
 NPDir=0 NMtPBC=     1 NCelOv=     1 NCel=       1 NClECP=     1 NCelD=      1
         NCelK=      1 NCelE2=     1 NClLst=     1 CellRange=     0.0.
 One-electron integrals computed using PRISM.
 NBasis=   180 RedAO= T EigKep=  3.67D-04  NBF=   180
 NBsUse=   180 1.00D-06 EigRej= -1.00D+00 NBFU=   180
 Precomputing XC quadrature grid using
 IXCGrd= 4 IRadAn=           0 IRanWt=          -1 IRanGd=           0 AccXCQ= 0.00D+00.
 Generated NRdTot=       0 NPtTot=           0 NUsed=           0 NTot=          32
 NSgBfM=   195   195   195   195   195 MxSgAt=    13 MxSgA2=    13.
 Leave Link  302 at Fri Aug 26 09:19:48 2022, MaxMem= 24159191040 cpu:        13.3
 (Enter /public/home/users/caep010/software/Gaussian09/g09/l303.exe)
 DipDrv:  MaxL=1.
 Leave Link  303 at Fri Aug 26 09:19:48 2022, MaxMem= 24159191040 cpu:         0.8
 (Enter /public/home/users/caep010/software/Gaussian09/g09/l401.exe)
 ExpMin= 1.61D-01 ExpMax= 5.48D+03 ExpMxC= 8.25D+02 IAcc=1 IRadAn=         1 AccDes= 0.00D+00
 Harris functional with IExCor=  402 and IRadAn=       1 diagonalized for initial guess.
 HarFok:  IExCor=  402 AccDes= 0.00D+00 IRadAn=         1 IDoV= 1 UseB2=F ITyADJ=14
 ICtDFT=  3500011 ScaDFX=  1.000000  1.000000  1.000000  1.000000
 FoFCou: FMM=F IPFlag=           0 FMFlag=      100000 FMFlg1=           0
         NFxFlg=           0 DoJE=T BraDBF=F KetDBF=T FulRan=T
         wScrn=  0.000000 ICntrl=     500 IOpCl=  0 I1Cent=   200000004 NGrid=           0
         NMat0=    1 NMatS0=      1 NMatT0=    0 NMatD0=    1 NMtDS0=    0 NMtDT0=    0
 Petite list used in FoFCou.
 Harris En= -265.672578172852    
 JPrj=0 DoOrth=F DoCkMO=F.
 Leave Link  401 at Fri Aug 26 09:19:49 2022, MaxMem= 24159191040 cpu:        15.3
 (Enter /public/home/users/caep010/software/Gaussian09/g09/l502.exe)
 Closed shell SCF:
 Using DIIS extrapolation, IDIIS=  1040.
 Integral symmetry usage will be decided dynamically.
 Keep R1 ints in memory in canonical form, NReq=136595160.
 IVT=      140295 IEndB=      140295 NGot= 24159191040 MDV= 24026360551
 LenX= 24026360551 LenY= 24026322085
 Requested convergence on RMS density matrix=1.00D-08 within 128 cycles.
 Requested convergence on MAX density matrix=1.00D-06.
 Requested convergence on             energy=1.00D-06.
 No special actions if energy rises.
 FoFCou: FMM=F IPFlag=           0 FMFlag=           0 FMFlg1=           0
         NFxFlg=           0 DoJE=F BraDBF=F KetDBF=F FulRan=T
         wScrn=  0.000000 ICntrl=     600 IOpCl=  0 I1Cent=           0 NGrid=           0
         NMat0=    1 NMatS0=  16290 NMatT0=    0 NMatD0=    1 NMtDS0=    0 NMtDT0=    0
 Symmetry not used in FoFCou.
 Integral accuracy reduced to 1.0D-05 until final iterations.

 Cycle   1  Pass 0  IDiag  1:
 E= -265.521109540110    
 DIIS: error= 2.09D-02 at cycle   1 NSaved=   1.
 NSaved= 1 IEnMin= 1 EnMin= -265.521109540110     IErMin= 1 ErrMin= 2.09D-02
 ErrMax= 2.09D-02  0.00D+00 EMaxC= 1.00D-01 BMatC= 1.53D-01 BMatP= 1.53D-01
 IDIUse=3 WtCom= 7.91D-01 WtEn= 2.09D-01
 Coeff-Com:  0.100D+01
 Coeff-En:   0.100D+01
 Coeff:      0.100D+01
 Gap=     0.239 Goal=   None    Shift=    0.000
 GapD=    0.239 DampG=1.000 DampE=0.500 DampFc=0.5000 IDamp=-1.
 Damping current iteration by 5.00D-01
 RMSDP=4.53D-03 MaxDP=1.25D-01              OVMax= 1.39D-01

 Cycle   2  Pass 0  IDiag  1:
 E= -265.583942243125     Delta-E=       -0.062832703015 Rises=F Damp=T
 DIIS: error= 7.84D-03 at cycle   2 NSaved=   2.
 NSaved= 2 IEnMin= 2 EnMin= -265.583942243125     IErMin= 2 ErrMin= 7.84D-03
 ErrMax= 7.84D-03  0.00D+00 EMaxC= 1.00D-01 BMatC= 1.09D-02 BMatP= 1.53D-01
 IDIUse=3 WtCom= 9.22D-01 WtEn= 7.84D-02
 Coeff-Com:  0.823D-01 0.918D+00
 Coeff-En:   0.117D+00 0.883D+00
 Coeff:      0.850D-01 0.915D+00
 Gap=     0.256 Goal=   None    Shift=    0.000
 RMSDP=7.87D-04 MaxDP=2.77D-02 DE=-6.28D-02 OVMax= 7.71D-02

 Cycle   3  Pass 0  IDiag  1:
 E= -265.659697997881     Delta-E=       -0.075755754756 Rises=F Damp=F
 DIIS: error= 3.28D-03 at cycle   3 NSaved=   3.
 NSaved= 3 IEnMin= 3 EnMin= -265.659697997881     IErMin= 3 ErrMin= 3.28D-03
 ErrMax= 3.28D-03  0.00D+00 EMaxC= 1.00D-01 BMatC= 4.17D-03 BMatP= 1.09D-02
 IDIUse=3 WtCom= 9.67D-01 WtEn= 3.28D-02
 Coeff-Com: -0.704D-02 0.357D+00 0.650D+00
 Coeff-En:   0.000D+00 0.000D+00 0.100D+01
 Coeff:     -0.681D-02 0.345D+00 0.662D+00
 Gap=     0.263 Goal=   None    Shift=    0.000
 RMSDP=4.09D-04 MaxDP=1.55D-02 DE=-7.58D-02 OVMax= 1.75D-02

 Cycle   4  Pass 0  IDiag  1:
 E= -265.661792105662     Delta-E=       -0.002094107781 Rises=F Damp=F
 DIIS: error= 1.64D-03 at cycle   4 NSaved=   4.
 NSaved= 4 IEnMin= 4 EnMin= -265.661792105662     IErMin= 4 ErrMin= 1.64D-03
 ErrMax= 1.64D-03  0.00D+00 EMaxC= 1.00D-01 BMatC= 1.24D-03 BMatP= 4.17D-03
 IDIUse=3 WtCom= 9.84D-01 WtEn= 1.64D-02
 Coeff-Com: -0.671D-02 0.794D-01 0.370D+00 0.557D+00
 Coeff-En:   0.000D+00 0.000D+00 0.249D+00 0.751D+00
 Coeff:     -0.660D-02 0.781D-01 0.368D+00 0.561D+00
 Gap=     0.257 Goal=   None    Shift=    0.000
 RMSDP=1.78D-04 MaxDP=6.11D-03 DE=-2.09D-03 OVMax= 7.18D-03

 Cycle   5  Pass 0  IDiag  1:
 E= -265.662748921366     Delta-E=       -0.000956815704 Rises=F Damp=F
 DIIS: error= 3.34D-04 at cycle   5 NSaved=   5.
 NSaved= 5 IEnMin= 5 EnMin= -265.662748921366     IErMin= 5 ErrMin= 3.34D-04
 ErrMax= 3.34D-04  0.00D+00 EMaxC= 1.00D-01 BMatC= 4.59D-05 BMatP= 1.24D-03
 IDIUse=3 WtCom= 9.97D-01 WtEn= 3.34D-03
 Coeff-Com: -0.180D-02 0.578D-02 0.111D+00 0.248D+00 0.638D+00
 Coeff-En:   0.000D+00 0.000D+00 0.000D+00 0.000D+00 0.100D+01
 Coeff:     -0.180D-02 0.576D-02 0.111D+00 0.247D+00 0.639D+00
 Gap=     0.257 Goal=   None    Shift=    0.000
 RMSDP=3.49D-05 MaxDP=7.42D-04 DE=-9.57D-04 OVMax= 1.23D-03

 Cycle   6  Pass 0  IDiag  1:
 E= -265.662787354084     Delta-E=       -0.000038432718 Rises=F Damp=F
 DIIS: error= 7.21D-05 at cycle   6 NSaved=   6.
 NSaved= 6 IEnMin= 6 EnMin= -265.662787354084     IErMin= 6 ErrMin= 7.21D-05
 ErrMax= 7.21D-05  0.00D+00 EMaxC= 1.00D-01 BMatC= 1.64D-06 BMatP= 4.59D-05
 IDIUse=1 WtCom= 1.00D+00 WtEn= 0.00D+00
 Coeff-Com: -0.499D-03 0.312D-03 0.413D-01 0.995D-01 0.297D+00 0.563D+00
 Coeff:     -0.499D-03 0.312D-03 0.413D-01 0.995D-01 0.297D+00 0.563D+00
 Gap=     0.257 Goal=   None    Shift=    0.000
 RMSDP=7.89D-06 MaxDP=3.37D-04 DE=-3.84D-05 OVMax= 2.74D-04

 Initial convergence to 1.0D-05 achieved.  Increase integral accuracy.
 Cycle   7  Pass 1  IDiag  1:
 E= -265.662771273071     Delta-E=        0.000016081013 Rises=F Damp=F
 DIIS: error= 1.67D-05 at cycle   1 NSaved=   1.
 NSaved= 1 IEnMin= 1 EnMin= -265.662771273071     IErMin= 1 ErrMin= 1.67D-05
 ErrMax= 1.67D-05  0.00D+00 EMaxC= 1.00D-01 BMatC= 2.17D-07 BMatP= 2.17D-07
 IDIUse=1 WtCom= 1.00D+00 WtEn= 0.00D+00
 Coeff-Com:  0.100D+01
 Coeff:      0.100D+01
 Gap=     0.257 Goal=   None    Shift=    0.000
 RMSDP=7.89D-06 MaxDP=3.37D-04 DE= 1.61D-05 OVMax= 2.12D-04

 Cycle   8  Pass 1  IDiag  1:
 E= -265.662771139695     Delta-E=        0.000000133376 Rises=F Damp=F
 DIIS: error= 2.44D-05 at cycle   2 NSaved=   2.
 NSaved= 2 IEnMin= 1 EnMin= -265.662771273071     IErMin= 1 ErrMin= 1.67D-05
 ErrMax= 2.44D-05  0.00D+00 EMaxC= 1.00D-01 BMatC= 3.85D-07 BMatP= 2.17D-07
 IDIUse=1 WtCom= 1.00D+00 WtEn= 0.00D+00
 Coeff-Com:  0.576D+00 0.424D+00
 Coeff:      0.576D+00 0.424D+00
 Gap=     0.257 Goal=   None    Shift=    0.000
 RMSDP=3.43D-06 MaxDP=1.41D-04 DE= 1.33D-07 OVMax= 1.35D-04

 Cycle   9  Pass 1  IDiag  1:
 E= -265.662771458995     Delta-E=       -0.000000319300 Rises=F Damp=F
 DIIS: error= 3.19D-06 at cycle   3 NSaved=   3.
 NSaved= 3 IEnMin= 3 EnMin= -265.662771458995     IErMin= 3 ErrMin= 3.19D-06
 ErrMax= 3.19D-06  0.00D+00 EMaxC= 1.00D-01 BMatC= 3.59D-09 BMatP= 2.17D-07
 IDIUse=1 WtCom= 1.00D+00 WtEn= 0.00D+00
 Coeff-Com:  0.401D-01 0.960D-01 0.864D+00
 Coeff:      0.401D-01 0.960D-01 0.864D+00
 Gap=     0.257 Goal=   None    Shift=    0.000
 RMSDP=3.89D-07 MaxDP=1.19D-05 DE=-3.19D-07 OVMax= 1.45D-05

 Cycle  10  Pass 1  IDiag  1:
 E= -265.662771461259     Delta-E=       -0.000000002264 Rises=F Damp=F
 DIIS: error= 1.57D-06 at cycle   4 NSaved=   4.
 NSaved= 4 IEnMin= 4 EnMin= -265.662771461259     IErMin= 4 ErrMin= 1.57D-06
 ErrMax= 1.57D-06  0.00D+00 EMaxC= 1.00D-01 BMatC= 8.95D-10 BMatP= 3.59D-09
 IDIUse=1 WtCom= 1.00D+00 WtEn= 0.00D+00
 Coeff-Com: -0.879D-02 0.278D-01 0.444D+00 0.537D+00
 Coeff:     -0.879D-02 0.278D-01 0.444D+00 0.537D+00
 Gap=     0.257 Goal=   None    Shift=    0.000
 RMSDP=1.56D-07 MaxDP=5.39D-06 DE=-2.26D-09 OVMax= 6.22D-06

 Cycle  11  Pass 1  IDiag  1:
 E= -265.662771461955     Delta-E=       -0.000000000696 Rises=F Damp=F
 DIIS: error= 3.87D-07 at cycle   5 NSaved=   5.
 NSaved= 5 IEnMin= 5 EnMin= -265.662771461955     IErMin= 5 ErrMin= 3.87D-07
 ErrMax= 3.87D-07  0.00D+00 EMaxC= 1.00D-01 BMatC= 6.55D-11 BMatP= 8.95D-10
 IDIUse=1 WtCom= 1.00D+00 WtEn= 0.00D+00
 Coeff-Com: -0.762D-02 0.987D-02 0.201D+00 0.296D+00 0.502D+00
 Coeff:     -0.762D-02 0.987D-02 0.201D+00 0.296D+00 0.502D+00
 Gap=     0.257 Goal=   None    Shift=    0.000
 RMSDP=3.89D-08 MaxDP=1.60D-06 DE=-6.96D-10 OVMax= 1.67D-06

 Cycle  12  Pass 1  IDiag  1:
 E= -265.662771462003     Delta-E=       -0.000000000049 Rises=F Damp=F
 DIIS: error= 5.17D-08 at cycle   6 NSaved=   6.
 NSaved= 6 IEnMin= 6 EnMin= -265.662771462003     IErMin= 6 ErrMin= 5.17D-08
 ErrMax= 5.17D-08  0.00D+00 EMaxC= 1.00D-01 BMatC= 1.33D-12 BMatP= 6.55D-11
 IDIUse=1 WtCom= 1.00D+00 WtEn= 0.00D+00
 Coeff-Com: -0.187D-02 0.166D-02 0.403D-01 0.614D-01 0.168D+00 0.731D+00
 Coeff:     -0.187D-02 0.166D-02 0.403D-01 0.614D-01 0.168D+00 0.731D+00
 Gap=     0.257 Goal=   None    Shift=    0.000
 RMSDP=7.38D-09 MaxDP=2.65D-07 DE=-4.89D-11 OVMax= 3.00D-07

 SCF Done:  E(RB3LYP) =  -265.662771462     A.U. after   12 cycles
            NFock= 12  Conv=0.74D-08     -V/T= 2.0076
 KE= 2.636695828972D+02 PE=-1.024363260904D+03 EE= 2.931238471769D+02
 Leave Link  502 at Fri Aug 26 09:19:53 2022, MaxMem= 24159191040 cpu:        63.2
 (Enter /public/home/users/caep010/software/Gaussian09/g09/l601.exe)
 Copying SCF densities to generalized density rwf, IOpCl= 0 IROHF=0.

 **********************************************************************

            Population analysis using the SCF density.

 **********************************************************************

 Orbital symmetries:
       Occupied  (A) (A) (A) (A) (A) (A) (A) (A) (A) (A) (A) (A)
                 (A) (A) (A) (A) (A) (A) (A) (A) (A)
       Virtual   (A) (A) (A) (A) (A) (A) (A) (A) (A) (A) (A) (A)
                 (A) (A) (A) (A) (A) (A) (A) (A) (A) (A) (A) (A)
                 (A) (A) (A) (A) (A) (A) (A) (A) (A) (A) (A) (A)
                 (A) (A) (A) (A) (A) (A) (A) (A) (A) (A) (A) (A)
                 (A) (A) (A) (A) (A) (A) (A) (A) (A) (A) (A) (A)
                 (A) (A) (A) (A) (A) (A) (A) (A) (A) (A) (A) (A)
                 (A) (A) (A) (A) (A) (A) (A) (A) (A) (A) (A) (A)
                 (A) (A) (A) (A) (A) (A) (A) (A) (A) (A) (A) (A)
                 (A) (A) (A) (A) (A) (A) (A) (A) (A) (A) (A) (A)
                 (A) (A) (A) (A) (A) (A) (A) (A) (A) (A) (A) (A)
                 (A) (A) (A) (A) (A) (A) (A) (A) (A) (A) (A) (A)
                 (A) (A) (A) (A) (A) (A) (A) (A) (A) (A) (A) (A)
                 (A) (A) (A) (A) (A) (A) (A) (A) (A) (A) (A) (A)
                 (A) (A) (A)
 The electronic state is 1-A.
 Alpha  occ. eigenvalues --  -19.16826 -14.39015 -14.34036 -10.21525 -10.20752
 Alpha  occ. eigenvalues --   -1.08918  -0.91890  -0.77953  -0.69156  -0.62628
 Alpha  occ. eigenvalues --   -0.52928  -0.50044  -0.47227  -0.44097  -0.41819
 Alpha  occ. eigenvalues --   -0.39637  -0.38313  -0.37134  -0.30044  -0.25408
 Alpha  occ. eigenvalues --   -0.20375
 Alpha virt. eigenvalues --    0.05320   0.09100   0.11610   0.13738   0.13936
 Alpha virt. eigenvalues --    0.14825   0.16148   0.16574   0.19550   0.20997
 Alpha virt. eigenvalues --    0.25075   0.25673   0.44069   0.45521   0.48496
 Alpha virt. eigenvalues --    0.52796   0.53450   0.55698   0.56519   0.58559
 Alpha virt. eigenvalues --    0.61838   0.66127   0.68844   0.70397   0.72316
 Alpha virt. eigenvalues --    0.72697   0.73308   0.73538   0.76851   0.77377
 Alpha virt. eigenvalues --    0.80147   0.82817   0.84231   0.87004   0.89142
 Alpha virt. eigenvalues --    0.91248   0.93406   0.94673   1.00597   1.03324
 Alpha virt. eigenvalues --    1.07634   1.14414   1.17615   1.24662   1.30095
 Alpha virt. eigenvalues --    1.34297   1.37461   1.42454   1.44807   1.49140
 Alpha virt. eigenvalues --    1.52324   1.53689   1.56603   1.62303   1.65224
 Alpha virt. eigenvalues --    1.66542   1.73556   1.75595   1.76597   1.87213
 Alpha virt. eigenvalues --    1.88393   1.91247   1.92883   1.95944   1.97502
 Alpha virt. eigenvalues --    2.04708   2.23142   2.25884   2.29789   2.33538
 Alpha virt. eigenvalues --    2.33820   2.39288   2.44191   2.48589   2.53777
 Alpha virt. eigenvalues --    2.61139   2.67411   2.71028   2.74344   2.77819
 Alpha virt. eigenvalues --    2.81617   2.81869   2.87314   2.88866   2.89147
 Alpha virt. eigenvalues --    2.91184   2.94382   2.96586   2.99878   3.08745
 Alpha virt. eigenvalues --    3.20211   3.24153   3.32336   3.34322   3.35913
 Alpha virt. eigenvalues --    3.41269   3.43869   3.52584   3.60223   3.61201
 Alpha virt. eigenvalues --    3.64966   3.68127   3.73143   3.76955   3.80842
 Alpha virt. eigenvalues --    3.84794   3.94825   3.99602   4.02845   4.08707
 Alpha virt. eigenvalues --    4.12962   4.16454   4.23585   4.26395   4.34308
 Alpha virt. eigenvalues --    4.36038   4.36995   4.40828   4.42044   4.44548
 Alpha virt. eigenvalues --    4.47035   4.48176   4.50623   4.55617   4.60234
 Alpha virt. eigenvalues --    4.64326   4.67207   4.68361   4.73355   4.74493
 Alpha virt. eigenvalues --    4.76948   4.77941   4.82680   4.91758   4.93913
 Alpha virt. eigenvalues --    4.96212   5.04124   5.06926   5.11252   5.23809
 Alpha virt. eigenvalues --    5.32219   5.34640   5.36885   5.42555   5.47049
 Alpha virt. eigenvalues --    5.51392   5.53913   5.69251   6.00825   6.11303
 Alpha virt. eigenvalues --    6.15083   7.03963   8.65179  11.13676  11.40399
 Alpha virt. eigenvalues --   11.48507  11.63879  13.23834  14.18021
          Condensed to atoms (all electrons):
               1          2          3          4          5          6
     1  C    5.023000   0.313421  -0.084789  -0.011567   0.004613   0.365261
     2  N    0.313421   6.476477   0.352825  -0.091442  -0.069162  -0.043600
     3  N   -0.084789   0.352825   6.214155   0.380133   0.296387   0.002927
     4  C   -0.011567  -0.091442   0.380133   5.040001  -0.070692   0.008224
     5  O    0.004613  -0.069162   0.296387  -0.070692   7.922525  -0.000716
     6  H    0.365261  -0.043600   0.002927   0.008224  -0.000716   0.656951
     7  H    0.377728  -0.028836  -0.007254  -0.001292   0.008224  -0.042081
     8  H    0.377138  -0.019034   0.003075  -0.000080   0.000087  -0.037085
     9  H   -0.050548   0.335541  -0.033545  -0.000007   0.004108  -0.006451
    10  H    0.007154  -0.000469  -0.041794   0.334963  -0.000230  -0.002964
    11  H   -0.000229   0.004439  -0.023325   0.375428   0.003535  -0.000291
    12  H   -0.001170   0.002658  -0.021009   0.364379   0.003362   0.000478
    13  H    0.007245  -0.001884  -0.087544  -0.016751   0.286932  -0.000367
               7          8          9         10         11         12
     1  C    0.377728   0.377138  -0.050548   0.007154  -0.000229  -0.001170
     2  N   -0.028836  -0.019034   0.335541  -0.000469   0.004439   0.002658
     3  N   -0.007254   0.003075  -0.033545  -0.041794  -0.023325  -0.021009
     4  C   -0.001292  -0.000080  -0.000007   0.334963   0.375428   0.364379
     5  O    0.008224   0.000087   0.004108  -0.000230   0.003535   0.003362
     6  H   -0.042081  -0.037085  -0.006451  -0.002964  -0.000291   0.000478
     7  H    0.587197  -0.026663   0.005610   0.001930  -0.000019  -0.000024
     8  H   -0.026663   0.574195   0.000522  -0.000212   0.000001  -0.000003
     9  H    0.005610   0.000522   0.512509  -0.000162  -0.000015   0.001764
    10  H    0.001930  -0.000212  -0.000162   0.659054  -0.039362  -0.032381
    11  H   -0.000019   0.000001  -0.000015  -0.039362   0.568519  -0.025381
    12  H   -0.000024  -0.000003   0.001764  -0.032381  -0.025381   0.581115
    13  H    0.004619  -0.000288  -0.000361   0.020414  -0.001609  -0.000135
              13
     1  C    0.007245
     2  N   -0.001884
     3  N   -0.087544
     4  C   -0.016751
     5  O    0.286932
     6  H   -0.000367
     7  H    0.004619
     8  H   -0.000288
     9  H   -0.000361
    10  H    0.020414
    11  H   -0.001609
    12  H   -0.000135
    13  H    0.519703
 Mulliken charges:
               1
     1  C   -0.327257
     2  N   -0.230933
     3  N    0.049757
     4  C   -0.311296
     5  O   -0.388974
     6  H    0.099715
     7  H    0.120860
     8  H    0.128349
     9  H    0.231036
    10  H    0.094059
    11  H    0.138309
    12  H    0.126347
    13  H    0.270025
 Sum of Mulliken charges =  -0.00000
 Mulliken charges with hydrogens summed into heavy atoms:
               1
     1  C    0.021668
     2  N    0.000103
     3  N    0.049757
     4  C    0.047420
     5  O   -0.118949
 Electronic spatial extent (au):  <R**2>=            430.2672
 Charge=             -0.0000 electrons
 Dipole moment (field-independent basis, Debye):
    X=              0.8652    Y=              2.3615    Z=              1.9126  Tot=              3.1597
 Quadrupole moment (field-independent basis, Debye-Ang):
   XX=            -31.1002   YY=            -32.1239   ZZ=            -30.7132
   XY=             -0.5727   XZ=             -1.6694   YZ=             -3.7919
 Traceless Quadrupole moment (field-independent basis, Debye-Ang):
   XX=              0.2123   YY=             -0.8115   ZZ=              0.5992
   XY=             -0.5727   XZ=             -1.6694   YZ=             -3.7919
 Octapole moment (field-independent basis, Debye-Ang**2):
  XXX=             -0.5440  YYY=             -0.7296  ZZZ=              0.7575  XYY=             -0.3753
  XXY=              1.7165  XXZ=              0.0821  XZZ=             -1.0972  YZZ=             -2.0404
  YYZ=              0.6038  XYZ=             -1.1273
 Hexadecapole moment (field-independent basis, Debye-Ang**3):
 XXXX=           -276.9597 YYYY=           -161.9628 ZZZZ=            -91.8681 XXXY=              0.1997
 XXXZ=             -5.2843 YYYX=              3.9713 YYYZ=             -8.0448 ZZZX=             -6.7101
 ZZZY=             -9.4564 XXYY=            -77.7911 XXZZ=            -65.6431 YYZZ=            -38.9124
 XXYZ=             -4.3164 YYXZ=             -1.8516 ZZXY=              6.3193
 N-N= 2.019070593679D+02 E-N=-1.024363268871D+03  KE= 2.636695828972D+02
 No NMR shielding tensors so no spin-rotation constants.
 Leave Link  601 at Fri Aug 26 09:19:54 2022, MaxMem= 24159191040 cpu:        17.2
 (Enter /public/home/users/caep010/software/Gaussian09/g09/l701.exe)
 Compute integral first derivatives.
 ... and contract with generalized density number  0.
 Leave Link  701 at Fri Aug 26 09:19:54 2022, MaxMem= 24159191040 cpu:        14.8
 (Enter /public/home/users/caep010/software/Gaussian09/g09/l702.exe)
 L702 exits ... SP integral derivatives will be done elsewhere.
 Leave Link  702 at Fri Aug 26 09:19:54 2022, MaxMem= 24159191040 cpu:         0.5
 (Enter /public/home/users/caep010/software/Gaussian09/g09/l703.exe)
 Compute integral first derivatives, UseDBF=F ICtDFT=           0.
 Integral derivatives from FoFJK, PRISM(SPDF).
 Calling FoFJK, ICntrl=      2127 FMM=F ISym2X=0 I1Cent= 0 IOpClX= 0 NMat=1 NMatS=1 NMatT=0.
 FoFJK:  IHMeth= 1 ICntrl=    2127 DoSepK=F KAlg= 0 I1Cent=   0 FoldK=F
 IRaf=         0 NMat=   1 IRICut=       1 DoRegI=T DoRafI=F ISym2E= 0.
 FoFCou: FMM=F IPFlag=           0 FMFlag=      100000 FMFlg1=         800
         NFxFlg=           0 DoJE=F BraDBF=F KetDBF=F FulRan=T
         wScrn=  0.000000 ICntrl=    2127 IOpCl=  0 I1Cent=           0 NGrid=           0
         NMat0=    1 NMatS0=      1 NMatT0=    0 NMatD0=    1 NMtDS0=    0 NMtDT0=    0
 Symmetry not used in FoFCou.
 Leave Link  703 at Fri Aug 26 09:19:56 2022, MaxMem= 24159191040 cpu:        33.6
 (Enter /public/home/users/caep010/software/Gaussian09/g09/l716.exe)
 Dipole        = 3.40398235D-01 9.29099947D-01 7.52492199D-01
 ***** Axes restored to original set *****
 -------------------------------------------------------------------
 Center     Atomic                   Forces (Hartrees/Bohr)
 Number     Number              X              Y              Z
 -------------------------------------------------------------------
      1        6          -0.008610375   -0.011526498    0.001846735
      2        7          -0.013303359   -0.009227048   -0.002504077
      3        7           0.012109940   -0.038493032   -0.010565861
      4        6           0.007138476    0.007189726    0.001473410
      5        8           0.000787005    0.018204023    0.020252057
      6        1          -0.005602180    0.008356120    0.001907879
      7        1           0.002627867   -0.008531109   -0.005043233
      8        1           0.009331823    0.002920723    0.002151323
      9        1           0.003745523    0.025166828    0.006088957
     10        1           0.002515430   -0.003072916   -0.002079539
     11        1          -0.010729446   -0.000689234   -0.000951378
     12        1          -0.001116655    0.012048443    0.000546816
     13        1           0.001105952   -0.002346027   -0.013123090
 -------------------------------------------------------------------
 Cartesian Forces:  Max     0.038493032 RMS     0.010768788
 Leave Link  716 at Fri Aug 26 09:19:56 2022, MaxMem= 24159191040 cpu:         0.7
 (Enter /public/home/users/caep010/software/Gaussian09/g09/l103.exe)

 GradGradGradGradGradGradGradGradGradGradGradGradGradGradGradGradGradGrad
 Berny optimization.
 FormGI is forming the generalized inverse of G from B-inverse, IUseBI=4.
 Internal  Forces:  Max     0.025442635 RMS     0.007382516
 Search for a local minimum.
 Step number   1 out of a maximum of   59
 All quantities printed in internal units (Hartrees-Bohrs-Radians)
 RMS Force = .73825D-02 SwitMx=.10000D-02 MixMth= 1
 Mixed Optimization -- RFO/linear search
 Second derivative matrix not updated -- first step.
 ITU=  0
     Eigenvalues ---    0.00686   0.00756   0.01006   0.01733   0.03172
     Eigenvalues ---    0.03278   0.07044   0.07119   0.07481   0.07569
     Eigenvalues ---    0.11873   0.16000   0.16000   0.16000   0.16000
     Eigenvalues ---    0.16000   0.16000   0.16000   0.19123   0.21366
     Eigenvalues ---    0.23500   0.32493   0.32524   0.32558   0.32593
     Eigenvalues ---    0.32599   0.32775   0.35030   0.35654   0.40332
     Eigenvalues ---    0.42183   0.48998   0.51584
 RFO step:  Lambda=-1.05674248D-02 EMin= 6.86244133D-03
 Linear search not attempted -- first point.
 Iteration  1 RMS(Cart)=  0.05954631 RMS(Int)=  0.00231400
 Iteration  2 RMS(Cart)=  0.00390558 RMS(Int)=  0.00046090
 Iteration  3 RMS(Cart)=  0.00001128 RMS(Int)=  0.00046086
 Iteration  4 RMS(Cart)=  0.00000000 RMS(Int)=  0.00046086
 ITry= 1 IFail=0 DXMaxC= 1.96D-01 DCOld= 1.00D+10 DXMaxT= 3.00D-01 DXLimC= 3.00D+00 Rises=F
 Variable       Old X    -DE/DX   Delta X   Delta X   Delta X     New X
                                 (Linear)    (Quad)   (Total)
    R1        2.77927   0.00202   0.00000   0.00549   0.00549   2.78476
    R2        2.09834  -0.00595   0.00000  -0.01770  -0.01770   2.08064
    R3        2.09448  -0.00997   0.00000  -0.02946  -0.02946   2.06502
    R4        2.09762  -0.00992   0.00000  -0.02946  -0.02946   2.06816
    R5        2.68690   0.00783   0.00000   0.01811   0.01811   2.70502
    R6        1.97804  -0.02544   0.00000  -0.06147  -0.06147   1.91657
    R7        2.78926  -0.00986   0.00000  -0.02732  -0.02732   2.76194
    R8        2.58300   0.01690   0.00000   0.03210   0.03210   2.61509
    R9        2.09951  -0.00349   0.00000  -0.01041  -0.01041   2.08909
   R10        2.09771  -0.01064   0.00000  -0.03163  -0.03163   2.06609
   R11        2.09895  -0.01180   0.00000  -0.03514  -0.03514   2.06382
   R12        1.87590  -0.01313   0.00000  -0.02623  -0.02623   1.84967
    A1        1.94438   0.01294   0.00000   0.08191   0.08184   2.02623
    A2        1.94629  -0.00629   0.00000  -0.04469  -0.04460   1.90169
    A3        1.89762  -0.00224   0.00000  -0.01138  -0.01231   1.88531
    A4        1.93011  -0.00441   0.00000  -0.02890  -0.02815   1.90196
    A5        1.87322  -0.00170   0.00000   0.00607   0.00513   1.87835
    A6        1.86883   0.00142   0.00000  -0.00433  -0.00517   1.86366
    A7        1.98587   0.01426   0.00000   0.05826   0.05822   2.04409
    A8        1.89556   0.00019   0.00000   0.01693   0.01750   1.91306
    A9        1.88722  -0.00835   0.00000  -0.04799  -0.04854   1.83868
   A10        1.99060   0.01052   0.00000   0.03481   0.03406   2.02466
   A11        1.92050  -0.00139   0.00000  -0.01981  -0.01971   1.90079
   A12        1.96536  -0.01012   0.00000  -0.06082  -0.06070   1.90465
   A13        1.95307   0.00506   0.00000   0.03096   0.03106   1.98414
   A14        1.90450  -0.00225   0.00000  -0.01222  -0.01233   1.89217
   A15        1.92378  -0.00435   0.00000  -0.02774  -0.02774   1.89604
   A16        1.88751  -0.00046   0.00000   0.00166   0.00166   1.88917
   A17        1.90968  -0.00065   0.00000  -0.00553  -0.00533   1.90435
   A18        1.88364   0.00266   0.00000   0.01293   0.01268   1.89632
   A19        1.89618  -0.00089   0.00000  -0.00521  -0.00521   1.89097
    D1       -1.19140   0.00260   0.00000   0.04273   0.04302  -1.14839
    D2        0.91129   0.00138   0.00000   0.03159   0.03258   0.94387
    D3        0.97437   0.00178   0.00000   0.03266   0.03168   1.00605
    D4        3.07707   0.00056   0.00000   0.02152   0.02124   3.09831
    D5        3.03095  -0.00160   0.00000  -0.00620  -0.00656   3.02439
    D6       -1.14954  -0.00282   0.00000  -0.01734  -0.01699  -1.16653
    D7        0.98757  -0.00356   0.00000  -0.12392  -0.12466   0.86291
    D8       -1.24036   0.00290   0.00000  -0.05253  -0.05287  -1.29323
    D9       -1.11981  -0.00706   0.00000  -0.14889  -0.14855  -1.26836
   D10        2.93545  -0.00060   0.00000  -0.07750  -0.07676   2.85870
   D11       -1.26942   0.00156   0.00000   0.04114   0.04134  -1.22808
   D12        2.92553   0.00043   0.00000   0.02770   0.02793   2.95346
   D13        0.85994   0.00113   0.00000   0.03578   0.03573   0.89566
   D14        0.93525  -0.00018   0.00000  -0.00916  -0.00921   0.92604
   D15       -1.15298  -0.00131   0.00000  -0.02260  -0.02263  -1.17561
   D16        3.06461  -0.00061   0.00000  -0.01453  -0.01483   3.04978
   D17        1.45292   0.00021   0.00000  -0.08993  -0.08889   1.36403
   D18       -0.78892  -0.00473   0.00000  -0.07202  -0.07306  -0.86198
         Item               Value     Threshold  Converged?
 Maximum Force            0.025443     0.000450     NO 
 RMS     Force            0.007383     0.000300     NO 
 Maximum Displacement     0.196484     0.001800     NO 
 RMS     Displacement     0.061122     0.001200     NO 
 Predicted change in Energy=-5.831424D-03
 Lowest energy point so far.  Saving SCF results.
 GradGradGradGradGradGradGradGradGradGradGradGradGradGradGradGradGradGrad

 Leave Link  103 at Fri Aug 26 09:19:56 2022, MaxMem= 24159191040 cpu:         2.3
 (Enter /public/home/users/caep010/software/Gaussian09/g09/l202.exe)
                          Input orientation:                          
 ---------------------------------------------------------------------
 Center     Atomic      Atomic             Coordinates (Angstroms)
 Number     Number       Type             X           Y           Z
 ---------------------------------------------------------------------
      1          6           0       -1.539730   -0.120909   -0.090660
      2          7           0       -0.604416   -0.069311   -1.228253
      3          7           0        0.749678    0.297251   -0.943530
      4          6           0        1.390033   -0.420584    0.156838
      5          8           0        0.802347    1.656604   -0.689717
      6          1           0       -1.340675   -0.896387    0.665169
      7          1           0       -1.557716    0.855960    0.398756
      8          1           0       -2.545146   -0.294496   -0.486595
      9          1           0       -0.549019   -0.982943   -1.665082
     10          1           0        0.991029   -0.153986    1.152756
     11          1           0        2.458818   -0.190613    0.143588
     12          1           0        1.261506   -1.493055   -0.004472
     13          1           0        0.483189    1.812270    0.222401
 ---------------------------------------------------------------------
                    Distance matrix (angstroms):
                    1          2          3          4          5
     1  C    0.000000
     2  N    1.473632   0.000000
     3  N    2.478636   1.431435   0.000000
     4  C    2.955431   2.453507   1.461558   0.000000
     5  O    3.000625   2.290805   1.383849   2.318780   0.000000
     6  H    1.101030   2.193440   2.895213   2.818076   3.598058
     7  H    1.092760   2.100492   2.727262   3.221384   2.719505
     8  H    1.094421   2.089784   3.378582   3.989428   3.879917
     9  H    2.050223   1.014205   1.961159   2.719478   3.121656
    10  H    2.819915   2.867371   2.157842   1.105500   2.590086
    11  H    4.006010   3.358580   2.083506   1.093327   2.617347
    12  H    3.120438   2.646951   2.085424   1.092124   3.255877
    13  H    2.815562   2.612973   1.930206   2.410871   0.978802
                    6          7          8          9         10
     6  H    0.000000
     7  H    1.785721   0.000000
     8  H    1.771887   1.755680   0.000000
     9  H    2.462576   2.942526   2.418122   0.000000
    10  H    2.495144   2.843345   3.900224   3.316493   0.000000
    11  H    3.899527   4.158482   5.044559   3.598076   1.781619
    12  H    2.752413   3.691677   4.019899   2.509151   1.790374
    13  H    3.295352   2.260736   3.756587   3.527217   2.233747
                   11         12         13
    11  H    0.000000
    12  H    1.775340   0.000000
    13  H    2.814402   3.403295   0.000000
 Stoichiometry    C2H8N2O
 Framework group  C1[X(C2H8N2O)]
 Deg. of freedom    33
 Full point group                 C1      NOp   1
 RotChk:  IX=0 Diff= 6.86D-02
 Largest Abelian subgroup         C1      NOp   1
 Largest concise Abelian subgroup C1      NOp   1
                         Standard orientation:                         
 ---------------------------------------------------------------------
 Center     Atomic      Atomic             Coordinates (Angstroms)
 Number     Number       Type             X           Y           Z
 ---------------------------------------------------------------------
      1          6           0        1.696714    0.078574    0.453091
      2          7           0        0.826935   -0.158864   -0.712542
      3          7           0       -0.586137   -0.074160   -0.500272
      4          6           0       -1.058441    1.117917    0.201179
      5          8           0       -1.004680   -1.200194    0.186683
      6          1           0        1.678710    1.096909    0.871343
      7          1           0        1.437511   -0.633532    1.240392
      8          1           0        2.727345   -0.139608    0.156519
      9          1           0        1.031340    0.523586   -1.434409
     10          1           0       -0.783700    1.141250    1.271741
     11          1           0       -2.148666    1.153147    0.126799
     12          1           0       -0.645945    2.000090   -0.293142
     13          1           0       -0.774376   -1.088063    1.131373
 ---------------------------------------------------------------------
 Rotational constants (GHZ):      7.2797614      4.2193305      3.4528578
 Leave Link  202 at Fri Aug 26 09:19:56 2022, MaxMem= 24159191040 cpu:         0.2
 (Enter /public/home/users/caep010/software/Gaussian09/g09/l301.exe)
 Standard basis: GTBas3 (6D, 7F)
 Ernie: Thresh=  0.10000D-02 Tol=  0.10000D-05 Strict=F.
 There are   195 symmetry adapted cartesian basis functions of A   symmetry.
 There are   180 symmetry adapted basis functions of A   symmetry.
   180 basis functions,   276 primitive gaussians,   195 cartesian basis functions
    21 alpha electrons       21 beta electrons
       nuclear repulsion energy       201.5354782424 Hartrees.
 IExCor=  402 DFT=T Ex+Corr=B3LYP ExCW=0 ScaHFX=  0.200000
 ScaDFX=  0.800000  0.720000  1.000000  0.810000 ScalE2=  1.000000  1.000000
 IRadAn=      0 IRanWt=     -1 IRanGd=            0 ICorTp=0 IEmpDi=  4
 NAtoms=   13 NActive=   13 NUniq=   13 SFac= 1.00D+00 NAtFMM=   60 NAOKFM=F Big=F
 Integral buffers will be    131072 words long.
 Raffenetti 2 integral format.
 Two-electron integral symmetry is turned on.
 Leave Link  301 at Fri Aug 26 09:19:56 2022, MaxMem= 24159191040 cpu:         1.6
 (Enter /public/home/users/caep010/software/Gaussian09/g09/l302.exe)
 NPDir=0 NMtPBC=     1 NCelOv=     1 NCel=       1 NClECP=     1 NCelD=      1
         NCelK=      1 NCelE2=     1 NClLst=     1 CellRange=     0.0.
 One-electron integrals computed using PRISM.
 NBasis=   180 RedAO= T EigKep=  3.63D-04  NBF=   180
 NBsUse=   180 1.00D-06 EigRej= -1.00D+00 NBFU=   180
 Precomputing XC quadrature grid using
 IXCGrd= 4 IRadAn=           0 IRanWt=          -1 IRanGd=           0 AccXCQ= 0.00D+00.
 Generated NRdTot=       0 NPtTot=           0 NUsed=           0 NTot=          32
 NSgBfM=   195   195   195   195   195 MxSgAt=    13 MxSgA2=    13.
 Leave Link  302 at Fri Aug 26 09:19:56 2022, MaxMem= 24159191040 cpu:        14.3
 (Enter /public/home/users/caep010/software/Gaussian09/g09/l303.exe)
 DipDrv:  MaxL=1.
 Leave Link  303 at Fri Aug 26 09:19:57 2022, MaxMem= 24159191040 cpu:         0.8
 (Enter /public/home/users/caep010/software/Gaussian09/g09/l401.exe)
 Initial guess from the checkpoint file:  "G4.Frag_1094.chk"
 B after Tr=     0.000000   -0.000000   -0.000000
         Rot=    0.999740    0.021345   -0.002424    0.007597 Ang=   2.61 deg.
 Guess basis will be translated and rotated to current coordinates.
 JPrj=2 DoOrth=T DoCkMO=T.
 Generating alternative initial guess.
 ExpMin= 1.61D-01 ExpMax= 5.48D+03 ExpMxC= 8.25D+02 IAcc=1 IRadAn=         1 AccDes= 0.00D+00
 Harris functional with IExCor=  402 and IRadAn=       1 diagonalized for initial guess.
 HarFok:  IExCor=  402 AccDes= 0.00D+00 IRadAn=         1 IDoV= 1 UseB2=F ITyADJ=14
 ICtDFT=  3500011 ScaDFX=  1.000000  1.000000  1.000000  1.000000
 FoFCou: FMM=F IPFlag=           0 FMFlag=      100000 FMFlg1=           0
         NFxFlg=           0 DoJE=T BraDBF=F KetDBF=T FulRan=T
         wScrn=  0.000000 ICntrl=     500 IOpCl=  0 I1Cent=   200000004 NGrid=           0
         NMat0=    1 NMatS0=      1 NMatT0=    0 NMatD0=    1 NMtDS0=    0 NMtDT0=    0
 Petite list used in FoFCou.
 Harris En= -265.685418804760    
 Leave Link  401 at Fri Aug 26 09:19:57 2022, MaxMem= 24159191040 cpu:        15.7
 (Enter /public/home/users/caep010/software/Gaussian09/g09/l502.exe)
 Closed shell SCF:
 Using DIIS extrapolation, IDIIS=  1040.
 Integral symmetry usage will be decided dynamically.
 Keep R1 ints in memory in canonical form, NReq=136595160.
 IVT=      140295 IEndB=      140295 NGot= 24159191040 MDV= 24026360551
 LenX= 24026360551 LenY= 24026322085
 Requested convergence on RMS density matrix=1.00D-08 within 128 cycles.
 Requested convergence on MAX density matrix=1.00D-06.
 Requested convergence on             energy=1.00D-06.
 No special actions if energy rises.
 FoFCou: FMM=F IPFlag=           0 FMFlag=           0 FMFlg1=           0
         NFxFlg=           0 DoJE=F BraDBF=F KetDBF=F FulRan=T
         wScrn=  0.000000 ICntrl=     600 IOpCl=  0 I1Cent=           0 NGrid=           0
         NMat0=    1 NMatS0=  16290 NMatT0=    0 NMatD0=    1 NMtDS0=    0 NMtDT0=    0
 Symmetry not used in FoFCou.
 Integral accuracy reduced to 1.0D-05 until final iterations.

 Cycle   1  Pass 0  IDiag  1:
 E= -265.663303321212    
 DIIS: error= 2.24D-03 at cycle   1 NSaved=   1.
 NSaved= 1 IEnMin= 1 EnMin= -265.663303321212     IErMin= 1 ErrMin= 2.24D-03
 ErrMax= 2.24D-03  0.00D+00 EMaxC= 1.00D-01 BMatC= 3.72D-03 BMatP= 3.72D-03
 IDIUse=3 WtCom= 9.78D-01 WtEn= 2.24D-02
 Coeff-Com:  0.100D+01
 Coeff-En:   0.100D+01
 Coeff:      0.100D+01
 Gap=     1.139 Goal=   None    Shift=    0.000
 GapD=    1.139 DampG=2.000 DampE=1.000 DampFc=2.0000 IDamp=-1.
 RMSDP=5.84D-04 MaxDP=1.14D-02              OVMax= 2.55D-02

 Cycle   2  Pass 0  IDiag  1:
 E= -265.668265794454     Delta-E=       -0.004962473242 Rises=F Damp=F
 DIIS: error= 7.59D-04 at cycle   2 NSaved=   2.
 NSaved= 2 IEnMin= 2 EnMin= -265.668265794454     IErMin= 2 ErrMin= 7.59D-04
 ErrMax= 7.59D-04  0.00D+00 EMaxC= 1.00D-01 BMatC= 1.91D-04 BMatP= 3.72D-03
 IDIUse=3 WtCom= 9.92D-01 WtEn= 7.59D-03
 Coeff-Com:  0.280D-01 0.972D+00
 Coeff-En:   0.000D+00 0.100D+01
 Coeff:      0.278D-01 0.972D+00
 Gap=     0.269 Goal=   None    Shift=    0.000
 RMSDP=1.58D-04 MaxDP=4.65D-03 DE=-4.96D-03 OVMax= 5.50D-03

 Cycle   3  Pass 0  IDiag  1:
 E= -265.668238677072     Delta-E=        0.000027117382 Rises=F Damp=F
 DIIS: error= 8.35D-04 at cycle   3 NSaved=   3.
 NSaved= 3 IEnMin= 2 EnMin= -265.668265794454     IErMin= 2 ErrMin= 7.59D-04
 ErrMax= 8.35D-04  0.00D+00 EMaxC= 1.00D-01 BMatC= 2.61D-04 BMatP= 1.91D-04
 IDIUse=3 WtCom= 2.57D-01 WtEn= 7.43D-01
 Coeff-Com: -0.294D-01 0.555D+00 0.474D+00
 Coeff-En:   0.000D+00 0.533D+00 0.467D+00
 Coeff:     -0.756D-02 0.539D+00 0.469D+00
 Gap=     0.272 Goal=   None    Shift=    0.000
 RMSDP=9.34D-05 MaxDP=2.88D-03 DE= 2.71D-05 OVMax= 3.18D-03

 Cycle   4  Pass 0  IDiag  1:
 E= -265.668460304945     Delta-E=       -0.000221627873 Rises=F Damp=F
 DIIS: error= 1.42D-04 at cycle   4 NSaved=   4.
 NSaved= 4 IEnMin= 4 EnMin= -265.668460304945     IErMin= 4 ErrMin= 1.42D-04
 ErrMax= 1.42D-04  0.00D+00 EMaxC= 1.00D-01 BMatC= 9.35D-06 BMatP= 1.91D-04
 IDIUse=3 WtCom= 9.99D-01 WtEn= 1.42D-03
 Coeff-Com: -0.144D-01 0.189D+00 0.228D+00 0.598D+00
 Coeff-En:   0.000D+00 0.000D+00 0.000D+00 0.100D+01
 Coeff:     -0.144D-01 0.188D+00 0.227D+00 0.599D+00
 Gap=     0.272 Goal=   None    Shift=    0.000
 RMSDP=1.63D-05 MaxDP=6.56D-04 DE=-2.22D-04 OVMax= 6.85D-04

 Cycle   5  Pass 0  IDiag  1:
 E= -265.668466880604     Delta-E=       -0.000006575658 Rises=F Damp=F
 DIIS: error= 4.71D-05 at cycle   5 NSaved=   5.
 NSaved= 5 IEnMin= 5 EnMin= -265.668466880604     IErMin= 5 ErrMin= 4.71D-05
 ErrMax= 4.71D-05  0.00D+00 EMaxC= 1.00D-01 BMatC= 8.64D-07 BMatP= 9.35D-06
 IDIUse=1 WtCom= 1.00D+00 WtEn= 0.00D+00
 Coeff-Com: -0.391D-02 0.299D-01 0.577D-01 0.285D+00 0.631D+00
 Coeff:     -0.391D-02 0.299D-01 0.577D-01 0.285D+00 0.631D+00
 Gap=     0.272 Goal=   None    Shift=    0.000
 RMSDP=4.83D-06 MaxDP=1.77D-04 DE=-6.58D-06 OVMax= 1.80D-04

 Initial convergence to 1.0D-05 achieved.  Increase integral accuracy.
 Cycle   6  Pass 1  IDiag  1:
 E= -265.668527362598     Delta-E=       -0.000060481994 Rises=F Damp=F
 DIIS: error= 1.73D-05 at cycle   1 NSaved=   1.
 NSaved= 1 IEnMin= 1 EnMin= -265.668527362598     IErMin= 1 ErrMin= 1.73D-05
 ErrMax= 1.73D-05  0.00D+00 EMaxC= 1.00D-01 BMatC= 1.17D-07 BMatP= 1.17D-07
 IDIUse=1 WtCom= 1.00D+00 WtEn= 0.00D+00
 Coeff-Com:  0.100D+01
 Coeff:      0.100D+01
 Gap=     0.272 Goal=   None    Shift=    0.000
 RMSDP=4.83D-06 MaxDP=1.77D-04 DE=-6.05D-05 OVMax= 1.06D-04

 Cycle   7  Pass 1  IDiag  1:
 E= -265.668527394639     Delta-E=       -0.000000032042 Rises=F Damp=F
 DIIS: error= 1.30D-05 at cycle   2 NSaved=   2.
 NSaved= 2 IEnMin= 2 EnMin= -265.668527394639     IErMin= 2 ErrMin= 1.30D-05
 ErrMax= 1.30D-05  0.00D+00 EMaxC= 1.00D-01 BMatC= 1.01D-07 BMatP= 1.17D-07
 IDIUse=1 WtCom= 1.00D+00 WtEn= 0.00D+00
 Coeff-Com:  0.478D+00 0.522D+00
 Coeff:      0.478D+00 0.522D+00
 Gap=     0.272 Goal=   None    Shift=    0.000
 RMSDP=1.67D-06 MaxDP=6.19D-05 DE=-3.20D-08 OVMax= 6.35D-05

 Cycle   8  Pass 1  IDiag  1:
 E= -265.668527462191     Delta-E=       -0.000000067552 Rises=F Damp=F
 DIIS: error= 5.38D-06 at cycle   3 NSaved=   3.
 NSaved= 3 IEnMin= 3 EnMin= -265.668527462191     IErMin= 3 ErrMin= 5.38D-06
 ErrMax= 5.38D-06  0.00D+00 EMaxC= 1.00D-01 BMatC= 1.35D-08 BMatP= 1.01D-07
 IDIUse=1 WtCom= 1.00D+00 WtEn= 0.00D+00
 Coeff-Com:  0.548D-01 0.268D+00 0.677D+00
 Coeff:      0.548D-01 0.268D+00 0.677D+00
 Gap=     0.272 Goal=   None    Shift=    0.000
 RMSDP=5.48D-07 MaxDP=2.34D-05 DE=-6.76D-08 OVMax= 2.28D-05

 Cycle   9  Pass 1  IDiag  1:
 E= -265.668527471271     Delta-E=       -0.000000009080 Rises=F Damp=F
 DIIS: error= 1.44D-06 at cycle   4 NSaved=   4.
 NSaved= 4 IEnMin= 4 EnMin= -265.668527471271     IErMin= 4 ErrMin= 1.44D-06
 ErrMax= 1.44D-06  0.00D+00 EMaxC= 1.00D-01 BMatC= 1.03D-09 BMatP= 1.35D-08
 IDIUse=1 WtCom= 1.00D+00 WtEn= 0.00D+00
 Coeff-Com: -0.936D-02 0.881D-01 0.325D+00 0.597D+00
 Coeff:     -0.936D-02 0.881D-01 0.325D+00 0.597D+00
 Gap=     0.272 Goal=   None    Shift=    0.000
 RMSDP=1.72D-07 MaxDP=4.40D-06 DE=-9.08D-09 OVMax= 6.31D-06

 Cycle  10  Pass 1  IDiag  1:
 E= -265.668527472135     Delta-E=       -0.000000000864 Rises=F Damp=F
 DIIS: error= 4.55D-07 at cycle   5 NSaved=   5.
 NSaved= 5 IEnMin= 5 EnMin= -265.668527472135     IErMin= 5 ErrMin= 4.55D-07
 ErrMax= 4.55D-07  0.00D+00 EMaxC= 1.00D-01 BMatC= 4.85D-11 BMatP= 1.03D-09
 IDIUse=1 WtCom= 1.00D+00 WtEn= 0.00D+00
 Coeff-Com: -0.669D-02 0.340D-01 0.135D+00 0.294D+00 0.544D+00
 Coeff:     -0.669D-02 0.340D-01 0.135D+00 0.294D+00 0.544D+00
 Gap=     0.272 Goal=   None    Shift=    0.000
 RMSDP=4.17D-08 MaxDP=1.26D-06 DE=-8.64D-10 OVMax= 1.37D-06

 Cycle  11  Pass 1  IDiag  1:
 E= -265.668527472182     Delta-E=       -0.000000000046 Rises=F Damp=F
 DIIS: error= 5.17D-08 at cycle   6 NSaved=   6.
 NSaved= 6 IEnMin= 6 EnMin= -265.668527472182     IErMin= 6 ErrMin= 5.17D-08
 ErrMax= 5.17D-08  0.00D+00 EMaxC= 1.00D-01 BMatC= 1.63D-12 BMatP= 4.85D-11
 IDIUse=1 WtCom= 1.00D+00 WtEn= 0.00D+00
 Coeff-Com: -0.218D-02 0.894D-02 0.359D-01 0.817D-01 0.207D+00 0.669D+00
 Coeff:     -0.218D-02 0.894D-02 0.359D-01 0.817D-01 0.207D+00 0.669D+00
 Gap=     0.272 Goal=   None    Shift=    0.000
 RMSDP=9.58D-09 MaxDP=3.33D-07 DE=-4.64D-11 OVMax= 3.56D-07

 SCF Done:  E(RB3LYP) =  -265.668527472     A.U. after   11 cycles
            NFock= 11  Conv=0.96D-08     -V/T= 2.0070
 KE= 2.638203315760D+02 PE=-1.023743211904D+03 EE= 2.927188746139D+02
 Leave Link  502 at Fri Aug 26 09:20:01 2022, MaxMem= 24159191040 cpu:        57.0
 (Enter /public/home/users/caep010/software/Gaussian09/g09/l701.exe)
 Compute integral first derivatives.
 ... and contract with generalized density number  0.
 Leave Link  701 at Fri Aug 26 09:20:02 2022, MaxMem= 24159191040 cpu:        18.1
 (Enter /public/home/users/caep010/software/Gaussian09/g09/l702.exe)
 L702 exits ... SP integral derivatives will be done elsewhere.
 Leave Link  702 at Fri Aug 26 09:20:02 2022, MaxMem= 24159191040 cpu:         0.5
 (Enter /public/home/users/caep010/software/Gaussian09/g09/l703.exe)
 Compute integral first derivatives, UseDBF=F ICtDFT=           0.
 Integral derivatives from FoFJK, PRISM(SPDF).
 Calling FoFJK, ICntrl=      2127 FMM=F ISym2X=0 I1Cent= 0 IOpClX= 0 NMat=1 NMatS=1 NMatT=0.
 FoFJK:  IHMeth= 1 ICntrl=    2127 DoSepK=F KAlg= 0 I1Cent=   0 FoldK=F
 IRaf=         0 NMat=   1 IRICut=       1 DoRegI=T DoRafI=F ISym2E= 0.
 FoFCou: FMM=F IPFlag=           0 FMFlag=      100000 FMFlg1=         800
         NFxFlg=           0 DoJE=F BraDBF=F KetDBF=F FulRan=T
         wScrn=  0.000000 ICntrl=    2127 IOpCl=  0 I1Cent=           0 NGrid=           0
         NMat0=    1 NMatS0=      1 NMatT0=    0 NMatD0=    1 NMtDS0=    0 NMtDT0=    0
 Symmetry not used in FoFCou.
 Leave Link  703 at Fri Aug 26 09:20:03 2022, MaxMem= 24159191040 cpu:        36.5
 (Enter /public/home/users/caep010/software/Gaussian09/g09/l716.exe)
 Dipole        = 4.19499492D-01 9.40259535D-01 6.90930604D-01
 ***** Axes restored to original set *****
 -------------------------------------------------------------------
 Center     Atomic                   Forces (Hartrees/Bohr)
 Number     Number              X              Y              Z
 -------------------------------------------------------------------
      1        6           0.001543953   -0.000878674   -0.001684158
      2        7          -0.002133195   -0.001945771    0.005638017
      3        7          -0.002467008   -0.013774811   -0.001811178
      4        6           0.000118367    0.000814399   -0.000143140
      5        8           0.002464517    0.014840925    0.004068900
      6        1           0.001380649    0.000892537    0.000378519
      7        1          -0.000129924    0.000757204    0.001141260
      8        1           0.000928331    0.000144540   -0.001019629
      9        1           0.000385691    0.001362872   -0.003350563
     10        1          -0.001015353   -0.000514974   -0.000421482
     11        1          -0.000791638    0.000747880   -0.000147183
     12        1          -0.000026780   -0.000993111    0.000733000
     13        1          -0.000257608   -0.001453016   -0.003382364
 -------------------------------------------------------------------
 Cartesian Forces:  Max     0.014840925 RMS     0.003674325
 Leave Link  716 at Fri Aug 26 09:20:03 2022, MaxMem= 24159191040 cpu:         0.6
 (Enter /public/home/users/caep010/software/Gaussian09/g09/l103.exe)

 GradGradGradGradGradGradGradGradGradGradGradGradGradGradGradGradGradGrad
 Berny optimization.
 Using GEDIIS/GDIIS optimizer.
 FormGI is forming the generalized inverse of G from B-inverse, IUseBI=4.
 Internal  Forces:  Max     0.013358583 RMS     0.002385123
 Search for a local minimum.
 Step number   2 out of a maximum of   59
 All quantities printed in internal units (Hartrees-Bohrs-Radians)
 RMS Force = .23851D-02 SwitMx=.10000D-02 MixMth= 1
 Mixed Optimization -- RFO/linear search
 Update second derivatives using D2CorX and points    1    2
 DE= -5.76D-03 DEPred=-5.83D-03 R= 9.87D-01
 TightC=F SS=  1.41D+00  RLast= 3.21D-01 DXNew= 5.0454D-01 9.6228D-01
 Trust test= 9.87D-01 RLast= 3.21D-01 DXMaxT set to 5.05D-01
 ITU=  1  0
 Use linear search instead of GDIIS.
     Eigenvalues ---    0.00682   0.00753   0.00957   0.01717   0.02943
     Eigenvalues ---    0.03557   0.06668   0.07009   0.07629   0.07752
     Eigenvalues ---    0.12027   0.15576   0.16000   0.16000   0.16000
     Eigenvalues ---    0.16000   0.16000   0.16662   0.18886   0.21605
     Eigenvalues ---    0.25513   0.32045   0.32498   0.32560   0.32596
     Eigenvalues ---    0.32602   0.33063   0.34765   0.36092   0.39642
     Eigenvalues ---    0.42523   0.48079   0.52041
 RFO step:  Lambda=-2.05682608D-03 EMin= 6.82019708D-03
 Quartic linear search produced a step of  0.09191.
 Iteration  1 RMS(Cart)=  0.08732005 RMS(Int)=  0.00279703
 Iteration  2 RMS(Cart)=  0.00425308 RMS(Int)=  0.00005003
 Iteration  3 RMS(Cart)=  0.00000974 RMS(Int)=  0.00004967
 Iteration  4 RMS(Cart)=  0.00000000 RMS(Int)=  0.00004967
 ITry= 1 IFail=0 DXMaxC= 1.83D-01 DCOld= 1.00D+10 DXMaxT= 5.05D-01 DXLimC= 3.00D+00 Rises=F
 Variable       Old X    -DE/DX   Delta X   Delta X   Delta X     New X
                                 (Linear)    (Quad)   (Total)
    R1        2.78476  -0.00331   0.00050  -0.00971  -0.00921   2.77555
    R2        2.08064  -0.00012  -0.00163  -0.00107  -0.00270   2.07795
    R3        2.06502   0.00119  -0.00271   0.00275   0.00004   2.06506
    R4        2.06816  -0.00051  -0.00271  -0.00280  -0.00550   2.06265
    R5        2.70502  -0.00217   0.00166  -0.00480  -0.00314   2.70188
    R6        1.91657   0.00024  -0.00565  -0.00176  -0.00741   1.90916
    R7        2.76194  -0.00076  -0.00251  -0.00338  -0.00589   2.75606
    R8        2.61509   0.01336   0.00295   0.02902   0.03197   2.64706
    R9        2.08909  -0.00014  -0.00096  -0.00085  -0.00180   2.08729
   R10        2.06609  -0.00061  -0.00291  -0.00323  -0.00614   2.05995
   R11        2.06382   0.00087  -0.00323   0.00150  -0.00173   2.06209
   R12        1.84967  -0.00330  -0.00241  -0.00826  -0.01067   1.83900
    A1        2.02623  -0.00082   0.00752  -0.00328   0.00424   2.03047
    A2        1.90169   0.00103  -0.00410   0.00439   0.00030   1.90199
    A3        1.88531  -0.00153  -0.00113  -0.00922  -0.01044   1.87487
    A4        1.90196  -0.00060  -0.00259  -0.00753  -0.01004   1.89192
    A5        1.87835   0.00156   0.00047   0.01199   0.01238   1.89073
    A6        1.86366   0.00046  -0.00047   0.00440   0.00385   1.86751
    A7        2.04409  -0.00408   0.00535  -0.01413  -0.00878   2.03531
    A8        1.91306   0.00248   0.00161   0.02199   0.02366   1.93672
    A9        1.83868   0.00058  -0.00446   0.00293  -0.00157   1.83710
   A10        2.02466  -0.00298   0.00313  -0.01646  -0.01345   2.01120
   A11        1.90079   0.00151  -0.00181   0.00433   0.00238   1.90316
   A12        1.90465   0.00042  -0.00558  -0.00325  -0.00888   1.89577
   A13        1.98414  -0.00100   0.00285  -0.00727  -0.00441   1.97973
   A14        1.89217  -0.00080  -0.00113  -0.00472  -0.00587   1.88630
   A15        1.89604   0.00143  -0.00255   0.00903   0.00648   1.90252
   A16        1.88917   0.00075   0.00015   0.00382   0.00396   1.89313
   A17        1.90435  -0.00065  -0.00049  -0.00663  -0.00710   1.89725
   A18        1.89632   0.00033   0.00117   0.00635   0.00750   1.90382
   A19        1.89097  -0.00198  -0.00048  -0.01334  -0.01382   1.87715
    D1       -1.14839   0.00070   0.00395   0.03631   0.04029  -1.10810
    D2        0.94387   0.00057   0.00299   0.04772   0.05080   0.99467
    D3        1.00605   0.00013   0.00291   0.02742   0.03024   1.03629
    D4        3.09831  -0.00001   0.00195   0.03883   0.04076   3.13906
    D5        3.02439   0.00039  -0.00060   0.02998   0.02935   3.05374
    D6       -1.16653   0.00026  -0.00156   0.04139   0.03986  -1.12667
    D7        0.86291  -0.00130  -0.01146  -0.13553  -0.14706   0.71584
    D8       -1.29323  -0.00091  -0.00486  -0.12262  -0.12751  -1.42074
    D9       -1.26836  -0.00233  -0.01365  -0.15717  -0.17079  -1.43915
   D10        2.85870  -0.00194  -0.00705  -0.14427  -0.15124   2.70745
   D11       -1.22808   0.00041   0.00380   0.05692   0.06070  -1.16738
   D12        2.95346   0.00068   0.00257   0.06007   0.06261   3.01607
   D13        0.89566  -0.00006   0.00328   0.05012   0.05335   0.94901
   D14        0.92604   0.00058  -0.00085   0.04791   0.04711   0.97315
   D15       -1.17561   0.00085  -0.00208   0.05106   0.04902  -1.12659
   D16        3.04978   0.00011  -0.00136   0.04111   0.03977   3.08955
   D17        1.36403  -0.00232  -0.00817  -0.07055  -0.07865   1.28538
   D18       -0.86198   0.00010  -0.00671  -0.05044  -0.05722  -0.91920
         Item               Value     Threshold  Converged?
 Maximum Force            0.013359     0.000450     NO 
 RMS     Force            0.002385     0.000300     NO 
 Maximum Displacement     0.183192     0.001800     NO 
 RMS     Displacement     0.086990     0.001200     NO 
 Predicted change in Energy=-1.197241D-03
 Lowest energy point so far.  Saving SCF results.
 GradGradGradGradGradGradGradGradGradGradGradGradGradGradGradGradGradGrad

 Leave Link  103 at Fri Aug 26 09:20:03 2022, MaxMem= 24159191040 cpu:         1.4
 (Enter /public/home/users/caep010/software/Gaussian09/g09/l202.exe)
                          Input orientation:                          
 ---------------------------------------------------------------------
 Center     Atomic      Atomic             Coordinates (Angstroms)
 Number     Number       Type             X           Y           Z
 ---------------------------------------------------------------------
      1          6           0       -1.499948   -0.160680   -0.065736
      2          7           0       -0.612177   -0.032578   -1.228795
      3          7           0        0.756384    0.280863   -0.958522
      4          6           0        1.340042   -0.415249    0.182454
      5          8           0        0.876620    1.660766   -0.749837
      6          1           0       -1.269613   -0.974917    0.636467
      7          1           0       -1.499626    0.781959    0.487077
      8          1           0       -2.513399   -0.309082   -0.442943
      9          1           0       -0.588215   -0.890658   -1.761518
     10          1           0        0.900155   -0.117111    1.150770
     11          1           0        2.406951   -0.192814    0.204750
     12          1           0        1.202340   -1.489795    0.051575
     13          1           0        0.500386    1.859098    0.125460
 ---------------------------------------------------------------------
                    Distance matrix (angstroms):
                    1          2          3          4          5
     1  C    0.000000
     2  N    1.468760   0.000000
     3  N    2.466386   1.429773   0.000000
     4  C    2.862158   2.439102   1.458443   0.000000
     5  O    3.071438   2.305066   1.400764   2.322448   0.000000
     6  H    1.099602   2.190759   2.868037   2.707333   3.670828
     7  H    1.092781   2.096486   2.725882   3.096743   2.819361
     8  H    1.091509   2.075732   3.362341   3.905304   3.932774
     9  H    2.059078   1.010281   1.955814   2.779067   3.111110
    10  H    2.691149   2.820749   2.151317   1.104546   2.602634
    11  H    3.916383   3.346022   2.074113   1.090078   2.586292
    12  H    3.013747   2.656181   2.086720   1.091210   3.267168
    13  H    2.849105   2.578806   1.931678   2.425062   0.973155
                    6          7          8          9         10
     6  H    0.000000
     7  H    1.778156   0.000000
     8  H    1.776363   1.755860   0.000000
     9  H    2.494340   2.946947   2.404829   0.000000
    10  H    2.389191   2.647219   3.772152   3.360810   0.000000
    11  H    3.783542   4.036240   4.964159   3.650236   1.780763
    12  H    2.591863   3.556846   3.930057   2.617701   1.784322
    13  H    3.380188   2.300227   3.755927   3.508119   2.261963
                   11         12         13
    11  H    0.000000
    12  H    1.776714   0.000000
    13  H    2.802074   3.422467   0.000000
 Stoichiometry    C2H8N2O
 Framework group  C1[X(C2H8N2O)]
 Deg. of freedom    33
 Full point group                 C1      NOp   1
 RotChk:  IX=0 Diff= 1.73D-01
 Largest Abelian subgroup         C1      NOp   1
 Largest concise Abelian subgroup C1      NOp   1
                         Standard orientation:                         
 ---------------------------------------------------------------------
 Center     Atomic      Atomic             Coordinates (Angstroms)
 Number     Number       Type             X           Y           Z
 ---------------------------------------------------------------------
      1          6           0        1.686973    0.063596    0.446992
      2          7           0        0.814096   -0.320487   -0.670067
      3          7           0       -0.584718   -0.076062   -0.503258
      4          6           0       -0.922938    1.194368    0.128147
      5          8           0       -1.143046   -1.114228    0.253459
      6          1           0        1.724688    1.135234    0.690494
      7          1           0        1.379870   -0.482901    1.342090
      8          1           0        2.697338   -0.268385    0.201340
      9          1           0        1.070908    0.170482   -1.514854
     10          1           0       -0.609520    1.256513    1.185468
     11          1           0       -2.004938    1.318109    0.080873
     12          1           0       -0.446668    2.004662   -0.426226
     13          1           0       -0.857161   -0.991832    1.175587
 ---------------------------------------------------------------------
 Rotational constants (GHZ):      7.3010586      4.2424300      3.4532249
 Leave Link  202 at Fri Aug 26 09:20:03 2022, MaxMem= 24159191040 cpu:         0.2
 (Enter /public/home/users/caep010/software/Gaussian09/g09/l301.exe)
 Standard basis: GTBas3 (6D, 7F)
 Ernie: Thresh=  0.10000D-02 Tol=  0.10000D-05 Strict=F.
 There are   195 symmetry adapted cartesian basis functions of A   symmetry.
 There are   180 symmetry adapted basis functions of A   symmetry.
   180 basis functions,   276 primitive gaussians,   195 cartesian basis functions
    21 alpha electrons       21 beta electrons
       nuclear repulsion energy       201.6622054190 Hartrees.
 IExCor=  402 DFT=T Ex+Corr=B3LYP ExCW=0 ScaHFX=  0.200000
 ScaDFX=  0.800000  0.720000  1.000000  0.810000 ScalE2=  1.000000  1.000000
 IRadAn=      0 IRanWt=     -1 IRanGd=            0 ICorTp=0 IEmpDi=  4
 NAtoms=   13 NActive=   13 NUniq=   13 SFac= 1.00D+00 NAtFMM=   60 NAOKFM=F Big=F
 Integral buffers will be    131072 words long.
 Raffenetti 2 integral format.
 Two-electron integral symmetry is turned on.
 Leave Link  301 at Fri Aug 26 09:20:03 2022, MaxMem= 24159191040 cpu:         1.6
 (Enter /public/home/users/caep010/software/Gaussian09/g09/l302.exe)
 NPDir=0 NMtPBC=     1 NCelOv=     1 NCel=       1 NClECP=     1 NCelD=      1
         NCelK=      1 NCelE2=     1 NClLst=     1 CellRange=     0.0.
 One-electron integrals computed using PRISM.
 NBasis=   180 RedAO= T EigKep=  3.53D-04  NBF=   180
 NBsUse=   180 1.00D-06 EigRej= -1.00D+00 NBFU=   180
 Precomputing XC quadrature grid using
 IXCGrd= 4 IRadAn=           0 IRanWt=          -1 IRanGd=           0 AccXCQ= 0.00D+00.
 Generated NRdTot=       0 NPtTot=           0 NUsed=           0 NTot=          32
 NSgBfM=   195   195   195   195   195 MxSgAt=    13 MxSgA2=    13.
 Leave Link  302 at Fri Aug 26 09:20:04 2022, MaxMem= 24159191040 cpu:        14.1
 (Enter /public/home/users/caep010/software/Gaussian09/g09/l303.exe)
 DipDrv:  MaxL=1.
 Leave Link  303 at Fri Aug 26 09:20:04 2022, MaxMem= 24159191040 cpu:         0.7
 (Enter /public/home/users/caep010/software/Gaussian09/g09/l401.exe)
 Initial guess from the checkpoint file:  "G4.Frag_1094.chk"
 B after Tr=     0.000000   -0.000000    0.000000
         Rot=    0.998295    0.045338    0.001638    0.036715 Ang=   6.69 deg.
 Guess basis will be translated and rotated to current coordinates.
 JPrj=2 DoOrth=T DoCkMO=T.
 Generating alternative initial guess.
 ExpMin= 1.61D-01 ExpMax= 5.48D+03 ExpMxC= 8.25D+02 IAcc=1 IRadAn=         1 AccDes= 0.00D+00
 Harris functional with IExCor=  402 and IRadAn=       1 diagonalized for initial guess.
 HarFok:  IExCor=  402 AccDes= 0.00D+00 IRadAn=         1 IDoV= 1 UseB2=F ITyADJ=14
 ICtDFT=  3500011 ScaDFX=  1.000000  1.000000  1.000000  1.000000
 FoFCou: FMM=F IPFlag=           0 FMFlag=      100000 FMFlg1=           0
         NFxFlg=           0 DoJE=T BraDBF=F KetDBF=T FulRan=T
         wScrn=  0.000000 ICntrl=     500 IOpCl=  0 I1Cent=   200000004 NGrid=           0
         NMat0=    1 NMatS0=      1 NMatT0=    0 NMatD0=    1 NMtDS0=    0 NMtDT0=    0
 Petite list used in FoFCou.
 Harris En= -265.687382230023    
 Leave Link  401 at Fri Aug 26 09:20:05 2022, MaxMem= 24159191040 cpu:        18.7
 (Enter /public/home/users/caep010/software/Gaussian09/g09/l502.exe)
 Closed shell SCF:
 Using DIIS extrapolation, IDIIS=  1040.
 Integral symmetry usage will be decided dynamically.
 Keep R1 ints in memory in canonical form, NReq=136595160.
 IVT=      140295 IEndB=      140295 NGot= 24159191040 MDV= 24026360551
 LenX= 24026360551 LenY= 24026322085
 Requested convergence on RMS density matrix=1.00D-08 within 128 cycles.
 Requested convergence on MAX density matrix=1.00D-06.
 Requested convergence on             energy=1.00D-06.
 No special actions if energy rises.
 FoFCou: FMM=F IPFlag=           0 FMFlag=           0 FMFlg1=           0
         NFxFlg=           0 DoJE=F BraDBF=F KetDBF=F FulRan=T
         wScrn=  0.000000 ICntrl=     600 IOpCl=  0 I1Cent=           0 NGrid=           0
         NMat0=    1 NMatS0=  16290 NMatT0=    0 NMatD0=    1 NMtDS0=    0 NMtDT0=    0
 Symmetry not used in FoFCou.
 Integral accuracy reduced to 1.0D-05 until final iterations.

 Cycle   1  Pass 0  IDiag  1:
 E= -265.661925094112    
 DIIS: error= 3.53D-03 at cycle   1 NSaved=   1.
 NSaved= 1 IEnMin= 1 EnMin= -265.661925094112     IErMin= 1 ErrMin= 3.53D-03
 ErrMax= 3.53D-03  0.00D+00 EMaxC= 1.00D-01 BMatC= 5.39D-03 BMatP= 5.39D-03
 IDIUse=3 WtCom= 9.65D-01 WtEn= 3.53D-02
 Coeff-Com:  0.100D+01
 Coeff-En:   0.100D+01
 Coeff:      0.100D+01
 Gap=     1.144 Goal=   None    Shift=    0.000
 GapD=    1.144 DampG=2.000 DampE=1.000 DampFc=2.0000 IDamp=-1.
 RMSDP=6.33D-04 MaxDP=2.03D-02              OVMax= 2.58D-02

 Cycle   2  Pass 0  IDiag  1:
 E= -265.669720268364     Delta-E=       -0.007795174252 Rises=F Damp=F
 DIIS: error= 5.37D-04 at cycle   2 NSaved=   2.
 NSaved= 2 IEnMin= 2 EnMin= -265.669720268364     IErMin= 2 ErrMin= 5.37D-04
 ErrMax= 5.37D-04  0.00D+00 EMaxC= 1.00D-01 BMatC= 1.86D-04 BMatP= 5.39D-03
 IDIUse=3 WtCom= 9.95D-01 WtEn= 5.37D-03
 Coeff-Com: -0.190D-01 0.102D+01
 Coeff-En:   0.000D+00 0.100D+01
 Coeff:     -0.189D-01 0.102D+01
 Gap=     0.281 Goal=   None    Shift=    0.000
 RMSDP=1.38D-04 MaxDP=5.82D-03 DE=-7.80D-03 OVMax= 5.51D-03

 Cycle   3  Pass 0  IDiag  1:
 E= -265.669630391866     Delta-E=        0.000089876498 Rises=F Damp=F
 DIIS: error= 8.04D-04 at cycle   3 NSaved=   3.
 NSaved= 3 IEnMin= 2 EnMin= -265.669720268364     IErMin= 2 ErrMin= 5.37D-04
 ErrMax= 8.04D-04  0.00D+00 EMaxC= 1.00D-01 BMatC= 3.77D-04 BMatP= 1.86D-04
 IDIUse=3 WtCom= 2.61D-01 WtEn= 7.39D-01
 Coeff-Com: -0.433D-01 0.626D+00 0.418D+00
 Coeff-En:   0.000D+00 0.607D+00 0.393D+00
 Coeff:     -0.113D-01 0.612D+00 0.400D+00
 Gap=     0.282 Goal=   None    Shift=    0.000
 RMSDP=7.90D-05 MaxDP=3.87D-03 DE= 8.99D-05 OVMax= 4.05D-03

 Cycle   4  Pass 0  IDiag  1:
 E= -265.669898910200     Delta-E=       -0.000268518335 Rises=F Damp=F
 DIIS: error= 8.18D-05 at cycle   4 NSaved=   4.
 NSaved= 4 IEnMin= 4 EnMin= -265.669898910200     IErMin= 4 ErrMin= 8.18D-05
 ErrMax= 8.18D-05  0.00D+00 EMaxC= 1.00D-01 BMatC= 3.55D-06 BMatP= 1.86D-04
 IDIUse=1 WtCom= 1.00D+00 WtEn= 0.00D+00
[...]
 Alpha virt. eigenvalues --   12.17319  12.19974  12.24766  12.29686  12.34714
 Alpha virt. eigenvalues --   12.36745  12.40212  12.45602  12.55749  12.63868
 Alpha virt. eigenvalues --   12.65086  12.71029  12.75182  12.77102  12.81777
 Alpha virt. eigenvalues --   12.84027  12.91165  12.95933  13.04703  13.12814
 Alpha virt. eigenvalues --   13.17476  13.24669  13.30526  13.34003  13.41509
 Alpha virt. eigenvalues --   13.59464  13.67030  13.74590  13.78431  13.92584
 Alpha virt. eigenvalues --   14.07281  14.16562  14.27052  14.27987  14.31387
 Alpha virt. eigenvalues --   14.34702  14.50713  14.55900  14.61425  14.65308
 Alpha virt. eigenvalues --   14.72172  14.73979  14.81647  14.84214  14.90677
 Alpha virt. eigenvalues --   14.94075  14.98515  15.02565  15.06159  15.14910
 Alpha virt. eigenvalues --   15.16951  15.20449  15.27531  15.32092  15.35877
 Alpha virt. eigenvalues --   15.39054  15.44024  15.45332  15.59541  15.63709
 Alpha virt. eigenvalues --   15.65480  15.71121  15.79055  15.79576  15.85848
 Alpha virt. eigenvalues --   15.92354  15.99982  16.04041  16.04411  16.10067
 Alpha virt. eigenvalues --   16.20823  16.35385  16.41108  16.43163  16.48751
 Alpha virt. eigenvalues --   16.54128  16.72423  16.78263  17.36008  17.40289
 Alpha virt. eigenvalues --   17.50202  17.51289  17.54086  17.56587  17.63048
 Alpha virt. eigenvalues --   17.65377  17.89091  18.36421  18.46652  18.48883
 Alpha virt. eigenvalues --   18.64096  18.70396  18.79383  18.87460  18.92901
 Alpha virt. eigenvalues --   19.03180  19.03939  19.07216  19.13305  19.28603
 Alpha virt. eigenvalues --   19.36666  19.40459  19.44668  19.54132  19.55003
 Alpha virt. eigenvalues --   19.60363  19.80646  19.86503  19.91939  20.07316
 Alpha virt. eigenvalues --   20.19715  20.28877  20.32594  20.37510  21.77336
 Alpha virt. eigenvalues --   22.29636  22.43116  22.79193  22.98137  23.72001
 Alpha virt. eigenvalues --   24.16663  40.25469  40.30967  50.91292  51.15976
 Alpha virt. eigenvalues --   62.98724
          Condensed to atoms (all electrons):
               1          2          3          4          5          6
     1  C    4.996430   0.256801   0.002399  -0.030501  -0.002611   0.437151
     2  N    0.256801   6.741186   0.135893  -0.013585  -0.022356  -0.062441
     3  N    0.002399   0.135893   6.603017   0.277233   0.027919  -0.003110
     4  C   -0.030501  -0.013585   0.277233   4.990560  -0.003816  -0.001430
     5  O   -0.002611  -0.022356   0.027919  -0.003816   8.257309  -0.000321
     6  H    0.437151  -0.062441  -0.003110  -0.001430  -0.000321   0.552680
     7  H    0.407878  -0.034771   0.010596  -0.003087  -0.000901  -0.040905
     8  H    0.410005  -0.029657   0.002168   0.002249   0.000425  -0.026229
     9  H   -0.051401   0.418439  -0.056299   0.004943   0.006373  -0.004784
    10  H    0.006117  -0.019031   0.001728   0.396268  -0.015186  -0.002845
    11  H   -0.001366   0.013166  -0.051377   0.426970  -0.003054  -0.000267
    12  H   -0.003980   0.004750  -0.048771   0.425136   0.007410   0.000844
    13  H    0.009958  -0.015142   0.002827  -0.007607   0.249130   0.000027
               7          8          9         10         11         12
     1  C    0.407878   0.410005  -0.051401   0.006117  -0.001366  -0.003980
     2  N   -0.034771  -0.029657   0.418439  -0.019031   0.013166   0.004750
     3  N    0.010596   0.002168  -0.056299   0.001728  -0.051377  -0.048771
     4  C   -0.003087   0.002249   0.004943   0.396268   0.426970   0.425136
     5  O   -0.000901   0.000425   0.006373  -0.015186  -0.003054   0.007410
     6  H   -0.040905  -0.026229  -0.004784  -0.002845  -0.000267   0.000844
     7  H    0.522560  -0.017395   0.005516  -0.001553   0.000122   0.000232
     8  H   -0.017395   0.471470  -0.000704  -0.000100   0.000058   0.000008
     9  H    0.005516  -0.000704   0.363604  -0.000756   0.000050  -0.000173
    10  H   -0.001553  -0.000100  -0.000756   0.538255  -0.027047  -0.032113
    11  H    0.000122   0.000058   0.000050  -0.027047   0.456628  -0.016623
    12  H    0.000232   0.000008  -0.000173  -0.032113  -0.016623   0.488349
    13  H   -0.001369  -0.000460  -0.000968   0.009834  -0.002556  -0.000589
              13
     1  C    0.009958
     2  N   -0.015142
     3  N    0.002827
     4  C   -0.007607
     5  O    0.249130
     6  H    0.000027
     7  H   -0.001369
     8  H   -0.000460
     9  H   -0.000968
    10  H    0.009834
    11  H   -0.002556
    12  H   -0.000589
    13  H    0.415183
 Mulliken charges:
               1
     1  C   -0.436879
     2  N   -0.373252
     3  N    0.095776
     4  C   -0.463334
     5  O   -0.500323
     6  H    0.151632
     7  H    0.153078
     8  H    0.188161
     9  H    0.316163
    10  H    0.146431
    11  H    0.205296
    12  H    0.175519
    13  H    0.341733
 Sum of Mulliken charges =  -0.00000
 Mulliken charges with hydrogens summed into heavy atoms:
               1
     1  C    0.055992
     2  N   -0.057090
     3  N    0.095776
     4  C    0.063912
     5  O   -0.158590
 Electronic spatial extent (au):  <R**2>=            441.7222
 Charge=             -0.0000 electrons
 Dipole moment (field-independent basis, Debye):
    X=              2.1370    Y=              2.4078    Z=              1.3064  Tot=              3.4743
 Quadrupole moment (field-independent basis, Debye-Ang):
   XX=            -32.4614   YY=            -34.0540   ZZ=            -28.9028
   XY=             -2.1589   XZ=             -2.1736   YZ=             -1.9387
 Traceless Quadrupole moment (field-independent basis, Debye-Ang):
   XX=             -0.6554   YY=             -2.2479   ZZ=              2.9033
   XY=             -2.1589   XZ=             -2.1736   YZ=             -1.9387
 Octapole moment (field-independent basis, Debye-Ang**2):
  XXX=              4.1030  YYY=              1.7857  ZZZ=              0.8293  XYY=             -1.1098
  XXY=              2.3949  XXZ=             -1.2493  XZZ=              0.8508  YZZ=             -4.2928
  YYZ=              1.2877  XYZ=              0.6919
 Hexadecapole moment (field-independent basis, Debye-Ang**3):
 XXXX=           -306.2098 YYYY=           -173.7489 ZZZZ=            -76.9877 XXXY=             -8.9397
 XXXZ=             -4.6630 YYYX=              3.4866 YYYZ=             -6.3360 ZZZX=            -12.4201
 ZZZY=             -4.7316 XXYY=            -83.7483 XXZZ=            -65.0486 YYZZ=            -40.4134
 XXYZ=             -0.9791 YYXZ=             -1.4375 ZZXY=              3.0989
 N-N= 2.009116441536D+02 E-N=-1.021990826443D+03  KE= 2.637834139735D+02
 No NMR shielding tensors so no spin-rotation constants.
 Leave Link  601 at Fri Aug 26 09:31:11 2022, MaxMem= 24159191040 cpu:        25.0
 (Enter /public/home/users/caep010/software/Gaussian09/g09/l9999.exe)
 1\1\GINC-B1538\SP\RHF\GFHFB2\C2H8N2O1\ROOT\26-Aug-2022\0\\#P Geom=AllC
 heck Guess=TCheck SCRF=Check HF/GFHFB2 SCF=Tight\\Frag_1094\\0,1\C,0,-
 1.5010475091,-0.210862772,-0.0442222627\N,0,-0.6060560921,0.0116175367
 ,-1.1758284795\N,0,0.7615781107,0.2403166306,-0.9439449558\C,0,1.33361
 33201,-0.409520025,0.2308204771\O,0,1.0002507338,1.637680129,-0.826362
 5114\H,0,-1.2721430799,-1.0916432455,0.5757112741\H,0,-1.5144248148,0.
 6695059171,0.6079236405\H,0,-2.5126785862,-0.3278922779,-0.4426847622\
 H,0,-0.6843996189,-0.7095036643,-1.8799824318\H,0,0.9030017536,-0.0603
 45485,1.1848657601\H,0,2.4047687555,-0.2021181716,0.2390309119\H,0,1.1
 799695963,-1.4897811376,0.1505773118\H,0,0.507467431,1.9423465656,-0.0
 44703972\\Version=ES64L-G09RevE.01\State=1-A\HF=-264.1594424\RMSD=2.25
 5e-09\Dipole=-0.5818435,-0.7659124,0.9712298\Quadrupole=0.0414396,0.38
 57088,-0.4271484,-0.6754382,1.2679529,2.9799336\PG=C01 [X(C2H8N2O1)]\\
 @


 WOMEN HOLD UP HALF THE SKY. -- MAO TSE TUNG
 Diagonal vibrational polarizability:
        0.0000000       0.0000000       0.0000000

 Temperature=              298.150000 Pressure=                      1.000000
 E(ZPE)=                     0.110632 E(Thermal)=                    0.117132
 E(CCSD(T))=              -264.868363 E(Empiric)=                   -0.111152
 DE(Plus)=                  -0.022950 DE(2DF)=                      -0.234061
 E(Delta-G3XP)=             -0.337835 DE(HF)=                       -0.027226
 G4(0 K)=                 -265.490956 G4 Energy=                  -265.484456
 G4 Enthalpy=             -265.483512 G4 Free Energy=             -265.520180
 1\1\GINC-B1538\Mixed\G4\G4\C2H8N2O1\ROOT\26-Aug-2022\0\\#P Geom=AllChe
 ck Guess=TCheck SCRF=Check HF/GFHFB2 SCF=Tight\\Frag_1094\\0,1\C,0,-1.
 5010475091,-0.210862772,-0.0442222627\N,0,-0.6060560921,0.0116175367,-
 1.1758284795\N,0,0.7615781107,0.2403166306,-0.9439449558\C,0,1.3336133
 201,-0.409520025,0.2308204771\O,0,1.0002507338,1.637680129,-0.82636251
 14\H,0,-1.2721430799,-1.0916432455,0.5757112741\H,0,-1.5144248148,0.66
 95059171,0.6079236405\H,0,-2.5126785862,-0.3278922779,-0.4426847622\H,
 0,-0.6843996189,-0.7095036643,-1.8799824318\H,0,0.9030017536,-0.060345
 485,1.1848657601\H,0,2.4047687555,-0.2021181716,0.2390309119\H,0,1.179
 9695963,-1.4897811376,0.1505773118\H,0,0.507467431,1.9423465656,-0.044
 703972\\Version=ES64L-G09RevE.01\State=1-A\MP2/GTBas1=-264.7981159\MP4
 /GTBas1=-264.8675486\CCSD(T)/G3Bas1=-264.8683632\MP2/GTBas2=-264.81932
 67\MP4/GTBas2=-264.8904987\MP2/GTBas3=-265.018256\MP4/GTBas3=-265.1016
 101\HF/GTLargeXP=-264.1333615\MP2/GTLargeXP=-265.3773022\HF/GFHFB1=-26
 4.1547447\HF/GFHFB2=-264.1594424\G4=-265.490956\FreqCoord=-2.836568704
 6,-0.3984728907,-0.0835679656,-1.1452800352,0.0219539626,-2.2219938054
 ,1.439174058,0.4541326171,-1.7837974509,2.5201639421,-0.7738806931,0.4
 361874876,1.8901999512,3.0947669371,-1.5615988329,-2.4040020228,-2.062
 9067689,1.0879366396,-2.8618481487,1.2651828277,1.1488091902,-4.748274
 388,-0.6196266064,-0.8365529638,-1.2933278451,-1.3407676159,-3.5526519
 308,1.7064260117,-0.11403644,2.2390717909,4.5443543607,-0.3819479908,0
 .4517029607,2.2298193821,-2.8152783481,0.2845498811,0.9589744659,3.670
 5030641,-0.0844782641\PG=C01 [X(C2H8N2O1)]\NImag=0\\0.53553005,-0.0015
 5420,0.55402705,0.06359269,0.03031231,0.51740383,-0.11164760,-0.039350
 76,0.05451360,0.41097309,-0.01027851,-0.07233587,-0.01831136,0.1196134
 5,0.37905725,0.04013700,0.01213976,-0.17969555,-0.02972286,0.23564403,
 0.54246266,-0.04579461,0.00520922,0.00096922,-0.17715196,-0.04421822,0
 .00459337,0.39421518,-0.01215784,-0.00145931,0.00690794,0.00303049,-0.
 08461573,0.00538786,0.00306615,0.40499010,0.02364438,0.00702529,0.0144
 7633,-0.05864288,-0.02418457,-0.09280406,0.09600320,-0.03978081,0.3508
 7376,-0.00088843,0.00093439,-0.00402088,-0.03537292,0.01127035,-0.0353
 3859,-0.09268838,0.00639685,-0.02035824,0.58157744,-0.00043334,-0.0007
 3300,-0.00175752,-0.00187866,0.00764623,-0.00401192,0.01439510,-0.0915
 5027,0.02225617,0.04028861,0.57625001,0.00132154,-0.00255109,0.0074209
 7,0.00125819,-0.00373558,-0.01112676,-0.06300661,0.06943927,-0.1568993
 0,-0.02520507,0.03885922,0.47392955,0.00189760,-0.00305077,-0.00262680
 ,-0.02571408,-0.05131783,-0.01144723,-0.06384361,0.02441407,0.01120874
 ,0.00432395,0.00794848,0.00645954,0.22446429,0.00314094,-0.00107744,0.
 00052709,-0.03589866,-0.01945662,-0.02479255,-0.01342712,-0.17372961,0
 .04575063,-0.00122259,-0.05449766,-0.00921419,-0.00836268,0.31944696,0
 .00172109,0.00256067,-0.00083841,-0.00055226,-0.00959961,-0.00193104,-
 0.00058064,-0.03811438,-0.06188428,0.00199573,0.03549904,-0.00786890,-
 0.20415937,0.07626561,0.37805873,-0.06560777,0.04836738,-0.03151949,0.
 00289773,-0.01892020,0.01826867,0.00500531,0.00000932,0.00060021,-0.00
 049149,-0.00119752,-0.00097702,-0.00120069,-0.00062177,-0.00026322,0.0
 6690950,0.04835909,-0.20728071,0.09897408,-0.00657936,0.00233153,0.008
 59873,0.00220019,0.00103112,0.00041415,0.00018720,-0.00000855,0.001124
 58,-0.00069366,-0.00030546,-0.00063353,-0.05092342,0.22241945,-0.03142
 142,0.10076704,-0.11603021,0.00583135,0.02204317,-0.02468551,-0.006152
 55,-0.00292504,-0.00011868,0.00036889,0.00125277,0.00080928,0.00142375
 ,0.00066454,0.00057154,0.02970615,-0.11794389,0.13339428,-0.04777630,-
 0.00355131,-0.00328888,0.00075387,0.01708629,0.01989726,0.00088019,0.0
 0173672,-0.00148672,-0.00062954,0.00035576,0.00014016,0.00077297,-0.00
 075261,-0.00060615,0.00026380,0.00839118,0.00405947,0.04899451,-0.0023
 3399,-0.22217374,-0.12139358,0.00352260,0.00966989,0.00290488,-0.00054
 687,-0.00023294,-0.00085136,-0.00014369,-0.00028105,-0.00145077,0.0009
 1178,-0.00019383,-0.00012044,-0.00163376,-0.02163601,-0.01474081,0.001
 99566,0.23589024,0.00034704,-0.11709233,-0.13130002,0.00031432,-0.0213
 5985,-0.02472096,-0.00163465,-0.00135063,0.00076832,0.00030158,0.00057
 583,0.00021125,-0.00018643,0.00126395,0.00063263,-0.00040589,0.0136258
 8,0.01064576,-0.00486430,0.13309222,0.15176608,-0.26863148,-0.02497935
 ,-0.09240809,-0.02315562,-0.00689317,-0.00583516,-0.00251009,0.0016212
 9,0.00384555,0.00074525,-0.00054567,0.00181334,0.00026570,0.00038649,0
 .00008149,-0.00633558,-0.00057126,-0.00399103,0.00153743,0.00015375,-0
 .00005330,0.29714613,-0.02473012,-0.04933109,-0.00935961,-0.00524350,-
 0.00142502,-0.00236716,-0.00088136,0.00022999,0.00142643,0.00049889,-0
 .00033415,0.00037752,-0.00026131,0.00068720,0.00002895,0.02459131,0.00
 303617,0.01054794,-0.02473720,-0.00290771,-0.00958352,0.02998072,0.049
 31796,-0.10040424,-0.01220891,-0.08716098,0.03063049,0.00763615,0.0093
 8841,0.00532580,-0.00073306,-0.00390790,-0.00053734,0.00025130,-0.0023
 7691,0.00008360,-0.00010893,0.00007687,-0.01435410,-0.00274802,-0.0057
 9259,-0.01694390,-0.00079298,-0.00677254,0.09736400,0.00934030,0.09395
 654,0.00261219,0.01846223,0.01432288,-0.04490144,-0.01657065,0.0052251
 8,-0.02095575,-0.03068598,-0.02644933,-0.00142940,-0.00141293,-0.00164
 450,-0.00385671,-0.00367479,-0.00308889,0.00030733,-0.00076128,-0.0001
 6186,-0.00305593,-0.00090107,0.00495371,0.00010450,0.00017235,-0.00061
 522,0.07245830,-0.00060604,0.00041523,0.01513651,-0.03960673,-0.225585
 75,-0.23524445,0.00734422,-0.00354524,0.00591413,0.00208870,0.00081254
 ,0.00169189,-0.00550956,-0.00463013,-0.00242462,-0.00037435,0.00080540
 ,0.00127057,0.00040587,0.00087748,0.00034636,0.00096641,0.00029436,-0.
 00112266,0.03481121,0.23106031,0.00120691,-0.02007426,-0.02202431,-0.0
 0330834,-0.19423523,-0.21841035,-0.00978091,-0.00701423,-0.00309607,-0
 .00063060,-0.00117057,-0.00138428,0.00230108,0.00564952,0.00173445,-0.
 00096258,-0.00032590,0.00026058,0.00308566,0.00199958,-0.00203218,-0.0
 0008529,0.00003224,0.00106483,0.00839556,0.21406784,0.24375334,-0.0009
 6631,-0.00068775,0.00074429,0.00205841,-0.00027763,-0.00062804,0.00914
 122,-0.00308835,-0.01511969,-0.09186085,0.03600375,0.08118766,-0.00041
 132,-0.00365902,-0.00056828,-0.00148258,0.00008352,-0.00002799,-0.0007
 6650,-0.00024345,0.00024458,0.00049601,0.00014994,-0.00048890,-0.00011
 319,-0.00000977,0.00004795,0.09411846,0.00090458,0.00095071,-0.0012520
 0,-0.00174485,0.00034225,-0.00025990,-0.00597178,0.00193047,0.01739523
 ,0.03386215,-0.07903811,-0.06606564,-0.00138609,0.00697175,0.00228970,
 0.00006239,-0.00076892,-0.00002576,0.00019106,0.00031264,-0.00018678,-
 0.00007201,-0.00032294,0.00038486,0.00015058,-0.00029561,0.00005785,-0
 .03781346,0.07660034,0.00004105,-0.00053454,-0.00034290,0.00354762,0.0
 0118096,0.00276785,0.00394430,-0.00202179,-0.04158653,0.08164600,-0.06
 716557,-0.21250874,-0.00113092,-0.00238824,0.00483275,-0.00043997,-0.0
 0088102,0.00061649,-0.00004626,0.00073399,0.00038969,-0.00020553,-0.00
 012330,0.00089464,-0.00036659,-0.00000648,0.00012158,-0.08918453,0.070
 95880,0.24599361,0.00093608,0.00024025,-0.00088919,-0.00089215,0.00188
 137,-0.00149348,-0.01455590,-0.00366172,-0.00555520,-0.30756662,-0.052
 21808,0.00300798,0.00212258,-0.00037562,0.00154028,0.00028577,-0.00003
 830,0.00019581,-0.00005533,-0.00014997,0.00007061,-0.00000915,0.000007
 08,-0.00004569,-0.00008935,0.00027251,0.00003251,-0.01166480,-0.003032
 23,0.00096968,0.33374916,-0.00026602,-0.00057072,0.00051978,0.00253750
 ,0.00015667,0.00213369,0.01591970,0.00207167,0.00334387,-0.05819329,-0
 .05851473,-0.00178136,0.00067662,0.00017568,-0.00038741,0.00003155,0.0
 0015204,-0.00043896,0.00003849,0.00024381,-0.00004385,0.00000347,0.000
 12132,-0.00004694,0.00025177,-0.00031070,0.00030021,0.01215379,0.00211
 099,-0.00123468,0.05716206,0.05868553,0.00160178,0.00085254,-0.0020881
 1,-0.00566588,0.00386944,-0.00352117,-0.03151064,-0.00685709,-0.005557
 37,0.01013891,0.00164978,-0.04540935,0.00032629,-0.00069576,0.00103973
 ,0.00032936,-0.00089505,0.00057705,-0.00016559,0.00032780,0.00015326,-
 0.00009539,-0.00027359,0.00058031,-0.00010405,0.00019267,0.00023671,0.
 02636578,0.00518246,0.00011111,0.00119728,-0.00273441,0.05468240,-0.00
 059727,0.00106275,-0.00042093,0.00014365,-0.00066652,0.00099081,0.0012
 0033,0.01399983,0.00054077,-0.05468566,-0.04186032,-0.00451359,0.00097
 430,0.00373928,-0.00193338,-0.00061835,-0.00004278,0.00017641,0.000052
 09,-0.00016550,-0.00007355,-0.00000293,-0.00013914,0.00012489,-0.00007
 379,0.00001517,-0.00021342,0.00142184,0.01376430,0.00176216,-0.0017253
 6,-0.03043603,-0.00274262,0.05374543,0.00026947,-0.00034654,0.00002183
 ,-0.00049209,0.00168194,-0.00028255,-0.00419857,-0.01710457,-0.0011968
 2,-0.03663866,-0.30110204,-0.02127545,0.00212628,-0.00246619,0.0041101
 7,0.00056640,0.00022555,-0.00054807,-0.00015539,0.00022019,0.00000851,
 -0.00001240,0.00030292,-0.00016289,0.00052283,-0.00014424,0.00035801,-
 0.00234859,-0.00897032,-0.00114164,-0.00027506,-0.00410250,-0.00108454
 ,0.04114336,0.33103494,-0.00074984,-0.00066623,0.00036766,0.00066443,-
 0.00086824,0.00099244,0.00663198,0.02677463,0.00176984,-0.00618104,-0.
 02930022,-0.05247397,-0.00211808,0.00745452,-0.00227462,-0.00010720,0.
 00045681,-0.00020062,0.00000057,0.00015991,-0.00001005,-0.00012867,0.0
 0025561,0.00002696,-0.00027392,-0.00005544,-0.00008708,-0.00443720,-0.
 02617441,-0.00116596,0.00077560,0.00042419,-0.00050008,0.00630459,0.02
 087932,0.05455965,0.00093387,-0.00110207,0.00103159,0.00200902,-0.0007
 0875,-0.00464692,0.00705807,-0.00468083,-0.00823079,-0.00103336,0.0005
 5481,0.00015837,-0.13979498,0.06072814,0.20641359,0.00006701,0.0003888
 8,-0.00000698,-0.00097126,-0.00046548,0.00098628,0.00034983,0.00059235
 ,-0.00013939,-0.00100678,0.00020237,-0.00008853,0.00002962,0.00108536,
 -0.00053701,-0.00053491,0.00012040,0.00032477,0.00016573,-0.00050758,-
 0.00038122,0.13272814,-0.00031401,-0.00008456,-0.00032548,0.00209055,0
 .00253323,0.00014958,0.02110934,-0.03801567,-0.03751234,0.00067108,0.0
 0135078,-0.00541841,0.03450469,-0.07092465,-0.06947415,0.00004267,-0.0
 0000161,0.00007650,-0.00100451,0.00021104,0.00070422,-0.00003828,0.000
 33098,0.00031177,-0.00036427,0.00024638,0.00035494,-0.00026299,0.00017
 675,0.00262351,0.00018772,-0.00021905,0.00046576,-0.00041440,0.0007708
 7,0.00065956,-0.05620758,0.10362551,-0.00103797,-0.00053026,-0.0001883
 1,0.00113223,0.00192069,0.00128402,-0.00480187,-0.00971270,-0.00203407
 ,-0.00217935,0.00306171,0.00767715,0.19986583,-0.10037619,-0.31214947,
 0.00012506,0.00023320,-0.00004737,0.00021866,0.00013157,0.00026876,-0.
 00030191,-0.00030182,0.00002235,-0.00019297,0.00023368,-0.00013722,0.0
 0186437,-0.00230439,-0.00012360,0.00019381,-0.00005415,-0.00030449,-0.
 00000214,0.00031411,-0.00100418,-0.19488376,0.10738454,0.30673644\\-0.
 00001906,-0.00000298,0.00003382,0.00000646,0.00001706,-0.00003620,-0.0
 0000302,-0.00001903,-0.00001342,0.00000765,-0.00001727,0.00002519,0.00
 000078,0.00001897,0.00002249,-0.00000744,0.00000832,-0.00000543,0.0000
 0181,0.00000292,-0.00001001,0.00000555,0.00000575,-0.00000861,0.000009
 41,0.00000012,0.00001262,0.00000313,0.00000232,-0.00000679,-0.00000322
 ,-0.00000934,0.00000797,-0.00000267,-0.00000711,0.00000330,0.00000061,
 0.00000027,-0.00002492\\\@
 Job cpu time:       0 days  2 hours 26 minutes 40.3 seconds.
 File lengths (MBytes):  RWF=   2612 Int=      0 D2E=      0 Chk=     28 Scr=      1
 Normal termination of Gaussian 09 at Fri Aug 26 09:31:11 2022.
