 Entering Gaussian System, Link 0=g09
 Input=G4.Frag_730.gjf
 Output=G4.Frag_730.log
 Initial command:
 /public/home/users/caep010/software/Gaussian09/g09/l1.exe "/public/home/users/caep010/.cache/gau_scr/Gau-90769.inp" -scrdir="/public/home/users/caep010/.cache/gau_scr/"
 Entering Link 1 = /public/home/users/caep010/software/Gaussian09/g09/l1.exe PID=     90770.
  
 Copyright (c) 1988,1990,1992,1993,1995,1998,2003,2009,2015,
            Gaussian, Inc.  All Rights Reserved.
  
 This is part of the Gaussian(R) 09 program.  It is based on
 the Gaussian(R) 03 system (copyright 2003, Gaussian, Inc.),
 the Gaussian(R) 98 system (copyright 1998, Gaussian, Inc.),
 the Gaussian(R) 94 system (copyright 1995, Gaussian, Inc.),
 the Gaussian 92(TM) system (copyright 1992, Gaussian, Inc.),
 the Gaussian 90(TM) system (copyright 1990, Gaussian, Inc.),
 the Gaussian 88(TM) system (copyright 1988, Gaussian, Inc.),
 the Gaussian 86(TM) system (copyright 1986, Carnegie Mellon
 University), and the Gaussian 82(TM) system (copyright 1983,
 Carnegie Mellon University). Gaussian is a federally registered
 trademark of Gaussian, Inc.
  
 This software contains proprietary and confidential information,
 including trade secrets, belonging to Gaussian, Inc.
  
 This software is provided under written license and may be
 used, copied, transmitted, or stored only in accord with that
 written license.
  
 The following legend is applicable only to US Government
 contracts under FAR:
  
                    RESTRICTED RIGHTS LEGEND
  
 Use, reproduction and disclosure by the US Government is
 subject to restrictions as set forth in subparagraphs (a)
 and (c) of the Commercial Computer Software - Restricted
 Rights clause in FAR 52.227-19.
  
 Gaussian, Inc.
 340 Quinnipiac St., Bldg. 40, Wallingford CT 06492
  
  
 ---------------------------------------------------------------
 Warning -- This program may not be used in any manner that
 competes with the business of Gaussian, Inc. or will provide
 assistance to any competitor of Gaussian, Inc.  The licensee
 of this program is prohibited from giving any competitor of
 Gaussian, Inc. access to this program.  By using this program,
 the user acknowledges that Gaussian, Inc. is engaged in the
 business of creating and licensing software in the field of
 computational chemistry and represents and warrants to the
 licensee that it is not a competitor of Gaussian, Inc. and that
 it will not use this program in any manner prohibited above.
 ---------------------------------------------------------------
  

 Cite this work as:
 Gaussian 09, Revision E.01,
 M. J. Frisch, G. W. Trucks, H. B. Schlegel, G. E. Scuseria, 
 M. A. Robb, J. R. Cheeseman, G. Scalmani, V. Barone, B. Mennucci, 
 G. A. Petersson, H. Nakatsuji, M. Caricato, X. Li, H. P. Hratchian, 
 A. F. Izmaylov, J. Bloino, G. Zheng, J. L. Sonnenberg, M. Hada, 
 M. Ehara, K. Toyota, R. Fukuda, J. Hasegawa, M. Ishida, T. Nakajima, 
 Y. Honda, O. Kitao, H. Nakai, T. Vreven, J. A. Montgomery, Jr., 
 J. E. Peralta, F. Ogliaro, M. Bearpark, J. J. Heyd, E. Brothers, 
 K. N. Kudin, V. N. Staroverov, T. Keith, R. Kobayashi, J. Normand, 
 K. Raghavachari, A. Rendell, J. C. Burant, S. S. Iyengar, J. Tomasi, 
 M. Cossi, N. Rega, J. M. Millam, M. Klene, J. E. Knox, J. B. Cross, 
 V. Bakken, C. Adamo, J. Jaramillo, R. Gomperts, R. E. Stratmann, 
 O. Yazyev, A. J. Austin, R. Cammi, C. Pomelli, J. W. Ochterski, 
 R. L. Martin, K. Morokuma, V. G. Zakrzewski, G. A. Voth, 
 P. Salvador, J. J. Dannenberg, S. Dapprich, A. D. Daniels, 
 O. Farkas, J. B. Foresman, J. V. Ortiz, J. Cioslowski, 
 and D. J. Fox, Gaussian, Inc., Wallingford CT, 2013.
 
 ******************************************
 Gaussian 09:  ES64L-G09RevE.01 30-Nov-2015
                23-Aug-2022 
 ******************************************
 %nproc=32
 Will use up to   32 processors via shared memory.
 %mem=180MB
 %chk=G4.Frag_730.chk
 -----
 #P G4
 -----
 1/14=-1,18=20,19=15,26=3,38=1/1,3;
 2/9=110,12=2,17=6,18=5,40=1/2;
 3/5=35,7=104,11=2,16=1,25=1,30=1,71=1,74=-5/1,2,3;
 4//1;
 5/5=2,38=5/2;
 6/7=2,8=2,9=2,10=2,28=1/1;
 7//1,2,3,16;
 1/14=-1,18=20,19=15,26=3/3(2);
 2/9=110/2;
 99//99;
 2/9=110/2;
 3/5=35,7=104,11=2,16=1,25=1,30=1,71=1,74=-5/1,2,3;
 4/5=5,16=3,69=1/1;
 5/5=2,38=5/2;
 7//1,2,3,16;
 1/14=-1,18=20,19=15,26=3/3(-5);
 2/9=110/2;
 6/7=2,8=2,9=2,10=2,19=2,28=1/1;
 99/9=1/99;
 Leave Link    1 at Tue Aug 23 08:54:18 2022, MaxMem=    23592960 cpu:         3.4
 (Enter /public/home/users/caep010/software/Gaussian09/g09/l101.exe)
 --------
 Frag_730
 --------
 Symbolic Z-matrix:
 Charge =  0 Multiplicity = 1
 C                     2.3017   -0.954     0.103 
 C                     1.2268   -0.434     0.2705 
 C                    -0.0832    0.1998    0.4754 
 C                    -1.1693   -0.5695   -0.2842 
 N                    -0.0238    1.5969    0.0451 
 H                     3.245    -1.4104   -0.0443 
 H                    -0.3145    0.1667    1.5622 
 H                    -0.9585   -0.5747   -1.3756 
 H                    -2.1593   -0.096    -0.1132 
 H                    -1.2188   -1.6192    0.0775 
 H                     0.0878    1.6375   -0.9951 
 H                    -0.9339    2.0568    0.2786 
 
 NAtoms=     12 NQM=       12 NQMF=       0 NMMI=      0 NMMIF=      0
                NMic=       0 NMicF=      0.
                    Isotopes and Nuclear Properties:
 (Nuclear quadrupole moments (NQMom) in fm**2, nuclear magnetic moments (NMagM)
  in nuclear magnetons)

  Atom         1           2           3           4           5           6           7           8           9          10
 IAtWgt=          12          12          12          12          14           1           1           1           1           1
 AtmWgt=  12.0000000  12.0000000  12.0000000  12.0000000  14.0030740   1.0078250   1.0078250   1.0078250   1.0078250   1.0078250
 NucSpn=           0           0           0           0           2           1           1           1           1           1
 AtZEff=   0.0000000   0.0000000   0.0000000   0.0000000   0.0000000   0.0000000   0.0000000   0.0000000   0.0000000   0.0000000
 NQMom=    0.0000000   0.0000000   0.0000000   0.0000000   2.0440000   0.0000000   0.0000000   0.0000000   0.0000000   0.0000000
 NMagM=    0.0000000   0.0000000   0.0000000   0.0000000   0.4037610   2.7928460   2.7928460   2.7928460   2.7928460   2.7928460
 AtZNuc=   6.0000000   6.0000000   6.0000000   6.0000000   7.0000000   1.0000000   1.0000000   1.0000000   1.0000000   1.0000000

  Atom        11          12
 IAtWgt=           1           1
 AtmWgt=   1.0078250   1.0078250
 NucSpn=           1           1
 AtZEff=   0.0000000   0.0000000
 NQMom=    0.0000000   0.0000000
 NMagM=    2.7928460   2.7928460
 AtZNuc=   1.0000000   1.0000000
 Leave Link  101 at Tue Aug 23 08:54:19 2022, MaxMem=    23592960 cpu:        13.0
 (Enter /public/home/users/caep010/software/Gaussian09/g09/l103.exe)

 GradGradGradGradGradGradGradGradGradGradGradGradGradGradGradGradGradGrad
 Berny optimization.
 Initialization pass.
                           ----------------------------
                           !    Initial Parameters    !
                           ! (Angstroms and Degrees)  !
 --------------------------                            --------------------------
 ! Name  Definition              Value          Derivative Info.                !
 --------------------------------------------------------------------------------
 ! R1    R(1,2)                  1.2058         estimate D2E/DX2                !
 ! R2    R(1,6)                  1.0582         estimate D2E/DX2                !
 ! R3    R(2,3)                  1.4696         estimate D2E/DX2                !
 ! R4    R(3,4)                  1.5325         estimate D2E/DX2                !
 ! R5    R(3,5)                  1.4631         estimate D2E/DX2                !
 ! R6    R(3,7)                  1.1116         estimate D2E/DX2                !
 ! R7    R(4,8)                  1.1116         estimate D2E/DX2                !
 ! R8    R(4,9)                  1.1106         estimate D2E/DX2                !
 ! R9    R(4,10)                 1.1114         estimate D2E/DX2                !
 ! R10   R(5,11)                 1.047          estimate D2E/DX2                !
 ! R11   R(5,12)                 1.0461         estimate D2E/DX2                !
 ! A1    A(2,3,4)              110.2518         estimate D2E/DX2                !
 ! A2    A(2,3,5)              109.5498         estimate D2E/DX2                !
 ! A3    A(2,3,7)              107.9954         estimate D2E/DX2                !
 ! A4    A(4,3,5)              111.2453         estimate D2E/DX2                !
 ! A5    A(4,3,7)              108.7952         estimate D2E/DX2                !
 ! A6    A(5,3,7)              108.9303         estimate D2E/DX2                !
 ! A7    A(3,4,8)              110.7701         estimate D2E/DX2                !
 ! A8    A(3,4,9)              109.9626         estimate D2E/DX2                !
 ! A9    A(3,4,10)             110.1448         estimate D2E/DX2                !
 ! A10   A(8,4,9)              108.7961         estimate D2E/DX2                !
 ! A11   A(8,4,10)             108.8791         estimate D2E/DX2                !
 ! A12   A(9,4,10)             108.2317         estimate D2E/DX2                !
 ! A13   A(3,5,11)             109.4855         estimate D2E/DX2                !
 ! A14   A(3,5,12)             108.5929         estimate D2E/DX2                !
 ! A15   A(11,5,12)            107.3051         estimate D2E/DX2                !
 ! A16   L(2,1,6,10,-1)        179.9938         estimate D2E/DX2                !
 ! A17   L(1,2,3,10,-1)        180.008          estimate D2E/DX2                !
 ! A18   L(2,1,6,10,-2)        179.9747         estimate D2E/DX2                !
 ! A19   L(1,2,3,10,-2)        179.9645         estimate D2E/DX2                !
 ! D1    D(2,3,4,8)            -60.5943         estimate D2E/DX2                !
 ! D2    D(2,3,4,9)            179.115          estimate D2E/DX2                !
 ! D3    D(2,3,4,10)            59.9192         estimate D2E/DX2                !
 ! D4    D(5,3,4,8)             61.1499         estimate D2E/DX2                !
 ! D5    D(5,3,4,9)            -59.1408         estimate D2E/DX2                !
 ! D6    D(5,3,4,10)          -178.3366         estimate D2E/DX2                !
 ! D7    D(7,3,4,8)           -178.8504         estimate D2E/DX2                !
 ! D8    D(7,3,4,9)             60.8589         estimate D2E/DX2                !
 ! D9    D(7,3,4,10)           -58.3369         estimate D2E/DX2                !
 ! D10   D(2,3,5,11)            68.3026         estimate D2E/DX2                !
 ! D11   D(2,3,5,12)          -174.8294         estimate D2E/DX2                !
 ! D12   D(4,3,5,11)           -53.849          estimate D2E/DX2                !
 ! D13   D(4,3,5,12)            63.0189         estimate D2E/DX2                !
 ! D14   D(7,3,5,11)          -173.7687         estimate D2E/DX2                !
 ! D15   D(7,3,5,12)           -56.9007         estimate D2E/DX2                !
 --------------------------------------------------------------------------------
 Trust Radius=3.00D-01 FncErr=1.00D-07 GrdErr=1.00D-06
 Number of steps in this run=     55 maximum allowed number of steps=    100.
 GradGradGradGradGradGradGradGradGradGradGradGradGradGradGradGradGradGrad

 Leave Link  103 at Tue Aug 23 08:54:20 2022, MaxMem=    23592960 cpu:         1.6
 (Enter /public/home/users/caep010/software/Gaussian09/g09/l202.exe)
                          Input orientation:                          
 ---------------------------------------------------------------------
 Center     Atomic      Atomic             Coordinates (Angstroms)
 Number     Number       Type             X           Y           Z
 ---------------------------------------------------------------------
      1          6           0        2.301700   -0.954000    0.103000
      2          6           0        1.226800   -0.434000    0.270500
      3          6           0       -0.083200    0.199800    0.475400
      4          6           0       -1.169300   -0.569500   -0.284200
      5          7           0       -0.023800    1.596900    0.045100
      6          1           0        3.245000   -1.410400   -0.044300
      7          1           0       -0.314500    0.166700    1.562200
      8          1           0       -0.958500   -0.574700   -1.375600
      9          1           0       -2.159300   -0.096000   -0.113200
     10          1           0       -1.218800   -1.619200    0.077500
     11          1           0        0.087800    1.637500   -0.995100
     12          1           0       -0.933900    2.056800    0.278600
 ---------------------------------------------------------------------
                    Distance matrix (angstroms):
                    1          2          3          4          5
     1  C    0.000000
     2  C    1.205764   0.000000
     3  C    2.675385   1.469621   0.000000
     4  C    3.513631   2.463199   1.532458   0.000000
     5  N    3.452303   2.395696   1.463070   2.472630   0.000000
     6  H    1.058212   2.263976   3.733597   4.500079   4.442623
     7  H    3.198396   2.098794   1.111634   2.163762   2.105130
     8  H    3.599865   2.739521   2.189110   1.111583   2.758242
     9  H    4.547904   3.424492   2.178104   1.110650   2.729712
    10  H    3.582885   2.724501   2.180980   1.111372   3.431089
    11  H    3.580929   2.681450   2.063636   2.637523   1.046957
    12  H    4.423218   3.297389   2.052040   2.696221   1.046094
                    6          7          8          9         10
     6  H    0.000000
     7  H    4.211666   0.000000
     8  H    4.487780   3.097592   0.000000
     9  H    5.562270   2.505846   1.806856   0.000000
    10  H    4.470340   2.492294   1.808379   1.800290   0.000000
    11  H    4.490170   2.977395   2.476561   2.971907   3.669301
    12  H    5.439572   2.367227   3.108340   2.507920   3.692504
                   11         12
    11  H    0.000000
    12  H    1.685822   0.000000
 Stoichiometry    C4H7N
 Framework group  C1[X(C4H7N)]
 Deg. of freedom    30
 Full point group                 C1      NOp   1
 Largest Abelian subgroup         C1      NOp   1
 Largest concise Abelian subgroup C1      NOp   1
                         Standard orientation:                         
 ---------------------------------------------------------------------
 Center     Atomic      Atomic             Coordinates (Angstroms)
 Number     Number       Type             X           Y           Z
 ---------------------------------------------------------------------
      1          6           0       -2.227484    0.014086   -0.113639
      2          6           0       -1.045852   -0.011384    0.125032
      3          6           0        0.394206   -0.042570    0.416658
      4          6           0        1.080594    1.197039   -0.167009
      5          7           0        0.975941   -1.272934   -0.120339
      6          1           0       -3.264457    0.036530   -0.323390
      7          1           0        0.521195   -0.035676    1.520993
      8          1           0        0.955604    1.233781   -1.270932
      9          1           0        2.165510    1.176576    0.069809
     10          1           0        0.645544    2.119246    0.275048
     11          1           0        0.956866   -1.240581   -1.166622
     12          1           0        1.979368   -1.322369    0.171211
 ---------------------------------------------------------------------
 Rotational constants (GHZ):      8.5500957      3.8248004      2.9005270
 Leave Link  202 at Tue Aug 23 08:54:20 2022, MaxMem=    23592960 cpu:         0.3
 (Enter /public/home/users/caep010/software/Gaussian09/g09/l301.exe)
 Standard basis: GTBas3 (6D, 7F)
 Ernie: Thresh=  0.10000D-02 Tol=  0.10000D-05 Strict=F.
 There are   190 symmetry adapted cartesian basis functions of A   symmetry.
 There are   175 symmetry adapted basis functions of A   symmetry.
   175 basis functions,   269 primitive gaussians,   190 cartesian basis functions
    19 alpha electrons       19 beta electrons
       nuclear repulsion energy       159.3986905365 Hartrees.
 IExCor=  402 DFT=T Ex+Corr=B3LYP ExCW=0 ScaHFX=  0.200000
 ScaDFX=  0.800000  0.720000  1.000000  0.810000 ScalE2=  1.000000  1.000000
 IRadAn=      0 IRanWt=     -1 IRanGd=            0 ICorTp=0 IEmpDi=  4
 NAtoms=   12 NActive=   12 NUniq=   12 SFac= 1.00D+00 NAtFMM=   60 NAOKFM=F Big=F
 Integral buffers will be    131072 words long.
 Raffenetti 2 integral format.
 Two-electron integral symmetry is turned on.
 Leave Link  301 at Tue Aug 23 08:54:20 2022, MaxMem=    23592960 cpu:         1.9
 (Enter /public/home/users/caep010/software/Gaussian09/g09/l302.exe)
 NPDir=0 NMtPBC=     1 NCelOv=     1 NCel=       1 NClECP=     1 NCelD=      1
         NCelK=      1 NCelE2=     1 NClLst=     1 CellRange=     0.0.
 One-electron integrals computed using PRISM.
 PrsmSu:  requested number of processors reduced to:   3 ShMem   1 Linda.
 PrsmSu:  requested number of processors reduced to:  11 ShMem   1 Linda.
 NBasis=   175 RedAO= T EigKep=  1.55D-04  NBF=   175
 NBsUse=   175 1.00D-06 EigRej= -1.00D+00 NBFU=   175
 Precomputing XC quadrature grid using
 IXCGrd= 4 IRadAn=           0 IRanWt=          -1 IRanGd=           0 AccXCQ= 0.00D+00.
 Generated NRdTot=       0 NPtTot=           0 NUsed=           0 NTot=          32
 NSgBfM=   190   190   190   190   190 MxSgAt=    12 MxSgA2=    12.
 Leave Link  302 at Tue Aug 23 08:54:20 2022, MaxMem=    23592960 cpu:         9.7
 (Enter /public/home/users/caep010/software/Gaussian09/g09/l303.exe)
 DipDrv:  MaxL=1.
 Leave Link  303 at Tue Aug 23 08:54:20 2022, MaxMem=    23592960 cpu:         0.8
 (Enter /public/home/users/caep010/software/Gaussian09/g09/l401.exe)
 ExpMin= 1.61D-01 ExpMax= 4.17D+03 ExpMxC= 6.27D+02 IAcc=1 IRadAn=         1 AccDes= 0.00D+00
 Harris functional with IExCor=  402 and IRadAn=       1 diagonalized for initial guess.
 HarFok:  IExCor=  402 AccDes= 0.00D+00 IRadAn=         1 IDoV= 1 UseB2=F ITyADJ=14
 ICtDFT=  3500011 ScaDFX=  1.000000  1.000000  1.000000  1.000000
 CalDSu:  requested number of processors reduced to:  21 ShMem   1 Linda.
 FoFCou: FMM=F IPFlag=           0 FMFlag=      100000 FMFlg1=           0
         NFxFlg=           0 DoJE=T BraDBF=F KetDBF=T FulRan=T
         wScrn=  0.000000 ICntrl=     500 IOpCl=  0 I1Cent=   200000004 NGrid=           0
         NMat0=    1 NMatS0=      1 NMatT0=    0 NMatD0=    1 NMtDS0=    0 NMtDT0=    0
 Petite list used in FoFCou.
 CoulSu:  requested number of processors reduced to:  11 ShMem   1 Linda.
 CoulSu:  requested number of processors reduced to:  11 ShMem   1 Linda.
 CoulSu:  requested number of processors reduced to:  12 ShMem   1 Linda.
 CoulSu:  requested number of processors reduced to:  12 ShMem   1 Linda.
 Harris En= -211.379721690508    
 JPrj=0 DoOrth=F DoCkMO=F.
 Leave Link  401 at Tue Aug 23 08:54:21 2022, MaxMem=    23592960 cpu:        13.7
 (Enter /public/home/users/caep010/software/Gaussian09/g09/l502.exe)
 Closed shell SCF:
 Using DIIS extrapolation, IDIIS=  1040.
 Integral symmetry usage will be decided dynamically.
 IVT=      134320 IEndB=      134320 NGot=    23592960 MDV=    23511571
 LenX=    23511571 LenY=    23475030
 Requested convergence on RMS density matrix=1.00D-08 within 128 cycles.
 Requested convergence on MAX density matrix=1.00D-06.
 Requested convergence on             energy=1.00D-06.
 No special actions if energy rises.
 Fock matrices will be formed incrementally for  20 cycles.
 Integral accuracy reduced to 1.0D-05 until final iterations.

 Cycle   1  Pass 0  IDiag  1:
 FoFJK:  IHMeth= 1 ICntrl=       0 DoSepK=F KAlg= 0 I1Cent=   0 FoldK=F
 IRaf= 970000000 NMat=   1 IRICut=       1 DoRegI=T DoRafI=F ISym2E= 0.
 FoFCou: FMM=F IPFlag=           0 FMFlag=      100000 FMFlg1=           0
         NFxFlg=           0 DoJE=F BraDBF=F KetDBF=F FulRan=T
         wScrn=  0.000000 ICntrl=       0 IOpCl=  0 I1Cent=           0 NGrid=           0
         NMat0=    1 NMatS0=      1 NMatT0=    0 NMatD0=    1 NMtDS0=    0 NMtDT0=    0
 Symmetry not used in FoFCou.
 CoulSu:  requested number of processors reduced to:  11 ShMem   1 Linda.
 CalDSu:  requested number of processors reduced to:  21 ShMem   1 Linda.
 E= -211.143716792331    
 DIIS: error= 3.12D-02 at cycle   1 NSaved=   1.
 NSaved= 1 IEnMin= 1 EnMin= -211.143716792331     IErMin= 1 ErrMin= 3.12D-02
 ErrMax= 3.12D-02  0.00D+00 EMaxC= 1.00D-01 BMatC= 1.77D-01 BMatP= 1.77D-01
 IDIUse=3 WtCom= 6.88D-01 WtEn= 3.12D-01
 Coeff-Com:  0.100D+01
 Coeff-En:   0.100D+01
 Coeff:      0.100D+01
 Gap=     0.271 Goal=   None    Shift=    0.000
 GapD=    0.271 DampG=1.000 DampE=0.500 DampFc=0.5000 IDamp=-1.
 Damping current iteration by 5.00D-01
 RMSDP=5.48D-03 MaxDP=1.50D-01              OVMax= 1.64D-01

 Cycle   2  Pass 0  IDiag  1:
 RMSU=  2.69D-03    CP:  9.71D-01
 CoulSu:  requested number of processors reduced to:  11 ShMem   1 Linda.
 CalDSu:  requested number of processors reduced to:  21 ShMem   1 Linda.
 E= -211.228352943405     Delta-E=       -0.084636151074 Rises=F Damp=T
 DIIS: error= 8.08D-03 at cycle   2 NSaved=   2.
 NSaved= 2 IEnMin= 2 EnMin= -211.228352943405     IErMin= 2 ErrMin= 8.08D-03
 ErrMax= 8.08D-03  0.00D+00 EMaxC= 1.00D-01 BMatC= 7.50D-03 BMatP= 1.77D-01
 IDIUse=3 WtCom= 9.19D-01 WtEn= 8.08D-02
 Coeff-Com:  0.387D-01 0.961D+00
 Coeff-En:   0.609D-01 0.939D+00
 Coeff:      0.405D-01 0.959D+00
 Gap=     0.297 Goal=   None    Shift=    0.000
 RMSDP=1.08D-03 MaxDP=4.15D-02 DE=-8.46D-02 OVMax= 9.32D-02

 Cycle   3  Pass 0  IDiag  1:
 RMSU=  1.01D-03    CP:  9.65D-01  8.66D-01
 CoulSu:  requested number of processors reduced to:  11 ShMem   1 Linda.
 CalDSu:  requested number of processors reduced to:  21 ShMem   1 Linda.
 E= -211.322062958916     Delta-E=       -0.093710015511 Rises=F Damp=F
 DIIS: error= 3.47D-03 at cycle   3 NSaved=   3.
 NSaved= 3 IEnMin= 3 EnMin= -211.322062958916     IErMin= 3 ErrMin= 3.47D-03
 ErrMax= 3.47D-03  0.00D+00 EMaxC= 1.00D-01 BMatC= 3.59D-03 BMatP= 7.50D-03
 IDIUse=3 WtCom= 9.65D-01 WtEn= 3.47D-02
 Coeff-Com: -0.136D-01 0.388D+00 0.625D+00
 Coeff-En:   0.000D+00 0.000D+00 0.100D+01
 Coeff:     -0.131D-01 0.375D+00 0.638D+00
 Gap=     0.282 Goal=   None    Shift=    0.000
 RMSDP=5.03D-04 MaxDP=1.53D-02 DE=-9.37D-02 OVMax= 2.75D-02

 Cycle   4  Pass 0  IDiag  1:
 RMSU=  3.62D-04    CP:  9.66D-01  9.19D-01  6.85D-01
 CoulSu:  requested number of processors reduced to:  11 ShMem   1 Linda.
 CalDSu:  requested number of processors reduced to:  21 ShMem   1 Linda.
 E= -211.323813896005     Delta-E=       -0.001750937089 Rises=F Damp=F
 DIIS: error= 3.53D-03 at cycle   4 NSaved=   4.
 NSaved= 4 IEnMin= 4 EnMin= -211.323813896005     IErMin= 3 ErrMin= 3.47D-03
 ErrMax= 3.53D-03  0.00D+00 EMaxC= 1.00D-01 BMatC= 1.51D-03 BMatP= 3.59D-03
 IDIUse=3 WtCom= 9.65D-01 WtEn= 3.53D-02
 Coeff-Com: -0.119D-01 0.113D+00 0.404D+00 0.495D+00
 Coeff-En:   0.000D+00 0.000D+00 0.332D+00 0.668D+00
 Coeff:     -0.115D-01 0.109D+00 0.402D+00 0.501D+00
 Gap=     0.279 Goal=   None    Shift=    0.000
 RMSDP=2.35D-04 MaxDP=1.05D-02 DE=-1.75D-03 OVMax= 1.95D-02

 Cycle   5  Pass 0  IDiag  1:
 RMSU=  1.18D-04    CP:  9.66D-01  9.08D-01  7.94D-01  5.38D-01
 CoulSu:  requested number of processors reduced to:  11 ShMem   1 Linda.
 CalDSu:  requested number of processors reduced to:  21 ShMem   1 Linda.
 E= -211.325002001590     Delta-E=       -0.001188105585 Rises=F Damp=F
 DIIS: error= 1.81D-03 at cycle   5 NSaved=   5.
 NSaved= 5 IEnMin= 5 EnMin= -211.325002001590     IErMin= 5 ErrMin= 1.81D-03
 ErrMax= 1.81D-03  0.00D+00 EMaxC= 1.00D-01 BMatC= 2.97D-04 BMatP= 1.51D-03
 IDIUse=3 WtCom= 9.82D-01 WtEn= 1.81D-02
 Coeff-Com: -0.579D-02 0.264D-01 0.204D+00 0.354D+00 0.422D+00
 Coeff-En:   0.000D+00 0.000D+00 0.000D+00 0.173D+00 0.827D+00
 Coeff:     -0.569D-02 0.259D-01 0.200D+00 0.350D+00 0.429D+00
 Gap=     0.280 Goal=   None    Shift=    0.000
 RMSDP=8.26D-05 MaxDP=4.05D-03 DE=-1.19D-03 OVMax= 6.97D-03

 Cycle   6  Pass 0  IDiag  1:
 RMSU=  3.54D-05    CP:  9.66D-01  9.08D-01  7.87D-01  5.78D-01  3.85D-01
 CoulSu:  requested number of processors reduced to:  11 ShMem   1 Linda.
 CalDSu:  requested number of processors reduced to:  21 ShMem   1 Linda.
 E= -211.325286598794     Delta-E=       -0.000284597203 Rises=F Damp=F
 DIIS: error= 2.28D-04 at cycle   6 NSaved=   6.
 NSaved= 6 IEnMin= 6 EnMin= -211.325286598794     IErMin= 6 ErrMin= 2.28D-04
 ErrMax= 2.28D-04  0.00D+00 EMaxC= 1.00D-01 BMatC= 9.74D-06 BMatP= 2.97D-04
 IDIUse=3 WtCom= 9.98D-01 WtEn= 2.28D-03
 Coeff-Com: -0.173D-02 0.316D-02 0.641D-01 0.131D+00 0.225D+00 0.578D+00
 Coeff-En:   0.000D+00 0.000D+00 0.000D+00 0.000D+00 0.000D+00 0.100D+01
 Coeff:     -0.173D-02 0.315D-02 0.640D-01 0.131D+00 0.225D+00 0.579D+00
 Gap=     0.280 Goal=   None    Shift=    0.000
 RMSDP=1.72D-05 MaxDP=4.71D-04 DE=-2.85D-04 OVMax= 7.93D-04

 Cycle   7  Pass 0  IDiag  1:
 RMSU=  8.06D-06    CP:  9.66D-01  9.09D-01  7.88D-01  5.85D-01  4.47D-01
                    CP:  6.32D-01
 CoulSu:  requested number of processors reduced to:  11 ShMem   1 Linda.
 CalDSu:  requested number of processors reduced to:  21 ShMem   1 Linda.
 E= -211.325295555667     Delta-E=       -0.000008956873 Rises=F Damp=F
 DIIS: error= 3.71D-05 at cycle   7 NSaved=   7.
 NSaved= 7 IEnMin= 7 EnMin= -211.325295555667     IErMin= 7 ErrMin= 3.71D-05
 ErrMax= 3.71D-05  0.00D+00 EMaxC= 1.00D-01 BMatC= 3.78D-07 BMatP= 9.74D-06
 IDIUse=1 WtCom= 1.00D+00 WtEn= 0.00D+00
 Coeff-Com: -0.446D-03 0.177D-03 0.188D-01 0.417D-01 0.828D-01 0.270D+00
 Coeff-Com:  0.587D+00
 Coeff:     -0.446D-03 0.177D-03 0.188D-01 0.417D-01 0.828D-01 0.270D+00
 Coeff:      0.587D+00
 Gap=     0.280 Goal=   None    Shift=    0.000
 RMSDP=3.97D-06 MaxDP=1.61D-04 DE=-8.96D-06 OVMax= 1.50D-04

 Initial convergence to 1.0D-05 achieved.  Increase integral accuracy.
 Cycle   8  Pass 1  IDiag  1:
 CoulSu:  requested number of processors reduced to:  11 ShMem   1 Linda.
 CalDSu:  requested number of processors reduced to:  21 ShMem   1 Linda.
 E= -211.325295114793     Delta-E=        0.000000440874 Rises=F Damp=F
 DIIS: error= 2.25D-05 at cycle   1 NSaved=   1.
 NSaved= 1 IEnMin= 1 EnMin= -211.325295114793     IErMin= 1 ErrMin= 2.25D-05
 ErrMax= 2.25D-05  0.00D+00 EMaxC= 1.00D-01 BMatC= 6.31D-08 BMatP= 6.31D-08
 IDIUse=1 WtCom= 1.00D+00 WtEn= 0.00D+00
 Coeff-Com:  0.100D+01
 Coeff:      0.100D+01
 Gap=     0.280 Goal=   None    Shift=    0.000
 RMSDP=3.97D-06 MaxDP=1.61D-04 DE= 4.41D-07 OVMax= 6.12D-05

 Cycle   9  Pass 1  IDiag  1:
 RMSU=  5.84D-06    CP:  1.00D+00
 CoulSu:  requested number of processors reduced to:  11 ShMem   1 Linda.
 CalDSu:  requested number of processors reduced to:  21 ShMem   1 Linda.
 E= -211.325295127951     Delta-E=       -0.000000013158 Rises=F Damp=F
 DIIS: error= 8.79D-06 at cycle   2 NSaved=   2.
 NSaved= 2 IEnMin= 2 EnMin= -211.325295127951     IErMin= 2 ErrMin= 8.79D-06
 ErrMax= 8.79D-06  0.00D+00 EMaxC= 1.00D-01 BMatC= 1.75D-08 BMatP= 6.31D-08
 IDIUse=1 WtCom= 1.00D+00 WtEn= 0.00D+00
 Coeff-Com:  0.288D+00 0.712D+00
 Coeff:      0.288D+00 0.712D+00
 Gap=     0.280 Goal=   None    Shift=    0.000
 RMSDP=1.22D-06 MaxDP=4.47D-05 DE=-1.32D-08 OVMax= 4.57D-05

 Cycle  10  Pass 1  IDiag  1:
 RMSU=  1.22D-06    CP:  1.00D+00  9.92D-01
 CoulSu:  requested number of processors reduced to:  11 ShMem   1 Linda.
 CalDSu:  requested number of processors reduced to:  21 ShMem   1 Linda.
 E= -211.325295137907     Delta-E=       -0.000000009956 Rises=F Damp=F
 DIIS: error= 5.52D-06 at cycle   3 NSaved=   3.
 NSaved= 3 IEnMin= 3 EnMin= -211.325295137907     IErMin= 3 ErrMin= 5.52D-06
 ErrMax= 5.52D-06  0.00D+00 EMaxC= 1.00D-01 BMatC= 8.07D-09 BMatP= 1.75D-08
 IDIUse=1 WtCom= 1.00D+00 WtEn= 0.00D+00
 Coeff-Com:  0.165D-01 0.402D+00 0.581D+00
 Coeff:      0.165D-01 0.402D+00 0.581D+00
 Gap=     0.280 Goal=   None    Shift=    0.000
 RMSDP=5.57D-07 MaxDP=1.88D-05 DE=-9.96D-09 OVMax= 3.52D-05

 Cycle  11  Pass 1  IDiag  1:
 RMSU=  2.76D-07    CP:  1.00D+00  1.00D+00  6.08D-01
 CoulSu:  requested number of processors reduced to:  11 ShMem   1 Linda.
 CalDSu:  requested number of processors reduced to:  21 ShMem   1 Linda.
 E= -211.325295144662     Delta-E=       -0.000000006756 Rises=F Damp=F
 DIIS: error= 4.32D-06 at cycle   4 NSaved=   4.
 NSaved= 4 IEnMin= 4 EnMin= -211.325295144662     IErMin= 4 ErrMin= 4.32D-06
 ErrMax= 4.32D-06  0.00D+00 EMaxC= 1.00D-01 BMatC= 1.55D-09 BMatP= 8.07D-09
 IDIUse=1 WtCom= 1.00D+00 WtEn= 0.00D+00
 Coeff-Com: -0.287D-02 0.249D+00 0.406D+00 0.348D+00
 Coeff:     -0.287D-02 0.249D+00 0.406D+00 0.348D+00
 Gap=     0.280 Goal=   None    Shift=    0.000
 RMSDP=1.83D-07 MaxDP=8.58D-06 DE=-6.76D-09 OVMax= 1.59D-05

 Cycle  12  Pass 1  IDiag  1:
 RMSU=  7.92D-08    CP:  1.00D+00  1.01D+00  6.28D-01  4.16D-01
 CoulSu:  requested number of processors reduced to:  11 ShMem   1 Linda.
 CalDSu:  requested number of processors reduced to:  21 ShMem   1 Linda.
 E= -211.325295146171     Delta-E=       -0.000000001509 Rises=F Damp=F
 DIIS: error= 4.54D-07 at cycle   5 NSaved=   5.
 NSaved= 5 IEnMin= 5 EnMin= -211.325295146171     IErMin= 5 ErrMin= 4.54D-07
 ErrMax= 4.54D-07  0.00D+00 EMaxC= 1.00D-01 BMatC= 3.15D-11 BMatP= 1.55D-09
 IDIUse=1 WtCom= 1.00D+00 WtEn= 0.00D+00
 Coeff-Com: -0.247D-02 0.108D+00 0.181D+00 0.192D+00 0.521D+00
 Coeff:     -0.247D-02 0.108D+00 0.181D+00 0.192D+00 0.521D+00
 Gap=     0.280 Goal=   None    Shift=    0.000
 RMSDP=3.11D-08 MaxDP=1.18D-06 DE=-1.51D-09 OVMax= 2.03D-06

 Cycle  13  Pass 1  IDiag  1:
 RMSU=  2.37D-08    CP:  1.00D+00  1.01D+00  6.26D-01  4.42D-01  7.64D-01
 CoulSu:  requested number of processors reduced to:  11 ShMem   1 Linda.
 CalDSu:  requested number of processors reduced to:  21 ShMem   1 Linda.
 E= -211.325295146199     Delta-E=       -0.000000000028 Rises=F Damp=F
 DIIS: error= 5.12D-08 at cycle   6 NSaved=   6.
 NSaved= 6 IEnMin= 6 EnMin= -211.325295146199     IErMin= 6 ErrMin= 5.12D-08
 ErrMax= 5.12D-08  0.00D+00 EMaxC= 1.00D-01 BMatC= 1.22D-12 BMatP= 3.15D-11
 IDIUse=1 WtCom= 1.00D+00 WtEn= 0.00D+00
 Coeff-Com: -0.825D-03 0.264D-01 0.448D-01 0.556D-01 0.220D+00 0.654D+00
 Coeff:     -0.825D-03 0.264D-01 0.448D-01 0.556D-01 0.220D+00 0.654D+00
 Gap=     0.280 Goal=   None    Shift=    0.000
 RMSDP=7.55D-09 MaxDP=2.70D-07 DE=-2.78D-11 OVMax= 2.90D-07

 SCF Done:  E(RB3LYP) =  -211.325295146     A.U. after   13 cycles
            NFock= 13  Conv=0.75D-08     -V/T= 2.0090
 KE= 2.094390202163D+02 PE=-8.089246571336D+02 EE= 2.287616512346D+02
 Leave Link  502 at Tue Aug 23 08:54:26 2022, MaxMem=    23592960 cpu:        88.8
 (Enter /public/home/users/caep010/software/Gaussian09/g09/l601.exe)
 Copying SCF densities to generalized density rwf, IOpCl= 0 IROHF=0.

 **********************************************************************

            Population analysis using the SCF density.

 **********************************************************************

 Orbital symmetries:
       Occupied  (A) (A) (A) (A) (A) (A) (A) (A) (A) (A) (A) (A)
                 (A) (A) (A) (A) (A) (A) (A)
       Virtual   (A) (A) (A) (A) (A) (A) (A) (A) (A) (A) (A) (A)
                 (A) (A) (A) (A) (A) (A) (A) (A) (A) (A) (A) (A)
                 (A) (A) (A) (A) (A) (A) (A) (A) (A) (A) (A) (A)
                 (A) (A) (A) (A) (A) (A) (A) (A) (A) (A) (A) (A)
                 (A) (A) (A) (A) (A) (A) (A) (A) (A) (A) (A) (A)
                 (A) (A) (A) (A) (A) (A) (A) (A) (A) (A) (A) (A)
                 (A) (A) (A) (A) (A) (A) (A) (A) (A) (A) (A) (A)
                 (A) (A) (A) (A) (A) (A) (A) (A) (A) (A) (A) (A)
                 (A) (A) (A) (A) (A) (A) (A) (A) (A) (A) (A) (A)
                 (A) (A) (A) (A) (A) (A) (A) (A) (A) (A) (A) (A)
                 (A) (A) (A) (A) (A) (A) (A) (A) (A) (A) (A) (A)
                 (A) (A) (A) (A) (A) (A) (A) (A) (A) (A) (A) (A)
                 (A) (A) (A) (A) (A) (A) (A) (A) (A) (A) (A) (A)
 The electronic state is 1-A.
 Alpha  occ. eigenvalues --  -14.31685 -10.23792 -10.18529 -10.17754 -10.17028
 Alpha  occ. eigenvalues --   -0.89052  -0.75656  -0.71501  -0.62991  -0.53036
 Alpha  occ. eigenvalues --   -0.49893  -0.45343  -0.42021  -0.41732  -0.38049
 Alpha  occ. eigenvalues --   -0.36459  -0.26768  -0.26359  -0.23766
 Alpha virt. eigenvalues --    0.04195   0.05753   0.09188   0.11989   0.12912
 Alpha virt. eigenvalues --    0.14210   0.15432   0.17158   0.18453   0.23098
 Alpha virt. eigenvalues --    0.24896   0.27250   0.39060   0.42229   0.46857
 Alpha virt. eigenvalues --    0.49058   0.50155   0.50676   0.54893   0.57448
 Alpha virt. eigenvalues --    0.59052   0.62639   0.63055   0.69701   0.71251
 Alpha virt. eigenvalues --    0.71760   0.72339   0.72688   0.73445   0.74527
 Alpha virt. eigenvalues --    0.75987   0.78146   0.79969   0.82249   0.84784
 Alpha virt. eigenvalues --    0.85964   0.87451   0.89150   0.92835   1.02471
 Alpha virt. eigenvalues --    1.07693   1.09694   1.12195   1.15320   1.19103
 Alpha virt. eigenvalues --    1.20986   1.27064   1.30819   1.33968   1.41358
 Alpha virt. eigenvalues --    1.45364   1.50657   1.52399   1.53557   1.58244
 Alpha virt. eigenvalues --    1.60398   1.66921   1.69528   1.74946   1.82093
 Alpha virt. eigenvalues --    1.86218   1.88734   1.90746   1.93493   2.09325
 Alpha virt. eigenvalues --    2.18556   2.22283   2.25645   2.31746   2.37715
 Alpha virt. eigenvalues --    2.41783   2.45885   2.53233   2.54375   2.59342
 Alpha virt. eigenvalues --    2.64309   2.67182   2.67682   2.69664   2.71663
 Alpha virt. eigenvalues --    2.74818   2.77875   2.80350   2.81133   2.84621
 Alpha virt. eigenvalues --    2.86790   2.90217   2.92306   2.95582   2.99206
 Alpha virt. eigenvalues --    3.02851   3.09049   3.09904   3.12430   3.15001
 Alpha virt. eigenvalues --    3.18961   3.21176   3.30590   3.34987   3.38946
 Alpha virt. eigenvalues --    3.47103   3.47896   3.53023   3.57249   3.60415
 Alpha virt. eigenvalues --    3.64202   3.67079   3.71601   3.75280   3.81337
 Alpha virt. eigenvalues --    3.84396   3.94649   3.96394   4.03437   4.06045
 Alpha virt. eigenvalues --    4.16842   4.20952   4.21702   4.25219   4.26655
 Alpha virt. eigenvalues --    4.33868   4.34709   4.36214   4.39961   4.44693
 Alpha virt. eigenvalues --    4.48312   4.49152   4.54046   4.58717   4.60935
 Alpha virt. eigenvalues --    4.63588   4.66959   4.73944   4.75733   4.78846
 Alpha virt. eigenvalues --    4.79664   4.82483   4.85900   4.91412   5.00190
 Alpha virt. eigenvalues --    5.01427   5.12138   5.16840   5.28851   5.31351
 Alpha virt. eigenvalues --    5.35087   5.37569   5.52048   6.08631   6.64342
 Alpha virt. eigenvalues --    9.22239   9.77612  11.22062  11.42682  11.70938
 Alpha virt. eigenvalues --   12.61648
          Condensed to atoms (all electrons):
               1          2          3          4          5          6
     1  C    5.246956   0.931308  -0.051318  -0.005312  -0.006995   0.364086
     2  C    0.931308   4.368511   0.429143  -0.046312  -0.040603   0.013562
     3  C   -0.051318   0.429143   4.766562   0.393245   0.388286   0.000852
     4  C   -0.005312  -0.046312   0.393245   5.089062  -0.064790  -0.000039
     5  N   -0.006995  -0.040603   0.388286  -0.064790   6.591344  -0.000031
     6  H    0.364086   0.013562   0.000852  -0.000039  -0.000031   0.423332
     7  H   -0.001751  -0.027242   0.361652  -0.053663  -0.029097  -0.000063
     8  H    0.000495  -0.004725  -0.021050   0.366555  -0.002710  -0.000010
     9  H    0.000028   0.003603  -0.023169   0.356043   0.000100   0.000001
    10  H    0.001306   0.001499  -0.020067   0.345292   0.005560   0.000012
    11  H    0.000998  -0.002596  -0.049767  -0.006411   0.331215   0.000002
    12  H    0.000169   0.006497  -0.049161  -0.002027   0.327844   0.000002
               7          8          9         10         11         12
     1  C   -0.001751   0.000495   0.000028   0.001306   0.000998   0.000169
     2  C   -0.027242  -0.004725   0.003603   0.001499  -0.002596   0.006497
     3  C    0.361652  -0.021050  -0.023169  -0.020067  -0.049767  -0.049161
     4  C   -0.053663   0.366555   0.356043   0.345292  -0.006411  -0.002027
     5  N   -0.029097  -0.002710   0.000100   0.005560   0.331215   0.327844
     6  H   -0.000063  -0.000010   0.000001   0.000012   0.000002   0.000002
     7  H    0.631824   0.005353  -0.002310  -0.000956   0.006531  -0.004172
     8  H    0.005353   0.586384  -0.030027  -0.025705   0.006176   0.000040
     9  H   -0.002310  -0.030027   0.612431  -0.026388   0.000238   0.004254
    10  H   -0.000956  -0.025705  -0.026388   0.599737   0.000034  -0.000022
    11  H    0.006531   0.006176   0.000238   0.000034   0.511993  -0.027084
    12  H   -0.004172   0.000040   0.004254  -0.000022  -0.027084   0.519044
 Mulliken charges:
               1
     1  C   -0.479970
     2  C    0.367354
     3  C   -0.125207
     4  C   -0.371642
     5  N   -0.500125
     6  H    0.198295
     7  H    0.113895
     8  H    0.119224
     9  H    0.105195
    10  H    0.119697
    11  H    0.228671
    12  H    0.224614
 Sum of Mulliken charges =  -0.00000
 Mulliken charges with hydrogens summed into heavy atoms:
               1
     1  C   -0.281675
     2  C    0.367354
     3  C   -0.011312
     4  C   -0.027527
     5  N   -0.046840
 Electronic spatial extent (au):  <R**2>=            460.2960
 Charge=             -0.0000 electrons
 Dipole moment (field-independent basis, Debye):
    X=              1.1779    Y=              0.9203    Z=             -0.3896  Tot=              1.5447
 Quadrupole moment (field-independent basis, Debye-Ang):
   XX=            -24.9053   YY=            -34.6236   ZZ=            -29.5687
   XY=             -0.9443   XZ=              0.8537   YZ=              1.1076
 Traceless Quadrupole moment (field-independent basis, Debye-Ang):
   XX=              4.7939   YY=             -4.9244   ZZ=              0.1305
   XY=             -0.9443   XZ=              0.8537   YZ=              1.1076
 Octapole moment (field-independent basis, Debye-Ang**2):
  XXX=             -9.0282  YYY=              4.0384  ZZZ=             -1.4236  XYY=              2.9234
  XXY=             -4.4362  XXZ=             -2.9192  XZZ=              4.5075  YZZ=             -2.4525
  YYZ=             -1.2329  XYZ=              0.6632
 Hexadecapole moment (field-independent basis, Debye-Ang**3):
 XXXX=           -284.1857 YYYY=           -192.5026 ZZZZ=            -56.5721 XXXY=            -13.5344
 XXXZ=             15.4226 YYYX=             -3.4797 YYYZ=              4.7892 ZZZX=             -1.4260
 ZZZY=              2.4399 XXYY=            -94.4672 XXZZ=            -76.1556 YYZZ=            -38.1444
 XXYZ=              0.4331 YYXZ=             -1.0008 ZZXY=             -2.9012
 N-N= 1.593986905365D+02 E-N=-8.089246535018D+02  KE= 2.094390202163D+02
 PrsmSu:  requested number of processors reduced to:  11 ShMem   1 Linda.
 No NMR shielding tensors so no spin-rotation constants.
 Leave Link  601 at Tue Aug 23 08:54:26 2022, MaxMem=    23592960 cpu:         2.7
 (Enter /public/home/users/caep010/software/Gaussian09/g09/l701.exe)
 Compute integral first derivatives.
 ... and contract with generalized density number  0.
 PrsmSu:  requested number of processors reduced to:   3 ShMem   1 Linda.
 PrsmSu:  requested number of processors reduced to:   6 ShMem   1 Linda.
 Leave Link  701 at Tue Aug 23 08:54:27 2022, MaxMem=    23592960 cpu:         1.9
 (Enter /public/home/users/caep010/software/Gaussian09/g09/l702.exe)
 L702 exits ... SP integral derivatives will be done elsewhere.
 Leave Link  702 at Tue Aug 23 08:54:27 2022, MaxMem=    23592960 cpu:         1.0
 (Enter /public/home/users/caep010/software/Gaussian09/g09/l703.exe)
 Compute integral first derivatives, UseDBF=F ICtDFT=           0.
 Integral derivatives from FoFJK, PRISM(SPDF).
 Calling FoFJK, ICntrl=      2127 FMM=F ISym2X=0 I1Cent= 0 IOpClX= 0 NMat=1 NMatS=1 NMatT=0.
 FoFJK:  IHMeth= 1 ICntrl=    2127 DoSepK=F KAlg= 0 I1Cent=   0 FoldK=F
 IRaf=         0 NMat=   1 IRICut=       1 DoRegI=T DoRafI=F ISym2E= 0.
 FoFCou: FMM=F IPFlag=           0 FMFlag=      100000 FMFlg1=         800
         NFxFlg=           0 DoJE=F BraDBF=F KetDBF=F FulRan=T
         wScrn=  0.000000 ICntrl=    2127 IOpCl=  0 I1Cent=           0 NGrid=           0
         NMat0=    1 NMatS0=      1 NMatT0=    0 NMatD0=    1 NMtDS0=    0 NMtDT0=    0
 Symmetry not used in FoFCou.
 CoulSu:  requested number of processors reduced to:   6 ShMem   1 Linda.
 CalDSu:  requested number of processors reduced to:  18 ShMem   1 Linda.
 Leave Link  703 at Tue Aug 23 08:54:30 2022, MaxMem=    23592960 cpu:        18.6
 (Enter /public/home/users/caep010/software/Gaussian09/g09/l716.exe)
 Dipole        = 4.63416446D-01 3.62074900D-01-1.53277414D-01
 ***** Axes restored to original set *****
 -------------------------------------------------------------------
 Center     Atomic                   Forces (Hartrees/Bohr)
 Number     Number              X              Y              Z
 -------------------------------------------------------------------
      1        6          -0.010945350    0.004401453    0.000869608
      2        6           0.007134593   -0.001932345    0.001879220
      3        6          -0.000173999   -0.002914130   -0.004146540
      4        6          -0.009849336   -0.014221757    0.000290170
      5        7          -0.010837318    0.020195489   -0.008298539
      6        1           0.002676379   -0.001250187   -0.000435907
      7        1           0.001853987    0.003289385   -0.008288943
      8        1          -0.001807326   -0.000335687    0.010907507
      9        1           0.008453525   -0.004131985   -0.002007055
     10        1          -0.001586701    0.008030175   -0.006070759
     11        1          -0.004133527   -0.001246698    0.023488888
     12        1           0.019215073   -0.009883713   -0.008187651
 -------------------------------------------------------------------
 Cartesian Forces:  Max     0.023488888 RMS     0.008550993
 Leave Link  716 at Tue Aug 23 08:54:30 2022, MaxMem=    23592960 cpu:         2.9
 (Enter /public/home/users/caep010/software/Gaussian09/g09/l103.exe)

 GradGradGradGradGradGradGradGradGradGradGradGradGradGradGradGradGradGrad
 Berny optimization.
 FormGI is forming the generalized inverse of G from B-inverse, IUseBI=4.
 Internal  Forces:  Max     0.023827446 RMS     0.006792806
 Search for a local minimum.
 Step number   1 out of a maximum of   55
 All quantities printed in internal units (Hartrees-Bohrs-Radians)
 RMS Force = .67928D-02 SwitMx=.10000D-02 MixMth= 1
 Mixed Optimization -- RFO/linear search
 Second derivative matrix not updated -- first step.
 ITU=  0
     Eigenvalues ---    0.00337   0.00655   0.00655   0.00857   0.01168
     Eigenvalues ---    0.01168   0.04552   0.05182   0.05577   0.05689
     Eigenvalues ---    0.05787   0.10147   0.16000   0.16000   0.16000
     Eigenvalues ---    0.16000   0.16000   0.17756   0.23347   0.29198
     Eigenvalues ---    0.32428   0.32433   0.32455   0.32531   0.35786
     Eigenvalues ---    0.36583   0.38761   0.40301   0.40423   1.01979
 RFO step:  Lambda=-7.05894330D-03 EMin= 3.36588863D-03
 Linear search not attempted -- first point.
 Iteration  1 RMS(Cart)=  0.06380392 RMS(Int)=  0.00187152
 Iteration  2 RMS(Cart)=  0.00341943 RMS(Int)=  0.00045526
 Iteration  3 RMS(Cart)=  0.00000331 RMS(Int)=  0.00045525
 Iteration  4 RMS(Cart)=  0.00000000 RMS(Int)=  0.00045525
 ITry= 1 IFail=0 DXMaxC= 1.40D-01 DCOld= 1.00D+10 DXMaxT= 3.00D-01 DXLimC= 3.00D+00 Rises=F
 Variable       Old X    -DE/DX   Delta X   Delta X   Delta X     New X
                                 (Linear)    (Quad)   (Total)
    R1        2.27856  -0.00879   0.00000  -0.00856  -0.00856   2.27000
    R2        1.99973   0.00299   0.00000   0.00756   0.00756   2.00730
    R3        2.77718  -0.00186   0.00000  -0.00510  -0.00510   2.77209
    R4        2.89593   0.00720   0.00000   0.02408   0.02408   2.92001
    R5        2.76480   0.00677   0.00000   0.01815   0.01815   2.78295
    R6        2.10068  -0.00859   0.00000  -0.02592  -0.02592   2.07477
    R7        2.10059  -0.01105   0.00000  -0.03335  -0.03335   2.06724
    R8        2.09882  -0.00961   0.00000  -0.02890  -0.02890   2.06992
    R9        2.10019  -0.00949   0.00000  -0.02861  -0.02861   2.07157
   R10        1.97846  -0.02383   0.00000  -0.05811  -0.05811   1.92036
   R11        1.97683  -0.02289   0.00000  -0.05565  -0.05565   1.92118
    A1        1.92426  -0.00300   0.00000   0.00530   0.00397   1.92823
    A2        1.91200  -0.00390   0.00000   0.00132  -0.00049   1.91152
    A3        1.88487   0.00168   0.00000  -0.01219  -0.01255   1.87232
    A4        1.94160   0.01520   0.00000   0.07342   0.07288   2.01448
    A5        1.89883  -0.00322   0.00000  -0.01849  -0.01736   1.88148
    A6        1.90119  -0.00720   0.00000  -0.05280  -0.05235   1.84884
    A7        1.93330  -0.00132   0.00000  -0.01164  -0.01162   1.92169
    A8        1.91921  -0.00010   0.00000  -0.00007  -0.00023   1.91898
    A9        1.92239   0.00545   0.00000   0.03574   0.03566   1.95805
   A10        1.89885  -0.00006   0.00000  -0.00644  -0.00650   1.89235
   A11        1.90030  -0.00232   0.00000  -0.01504  -0.01494   1.88536
   A12        1.88900  -0.00173   0.00000  -0.00298  -0.00322   1.88577
   A13        1.91088  -0.00142   0.00000  -0.01534  -0.01542   1.89546
   A14        1.89530   0.00141   0.00000   0.00150   0.00141   1.89672
   A15        1.87283  -0.00163   0.00000  -0.02441  -0.02460   1.84823
   A16        3.14148   0.00008   0.00000   0.00589   0.00589   3.14738
   A17        3.14173  -0.00196   0.00000  -0.10482  -0.10482   3.03691
   A18        3.14115  -0.00004   0.00000  -0.00270  -0.00270   3.13845
   A19        3.14097   0.00120   0.00000   0.06413   0.06413   3.20510
    D1       -1.05757  -0.00192   0.00000  -0.03203  -0.03231  -1.08988
    D2        3.12615  -0.00093   0.00000  -0.01647  -0.01675   3.10940
    D3        1.04579  -0.00211   0.00000  -0.03494  -0.03537   1.01042
    D4        1.06727   0.00133   0.00000   0.02279   0.02315   1.09042
    D5       -1.03220   0.00232   0.00000   0.03835   0.03872  -0.99349
    D6       -3.11256   0.00114   0.00000   0.01987   0.02010  -3.09246
    D7       -3.12153  -0.00028   0.00000  -0.00918  -0.00913  -3.13066
    D8        1.06219   0.00071   0.00000   0.00638   0.00643   1.06862
    D9       -1.01817  -0.00047   0.00000  -0.01210  -0.01218  -1.03035
   D10        1.19211   0.00323   0.00000   0.02487   0.02485   1.21695
   D11       -3.05135   0.00129   0.00000  -0.01205  -0.01197  -3.06332
   D12       -0.93984  -0.00041   0.00000  -0.03144  -0.03213  -0.97198
   D13        1.09989  -0.00235   0.00000  -0.06836  -0.06895   1.03094
   D14       -3.03284  -0.00119   0.00000  -0.01991  -0.01935  -3.05218
   D15       -0.99311  -0.00313   0.00000  -0.05683  -0.05616  -1.04927
         Item               Value     Threshold  Converged?
 Maximum Force            0.023827     0.000450     NO 
 RMS     Force            0.006793     0.000300     NO 
 Maximum Displacement     0.139657     0.001800     NO 
 RMS     Displacement     0.064373     0.001200     NO 
 Predicted change in Energy=-3.729898D-03
 Lowest energy point so far.  Saving SCF results.
 GradGradGradGradGradGradGradGradGradGradGradGradGradGradGradGradGradGrad

 Leave Link  103 at Tue Aug 23 08:54:31 2022, MaxMem=    23592960 cpu:        12.3
 (Enter /public/home/users/caep010/software/Gaussian09/g09/l202.exe)
                          Input orientation:                          
 ---------------------------------------------------------------------
 Center     Atomic      Atomic             Coordinates (Angstroms)
 Number     Number       Type             X           Y           Z
 ---------------------------------------------------------------------
      1          6           0        2.266155   -0.965019    0.094130
      2          6           0        1.240669   -0.375901    0.304561
      3          6           0       -0.086702    0.229668    0.457011
      4          6           0       -1.152571   -0.611349   -0.280727
      5          7           0       -0.026344    1.650443    0.074228
      6          1           0        3.176027   -1.480256   -0.092861
      7          1           0       -0.330303    0.216062    1.527478
      8          1           0       -0.938738   -0.632310   -1.353357
      9          1           0       -2.144235   -0.169903   -0.133997
     10          1           0       -1.184989   -1.646387    0.078948
     11          1           0        0.113225    1.709798   -0.930599
     12          1           0       -0.932194    2.075055    0.255086
 ---------------------------------------------------------------------
                    Distance matrix (angstroms):
                    1          2          3          4          5
     1  C    0.000000
     2  C    1.201234   0.000000
     3  C    2.663624   1.466925   0.000000
     4  C    3.457353   2.474995   1.545200   0.000000
     5  N    3.478015   2.400926   1.472674   2.551486   0.000000
     6  H    1.062215   2.263438   3.724459   4.418943   4.481560
     7  H    3.192340   2.076993   1.097919   2.151821   2.064407
     8  H    3.532315   2.750319   2.178624   1.093938   2.842784
     9  H    4.487292   3.419407   2.177703   1.095354   2.800443
    10  H    3.517796   2.747518   2.206524   1.096230   3.494505
    11  H    3.583269   2.673367   2.038680   2.722553   1.016209
    12  H    4.415585   3.275816   2.039874   2.748168   1.016645
                    6          7          8          9         10
     6  H    0.000000
     7  H    4.218690   0.000000
     8  H    4.386245   3.064169   0.000000
     9  H    5.479407   2.489943   1.775918   0.000000
    10  H    4.367560   2.509470   1.772142   1.773556   0.000000
    11  H    4.501000   2.910345   2.602080   3.043679   3.737449
    12  H    5.444151   2.331761   3.149120   2.580750   3.734175
                   11         12
    11  H    0.000000
    12  H    1.622394   0.000000
 Stoichiometry    C4H7N
 Framework group  C1[X(C4H7N)]
 Deg. of freedom    30
 Full point group                 C1      NOp   1
 RotChk:  IX=0 Diff= 4.57D-02
 Largest Abelian subgroup         C1      NOp   1
 Largest concise Abelian subgroup C1      NOp   1
                         Standard orientation:                         
 ---------------------------------------------------------------------
 Center     Atomic      Atomic             Coordinates (Angstroms)
 Number     Number       Type             X           Y           Z
 ---------------------------------------------------------------------
      1          6           0       -2.207584   -0.009881   -0.114147
      2          6           0       -1.038948   -0.093557    0.150902
      3          6           0        0.407779   -0.047945    0.389165
      4          6           0        1.003719    1.270465   -0.153323
      5          7           0        1.029936   -1.280702   -0.122693
      6          1           0       -3.241011    0.057808   -0.350258
      7          1           0        0.559794   -0.062665    1.476410
      8          1           0        0.862250    1.329432   -1.236471
      9          1           0        2.077732    1.310029    0.058176
     10          1           0        0.535905    2.152985    0.298374
     11          1           0        0.987635   -1.267757   -1.137938
     12          1           0        2.018345   -1.269412    0.114977
 ---------------------------------------------------------------------
 Rotational constants (GHZ):      8.1753609      3.9004769      2.8816055
 Leave Link  202 at Tue Aug 23 08:54:31 2022, MaxMem=    23592960 cpu:         0.8
 (Enter /public/home/users/caep010/software/Gaussian09/g09/l301.exe)
 Standard basis: GTBas3 (6D, 7F)
 Ernie: Thresh=  0.10000D-02 Tol=  0.10000D-05 Strict=F.
 There are   190 symmetry adapted cartesian basis functions of A   symmetry.
 There are   175 symmetry adapted basis functions of A   symmetry.
   175 basis functions,   269 primitive gaussians,   190 cartesian basis functions
    19 alpha electrons       19 beta electrons
       nuclear repulsion energy       159.3676227451 Hartrees.
 IExCor=  402 DFT=T Ex+Corr=B3LYP ExCW=0 ScaHFX=  0.200000
 ScaDFX=  0.800000  0.720000  1.000000  0.810000 ScalE2=  1.000000  1.000000
 IRadAn=      0 IRanWt=     -1 IRanGd=            0 ICorTp=0 IEmpDi=  4
 NAtoms=   12 NActive=   12 NUniq=   12 SFac= 1.00D+00 NAtFMM=   60 NAOKFM=F Big=F
 Integral buffers will be    131072 words long.
 Raffenetti 2 integral format.
 Two-electron integral symmetry is turned on.
 Leave Link  301 at Tue Aug 23 08:54:31 2022, MaxMem=    23592960 cpu:         1.7
 (Enter /public/home/users/caep010/software/Gaussian09/g09/l302.exe)
 NPDir=0 NMtPBC=     1 NCelOv=     1 NCel=       1 NClECP=     1 NCelD=      1
         NCelK=      1 NCelE2=     1 NClLst=     1 CellRange=     0.0.
 One-electron integrals computed using PRISM.
 PrsmSu:  requested number of processors reduced to:   3 ShMem   1 Linda.
 PrsmSu:  requested number of processors reduced to:  11 ShMem   1 Linda.
 NBasis=   175 RedAO= T EigKep=  1.64D-04  NBF=   175
 NBsUse=   175 1.00D-06 EigRej= -1.00D+00 NBFU=   175
 Precomputing XC quadrature grid using
 IXCGrd= 4 IRadAn=           0 IRanWt=          -1 IRanGd=           0 AccXCQ= 0.00D+00.
 Generated NRdTot=       0 NPtTot=           0 NUsed=           0 NTot=          32
 NSgBfM=   190   190   190   190   190 MxSgAt=    12 MxSgA2=    12.
 Leave Link  302 at Tue Aug 23 08:54:31 2022, MaxMem=    23592960 cpu:         4.5
 (Enter /public/home/users/caep010/software/Gaussian09/g09/l303.exe)
 DipDrv:  MaxL=1.
 Leave Link  303 at Tue Aug 23 08:54:31 2022, MaxMem=    23592960 cpu:         0.7
 (Enter /public/home/users/caep010/software/Gaussian09/g09/l401.exe)
 Initial guess from the checkpoint file:  "G4.Frag_730.chk"
 B after Tr=    -0.000000   -0.000000    0.000000
         Rot=    0.999858   -0.006234   -0.001943   -0.015541 Ang=  -1.93 deg.
 Guess basis will be translated and rotated to current coordinates.
 JPrj=2 DoOrth=T DoCkMO=T.
 Generating alternative initial guess.
 ExpMin= 1.61D-01 ExpMax= 4.17D+03 ExpMxC= 6.27D+02 IAcc=1 IRadAn=         1 AccDes= 0.00D+00
 Harris functional with IExCor=  402 and IRadAn=       1 diagonalized for initial guess.
 HarFok:  IExCor=  402 AccDes= 0.00D+00 IRadAn=         1 IDoV= 1 UseB2=F ITyADJ=14
 ICtDFT=  3500011 ScaDFX=  1.000000  1.000000  1.000000  1.000000
 CalDSu:  requested number of processors reduced to:  21 ShMem   1 Linda.
 FoFCou: FMM=F IPFlag=           0 FMFlag=      100000 FMFlg1=           0
         NFxFlg=           0 DoJE=T BraDBF=F KetDBF=T FulRan=T
         wScrn=  0.000000 ICntrl=     500 IOpCl=  0 I1Cent=   200000004 NGrid=           0
         NMat0=    1 NMatS0=      1 NMatT0=    0 NMatD0=    1 NMtDS0=    0 NMtDT0=    0
 Petite list used in FoFCou.
 CoulSu:  requested number of processors reduced to:  11 ShMem   1 Linda.
 CoulSu:  requested number of processors reduced to:  11 ShMem   1 Linda.
 CoulSu:  requested number of processors reduced to:  12 ShMem   1 Linda.
 CoulSu:  requested number of processors reduced to:  12 ShMem   1 Linda.
 Harris En= -211.389360405753    
 Leave Link  401 at Tue Aug 23 08:54:32 2022, MaxMem=    23592960 cpu:         6.6
 (Enter /public/home/users/caep010/software/Gaussian09/g09/l502.exe)
 Closed shell SCF:
 Using DIIS extrapolation, IDIIS=  1040.
 Integral symmetry usage will be decided dynamically.
 IVT=      134320 IEndB=      134320 NGot=    23592960 MDV=    23511571
 LenX=    23511571 LenY=    23475030
 Requested convergence on RMS density matrix=1.00D-08 within 128 cycles.
 Requested convergence on MAX density matrix=1.00D-06.
 Requested convergence on             energy=1.00D-06.
 No special actions if energy rises.
 Fock matrices will be formed incrementally for  20 cycles.
 Integral accuracy reduced to 1.0D-05 until final iterations.

 Cycle   1  Pass 0  IDiag  1:
 FoFJK:  IHMeth= 1 ICntrl=       0 DoSepK=F KAlg= 0 I1Cent=   0 FoldK=F
 IRaf= 970000000 NMat=   1 IRICut=       1 DoRegI=T DoRafI=F ISym2E= 0.
 FoFCou: FMM=F IPFlag=           0 FMFlag=      100000 FMFlg1=           0
         NFxFlg=           0 DoJE=F BraDBF=F KetDBF=F FulRan=T
         wScrn=  0.000000 ICntrl=       0 IOpCl=  0 I1Cent=           0 NGrid=           0
         NMat0=    1 NMatS0=      1 NMatT0=    0 NMatD0=    1 NMtDS0=    0 NMtDT0=    0
 Symmetry not used in FoFCou.
 CoulSu:  requested number of processors reduced to:  11 ShMem   1 Linda.
 CalDSu:  requested number of processors reduced to:  21 ShMem   1 Linda.
 E= -211.322601114611    
 DIIS: error= 4.69D-03 at cycle   1 NSaved=   1.
 NSaved= 1 IEnMin= 1 EnMin= -211.322601114611     IErMin= 1 ErrMin= 4.69D-03
 ErrMax= 4.69D-03  0.00D+00 EMaxC= 1.00D-01 BMatC= 4.08D-03 BMatP= 4.08D-03
 IDIUse=3 WtCom= 9.53D-01 WtEn= 4.69D-02
 Coeff-Com:  0.100D+01
 Coeff-En:   0.100D+01
 Coeff:      0.100D+01
 Gap=     1.120 Goal=   None    Shift=    0.000
 GapD=    1.120 DampG=2.000 DampE=1.000 DampFc=2.0000 IDamp=-1.
 RMSDP=7.53D-04 MaxDP=1.97D-02              OVMax= 2.21D-02

 Cycle   2  Pass 0  IDiag  1:
 RMSU=  7.51D-04    CP:  9.97D-01
 CoulSu:  requested number of processors reduced to:  11 ShMem   1 Linda.
 CalDSu:  requested number of processors reduced to:  21 ShMem   1 Linda.
 E= -211.327867565486     Delta-E=       -0.005266450875 Rises=F Damp=F
 DIIS: error= 8.12D-04 at cycle   2 NSaved=   2.
 NSaved= 2 IEnMin= 2 EnMin= -211.327867565486     IErMin= 2 ErrMin= 8.12D-04
 ErrMax= 8.12D-04  0.00D+00 EMaxC= 1.00D-01 BMatC= 1.77D-04 BMatP= 4.08D-03
 IDIUse=3 WtCom= 9.92D-01 WtEn= 8.12D-03
 Coeff-Com:  0.225D-01 0.977D+00
 Coeff-En:   0.000D+00 0.100D+01
 Coeff:      0.224D-01 0.978D+00
 Gap=     0.285 Goal=   None    Shift=    0.000
 RMSDP=1.70D-04 MaxDP=6.50D-03 DE=-5.27D-03 OVMax= 6.43D-03

 Cycle   3  Pass 0  IDiag  1:
 RMSU=  1.70D-04    CP:  9.97D-01  1.02D+00
 CoulSu:  requested number of processors reduced to:  11 ShMem   1 Linda.
 CalDSu:  requested number of processors reduced to:  21 ShMem   1 Linda.
 E= -211.327784039968     Delta-E=        0.000083525518 Rises=F Damp=F
 DIIS: error= 9.75D-04 at cycle   3 NSaved=   3.
 NSaved= 3 IEnMin= 2 EnMin= -211.327867565486     IErMin= 2 ErrMin= 8.12D-04
 ErrMax= 9.75D-04  0.00D+00 EMaxC= 1.00D-01 BMatC= 3.01D-04 BMatP= 1.77D-04
 IDIUse=3 WtCom= 2.43D-01 WtEn= 7.57D-01
 Coeff-Com: -0.237D-01 0.583D+00 0.441D+00
 Coeff-En:   0.000D+00 0.591D+00 0.409D+00
 Coeff:     -0.576D-02 0.589D+00 0.417D+00
 Gap=     0.289 Goal=   None    Shift=    0.000
 RMSDP=1.01D-04 MaxDP=3.16D-03 DE= 8.35D-05 OVMax= 5.09D-03

 Cycle   4  Pass 0  IDiag  1:
 RMSU=  3.69D-05    CP:  9.97D-01  1.04D+00  4.58D-01
 CoulSu:  requested number of processors reduced to:  11 ShMem   1 Linda.
 CalDSu:  requested number of processors reduced to:  21 ShMem   1 Linda.
 E= -211.328042795281     Delta-E=       -0.000258755313 Rises=F Damp=F
 DIIS: error= 3.75D-04 at cycle   4 NSaved=   4.
 NSaved= 4 IEnMin= 4 EnMin= -211.328042795281     IErMin= 4 ErrMin= 3.75D-04
 ErrMax= 3.75D-04  0.00D+00 EMaxC= 1.00D-01 BMatC= 1.50D-05 BMatP= 1.77D-04
 IDIUse=3 WtCom= 9.96D-01 WtEn= 3.75D-03
 Coeff-Com: -0.158D-01 0.290D+00 0.244D+00 0.482D+00
 Coeff-En:   0.000D+00 0.000D+00 0.000D+00 0.100D+01
 Coeff:     -0.157D-01 0.289D+00 0.243D+00 0.484D+00
 Gap=     0.289 Goal=   None    Shift=    0.000
 RMSDP=2.38D-05 MaxDP=1.08D-03 DE=-2.59D-04 OVMax= 2.07D-03

 Cycle   5  Pass 0  IDiag  1:
 RMSU=  1.99D-05    CP:  9.97D-01  1.04D+00  4.84D-01  6.78D-01
 CoulSu:  requested number of processors reduced to:  11 ShMem   1 Linda.
 CalDSu:  requested number of processors reduced to:  21 ShMem   1 Linda.
 E= -211.328054033039     Delta-E=       -0.000011237758 Rises=F Damp=F
 DIIS: error= 1.79D-04 at cycle   5 NSaved=   5.
 NSaved= 5 IEnMin= 5 EnMin= -211.328054033039     IErMin= 5 ErrMin= 1.79D-04
 ErrMax= 1.79D-04  0.00D+00 EMaxC= 1.00D-01 BMatC= 3.65D-06 BMatP= 1.50D-05
 IDIUse=3 WtCom= 9.98D-01 WtEn= 1.79D-03
 Coeff-Com: -0.498D-02 0.546D-01 0.567D-01 0.332D+00 0.561D+00
 Coeff-En:   0.000D+00 0.000D+00 0.000D+00 0.240D+00 0.760D+00
 Coeff:     -0.497D-02 0.545D-01 0.566D-01 0.332D+00 0.562D+00
 Gap=     0.289 Goal=   None    Shift=    0.000
 RMSDP=8.99D-06 MaxDP=4.07D-04 DE=-1.12D-05 OVMax= 7.62D-04

 Initial convergence to 1.0D-05 achieved.  Increase integral accuracy.
 Cycle   6  Pass 1  IDiag  1:
 CoulSu:  requested number of processors reduced to:  11 ShMem   1 Linda.
 CalDSu:  requested number of processors reduced to:  21 ShMem   1 Linda.
 E= -211.328071651183     Delta-E=       -0.000017618144 Rises=F Damp=F
 DIIS: error= 2.17D-05 at cycle   1 NSaved=   1.
 NSaved= 1 IEnMin= 1 EnMin= -211.328071651183     IErMin= 1 ErrMin= 2.17D-05
 ErrMax= 2.17D-05  0.00D+00 EMaxC= 1.00D-01 BMatC= 1.87D-07 BMatP= 1.87D-07
 IDIUse=1 WtCom= 1.00D+00 WtEn= 0.00D+00
 Coeff-Com:  0.100D+01
 Coeff:      0.100D+01
 Gap=     0.289 Goal=   None    Shift=    0.000
 RMSDP=8.99D-06 MaxDP=4.07D-04 DE=-1.76D-05 OVMax= 2.33D-04

 Cycle   7  Pass 1  IDiag  1:
 RMSU=  8.22D-06    CP:  1.00D+00
 CoulSu:  requested number of processors reduced to:  11 ShMem   1 Linda.
 CalDSu:  requested number of processors reduced to:  21 ShMem   1 Linda.
 E= -211.328071480224     Delta-E=        0.000000170959 Rises=F Damp=F
 DIIS: error= 4.41D-05 at cycle   2 NSaved=   2.
 NSaved= 2 IEnMin= 1 EnMin= -211.328071651183     IErMin= 1 ErrMin= 2.17D-05
 ErrMax= 4.41D-05  0.00D+00 EMaxC= 1.00D-01 BMatC= 3.28D-07 BMatP= 1.87D-07
 IDIUse=1 WtCom= 1.00D+00 WtEn= 0.00D+00
 Coeff-Com:  0.579D+00 0.421D+00
 Coeff:      0.579D+00 0.421D+00
 Gap=     0.289 Goal=   None    Shift=    0.000
 RMSDP=3.23D-06 MaxDP=1.24D-04 DE= 1.71D-07 OVMax= 2.31D-04

 Cycle   8  Pass 1  IDiag  1:
 RMSU=  2.58D-06    CP:  1.00D+00  7.65D-01
 CoulSu:  requested number of processors reduced to:  11 ShMem   1 Linda.
 CalDSu:  requested number of processors reduced to:  21 ShMem   1 Linda.
 E= -211.328071765370     Delta-E=       -0.000000285146 Rises=F Damp=F
 DIIS: error= 1.93D-05 at cycle   3 NSaved=   3.
 NSaved= 3 IEnMin= 3 EnMin= -211.328071765370     IErMin= 3 ErrMin= 1.93D-05
 ErrMax= 1.93D-05  0.00D+00 EMaxC= 1.00D-01 BMatC= 3.67D-08 BMatP= 1.87D-07
 IDIUse=1 WtCom= 1.00D+00 WtEn= 0.00D+00
 Coeff-Com:  0.213D+00 0.261D+00 0.526D+00
 Coeff:      0.213D+00 0.261D+00 0.526D+00
 Gap=     0.289 Goal=   None    Shift=    0.000
 RMSDP=1.16D-06 MaxDP=5.30D-05 DE=-2.85D-07 OVMax= 9.97D-05

 Cycle   9  Pass 1  IDiag  1:
 RMSU=  9.74D-07    CP:  1.00D+00  8.00D-01  7.84D-01
 CoulSu:  requested number of processors reduced to:  11 ShMem   1 Linda.
 CalDSu:  requested number of processors reduced to:  21 ShMem   1 Linda.
 E= -211.328071794642     Delta-E=       -0.000000029272 Rises=F Damp=F
 DIIS: error= 7.36D-06 at cycle   4 NSaved=   4.
 NSaved= 4 IEnMin= 4 EnMin= -211.328071794642     IErMin= 4 ErrMin= 7.36D-06
 ErrMax= 7.36D-06  0.00D+00 EMaxC= 1.00D-01 BMatC= 7.61D-09 BMatP= 3.67D-08
 IDIUse=1 WtCom= 1.00D+00 WtEn= 0.00D+00
 Coeff-Com:  0.126D-01 0.831D-01 0.355D+00 0.550D+00
 Coeff:      0.126D-01 0.831D-01 0.355D+00 0.550D+00
 Gap=     0.289 Goal=   None    Shift=    0.000
 RMSDP=4.63D-07 MaxDP=1.46D-05 DE=-2.93D-08 OVMax= 2.87D-05

 Cycle  10  Pass 1  IDiag  1:
 RMSU=  1.76D-07    CP:  1.00D+00  8.09D-01  8.17D-01  5.77D-01
 CoulSu:  requested number of processors reduced to:  11 ShMem   1 Linda.
 CalDSu:  requested number of processors reduced to:  21 ShMem   1 Linda.
 E= -211.328071801816     Delta-E=       -0.000000007174 Rises=F Damp=F
 DIIS: error= 7.18D-07 at cycle   5 NSaved=   5.
 NSaved= 5 IEnMin= 5 EnMin= -211.328071801816     IErMin= 5 ErrMin= 7.18D-07
 ErrMax= 7.18D-07  0.00D+00 EMaxC= 1.00D-01 BMatC= 2.14D-10 BMatP= 7.61D-09
 IDIUse=1 WtCom= 1.00D+00 WtEn= 0.00D+00
 Coeff-Com: -0.306D-02 0.307D-01 0.156D+00 0.279D+00 0.538D+00
 Coeff:     -0.306D-02 0.307D-01 0.156D+00 0.279D+00 0.538D+00
 Gap=     0.289 Goal=   None    Shift=    0.000
 RMSDP=8.68D-08 MaxDP=2.88D-06 DE=-7.17D-09 OVMax= 3.17D-06

 Cycle  11  Pass 1  IDiag  1:
 RMSU=  4.57D-08    CP:  1.00D+00  8.09D-01  8.16D-01  6.04D-01  6.10D-01
 CoulSu:  requested number of processors reduced to:  11 ShMem   1 Linda.
 CalDSu:  requested number of processors reduced to:  21 ShMem   1 Linda.
 E= -211.328071802014     Delta-E=       -0.000000000198 Rises=F Damp=F
 DIIS: error= 1.59D-07 at cycle   6 NSaved=   6.
 NSaved= 6 IEnMin= 6 EnMin= -211.328071802014     IErMin= 6 ErrMin= 1.59D-07
 ErrMax= 1.59D-07  0.00D+00 EMaxC= 1.00D-01 BMatC= 5.24D-12 BMatP= 2.14D-10
 IDIUse=1 WtCom= 1.00D+00 WtEn= 0.00D+00
 Coeff-Com: -0.182D-02 0.908D-02 0.496D-01 0.929D-01 0.218D+00 0.632D+00
 Coeff:     -0.182D-02 0.908D-02 0.496D-01 0.929D-01 0.218D+00 0.632D+00
 Gap=     0.289 Goal=   None    Shift=    0.000
 RMSDP=1.48D-08 MaxDP=4.54D-07 DE=-1.98D-10 OVMax= 5.61D-07

 Cycle  12  Pass 1  IDiag  1:
 RMSU=  1.18D-08    CP:  1.00D+00  8.10D-01  8.17D-01  6.04D-01  6.39D-01
                    CP:  8.59D-01
 CoulSu:  requested number of processors reduced to:  11 ShMem   1 Linda.
 CalDSu:  requested number of processors reduced to:  21 ShMem   1 Linda.
 E= -211.328071802014     Delta-E=       -0.000000000000 Rises=F Damp=F
 DIIS: error= 3.69D-08 at cycle   7 NSaved=   7.
 NSaved= 7 IEnMin= 7 EnMin= -211.328071802014     IErMin= 7 ErrMin= 3.69D-08
 ErrMax= 3.69D-08  0.00D+00 EMaxC= 1.00D-01 BMatC= 3.36D-13 BMatP= 5.24D-12
 IDIUse=1 WtCom= 1.00D+00 WtEn= 0.00D+00
 Coeff-Com: -0.250D-03-0.212D-03 0.215D-03 0.133D-02 0.130D-01 0.202D+00
 Coeff-Com:  0.784D+00
 Coeff:     -0.250D-03-0.212D-03 0.215D-03 0.133D-02 0.130D-01 0.202D+00
 Coeff:      0.784D+00
 Gap=     0.289 Goal=   None    Shift=    0.000
 RMSDP=4.51D-09 MaxDP=1.18D-07 DE=-3.41D-13 OVMax= 1.92D-07

 SCF Done:  E(RB3LYP) =  -211.328071802     A.U. after   12 cycles
            NFock= 12  Conv=0.45D-08     -V/T= 2.0083
 KE= 2.095807974479D+02 PE=-8.089507285869D+02 EE= 2.286742365919D+02
 Leave Link  502 at Tue Aug 23 08:54:37 2022, MaxMem=    23592960 cpu:        86.3
 (Enter /public/home/users/caep010/software/Gaussian09/g09/l701.exe)
 Compute integral first derivatives.
 ... and contract with generalized density number  0.
 PrsmSu:  requested number of processors reduced to:   3 ShMem   1 Linda.
 PrsmSu:  requested number of processors reduced to:   6 ShMem   1 Linda.
 Leave Link  701 at Tue Aug 23 08:54:37 2022, MaxMem=    23592960 cpu:         1.6
 (Enter /public/home/users/caep010/software/Gaussian09/g09/l702.exe)
 L702 exits ... SP integral derivatives will be done elsewhere.
 Leave Link  702 at Tue Aug 23 08:54:37 2022, MaxMem=    23592960 cpu:         0.5
 (Enter /public/home/users/caep010/software/Gaussian09/g09/l703.exe)
 Compute integral first derivatives, UseDBF=F ICtDFT=           0.
 Integral derivatives from FoFJK, PRISM(SPDF).
 Calling FoFJK, ICntrl=      2127 FMM=F ISym2X=0 I1Cent= 0 IOpClX= 0 NMat=1 NMatS=1 NMatT=0.
 FoFJK:  IHMeth= 1 ICntrl=    2127 DoSepK=F KAlg= 0 I1Cent=   0 FoldK=F
 IRaf=         0 NMat=   1 IRICut=       1 DoRegI=T DoRafI=F ISym2E= 0.
 FoFCou: FMM=F IPFlag=           0 FMFlag=      100000 FMFlg1=         800
         NFxFlg=           0 DoJE=F BraDBF=F KetDBF=F FulRan=T
         wScrn=  0.000000 ICntrl=    2127 IOpCl=  0 I1Cent=           0 NGrid=           0
         NMat0=    1 NMatS0=      1 NMatT0=    0 NMatD0=    1 NMtDS0=    0 NMtDT0=    0
 Symmetry not used in FoFCou.
 CoulSu:  requested number of processors reduced to:   6 ShMem   1 Linda.
 CalDSu:  requested number of processors reduced to:  18 ShMem   1 Linda.
 Leave Link  703 at Tue Aug 23 08:54:39 2022, MaxMem=    23592960 cpu:        16.0
 (Enter /public/home/users/caep010/software/Gaussian09/g09/l716.exe)
 Dipole        = 4.61182051D-01 4.26594532D-01-2.00216361D-01
 ***** Axes restored to original set *****
 -------------------------------------------------------------------
 Center     Atomic                   Forces (Hartrees/Bohr)
 Number     Number              X              Y              Z
 -------------------------------------------------------------------
      1        6           0.002027717   -0.000343462   -0.000401950
      2        6          -0.004391991   -0.002918954   -0.003740838
      3        6           0.002409637   -0.000135465    0.005109594
      4        6          -0.000216048    0.000687419   -0.000569949
      5        7          -0.002000568   -0.001202657   -0.000943194
      6        1           0.000407604    0.000946136    0.001113348
      7        1          -0.000568356    0.000173577    0.000655024
      8        1          -0.000062452   -0.000189574   -0.000629934
      9        1           0.000176004    0.000443472    0.000065565
     10        1           0.001448233    0.001650301    0.000320419
     11        1           0.001270539    0.000840000   -0.001058146
     12        1          -0.000500318    0.000049207    0.000080061
 -------------------------------------------------------------------
 Cartesian Forces:  Max     0.005109594 RMS     0.001647252
 Leave Link  716 at Tue Aug 23 08:54:39 2022, MaxMem=    23592960 cpu:         0.5
 (Enter /public/home/users/caep010/software/Gaussian09/g09/l103.exe)

 GradGradGradGradGradGradGradGradGradGradGradGradGradGradGradGradGradGrad
 Berny optimization.
 Using GEDIIS/GDIIS optimizer.
 FormGI is forming the generalized inverse of G from B-inverse, IUseBI=4.
 Internal  Forces:  Max     0.006773839 RMS     0.001489205
 Search for a local minimum.
 Step number   2 out of a maximum of   55
 All quantities printed in internal units (Hartrees-Bohrs-Radians)
 RMS Force = .14892D-02 SwitMx=.10000D-02 MixMth= 1
 Mixed Optimization -- RFO/linear search
 Update second derivatives using D2CorX and points    1    2
 DE= -2.78D-03 DEPred=-3.73D-03 R= 7.44D-01
 TightC=F SS=  1.41D+00  RLast= 2.29D-01 DXNew= 5.0454D-01 6.8763D-01
 Trust test= 7.44D-01 RLast= 2.29D-01 DXMaxT set to 5.05D-01
 ITU=  1  0
 Use linear search instead of GDIIS.
     Eigenvalues ---    0.00337   0.00649   0.00655   0.00847   0.01166
     Eigenvalues ---    0.01425   0.04717   0.04938   0.05432   0.05626
     Eigenvalues ---    0.05815   0.10758   0.15969   0.16000   0.16000
     Eigenvalues ---    0.16000   0.16407   0.18726   0.24253   0.29478
     Eigenvalues ---    0.31058   0.32430   0.32506   0.32679   0.35738
     Eigenvalues ---    0.36425   0.38753   0.38988   0.40385   1.02120
 RFO step:  Lambda=-2.92509812D-03 EMin= 3.36581948D-03
 Quartic linear search produced a step of -0.17773.
 Iteration  1 RMS(Cart)=  0.11554764 RMS(Int)=  0.03210536
 Iteration  2 RMS(Cart)=  0.10135381 RMS(Int)=  0.00773186
 Iteration  3 RMS(Cart)=  0.00983973 RMS(Int)=  0.00005697
 Iteration  4 RMS(Cart)=  0.00002877 RMS(Int)=  0.00005360
 Iteration  5 RMS(Cart)=  0.00000000 RMS(Int)=  0.00005360
 ITry= 1 IFail=0 DXMaxC= 8.27D-01 DCOld= 1.00D+10 DXMaxT= 5.05D-01 DXLimC= 3.00D+00 Rises=F
 Variable       Old X    -DE/DX   Delta X   Delta X   Delta X     New X
                                 (Linear)    (Quad)   (Total)
    R1        2.27000   0.00166   0.00152  -0.00408  -0.00256   2.26745
    R2        2.00730  -0.00030  -0.00134   0.00414   0.00280   2.01009
    R3        2.77209  -0.00048   0.00091  -0.00433  -0.00342   2.76867
    R4        2.92001  -0.00196  -0.00428   0.00974   0.00546   2.92547
    R5        2.78295   0.00015  -0.00323   0.01181   0.00859   2.79154
    R6        2.07477   0.00076   0.00461  -0.01447  -0.00986   2.06490
    R7        2.06724   0.00061   0.00593  -0.01957  -0.01364   2.05360
    R8        2.06992   0.00003   0.00514  -0.01822  -0.01308   2.05684
    R9        2.07157  -0.00152   0.00509  -0.02194  -0.01685   2.05472
   R10        1.92036   0.00127   0.01033  -0.03418  -0.02386   1.89650
   R11        1.92118   0.00048   0.00989  -0.03425  -0.02436   1.89683
    A1        1.92823  -0.00050  -0.00071  -0.00355  -0.00412   1.92411
    A2        1.91152   0.00150   0.00009   0.00160   0.00193   1.91345
    A3        1.87232   0.00043   0.00223   0.00240   0.00468   1.87701
    A4        2.01448  -0.00271  -0.01295   0.03297   0.02010   2.03458
    A5        1.88148   0.00067   0.00308  -0.00828  -0.00530   1.87618
    A6        1.84884   0.00086   0.00930  -0.02820  -0.01892   1.82992
    A7        1.92169   0.00085   0.00206  -0.00268  -0.00062   1.92107
    A8        1.91898  -0.00023   0.00004  -0.00066  -0.00060   1.91838
    A9        1.95805  -0.00236  -0.00634   0.00941   0.00309   1.96114
   A10        1.89235  -0.00001   0.00116  -0.00204  -0.00087   1.89147
   A11        1.88536   0.00060   0.00266  -0.00772  -0.00508   1.88027
   A12        1.88577   0.00123   0.00057   0.00335   0.00396   1.88974
   A13        1.89546   0.00149   0.00274  -0.00015   0.00261   1.89807
   A14        1.89672  -0.00030  -0.00025   0.00146   0.00122   1.89794
   A15        1.84823   0.00000   0.00437  -0.01104  -0.00664   1.84159
   A16        3.14738   0.00245  -0.00105   0.21796   0.21692   3.36429
   A17        3.03691   0.00677   0.01863   0.31944   0.33807   3.37498
   A18        3.13845   0.00112   0.00048   0.09609   0.09657   3.23502
   A19        3.20510  -0.00268  -0.01140  -0.11222  -0.12361   3.08149
    D1       -1.08988   0.00057   0.00574  -0.01244  -0.00665  -1.09653
    D2        3.10940   0.00020   0.00298  -0.00784  -0.00481   3.10459
    D3        1.01042   0.00035   0.00629  -0.01782  -0.01147   0.99895
    D4        1.09042   0.00005  -0.00411   0.01272   0.00855   1.09896
    D5       -0.99349  -0.00033  -0.00688   0.01731   0.01038  -0.98311
    D6       -3.09246  -0.00018  -0.00357   0.00733   0.00372  -3.08874
    D7       -3.13066  -0.00006   0.00162  -0.00855  -0.00694  -3.13760
    D8        1.06862  -0.00044  -0.00114  -0.00395  -0.00511   1.06351
    D9       -1.03035  -0.00029   0.00217  -0.01394  -0.01177  -1.04212
   D10        1.21695  -0.00174  -0.00442  -0.02494  -0.02932   1.18764
   D11       -3.06332  -0.00111   0.00213  -0.03728  -0.03513  -3.09845
   D12       -0.97198  -0.00022   0.00571  -0.04697  -0.04121  -1.01319
   D13        1.03094   0.00041   0.01225  -0.05931  -0.04703   0.98391
   D14       -3.05218  -0.00006   0.00344  -0.03625  -0.03287  -3.08505
   D15       -1.04927   0.00058   0.00998  -0.04859  -0.03868  -1.08795
         Item               Value     Threshold  Converged?
 Maximum Force            0.006774     0.000450     NO 
 RMS     Force            0.001489     0.000300     NO 
 Maximum Displacement     0.826613     0.001800     NO 
 RMS     Displacement     0.203148     0.001200     NO 
 Predicted change in Energy=-1.887285D-03
 Lowest energy point so far.  Saving SCF results.
 GradGradGradGradGradGradGradGradGradGradGradGradGradGradGradGradGradGrad

 Leave Link  103 at Tue Aug 23 08:54:39 2022, MaxMem=    23592960 cpu:         2.0
 (Enter /public/home/users/caep010/software/Gaussian09/g09/l202.exe)
                          Input orientation:                          
 ---------------------------------------------------------------------
 Center     Atomic      Atomic             Coordinates (Angstroms)
 Number     Number       Type             X           Y           Z
 ---------------------------------------------------------------------
      1          6           0        2.298117   -0.951645    0.090158
      2          6           0        1.156110   -0.594706    0.180317
      3          6           0       -0.094366    0.133682    0.409060
      4          6           0       -1.273681   -0.598168   -0.276649
      5          7           0        0.090416    1.557882    0.063102
      6          1           0        3.357783   -1.042831    0.074615
      7          1           0       -0.285978    0.129448    1.484819
      8          1           0       -1.122969   -0.621730   -1.352609
      9          1           0       -2.205012   -0.073324   -0.072082
     10          1           0       -1.378639   -1.624861    0.065598
     11          1           0        0.218751    1.634793   -0.929266
     12          1           0       -0.760533    2.051359    0.262837
 ---------------------------------------------------------------------
                    Distance matrix (angstroms):
                    1          2          3          4          5
     1  C    0.000000
     2  C    1.199881   0.000000
     3  C    2.646434   1.465115   0.000000
     4  C    3.607941   2.472390   1.548091   0.000000
     5  N    3.342514   2.404802   1.477219   2.573858   0.000000
     6  H    1.063695   2.249301   3.662427   4.666002   4.176066
     7  H    3.129120   2.075028   1.092699   2.146568   2.050213
     8  H    3.727499   2.746778   2.175350   1.086720   2.868318
     9  H    4.590854   3.410672   2.174667   1.088433   2.819238
    10  H    3.737962   2.738491   2.204495   1.087312   3.505422
    11  H    3.471693   2.660917   2.035312   2.763943   1.003584
    12  H    4.289894   3.268331   2.035349   2.752156   1.003757
                    6          7          8          9         10
     6  H    0.000000
     7  H    4.079204   0.000000
     8  H    4.721380   3.052183   0.000000
     9  H    5.648553   2.479466   1.763893   0.000000
    10  H    4.772058   2.507130   1.755833   1.763268   0.000000
    11  H    4.246289   2.889398   2.659197   3.086594   3.763875
    12  H    5.154606   2.326410   3.144270   2.590940   3.733036
                   11         12
    11  H    0.000000
    12  H    1.598010   0.000000
 Stoichiometry    C4H7N
 Framework group  C1[X(C4H7N)]
 Deg. of freedom    30
 Full point group                 C1      NOp   1
 RotChk:  IX=3 Diff= 1.63D-01
 Largest Abelian subgroup         C1      NOp   1
 Largest concise Abelian subgroup C1      NOp   1
                         Standard orientation:                         
 ---------------------------------------------------------------------
 Center     Atomic      Atomic             Coordinates (Angstroms)
 Number     Number       Type             X           Y           Z
 ---------------------------------------------------------------------
      1          6           0       -2.207898    0.155352   -0.099085
      2          6           0       -1.022116    0.218830    0.072983
      3          6           0        0.389538   -0.037716    0.369597
      4          6           0        1.267331    1.123094   -0.158213
      5          7           0        0.751986   -1.397426   -0.079844
      6          1           0       -3.226116   -0.133180   -0.205995
      7          1           0        0.498265   -0.063835    1.456559
      8          1           0        1.186684    1.189574   -1.239895
      9          1           0        2.310188    0.945340    0.097791
     10          1           0        0.973871    2.084860    0.255472
     11          1           0        0.723035   -1.424165   -1.082654
     12          1           0        1.709038   -1.573974    0.165942
 ---------------------------------------------------------------------
 Rotational constants (GHZ):      8.1834128      3.9157365      2.8652271
 Leave Link  202 at Tue Aug 23 08:54:40 2022, MaxMem=    23592960 cpu:         1.4
 (Enter /public/home/users/caep010/software/Gaussian09/g09/l301.exe)
 Standard basis: GTBas3 (6D, 7F)
 Ernie: Thresh=  0.10000D-02 Tol=  0.10000D-05 Strict=F.
 There are   190 symmetry adapted cartesian basis functions of A   symmetry.
 There are   175 symmetry adapted basis functions of A   symmetry.
   175 basis functions,   269 primitive gaussians,   190 cartesian basis functions
    19 alpha electrons       19 beta electrons
       nuclear repulsion energy       159.4915684065 Hartrees.
 IExCor=  402 DFT=T Ex+Corr=B3LYP ExCW=0 ScaHFX=  0.200000
[...]
 Alpha virt. eigenvalues --    7.83238   7.88993   7.92824   7.93585   7.94981
 Alpha virt. eigenvalues --    7.95049   8.02013   8.02751   8.03415   8.10382
 Alpha virt. eigenvalues --    8.13562   8.16475   8.19584   8.24028   8.30140
 Alpha virt. eigenvalues --    8.30880   8.31652   8.33818   8.37926   8.39286
 Alpha virt. eigenvalues --    8.40234   8.41985   8.44367   8.45348   8.47883
 Alpha virt. eigenvalues --    8.48670   8.51971   8.55545   8.57103   8.59579
 Alpha virt. eigenvalues --    8.60556   8.62448   8.66300   8.68114   8.70097
 Alpha virt. eigenvalues --    8.71603   8.72833   8.76639   8.80460   8.82033
 Alpha virt. eigenvalues --    8.84367   8.86344   8.90896   8.93108   8.95305
 Alpha virt. eigenvalues --    8.97372   8.98102   9.00297   9.00922   9.03948
 Alpha virt. eigenvalues --    9.07660   9.09452   9.13018   9.14281   9.18575
 Alpha virt. eigenvalues --    9.21003   9.22478   9.24545   9.29078   9.31862
 Alpha virt. eigenvalues --    9.32349   9.35319   9.36776   9.40255   9.42200
 Alpha virt. eigenvalues --    9.42982   9.45584   9.48578   9.50705   9.54421
 Alpha virt. eigenvalues --    9.56495   9.57493   9.59544   9.64715   9.68485
 Alpha virt. eigenvalues --    9.70764   9.77026   9.78417   9.80940   9.82851
 Alpha virt. eigenvalues --    9.84355   9.87607   9.89432   9.91411   9.93751
 Alpha virt. eigenvalues --    9.94288   9.94985   9.97471  10.01153  10.01759
 Alpha virt. eigenvalues --   10.03850  10.05186  10.06549  10.08496  10.12608
 Alpha virt. eigenvalues --   10.13495  10.15312  10.18133  10.22815  10.23929
 Alpha virt. eigenvalues --   10.28467  10.33736  10.35409  10.37154  10.41503
 Alpha virt. eigenvalues --   10.43186  10.44719  10.48834  10.52878  10.55967
 Alpha virt. eigenvalues --   10.58694  10.64048  10.68010  10.70185  10.72238
 Alpha virt. eigenvalues --   10.79120  10.82143  10.88233  10.90706  10.92647
 Alpha virt. eigenvalues --   10.95826  10.96697  11.00497  11.04935  11.07531
 Alpha virt. eigenvalues --   11.11946  11.14200  11.14753  11.18855  11.20858
 Alpha virt. eigenvalues --   11.21805  11.24547  11.26237  11.31004  11.32926
 Alpha virt. eigenvalues --   11.34824  11.37031  11.37655  11.39097  11.41737
 Alpha virt. eigenvalues --   11.44752  11.50513  11.53058  11.54450  11.60017
 Alpha virt. eigenvalues --   11.64359  11.68197  11.68659  11.74024  11.76443
 Alpha virt. eigenvalues --   11.82483  11.87678  11.88957  11.92035  11.92522
 Alpha virt. eigenvalues --   11.97513  12.00598  12.01757  12.07610  12.11601
 Alpha virt. eigenvalues --   12.15682  12.19053  12.21942  12.27282  12.29582
 Alpha virt. eigenvalues --   12.32779  12.35248  12.45239  12.50493  12.51546
 Alpha virt. eigenvalues --   12.54890  12.55429  12.62228  12.69631  12.73301
 Alpha virt. eigenvalues --   12.86103  12.86911  12.89891  12.94650  12.98287
 Alpha virt. eigenvalues --   13.01544  13.07021  13.08927  13.17202  13.21348
 Alpha virt. eigenvalues --   13.22689  13.25672  13.34034  13.38705  13.42502
 Alpha virt. eigenvalues --   13.65832  13.71626  13.76629  13.82359  13.89928
 Alpha virt. eigenvalues --   13.91326  13.96438  14.03382  14.10476  14.22127
 Alpha virt. eigenvalues --   14.24345  14.56742  14.60642  14.65950  14.77231
 Alpha virt. eigenvalues --   14.83659  14.84623  14.94203  15.00452  15.02792
 Alpha virt. eigenvalues --   15.12483  15.26978  15.31990  15.36564  15.36880
 Alpha virt. eigenvalues --   15.44460  15.56055  15.80084  15.83934  15.96738
 Alpha virt. eigenvalues --   16.20259  16.26047  16.68365  16.86094  16.89354
 Alpha virt. eigenvalues --   17.17977  17.40311  17.58479  17.59631  17.83324
 Alpha virt. eigenvalues --   18.32240  18.42238  18.53373  18.86931  19.13521
 Alpha virt. eigenvalues --   19.28700  19.42356  19.54102  20.34898  38.54856
 Alpha virt. eigenvalues --   40.27137  40.76547  41.36929  50.66916
          Condensed to atoms (all electrons):
               1          2          3          4          5          6
     1  C    5.281985   0.865769  -0.084937  -0.013305  -0.012621   0.417824
     2  C    0.865769   4.827365   0.390573  -0.058381  -0.053273  -0.031480
     3  C   -0.084937   0.390573   4.689795   0.428897   0.290629   0.003052
     4  C   -0.013305  -0.058381   0.428897   5.003993  -0.050962  -0.000193
     5  N   -0.012621  -0.053273   0.290629  -0.050962   6.732665  -0.000172
     6  H    0.417824  -0.031480   0.003052  -0.000193  -0.000172   0.368594
     7  H    0.012580  -0.045696   0.401269  -0.042064  -0.027767   0.000057
     8  H    0.001821  -0.016035  -0.007780   0.408919  -0.007328   0.000035
     9  H   -0.000858   0.016597  -0.045228   0.419126  -0.006241  -0.000000
    10  H    0.002070  -0.009776  -0.024592   0.415047   0.006726   0.000005
    11  H    0.005245  -0.014760  -0.021593   0.001941   0.393362   0.000054
    12  H    0.000766   0.011601  -0.041501  -0.000259   0.395296   0.000000
               7          8          9         10         11         12
     1  C    0.012580   0.001821  -0.000858   0.002070   0.005245   0.000766
     2  C   -0.045696  -0.016035   0.016597  -0.009776  -0.014760   0.011601
     3  C    0.401269  -0.007780  -0.045228  -0.024592  -0.021593  -0.041501
     4  C   -0.042064   0.408919   0.419126   0.415047   0.001941  -0.000259
     5  N   -0.027767  -0.007328  -0.006241   0.006726   0.393362   0.395296
     6  H    0.000057   0.000035  -0.000000   0.000005   0.000054   0.000000
     7  H    0.519710   0.005786  -0.004729  -0.002038   0.006038  -0.004860
     8  H    0.005786   0.483393  -0.023109  -0.018856   0.001772  -0.000565
     9  H   -0.004729  -0.023109   0.502116  -0.020483  -0.000168   0.001622
    10  H   -0.002038  -0.018856  -0.020483   0.474808  -0.000488   0.000005
    11  H    0.006038   0.001772  -0.000168  -0.000488   0.370111  -0.033340
    12  H   -0.004860  -0.000565   0.001622   0.000005  -0.033340   0.387374
 Mulliken charges:
               1
     1  C   -0.476340
     2  C    0.117497
     3  C    0.021415
     4  C   -0.512758
     5  N   -0.660313
     6  H    0.242223
     7  H    0.181715
     8  H    0.171948
     9  H    0.161353
    10  H    0.177572
    11  H    0.291827
    12  H    0.283861
 Sum of Mulliken charges =  -0.00000
 Mulliken charges with hydrogens summed into heavy atoms:
               1
     1  C   -0.234116
     2  C    0.117497
     3  C    0.203130
     4  C   -0.001885
     5  N   -0.084626
 Electronic spatial extent (au):  <R**2>=            463.1175
 Charge=             -0.0000 electrons
 Dipole moment (field-independent basis, Debye):
    X=              1.2101    Y=              1.1656    Z=             -0.5757  Tot=              1.7761
 Quadrupole moment (field-independent basis, Debye-Ang):
   XX=            -25.1773   YY=            -35.9158   ZZ=            -30.9604
   XY=             -0.5781   XZ=              0.9156   YZ=              1.7011
 Traceless Quadrupole moment (field-independent basis, Debye-Ang):
   XX=              5.5072   YY=             -5.2313   ZZ=             -0.2759
   XY=             -0.5781   XZ=              0.9156   YZ=              1.7011
 Octapole moment (field-independent basis, Debye-Ang**2):
  XXX=             -8.8970  YYY=              6.4067  ZZZ=             -1.1493  XYY=              3.9455
  XXY=             -3.6451  XXZ=             -3.5357  XZZ=              5.4323  YZZ=             -2.3443
  YYZ=             -2.6233  XYZ=              1.1062
 Hexadecapole moment (field-independent basis, Debye-Ang**3):
 XXXX=           -278.8233 YYYY=           -210.3866 ZZZZ=            -59.6769 XXXY=            -13.8138
 XXXZ=             17.0552 YYYX=             -1.1261 YYYZ=              7.9882 ZZZX=             -0.6493
 ZZZY=              3.0198 XXYY=           -100.1791 XXZZ=            -80.2611 YYZZ=            -41.0878
 XXYZ=              1.0343 YYXZ=             -2.1786 ZZXY=             -2.3437
 N-N= 1.594681576912D+02 E-N=-8.085583191409D+02  KE= 2.097219471631D+02
 PrsmSu:  requested number of processors reduced to:   1 ShMem   1 Linda.
 No NMR shielding tensors so no spin-rotation constants.
 Leave Link  601 at Tue Aug 23 11:12:20 2022, MaxMem=    23592960 cpu:         8.0
 (Enter /public/home/users/caep010/software/Gaussian09/g09/l9999.exe)
 1\1\GINC-B1761\SP\RHF\GFHFB2\C4H7N1\ROOT\23-Aug-2022\0\\#P Geom=AllChe
 ck Guess=TCheck SCRF=Check HF/GFHFB2 SCF=Tight\\Frag_730\\0,1\C,0,2.27
 92899129,-0.9446417522,0.07920446\C,0,1.218215254,-0.4142789516,0.2708
 770644\C,0,-0.0941147328,0.2067162003,0.4629431246\C,0,-1.1846678456,-
 0.6005383356,-0.2731317567\N,0,-0.0230513979,1.6293044626,0.0865585148
 \H,0,3.2243442989,-1.4046594408,-0.0717998549\H,0,-0.3227565259,0.1823
 39832,1.5375168694\H,0,-0.991456065,-0.6079617627,-1.3504585847\H,0,-2
 .1664584428,-0.1476325494,-0.0984265049\H,0,-1.2156417266,-1.637281188
 9,0.0757212924\H,0,0.2259688496,1.7001662675,-0.8968413895\H,0,-0.9496
 715789,2.0383672188,0.1777367651\\Version=ES64L-G09RevE.01\State=1-A\H
 F=-210.015401\RMSD=3.974e-09\Dipole=-0.6022595,-0.1868017,-0.3010965\Q
 uadrupole=2.49924,-1.8946308,-0.6046092,-3.1758563,-1.1677646,-1.28998
 84\PG=C01 [X(C4H7N1)]\\@


 TIME IS NATURE'S WAY OF MAKING SURE EVERYTHING
 DOESN'T HAPPEN AT ONCE.
                     - WOODY ALLEN
 Diagonal vibrational polarizability:
        0.0000000       0.0000000       0.0000000

 Temperature=              298.150000 Pressure=                      1.000000
 E(ZPE)=                     0.100168 E(Thermal)=                    0.106401
 E(CCSD(T))=              -210.657041 E(Empiric)=                   -0.097258
 DE(Plus)=                  -0.016708 DE(2DF)=                      -0.185922
 E(Delta-G3XP)=             -0.297889 DE(HF)=                       -0.020518
 G4(0 K)=                 -211.175169 G4 Energy=                  -211.168936
 G4 Enthalpy=             -211.167991 G4 Free Energy=             -211.203939
 1\1\GINC-B1761\Mixed\G4\G4\C4H7N1\ROOT\23-Aug-2022\0\\#P Geom=AllCheck
  Guess=TCheck SCRF=Check HF/GFHFB2 SCF=Tight\\Frag_730\\0,1\C,0,2.2792
 899129,-0.9446417522,0.07920446\C,0,1.218215254,-0.4142789516,0.270877
 0644\C,0,-0.0941147328,0.2067162003,0.4629431246\C,0,-1.1846678456,-0.
 6005383356,-0.2731317567\N,0,-0.0230513979,1.6293044626,0.0865585148\H
 ,0,3.2243442989,-1.4046594408,-0.0717998549\H,0,-0.3227565259,0.182339
 832,1.5375168694\H,0,-0.991456065,-0.6079617627,-1.3504585847\H,0,-2.1
 664584428,-0.1476325494,-0.0984265049\H,0,-1.2156417266,-1.6372811889,
 0.0757212924\H,0,0.2259688496,1.7001662675,-0.8968413895\H,0,-0.949671
 5789,2.0383672188,0.1777367651\\Version=ES64L-G09RevE.01\State=1-A\MP2
 /GTBas1=-210.588405\MP4/GTBas1=-210.6569447\CCSD(T)/G3Bas1=-210.657041
 1\MP2/GTBas2=-210.6045718\MP4/GTBas2=-210.6736523\MP2/GTBas3=-210.7645
 888\MP4/GTBas3=-210.8428671\HF/GTLargeXP=-209.9956936\MP2/GTLargeXP=-2
 11.0786446\HF/GFHFB1=-210.0120738\HF/GFHFB2=-210.015401\G4=-211.175168
 8\FreqCoord=4.3072337129,-1.7851142053,0.1496747379,2.3020932009,-0.78
 28737612,0.5118834673,-0.1778510702,0.3906370057,0.8748357207,-2.23869
 77865,-1.1348529865,-0.5161442183,-0.0435608289,3.0789392215,0.1635718
 874,6.0931276831,-2.6544216531,-0.1356820621,-0.6099214415,0.344572345
 6,2.9054858078,-1.8735804356,-1.1488812308,-2.551996879,-4.0940131353,
 -0.2789850867,-0.1859991385,-2.297229939,-3.0940130496,0.143092505,0.4
 270192403,3.212848626,-1.6947846107,-1.7946192003,3.8519558018,0.33587
 38098\PG=C01 [X(C4H7N1)]\NImag=0\\1.22195653,-0.58318076,0.33055055,-0
 .20391722,0.09972480,0.07364665,-0.88112224,0.42427010,0.15041027,1.15
 229212,0.42433953,-0.23856531,-0.07523729,-0.52013314,0.35903818,0.149
 19986,-0.07428843,-0.05142664,-0.17889894,0.08986356,0.12096057,0.0032
 7017,-0.00023273,0.00035862,-0.22324808,0.07178462,0.02880471,0.495896
 26,-0.00065129,0.00436898,0.00120207,0.07500964,-0.09444668,-0.0152339
 4,-0.04376121,0.43793832,0.00402955,-0.00138967,0.00253417,0.02319868,
 -0.00870041,-0.07133816,-0.04732920,-0.00718228,0.56239567,0.00129889,
 -0.00034076,-0.00017563,-0.03835991,-0.01086529,-0.01494022,-0.1196565
 3,-0.03289657,-0.03438797,0.50698986,0.00335598,-0.00257391,-0.0015424
 5,0.00380870,0.01023073,0.00712437,-0.02182619,-0.09022018,-0.01933092
 ,-0.04990014,0.53959860,0.00218700,-0.00157020,-0.00056685,-0.00027639
 ,0.00397889,0.00299759,-0.03372452,-0.02440924,-0.10523541,-0.04317024
 ,-0.03354578,0.54332877,-0.00107750,0.00020422,0.00035295,-0.00350198,
 0.03752959,-0.00783064,-0.07913763,0.02213201,0.01393078,0.00105438,-0
 .02645506,0.00718294,0.48958888,-0.00154762,0.00091459,0.00045066,0.01
 551732,-0.03014673,0.00508190,-0.02502113,-0.17890391,0.01176308,-0.00
 446797,-0.03697709,0.00879372,-0.15338040,0.39251183,0.00130979,-0.000
 34635,0.00022717,-0.00105309,-0.00530108,0.00267471,0.02633827,0.05312
 930,-0.09034807,-0.00100776,-0.01264325,0.00703692,-0.15870284,-0.0810
 5876,0.52636458,-0.34234689,0.15759897,0.05263296,0.00578979,-0.003044
 10,-0.00140005,0.00168891,0.00213779,0.00061170,0.00046717,-0.00041424
 ,-0.00018165,-0.00040169,0.00019233,0.00003537,0.33466329,0.15666998,-
 0.09595225,-0.02459109,-0.00206161,0.00109748,0.00013568,0.00233599,0.
 00466224,-0.00043886,0.00075821,-0.00028677,-0.00014869,-0.00126200,0.
 00062973,0.00027851,-0.15663787,0.08957685,0.05129991,-0.02415473,-0.0
 2629361,0.00013292,-0.00031744,-0.00132368,0.00047199,-0.00027818,0.00
 664358,0.00069857,-0.00021539,-0.00004347,0.00036314,-0.00037745,-0.00
 007932,-0.05182431,0.02477421,0.02107567,-0.00138627,0.00094311,-0.000
 60409,-0.01298875,0.00276334,0.03104219,-0.05798779,0.00070506,0.05206
 068,0.00363492,-0.00246972,-0.02517499,0.00120612,-0.00165176,0.002206
 48,0.00002794,0.00018130,-0.00133332,0.06770527,0.00118632,-0.00009921
 ,0.00018273,0.00510225,-0.00047077,-0.01436810,0.00373437,-0.04358589,
 -0.00443891,0.00130372,0.00002429,-0.01725205,-0.01247182,-0.01095294,
 0.03708064,-0.00003516,-0.00006548,0.00065608,0.00150433,0.06061114,-0
 .00154332,0.00080136,0.00044479,0.00691551,-0.00356635,-0.00312875,0.0
 4917718,0.00274559,-0.28197782,0.00148040,-0.00241108,-0.01764607,0.00
 384705,0.00668310,-0.00904373,0.00005953,0.00000376,0.00004215,-0.0556
 3300,-0.00463948,0.30953530,-0.00019763,0.00022580,0.00050833,0.002510
 21,-0.00033450,-0.00094040,0.00272719,-0.00015290,-0.02596222,-0.05635
 085,0.00014858,0.05084869,0.00075840,0.00220888,0.00072909,-0.00004466
 ,-0.00002327,0.00000291,-0.00310016,-0.00284864,-0.00263943,0.05900707
 ,-0.00021637,0.00006542,0.00007843,0.00107792,-0.00010969,0.00060217,0
 .00226826,-0.00132777,-0.01806796,0.00079715,-0.04678710,0.00072451,0.
 00141663,0.00204812,0.00031563,0.00000263,0.00000719,-0.00001444,-0.00
 276224,-0.00119375,-0.00184003,0.00187035,0.04712707,-0.00057477,0.000
 45320,0.00045207,0.00127302,-0.00042246,0.00059470,0.00259187,0.001122
 20,-0.01781661,0.04925285,0.00016594,-0.30109966,0.00044162,0.00026686
 ,0.00258930,-0.00000581,-0.00000597,-0.00006239,-0.00299196,-0.0016068
 1,-0.00006656,-0.05189977,0.00149073,0.32806597,-0.00041974,0.00017927
 ,0.00009682,-0.00331878,-0.00266589,-0.00298874,-0.02142415,0.01102637
 ,0.00403229,-0.25341586,0.09782036,0.03964031,0.00253475,0.00092809,0.
 00051871,0.00017462,0.00008249,0.00011466,0.00107480,0.00004213,-0.000
 11165,-0.00448593,0.00188092,0.00024532,0.27768068,-0.00060358,0.00081
 084,0.00027593,-0.00205458,-0.00152468,-0.00161501,-0.01721279,0.00471
 797,0.00239978,0.09934743,-0.09377182,-0.01801980,0.00022924,0.0024923
 9,0.00039913,0.00006056,0.00008778,0.00008171,0.00089186,0.00052715,0.
 00067301,-0.00108832,-0.00074732,0.00046521,-0.10682403,0.09925674,-0.
 00070011,0.00052858,0.00046474,-0.00215784,-0.00244923,-0.00074422,-0.
 01617521,0.00688688,0.00155723,0.04010819,-0.01898483,-0.05506313,0.00
 091408,0.00137072,-0.00019822,0.00009802,0.00011931,0.00002652,0.00047
 756,0.00075518,0.00069182,0.02826784,-0.01384172,-0.00377980,-0.041272
 90,0.02181952,0.05558192,-0.00004486,0.00039079,0.00001441,0.00078951,
 -0.00034902,0.00035221,0.00032893,-0.02022143,0.01020526,-0.04720673,-
 0.00351277,0.00092890,-0.00313198,-0.00514171,-0.00261701,-0.00007052,
 -0.00003714,-0.00001137,0.00075786,0.00066873,0.00005498,-0.00098536,-
 0.00594529,0.00196766,0.00167417,0.02718548,-0.00998406,0.04782901,-0.
 00032001,0.00057418,0.00010189,0.00100872,0.00024069,-0.00018865,0.002
 41068,-0.01383722,0.00725236,-0.00549926,-0.28288483,0.08123013,-0.004
 09209,-0.00344376,-0.00251339,-0.00001860,-0.00001420,0.00001389,0.000
 26798,0.00040270,-0.00044034,0.00041227,0.00133776,-0.00074300,-0.0009
 3961,-0.01130531,0.00411686,0.00668305,0.30775065,0.00001473,-0.000050
 76,-0.00007831,0.00033722,0.00003732,0.00042100,0.00145850,-0.01491915
 ,0.00537820,0.00144111,0.08228678,-0.07583257,-0.00275605,-0.00301849,
 0.00005279,-0.00000788,0.00001012,-0.00000100,0.00082629,0.00039172,0.
 00042769,0.00019488,0.03038463,-0.00904711,-0.00036483,-0.00624422,0.0
 0109161,-0.00052932,-0.08880590,0.07778551,-0.00072571,-0.00018538,0.0
 0044532,0.00172748,-0.00013210,-0.00150198,-0.00194934,-0.00429893,0.0
 0140435,-0.00038743,0.00100526,0.00128315,-0.05280371,0.01415401,0.072
 31626,-0.00000980,0.00004256,0.00004555,0.00096637,0.00127907,-0.00126
 030,0.00019176,-0.00047788,-0.00029183,-0.00017968,-0.00015972,0.00008
 632,0.00026685,0.00031016,-0.00049148,0.06464627,0.00041540,-0.0000966
 2,-0.00052926,-0.00124572,0.00184382,0.00046046,-0.01126240,-0.0087181
 0,0.04146802,0.00022586,0.00155599,0.00129939,0.01855813,-0.04652646,0
 .00906336,0.00006348,-0.00002684,-0.00002990,-0.00017479,-0.00642542,0
 .00183827,-0.00021934,-0.00024977,-0.00107279,-0.00007934,-0.00009280,
 -0.00017891,0.00035722,0.00025017,-0.00049020,-0.00847874,0.05779996,-
 0.00036447,-0.00007536,0.00017036,-0.00002739,-0.00032213,0.00040311,-
 0.00128370,-0.00354201,-0.01268389,0.00017979,-0.00116959,0.00232858,0
 .11747186,0.03654823,-0.39364909,0.00000947,0.00003938,-0.00002566,-0.
 00053449,0.00337990,0.00096301,0.00071679,0.00043805,0.00025685,0.0001
 0164,0.00005370,0.00001481,-0.00033382,-0.00040176,-0.00014323,-0.1098
 8723,-0.03428089,0.40766226,0.00079525,0.00012738,-0.00012274,-0.00056
 936,0.00110696,-0.00089800,-0.00050794,-0.00902853,-0.00179392,0.00193
 208,-0.00156075,0.00045681,-0.35508803,0.15820996,0.05992672,0.0000618
 5,-0.00004865,0.00003935,0.00008970,0.00053470,-0.00034694,-0.00003003
 ,0.00008791,-0.00000821,0.00010512,0.00022844,0.00033811,-0.00020687,-
 0.00022330,-0.00012318,-0.01174305,0.00184023,-0.00604846,0.36516127,0
 .00055242,0.00000276,-0.00011641,-0.00029959,-0.00718704,0.00242598,0.
 03678254,-0.02064776,-0.00333421,0.00153760,0.00209209,-0.00108088,0.1
 1759156,-0.09164577,0.00159627,0.00009420,0.00028427,-0.00013836,-0.00
 019849,0.00122817,0.00015218,-0.00019891,-0.00017016,-0.00011312,-0.00
 145074,-0.00045095,-0.00014235,-0.00007792,0.00092918,0.00041815,-0.00
 305831,0.00068606,-0.00066749,-0.15127436,0.11487915,-0.00094095,0.000
 36757,0.00042546,0.00014603,0.00243662,-0.00009023,-0.01068852,0.00047
 877,0.00089110,0.00052091,0.00026621,-0.00020469,0.02478510,0.01349641
 ,-0.04562703,-0.00002736,-0.00017635,0.00004122,-0.00034133,-0.0001408
 9,-0.00024183,0.00017326,-0.00026999,-0.00008678,-0.00001165,-0.000288
 95,0.00035671,-0.00004784,0.00037791,-0.00005459,0.03785187,-0.0175475
 5,-0.00529711,-0.05141953,0.00100024,0.04988778\\-0.00000410,0.0000139
 6,-0.00003417,-0.00000623,-0.00000389,0.00003165,0.00007483,0.00002672
 ,-0.00000891,-0.00005147,-0.00002740,-0.00001195,-0.00003046,-0.000001
 91,-0.00000837,-0.00000069,-0.00000537,0.00001195,-0.00000520,-0.00000
 021,0.00000171,0.00000894,0.00000638,-0.00000520,-0.00000121,0.0000039
 1,-0.00000150,0.00000350,-0.00000769,-0.00000050,0.00000931,-0.0000099
 2,0.00001334,0.00000279,0.00000542,0.00001198\\\@
 Job cpu time:       0 days  1 hours 35 minutes  1.8 seconds.
 File lengths (MBytes):  RWF=   5950 Int=      0 D2E=      0 Chk=     27 Scr=      1
 Normal termination of Gaussian 09 at Tue Aug 23 11:12:20 2022.
