 Entering Gaussian System, Link 0=g09
 Input=G4.Frag_636.gjf
 Output=G4.Frag_636.log
 Initial command:
 /public/home/users/caep010/software/Gaussian09/g09/l1.exe "/public/home/users/caep010/.cache/gau_scr/Gau-197917.inp" -scrdir="/public/home/users/caep010/.cache/gau_scr/"
 Entering Link 1 = /public/home/users/caep010/software/Gaussian09/g09/l1.exe PID=    197918.
  
 Copyright (c) 1988,1990,1992,1993,1995,1998,2003,2009,2015,
            Gaussian, Inc.  All Rights Reserved.
  
 This is part of the Gaussian(R) 09 program.  It is based on
 the Gaussian(R) 03 system (copyright 2003, Gaussian, Inc.),
 the Gaussian(R) 98 system (copyright 1998, Gaussian, Inc.),
 the Gaussian(R) 94 system (copyright 1995, Gaussian, Inc.),
 the Gaussian 92(TM) system (copyright 1992, Gaussian, Inc.),
 the Gaussian 90(TM) system (copyright 1990, Gaussian, Inc.),
 the Gaussian 88(TM) system (copyright 1988, Gaussian, Inc.),
 the Gaussian 86(TM) system (copyright 1986, Carnegie Mellon
 University), and the Gaussian 82(TM) system (copyright 1983,
 Carnegie Mellon University). Gaussian is a federally registered
 trademark of Gaussian, Inc.
  
 This software contains proprietary and confidential information,
 including trade secrets, belonging to Gaussian, Inc.
  
 This software is provided under written license and may be
 used, copied, transmitted, or stored only in accord with that
 written license.
  
 The following legend is applicable only to US Government
 contracts under FAR:
  
                    RESTRICTED RIGHTS LEGEND
  
 Use, reproduction and disclosure by the US Government is
 subject to restrictions as set forth in subparagraphs (a)
 and (c) of the Commercial Computer Software - Restricted
 Rights clause in FAR 52.227-19.
  
 Gaussian, Inc.
 340 Quinnipiac St., Bldg. 40, Wallingford CT 06492
  
  
 ---------------------------------------------------------------
 Warning -- This program may not be used in any manner that
 competes with the business of Gaussian, Inc. or will provide
 assistance to any competitor of Gaussian, Inc.  The licensee
 of this program is prohibited from giving any competitor of
 Gaussian, Inc. access to this program.  By using this program,
 the user acknowledges that Gaussian, Inc. is engaged in the
 business of creating and licensing software in the field of
 computational chemistry and represents and warrants to the
 licensee that it is not a competitor of Gaussian, Inc. and that
 it will not use this program in any manner prohibited above.
 ---------------------------------------------------------------
  

 Cite this work as:
 Gaussian 09, Revision E.01,
 M. J. Frisch, G. W. Trucks, H. B. Schlegel, G. E. Scuseria, 
 M. A. Robb, J. R. Cheeseman, G. Scalmani, V. Barone, B. Mennucci, 
 G. A. Petersson, H. Nakatsuji, M. Caricato, X. Li, H. P. Hratchian, 
 A. F. Izmaylov, J. Bloino, G. Zheng, J. L. Sonnenberg, M. Hada, 
 M. Ehara, K. Toyota, R. Fukuda, J. Hasegawa, M. Ishida, T. Nakajima, 
 Y. Honda, O. Kitao, H. Nakai, T. Vreven, J. A. Montgomery, Jr., 
 J. E. Peralta, F. Ogliaro, M. Bearpark, J. J. Heyd, E. Brothers, 
 K. N. Kudin, V. N. Staroverov, T. Keith, R. Kobayashi, J. Normand, 
 K. Raghavachari, A. Rendell, J. C. Burant, S. S. Iyengar, J. Tomasi, 
 M. Cossi, N. Rega, J. M. Millam, M. Klene, J. E. Knox, J. B. Cross, 
 V. Bakken, C. Adamo, J. Jaramillo, R. Gomperts, R. E. Stratmann, 
 O. Yazyev, A. J. Austin, R. Cammi, C. Pomelli, J. W. Ochterski, 
 R. L. Martin, K. Morokuma, V. G. Zakrzewski, G. A. Voth, 
 P. Salvador, J. J. Dannenberg, S. Dapprich, A. D. Daniels, 
 O. Farkas, J. B. Foresman, J. V. Ortiz, J. Cioslowski, 
 and D. J. Fox, Gaussian, Inc., Wallingford CT, 2013.
 
 ******************************************
 Gaussian 09:  ES64L-G09RevE.01 30-Nov-2015
                24-Aug-2022 
 ******************************************
 %nproc=32
 Will use up to   32 processors via shared memory.
 %mem=180MB
 %chk=G4.Frag_636.chk
 -----
 #P G4
 -----
 1/14=-1,18=20,19=15,26=3,38=1/1,3;
 2/9=110,12=2,17=6,18=5,40=1/2;
 3/5=35,7=104,11=2,16=1,25=1,30=1,71=1,74=-5/1,2,3;
 4//1;
 5/5=2,38=5/2;
 6/7=2,8=2,9=2,10=2,28=1/1;
 7//1,2,3,16;
 1/14=-1,18=20,19=15,26=3/3(2);
 2/9=110/2;
 99//99;
 2/9=110/2;
 3/5=35,7=104,11=2,16=1,25=1,30=1,71=1,74=-5/1,2,3;
 4/5=5,16=3,69=1/1;
 5/5=2,38=5/2;
 7//1,2,3,16;
 1/14=-1,18=20,19=15,26=3/3(-5);
 2/9=110/2;
 6/7=2,8=2,9=2,10=2,19=2,28=1/1;
 99/9=1/99;
 Leave Link    1 at Wed Aug 24 02:25:25 2022, MaxMem=    23592960 cpu:         2.4
 (Enter /public/home/users/caep010/software/Gaussian09/g09/l101.exe)
 --------
 Frag_636
 --------
 Symbolic Z-matrix:
 Charge =  0 Multiplicity = 1
 N                    -1.6762   -0.1691    0.4655 
 C                    -0.5501    0.4691    0.3827 
 O                    -0.5183    1.8286    0.6842 
 C                     0.7082   -0.2062   -0.0034 
 N                     1.8331    0.3903    0.2242 
 O                     0.7205   -1.4592   -0.6195 
 H                    -1.7804   -1.1903    0.2834 
 H                    -1.3582    2.3248    0.9588 
 H                     2.7417   -0.0522   -0.0394 
 H                    -0.1204   -1.9359   -0.916 
 
 NAtoms=     10 NQM=       10 NQMF=       0 NMMI=      0 NMMIF=      0
                NMic=       0 NMicF=      0.
                    Isotopes and Nuclear Properties:
 (Nuclear quadrupole moments (NQMom) in fm**2, nuclear magnetic moments (NMagM)
  in nuclear magnetons)

  Atom         1           2           3           4           5           6           7           8           9          10
 IAtWgt=          14          12          16          12          14          16           1           1           1           1
 AtmWgt=  14.0030740  12.0000000  15.9949146  12.0000000  14.0030740  15.9949146   1.0078250   1.0078250   1.0078250   1.0078250
 NucSpn=           2           0           0           0           2           0           1           1           1           1
 AtZEff=   0.0000000   0.0000000   0.0000000   0.0000000   0.0000000   0.0000000   0.0000000   0.0000000   0.0000000   0.0000000
 NQMom=    2.0440000   0.0000000   0.0000000   0.0000000   2.0440000   0.0000000   0.0000000   0.0000000   0.0000000   0.0000000
 NMagM=    0.4037610   0.0000000   0.0000000   0.0000000   0.4037610   0.0000000   2.7928460   2.7928460   2.7928460   2.7928460
 AtZNuc=   7.0000000   6.0000000   8.0000000   6.0000000   7.0000000   8.0000000   1.0000000   1.0000000   1.0000000   1.0000000
 Leave Link  101 at Wed Aug 24 02:25:25 2022, MaxMem=    23592960 cpu:         2.2
 (Enter /public/home/users/caep010/software/Gaussian09/g09/l103.exe)

 GradGradGradGradGradGradGradGradGradGradGradGradGradGradGradGradGradGrad
 Berny optimization.
 Initialization pass.
                           ----------------------------
                           !    Initial Parameters    !
                           ! (Angstroms and Degrees)  !
 --------------------------                            --------------------------
 ! Name  Definition              Value          Derivative Info.                !
 --------------------------------------------------------------------------------
 ! R1    R(1,2)                  1.297          estimate D2E/DX2                !
 ! R2    R(1,7)                  1.0425         estimate D2E/DX2                !
 ! R3    R(2,3)                  1.3929         estimate D2E/DX2                !
 ! R4    R(2,4)                  1.4793         estimate D2E/DX2                !
 ! R5    R(3,8)                  1.0134         estimate D2E/DX2                !
 ! R6    R(4,5)                  1.2935         estimate D2E/DX2                !
 ! R7    R(4,6)                  1.3963         estimate D2E/DX2                !
 ! R8    R(5,9)                  1.0444         estimate D2E/DX2                !
 ! R9    R(6,10)                 1.0111         estimate D2E/DX2                !
 ! A1    A(2,1,7)              123.8908         estimate D2E/DX2                !
 ! A2    A(1,2,3)              119.0949         estimate D2E/DX2                !
 ! A3    A(1,2,4)              122.0422         estimate D2E/DX2                !
 ! A4    A(3,2,4)              118.8567         estimate D2E/DX2                !
 ! A5    A(2,3,8)              121.1723         estimate D2E/DX2                !
 ! A6    A(2,4,5)              118.9012         estimate D2E/DX2                !
 ! A7    A(2,4,6)              122.1599         estimate D2E/DX2                !
 ! A8    A(5,4,6)              118.9346         estimate D2E/DX2                !
 ! A9    A(4,5,9)              121.1168         estimate D2E/DX2                !
 ! A10   A(4,6,10)             123.0348         estimate D2E/DX2                !
 ! D1    D(7,1,2,3)           -178.2157         estimate D2E/DX2                !
 ! D2    D(7,1,2,4)              0.8709         estimate D2E/DX2                !
 ! D3    D(1,2,3,8)             -0.4651         estimate D2E/DX2                !
 ! D4    D(4,2,3,8)           -179.581          estimate D2E/DX2                !
 ! D5    D(1,2,4,5)           -164.2879         estimate D2E/DX2                !
 ! D6    D(1,2,4,6)             16.4775         estimate D2E/DX2                !
 ! D7    D(3,2,4,5)             14.8007         estimate D2E/DX2                !
 ! D8    D(3,2,4,6)           -164.4339         estimate D2E/DX2                !
 ! D9    D(2,4,5,9)           -179.6339         estimate D2E/DX2                !
 ! D10   D(6,4,5,9)             -0.3743         estimate D2E/DX2                !
 ! D11   D(2,4,6,10)             5.9899         estimate D2E/DX2                !
 ! D12   D(5,4,6,10)          -173.2444         estimate D2E/DX2                !
 --------------------------------------------------------------------------------
 Trust Radius=3.00D-01 FncErr=1.00D-07 GrdErr=1.00D-06
 Number of steps in this run=     41 maximum allowed number of steps=    100.
 GradGradGradGradGradGradGradGradGradGradGradGradGradGradGradGradGradGrad

 Leave Link  103 at Wed Aug 24 02:25:25 2022, MaxMem=    23592960 cpu:         0.5
 (Enter /public/home/users/caep010/software/Gaussian09/g09/l202.exe)
                          Input orientation:                          
 ---------------------------------------------------------------------
 Center     Atomic      Atomic             Coordinates (Angstroms)
 Number     Number       Type             X           Y           Z
 ---------------------------------------------------------------------
      1          7           0       -1.676200   -0.169100    0.465500
      2          6           0       -0.550100    0.469100    0.382700
      3          8           0       -0.518300    1.828600    0.684200
      4          6           0        0.708200   -0.206200   -0.003400
      5          7           0        1.833100    0.390300    0.224200
      6          8           0        0.720500   -1.459200   -0.619500
      7          1           0       -1.780400   -1.190300    0.283400
      8          1           0       -1.358200    2.324800    0.958800
      9          1           0        2.741700   -0.052200   -0.039400
     10          1           0       -0.120400   -1.935900   -0.916000
 ---------------------------------------------------------------------
                    Distance matrix (angstroms):
                    1          2          3          4          5
     1  N    0.000000
     2  C    1.297018   0.000000
     3  O    2.319346   1.392894   0.000000
     4  C    2.430351   1.479332   2.473359   0.000000
     5  N    3.561789   2.389764   2.794528   1.293450   0.000000
     6  O    2.930146   2.517374   3.747518   1.396331   2.317403
     7  H    1.042529   2.068117   3.296558   2.691438   3.944513
     8  H    2.562032   2.104409   1.013436   3.406141   3.803462
     9  H    4.448194   3.359445   3.832572   2.039641   1.044435
    10  H    2.729586   2.766819   4.109796   2.123977   3.244599
                    6          7          8          9         10
     6  O    0.000000
     7  H    2.672459   0.000000
     8  H    4.596812   3.604212   0.000000
     9  H    2.530102   4.674276   4.843110   0.000000
    10  H    1.011073   2.179468   4.816699   3.536717   0.000000
 Stoichiometry    C2H4N2O2
 Framework group  C1[X(C2H4N2O2)]
 Deg. of freedom    24
 Full point group                 C1      NOp   1
 Largest Abelian subgroup         C1      NOp   1
 Largest concise Abelian subgroup C1      NOp   1
                         Standard orientation:                         
 ---------------------------------------------------------------------
 Center     Atomic      Atomic             Coordinates (Angstroms)
 Number     Number       Type             X           Y           Z
 ---------------------------------------------------------------------
      1          7           0       -1.194400    1.325046   -0.165783
      2          6           0       -0.733601    0.122906   -0.008368
      3          8           0       -1.630471   -0.930369    0.154077
      4          6           0        0.716641   -0.168931   -0.015575
      5          7           0        1.107210   -1.393211   -0.162572
      6          8           0        1.676953    0.831668    0.146726
      7          1           0       -0.593041    2.162564   -0.320052
      8          1           0       -2.631326   -0.771229    0.158067
      9          1           0        2.122283   -1.639080   -0.167123
     10          1           0        1.442322    1.790651    0.364828
 ---------------------------------------------------------------------
 Rotational constants (GHZ):      5.6030742      3.3029853      2.1087606
 Leave Link  202 at Wed Aug 24 02:25:25 2022, MaxMem=    23592960 cpu:         0.4
 (Enter /public/home/users/caep010/software/Gaussian09/g09/l301.exe)
 Standard basis: GTBas3 (6D, 7F)
 Ernie: Thresh=  0.10000D-02 Tol=  0.10000D-05 Strict=F.
 There are   206 symmetry adapted cartesian basis functions of A   symmetry.
 There are   188 symmetry adapted basis functions of A   symmetry.
   188 basis functions,   292 primitive gaussians,   206 cartesian basis functions
    23 alpha electrons       23 beta electrons
       nuclear repulsion energy       225.9507302800 Hartrees.
 IExCor=  402 DFT=T Ex+Corr=B3LYP ExCW=0 ScaHFX=  0.200000
 ScaDFX=  0.800000  0.720000  1.000000  0.810000 ScalE2=  1.000000  1.000000
 IRadAn=      0 IRanWt=     -1 IRanGd=            0 ICorTp=0 IEmpDi=  4
 NAtoms=   10 NActive=   10 NUniq=   10 SFac= 1.00D+00 NAtFMM=   60 NAOKFM=F Big=F
 Integral buffers will be    131072 words long.
 Raffenetti 2 integral format.
 Two-electron integral symmetry is turned on.
 Leave Link  301 at Wed Aug 24 02:25:25 2022, MaxMem=    23592960 cpu:         2.6
 (Enter /public/home/users/caep010/software/Gaussian09/g09/l302.exe)
 NPDir=0 NMtPBC=     1 NCelOv=     1 NCel=       1 NClECP=     1 NCelD=      1
         NCelK=      1 NCelE2=     1 NClLst=     1 CellRange=     0.0.
 One-electron integrals computed using PRISM.
 PrsmSu:  requested number of processors reduced to:   3 ShMem   1 Linda.
 PrsmSu:  requested number of processors reduced to:  11 ShMem   1 Linda.
 NBasis=   188 RedAO= T EigKep=  3.88D-04  NBF=   188
 NBsUse=   188 1.00D-06 EigRej= -1.00D+00 NBFU=   188
 Precomputing XC quadrature grid using
 IXCGrd= 4 IRadAn=           0 IRanWt=          -1 IRanGd=           0 AccXCQ= 0.00D+00.
 Generated NRdTot=       0 NPtTot=           0 NUsed=           0 NTot=          32
 NSgBfM=   206   206   206   206   206 MxSgAt=    10 MxSgA2=    10.
 Leave Link  302 at Wed Aug 24 02:25:25 2022, MaxMem=    23592960 cpu:         4.4
 (Enter /public/home/users/caep010/software/Gaussian09/g09/l303.exe)
 DipDrv:  MaxL=1.
 Leave Link  303 at Wed Aug 24 02:25:25 2022, MaxMem=    23592960 cpu:         0.7
 (Enter /public/home/users/caep010/software/Gaussian09/g09/l401.exe)
 ExpMin= 1.61D-01 ExpMax= 5.48D+03 ExpMxC= 8.25D+02 IAcc=1 IRadAn=         1 AccDes= 0.00D+00
 Harris functional with IExCor=  402 and IRadAn=       1 diagonalized for initial guess.
 HarFok:  IExCor=  402 AccDes= 0.00D+00 IRadAn=         1 IDoV= 1 UseB2=F ITyADJ=14
 ICtDFT=  3500011 ScaDFX=  1.000000  1.000000  1.000000  1.000000
 CalDSu:  requested number of processors reduced to:  20 ShMem   1 Linda.
 FoFCou: FMM=F IPFlag=           0 FMFlag=      100000 FMFlg1=           0
         NFxFlg=           0 DoJE=T BraDBF=F KetDBF=T FulRan=T
         wScrn=  0.000000 ICntrl=     500 IOpCl=  0 I1Cent=   200000004 NGrid=           0
         NMat0=    1 NMatS0=      1 NMatT0=    0 NMatD0=    1 NMtDS0=    0 NMtDT0=    0
 Petite list used in FoFCou.
 CoulSu:  requested number of processors reduced to:  11 ShMem   1 Linda.
 CoulSu:  requested number of processors reduced to:  11 ShMem   1 Linda.
 CoulSu:  requested number of processors reduced to:  12 ShMem   1 Linda.
 CoulSu:  requested number of processors reduced to:  12 ShMem   1 Linda.
 Harris En= -338.555686404296    
 JPrj=0 DoOrth=F DoCkMO=F.
 Leave Link  401 at Wed Aug 24 02:25:26 2022, MaxMem=    23592960 cpu:         4.2
 (Enter /public/home/users/caep010/software/Gaussian09/g09/l502.exe)
 Closed shell SCF:
 Using DIIS extrapolation, IDIIS=  1040.
 Integral symmetry usage will be decided dynamically.
 IVT=      153942 IEndB=      153942 NGot=    23592960 MDV=    23498301
 LenX=    23498301 LenY=    23455424
 Requested convergence on RMS density matrix=1.00D-08 within 128 cycles.
 Requested convergence on MAX density matrix=1.00D-06.
 Requested convergence on             energy=1.00D-06.
 No special actions if energy rises.
 Fock matrices will be formed incrementally for  20 cycles.
 Integral accuracy reduced to 1.0D-05 until final iterations.

 Cycle   1  Pass 0  IDiag  1:
 FoFJK:  IHMeth= 1 ICntrl=       0 DoSepK=F KAlg= 0 I1Cent=   0 FoldK=F
 IRaf= 970000000 NMat=   1 IRICut=       1 DoRegI=T DoRafI=F ISym2E= 0.
 FoFCou: FMM=F IPFlag=           0 FMFlag=      100000 FMFlg1=           0
         NFxFlg=           0 DoJE=F BraDBF=F KetDBF=F FulRan=T
         wScrn=  0.000000 ICntrl=       0 IOpCl=  0 I1Cent=           0 NGrid=           0
         NMat0=    1 NMatS0=      1 NMatT0=    0 NMatD0=    1 NMtDS0=    0 NMtDT0=    0
 Symmetry not used in FoFCou.
 CoulSu:  requested number of processors reduced to:  11 ShMem   1 Linda.
 CalDSu:  requested number of processors reduced to:  20 ShMem   1 Linda.
 E= -338.344690480352    
 DIIS: error= 2.11D-02 at cycle   1 NSaved=   1.
 NSaved= 1 IEnMin= 1 EnMin= -338.344690480352     IErMin= 1 ErrMin= 2.11D-02
 ErrMax= 2.11D-02  0.00D+00 EMaxC= 1.00D-01 BMatC= 2.46D-01 BMatP= 2.46D-01
 IDIUse=3 WtCom= 7.89D-01 WtEn= 2.11D-01
 Coeff-Com:  0.100D+01
 Coeff-En:   0.100D+01
 Coeff:      0.100D+01
 Gap=     0.139 Goal=   None    Shift=    0.000
 GapD=    0.139 DampG=1.000 DampE=0.500 DampFc=0.5000 IDamp=-1.
 Damping current iteration by 5.00D-01
 RMSDP=6.22D-03 MaxDP=2.01D-01              OVMax= 2.48D-01

 Cycle   2  Pass 0  IDiag  1:
 RMSU=  3.09D-03    CP:  9.80D-01
 CoulSu:  requested number of processors reduced to:  11 ShMem   1 Linda.
 CalDSu:  requested number of processors reduced to:  20 ShMem   1 Linda.
 E= -338.384673713525     Delta-E=       -0.039983233173 Rises=F Damp=T
 DIIS: error= 1.33D-02 at cycle   2 NSaved=   2.
 NSaved= 2 IEnMin= 2 EnMin= -338.384673713525     IErMin= 2 ErrMin= 1.33D-02
 ErrMax= 1.33D-02  0.00D+00 EMaxC= 1.00D-01 BMatC= 3.93D-02 BMatP= 2.46D-01
 IDIUse=3 WtCom= 8.67D-01 WtEn= 1.33D-01
 Coeff-Com:  0.241D+00 0.759D+00
 Coeff-En:   0.401D+00 0.599D+00
 Coeff:      0.262D+00 0.738D+00
 Gap=     0.212 Goal=   None    Shift=    0.000
 RMSDP=1.39D-03 MaxDP=6.03D-02 DE=-4.00D-02 OVMax= 2.16D-01

 Cycle   3  Pass 0  IDiag  1:
 RMSU=  1.17D-03    CP:  9.80D-01  7.56D-01
 CoulSu:  requested number of processors reduced to:  11 ShMem   1 Linda.
 CalDSu:  requested number of processors reduced to:  20 ShMem   1 Linda.
 E= -338.519682693866     Delta-E=       -0.135008980341 Rises=F Damp=F
 DIIS: error= 7.31D-03 at cycle   3 NSaved=   3.
 NSaved= 3 IEnMin= 3 EnMin= -338.519682693866     IErMin= 3 ErrMin= 7.31D-03
 ErrMax= 7.31D-03  0.00D+00 EMaxC= 1.00D-01 BMatC= 1.76D-02 BMatP= 3.93D-02
 IDIUse=3 WtCom= 9.27D-01 WtEn= 7.31D-02
 Coeff-Com:  0.101D+00 0.406D+00 0.493D+00
 Coeff-En:   0.000D+00 0.000D+00 0.100D+01
 Coeff:      0.939D-01 0.376D+00 0.530D+00
 Gap=     0.207 Goal=   None    Shift=    0.000
 RMSDP=8.65D-04 MaxDP=3.65D-02 DE=-1.35D-01 OVMax= 6.42D-02

 Cycle   4  Pass 0  IDiag  1:
 RMSU=  5.25D-04    CP:  9.82D-01  7.27D-01  4.18D-01
 CoulSu:  requested number of processors reduced to:  11 ShMem   1 Linda.
 CalDSu:  requested number of processors reduced to:  20 ShMem   1 Linda.
 E= -338.532364407962     Delta-E=       -0.012681714096 Rises=F Damp=F
 DIIS: error= 2.73D-03 at cycle   4 NSaved=   4.
 NSaved= 4 IEnMin= 4 EnMin= -338.532364407962     IErMin= 4 ErrMin= 2.73D-03
 ErrMax= 2.73D-03  0.00D+00 EMaxC= 1.00D-01 BMatC= 4.45D-03 BMatP= 1.76D-02
 IDIUse=3 WtCom= 9.73D-01 WtEn= 2.73D-02
 Coeff-Com:  0.195D-01 0.760D-01 0.333D+00 0.571D+00
 Coeff-En:   0.000D+00 0.000D+00 0.217D+00 0.783D+00
 Coeff:      0.189D-01 0.739D-01 0.330D+00 0.577D+00
 Gap=     0.210 Goal=   None    Shift=    0.000
 RMSDP=3.38D-04 MaxDP=1.68D-02 DE=-1.27D-02 OVMax= 2.53D-02

 Cycle   5  Pass 0  IDiag  1:
 RMSU=  1.92D-04    CP:  9.81D-01  7.04D-01  5.79D-01  6.34D-01
 CoulSu:  requested number of processors reduced to:  11 ShMem   1 Linda.
 CalDSu:  requested number of processors reduced to:  20 ShMem   1 Linda.
 E= -338.535592441047     Delta-E=       -0.003228033085 Rises=F Damp=F
 DIIS: error= 1.12D-03 at cycle   5 NSaved=   5.
 NSaved= 5 IEnMin= 5 EnMin= -338.535592441047     IErMin= 5 ErrMin= 1.12D-03
 ErrMax= 1.12D-03  0.00D+00 EMaxC= 1.00D-01 BMatC= 5.75D-04 BMatP= 4.45D-03
 IDIUse=3 WtCom= 9.89D-01 WtEn= 1.12D-02
 Coeff-Com:  0.397D-02 0.436D-02 0.161D+00 0.371D+00 0.459D+00
 Coeff-En:   0.000D+00 0.000D+00 0.000D+00 0.742D-01 0.926D+00
 Coeff:      0.393D-02 0.431D-02 0.159D+00 0.368D+00 0.464D+00
 Gap=     0.210 Goal=   None    Shift=    0.000
 RMSDP=1.29D-04 MaxDP=4.69D-03 DE=-3.23D-03 OVMax= 1.02D-02

 Cycle   6  Pass 0  IDiag  1:
 RMSU=  5.09D-05    CP:  9.81D-01  7.17D-01  5.77D-01  7.00D-01  4.42D-01
 CoulSu:  requested number of processors reduced to:  11 ShMem   1 Linda.
 CalDSu:  requested number of processors reduced to:  20 ShMem   1 Linda.
 E= -338.536075439961     Delta-E=       -0.000482998913 Rises=F Damp=F
 DIIS: error= 2.59D-04 at cycle   6 NSaved=   6.
 NSaved= 6 IEnMin= 6 EnMin= -338.536075439961     IErMin= 6 ErrMin= 2.59D-04
 ErrMax= 2.59D-04  0.00D+00 EMaxC= 1.00D-01 BMatC= 3.72D-05 BMatP= 5.75D-04
 IDIUse=3 WtCom= 9.97D-01 WtEn= 2.59D-03
 Coeff-Com:  0.162D-02-0.180D-02 0.787D-01 0.187D+00 0.287D+00 0.447D+00
 Coeff-En:   0.000D+00 0.000D+00 0.000D+00 0.000D+00 0.000D+00 0.100D+01
 Coeff:      0.162D-02-0.179D-02 0.785D-01 0.187D+00 0.287D+00 0.448D+00
 Gap=     0.210 Goal=   None    Shift=    0.000
 RMSDP=3.62D-05 MaxDP=1.79D-03 DE=-4.83D-04 OVMax= 3.48D-03

 Cycle   7  Pass 0  IDiag  1:
 RMSU=  2.10D-05    CP:  9.81D-01  7.18D-01  5.81D-01  6.93D-01  4.98D-01
                    CP:  4.78D-01
 CoulSu:  requested number of processors reduced to:  11 ShMem   1 Linda.
 CalDSu:  requested number of processors reduced to:  20 ShMem   1 Linda.
 E= -338.536103736504     Delta-E=       -0.000028296544 Rises=F Damp=F
 DIIS: error= 1.18D-04 at cycle   7 NSaved=   7.
 NSaved= 7 IEnMin= 7 EnMin= -338.536103736504     IErMin= 7 ErrMin= 1.18D-04
 ErrMax= 1.18D-04  0.00D+00 EMaxC= 1.00D-01 BMatC= 6.31D-06 BMatP= 3.72D-05
 IDIUse=3 WtCom= 9.99D-01 WtEn= 1.18D-03
 Coeff-Com:  0.420D-03-0.257D-02 0.233D-01 0.553D-01 0.113D+00 0.312D+00
 Coeff-Com:  0.499D+00
 Coeff-En:   0.000D+00 0.000D+00 0.000D+00 0.000D+00 0.000D+00 0.144D+00
 Coeff-En:   0.856D+00
 Coeff:      0.419D-03-0.257D-02 0.233D-01 0.552D-01 0.113D+00 0.311D+00
 Coeff:      0.499D+00
 Gap=     0.210 Goal=   None    Shift=    0.000
 RMSDP=1.21D-05 MaxDP=5.13D-04 DE=-2.83D-05 OVMax= 8.11D-04

 Cycle   8  Pass 0  IDiag  1:
 RMSU=  3.85D-06    CP:  9.81D-01  7.16D-01  5.81D-01  6.93D-01  5.01D-01
                    CP:  6.12D-01  6.19D-01
 CoulSu:  requested number of processors reduced to:  11 ShMem   1 Linda.
 CalDSu:  requested number of processors reduced to:  20 ShMem   1 Linda.
 E= -338.536109002918     Delta-E=       -0.000005266414 Rises=F Damp=F
 DIIS: error= 1.05D-05 at cycle   8 NSaved=   8.
 NSaved= 8 IEnMin= 8 EnMin= -338.536109002918     IErMin= 8 ErrMin= 1.05D-05
 ErrMax= 1.05D-05  0.00D+00 EMaxC= 1.00D-01 BMatC= 5.05D-08 BMatP= 6.31D-06
 IDIUse=1 WtCom= 1.00D+00 WtEn= 0.00D+00
 Coeff-Com:  0.709D-04-0.538D-03 0.936D-03 0.711D-03 0.897D-02 0.304D-01
 Coeff-Com:  0.650D-01 0.894D+00
 Coeff:      0.709D-04-0.538D-03 0.936D-03 0.711D-03 0.897D-02 0.304D-01
 Coeff:      0.650D-01 0.894D+00
 Gap=     0.210 Goal=   None    Shift=    0.000
 RMSDP=1.57D-06 MaxDP=4.40D-05 DE=-5.27D-06 OVMax= 6.72D-05

 Initial convergence to 1.0D-05 achieved.  Increase integral accuracy.
 Cycle   9  Pass 1  IDiag  1:
 CoulSu:  requested number of processors reduced to:  11 ShMem   1 Linda.
 CalDSu:  requested number of processors reduced to:  20 ShMem   1 Linda.
 E= -338.536137411439     Delta-E=       -0.000028408521 Rises=F Damp=F
 DIIS: error= 1.52D-05 at cycle   1 NSaved=   1.
 NSaved= 1 IEnMin= 1 EnMin= -338.536137411439     IErMin= 1 ErrMin= 1.52D-05
 ErrMax= 1.52D-05  0.00D+00 EMaxC= 1.00D-01 BMatC= 6.78D-08 BMatP= 6.78D-08
 IDIUse=1 WtCom= 1.00D+00 WtEn= 0.00D+00
 Coeff-Com:  0.100D+01
 Coeff:      0.100D+01
 Gap=     0.210 Goal=   None    Shift=    0.000
 RMSDP=1.57D-06 MaxDP=4.40D-05 DE=-2.84D-05 OVMax= 6.41D-05

 Cycle  10  Pass 1  IDiag  1:
 RMSU=  6.35D-06    CP:  1.00D+00
 CoulSu:  requested number of processors reduced to:  11 ShMem   1 Linda.
 CalDSu:  requested number of processors reduced to:  20 ShMem   1 Linda.
 E= -338.536137437355     Delta-E=       -0.000000025915 Rises=F Damp=F
 DIIS: error= 7.47D-06 at cycle   2 NSaved=   2.
 NSaved= 2 IEnMin= 2 EnMin= -338.536137437355     IErMin= 2 ErrMin= 7.47D-06
 ErrMax= 7.47D-06  0.00D+00 EMaxC= 1.00D-01 BMatC= 3.19D-08 BMatP= 6.78D-08
 IDIUse=1 WtCom= 1.00D+00 WtEn= 0.00D+00
 Coeff-Com:  0.368D+00 0.632D+00
 Coeff:      0.368D+00 0.632D+00
 Gap=     0.210 Goal=   None    Shift=    0.000
 RMSDP=1.42D-06 MaxDP=5.30D-05 DE=-2.59D-08 OVMax= 6.14D-05

 Cycle  11  Pass 1  IDiag  1:
 RMSU=  1.42D-06    CP:  1.00D+00  9.93D-01
 CoulSu:  requested number of processors reduced to:  11 ShMem   1 Linda.
 CalDSu:  requested number of processors reduced to:  20 ShMem   1 Linda.
 E= -338.536137448109     Delta-E=       -0.000000010754 Rises=F Damp=F
 DIIS: error= 4.80D-06 at cycle   3 NSaved=   3.
 NSaved= 3 IEnMin= 3 EnMin= -338.536137448109     IErMin= 3 ErrMin= 4.80D-06
 ErrMax= 4.80D-06  0.00D+00 EMaxC= 1.00D-01 BMatC= 1.79D-08 BMatP= 3.19D-08
 IDIUse=1 WtCom= 1.00D+00 WtEn= 0.00D+00
 Coeff-Com:  0.489D-02 0.426D+00 0.569D+00
 Coeff:      0.489D-02 0.426D+00 0.569D+00
 Gap=     0.210 Goal=   None    Shift=    0.000
 RMSDP=6.61D-07 MaxDP=3.06D-05 DE=-1.08D-08 OVMax= 3.66D-05

 Cycle  12  Pass 1  IDiag  1:
 RMSU=  2.85D-07    CP:  1.00D+00  1.02D+00  5.99D-01
 CoulSu:  requested number of processors reduced to:  11 ShMem   1 Linda.
 CalDSu:  requested number of processors reduced to:  20 ShMem   1 Linda.
 E= -338.536137461342     Delta-E=       -0.000000013233 Rises=F Damp=F
 DIIS: error= 1.67D-06 at cycle   4 NSaved=   4.
 NSaved= 4 IEnMin= 4 EnMin= -338.536137461342     IErMin= 4 ErrMin= 1.67D-06
 ErrMax= 1.67D-06  0.00D+00 EMaxC= 1.00D-01 BMatC= 1.45D-09 BMatP= 1.79D-08
 IDIUse=1 WtCom= 1.00D+00 WtEn= 0.00D+00
 Coeff-Com: -0.101D-01 0.259D+00 0.375D+00 0.376D+00
 Coeff:     -0.101D-01 0.259D+00 0.375D+00 0.376D+00
 Gap=     0.210 Goal=   None    Shift=    0.000
 RMSDP=1.75D-07 MaxDP=7.58D-06 DE=-1.32D-08 OVMax= 1.18D-05

 Cycle  13  Pass 1  IDiag  1:
 RMSU=  8.33D-08    CP:  1.00D+00  1.02D+00  6.18D-01  4.70D-01
 CoulSu:  requested number of processors reduced to:  11 ShMem   1 Linda.
 CalDSu:  requested number of processors reduced to:  20 ShMem   1 Linda.
 E= -338.536137462563     Delta-E=       -0.000000001221 Rises=F Damp=F
 DIIS: error= 3.35D-07 at cycle   5 NSaved=   5.
 NSaved= 5 IEnMin= 5 EnMin= -338.536137462563     IErMin= 5 ErrMin= 3.35D-07
 ErrMax= 3.35D-07  0.00D+00 EMaxC= 1.00D-01 BMatC= 3.65D-11 BMatP= 1.45D-09
 IDIUse=1 WtCom= 1.00D+00 WtEn= 0.00D+00
 Coeff-Com: -0.567D-02 0.104D+00 0.154D+00 0.200D+00 0.547D+00
 Coeff:     -0.567D-02 0.104D+00 0.154D+00 0.200D+00 0.547D+00
 Gap=     0.210 Goal=   None    Shift=    0.000
 RMSDP=3.32D-08 MaxDP=9.57D-07 DE=-1.22D-09 OVMax= 1.78D-06

 Cycle  14  Pass 1  IDiag  1:
 RMSU=  2.52D-08    CP:  1.00D+00  1.02D+00  6.12D-01  4.91D-01  7.83D-01
 CoulSu:  requested number of processors reduced to:  11 ShMem   1 Linda.
 CalDSu:  requested number of processors reduced to:  20 ShMem   1 Linda.
 E= -338.536137462596     Delta-E=       -0.000000000034 Rises=F Damp=F
 DIIS: error= 1.01D-07 at cycle   6 NSaved=   6.
 NSaved= 6 IEnMin= 6 EnMin= -338.536137462596     IErMin= 6 ErrMin= 1.01D-07
 ErrMax= 1.01D-07  0.00D+00 EMaxC= 1.00D-01 BMatC= 3.41D-12 BMatP= 3.65D-11
 IDIUse=1 WtCom= 1.00D+00 WtEn= 0.00D+00
 Coeff-Com: -0.159D-02 0.228D-01 0.345D-01 0.613D-01 0.276D+00 0.607D+00
 Coeff:     -0.159D-02 0.228D-01 0.345D-01 0.613D-01 0.276D+00 0.607D+00
 Gap=     0.210 Goal=   None    Shift=    0.000
 RMSDP=1.38D-08 MaxDP=5.93D-07 DE=-3.37D-11 OVMax= 1.37D-06

 Cycle  15  Pass 1  IDiag  1:
 RMSU=  9.58D-09    CP:  1.00D+00  1.02D+00  6.15D-01  5.01D-01  8.40D-01
                    CP:  7.11D-01
 CoulSu:  requested number of processors reduced to:  11 ShMem   1 Linda.
 CalDSu:  requested number of processors reduced to:  20 ShMem   1 Linda.
 E= -338.536137462595     Delta-E=        0.000000000001 Rises=F Damp=F
 DIIS: error= 5.50D-08 at cycle   7 NSaved=   7.
 NSaved= 7 IEnMin= 6 EnMin= -338.536137462596     IErMin= 7 ErrMin= 5.50D-08
 ErrMax= 5.50D-08  0.00D+00 EMaxC= 1.00D-01 BMatC= 1.49D-12 BMatP= 3.41D-12
 IDIUse=1 WtCom= 1.00D+00 WtEn= 0.00D+00
 Coeff-Com: -0.223D-03-0.630D-03-0.525D-03 0.120D-01 0.102D+00 0.431D+00
 Coeff-Com:  0.456D+00
 Coeff:     -0.223D-03-0.630D-03-0.525D-03 0.120D-01 0.102D+00 0.431D+00
 Coeff:      0.456D+00
 Gap=     0.210 Goal=   None    Shift=    0.000
 RMSDP=6.57D-09 MaxDP=3.58D-07 DE= 1.36D-12 OVMax= 6.72D-07

 SCF Done:  E(RB3LYP) =  -338.536137463     A.U. after   15 cycles
            NFock= 15  Conv=0.66D-08     -V/T= 2.0083
 KE= 3.357445117073D+02 PE=-1.245464164807D+03 EE= 3.452327853570D+02
 Leave Link  502 at Wed Aug 24 02:25:33 2022, MaxMem=    23592960 cpu:       112.1
 (Enter /public/home/users/caep010/software/Gaussian09/g09/l601.exe)
 Copying SCF densities to generalized density rwf, IOpCl= 0 IROHF=0.

 **********************************************************************

            Population analysis using the SCF density.

 **********************************************************************

 Orbital symmetries:
       Occupied  (A) (A) (A) (A) (A) (A) (A) (A) (A) (A) (A) (A)
                 (A) (A) (A) (A) (A) (A) (A) (A) (A) (A) (A)
       Virtual   (A) (A) (A) (A) (A) (A) (A) (A) (A) (A) (A) (A)
                 (A) (A) (A) (A) (A) (A) (A) (A) (A) (A) (A) (A)
                 (A) (A) (A) (A) (A) (A) (A) (A) (A) (A) (A) (A)
                 (A) (A) (A) (A) (A) (A) (A) (A) (A) (A) (A) (A)
                 (A) (A) (A) (A) (A) (A) (A) (A) (A) (A) (A) (A)
                 (A) (A) (A) (A) (A) (A) (A) (A) (A) (A) (A) (A)
                 (A) (A) (A) (A) (A) (A) (A) (A) (A) (A) (A) (A)
                 (A) (A) (A) (A) (A) (A) (A) (A) (A) (A) (A) (A)
                 (A) (A) (A) (A) (A) (A) (A) (A) (A) (A) (A) (A)
                 (A) (A) (A) (A) (A) (A) (A) (A) (A) (A) (A) (A)
                 (A) (A) (A) (A) (A) (A) (A) (A) (A) (A) (A) (A)
                 (A) (A) (A) (A) (A) (A) (A) (A) (A) (A) (A) (A)
                 (A) (A) (A) (A) (A) (A) (A) (A) (A) (A) (A) (A)
                 (A) (A) (A) (A) (A) (A) (A) (A) (A)
 The electronic state is 1-A.
 Alpha  occ. eigenvalues --  -19.19050 -19.17928 -14.32480 -14.32003 -10.30892
 Alpha  occ. eigenvalues --  -10.30403  -1.06226  -1.04537  -0.88949  -0.87691
 Alpha  occ. eigenvalues --   -0.68504  -0.61124  -0.56474  -0.52860  -0.49559
 Alpha  occ. eigenvalues --   -0.43706  -0.38742  -0.38345  -0.36471  -0.29040
 Alpha  occ. eigenvalues --   -0.28610  -0.27297  -0.26125
 Alpha virt. eigenvalues --   -0.05165   0.02653   0.05073   0.08232   0.11344
 Alpha virt. eigenvalues --    0.13047   0.18793   0.25014   0.30274   0.37011
 Alpha virt. eigenvalues --    0.39647   0.40805   0.47217   0.48823   0.49669
 Alpha virt. eigenvalues --    0.53905   0.56899   0.58547   0.59787   0.62538
 Alpha virt. eigenvalues --    0.65206   0.66786   0.68866   0.70429   0.72932
 Alpha virt. eigenvalues --    0.73300   0.74525   0.77481   0.79063   0.80293
 Alpha virt. eigenvalues --    0.83972   0.86605   0.87937   0.89262   0.91350
 Alpha virt. eigenvalues --    0.93022   0.93913   1.01138   1.01543   1.04010
 Alpha virt. eigenvalues --    1.04839   1.08804   1.12652   1.15232   1.25615
 Alpha virt. eigenvalues --    1.26736   1.30322   1.31039   1.35553   1.37327
 Alpha virt. eigenvalues --    1.38139   1.43084   1.46802   1.51386   1.51959
 Alpha virt. eigenvalues --    1.59802   1.61037   1.65529   1.67375   1.72956
 Alpha virt. eigenvalues --    1.74716   1.88117   1.91636   1.97905   2.01302
 Alpha virt. eigenvalues --    2.07679   2.08863   2.11792   2.28553   2.33000
 Alpha virt. eigenvalues --    2.38120   2.44746   2.46614   2.52208   2.58249
 Alpha virt. eigenvalues --    2.76652   2.76913   2.81989   2.86364   2.88199
 Alpha virt. eigenvalues --    2.90685   2.91723   2.93751   2.99040   3.00494
 Alpha virt. eigenvalues --    3.04363   3.09989   3.16015   3.19041   3.26641
 Alpha virt. eigenvalues --    3.27586   3.36473   3.46825   3.58914   3.62623
 Alpha virt. eigenvalues --    3.72965   3.75927   3.79807   3.81005   3.88788
 Alpha virt. eigenvalues --    3.90779   4.00773   4.01521   4.02416   4.07191
 Alpha virt. eigenvalues --    4.11600   4.13900   4.14532   4.15790   4.17268
 Alpha virt. eigenvalues --    4.19314   4.22306   4.26609   4.29051   4.30450
 Alpha virt. eigenvalues --    4.33264   4.37302   4.38740   4.42368   4.44505
 Alpha virt. eigenvalues --    4.45019   4.48005   4.50018   4.52444   4.56880
 Alpha virt. eigenvalues --    4.58336   4.60106   4.63016   4.68128   4.72136
 Alpha virt. eigenvalues --    4.79182   4.83112   4.84772   4.92554   4.96197
 Alpha virt. eigenvalues --    5.04847   5.12948   5.13708   5.15694   5.21738
 Alpha virt. eigenvalues --    5.29884   5.42566   5.44639   5.47663   5.49370
 Alpha virt. eigenvalues --    5.54531   5.73693   5.79740   5.80353   5.81141
 Alpha virt. eigenvalues --    5.86537   6.01681   6.02696   6.36217   6.44163
 Alpha virt. eigenvalues --    7.01238   7.04319   9.13021  10.66260  10.86350
 Alpha virt. eigenvalues --   11.42556  11.50661  12.02907  13.20960  13.57293
          Condensed to atoms (all electrons):
               1          2          3          4          5          6
     1  N    6.711307   0.553959  -0.028568  -0.041501   0.001217  -0.011729
     2  C    0.553959   4.600738   0.346743   0.308446  -0.031897  -0.053221
     3  O   -0.028568   0.346743   7.850929  -0.036950   0.003694   0.000331
     4  C   -0.041501   0.308446  -0.036950   4.448122   0.605854   0.454086
     5  N    0.001217  -0.031897   0.003694   0.605854   6.638345  -0.059191
     6  O   -0.011729  -0.053221   0.000331   0.454086  -0.059191   7.830959
     7  H    0.329573  -0.082454   0.004707   0.000873   0.000165   0.001662
     8  H    0.002439  -0.032327   0.284549   0.005214  -0.000225  -0.000015
     9  H   -0.000283   0.007366  -0.000032  -0.054409   0.310297  -0.002682
    10  H    0.003382   0.002640   0.000077  -0.046384   0.007610   0.278370
               7          8          9         10
     1  N    0.329573   0.002439  -0.000283   0.003382
     2  C   -0.082454  -0.032327   0.007366   0.002640
     3  O    0.004707   0.284549  -0.000032   0.000077
     4  C    0.000873   0.005214  -0.054409  -0.046384
     5  N    0.000165  -0.000225   0.310297   0.007610
     6  O    0.001662  -0.000015  -0.002682   0.278370
     7  H    0.509448  -0.000312  -0.000027   0.006510
     8  H   -0.000312   0.406249   0.000010  -0.000011
     9  H   -0.000027   0.000010   0.493076   0.000140
    10  H    0.006510  -0.000011   0.000140   0.435432
 Mulliken charges:
               1
     1  N   -0.519796
     2  C    0.380007
     3  O   -0.425480
     4  C    0.356649
     5  N   -0.475869
     6  O   -0.438569
     7  H    0.229853
     8  H    0.334429
     9  H    0.246543
    10  H    0.312232
 Sum of Mulliken charges =  -0.00000
 Mulliken charges with hydrogens summed into heavy atoms:
               1
     1  N   -0.289943
     2  C    0.380007
     3  O   -0.091051
     4  C    0.356649
     5  N   -0.229325
     6  O   -0.126337
 Electronic spatial extent (au):  <R**2>=            547.4782
 Charge=              0.0000 electrons
 Dipole moment (field-independent basis, Debye):
    X=              0.3658    Y=              2.2113    Z=              0.4575  Tot=              2.2875
 Quadrupole moment (field-independent basis, Debye-Ang):
   XX=            -29.1438   YY=            -32.3461   ZZ=            -34.6458
   XY=              3.4337   XZ=             -0.2471   YZ=              0.4002
 Traceless Quadrupole moment (field-independent basis, Debye-Ang):
   XX=              2.9014   YY=             -0.3009   ZZ=             -2.6005
   XY=              3.4337   XZ=             -0.2471   YZ=              0.4002
 Octapole moment (field-independent basis, Debye-Ang**2):
  XXX=            -14.5534  YYY=             21.5046  ZZZ=              1.4136  XYY=             12.5623
  XXY=            -17.1224  XXZ=              2.1226  XZZ=              0.5671  YZZ=              0.7973
  YYZ=              1.6116  XYZ=              1.3631
 Hexadecapole moment (field-independent basis, Debye-Ang**3):
 XXXX=           -292.0466 YYYY=           -216.5835 ZZZZ=            -33.4637 XXXY=             25.1232
 XXXZ=             -7.5476 YYYX=             21.4802 YYYZ=             -0.1445 ZZZX=             -0.0839
 ZZZY=              0.1571 XXYY=            -88.9752 XXZZ=            -68.8038 YYZZ=            -46.8438
 XXYZ=              3.1642 YYXZ=              2.9194 ZZXY=              4.6165
 N-N= 2.259507302800D+02 E-N=-1.245464165606D+03  KE= 3.357445117073D+02
 PrsmSu:  requested number of processors reduced to:  11 ShMem   1 Linda.
 No NMR shielding tensors so no spin-rotation constants.
 Leave Link  601 at Wed Aug 24 02:25:33 2022, MaxMem=    23592960 cpu:         2.7
 (Enter /public/home/users/caep010/software/Gaussian09/g09/l701.exe)
 Compute integral first derivatives.
 ... and contract with generalized density number  0.
 PrsmSu:  requested number of processors reduced to:   3 ShMem   1 Linda.
 PrsmSu:  requested number of processors reduced to:   6 ShMem   1 Linda.
 Leave Link  701 at Wed Aug 24 02:25:33 2022, MaxMem=    23592960 cpu:         2.1
 (Enter /public/home/users/caep010/software/Gaussian09/g09/l702.exe)
 L702 exits ... SP integral derivatives will be done elsewhere.
 Leave Link  702 at Wed Aug 24 02:25:33 2022, MaxMem=    23592960 cpu:         0.5
 (Enter /public/home/users/caep010/software/Gaussian09/g09/l703.exe)
 Compute integral first derivatives, UseDBF=F ICtDFT=           0.
 Integral derivatives from FoFJK, PRISM(SPDF).
 Calling FoFJK, ICntrl=      2127 FMM=F ISym2X=0 I1Cent= 0 IOpClX= 0 NMat=1 NMatS=1 NMatT=0.
 FoFJK:  IHMeth= 1 ICntrl=    2127 DoSepK=F KAlg= 0 I1Cent=   0 FoldK=F
 IRaf=         0 NMat=   1 IRICut=       1 DoRegI=T DoRafI=F ISym2E= 0.
 FoFCou: FMM=F IPFlag=           0 FMFlag=      100000 FMFlg1=         800
         NFxFlg=           0 DoJE=F BraDBF=F KetDBF=F FulRan=T
         wScrn=  0.000000 ICntrl=    2127 IOpCl=  0 I1Cent=           0 NGrid=           0
         NMat0=    1 NMatS0=      1 NMatT0=    0 NMatD0=    1 NMtDS0=    0 NMtDT0=    0
 Symmetry not used in FoFCou.
 CoulSu:  requested number of processors reduced to:   6 ShMem   1 Linda.
 CalDSu:  requested number of processors reduced to:  18 ShMem   1 Linda.
 Leave Link  703 at Wed Aug 24 02:25:36 2022, MaxMem=    23592960 cpu:        20.0
 (Enter /public/home/users/caep010/software/Gaussian09/g09/l716.exe)
 Dipole        = 1.43928900D-01 8.69978765D-01 1.80009131D-01
 ***** Axes restored to original set *****
 -------------------------------------------------------------------
 Center     Atomic                   Forces (Hartrees/Bohr)
 Number     Number              X              Y              Z
 -------------------------------------------------------------------
      1        7           0.007006736    0.012844573    0.000832977
      2        6          -0.072067015   -0.005112043    0.012570127
      3        8           0.006517958   -0.010672079   -0.004819226
      4        6           0.064494599    0.004419600   -0.013037696
      5        7          -0.019929395   -0.006540219   -0.001003429
      6        8          -0.025207539   -0.003602895   -0.000301490
      7        1           0.019053813    0.022533329    0.001227496
      8        1           0.023411612   -0.043283827   -0.013635437
      9        1          -0.027238048   -0.003869420    0.000366032
     10        1           0.023957278    0.033282982    0.017800646
 -------------------------------------------------------------------
 Cartesian Forces:  Max     0.072067015 RMS     0.024115074
 Leave Link  716 at Wed Aug 24 02:25:36 2022, MaxMem=    23592960 cpu:         0.9
 (Enter /public/home/users/caep010/software/Gaussian09/g09/l103.exe)

 GradGradGradGradGradGradGradGradGradGradGradGradGradGradGradGradGradGrad
 Berny optimization.
 FormGI is forming the generalized inverse of G from B-inverse, IUseBI=4.
 Internal  Forces:  Max     0.055973607 RMS     0.025713565
 Search for a local minimum.
 Step number   1 out of a maximum of   41
 All quantities printed in internal units (Hartrees-Bohrs-Radians)
 RMS Force = .25714D-01 SwitMx=.10000D-02 MixMth= 1
 Mixed Optimization -- RFO/linear search
 Second derivative matrix not updated -- first step.
 ITU=  0
     Eigenvalues ---    0.01039   0.01708   0.01731   0.01740   0.01786
     Eigenvalues ---    0.03054   0.03101   0.16000   0.16000   0.16000
     Eigenvalues ---    0.16000   0.24999   0.24999   0.24999   0.24999
     Eigenvalues ---    0.34646   0.40657   0.40930   0.45402   0.45793
     Eigenvalues ---    0.46234   0.46819   0.68028   0.69045
 RFO step:  Lambda=-5.59516016D-02 EMin= 1.03934982D-02
 Linear search not attempted -- first point.
 Maximum step size (   0.300) exceeded in Quadratic search.
    -- Step size scaled by   0.696
 Iteration  1 RMS(Cart)=  0.10454957 RMS(Int)=  0.00491784
 Iteration  2 RMS(Cart)=  0.00469689 RMS(Int)=  0.00009138
 Iteration  3 RMS(Cart)=  0.00001458 RMS(Int)=  0.00009093
 Iteration  4 RMS(Cart)=  0.00000000 RMS(Int)=  0.00009093
 ITry= 1 IFail=0 DXMaxC= 3.21D-01 DCOld= 1.00D+10 DXMaxT= 3.00D-01 DXLimC= 3.00D+00 Rises=F
 Variable       Old X    -DE/DX   Delta X   Delta X   Delta X     New X
                                 (Linear)    (Quad)   (Total)
    R1        2.45101  -0.03990   0.00000  -0.03770  -0.03770   2.41330
    R2        1.97009  -0.02419   0.00000  -0.03617  -0.03617   1.93392
    R3        2.63219  -0.05597   0.00000  -0.07429  -0.07429   2.55790
    R4        2.79553   0.00186   0.00000   0.00322   0.00322   2.79875
    R5        1.91512  -0.04429   0.00000  -0.06042  -0.06042   1.85470
    R6        2.44427  -0.04593   0.00000  -0.04281  -0.04281   2.40145
    R7        2.63868  -0.03437   0.00000  -0.04613  -0.04613   2.59256
    R8        1.97370  -0.02215   0.00000  -0.03331  -0.03331   1.94038
    R9        1.91065  -0.04084   0.00000  -0.05528  -0.05528   1.85537
    A1        2.16230  -0.03338   0.00000  -0.10752  -0.10752   2.05478
    A2        2.07860   0.00773   0.00000   0.01757   0.01757   2.09617
    A3        2.13004   0.01972   0.00000   0.04484   0.04484   2.17488
    A4        2.07444  -0.02745   0.00000  -0.06241  -0.06241   2.01204
    A5        2.11486  -0.04866   0.00000  -0.15674  -0.15674   1.95811
    A6        2.07522   0.00970   0.00000   0.02210   0.02206   2.09728
    A7        2.13209  -0.02349   0.00000  -0.05337  -0.05341   2.07868
    A8        2.07580   0.01381   0.00000   0.03146   0.03142   2.10722
    A9        2.11389  -0.03219   0.00000  -0.10370  -0.10370   2.01018
   A10        2.14736  -0.03475   0.00000  -0.11195  -0.11195   2.03542
    D1       -3.11045   0.00036   0.00000   0.00207   0.00205  -3.10840
    D2        0.01520   0.00015   0.00000   0.00200   0.00202   0.01722
    D3       -0.00812   0.00065   0.00000   0.00551   0.00551  -0.00261
    D4       -3.13428   0.00043   0.00000   0.00461   0.00462  -3.12966
    D5       -2.86737   0.00124   0.00000   0.01205   0.01194  -2.85542
    D6        0.28759  -0.00062   0.00000  -0.00513  -0.00500   0.28258
    D7        0.25832   0.00134   0.00000   0.01269   0.01256   0.27088
    D8       -2.86991  -0.00052   0.00000  -0.00449  -0.00438  -2.87429
    D9       -3.13520  -0.00133   0.00000  -0.01254  -0.01285   3.13514
   D10       -0.00653   0.00018   0.00000   0.00342   0.00372  -0.00281
   D11        0.10454   0.00116   0.00000   0.01090   0.01083   0.11537
   D12       -3.02369  -0.00067   0.00000  -0.00622  -0.00614  -3.02983
         Item               Value     Threshold  Converged?
 Maximum Force            0.055974     0.000450     NO 
 RMS     Force            0.025714     0.000300     NO 
 Maximum Displacement     0.321286     0.001800     NO 
 RMS     Displacement     0.104584     0.001200     NO 
 Predicted change in Energy=-2.792297D-02
 Lowest energy point so far.  Saving SCF results.
 GradGradGradGradGradGradGradGradGradGradGradGradGradGradGradGradGradGrad

 Leave Link  103 at Wed Aug 24 02:25:37 2022, MaxMem=    23592960 cpu:         2.3
 (Enter /public/home/users/caep010/software/Gaussian09/g09/l202.exe)
                          Input orientation:                          
 ---------------------------------------------------------------------
 Center     Atomic      Atomic             Coordinates (Angstroms)
 Number     Number       Type             X           Y           Z
 ---------------------------------------------------------------------
      1          7           0       -1.674142   -0.154055    0.461794
      2          6           0       -0.556132    0.457093    0.375489
      3          8           0       -0.482337    1.779865    0.652990
      4          6           0        0.725772   -0.183027    0.000744
      5          7           0        1.826662    0.406821    0.235355
      6          8           0        0.705364   -1.417966   -0.596480
      7          1           0       -1.682895   -1.159799    0.272785
      8          1           0       -1.353452    2.154783    0.905709
      9          1           0        2.667731   -0.108297   -0.050285
     10          1           0       -0.176670   -1.775517   -0.837601
 ---------------------------------------------------------------------
                    Distance matrix (angstroms):
                    1          2          3          4          5
     1  N    0.000000
     2  C    1.277066   0.000000
     3  O    2.279693   1.353580   0.000000
     4  C    2.443972   1.481035   2.395391   0.000000
     5  N    3.552673   2.387440   2.718666   1.270795   0.000000
     6  O    2.894731   2.460070   3.632896   1.371922   2.297630
     7  H    1.023388   1.973444   3.198049   2.613383   3.843526
     8  H    2.372896   1.949104   0.981464   3.256914   3.690240
     9  H    4.372205   3.300642   3.739342   1.944066   1.026807
    10  H    2.561248   2.569070   3.867303   2.013268   3.150741
                    6          7          8          9         10
     6  O    0.000000
     7  H    2.554615   0.000000
     8  H    4.388603   3.390513   0.000000
     9  H    2.421662   4.487536   4.712257   0.000000
    10  H    0.981818   1.969969   4.457712   3.389706   0.000000
 Stoichiometry    C2H4N2O2
 Framework group  C1[X(C2H4N2O2)]
 Deg. of freedom    24
 Full point group                 C1      NOp   1
 RotChk:  IX=0 Diff= 8.25D-02
 Largest Abelian subgroup         C1      NOp   1
 Largest concise Abelian subgroup C1      NOp   1
                         Standard orientation:                         
 ---------------------------------------------------------------------
 Center     Atomic      Atomic             Coordinates (Angstroms)
 Number     Number       Type             X           Y           Z
 ---------------------------------------------------------------------
      1          7           0       -1.275481    1.246745   -0.164418
      2          6           0       -0.735974    0.099675   -0.009309
      3          8           0       -1.510475   -0.998077    0.155824
      4          6           0        0.723728   -0.150778   -0.012463
      5          7           0        1.168716   -1.331507   -0.163404
      6          8           0        1.582583    0.907392    0.145057
      7          1           0       -0.656528    2.047532   -0.315940
      8          1           0       -2.467760   -0.782142    0.140087
      9          1           0        2.191993   -1.416482   -0.159369
     10          1           0        1.176256    1.776524    0.353563
 ---------------------------------------------------------------------
 Rotational constants (GHZ):      5.7526326      3.4660292      2.1958029
 Leave Link  202 at Wed Aug 24 02:25:37 2022, MaxMem=    23592960 cpu:         0.2
 (Enter /public/home/users/caep010/software/Gaussian09/g09/l301.exe)
 Standard basis: GTBas3 (6D, 7F)
 Ernie: Thresh=  0.10000D-02 Tol=  0.10000D-05 Strict=F.
 There are   206 symmetry adapted cartesian basis functions of A   symmetry.
 There are   188 symmetry adapted basis functions of A   symmetry.
   188 basis functions,   292 primitive gaussians,   206 cartesian basis functions
    23 alpha electrons       23 beta electrons
       nuclear repulsion energy       230.5593149287 Hartrees.
 IExCor=  402 DFT=T Ex+Corr=B3LYP ExCW=0 ScaHFX=  0.200000
 ScaDFX=  0.800000  0.720000  1.000000  0.810000 ScalE2=  1.000000  1.000000
 IRadAn=      0 IRanWt=     -1 IRanGd=            0 ICorTp=0 IEmpDi=  4
 NAtoms=   10 NActive=   10 NUniq=   10 SFac= 1.00D+00 NAtFMM=   60 NAOKFM=F Big=F
 Integral buffers will be    131072 words long.
 Raffenetti 2 integral format.
 Two-electron integral symmetry is turned on.
 Leave Link  301 at Wed Aug 24 02:25:37 2022, MaxMem=    23592960 cpu:         1.7
 (Enter /public/home/users/caep010/software/Gaussian09/g09/l302.exe)
 NPDir=0 NMtPBC=     1 NCelOv=     1 NCel=       1 NClECP=     1 NCelD=      1
         NCelK=      1 NCelE2=     1 NClLst=     1 CellRange=     0.0.
 One-electron integrals computed using PRISM.
 PrsmSu:  requested number of processors reduced to:   3 ShMem   1 Linda.
 PrsmSu:  requested number of processors reduced to:  11 ShMem   1 Linda.
 NBasis=   188 RedAO= T EigKep=  3.27D-04  NBF=   188
 NBsUse=   188 1.00D-06 EigRej= -1.00D+00 NBFU=   188
 Precomputing XC quadrature grid using
 IXCGrd= 4 IRadAn=           0 IRanWt=          -1 IRanGd=           0 AccXCQ= 0.00D+00.
 Generated NRdTot=       0 NPtTot=           0 NUsed=           0 NTot=          32
 NSgBfM=   206   206   206   206   206 MxSgAt=    10 MxSgA2=    10.
 Leave Link  302 at Wed Aug 24 02:25:37 2022, MaxMem=    23592960 cpu:         4.1
 (Enter /public/home/users/caep010/software/Gaussian09/g09/l303.exe)
 DipDrv:  MaxL=1.
 Leave Link  303 at Wed Aug 24 02:25:37 2022, MaxMem=    23592960 cpu:         0.7
 (Enter /public/home/users/caep010/software/Gaussian09/g09/l401.exe)
 Initial guess from the checkpoint file:  "G4.Frag_636.chk"
 B after Tr=     0.000000   -0.000000    0.000000
         Rot=    0.999579    0.000357    0.000009   -0.029019 Ang=   3.33 deg.
 Guess basis will be translated and rotated to current coordinates.
 JPrj=2 DoOrth=T DoCkMO=T.
 Generating alternative initial guess.
 ExpMin= 1.61D-01 ExpMax= 5.48D+03 ExpMxC= 8.25D+02 IAcc=1 IRadAn=         1 AccDes= 0.00D+00
 Harris functional with IExCor=  402 and IRadAn=       1 diagonalized for initial guess.
 HarFok:  IExCor=  402 AccDes= 0.00D+00 IRadAn=         1 IDoV= 1 UseB2=F ITyADJ=14
 ICtDFT=  3500011 ScaDFX=  1.000000  1.000000  1.000000  1.000000
 CalDSu:  requested number of processors reduced to:  20 ShMem   1 Linda.
 FoFCou: FMM=F IPFlag=           0 FMFlag=      100000 FMFlg1=           0
         NFxFlg=           0 DoJE=T BraDBF=F KetDBF=T FulRan=T
         wScrn=  0.000000 ICntrl=     500 IOpCl=  0 I1Cent=   200000004 NGrid=           0
         NMat0=    1 NMatS0=      1 NMatT0=    0 NMatD0=    1 NMtDS0=    0 NMtDT0=    0
 Petite list used in FoFCou.
 CoulSu:  requested number of processors reduced to:  11 ShMem   1 Linda.
 CoulSu:  requested number of processors reduced to:  11 ShMem   1 Linda.
 CoulSu:  requested number of processors reduced to:  12 ShMem   1 Linda.
 CoulSu:  requested number of processors reduced to:  12 ShMem   1 Linda.
 Harris En= -338.580813592336    
 Leave Link  401 at Wed Aug 24 02:25:37 2022, MaxMem=    23592960 cpu:        10.1
 (Enter /public/home/users/caep010/software/Gaussian09/g09/l502.exe)
 Closed shell SCF:
 Using DIIS extrapolation, IDIIS=  1040.
 Integral symmetry usage will be decided dynamically.
 IVT=      153942 IEndB=      153942 NGot=    23592960 MDV=    23498301
 LenX=    23498301 LenY=    23455424
 Requested convergence on RMS density matrix=1.00D-08 within 128 cycles.
 Requested convergence on MAX density matrix=1.00D-06.
 Requested convergence on             energy=1.00D-06.
 No special actions if energy rises.
 Fock matrices will be formed incrementally for  20 cycles.
 Integral accuracy reduced to 1.0D-05 until final iterations.

 Cycle   1  Pass 0  IDiag  1:
 FoFJK:  IHMeth= 1 ICntrl=       0 DoSepK=F KAlg= 0 I1Cent=   0 FoldK=F
 IRaf= 970000000 NMat=   1 IRICut=       1 DoRegI=T DoRafI=F ISym2E= 0.
 FoFCou: FMM=F IPFlag=           0 FMFlag=      100000 FMFlg1=           0
         NFxFlg=           0 DoJE=F BraDBF=F KetDBF=F FulRan=T
         wScrn=  0.000000 ICntrl=       0 IOpCl=  0 I1Cent=           0 NGrid=           0
         NMat0=    1 NMatS0=      1 NMatT0=    0 NMatD0=    1 NMtDS0=    0 NMtDT0=    0
 Symmetry not used in FoFCou.
 CoulSu:  requested number of processors reduced to:  11 ShMem   1 Linda.
 CalDSu:  requested number of processors reduced to:  20 ShMem   1 Linda.
 E= -338.557880483520    
 DIIS: error= 2.62D-03 at cycle   1 NSaved=   1.
 NSaved= 1 IEnMin= 1 EnMin= -338.557880483520     IErMin= 1 ErrMin= 2.62D-03
 ErrMax= 2.62D-03  0.00D+00 EMaxC= 1.00D-01 BMatC= 6.50D-03 BMatP= 6.50D-03
 IDIUse=3 WtCom= 9.74D-01 WtEn= 2.62D-02
 Coeff-Com:  0.100D+01
 Coeff-En:   0.100D+01
 Coeff:      0.100D+01
 Gap=     0.935 Goal=   None    Shift=    0.000
 GapD=    0.935 DampG=2.000 DampE=1.000 DampFc=2.0000 IDamp=-1.
 RMSDP=6.80D-04 MaxDP=1.97D-02              OVMax= 1.96D-02

 Cycle   2  Pass 0  IDiag  1:
 RMSU=  6.80D-04    CP:  9.99D-01
 CoulSu:  requested number of processors reduced to:  11 ShMem   1 Linda.
 CalDSu:  requested number of processors reduced to:  20 ShMem   1 Linda.
 E= -338.563776549679     Delta-E=       -0.005896066159 Rises=F Damp=F
 DIIS: error= 1.12D-03 at cycle   2 NSaved=   2.
 NSaved= 2 IEnMin= 2 EnMin= -338.563776549679     IErMin= 2 ErrMin= 1.12D-03
 ErrMax= 1.12D-03  0.00D+00 EMaxC= 1.00D-01 BMatC= 5.02D-04 BMatP= 6.50D-03
 IDIUse=3 WtCom= 9.89D-01 WtEn= 1.12D-02
 Coeff-Com:  0.105D+00 0.895D+00
 Coeff-En:   0.000D+00 0.100D+01
 Coeff:      0.103D+00 0.897D+00
 Gap=     0.225 Goal=   None    Shift=    0.000
 RMSDP=2.40D-04 MaxDP=8.57D-03 DE=-5.90D-03 OVMax= 9.62D-03

 Cycle   3  Pass 0  IDiag  1:
 RMSU=  2.40D-04    CP:  9.98D-01  9.86D-01
 CoulSu:  requested number of processors reduced to:  11 ShMem   1 Linda.
 CalDSu:  requested number of processors reduced to:  20 ShMem   1 Linda.
 E= -338.563743563990     Delta-E=        0.000032985689 Rises=F Damp=F
 DIIS: error= 1.03D-03 at cycle   3 NSaved=   3.
 NSaved= 3 IEnMin= 2 EnMin= -338.563776549679     IErMin= 3 ErrMin= 1.03D-03
 ErrMax= 1.03D-03  0.00D+00 EMaxC= 1.00D-01 BMatC= 5.43D-04 BMatP= 5.02D-04
 IDIUse=3 WtCom= 9.90D-01 WtEn= 1.03D-02
 Coeff-Com:  0.415D-02 0.510D+00 0.486D+00
 Coeff-En:   0.000D+00 0.518D+00 0.482D+00
 Coeff:      0.410D-02 0.510D+00 0.486D+00
 Gap=     0.226 Goal=   None    Shift=    0.000
 RMSDP=1.41D-04 MaxDP=7.17D-03 DE= 3.30D-05 OVMax= 9.11D-03

 Cycle   4  Pass 0  IDiag  1:
 RMSU=  6.11D-05    CP:  9.98D-01  1.03D+00  4.88D-01
 CoulSu:  requested number of processors reduced to:  11 ShMem   1 Linda.
 CalDSu:  requested number of processors reduced to:  20 ShMem   1 Linda.
 E= -338.564133433234     Delta-E=       -0.000389869243 Rises=F Damp=F
 DIIS: error= 4.45D-04 at cycle   4 NSaved=   4.
 NSaved= 4 IEnMin= 4 EnMin= -338.564133433234     IErMin= 4 ErrMin= 4.45D-04
 ErrMax= 4.45D-04  0.00D+00 EMaxC= 1.00D-01 BMatC= 8.02D-05 BMatP= 5.02D-04
 IDIUse=3 WtCom= 9.96D-01 WtEn= 4.45D-03
 Coeff-Com: -0.105D-01 0.243D+00 0.320D+00 0.448D+00
 Coeff-En:   0.000D+00 0.000D+00 0.107D+00 0.893D+00
 Coeff:     -0.105D-01 0.242D+00 0.319D+00 0.450D+00
 Gap=     0.225 Goal=   None    Shift=    0.000
 RMSDP=4.29D-05 MaxDP=2.05D-03 DE=-3.90D-04 OVMax= 3.06D-03

 Cycle   5  Pass 0  IDiag  1:
 RMSU=  1.97D-05    CP:  9.98D-01  1.03D+00  5.49D-01  4.30D-01
 CoulSu:  requested number of processors reduced to:  11 ShMem   1 Linda.
 CalDSu:  requested number of processors reduced to:  20 ShMem   1 Linda.
 E= -338.564199620839     Delta-E=       -0.000066187605 Rises=F Damp=F
 DIIS: error= 6.91D-05 at cycle   5 NSaved=   5.
 NSaved= 5 IEnMin= 5 EnMin= -338.564199620839     IErMin= 5 ErrMin= 6.91D-05
 ErrMax= 6.91D-05  0.00D+00 EMaxC= 1.00D-01 BMatC= 3.09D-06 BMatP= 8.02D-05
 IDIUse=1 WtCom= 1.00D+00 WtEn= 0.00D+00
 Coeff-Com: -0.489D-02 0.656D-01 0.109D+00 0.224D+00 0.606D+00
 Coeff:     -0.489D-02 0.656D-01 0.109D+00 0.224D+00 0.606D+00
 Gap=     0.225 Goal=   None    Shift=    0.000
 RMSDP=1.09D-05 MaxDP=3.33D-04 DE=-6.62D-05 OVMax= 7.32D-04

 Cycle   6  Pass 0  IDiag  1:
 RMSU=  6.45D-06    CP:  9.98D-01  1.03D+00  5.59D-01  5.25D-01  6.98D-01
 CoulSu:  requested number of processors reduced to:  11 ShMem   1 Linda.
 CalDSu:  requested number of processors reduced to:  20 ShMem   1 Linda.
 E= -338.564202015240     Delta-E=       -0.000002394401 Rises=F Damp=F
 DIIS: error= 3.23D-05 at cycle   6 NSaved=   6.
 NSaved= 6 IEnMin= 6 EnMin= -338.564202015240     IErMin= 6 ErrMin= 3.23D-05
 ErrMax= 3.23D-05  0.00D+00 EMaxC= 1.00D-01 BMatC= 4.20D-07 BMatP= 3.09D-06
 IDIUse=1 WtCom= 1.00D+00 WtEn= 0.00D+00
 Coeff-Com: -0.193D-02 0.204D-01 0.395D-01 0.917D-01 0.353D+00 0.497D+00
 Coeff:     -0.193D-02 0.204D-01 0.395D-01 0.917D-01 0.353D+00 0.497D+00
 Gap=     0.225 Goal=   None    Shift=    0.000
 RMSDP=3.70D-06 MaxDP=1.63D-04 DE=-2.39D-06 OVMax= 3.24D-04

 Initial convergence to 1.0D-05 achieved.  Increase integral accuracy.
 Cycle   7  Pass 1  IDiag  1:
 CoulSu:  requested number of processors reduced to:  11 ShMem   1 Linda.
 CalDSu:  requested number of processors reduced to:  20 ShMem   1 Linda.
 E= -338.564200311041     Delta-E=        0.000001704199 Rises=F Damp=F
 DIIS: error= 1.90D-05 at cycle   1 NSaved=   1.
 NSaved= 1 IEnMin= 1 EnMin= -338.564200311041     IErMin= 1 ErrMin= 1.90D-05
 ErrMax= 1.90D-05  0.00D+00 EMaxC= 1.00D-01 BMatC= 1.19D-07 BMatP= 1.19D-07
 IDIUse=1 WtCom= 1.00D+00 WtEn= 0.00D+00
 Coeff-Com:  0.100D+01
 Coeff:      0.100D+01
 Gap=     0.225 Goal=   None    Shift=    0.000
 RMSDP=3.70D-06 MaxDP=1.63D-04 DE= 1.70D-06 OVMax= 3.15D-04

 Cycle   8  Pass 1  IDiag  1:
 RMSU=  5.91D-06    CP:  1.00D+00
 CoulSu:  requested number of processors reduced to:  11 ShMem   1 Linda.
 CalDSu:  requested number of processors reduced to:  20 ShMem   1 Linda.
 E= -338.564200118736     Delta-E=        0.000000192305 Rises=F Damp=F
 DIIS: error= 3.02D-05 at cycle   2 NSaved=   2.
 NSaved= 2 IEnMin= 1 EnMin= -338.564200311041     IErMin= 1 ErrMin= 1.90D-05
 ErrMax= 3.02D-05  0.00D+00 EMaxC= 1.00D-01 BMatC= 3.16D-07 BMatP= 1.19D-07
 IDIUse=1 WtCom= 1.00D+00 WtEn= 0.00D+00
 Coeff-Com:  0.634D+00 0.366D+00
 Coeff:      0.634D+00 0.366D+00
 Gap=     0.225 Goal=   None    Shift=    0.000
 RMSDP=2.82D-06 MaxDP=1.66D-04 DE= 1.92D-07 OVMax= 2.60D-04

 Cycle   9  Pass 1  IDiag  1:
 RMSU=  2.43D-06    CP:  1.00D+00  7.58D-01
 CoulSu:  requested number of processors reduced to:  11 ShMem   1 Linda.
 CalDSu:  requested number of processors reduced to:  20 ShMem   1 Linda.
 E= -338.564200389425     Delta-E=       -0.000000270689 Rises=F Damp=F
 DIIS: error= 5.54D-06 at cycle   3 NSaved=   3.
 NSaved= 3 IEnMin= 3 EnMin= -338.564200389425     IErMin= 3 ErrMin= 5.54D-06
 ErrMax= 5.54D-06  0.00D+00 EMaxC= 1.00D-01 BMatC= 1.24D-08 BMatP= 1.19D-07
 IDIUse=1 WtCom= 1.00D+00 WtEn= 0.00D+00
 Coeff-Com:  0.753D-01 0.174D+00 0.751D+00
 Coeff:      0.753D-01 0.174D+00 0.751D+00
 Gap=     0.225 Goal=   None    Shift=    0.000
 RMSDP=7.07D-07 MaxDP=3.05D-05 DE=-2.71D-07 OVMax= 5.65D-05

 Cycle  10  Pass 1  IDiag  1:
 RMSU=  4.81D-07    CP:  1.00D+00  8.21D-01  8.52D-01
 CoulSu:  requested number of processors reduced to:  11 ShMem   1 Linda.
 CalDSu:  requested number of processors reduced to:  20 ShMem   1 Linda.
 E= -338.564200398481     Delta-E=       -0.000000009056 Rises=F Damp=F
 DIIS: error= 2.49D-06 at cycle   4 NSaved=   4.
 NSaved= 4 IEnMin= 4 EnMin= -338.564200398481     IErMin= 4 ErrMin= 2.49D-06
 ErrMax= 2.49D-06  0.00D+00 EMaxC= 1.00D-01 BMatC= 2.31D-09 BMatP= 1.24D-08
 IDIUse=1 WtCom= 1.00D+00 WtEn= 0.00D+00
 Coeff-Com:  0.740D-03 0.799D-01 0.456D+00 0.464D+00
 Coeff:      0.740D-03 0.799D-01 0.456D+00 0.464D+00
 Gap=     0.225 Goal=   None    Shift=    0.000
 RMSDP=2.43D-07 MaxDP=1.05D-05 DE=-9.06D-09 OVMax= 1.60D-05

 Cycle  11  Pass 1  IDiag  1:
 RMSU=  1.24D-07    CP:  1.00D+00  8.18D-01  8.77D-01  5.85D-01
 CoulSu:  requested number of processors reduced to:  11 ShMem   1 Linda.
 CalDSu:  requested number of processors reduced to:  20 ShMem   1 Linda.
 E= -338.564200400447     Delta-E=       -0.000000001966 Rises=F Damp=F
 DIIS: error= 6.84D-07 at cycle   5 NSaved=   5.
 NSaved= 5 IEnMin= 5 EnMin= -338.564200400447     IErMin= 5 ErrMin= 6.84D-07
 ErrMax= 6.84D-07  0.00D+00 EMaxC= 1.00D-01 BMatC= 2.09D-10 BMatP= 2.31D-09
 IDIUse=1 WtCom= 1.00D+00 WtEn= 0.00D+00
 Coeff-Com: -0.501D-02 0.390D-01 0.242D+00 0.291D+00 0.433D+00
 Coeff:     -0.501D-02 0.390D-01 0.242D+00 0.291D+00 0.433D+00
 Gap=     0.225 Goal=   None    Shift=    0.000
 RMSDP=8.07D-08 MaxDP=4.19D-06 DE=-1.97D-09 OVMax= 5.02D-06

 Cycle  12  Pass 1  IDiag  1:
 RMSU=  3.59D-08    CP:  1.00D+00  8.18D-01  8.73D-01  5.57D-01  4.33D-01
 CoulSu:  requested number of processors reduced to:  11 ShMem   1 Linda.
 CalDSu:  requested number of processors reduced to:  20 ShMem   1 Linda.
 E= -338.564200400618     Delta-E=       -0.000000000171 Rises=F Damp=F
 DIIS: error= 1.40D-07 at cycle   6 NSaved=   6.
 NSaved= 6 IEnMin= 6 EnMin= -338.564200400618     IErMin= 6 ErrMin= 1.40D-07
 ErrMax= 1.40D-07  0.00D+00 EMaxC= 1.00D-01 BMatC= 1.02D-11 BMatP= 2.09D-10
 IDIUse=1 WtCom= 1.00D+00 WtEn= 0.00D+00
 Coeff-Com: -0.284D-02 0.141D-01 0.925D-01 0.115D+00 0.239D+00 0.543D+00
 Coeff:     -0.284D-02 0.141D-01 0.925D-01 0.115D+00 0.239D+00 0.543D+00
 Gap=     0.225 Goal=   None    Shift=    0.000
 RMSDP=1.90D-08 MaxDP=7.59D-07 DE=-1.71D-10 OVMax= 1.12D-06

 Cycle  13  Pass 1  IDiag  1:
 RMSU=  1.24D-08    CP:  1.00D+00  8.18D-01  8.75D-01  5.60D-01  5.19D-01
                    CP:  7.72D-01
 CoulSu:  requested number of processors reduced to:  11 ShMem   1 Linda.
 CalDSu:  requested number of processors reduced to:  20 ShMem   1 Linda.
 E= -338.564200400624     Delta-E=       -0.000000000006 Rises=F Damp=F
 DIIS: error= 6.45D-08 at cycle   7 NSaved=   7.
 NSaved= 7 IEnMin= 7 EnMin= -338.564200400624     IErMin= 7 ErrMin= 6.45D-08
 ErrMax= 6.45D-08  0.00D+00 EMaxC= 1.00D-01 BMatC= 1.41D-12 BMatP= 1.02D-11
 IDIUse=1 WtCom= 1.00D+00 WtEn= 0.00D+00
 Coeff-Com: -0.945D-03 0.303D-02 0.215D-01 0.272D-01 0.837D-01 0.312D+00
 Coeff-Com:  0.553D+00
 Coeff:     -0.945D-03 0.303D-02 0.215D-01 0.272D-01 0.837D-01 0.312D+00
 Coeff:      0.553D+00
 Gap=     0.225 Goal=   None    Shift=    0.000
 RMSDP=5.59D-09 MaxDP=2.49D-07 DE=-6.14D-12 OVMax= 3.43D-07

 SCF Done:  E(RB3LYP) =  -338.564200401     A.U. after   13 cycles
            NFock= 13  Conv=0.56D-08     -V/T= 2.0069
 KE= 3.362530756883D+02 PE=-1.254794170384D+03 EE= 3.494175793663D+02
 Leave Link  502 at Wed Aug 24 02:25:44 2022, MaxMem=    23592960 cpu:       106.9
 (Enter /public/home/users/caep010/software/Gaussian09/g09/l701.exe)
 Compute integral first derivatives.
 ... and contract with generalized density number  0.
 PrsmSu:  requested number of processors reduced to:   3 ShMem   1 Linda.
 PrsmSu:  requested number of processors reduced to:   6 ShMem   1 Linda.
 Leave Link  701 at Wed Aug 24 02:25:44 2022, MaxMem=    23592960 cpu:         1.9
 (Enter /public/home/users/caep010/software/Gaussian09/g09/l702.exe)
 L702 exits ... SP integral derivatives will be done elsewhere.
 Leave Link  702 at Wed Aug 24 02:25:44 2022, MaxMem=    23592960 cpu:         0.5
 (Enter /public/home/users/caep010/software/Gaussian09/g09/l703.exe)
 Compute integral first derivatives, UseDBF=F ICtDFT=           0.
 Integral derivatives from FoFJK, PRISM(SPDF).
 Calling FoFJK, ICntrl=      2127 FMM=F ISym2X=0 I1Cent= 0 IOpClX= 0 NMat=1 NMatS=1 NMatT=0.
 FoFJK:  IHMeth= 1 ICntrl=    2127 DoSepK=F KAlg= 0 I1Cent=   0 FoldK=F
 IRaf=         0 NMat=   1 IRICut=       1 DoRegI=T DoRafI=F ISym2E= 0.
 FoFCou: FMM=F IPFlag=           0 FMFlag=      100000 FMFlg1=         800
         NFxFlg=           0 DoJE=F BraDBF=F KetDBF=F FulRan=T
         wScrn=  0.000000 ICntrl=    2127 IOpCl=  0 I1Cent=           0 NGrid=           0
         NMat0=    1 NMatS0=      1 NMatT0=    0 NMatD0=    1 NMtDS0=    0 NMtDT0=    0
 Symmetry not used in FoFCou.
 CoulSu:  requested number of processors reduced to:   6 ShMem   1 Linda.
 CalDSu:  requested number of processors reduced to:  18 ShMem   1 Linda.
 Leave Link  703 at Wed Aug 24 02:25:47 2022, MaxMem=    23592960 cpu:        22.1
 (Enter /public/home/users/caep010/software/Gaussian09/g09/l716.exe)
 Dipole        = 8.65701067D-02 8.74752573D-01 1.76081020D-01
 ***** Axes restored to original set *****
 -------------------------------------------------------------------
 Center     Atomic                   Forces (Hartrees/Bohr)
 Number     Number              X              Y              Z
 -------------------------------------------------------------------
      1        7          -0.003659569    0.004690576    0.000472930
      2        6          -0.031587242   -0.000444362    0.006177477
      3        8           0.004586763   -0.003695074   -0.002772247
      4        6           0.031074142   -0.002801169   -0.009201578
      5        7          -0.005571046    0.002499922    0.002421288
      6        8          -0.012525422   -0.002906180    0.000254750
      7        1           0.007169364    0.007420838    0.001363408
      8        1           0.008580599   -0.016680670   -0.004695810
      9        1          -0.009647430   -0.002753422   -0.000657863
     10        1           0.011579840    0.014669543    0.006637646
 -------------------------------------------------------------------
 Cartesian Forces:  Max     0.031587242 RMS     0.010578995
 Leave Link  716 at Wed Aug 24 02:25:47 2022, MaxMem=    23592960 cpu:         0.5
 (Enter /public/home/users/caep010/software/Gaussian09/g09/l103.exe)

 GradGradGradGradGradGradGradGradGradGradGradGradGradGradGradGradGradGrad
 Berny optimization.
 Using GEDIIS/GDIIS optimizer.
 FormGI is forming the generalized inverse of G from B-inverse, IUseBI=4.
 Internal  Forces:  Max     0.022138126 RMS     0.010365936
 Search for a local minimum.
 Step number   2 out of a maximum of   41
 All quantities printed in internal units (Hartrees-Bohrs-Radians)
 RMS Force = .10366D-01 SwitMx=.10000D-02 MixMth= 1
 Mixed Optimization -- RFO/linear search
 Update second derivatives using D2CorX and points    1    2
 DE= -2.81D-02 DEPred=-2.79D-02 R= 1.01D+00
 TightC=F SS=  1.41D+00  RLast= 3.01D-01 DXNew= 5.0454D-01 9.0365D-01
 Trust test= 1.01D+00 RLast= 3.01D-01 DXMaxT set to 5.05D-01
 ITU=  1  0
 Use linear search instead of GDIIS.
     Eigenvalues ---    0.01038   0.01739   0.01745   0.01760   0.01786
     Eigenvalues ---    0.03052   0.03102   0.15675   0.16000   0.16000
     Eigenvalues ---    0.16596   0.24043   0.24999   0.25000   0.25094
     Eigenvalues ---    0.34564   0.40759   0.41276   0.45330   0.45743
     Eigenvalues ---    0.46220   0.47099   0.68495   0.70993
 RFO step:  Lambda=-2.04050491D-03 EMin= 1.03837178D-02
 Quartic linear search produced a step of  0.60472.
 Iteration  1 RMS(Cart)=  0.10457056 RMS(Int)=  0.00516703
 Iteration  2 RMS(Cart)=  0.00539686 RMS(Int)=  0.00005498
 Iteration  3 RMS(Cart)=  0.00000916 RMS(Int)=  0.00005438
 Iteration  4 RMS(Cart)=  0.00000000 RMS(Int)=  0.00005438
 ITry= 1 IFail=0 DXMaxC= 3.53D-01 DCOld= 1.00D+10 DXMaxT= 5.05D-01 DXLimC= 3.00D+00 Rises=F
 Variable       Old X    -DE/DX   Delta X   Delta X   Delta X     New X
                                 (Linear)    (Quad)   (Total)
    R1        2.41330  -0.00875  -0.02280   0.01461  -0.00819   2.40512
    R2        1.93392  -0.00761  -0.02187   0.00673  -0.01514   1.91878
    R3        2.55790  -0.02072  -0.04493   0.00237  -0.04256   2.51534
    R4        2.79875   0.00928   0.00195   0.03935   0.04130   2.84005
    R5        1.85470  -0.01520  -0.03654   0.00625  -0.03028   1.82441
    R6        2.40145  -0.01298  -0.02589   0.00980  -0.01609   2.38537
    R7        2.59256  -0.01357  -0.02789  -0.00144  -0.02933   2.56323
    R8        1.94038  -0.00634  -0.02014   0.00870  -0.01145   1.92894
    R9        1.85537  -0.01737  -0.03343  -0.00602  -0.03945   1.81591
    A1        2.05478  -0.01353  -0.06502   0.00489  -0.06013   1.99465
    A2        2.09617   0.00215   0.01063  -0.00604   0.00458   2.10075
    A3        2.17488   0.01102   0.02712   0.01977   0.04688   2.22176
    A4        2.01204  -0.01318  -0.03774  -0.01377  -0.05151   1.96052
    A5        1.95811  -0.02214  -0.09478  -0.01670  -0.11149   1.84663
    A6        2.09728   0.00399   0.01334   0.00068   0.01399   2.11127
    A7        2.07868  -0.01224  -0.03230  -0.01786  -0.05018   2.02850
    A8        2.10722   0.00825   0.01900   0.01722   0.03619   2.14341
    A9        2.01018  -0.01515  -0.06271  -0.01600  -0.07871   1.93148
   A10        2.03542  -0.01760  -0.06770  -0.02967  -0.09737   1.93805
    D1       -3.10840   0.00111   0.00124   0.04687   0.04814  -3.06026
    D2        0.01722   0.00098   0.00122   0.04272   0.04391   0.06113
    D3       -0.00261   0.00058   0.00333   0.01831   0.02169   0.01908
    D4       -3.12966   0.00050   0.00279   0.02179   0.02453  -3.10513
    D5       -2.85542   0.00127   0.00722   0.08130   0.08846  -2.76696
    D6        0.28258   0.00046  -0.00302   0.09185   0.08890   0.37148
    D7        0.27088   0.00126   0.00760   0.07738   0.08489   0.35578
    D8       -2.87429   0.00045  -0.00265   0.08792   0.08534  -2.78896
    D9        3.13514  -0.00062  -0.00777   0.01060   0.00266   3.13780
   D10       -0.00281   0.00025   0.00225  -0.00005   0.00237  -0.00044
   D11        0.11537   0.00141   0.00655   0.06562   0.07212   0.18749
   D12       -3.02983   0.00058  -0.00371   0.07619   0.07252  -2.95731
         Item               Value     Threshold  Converged?
 Maximum Force            0.022138     0.000450     NO 
 RMS     Force            0.010366     0.000300     NO 
 Maximum Displacement     0.353290     0.001800     NO 
 RMS     Displacement     0.104161     0.001200     NO 
 Predicted change in Energy=-7.111673D-03
 Lowest energy point so far.  Saving SCF results.
 GradGradGradGradGradGradGradGradGradGradGradGradGradGradGradGradGradGrad

 Leave Link  103 at Wed Aug 24 02:25:47 2022, MaxMem=    23592960 cpu:         2.5
 (Enter /public/home/users/caep010/software/Gaussian09/g09/l202.exe)
                          Input orientation:                          
 ---------------------------------------------------------------------
 Center     Atomic      Atomic             Coordinates (Angstroms)
 Number     Number       Type             X           Y           Z
 ---------------------------------------------------------------------
      1          7           0       -1.687340   -0.153096    0.501948
      2          6           0       -0.568569    0.438697    0.367846
      3          8           0       -0.472248    1.750243    0.573483
      4          6           0        0.752181   -0.181282    0.007395
      5          7           0        1.838900    0.397215    0.286216
      6          8           0        0.698989   -1.381877   -0.621546
      7          1           0       -1.641427   -1.161926    0.396390
      8          1           0       -1.356450    2.042010    0.828686
      9          1           0        2.634546   -0.161519   -0.024739
     10          1           0       -0.198681   -1.588564   -0.895179
 ---------------------------------------------------------------------
                    Distance matrix (angstroms):
                    1          2          3          4          5
     1  N    0.000000
     2  C    1.272733   0.000000
     3  O    2.259262   1.331059   0.000000
     4  C    2.489305   1.502891   2.355944   0.000000
     5  N    3.575437   2.409210   2.693438   1.262283   0.000000
     6  O    2.909761   2.429010   3.551065   1.356401   2.299695
     7  H    1.015376   1.927130   3.143098   2.615786   3.815197
     8  H    2.243822   1.844924   0.965438   3.172361   3.634540
     9  H    4.353868   3.282427   3.696602   1.882742   1.020750
    10  H    2.495723   2.416989   3.657791   1.923336   3.080706
                    6          7          8          9         10
     6  O    0.000000
     7  H    2.561663   0.000000
     8  H    4.248648   3.245504   0.000000
     9  H    2.364706   4.411588   4.638095   0.000000
    10  H    0.960940   1.982848   4.182488   3.289574   0.000000
 Stoichiometry    C2H4N2O2
 Framework group  C1[X(C2H4N2O2)]
 Deg. of freedom    24
 Full point group                 C1      NOp   1
 RotChk:  IX=0 Diff= 9.65D-02
 Largest Abelian subgroup         C1      NOp   1
 Largest concise Abelian subgroup C1      NOp   1
                         Standard orientation:                         
 ---------------------------------------------------------------------
 Center     Atomic      Atomic             Coordinates (Angstroms)
 Number     Number       Type             X           Y           Z
 ---------------------------------------------------------------------
      1          7           0       -1.382383    1.154723   -0.207812
      2          6           0       -0.743235    0.071444   -0.013269
      3          8           0       -1.398399   -1.065944    0.207694
      4          6           0        0.747344   -0.120389   -0.020745
      5          7           0        1.254590   -1.259831   -0.214993
      6          8           0        1.495812    0.991527    0.187247
      7          1           0       -0.795398    1.949913   -0.440425
      8          1           0       -2.336431   -0.842640    0.159713
      9          1           0        2.273809   -1.209205   -0.191343
     10          1           0        0.948618    1.726695    0.476236
 ---------------------------------------------------------------------
 Rotational constants (GHZ):      5.8078520      3.4984322      2.2413285
 Leave Link  202 at Wed Aug 24 02:25:47 2022, MaxMem=    23592960 cpu:         0.4
 (Enter /public/home/users/caep010/software/Gaussian09/g09/l301.exe)
 Standard basis: GTBas3 (6D, 7F)
 Ernie: Thresh=  0.10000D-02 Tol=  0.10000D-05 Strict=F.
 There are   206 symmetry adapted cartesian basis functions of A   symmetry.
 There are   188 symmetry adapted basis functions of A   symmetry.
   188 basis functions,   292 primitive gaussians,   206 cartesian basis functions
    23 alpha electrons       23 beta electrons
       nuclear repulsion energy       232.4134860845 Hartrees.
 IExCor=  402 DFT=T Ex+Corr=B3LYP ExCW=0 ScaHFX=  0.200000
 ScaDFX=  0.800000  0.720000  1.000000  0.810000 ScalE2=  1.000000  1.000000
 IRadAn=      0 IRanWt=     -1 IRanGd=            0 ICorTp=0 IEmpDi=  4
 NAtoms=   10 NActive=   10 NUniq=   10 SFac= 1.00D+00 NAtFMM=   60 NAOKFM=F Big=F
 Integral buffers will be    131072 words long.
 Raffenetti 2 integral format.
 Two-electron integral symmetry is turned on.
 Leave Link  301 at Wed Aug 24 02:25:47 2022, MaxMem=    23592960 cpu:         1.7
 (Enter /public/home/users/caep010/software/Gaussian09/g09/l302.exe)
 NPDir=0 NMtPBC=     1 NCelOv=     1 NCel=       1 NClECP=     1 NCelD=      1
         NCelK=      1 NCelE2=     1 NClLst=     1 CellRange=     0.0.
 One-electron integrals computed using PRISM.
 PrsmSu:  requested number of processors reduced to:   3 ShMem   1 Linda.
 PrsmSu:  requested number of processors reduced to:  11 ShMem   1 Linda.
 NBasis=   188 RedAO= T EigKep=  3.02D-04  NBF=   188
 NBsUse=   188 1.00D-06 EigRej= -1.00D+00 NBFU=   188
 Precomputing XC quadrature grid using
 IXCGrd= 4 IRadAn=           0 IRanWt=          -1 IRanGd=           0 AccXCQ= 0.00D+00.
 Generated NRdTot=       0 NPtTot=           0 NUsed=           0 NTot=          32
 NSgBfM=   206   206   206   206   206 MxSgAt=    10 MxSgA2=    10.
 Leave Link  302 at Wed Aug 24 02:25:48 2022, MaxMem=    23592960 cpu:         6.7
 (Enter /public/home/users/caep010/software/Gaussian09/g09/l303.exe)
 DipDrv:  MaxL=1.
 Leave Link  303 at Wed Aug 24 02:25:48 2022, MaxMem=    23592960 cpu:         0.7
 (Enter /public/home/users/caep010/software/Gaussian09/g09/l401.exe)
 Initial guess from the checkpoint file:  "G4.Frag_636.chk"
 B after Tr=    -0.000000   -0.000000    0.000000
         Rot=    0.999439    0.000163   -0.000440   -0.033487 Ang=   3.84 deg.
 Guess basis will be translated and rotated to current coordinates.
 JPrj=2 DoOrth=T DoCkMO=T.
 Generating alternative initial guess.
 ExpMin= 1.61D-01 ExpMax= 5.48D+03 ExpMxC= 8.25D+02 IAcc=1 IRadAn=         1 AccDes= 0.00D+00
 Harris functional with IExCor=  402 and IRadAn=       1 diagonalized for initial guess.
 HarFok:  IExCor=  402 AccDes= 0.00D+00 IRadAn=         1 IDoV= 1 UseB2=F ITyADJ=14
 ICtDFT=  3500011 ScaDFX=  1.000000  1.000000  1.000000  1.000000
 CalDSu:  requested number of processors reduced to:  20 ShMem   1 Linda.
 FoFCou: FMM=F IPFlag=           0 FMFlag=      100000 FMFlg1=           0
         NFxFlg=           0 DoJE=T BraDBF=F KetDBF=T FulRan=T
         wScrn=  0.000000 ICntrl=     500 IOpCl=  0 I1Cent=   200000004 NGrid=           0
         NMat0=    1 NMatS0=      1 NMatT0=    0 NMatD0=    1 NMtDS0=    0 NMtDT0=    0
 Petite list used in FoFCou.
 CoulSu:  requested number of processors reduced to:  11 ShMem   1 Linda.
 CoulSu:  requested number of processors reduced to:  11 ShMem   1 Linda.
 CoulSu:  requested number of processors reduced to:  12 ShMem   1 Linda.
 CoulSu:  requested number of processors reduced to:  12 ShMem   1 Linda.
 Harris En= -338.585032184710    
 Leave Link  401 at Wed Aug 24 02:25:48 2022, MaxMem=    23592960 cpu:         6.5
 (Enter /public/home/users/caep010/software/Gaussian09/g09/l502.exe)
 Closed shell SCF:
 Using DIIS extrapolation, IDIIS=  1040.
 Integral symmetry usage will be decided dynamically.
 IVT=      153942 IEndB=      153942 NGot=    23592960 MDV=    23498301
 LenX=    23498301 LenY=    23455424
 Requested convergence on RMS density matrix=1.00D-08 within 128 cycles.
 Requested convergence on MAX density matrix=1.00D-06.
[...]
 Alpha virt. eigenvalues --    3.06137   3.08132   3.08845   3.11683   3.13337
 Alpha virt. eigenvalues --    3.15015   3.15895   3.18257   3.19680   3.20446
 Alpha virt. eigenvalues --    3.23530   3.23977   3.29142   3.30654   3.31729
 Alpha virt. eigenvalues --    3.35027   3.37377   3.38023   3.39355   3.41496
 Alpha virt. eigenvalues --    3.41984   3.42593   3.47881   3.49381   3.50433
 Alpha virt. eigenvalues --    3.51116   3.54389   3.56789   3.61721   3.64134
 Alpha virt. eigenvalues --    3.65321   3.67299   3.69270   3.72402   3.73521
 Alpha virt. eigenvalues --    3.74768   3.75969   3.79765   3.82383   3.84432
 Alpha virt. eigenvalues --    3.85866   3.89054   3.90851   3.92792   3.94265
 Alpha virt. eigenvalues --    3.97277   3.99268   4.03598   4.06540   4.07218
 Alpha virt. eigenvalues --    4.10050   4.12050   4.12261   4.15516   4.18358
 Alpha virt. eigenvalues --    4.19894   4.22451   4.23185   4.25616   4.26235
 Alpha virt. eigenvalues --    4.29322   4.32367   4.34179   4.36407   4.38135
 Alpha virt. eigenvalues --    4.41480   4.44394   4.47710   4.49533   4.54740
 Alpha virt. eigenvalues --    4.56404   4.60454   4.63583   4.68174   4.69008
 Alpha virt. eigenvalues --    4.75059   4.79588   4.81725   4.86837   4.91000
 Alpha virt. eigenvalues --    4.92412   4.99066   5.02908   5.03811   5.07766
 Alpha virt. eigenvalues --    5.11852   5.13195   5.18536   5.19740   5.27303
 Alpha virt. eigenvalues --    5.27977   5.32020   5.32879   5.37612   5.39584
 Alpha virt. eigenvalues --    5.44674   5.45805   5.50902   5.54824   5.58151
 Alpha virt. eigenvalues --    5.61920   5.65368   5.69161   5.75134   5.75902
 Alpha virt. eigenvalues --    5.77632   5.83317   5.84877   5.86499   5.89605
 Alpha virt. eigenvalues --    5.92181   5.96361   5.99573   6.01517   6.02248
 Alpha virt. eigenvalues --    6.07619   6.08848   6.11198   6.15299   6.17253
 Alpha virt. eigenvalues --    6.21708   6.24500   6.28413   6.31885   6.34108
 Alpha virt. eigenvalues --    6.36083   6.41162   6.44495   6.46031   6.53047
 Alpha virt. eigenvalues --    6.53771   6.54858   6.58583   6.61341   6.67524
 Alpha virt. eigenvalues --    6.69899   6.74932   6.78088   6.81934   6.82584
 Alpha virt. eigenvalues --    6.86277   6.91101   6.94022   6.95303   6.99516
 Alpha virt. eigenvalues --    7.05202   7.08087   7.10261   7.12867   7.14248
 Alpha virt. eigenvalues --    7.17719   7.20692   7.24042   7.27347   7.29407
 Alpha virt. eigenvalues --    7.31669   7.34105   7.36053   7.44358   7.51281
 Alpha virt. eigenvalues --    7.51919   7.56142   7.56554   7.58474   7.62863
 Alpha virt. eigenvalues --    7.67008   7.68443   7.70551   7.73893   7.75162
 Alpha virt. eigenvalues --    7.79416   7.84127   7.86509   7.97327   8.01123
 Alpha virt. eigenvalues --    8.05315   8.08554   8.10954   8.13950   8.16427
 Alpha virt. eigenvalues --    8.17623   8.21836   8.24177   8.26270   8.27387
 Alpha virt. eigenvalues --    8.29732   8.32010   8.43019   8.45536   8.47594
 Alpha virt. eigenvalues --    8.50857   8.54129   8.56003   8.58207   8.59449
 Alpha virt. eigenvalues --    8.65730   8.66764   8.68983   8.73118   8.76712
 Alpha virt. eigenvalues --    8.78187   8.83240   8.85779   8.86960   8.88279
 Alpha virt. eigenvalues --    8.92154   8.96056   8.96913   9.02382   9.03565
 Alpha virt. eigenvalues --    9.04579   9.05967   9.08481   9.11225   9.13719
 Alpha virt. eigenvalues --    9.17541   9.18225   9.24042   9.30863   9.31637
 Alpha virt. eigenvalues --    9.35593   9.39136   9.43611   9.47177   9.50946
 Alpha virt. eigenvalues --    9.54667   9.56452   9.58681   9.61736   9.65773
 Alpha virt. eigenvalues --    9.69038   9.75043   9.75599   9.79026   9.82762
 Alpha virt. eigenvalues --    9.86138   9.91345   9.96605  10.01000  10.03481
 Alpha virt. eigenvalues --   10.07061  10.09623  10.13937  10.15470  10.19277
 Alpha virt. eigenvalues --   10.21208  10.23661  10.25528  10.28994  10.30862
 Alpha virt. eigenvalues --   10.32154  10.36514  10.37704  10.39979  10.43991
 Alpha virt. eigenvalues --   10.46554  10.47771  10.52623  10.54900  10.58826
 Alpha virt. eigenvalues --   10.59917  10.61417  10.65679  10.69071  10.71511
 Alpha virt. eigenvalues --   10.76033  10.80150  10.82912  10.87186  10.95604
 Alpha virt. eigenvalues --   10.96807  11.02083  11.10860  11.12520  11.18340
 Alpha virt. eigenvalues --   11.27984  11.29567  11.38910  11.39769  11.44553
 Alpha virt. eigenvalues --   11.47491  11.53383  11.59751  11.66727  11.83140
 Alpha virt. eigenvalues --   11.86135  11.92912  11.98714  12.04503  12.11960
 Alpha virt. eigenvalues --   12.14250  12.22373  12.32126  12.34603  12.44524
 Alpha virt. eigenvalues --   12.44920  12.50451  12.51392  12.53751  12.55866
 Alpha virt. eigenvalues --   12.64794  12.70755  12.80390  12.84018  12.93069
 Alpha virt. eigenvalues --   13.00094  13.01780  13.03211  13.15918  13.24288
 Alpha virt. eigenvalues --   13.32682  13.42667  13.45858  13.47916  13.57382
 Alpha virt. eigenvalues --   13.61590  13.72172  13.77060  13.82721  13.88525
 Alpha virt. eigenvalues --   13.93315  14.01427  14.04966  14.13305  14.27358
 Alpha virt. eigenvalues --   14.30881  14.32325  14.33434  14.38573  14.40889
 Alpha virt. eigenvalues --   14.43072  14.45441  14.47252  14.52220  14.53225
 Alpha virt. eigenvalues --   14.55927  14.59805  14.60820  14.68334  14.71266
 Alpha virt. eigenvalues --   14.74068  14.78497  14.80840  14.87542  14.91359
 Alpha virt. eigenvalues --   14.93396  14.98618  15.00686  15.02565  15.04791
 Alpha virt. eigenvalues --   15.09933  15.11421  15.11623  15.16009  15.17951
 Alpha virt. eigenvalues --   15.20129  15.22043  15.24701  15.28554  15.33721
 Alpha virt. eigenvalues --   15.39990  15.41037  15.46008  15.52844  15.56400
 Alpha virt. eigenvalues --   15.57928  15.62146  15.66804  15.70346  15.74301
 Alpha virt. eigenvalues --   15.81489  15.84133  15.85920  16.00708  16.05821
 Alpha virt. eigenvalues --   16.15347  16.22083  16.43436  16.47733  16.51769
 Alpha virt. eigenvalues --   16.52962  16.75053  16.92363  17.32740  17.42169
 Alpha virt. eigenvalues --   17.80794  17.95315  17.97630  17.99197  18.01077
 Alpha virt. eigenvalues --   18.11880  18.28088  18.31968  18.41878  18.46715
 Alpha virt. eigenvalues --   18.54144  18.60914  18.65942  18.69363  18.76245
 Alpha virt. eigenvalues --   18.77581  18.81101  18.85086  19.05786  19.07982
 Alpha virt. eigenvalues --   19.09812  19.10406  19.24945  19.29780  19.35603
 Alpha virt. eigenvalues --   19.38014  19.40226  19.41315  19.43982  19.45484
 Alpha virt. eigenvalues --   19.50646  19.51888  19.59279  19.64880  19.67058
 Alpha virt. eigenvalues --   19.72933  19.87513  19.89979  19.95984  20.00388
 Alpha virt. eigenvalues --   20.07766  20.08620  20.12422  20.18260  20.20127
 Alpha virt. eigenvalues --   20.23637  20.63564  20.77296  21.19630  21.32320
 Alpha virt. eigenvalues --   22.33165  22.33599  22.40115  22.42160  23.08210
 Alpha virt. eigenvalues --   23.17982  23.20439  23.23072  23.74877  23.81450
 Alpha virt. eigenvalues --   24.11170  24.19344  40.19769  40.83175  51.55329
 Alpha virt. eigenvalues --   51.70951  63.33901  63.48434
          Condensed to atoms (all electrons):
               1          2          3          4          5          6
     1  N    6.939384   0.600060  -0.122733  -0.058800   0.003143  -0.018217
     2  C    0.600060   4.373541   0.350088   0.389378  -0.111248  -0.058504
     3  O   -0.122733   0.350088   8.040672  -0.068158  -0.014604   0.004791
     4  C   -0.058800   0.389378  -0.068158   4.444035   0.621367   0.284843
     5  N    0.003143  -0.111248  -0.014604   0.621367   6.820121  -0.053802
     6  O   -0.018217  -0.058504   0.004791   0.284843  -0.053802   8.110235
     7  H    0.337911  -0.040490   0.012996  -0.008264  -0.000288   0.004249
     8  H    0.000245  -0.006648   0.286176   0.008074  -0.001169  -0.000455
     9  H   -0.000181   0.013530   0.000161   0.001126   0.303934  -0.020311
    10  H    0.008704   0.009038  -0.001680  -0.027044   0.005171   0.289061
               7          8          9         10
     1  N    0.337911   0.000245  -0.000181   0.008704
     2  C   -0.040490  -0.006648   0.013530   0.009038
     3  O    0.012996   0.286176   0.000161  -0.001680
     4  C   -0.008264   0.008074   0.001126  -0.027044
     5  N   -0.000288  -0.001169   0.303934   0.005171
     6  O    0.004249  -0.000455  -0.020311   0.289061
     7  H    0.398870  -0.000894  -0.000115   0.002157
     8  H   -0.000894   0.303697   0.000103   0.000174
     9  H   -0.000115   0.000103   0.393185   0.000118
    10  H    0.002157   0.000174   0.000118   0.330278
 Mulliken charges:
               1
     1  N   -0.689517
     2  C    0.481254
     3  O   -0.487709
     4  C    0.413444
     5  N   -0.572623
     6  O   -0.541890
     7  H    0.293868
     8  H    0.410698
     9  H    0.308451
    10  H    0.384024
 Sum of Mulliken charges =  -0.00000
 Mulliken charges with hydrogens summed into heavy atoms:
               1
     1  N   -0.395649
     2  C    0.481254
     3  O   -0.077012
     4  C    0.413444
     5  N   -0.264173
     6  O   -0.157866
 Electronic spatial extent (au):  <R**2>=            523.0546
 Charge=             -0.0000 electrons
 Dipole moment (field-independent basis, Debye):
    X=              0.1449    Y=              2.1541    Z=              0.7874  Tot=              2.2981
 Quadrupole moment (field-independent basis, Debye-Ang):
   XX=            -32.8945   YY=            -36.4941   ZZ=            -35.2500
   XY=              2.7256   XZ=             -0.4913   YZ=              0.4845
 Traceless Quadrupole moment (field-independent basis, Debye-Ang):
   XX=              1.9850   YY=             -1.6146   ZZ=             -0.3705
   XY=              2.7256   XZ=             -0.4913   YZ=              0.4845
 Octapole moment (field-independent basis, Debye-Ang**2):
  XXX=             -2.7802  YYY=             20.1825  ZZZ=              3.5534  XYY=              3.3098
  XXY=            -19.6602  XXZ=              1.7629  XZZ=              0.9572  YZZ=              3.0798
  YYZ=              2.7157  XYZ=             -0.0646
 Hexadecapole moment (field-independent basis, Debye-Ang**3):
 XXXX=           -304.8604 YYYY=           -220.1803 ZZZZ=            -49.9993 XXXY=             20.2375
 XXXZ=            -13.8762 YYYX=             19.6682 YYYZ=             -1.0082 ZZZX=              0.1702
 ZZZY=              0.4145 XXYY=           -103.0320 XXZZ=            -71.6623 YYZZ=            -45.1764
 XXYZ=              2.2514 YYXZ=              4.5405 ZZXY=              5.7933
 N-N= 2.320703855365D+02 E-N=-1.256728616107D+03  KE= 3.363618091353D+02
 PrsmSu:  requested number of processors reduced to:   1 ShMem   1 Linda.
 No NMR shielding tensors so no spin-rotation constants.
 Leave Link  601 at Wed Aug 24 06:04:41 2022, MaxMem=    23592960 cpu:         8.4
 (Enter /public/home/users/caep010/software/Gaussian09/g09/l9999.exe)
 1\1\GINC-B1814\SP\RHF\GFHFB2\C2H4N2O2\ROOT\24-Aug-2022\0\\#P Geom=AllC
 heck Guess=TCheck SCRF=Check HF/GFHFB2 SCF=Tight\\Frag_636\\0,1\N,0,-1
 .6544898972,-0.1949645482,0.5929508309\C,0,-0.5708390144,0.4350798777,
 0.3749377695\O,0,-0.5139199358,1.7677665174,0.4630341278\C,0,0.7525633
 847,-0.179466815,0.0014436864\N,0,1.8425537501,0.3389392854,0.36804154
 47\O,0,0.6617893414,-1.3469452659,-0.6929069626\H,0,-1.5266108693,-1.2
 039765211,0.5523085301\H,0,-1.3906278221,2.0581738773,0.7571553878\H,0
 ,2.6311383222,-0.2283773921,0.0487942546\H,0,-0.2316572596,-1.44632901
 55,-1.0452591691\\Version=ES64L-G09RevE.01\State=1-A\HF=-336.8263062\R
 MSD=5.607e-09\Dipole=-0.4740065,-0.6042849,-0.4771092\Quadrupole=-1.20
 59906,1.2233385,-0.0173479,-2.0096137,-0.0338505,0.8376368\PG=C01 [X(C
 2H4N2O2)]\\@


 A SLIP OF THE FOOT YOU MAY SOON RECOVER, BUT A SLIP OF THE TONGUE
 YOU MAY NEVER GET OVER. -- BEN FRANKLIN
 Diagonal vibrational polarizability:
        0.0000000       0.0000000       0.0000000

 Temperature=              298.150000 Pressure=                      1.000000
 E(ZPE)=                     0.072394 E(Thermal)=                    0.078264
 E(CCSD(T))=              -337.639036 E(Empiric)=                   -0.118099
 DE(Plus)=                  -0.028143 DE(2DF)=                      -0.255675
 E(Delta-G3XP)=             -0.411983 DE(HF)=                       -0.033850
 G4(0 K)=                 -338.414392 G4 Energy=                  -338.408522
 G4 Enthalpy=             -338.407578 G4 Free Energy=             -338.443883
 1\1\GINC-B1814\Mixed\G4\G4\C2H4N2O2\ROOT\24-Aug-2022\0\\#P Geom=AllChe
 ck Guess=TCheck SCRF=Check HF/GFHFB2 SCF=Tight\\Frag_636\\0,1\N,0,-1.6
 544898972,-0.1949645482,0.5929508309\C,0,-0.5708390144,0.4350798777,0.
 3749377695\O,0,-0.5139199358,1.7677665174,0.4630341278\C,0,0.752563384
 7,-0.179466815,0.0014436864\N,0,1.8425537501,0.3389392854,0.3680415447
 \O,0,0.6617893414,-1.3469452659,-0.6929069626\H,0,-1.5266108693,-1.203
 9765211,0.5523085301\H,0,-1.3906278221,2.0581738773,0.7571553878\H,0,2
 .6311383222,-0.2283773921,0.0487942546\H,0,-0.2316572596,-1.4463290155
 ,-1.0452591691\\Version=ES64L-G09RevE.01\State=1-A\MP2/GTBas1=-337.580
 6287\MP4/GTBas1=-337.6426547\CCSD(T)/G3Bas1=-337.6390363\MP2/GTBas2=-3
 37.6072619\MP4/GTBas2=-337.6707976\MP2/GTBas3=-337.8224629\MP4/GTBas3=
 -337.8983299\HF/GTLargeXP=-336.7938419\MP2/GTLargeXP=-338.2610786\HF/G
 FHFB1=-336.8206205\HF/GFHFB2=-336.8263062\G4=-338.4143916\FreqCoord=-3
 .1265327954,-0.3684296016,1.1205146806,-1.0787294032,0.8221818147,0.70
 85297012,-0.971167933,3.3405945847,0.8750076917,1.4221386947,-0.339143
 1303,0.0027281719,3.4819219727,0.6405024251,0.6954977251,1.250600613,-
 2.5453576686,-1.3094043949,-2.8848764544,-2.2751858953,1.0437118627,-2
 .6279057365,3.8893849619,1.430816323,4.9721308467,-0.431570726,0.09220
 7778,-0.4377687773,-2.7331657374,-1.9752535674\PG=C01 [X(C2H4N2O2)]\NI
 mag=0\\0.53172314,0.19760174,0.69697983,-0.10439077,-0.02718800,0.0744
 6284,-0.45393687,-0.22426216,0.08476028,0.76813388,-0.16769099,-0.2368
 3064,0.02899495,0.13122727,0.74553744,0.08783483,0.03966207,-0.0735358
 0,-0.12848092,0.03215240,0.22190593,0.00080674,-0.05960280,-0.00173500
 ,-0.11304032,0.02047885,0.01383425,0.52903930,-0.03594689,-0.06613696,
 0.00209503,-0.02145086,-0.33051139,-0.01493249,-0.08086656,0.50002314,
 -0.00028694,0.00915390,0.00785861,0.01261839,-0.02989399,-0.06301044,-
 0.15212517,0.06276154,0.09738400,-0.03120621,-0.00290790,0.00989595,-0
 .15018174,0.05018878,0.02525056,-0.00029216,0.00465448,0.00106787,0.87
 018360,-0.02677674,0.00857265,0.00058744,0.05358668,-0.09841417,-0.015
 90549,0.03239965,-0.03022082,-0.01085607,0.12521506,0.52212435,0.01047
 359,-0.00466309,0.01973989,0.02932111,-0.00703488,-0.09137022,0.002818
 83,-0.00648006,0.00261195,0.10358256,0.19643347,0.29518598,-0.00545420
 ,0.00626717,0.00641805,-0.04268698,-0.01821422,-0.01095392,-0.00215362
 ,0.00136482,0.00027496,-0.52440567,-0.19192506,-0.14026192,0.82481810,
 0.00471890,0.00163585,-0.00128289,-0.00078643,0.00549917,0.00847712,0.
 00319095,0.00052507,-0.00041406,-0.13214636,-0.16460330,-0.06220763,0.
 04168237,0.33609201,0.00347101,-0.00008606,0.00219365,0.00211148,0.005
 62047,0.00096784,0.00014250,0.00071304,0.00099948,-0.10612902,-0.06721
 461,-0.11411340,0.05668230,0.16516635,0.17892112,-0.00052802,0.0036459
 4,0.00213867,-0.00133845,0.01900532,0.01410465,-0.00438706,0.00581726,
 0.00180619,-0.11333198,-0.01080868,-0.01521375,-0.00485994,-0.05427264
 ,-0.03233250,0.55523683,0.00314826,0.00040323,0.00303049,-0.00507383,-
 0.02618320,-0.01903087,0.00612676,0.00039771,-0.00229864,0.02884726,-0
 .22338053,-0.09459470,-0.02825912,-0.02570503,-0.03621041,0.03758422,0
 .31103933,0.00133277,0.00023179,0.00131736,-0.00117937,-0.02054262,-0.
 00220291,0.00397232,-0.00189311,-0.00069364,0.00756047,-0.10630032,-0.
 10832898,-0.01914349,-0.03682710,0.00204805,0.17607687,0.18216011,0.18
 961380,-0.03487393,0.08383337,0.00448394,-0.00916854,-0.04520065,-0.00
 157552,-0.00123508,-0.00326508,0.00378181,-0.00132804,-0.00190754,-0.0
 0302729,0.00116946,0.00049854,0.00019519,0.00056072,0.00175965,-0.0005
 9664,0.04667360,0.02255357,-0.41240837,-0.01037203,0.01514880,-0.02878
 874,-0.00444898,-0.00523897,0.00138547,0.00113110,-0.00062530,-0.00109
 502,-0.00151240,0.00086015,0.00061360,0.00017809,0.00308074,0.00122897
 ,-0.00059726,-0.03441065,0.43634776,0.00416214,-0.02279834,-0.02655175
 ,-0.00029742,0.00888039,-0.00664846,0.00326679,0.00003924,0.01541828,-
 0.00114253,0.00214088,-0.00482372,-0.00192353,-0.00036524,-0.00083439,
 -0.00008332,-0.00189632,-0.00081133,-0.00681128,0.01385777,0.02754160,
 -0.00193700,-0.00495989,-0.00110038,0.00058389,0.00853109,0.00194030,-
 0.40815010,0.13199167,0.13207971,0.00103117,-0.00025842,0.00153281,0.0
 0019251,-0.00024467,0.00006774,0.00007010,0.00015025,-0.00070022,-0.00
 137201,-0.00058939,0.00019605,0.40950784,0.00011253,0.00632440,0.00065
 302,0.05347518,-0.03005559,-0.01798081,0.08398530,-0.07676747,-0.03014
 531,-0.00233291,-0.00573726,-0.00077161,-0.00105522,0.00050584,-0.0000
 6467,0.00086818,-0.00135544,-0.00056452,-0.00090236,0.00161330,0.00080
 258,-0.13469856,0.10527199,-0.00060699,0.00267773,-0.00389017,0.004577
 72,-0.00598063,0.00246208,0.12889814,-0.04535155,-0.05991991,0.0018663
 7,0.00002198,0.00531260,-0.00033071,-0.00047861,-0.00058474,-0.0005448
 0,0.00005076,0.00003068,-0.00004432,0.00051442,-0.00115023,-0.13405129
 ,0.04839536,0.05789237,-0.00155326,0.00042800,0.00105191,-0.00209125,-
 0.00365804,-0.00361239,0.00046153,-0.00042098,0.00002778,-0.04398640,0
 .02644015,0.01378785,-0.25029879,0.13566679,0.07546971,0.00552220,0.00
 225540,0.00230386,0.00000138,-0.00012941,-0.00024640,0.00005195,0.0000
 7077,0.00013103,0.29117026,0.00170506,-0.00036237,0.00151753,-0.000411
 56,0.00335470,-0.00702774,-0.00007631,0.00030122,0.00032904,-0.0286607
 2,0.00227470,-0.00536826,0.18880597,-0.14869793,-0.06196833,0.00019553
 ,-0.00186568,0.00526003,-0.00053897,-0.00000841,-0.00033704,0.00008389
 ,0.00030010,0.00035204,-0.16133519,0.14479131,-0.00233058,0.00120127,-
 0.00265786,-0.00140411,-0.00801009,0.01126405,0.00106268,-0.00022154,-
 0.00065150,-0.01689954,-0.00043577,0.00752375,0.10860185,-0.06528359,-
 0.07304784,-0.00003174,0.00575710,-0.00604122,0.00054839,0.00009876,0.
 00088532,-0.00013157,-0.00001710,-0.00014346,-0.08945407,0.06663018,0.
 06451545,-0.00304040,-0.00004346,-0.00152265,0.00372637,0.00533259,0.0
 0165815,-0.00104923,-0.00187785,0.00075540,-0.00648256,-0.00596509,-0.
 00301380,0.00367911,0.00169253,0.00032159,-0.43694438,-0.04653885,-0.1
 6962657,-0.00042757,-0.00064954,0.00287949,0.00002164,0.00047709,0.000
 10486,0.00072239,0.00023229,0.00003869,0.43979462,0.00057457,0.0018223
 9,0.00196446,-0.00145309,-0.00360757,-0.00096523,-0.00039687,0.0010040
 3,0.00023248,-0.04223238,-0.00952062,-0.01380084,0.00047314,-0.0058652
 9,-0.00613386,-0.00511588,-0.03457937,-0.02092700,0.00013369,0.0011114
 3,-0.00032392,-0.00000597,-0.00009987,-0.00020150,0.00068250,-0.000087
 65,0.00028078,0.04734028,0.04982253,0.00034094,0.00180872,0.00106322,-
 0.00202717,-0.00418601,0.00016794,-0.00013535,0.00326991,0.00000318,-0
 .02505270,0.00152849,-0.01173785,0.00063641,-0.00678436,0.00345024,-0.
 14592027,-0.03696754,-0.07493182,0.00304573,0.00115052,-0.00302532,0.0
 0016686,-0.00030694,-0.00000923,0.00054072,0.00061256,-0.00164668,0.16
 840483,0.03987464,0.08666631\\-0.00000871,-0.00000730,0.00000577,0.000
 01327,0.00000560,-0.00002667,0.00000492,-0.00001874,0.00000882,-0.0000
 0428,0.00001973,0.00002177,0.00000919,-0.00000536,-0.00000869,-0.00000
 698,-0.00002334,-0.00000470,0.00000606,0.00001926,0.00000526,0.0000034
 4,0.00000034,0.00000254,-0.00001543,0.00000098,-0.00000460,-0.00000147
 ,0.00000882,0.00000050\\\@
 Job cpu time:       0 days  1 hours 56 minutes 23.6 seconds.
 File lengths (MBytes):  RWF=   8406 Int=      0 D2E=      0 Chk=     27 Scr=      1
 Normal termination of Gaussian 09 at Wed Aug 24 06:04:41 2022.
