 Entering Gaussian System, Link 0=g09
 Input=G4.Frag_623.gjf
 Output=G4.Frag_623.log
 Initial command:
 /public/home/users/caep010/software/Gaussian09/g09/l1.exe "/public/home/users/caep010/.cache/gau_scr/Gau-72665.inp" -scrdir="/public/home/users/caep010/.cache/gau_scr/"
 Entering Link 1 = /public/home/users/caep010/software/Gaussian09/g09/l1.exe PID=     72666.
  
 Copyright (c) 1988,1990,1992,1993,1995,1998,2003,2009,2015,
            Gaussian, Inc.  All Rights Reserved.
  
 This is part of the Gaussian(R) 09 program.  It is based on
 the Gaussian(R) 03 system (copyright 2003, Gaussian, Inc.),
 the Gaussian(R) 98 system (copyright 1998, Gaussian, Inc.),
 the Gaussian(R) 94 system (copyright 1995, Gaussian, Inc.),
 the Gaussian 92(TM) system (copyright 1992, Gaussian, Inc.),
 the Gaussian 90(TM) system (copyright 1990, Gaussian, Inc.),
 the Gaussian 88(TM) system (copyright 1988, Gaussian, Inc.),
 the Gaussian 86(TM) system (copyright 1986, Carnegie Mellon
 University), and the Gaussian 82(TM) system (copyright 1983,
 Carnegie Mellon University). Gaussian is a federally registered
 trademark of Gaussian, Inc.
  
 This software contains proprietary and confidential information,
 including trade secrets, belonging to Gaussian, Inc.
  
 This software is provided under written license and may be
 used, copied, transmitted, or stored only in accord with that
 written license.
  
 The following legend is applicable only to US Government
 contracts under FAR:
  
                    RESTRICTED RIGHTS LEGEND
  
 Use, reproduction and disclosure by the US Government is
 subject to restrictions as set forth in subparagraphs (a)
 and (c) of the Commercial Computer Software - Restricted
 Rights clause in FAR 52.227-19.
  
 Gaussian, Inc.
 340 Quinnipiac St., Bldg. 40, Wallingford CT 06492
  
  
 ---------------------------------------------------------------
 Warning -- This program may not be used in any manner that
 competes with the business of Gaussian, Inc. or will provide
 assistance to any competitor of Gaussian, Inc.  The licensee
 of this program is prohibited from giving any competitor of
 Gaussian, Inc. access to this program.  By using this program,
 the user acknowledges that Gaussian, Inc. is engaged in the
 business of creating and licensing software in the field of
 computational chemistry and represents and warrants to the
 licensee that it is not a competitor of Gaussian, Inc. and that
 it will not use this program in any manner prohibited above.
 ---------------------------------------------------------------
  

 Cite this work as:
 Gaussian 09, Revision E.01,
 M. J. Frisch, G. W. Trucks, H. B. Schlegel, G. E. Scuseria, 
 M. A. Robb, J. R. Cheeseman, G. Scalmani, V. Barone, B. Mennucci, 
 G. A. Petersson, H. Nakatsuji, M. Caricato, X. Li, H. P. Hratchian, 
 A. F. Izmaylov, J. Bloino, G. Zheng, J. L. Sonnenberg, M. Hada, 
 M. Ehara, K. Toyota, R. Fukuda, J. Hasegawa, M. Ishida, T. Nakajima, 
 Y. Honda, O. Kitao, H. Nakai, T. Vreven, J. A. Montgomery, Jr., 
 J. E. Peralta, F. Ogliaro, M. Bearpark, J. J. Heyd, E. Brothers, 
 K. N. Kudin, V. N. Staroverov, T. Keith, R. Kobayashi, J. Normand, 
 K. Raghavachari, A. Rendell, J. C. Burant, S. S. Iyengar, J. Tomasi, 
 M. Cossi, N. Rega, J. M. Millam, M. Klene, J. E. Knox, J. B. Cross, 
 V. Bakken, C. Adamo, J. Jaramillo, R. Gomperts, R. E. Stratmann, 
 O. Yazyev, A. J. Austin, R. Cammi, C. Pomelli, J. W. Ochterski, 
 R. L. Martin, K. Morokuma, V. G. Zakrzewski, G. A. Voth, 
 P. Salvador, J. J. Dannenberg, S. Dapprich, A. D. Daniels, 
 O. Farkas, J. B. Foresman, J. V. Ortiz, J. Cioslowski, 
 and D. J. Fox, Gaussian, Inc., Wallingford CT, 2013.
 
 ******************************************
 Gaussian 09:  ES64L-G09RevE.01 30-Nov-2015
                24-Aug-2022 
 ******************************************
 %nproc=32
 Will use up to   32 processors via shared memory.
 %mem=180MB
 %chk=G4.Frag_623.chk
 -----
 #P G4
 -----
 1/14=-1,18=20,19=15,26=3,38=1/1,3;
 2/9=110,12=2,17=6,18=5,40=1/2;
 3/5=35,7=104,11=2,16=1,25=1,30=1,71=1,74=-5/1,2,3;
 4//1;
 5/5=2,38=5/2;
 6/7=2,8=2,9=2,10=2,28=1/1;
 7//1,2,3,16;
 1/14=-1,18=20,19=15,26=3/3(2);
 2/9=110/2;
 99//99;
 2/9=110/2;
 3/5=35,7=104,11=2,16=1,25=1,30=1,71=1,74=-5/1,2,3;
 4/5=5,16=3,69=1/1;
 5/5=2,38=5/2;
 7//1,2,3,16;
 1/14=-1,18=20,19=15,26=3/3(-5);
 2/9=110/2;
 6/7=2,8=2,9=2,10=2,19=2,28=1/1;
 99/9=1/99;
 Leave Link    1 at Wed Aug 24 01:49:26 2022, MaxMem=    23592960 cpu:         2.6
 (Enter /public/home/users/caep010/software/Gaussian09/g09/l101.exe)
 --------
 Frag_623
 --------
 Symbolic Z-matrix:
 Charge =  0 Multiplicity = 1
 N                     2.1452    0.1503    0.013 
 C                     0.8276    0.2465    0.5547 
 O                     0.6747    0.567     1.7642 
 C                    -0.3714   -0.0779   -0.2932 
 N                    -1.4278    0.913    -0.0759 
 N                    -0.8529   -1.4174    0.0433 
 H                     2.9756    0.3647    0.6086 
 H                     2.2973   -0.1393   -0.9785 
 H                    -0.0736   -0.0626   -1.3666 
 H                    -2.2282    0.6822   -0.7086 
 H                    -1.071     1.8456   -0.3888 
 H                    -1.6065   -1.6782   -0.6335 
 H                    -1.289    -1.3939    0.9946 
 
 NAtoms=     13 NQM=       13 NQMF=       0 NMMI=      0 NMMIF=      0
                NMic=       0 NMicF=      0.
                    Isotopes and Nuclear Properties:
 (Nuclear quadrupole moments (NQMom) in fm**2, nuclear magnetic moments (NMagM)
  in nuclear magnetons)

  Atom         1           2           3           4           5           6           7           8           9          10
 IAtWgt=          14          12          16          12          14          14           1           1           1           1
 AtmWgt=  14.0030740  12.0000000  15.9949146  12.0000000  14.0030740  14.0030740   1.0078250   1.0078250   1.0078250   1.0078250
 NucSpn=           2           0           0           0           2           2           1           1           1           1
 AtZEff=   0.0000000   0.0000000   0.0000000   0.0000000   0.0000000   0.0000000   0.0000000   0.0000000   0.0000000   0.0000000
 NQMom=    2.0440000   0.0000000   0.0000000   0.0000000   2.0440000   2.0440000   0.0000000   0.0000000   0.0000000   0.0000000
 NMagM=    0.4037610   0.0000000   0.0000000   0.0000000   0.4037610   0.4037610   2.7928460   2.7928460   2.7928460   2.7928460
 AtZNuc=   7.0000000   6.0000000   8.0000000   6.0000000   7.0000000   7.0000000   1.0000000   1.0000000   1.0000000   1.0000000

  Atom        11          12          13
 IAtWgt=           1           1           1
 AtmWgt=   1.0078250   1.0078250   1.0078250
 NucSpn=           1           1           1
 AtZEff=   0.0000000   0.0000000   0.0000000
 NQMom=    0.0000000   0.0000000   0.0000000
 NMagM=    2.7928460   2.7928460   2.7928460
 AtZNuc=   1.0000000   1.0000000   1.0000000
 Leave Link  101 at Wed Aug 24 01:49:26 2022, MaxMem=    23592960 cpu:         2.3
 (Enter /public/home/users/caep010/software/Gaussian09/g09/l103.exe)

 GradGradGradGradGradGradGradGradGradGradGradGradGradGradGradGradGradGrad
 Berny optimization.
 Initialization pass.
                           ----------------------------
                           !    Initial Parameters    !
                           ! (Angstroms and Degrees)  !
 --------------------------                            --------------------------
 ! Name  Definition              Value          Derivative Info.                !
 --------------------------------------------------------------------------------
 ! R1    R(1,2)                  1.4279         estimate D2E/DX2                !
 ! R2    R(1,7)                  1.0442         estimate D2E/DX2                !
 ! R3    R(1,8)                  1.0441         estimate D2E/DX2                !
 ! R4    R(2,3)                  1.2606         estimate D2E/DX2                !
 ! R5    R(2,4)                  1.5039         estimate D2E/DX2                !
 ! R6    R(4,5)                  1.4646         estimate D2E/DX2                !
 ! R7    R(4,6)                  1.4626         estimate D2E/DX2                !
 ! R8    R(4,9)                  1.114          estimate D2E/DX2                !
 ! R9    R(5,10)                 1.046          estimate D2E/DX2                !
 ! R10   R(5,11)                 1.0464         estimate D2E/DX2                !
 ! R11   R(6,12)                 1.0459         estimate D2E/DX2                !
 ! R12   R(6,13)                 1.0468         estimate D2E/DX2                !
 ! A1    A(2,1,7)              120.2408         estimate D2E/DX2                !
 ! A2    A(2,1,8)              120.8905         estimate D2E/DX2                !
 ! A3    A(7,1,8)              118.8677         estimate D2E/DX2                !
 ! A4    A(1,2,3)              119.543          estimate D2E/DX2                !
 ! A5    A(1,2,4)              120.4818         estimate D2E/DX2                !
 ! A6    A(3,2,4)              119.9405         estimate D2E/DX2                !
 ! A7    A(2,4,5)              110.2098         estimate D2E/DX2                !
 ! A8    A(2,4,6)              109.2862         estimate D2E/DX2                !
 ! A9    A(2,4,9)              109.0955         estimate D2E/DX2                !
 ! A10   A(5,4,6)              110.3663         estimate D2E/DX2                !
 ! A11   A(5,4,9)              109.0547         estimate D2E/DX2                !
 ! A12   A(6,4,9)              108.7987         estimate D2E/DX2                !
 ! A13   A(4,5,10)             108.2332         estimate D2E/DX2                !
 ! A14   A(4,5,11)             108.2205         estimate D2E/DX2                !
 ! A15   A(10,5,11)            106.0624         estimate D2E/DX2                !
 ! A16   A(4,6,12)             108.4618         estimate D2E/DX2                !
 ! A17   A(4,6,13)             109.0063         estimate D2E/DX2                !
 ! A18   A(12,6,13)            107.0668         estimate D2E/DX2                !
 ! D1    D(7,1,2,3)             -1.3636         estimate D2E/DX2                !
 ! D2    D(7,1,2,4)           -179.2213         estimate D2E/DX2                !
 ! D3    D(8,1,2,3)            178.2795         estimate D2E/DX2                !
 ! D4    D(8,1,2,4)              0.4217         estimate D2E/DX2                !
 ! D5    D(1,2,4,5)           -137.078          estimate D2E/DX2                !
 ! D6    D(1,2,4,6)            101.4744         estimate D2E/DX2                !
 ! D7    D(1,2,4,9)            -17.3695         estimate D2E/DX2                !
 ! D8    D(3,2,4,5)             45.0727         estimate D2E/DX2                !
 ! D9    D(3,2,4,6)            -76.3748         estimate D2E/DX2                !
 ! D10   D(3,2,4,9)            164.7812         estimate D2E/DX2                !
 ! D11   D(2,4,5,10)           177.6111         estimate D2E/DX2                !
 ! D12   D(2,4,5,11)            63.0837         estimate D2E/DX2                !
 ! D13   D(6,4,5,10)           -61.5862         estimate D2E/DX2                !
 ! D14   D(6,4,5,11)          -176.1136         estimate D2E/DX2                !
 ! D15   D(9,4,5,10)            57.8778         estimate D2E/DX2                !
 ! D16   D(9,4,5,11)           -56.6496         estimate D2E/DX2                !
 ! D17   D(2,4,6,12)          -172.8947         estimate D2E/DX2                !
 ! D18   D(2,4,6,13)            70.8579         estimate D2E/DX2                !
 ! D19   D(5,4,6,12)            65.7525         estimate D2E/DX2                !
 ! D20   D(5,4,6,13)           -50.4949         estimate D2E/DX2                !
 ! D21   D(9,4,6,12)           -53.8665         estimate D2E/DX2                !
 ! D22   D(9,4,6,13)          -170.1139         estimate D2E/DX2                !
 --------------------------------------------------------------------------------
 Trust Radius=3.00D-01 FncErr=1.00D-07 GrdErr=1.00D-06
 Number of steps in this run=     62 maximum allowed number of steps=    100.
 GradGradGradGradGradGradGradGradGradGradGradGradGradGradGradGradGradGrad

 Leave Link  103 at Wed Aug 24 01:49:27 2022, MaxMem=    23592960 cpu:         0.5
 (Enter /public/home/users/caep010/software/Gaussian09/g09/l202.exe)
                          Input orientation:                          
 ---------------------------------------------------------------------
 Center     Atomic      Atomic             Coordinates (Angstroms)
 Number     Number       Type             X           Y           Z
 ---------------------------------------------------------------------
      1          7           0        2.145200    0.150300    0.013000
      2          6           0        0.827600    0.246500    0.554700
      3          8           0        0.674700    0.567000    1.764200
      4          6           0       -0.371400   -0.077900   -0.293200
      5          7           0       -1.427800    0.913000   -0.075900
      6          7           0       -0.852900   -1.417400    0.043300
      7          1           0        2.975600    0.364700    0.608600
      8          1           0        2.297300   -0.139300   -0.978500
      9          1           0       -0.073600   -0.062600   -1.366600
     10          1           0       -2.228200    0.682200   -0.708600
     11          1           0       -1.071000    1.845600   -0.388800
     12          1           0       -1.606500   -1.678200   -0.633500
     13          1           0       -1.289000   -1.393900    0.994600
 ---------------------------------------------------------------------
                    Distance matrix (angstroms):
                    1          2          3          4          5
     1  N    0.000000
     2  C    1.427853   0.000000
     3  O    2.324373   1.260551   0.000000
     4  C    2.545409   1.503918   2.396480   0.000000
     5  N    3.654578   2.434894   2.815349   1.464610   0.000000
     6  N    3.383372   2.419540   3.038569   1.462646   2.403223
     7  H    1.044160   2.151925   2.582727   3.494502   4.489889
     8  H    1.044066   2.158602   3.264061   2.755969   3.974719
     9  H    2.621392   2.144551   3.279978   1.114050   2.109872
    10  H    4.464331   3.335217   3.815081   2.048906   1.046049
    11  H    3.657790   2.655559   3.052490   2.049008   1.046401
    12  H    4.223343   3.322820   3.999220   2.049936   2.656533
    13  H    3.891249   2.713746   2.879849   2.057249   2.546964
                    6          7          8          9         10
     6  N    0.000000
     7  H    4.260617   0.000000
     8  H    3.549842   1.798053   0.000000
     9  H    2.104901   3.658090   2.403679   0.000000
    10  H    2.620138   5.377300   4.607370   2.372760   0.000000
    11  H    3.298704   4.422990   3.953861   2.364768   1.671790
    12  H    1.045939   5.168355   4.210332   2.344650   2.442056
    13  H    1.046760   4.629091   4.281202   2.970660   2.844851
                   11         12         13
    11  H    0.000000
    12  H    3.572647   0.000000
    13  H    3.529261   1.682956   0.000000
 Stoichiometry    C2H7N3O
 Framework group  C1[X(C2H7N3O)]
 Deg. of freedom    33
 Full point group                 C1      NOp   1
 Largest Abelian subgroup         C1      NOp   1
 Largest concise Abelian subgroup C1      NOp   1
                         Standard orientation:                         
 ---------------------------------------------------------------------
 Center     Atomic      Atomic             Coordinates (Angstroms)
 Number     Number       Type             X           Y           Z
 ---------------------------------------------------------------------
      1          7           0        1.891020   -0.548106   -0.514718
      2          6           0        0.765739    0.121429    0.054694
      3          8           0        0.948589    1.009467    0.930447
      4          6           0       -0.632425   -0.259127   -0.347904
      5          7           0       -1.445709    0.942197   -0.549081
      6          7           0       -1.221056   -1.104303    0.690617
      7          1           0        2.859732   -0.289169   -0.223482
      8          1           0        1.762736   -1.305359   -1.221956
      9          1           0       -0.593276   -0.835551   -1.300432
     10          1           0       -2.396718    0.644181   -0.866864
     11          1           0       -1.033426    1.487534   -1.341284
     12          1           0       -2.141922   -1.460388    0.345367
     13          1           0       -1.415500   -0.519320    1.536603
 ---------------------------------------------------------------------
 Rotational constants (GHZ):      5.2296968      2.6634489      2.4046443
 Leave Link  202 at Wed Aug 24 01:49:27 2022, MaxMem=    23592960 cpu:         1.5
 (Enter /public/home/users/caep010/software/Gaussian09/g09/l301.exe)
 Standard basis: GTBas3 (6D, 7F)
 Ernie: Thresh=  0.10000D-02 Tol=  0.10000D-05 Strict=F.
 There are   221 symmetry adapted cartesian basis functions of A   symmetry.
 There are   203 symmetry adapted basis functions of A   symmetry.
   203 basis functions,   313 primitive gaussians,   221 cartesian basis functions
    24 alpha electrons       24 beta electrons
       nuclear repulsion energy       246.7145342006 Hartrees.
 IExCor=  402 DFT=T Ex+Corr=B3LYP ExCW=0 ScaHFX=  0.200000
 ScaDFX=  0.800000  0.720000  1.000000  0.810000 ScalE2=  1.000000  1.000000
 IRadAn=      0 IRanWt=     -1 IRanGd=            0 ICorTp=0 IEmpDi=  4
 NAtoms=   13 NActive=   13 NUniq=   13 SFac= 1.00D+00 NAtFMM=   60 NAOKFM=F Big=F
 Integral buffers will be    131072 words long.
 Raffenetti 2 integral format.
 Two-electron integral symmetry is turned on.
 Leave Link  301 at Wed Aug 24 01:49:27 2022, MaxMem=    23592960 cpu:         2.5
 (Enter /public/home/users/caep010/software/Gaussian09/g09/l302.exe)
 NPDir=0 NMtPBC=     1 NCelOv=     1 NCel=       1 NClECP=     1 NCelD=      1
         NCelK=      1 NCelE2=     1 NClLst=     1 CellRange=     0.0.
 One-electron integrals computed using PRISM.
 PrsmSu:  requested number of processors reduced to:   3 ShMem   1 Linda.
 PrsmSu:  requested number of processors reduced to:  11 ShMem   1 Linda.
 NBasis=   203 RedAO= T EigKep=  4.11D-04  NBF=   203
 NBsUse=   203 1.00D-06 EigRej= -1.00D+00 NBFU=   203
 Precomputing XC quadrature grid using
 IXCGrd= 4 IRadAn=           0 IRanWt=          -1 IRanGd=           0 AccXCQ= 0.00D+00.
 Generated NRdTot=       0 NPtTot=           0 NUsed=           0 NTot=          32
 NSgBfM=   221   221   221   221   221 MxSgAt=    13 MxSgA2=    13.
 Leave Link  302 at Wed Aug 24 01:49:27 2022, MaxMem=    23592960 cpu:         4.2
 (Enter /public/home/users/caep010/software/Gaussian09/g09/l303.exe)
 DipDrv:  MaxL=1.
 Leave Link  303 at Wed Aug 24 01:49:27 2022, MaxMem=    23592960 cpu:         1.2
 (Enter /public/home/users/caep010/software/Gaussian09/g09/l401.exe)
 ExpMin= 1.61D-01 ExpMax= 5.48D+03 ExpMxC= 8.25D+02 IAcc=1 IRadAn=         1 AccDes= 0.00D+00
 Harris functional with IExCor=  402 and IRadAn=       1 diagonalized for initial guess.
 HarFok:  IExCor=  402 AccDes= 0.00D+00 IRadAn=         1 IDoV= 1 UseB2=F ITyADJ=14
 ICtDFT=  3500011 ScaDFX=  1.000000  1.000000  1.000000  1.000000
 CalDSu:  requested number of processors reduced to:  20 ShMem   1 Linda.
 FoFCou: FMM=F IPFlag=           0 FMFlag=      100000 FMFlg1=           0
         NFxFlg=           0 DoJE=T BraDBF=F KetDBF=T FulRan=T
         wScrn=  0.000000 ICntrl=     500 IOpCl=  0 I1Cent=   200000004 NGrid=           0
         NMat0=    1 NMatS0=      1 NMatT0=    0 NMatD0=    1 NMtDS0=    0 NMtDT0=    0
 Petite list used in FoFCou.
 CoulSu:  requested number of processors reduced to:  11 ShMem   1 Linda.
 CoulSu:  requested number of processors reduced to:  11 ShMem   1 Linda.
 CoulSu:  requested number of processors reduced to:  12 ShMem   1 Linda.
 CoulSu:  requested number of processors reduced to:  12 ShMem   1 Linda.
 Harris En= -319.926173642648    
 JPrj=0 DoOrth=F DoCkMO=F.
 Leave Link  401 at Wed Aug 24 01:49:28 2022, MaxMem=    23592960 cpu:         4.7
 (Enter /public/home/users/caep010/software/Gaussian09/g09/l502.exe)
 Closed shell SCF:
 Using DIIS extrapolation, IDIIS=  1040.
 Integral symmetry usage will be decided dynamically.
 IVT=      173757 IEndB=      173757 NGot=    23592960 MDV=    23484906
 LenX=    23484906 LenY=    23435624
 Requested convergence on RMS density matrix=1.00D-08 within 128 cycles.
 Requested convergence on MAX density matrix=1.00D-06.
 Requested convergence on             energy=1.00D-06.
 No special actions if energy rises.
 Fock matrices will be formed incrementally for  20 cycles.
 Integral accuracy reduced to 1.0D-05 until final iterations.

 Cycle   1  Pass 0  IDiag  1:
 FoFJK:  IHMeth= 1 ICntrl=       0 DoSepK=F KAlg= 0 I1Cent=   0 FoldK=F
 IRaf= 970000000 NMat=   1 IRICut=       1 DoRegI=T DoRafI=F ISym2E= 0.
 FoFCou: FMM=F IPFlag=           0 FMFlag=      100000 FMFlg1=           0
         NFxFlg=           0 DoJE=F BraDBF=F KetDBF=F FulRan=T
         wScrn=  0.000000 ICntrl=       0 IOpCl=  0 I1Cent=           0 NGrid=           0
         NMat0=    1 NMatS0=      1 NMatT0=    0 NMatD0=    1 NMtDS0=    0 NMtDT0=    0
 Symmetry not used in FoFCou.
 CoulSu:  requested number of processors reduced to:  11 ShMem   1 Linda.
 CalDSu:  requested number of processors reduced to:  20 ShMem   1 Linda.
 E= -319.699340835186    
 DIIS: error= 2.28D-02 at cycle   1 NSaved=   1.
 NSaved= 1 IEnMin= 1 EnMin= -319.699340835186     IErMin= 1 ErrMin= 2.28D-02
 ErrMax= 2.28D-02  0.00D+00 EMaxC= 1.00D-01 BMatC= 2.61D-01 BMatP= 2.61D-01
 IDIUse=3 WtCom= 7.72D-01 WtEn= 2.28D-01
 Coeff-Com:  0.100D+01
 Coeff-En:   0.100D+01
 Coeff:      0.100D+01
 Gap=     0.195 Goal=   None    Shift=    0.000
 GapD=    0.195 DampG=1.000 DampE=0.500 DampFc=0.5000 IDamp=-1.
 Damping current iteration by 5.00D-01
 RMSDP=7.40D-03 MaxDP=2.04D-01              OVMax= 3.49D-01

 Cycle   2  Pass 0  IDiag  1:
 RMSU=  3.69D-03    CP:  9.83D-01
 CoulSu:  requested number of processors reduced to:  11 ShMem   1 Linda.
 CalDSu:  requested number of processors reduced to:  20 ShMem   1 Linda.
 E= -319.721779617351     Delta-E=       -0.022438782165 Rises=F Damp=T
 DIIS: error= 1.07D-02 at cycle   2 NSaved=   2.
 NSaved= 2 IEnMin= 2 EnMin= -319.721779617351     IErMin= 2 ErrMin= 1.07D-02
 ErrMax= 1.07D-02  0.00D+00 EMaxC= 1.00D-01 BMatC= 6.19D-02 BMatP= 2.61D-01
 IDIUse=3 WtCom= 8.93D-01 WtEn= 1.07D-01
 Coeff-Com:  0.287D+00 0.713D+00
 Coeff-En:   0.455D+00 0.545D+00
 Coeff:      0.305D+00 0.695D+00
 Gap=     0.314 Goal=   None    Shift=    0.000
 RMSDP=2.45D-03 MaxDP=1.33D-01 DE=-2.24D-02 OVMax= 2.61D-01

 Cycle   3  Pass 0  IDiag  1:
 RMSU=  1.68D-03    CP:  9.75D-01  5.18D-01
 CoulSu:  requested number of processors reduced to:  11 ShMem   1 Linda.
 CalDSu:  requested number of processors reduced to:  20 ShMem   1 Linda.
 E= -319.871522514221     Delta-E=       -0.149742896869 Rises=F Damp=F
 DIIS: error= 1.01D-02 at cycle   3 NSaved=   3.
 NSaved= 3 IEnMin= 3 EnMin= -319.871522514221     IErMin= 3 ErrMin= 1.01D-02
 ErrMax= 1.01D-02  0.00D+00 EMaxC= 1.00D-01 BMatC= 5.02D-02 BMatP= 6.19D-02
 IDIUse=3 WtCom= 8.99D-01 WtEn= 1.01D-01
 Coeff-Com:  0.134D+00 0.465D+00 0.401D+00
 Coeff-En:   0.000D+00 0.000D+00 0.100D+01
 Coeff:      0.121D+00 0.418D+00 0.461D+00
 Gap=     0.255 Goal=   None    Shift=    0.000
 RMSDP=1.21D-03 MaxDP=4.72D-02 DE=-1.50D-01 OVMax= 9.65D-02

 Cycle   4  Pass 0  IDiag  1:
 RMSU=  7.07D-04    CP:  9.81D-01  6.05D-01  4.49D-01
 CoulSu:  requested number of processors reduced to:  11 ShMem   1 Linda.
 CalDSu:  requested number of processors reduced to:  20 ShMem   1 Linda.
 E= -319.909142533971     Delta-E=       -0.037620019750 Rises=F Damp=F
 DIIS: error= 3.37D-03 at cycle   4 NSaved=   4.
 NSaved= 4 IEnMin= 4 EnMin= -319.909142533971     IErMin= 4 ErrMin= 3.37D-03
 ErrMax= 3.37D-03  0.00D+00 EMaxC= 1.00D-01 BMatC= 6.45D-03 BMatP= 5.02D-02
 IDIUse=3 WtCom= 9.66D-01 WtEn= 3.37D-02
 Coeff-Com:  0.997D-02 0.553D-01 0.269D+00 0.665D+00
 Coeff-En:   0.000D+00 0.000D+00 0.133D+00 0.867D+00
 Coeff:      0.964D-02 0.534D-01 0.265D+00 0.672D+00
 Gap=     0.246 Goal=   None    Shift=    0.000
 RMSDP=3.62D-04 MaxDP=1.94D-02 DE=-3.76D-02 OVMax= 2.35D-02

 Cycle   5  Pass 0  IDiag  1:
 RMSU=  1.60D-04    CP:  9.80D-01  5.72D-01  5.85D-01  7.26D-01
 CoulSu:  requested number of processors reduced to:  11 ShMem   1 Linda.
 CalDSu:  requested number of processors reduced to:  20 ShMem   1 Linda.
 E= -319.914034584787     Delta-E=       -0.004892050816 Rises=F Damp=F
 DIIS: error= 7.21D-04 at cycle   5 NSaved=   5.
 NSaved= 5 IEnMin= 5 EnMin= -319.914034584787     IErMin= 5 ErrMin= 7.21D-04
 ErrMax= 7.21D-04  0.00D+00 EMaxC= 1.00D-01 BMatC= 2.00D-04 BMatP= 6.45D-03
 IDIUse=3 WtCom= 9.93D-01 WtEn= 7.21D-03
 Coeff-Com: -0.428D-03 0.245D-02 0.106D+00 0.317D+00 0.575D+00
 Coeff-En:   0.000D+00 0.000D+00 0.000D+00 0.000D+00 0.100D+01
 Coeff:     -0.425D-03 0.244D-02 0.105D+00 0.315D+00 0.578D+00
 Gap=     0.246 Goal=   None    Shift=    0.000
 RMSDP=8.83D-05 MaxDP=3.28D-03 DE=-4.89D-03 OVMax= 4.56D-03

 Cycle   6  Pass 0  IDiag  1:
 RMSU=  4.12D-05    CP:  9.80D-01  5.81D-01  5.86D-01  7.65D-01  5.99D-01
 CoulSu:  requested number of processors reduced to:  11 ShMem   1 Linda.
 CalDSu:  requested number of processors reduced to:  20 ShMem   1 Linda.
 E= -319.914202435875     Delta-E=       -0.000167851088 Rises=F Damp=F
 DIIS: error= 2.72D-04 at cycle   6 NSaved=   6.
 NSaved= 6 IEnMin= 6 EnMin= -319.914202435875     IErMin= 6 ErrMin= 2.72D-04
 ErrMax= 2.72D-04  0.00D+00 EMaxC= 1.00D-01 BMatC= 2.61D-05 BMatP= 2.00D-04
 IDIUse=3 WtCom= 9.97D-01 WtEn= 2.72D-03
 Coeff-Com: -0.626D-03-0.351D-02 0.338D-01 0.103D+00 0.314D+00 0.554D+00
 Coeff-En:   0.000D+00 0.000D+00 0.000D+00 0.000D+00 0.540D-01 0.946D+00
 Coeff:     -0.624D-03-0.351D-02 0.337D-01 0.102D+00 0.313D+00 0.555D+00
 Gap=     0.246 Goal=   None    Shift=    0.000
 RMSDP=2.59D-05 MaxDP=1.24D-03 DE=-1.68D-04 OVMax= 1.13D-03

 Cycle   7  Pass 0  IDiag  1:
 RMSU=  1.24D-05    CP:  9.80D-01  5.77D-01  5.87D-01  7.61D-01  6.63D-01
                    CP:  6.92D-01
 CoulSu:  requested number of processors reduced to:  11 ShMem   1 Linda.
 CalDSu:  requested number of processors reduced to:  20 ShMem   1 Linda.
 E= -319.914225710551     Delta-E=       -0.000023274676 Rises=F Damp=F
 DIIS: error= 4.28D-05 at cycle   7 NSaved=   7.
 NSaved= 7 IEnMin= 7 EnMin= -319.914225710551     IErMin= 7 ErrMin= 4.28D-05
 ErrMax= 4.28D-05  0.00D+00 EMaxC= 1.00D-01 BMatC= 1.31D-06 BMatP= 2.61D-05
 IDIUse=1 WtCom= 1.00D+00 WtEn= 0.00D+00
 Coeff-Com: -0.394D-04-0.181D-02 0.890D-02 0.238D-01 0.109D+00 0.243D+00
 Coeff-Com:  0.618D+00
 Coeff:     -0.394D-04-0.181D-02 0.890D-02 0.238D-01 0.109D+00 0.243D+00
 Coeff:      0.618D+00
 Gap=     0.247 Goal=   None    Shift=    0.000
 RMSDP=6.52D-06 MaxDP=1.90D-04 DE=-2.33D-05 OVMax= 2.81D-04

 Initial convergence to 1.0D-05 achieved.  Increase integral accuracy.
 Cycle   8  Pass 1  IDiag  1:
 CoulSu:  requested number of processors reduced to:  11 ShMem   1 Linda.
 CalDSu:  requested number of processors reduced to:  20 ShMem   1 Linda.
 E= -319.914225406112     Delta-E=        0.000000304439 Rises=F Damp=F
 DIIS: error= 2.03D-05 at cycle   1 NSaved=   1.
 NSaved= 1 IEnMin= 1 EnMin= -319.914225406112     IErMin= 1 ErrMin= 2.03D-05
 ErrMax= 2.03D-05  0.00D+00 EMaxC= 1.00D-01 BMatC= 2.35D-07 BMatP= 2.35D-07
 IDIUse=1 WtCom= 1.00D+00 WtEn= 0.00D+00
 Coeff-Com:  0.100D+01
 Coeff:      0.100D+01
 Gap=     0.247 Goal=   None    Shift=    0.000
 RMSDP=6.52D-06 MaxDP=1.90D-04 DE= 3.04D-07 OVMax= 2.01D-04

 Cycle   9  Pass 1  IDiag  1:
 RMSU=  6.35D-06    CP:  1.00D+00
 CoulSu:  requested number of processors reduced to:  11 ShMem   1 Linda.
 CalDSu:  requested number of processors reduced to:  20 ShMem   1 Linda.
 E= -319.914225251692     Delta-E=        0.000000154420 Rises=F Damp=F
 DIIS: error= 3.28D-05 at cycle   2 NSaved=   2.
 NSaved= 2 IEnMin= 1 EnMin= -319.914225406112     IErMin= 1 ErrMin= 2.03D-05
 ErrMax= 3.28D-05  0.00D+00 EMaxC= 1.00D-01 BMatC= 4.03D-07 BMatP= 2.35D-07
 IDIUse=1 WtCom= 1.00D+00 WtEn= 0.00D+00
 Coeff-Com:  0.577D+00 0.423D+00
 Coeff:      0.577D+00 0.423D+00
 Gap=     0.247 Goal=   None    Shift=    0.000
 RMSDP=3.19D-06 MaxDP=1.50D-04 DE= 1.54D-07 OVMax= 2.29D-04

 Cycle  10  Pass 1  IDiag  1:
 RMSU=  2.44D-06    CP:  1.00D+00  6.80D-01
 CoulSu:  requested number of processors reduced to:  11 ShMem   1 Linda.
 CalDSu:  requested number of processors reduced to:  20 ShMem   1 Linda.
 E= -319.914225556759     Delta-E=       -0.000000305067 Rises=F Damp=F
 DIIS: error= 9.02D-06 at cycle   3 NSaved=   3.
 NSaved= 3 IEnMin= 3 EnMin= -319.914225556759     IErMin= 3 ErrMin= 9.02D-06
 ErrMax= 9.02D-06  0.00D+00 EMaxC= 1.00D-01 BMatC= 4.30D-08 BMatP= 2.35D-07
 IDIUse=1 WtCom= 1.00D+00 WtEn= 0.00D+00
 Coeff-Com:  0.173D+00 0.252D+00 0.574D+00
 Coeff:      0.173D+00 0.252D+00 0.574D+00
 Gap=     0.247 Goal=   None    Shift=    0.000
 RMSDP=1.34D-06 MaxDP=5.48D-05 DE=-3.05D-07 OVMax= 9.00D-05

 Cycle  11  Pass 1  IDiag  1:
 RMSU=  9.84D-07    CP:  1.00D+00  7.49D-01  6.79D-01
 CoulSu:  requested number of processors reduced to:  11 ShMem   1 Linda.
 CalDSu:  requested number of processors reduced to:  20 ShMem   1 Linda.
 E= -319.914225580791     Delta-E=       -0.000000024032 Rises=F Damp=F
 DIIS: error= 5.55D-06 at cycle   4 NSaved=   4.
 NSaved= 4 IEnMin= 4 EnMin= -319.914225580791     IErMin= 4 ErrMin= 5.55D-06
 ErrMax= 5.55D-06  0.00D+00 EMaxC= 1.00D-01 BMatC= 1.35D-08 BMatP= 4.30D-08
 IDIUse=1 WtCom= 1.00D+00 WtEn= 0.00D+00
 Coeff-Com: -0.261D-02 0.907D-01 0.410D+00 0.502D+00
 Coeff:     -0.261D-02 0.907D-01 0.410D+00 0.502D+00
 Gap=     0.247 Goal=   None    Shift=    0.000
 RMSDP=4.83D-07 MaxDP=2.17D-05 DE=-2.40D-08 OVMax= 3.19D-05

 Cycle  12  Pass 1  IDiag  1:
 RMSU=  1.52D-07    CP:  1.00D+00  7.57D-01  7.53D-01  5.74D-01
 CoulSu:  requested number of processors reduced to:  11 ShMem   1 Linda.
 CalDSu:  requested number of processors reduced to:  20 ShMem   1 Linda.
 E= -319.914225590849     Delta-E=       -0.000000010058 Rises=F Damp=F
 DIIS: error= 1.07D-06 at cycle   5 NSaved=   5.
 NSaved= 5 IEnMin= 5 EnMin= -319.914225590849     IErMin= 5 ErrMin= 1.07D-06
 ErrMax= 1.07D-06  0.00D+00 EMaxC= 1.00D-01 BMatC= 2.96D-10 BMatP= 1.35D-08
 IDIUse=1 WtCom= 1.00D+00 WtEn= 0.00D+00
 Coeff-Com: -0.684D-02 0.396D-01 0.195D+00 0.265D+00 0.508D+00
 Coeff:     -0.684D-02 0.396D-01 0.195D+00 0.265D+00 0.508D+00
 Gap=     0.247 Goal=   None    Shift=    0.000
 RMSDP=8.03D-08 MaxDP=2.81D-06 DE=-1.01D-08 OVMax= 5.51D-06

 Cycle  13  Pass 1  IDiag  1:
 RMSU=  4.75D-08    CP:  1.00D+00  7.56D-01  7.62D-01  5.64D-01  6.07D-01
 CoulSu:  requested number of processors reduced to:  11 ShMem   1 Linda.
 CalDSu:  requested number of processors reduced to:  20 ShMem   1 Linda.
 E= -319.914225591110     Delta-E=       -0.000000000262 Rises=F Damp=F
 DIIS: error= 2.05D-07 at cycle   6 NSaved=   6.
 NSaved= 6 IEnMin= 6 EnMin= -319.914225591110     IErMin= 6 ErrMin= 2.05D-07
 ErrMax= 2.05D-07  0.00D+00 EMaxC= 1.00D-01 BMatC= 1.40D-11 BMatP= 2.96D-10
 IDIUse=1 WtCom= 1.00D+00 WtEn= 0.00D+00
 Coeff-Com: -0.287D-02 0.117D-01 0.561D-01 0.834D-01 0.234D+00 0.618D+00
 Coeff:     -0.287D-02 0.117D-01 0.561D-01 0.834D-01 0.234D+00 0.618D+00
 Gap=     0.247 Goal=   None    Shift=    0.000
 RMSDP=2.10D-08 MaxDP=9.80D-07 DE=-2.62D-10 OVMax= 9.11D-07

 Cycle  14  Pass 1  IDiag  1:
 RMSU=  1.54D-08    CP:  1.00D+00  7.57D-01  7.61D-01  5.71D-01  6.56D-01
                    CP:  8.21D-01
 CoulSu:  requested number of processors reduced to:  11 ShMem   1 Linda.
 CalDSu:  requested number of processors reduced to:  20 ShMem   1 Linda.
 E= -319.914225591128     Delta-E=       -0.000000000018 Rises=F Damp=F
 DIIS: error= 4.48D-08 at cycle   7 NSaved=   7.
 NSaved= 7 IEnMin= 7 EnMin= -319.914225591128     IErMin= 7 ErrMin= 4.48D-08
 ErrMax= 4.48D-08  0.00D+00 EMaxC= 1.00D-01 BMatC= 1.39D-12 BMatP= 1.40D-11
 IDIUse=1 WtCom= 1.00D+00 WtEn= 0.00D+00
 Coeff-Com: -0.584D-03 0.146D-02 0.456D-02 0.114D-01 0.536D-01 0.266D+00
 Coeff-Com:  0.664D+00
 Coeff:     -0.584D-03 0.146D-02 0.456D-02 0.114D-01 0.536D-01 0.266D+00
 Coeff:      0.664D+00
 Gap=     0.247 Goal=   None    Shift=    0.000
 RMSDP=7.19D-09 MaxDP=2.30D-07 DE=-1.76D-11 OVMax= 2.53D-07

 SCF Done:  E(RB3LYP) =  -319.914225591     A.U. after   14 cycles
            NFock= 14  Conv=0.72D-08     -V/T= 2.0087
 KE= 3.171698201464D+02 PE=-1.241515440741D+03 EE= 3.577168608032D+02
 Leave Link  502 at Wed Aug 24 01:49:36 2022, MaxMem=    23592960 cpu:       126.9
 (Enter /public/home/users/caep010/software/Gaussian09/g09/l601.exe)
 Copying SCF densities to generalized density rwf, IOpCl= 0 IROHF=0.

 **********************************************************************

            Population analysis using the SCF density.

 **********************************************************************

 Orbital symmetries:
       Occupied  (A) (A) (A) (A) (A) (A) (A) (A) (A) (A) (A) (A)
                 (A) (A) (A) (A) (A) (A) (A) (A) (A) (A) (A) (A)
       Virtual   (A) (A) (A) (A) (A) (A) (A) (A) (A) (A) (A) (A)
                 (A) (A) (A) (A) (A) (A) (A) (A) (A) (A) (A) (A)
                 (A) (A) (A) (A) (A) (A) (A) (A) (A) (A) (A) (A)
                 (A) (A) (A) (A) (A) (A) (A) (A) (A) (A) (A) (A)
                 (A) (A) (A) (A) (A) (A) (A) (A) (A) (A) (A) (A)
                 (A) (A) (A) (A) (A) (A) (A) (A) (A) (A) (A) (A)
                 (A) (A) (A) (A) (A) (A) (A) (A) (A) (A) (A) (A)
                 (A) (A) (A) (A) (A) (A) (A) (A) (A) (A) (A) (A)
                 (A) (A) (A) (A) (A) (A) (A) (A) (A) (A) (A) (A)
                 (A) (A) (A) (A) (A) (A) (A) (A) (A) (A) (A) (A)
                 (A) (A) (A) (A) (A) (A) (A) (A) (A) (A) (A) (A)
                 (A) (A) (A) (A) (A) (A) (A) (A) (A) (A) (A) (A)
                 (A) (A) (A) (A) (A) (A) (A) (A) (A) (A) (A) (A)
                 (A) (A) (A) (A) (A) (A) (A) (A) (A) (A) (A) (A)
                 (A) (A) (A) (A) (A) (A) (A) (A) (A) (A) (A)
 The electronic state is 1-A.
 Alpha  occ. eigenvalues --  -19.09928 -14.35631 -14.32140 -14.31766 -10.28495
 Alpha  occ. eigenvalues --  -10.25085  -1.00384  -0.91457  -0.87403  -0.82992
 Alpha  occ. eigenvalues --   -0.67939  -0.55964  -0.52112  -0.51160  -0.47961
 Alpha  occ. eigenvalues --   -0.45392  -0.42632  -0.40851  -0.38046  -0.36430
 Alpha  occ. eigenvalues --   -0.25941  -0.25554  -0.24496  -0.23776
 Alpha virt. eigenvalues --    0.00879   0.05719   0.06932   0.11141   0.12107
 Alpha virt. eigenvalues --    0.13962   0.15639   0.17932   0.22056   0.22919
 Alpha virt. eigenvalues --    0.25146   0.32185   0.36624   0.44596   0.46620
 Alpha virt. eigenvalues --    0.48749   0.51568   0.54132   0.54985   0.58079
 Alpha virt. eigenvalues --    0.59615   0.61586   0.63666   0.66586   0.68930
 Alpha virt. eigenvalues --    0.70090   0.70934   0.72624   0.73340   0.75997
 Alpha virt. eigenvalues --    0.77500   0.78662   0.79813   0.81745   0.83450
 Alpha virt. eigenvalues --    0.85755   0.86588   0.87357   0.90927   0.93241
 Alpha virt. eigenvalues --    0.98694   0.99388   1.01472   1.03349   1.05884
 Alpha virt. eigenvalues --    1.13532   1.14109   1.20998   1.23942   1.26859
 Alpha virt. eigenvalues --    1.35227   1.36719   1.37313   1.39699   1.43208
 Alpha virt. eigenvalues --    1.49871   1.51942   1.53040   1.56045   1.61208
 Alpha virt. eigenvalues --    1.66255   1.68242   1.70889   1.78183   1.79527
 Alpha virt. eigenvalues --    1.81340   1.82600   1.84899   1.88328   1.90087
 Alpha virt. eigenvalues --    1.97190   2.02704   2.08671   2.13134   2.19619
 Alpha virt. eigenvalues --    2.22102   2.31703   2.39033   2.43669   2.44775
 Alpha virt. eigenvalues --    2.46080   2.54058   2.59417   2.66631   2.73223
 Alpha virt. eigenvalues --    2.73325   2.77639   2.81347   2.83410   2.86061
 Alpha virt. eigenvalues --    2.86832   2.90425   2.96690   2.97188   2.99797
 Alpha virt. eigenvalues --    3.02825   3.06935   3.08003   3.11033   3.20826
 Alpha virt. eigenvalues --    3.22302   3.32826   3.33482   3.40100   3.43982
 Alpha virt. eigenvalues --    3.50146   3.62246   3.69297   3.70868   3.79706
 Alpha virt. eigenvalues --    3.86438   3.88196   3.97424   3.99386   4.02798
 Alpha virt. eigenvalues --    4.07241   4.08634   4.10371   4.12429   4.14373
 Alpha virt. eigenvalues --    4.16725   4.18681   4.20558   4.24793   4.26910
 Alpha virt. eigenvalues --    4.28235   4.30535   4.33439   4.34695   4.37811
 Alpha virt. eigenvalues --    4.39545   4.41282   4.42914   4.44360   4.47328
 Alpha virt. eigenvalues --    4.49170   4.50192   4.51124   4.55275   4.60160
 Alpha virt. eigenvalues --    4.62740   4.64121   4.67207   4.69475   4.71718
 Alpha virt. eigenvalues --    4.75137   4.80007   4.81512   4.83616   4.87549
 Alpha virt. eigenvalues --    4.90793   4.95544   5.02224   5.03739   5.07044
 Alpha virt. eigenvalues --    5.12252   5.13982   5.16179   5.24030   5.33695
 Alpha virt. eigenvalues --    5.37803   5.51365   5.54872   5.55891   5.64643
 Alpha virt. eigenvalues --    5.80349   6.02049   6.37575   6.42447   6.80641
 Alpha virt. eigenvalues --    8.87275  10.17284  10.45151  11.34690  11.42526
 Alpha virt. eigenvalues --   11.47216  12.47851  13.06578  13.46999
          Condensed to atoms (all electrons):
               1          2          3          4          5          6
     1  N    6.705766   0.361854  -0.068530  -0.070161  -0.000060  -0.001974
     2  C    0.361854   4.288362   0.757048   0.234767  -0.030512  -0.007652
     3  O   -0.068530   0.757048   7.759062  -0.081070  -0.001340  -0.003500
     4  C   -0.070161   0.234767  -0.081070   5.032354   0.353435   0.364023
     5  N   -0.000060  -0.030512  -0.001340   0.353435   6.676080  -0.074350
     6  N   -0.001974  -0.007652  -0.003500   0.364023  -0.074350   6.593581
     7  H    0.319697  -0.014565   0.006437   0.006210  -0.000076  -0.000116
     8  H    0.323158  -0.023595   0.002973   0.005302  -0.000125  -0.000182
     9  H    0.002498  -0.043449   0.003043   0.352080  -0.052341  -0.037991
    10  H   -0.000104   0.005108   0.000206  -0.040155   0.311395   0.005239
    11  H    0.000116   0.003577   0.000953  -0.038216   0.309633   0.007016
    12  H   -0.000109   0.004012   0.000019  -0.049529  -0.002094   0.333891
    13  H    0.000415  -0.004131   0.005947  -0.049483   0.004331   0.330829
               7          8          9         10         11         12
     1  N    0.319697   0.323158   0.002498  -0.000104   0.000116  -0.000109
     2  C   -0.014565  -0.023595  -0.043449   0.005108   0.003577   0.004012
     3  O    0.006437   0.002973   0.003043   0.000206   0.000953   0.000019
     4  C    0.006210   0.005302   0.352080  -0.040155  -0.038216  -0.049529
     5  N   -0.000076  -0.000125  -0.052341   0.311395   0.309633  -0.002094
     6  N   -0.000116  -0.000182  -0.037991   0.005239   0.007016   0.333891
     7  H    0.431188  -0.022710  -0.000265   0.000004  -0.000011   0.000008
     8  H   -0.022710   0.452971   0.003813  -0.000014  -0.000068  -0.000006
     9  H   -0.000265   0.003813   0.723091  -0.006632  -0.003150  -0.007466
    10  H    0.000004  -0.000014  -0.006632   0.527690  -0.023959   0.004847
    11  H   -0.000011  -0.000068  -0.003150  -0.023959   0.521056  -0.000113
    12  H    0.000008  -0.000006  -0.007466   0.004847  -0.000113   0.519394
    13  H   -0.000005  -0.000015   0.007639  -0.000222  -0.000097  -0.028425
              13
     1  N    0.000415
     2  C   -0.004131
     3  O    0.005947
     4  C   -0.049483
     5  N    0.004331
     6  N    0.330829
     7  H   -0.000005
     8  H   -0.000015
     9  H    0.007639
    10  H   -0.000222
    11  H   -0.000097
    12  H   -0.028425
    13  H    0.483498
 Mulliken charges:
               1
     1  N   -0.572566
     2  C    0.469176
     3  O   -0.381246
     4  C   -0.019558
     5  N   -0.493977
     6  N   -0.508813
     7  H    0.274205
     8  H    0.258499
     9  H    0.059131
    10  H    0.216597
    11  H    0.223263
    12  H    0.225571
    13  H    0.249719
 Sum of Mulliken charges =  -0.00000
 Mulliken charges with hydrogens summed into heavy atoms:
               1
     1  N   -0.039862
     2  C    0.469176
     3  O   -0.381246
     4  C    0.039573
     5  N   -0.054117
     6  N   -0.033523
 Electronic spatial extent (au):  <R**2>=            590.6380
 Charge=             -0.0000 electrons
 Dipole moment (field-independent basis, Debye):
    X=             -0.6327    Y=             -2.2233    Z=             -3.5921  Tot=              4.2716
 Quadrupole moment (field-independent basis, Debye-Ang):
   XX=            -25.9755   YY=            -39.9782   ZZ=            -34.3719
   XY=             -1.3445   XZ=             -1.7327   YZ=             -0.8510
 Traceless Quadrupole moment (field-independent basis, Debye-Ang):
   XX=              7.4664   YY=             -6.5364   ZZ=             -0.9300
   XY=             -1.3445   XZ=             -1.7327   YZ=             -0.8510
 Octapole moment (field-independent basis, Debye-Ang**2):
  XXX=              7.6105  YYY=              1.4684  ZZZ=             -0.2971  XYY=              1.5030
  XXY=            -10.0038  XXZ=             -5.1182  XZZ=             -4.5561  YZZ=             -0.5399
  YYZ=            -10.1025  XYZ=              2.8420
 Hexadecapole moment (field-independent basis, Debye-Ang**3):
 XXXX=           -302.9240 YYYY=           -185.1872 ZZZZ=           -121.9780 XXXY=              3.1905
 XXXZ=             -0.2099 YYYX=             -1.1616 YYYZ=              4.0317 ZZZX=             -5.5095
 ZZZY=             -0.0427 XXYY=            -95.1102 XXZZ=            -84.0622 YYZZ=            -48.1308
 XXYZ=             -0.3785 YYXZ=             -1.9009 ZZXY=             -8.4014
 N-N= 2.467145342006D+02 E-N=-1.241515453582D+03  KE= 3.171698201464D+02
 PrsmSu:  requested number of processors reduced to:  11 ShMem   1 Linda.
 No NMR shielding tensors so no spin-rotation constants.
 Leave Link  601 at Wed Aug 24 01:49:36 2022, MaxMem=    23592960 cpu:         2.8
 (Enter /public/home/users/caep010/software/Gaussian09/g09/l701.exe)
 Compute integral first derivatives.
 ... and contract with generalized density number  0.
 PrsmSu:  requested number of processors reduced to:   3 ShMem   1 Linda.
 PrsmSu:  requested number of processors reduced to:   6 ShMem   1 Linda.
 Leave Link  701 at Wed Aug 24 01:49:36 2022, MaxMem=    23592960 cpu:         2.3
 (Enter /public/home/users/caep010/software/Gaussian09/g09/l702.exe)
 L702 exits ... SP integral derivatives will be done elsewhere.
 Leave Link  702 at Wed Aug 24 01:49:37 2022, MaxMem=    23592960 cpu:         0.6
 (Enter /public/home/users/caep010/software/Gaussian09/g09/l703.exe)
 Compute integral first derivatives, UseDBF=F ICtDFT=           0.
 Integral derivatives from FoFJK, PRISM(SPDF).
 Calling FoFJK, ICntrl=      2127 FMM=F ISym2X=0 I1Cent= 0 IOpClX= 0 NMat=1 NMatS=1 NMatT=0.
 FoFJK:  IHMeth= 1 ICntrl=    2127 DoSepK=F KAlg= 0 I1Cent=   0 FoldK=F
 IRaf=         0 NMat=   1 IRICut=       1 DoRegI=T DoRafI=F ISym2E= 0.
 FoFCou: FMM=F IPFlag=           0 FMFlag=      100000 FMFlg1=         800
         NFxFlg=           0 DoJE=F BraDBF=F KetDBF=F FulRan=T
         wScrn=  0.000000 ICntrl=    2127 IOpCl=  0 I1Cent=           0 NGrid=           0
         NMat0=    1 NMatS0=      1 NMatT0=    0 NMatD0=    1 NMtDS0=    0 NMtDT0=    0
 Symmetry not used in FoFCou.
 CoulSu:  requested number of processors reduced to:   6 ShMem   1 Linda.
 CalDSu:  requested number of processors reduced to:  17 ShMem   1 Linda.
 Leave Link  703 at Wed Aug 24 01:49:40 2022, MaxMem=    23592960 cpu:        25.4
 (Enter /public/home/users/caep010/software/Gaussian09/g09/l716.exe)
 Dipole        =-2.48930557D-01-8.74719683D-01-1.41324576D+00
 ***** Axes restored to original set *****
 -------------------------------------------------------------------
 Center     Atomic                   Forces (Hartrees/Bohr)
 Number     Number              X              Y              Z
 -------------------------------------------------------------------
      1        7          -0.023340189   -0.001286262   -0.009146937
      2        6           0.046253013    0.017855246    0.073000527
      3        8           0.008173814   -0.015252999   -0.060981486
      4        6          -0.014252984   -0.005772579   -0.024726336
      5        7          -0.005987933    0.021095476   -0.013722855
      6        7          -0.015443302   -0.006187662   -0.000193058
      7        1          -0.027991511   -0.006760460   -0.014644157
      8        1          -0.003262802    0.008340555    0.029456932
      9        1           0.001996887   -0.009098084    0.006050993
     10        1           0.018319866    0.005034081    0.011653484
     11        1          -0.010475526   -0.016213941    0.007597524
     12        1           0.015708162    0.005290457    0.016377242
     13        1           0.010302505    0.002956173   -0.020721874
 -------------------------------------------------------------------
 Cartesian Forces:  Max     0.073000527 RMS     0.021696456
 Leave Link  716 at Wed Aug 24 01:49:40 2022, MaxMem=    23592960 cpu:         0.7
 (Enter /public/home/users/caep010/software/Gaussian09/g09/l103.exe)

 GradGradGradGradGradGradGradGradGradGradGradGradGradGradGradGradGradGrad
 Berny optimization.
 FormGI is forming the generalized inverse of G from B-inverse, IUseBI=4.
 Internal  Forces:  Max     0.063380790 RMS     0.015290460
 Search for a local minimum.
 Step number   1 out of a maximum of   62
 All quantities printed in internal units (Hartrees-Bohrs-Radians)
 RMS Force = .15290D-01 SwitMx=.10000D-02 MixMth= 1
 Mixed Optimization -- RFO/linear search
 Second derivative matrix not updated -- first step.
 ITU=  0
     Eigenvalues ---    0.00714   0.00837   0.00863   0.00960   0.01323
     Eigenvalues ---    0.01323   0.04637   0.04782   0.05531   0.06370
     Eigenvalues ---    0.06502   0.16000   0.16000   0.16000   0.16000
     Eigenvalues ---    0.16000   0.16000   0.18148   0.18329   0.24987
     Eigenvalues ---    0.25000   0.31970   0.32175   0.36393   0.36635
     Eigenvalues ---    0.40329   0.40379   0.40429   0.40445   0.40697
     Eigenvalues ---    0.40710   0.41299   0.79457
 RFO step:  Lambda=-2.68936504D-02 EMin= 7.14113568D-03
 Linear search not attempted -- first point.
 Iteration  1 RMS(Cart)=  0.06877876 RMS(Int)=  0.00114599
 Iteration  2 RMS(Cart)=  0.00136033 RMS(Int)=  0.00042649
 Iteration  3 RMS(Cart)=  0.00000189 RMS(Int)=  0.00042649
 Iteration  4 RMS(Cart)=  0.00000000 RMS(Int)=  0.00042649
 ITry= 1 IFail=0 DXMaxC= 2.32D-01 DCOld= 1.00D+10 DXMaxT= 3.00D-01 DXLimC= 3.00D+00 Rises=F
 Variable       Old X    -DE/DX   Delta X   Delta X   Delta X     New X
                                 (Linear)    (Quad)   (Total)
    R1        2.69825  -0.05255   0.00000  -0.11946  -0.11946   2.57879
    R2        1.97318  -0.03200   0.00000  -0.07376  -0.07376   1.89942
    R3        1.97300  -0.03076   0.00000  -0.07089  -0.07089   1.90211
    R4        2.38210  -0.06338   0.00000  -0.07716  -0.07716   2.30494
    R5        2.84199   0.01046   0.00000   0.03019   0.03019   2.87218
    R6        2.76771   0.00619   0.00000   0.01584   0.01584   2.78355
    R7        2.76400  -0.00641   0.00000  -0.01629  -0.01629   2.74771
    R8        2.10525  -0.00542   0.00000  -0.01555  -0.01555   2.08970
    R9        1.97675  -0.02218   0.00000  -0.05143  -0.05143   1.92531
   R10        1.97741  -0.02030   0.00000  -0.04713  -0.04713   1.93029
   R11        1.97654  -0.02323   0.00000  -0.05386  -0.05386   1.92267
   R12        1.97809  -0.02306   0.00000  -0.05361  -0.05361   1.92448
    A1        2.09860  -0.00644   0.00000  -0.03451  -0.03464   2.06396
    A2        2.10994   0.00442   0.00000   0.02361   0.02348   2.13342
    A3        2.07463   0.00202   0.00000   0.01074   0.01062   2.08525
    A4        2.08642   0.01018   0.00000   0.03689   0.03687   2.12329
    A5        2.10280  -0.02161   0.00000  -0.07793  -0.07795   2.02485
    A6        2.09336   0.01144   0.00000   0.04143   0.04141   2.13477
    A7        1.92352  -0.00577   0.00000  -0.02699  -0.02634   1.89719
    A8        1.90740  -0.00492   0.00000  -0.03604  -0.03605   1.87136
    A9        1.90408   0.00246   0.00000   0.00279   0.00207   1.90614
   A10        1.92626   0.00910   0.00000   0.04318   0.04261   1.96886
   A11        1.90336   0.00405   0.00000   0.05328   0.05344   1.95681
   A12        1.89890  -0.00495   0.00000  -0.03657  -0.03803   1.86086
   A13        1.88903  -0.00317   0.00000  -0.01660  -0.01652   1.87250
   A14        1.88880   0.00766   0.00000   0.04133   0.04140   1.93021
   A15        1.85114  -0.00182   0.00000  -0.00891  -0.00874   1.84240
   A16        1.89302   0.00266   0.00000   0.01134   0.01133   1.90435
   A17        1.90252  -0.00668   0.00000  -0.03856  -0.03857   1.86395
   A18        1.86867   0.00075   0.00000  -0.00221  -0.00224   1.86643
    D1       -0.02380   0.00117   0.00000   0.02961   0.02960   0.00580
    D2       -3.12800   0.00068   0.00000   0.01650   0.01651  -3.11149
    D3        3.11156  -0.00002   0.00000  -0.00010  -0.00011   3.11146
    D4        0.00736  -0.00051   0.00000  -0.01321  -0.01320  -0.00584
    D5       -2.39246   0.00087   0.00000  -0.00159  -0.00137  -2.39384
    D6        1.77106  -0.00358   0.00000  -0.01475  -0.01508   1.75598
    D7       -0.30316   0.00386   0.00000   0.04910   0.04924  -0.25391
    D8        0.78667   0.00040   0.00000  -0.01464  -0.01444   0.77223
    D9       -1.33299  -0.00404   0.00000  -0.02780  -0.02815  -1.36114
   D10        2.87598   0.00339   0.00000   0.03605   0.03618   2.91215
   D11        3.09990   0.00136   0.00000  -0.00153  -0.00159   3.09831
   D12        1.10102   0.00119   0.00000  -0.00376  -0.00372   1.09729
   D13       -1.07488  -0.00264   0.00000  -0.03606  -0.03693  -1.11181
   D14       -3.07376  -0.00281   0.00000  -0.03830  -0.03907  -3.11283
   D15        1.01016  -0.00067   0.00000  -0.02164  -0.02085   0.98931
   D16       -0.98872  -0.00084   0.00000  -0.02387  -0.02299  -1.01171
   D17       -3.01758  -0.00162   0.00000  -0.01672  -0.01745  -3.03503
   D18        1.23670  -0.00035   0.00000   0.00059  -0.00015   1.23655
   D19        1.14760   0.00295   0.00000   0.01269   0.01252   1.16012
   D20       -0.88130   0.00421   0.00000   0.03000   0.02982  -0.85149
   D21       -0.94015  -0.00444   0.00000  -0.05591  -0.05499  -0.99514
   D22       -2.96905  -0.00317   0.00000  -0.03860  -0.03770  -3.00674
         Item               Value     Threshold  Converged?
 Maximum Force            0.063381     0.000450     NO 
 RMS     Force            0.015290     0.000300     NO 
 Maximum Displacement     0.232173     0.001800     NO 
 RMS     Displacement     0.068794     0.001200     NO 
 Predicted change in Energy=-1.454491D-02
 Lowest energy point so far.  Saving SCF results.
 GradGradGradGradGradGradGradGradGradGradGradGradGradGradGradGradGradGrad

 Leave Link  103 at Wed Aug 24 01:49:40 2022, MaxMem=    23592960 cpu:         2.3
 (Enter /public/home/users/caep010/software/Gaussian09/g09/l202.exe)
                          Input orientation:                          
 ---------------------------------------------------------------------
 Center     Atomic      Atomic             Coordinates (Angstroms)
 Number     Number       Type             X           Y           Z
 ---------------------------------------------------------------------
      1          7           0        2.055283    0.138144    0.008777
      2          6           0        0.824281    0.255041    0.586012
      3          8           0        0.693448    0.577787    1.754960
      4          6           0       -0.363298   -0.072141   -0.304320
      5          7           0       -1.412214    0.937977   -0.082645
      6          7           0       -0.796725   -1.418288    0.033637
      7          1           0        2.865544    0.320895    0.574781
      8          1           0        2.174439   -0.152132   -0.947620
      9          1           0       -0.030470   -0.102315   -1.358434
     10          1           0       -2.178846    0.722866   -0.718272
     11          1           0       -1.081673    1.865072   -0.355823
     12          1           0       -1.526247   -1.705947   -0.614609
     13          1           0       -1.223523   -1.366959    0.956856
 ---------------------------------------------------------------------
                    Distance matrix (angstroms):
                    1          2          3          4          5
     1  N    0.000000
     2  C    1.364636   0.000000
     3  O    2.257661   1.219722   0.000000
     4  C    2.447811   1.519895   2.404111   0.000000
     5  N    3.559723   2.432162   2.817861   1.472991   0.000000
     6  N    3.249161   2.394328   3.027851   1.454025   2.438101
     7  H    1.005128   2.042356   2.485320   3.369379   4.371752
     8  H    1.006555   2.083445   3.167026   2.619226   3.847155
     9  H    2.505484   2.153873   3.267998   1.105821   2.149200
    10  H    4.335706   3.307383   3.793151   2.024748   1.018832
    11  H    3.599403   2.666816   3.043609   2.066762   1.021464
    12  H    4.076351   3.288153   3.969552   2.029299   2.699320
    13  H    3.730248   2.638543   2.844957   2.001775   2.535527
                    6          7          8          9         10
     6  N    0.000000
     7  H    4.090209   0.000000
     8  H    3.375475   1.737551   0.000000
     9  H    2.063200   3.507609   2.243407   0.000000
    10  H    2.657097   5.222972   4.446270   2.388775   0.000000
    11  H    3.318634   4.339473   3.875771   2.445580   1.624744
    12  H    1.017435   4.981021   4.027446   2.315656   2.517094
    13  H    1.018393   4.440191   4.080316   2.895387   2.843600
                   11         12         13
    11  H    0.000000
    12  H    3.607879   0.000000
    13  H    3.491313   1.635866   0.000000
 Stoichiometry    C2H7N3O
 Framework group  C1[X(C2H7N3O)]
 Deg. of freedom    33
 Full point group                 C1      NOp   1
 RotChk:  IX=0 Diff= 7.46D-02
 Largest Abelian subgroup         C1      NOp   1
 Largest concise Abelian subgroup C1      NOp   1
                         Standard orientation:                         
 ---------------------------------------------------------------------
 Center     Atomic      Atomic             Coordinates (Angstroms)
 Number     Number       Type             X           Y           Z
 ---------------------------------------------------------------------
      1          7           0        1.781967   -0.533850   -0.566636
      2          6           0        0.773129    0.130935    0.067823
      3          8           0        0.997870    0.955225    0.938316
      4          6           0       -0.638971   -0.242181   -0.352698
      5          7           0       -1.433617    0.990959   -0.485388
      6          7           0       -1.164685   -1.145438    0.658212
      7          1           0        2.728720   -0.332379   -0.295804
      8          1           0        1.605776   -1.233925   -1.268067
      9          1           0       -0.597920   -0.814744   -1.297858
     10          1           0       -2.361487    0.720017   -0.807362
     11          1           0       -1.051410    1.587208   -1.221454
     12          1           0       -2.071122   -1.493848    0.354641
     13          1           0       -1.326120   -0.588349    1.495300
 ---------------------------------------------------------------------
 Rotational constants (GHZ):      5.2197992      2.7959860      2.4890079
 Leave Link  202 at Wed Aug 24 01:49:40 2022, MaxMem=    23592960 cpu:         0.4
 (Enter /public/home/users/caep010/software/Gaussian09/g09/l301.exe)
 Standard basis: GTBas3 (6D, 7F)
 Ernie: Thresh=  0.10000D-02 Tol=  0.10000D-05 Strict=F.
 There are   221 symmetry adapted cartesian basis functions of A   symmetry.
 There are   203 symmetry adapted basis functions of A   symmetry.
   203 basis functions,   313 primitive gaussians,   221 cartesian basis functions
    24 alpha electrons       24 beta electrons
       nuclear repulsion energy       250.6595399576 Hartrees.
 IExCor=  402 DFT=T Ex+Corr=B3LYP ExCW=0 ScaHFX=  0.200000
 ScaDFX=  0.800000  0.720000  1.000000  0.810000 ScalE2=  1.000000  1.000000
 IRadAn=      0 IRanWt=     -1 IRanGd=            0 ICorTp=0 IEmpDi=  4
 NAtoms=   13 NActive=   13 NUniq=   13 SFac= 1.00D+00 NAtFMM=   60 NAOKFM=F Big=F
 Integral buffers will be    131072 words long.
 Raffenetti 2 integral format.
 Two-electron integral symmetry is turned on.
 Leave Link  301 at Wed Aug 24 01:49:41 2022, MaxMem=    23592960 cpu:         1.6
 (Enter /public/home/users/caep010/software/Gaussian09/g09/l302.exe)
 NPDir=0 NMtPBC=     1 NCelOv=     1 NCel=       1 NClECP=     1 NCelD=      1
         NCelK=      1 NCelE2=     1 NClLst=     1 CellRange=     0.0.
 One-electron integrals computed using PRISM.
 PrsmSu:  requested number of processors reduced to:   3 ShMem   1 Linda.
 PrsmSu:  requested number of processors reduced to:  11 ShMem   1 Linda.
 NBasis=   203 RedAO= T EigKep=  3.70D-04  NBF=   203
 NBsUse=   203 1.00D-06 EigRej= -1.00D+00 NBFU=   203
 Precomputing XC quadrature grid using
 IXCGrd= 4 IRadAn=           0 IRanWt=          -1 IRanGd=           0 AccXCQ= 0.00D+00.
 Generated NRdTot=       0 NPtTot=           0 NUsed=           0 NTot=          32
 NSgBfM=   221   221   221   221   221 MxSgAt=    13 MxSgA2=    13.
 Leave Link  302 at Wed Aug 24 01:49:41 2022, MaxMem=    23592960 cpu:         4.6
 (Enter /public/home/users/caep010/software/Gaussian09/g09/l303.exe)
 DipDrv:  MaxL=1.
 Leave Link  303 at Wed Aug 24 01:49:41 2022, MaxMem=    23592960 cpu:         0.7
 (Enter /public/home/users/caep010/software/Gaussian09/g09/l401.exe)
 Initial guess from the checkpoint file:  "G4.Frag_623.chk"
 B after Tr=    -0.000000   -0.000000    0.000000
         Rot=    0.999649   -0.022653   -0.012980    0.004540 Ang=  -3.04 deg.
 Guess basis will be translated and rotated to current coordinates.
 JPrj=2 DoOrth=T DoCkMO=T.
 Generating alternative initial guess.
 ExpMin= 1.61D-01 ExpMax= 5.48D+03 ExpMxC= 8.25D+02 IAcc=1 IRadAn=         1 AccDes= 0.00D+00
 Harris functional with IExCor=  402 and IRadAn=       1 diagonalized for initial guess.
 HarFok:  IExCor=  402 AccDes= 0.00D+00 IRadAn=         1 IDoV= 1 UseB2=F ITyADJ=14
 ICtDFT=  3500011 ScaDFX=  1.000000  1.000000  1.000000  1.000000
 CalDSu:  requested number of processors reduced to:  20 ShMem   1 Linda.
 FoFCou: FMM=F IPFlag=           0 FMFlag=      100000 FMFlg1=           0
         NFxFlg=           0 DoJE=T BraDBF=F KetDBF=T FulRan=T
         wScrn=  0.000000 ICntrl=     500 IOpCl=  0 I1Cent=   200000004 NGrid=           0
         NMat0=    1 NMatS0=      1 NMatT0=    0 NMatD0=    1 NMtDS0=    0 NMtDT0=    0
 Petite list used in FoFCou.
 CoulSu:  requested number of processors reduced to:  11 ShMem   1 Linda.
 CoulSu:  requested number of processors reduced to:  11 ShMem   1 Linda.
 CoulSu:  requested number of processors reduced to:  12 ShMem   1 Linda.
 CoulSu:  requested number of processors reduced to:  12 ShMem   1 Linda.
 Harris En= -319.949375993175    
 Leave Link  401 at Wed Aug 24 01:49:41 2022, MaxMem=    23592960 cpu:         7.4
 (Enter /public/home/users/caep010/software/Gaussian09/g09/l502.exe)
 Closed shell SCF:
 Using DIIS extrapolation, IDIIS=  1040.
 Integral symmetry usage will be decided dynamically.
 IVT=      173757 IEndB=      173757 NGot=    23592960 MDV=    23484906
 LenX=    23484906 LenY=    23435624
 Requested convergence on RMS density matrix=1.00D-08 within 128 cycles.
 Requested convergence on MAX density matrix=1.00D-06.
 Requested convergence on             energy=1.00D-06.
 No special actions if energy rises.
 Fock matrices will be formed incrementally for  20 cycles.
 Integral accuracy reduced to 1.0D-05 until final iterations.

 Cycle   1  Pass 0  IDiag  1:
 FoFJK:  IHMeth= 1 ICntrl=       0 DoSepK=F KAlg= 0 I1Cent=   0 FoldK=F
 IRaf= 980000000 NMat=   1 IRICut=       1 DoRegI=T DoRafI=F ISym2E= 0.
 FoFCou: FMM=F IPFlag=           0 FMFlag=      100000 FMFlg1=           0
         NFxFlg=           0 DoJE=F BraDBF=F KetDBF=F FulRan=T
         wScrn=  0.000000 ICntrl=       0 IOpCl=  0 I1Cent=           0 NGrid=           0
         NMat0=    1 NMatS0=      1 NMatT0=    0 NMatD0=    1 NMtDS0=    0 NMtDT0=    0
 Symmetry not used in FoFCou.
 CoulSu:  requested number of processors reduced to:  11 ShMem   1 Linda.
 CalDSu:  requested number of processors reduced to:  20 ShMem   1 Linda.
 E= -319.923426537913    
 DIIS: error= 2.71D-03 at cycle   1 NSaved=   1.
 NSaved= 1 IEnMin= 1 EnMin= -319.923426537913     IErMin= 1 ErrMin= 2.71D-03
 ErrMax= 2.71D-03  0.00D+00 EMaxC= 1.00D-01 BMatC= 5.77D-03 BMatP= 5.77D-03
 IDIUse=3 WtCom= 9.73D-01 WtEn= 2.71D-02
 Coeff-Com:  0.100D+01
 Coeff-En:   0.100D+01
 Coeff:      0.100D+01
 Gap=     0.989 Goal=   None    Shift=    0.000
 GapD=    0.989 DampG=2.000 DampE=1.000 DampFc=2.0000 IDamp=-1.
 RMSDP=5.68D-04 MaxDP=1.53D-02              OVMax= 1.84D-02

 Cycle   2  Pass 0  IDiag  1:
 RMSU=  5.67D-04    CP:  9.99D-01
 CoulSu:  requested number of processors reduced to:  11 ShMem   1 Linda.
 CalDSu:  requested number of processors reduced to:  20 ShMem   1 Linda.
 E= -319.928278266633     Delta-E=       -0.004851728720 Rises=F Damp=F
 DIIS: error= 1.75D-03 at cycle   2 NSaved=   2.
 NSaved= 2 IEnMin= 2 EnMin= -319.928278266633     IErMin= 2 ErrMin= 1.75D-03
 ErrMax= 1.75D-03  0.00D+00 EMaxC= 1.00D-01 BMatC= 1.11D-03 BMatP= 5.77D-03
 IDIUse=3 WtCom= 9.82D-01 WtEn= 1.75D-02
 Coeff-Com:  0.224D+00 0.776D+00
 Coeff-En:   0.000D+00 0.100D+01
 Coeff:      0.220D+00 0.780D+00
 Gap=     0.265 Goal=   None    Shift=    0.000
 RMSDP=2.92D-04 MaxDP=9.18D-03 DE=-4.85D-03 OVMax= 1.05D-02

 Cycle   3  Pass 0  IDiag  1:
 RMSU=  2.92D-04    CP:  9.99D-01  9.69D-01
 CoulSu:  requested number of processors reduced to:  11 ShMem   1 Linda.
 CalDSu:  requested number of processors reduced to:  20 ShMem   1 Linda.
 E= -319.928565222037     Delta-E=       -0.000286955404 Rises=F Damp=F
 DIIS: error= 1.37D-03 at cycle   3 NSaved=   3.
 NSaved= 3 IEnMin= 3 EnMin= -319.928565222037     IErMin= 3 ErrMin= 1.37D-03
 ErrMax= 1.37D-03  0.00D+00 EMaxC= 1.00D-01 BMatC= 7.82D-04 BMatP= 1.11D-03
 IDIUse=3 WtCom= 9.86D-01 WtEn= 1.37D-02
 Coeff-Com:  0.563D-02 0.454D+00 0.540D+00
 Coeff-En:   0.000D+00 0.409D+00 0.591D+00
 Coeff:      0.555D-02 0.453D+00 0.541D+00
 Gap=     0.267 Goal=   None    Shift=    0.000
 RMSDP=1.39D-04 MaxDP=5.24D-03 DE=-2.87D-04 OVMax= 6.99D-03

 Cycle   4  Pass 0  IDiag  1:
 RMSU=  5.50D-05    CP:  9.99D-01  1.02D+00  5.72D-01
 CoulSu:  requested number of processors reduced to:  11 ShMem   1 Linda.
 CalDSu:  requested number of processors reduced to:  20 ShMem   1 Linda.
 E= -319.929099840126     Delta-E=       -0.000534618089 Rises=F Damp=F
 DIIS: error= 4.28D-04 at cycle   4 NSaved=   4.
 NSaved= 4 IEnMin= 4 EnMin= -319.929099840126     IErMin= 4 ErrMin= 4.28D-04
 ErrMax= 4.28D-04  0.00D+00 EMaxC= 1.00D-01 BMatC= 7.29D-05 BMatP= 7.82D-04
 IDIUse=3 WtCom= 9.96D-01 WtEn= 4.28D-03
 Coeff-Com: -0.781D-02 0.246D+00 0.343D+00 0.419D+00
 Coeff-En:   0.000D+00 0.000D+00 0.000D+00 0.100D+01
 Coeff:     -0.778D-02 0.245D+00 0.342D+00 0.421D+00
 Gap=     0.265 Goal=   None    Shift=    0.000
 RMSDP=3.76D-05 MaxDP=1.56D-03 DE=-5.35D-04 OVMax= 2.42D-03

 Cycle   5  Pass 0  IDiag  1:
 RMSU=  2.00D-05    CP:  9.99D-01  1.02D+00  6.12D-01  4.69D-01
 CoulSu:  requested number of processors reduced to:  11 ShMem   1 Linda.
 CalDSu:  requested number of processors reduced to:  20 ShMem   1 Linda.
 E= -319.929154074282     Delta-E=       -0.000054234156 Rises=F Damp=F
 DIIS: error= 1.07D-04 at cycle   5 NSaved=   5.
 NSaved= 5 IEnMin= 5 EnMin= -319.929154074282     IErMin= 5 ErrMin= 1.07D-04
 ErrMax= 1.07D-04  0.00D+00 EMaxC= 1.00D-01 BMatC= 4.59D-06 BMatP= 7.29D-05
 IDIUse=3 WtCom= 9.99D-01 WtEn= 1.07D-03
 Coeff-Com: -0.475D-02 0.736D-01 0.115D+00 0.236D+00 0.580D+00
 Coeff-En:   0.000D+00 0.000D+00 0.000D+00 0.667D-02 0.993D+00
 Coeff:     -0.474D-02 0.736D-01 0.115D+00 0.235D+00 0.581D+00
 Gap=     0.266 Goal=   None    Shift=    0.000
 RMSDP=1.15D-05 MaxDP=6.55D-04 DE=-5.42D-05 OVMax= 7.75D-04

 Cycle   6  Pass 0  IDiag  1:
 RMSU=  7.71D-06    CP:  9.99D-01  1.02D+00  6.06D-01  5.52D-01  6.54D-01
 CoulSu:  requested number of processors reduced to:  11 ShMem   1 Linda.
 CalDSu:  requested number of processors reduced to:  20 ShMem   1 Linda.
 E= -319.929157286855     Delta-E=       -0.000003212572 Rises=F Damp=F
 DIIS: error= 3.30D-05 at cycle   6 NSaved=   6.
 NSaved= 6 IEnMin= 6 EnMin= -319.929157286855     IErMin= 6 ErrMin= 3.30D-05
 ErrMax= 3.30D-05  0.00D+00 EMaxC= 1.00D-01 BMatC= 4.98D-07 BMatP= 4.59D-06
 IDIUse=1 WtCom= 1.00D+00 WtEn= 0.00D+00
 Coeff-Com: -0.149D-02 0.916D-02 0.193D-01 0.781D-01 0.320D+00 0.575D+00
 Coeff:     -0.149D-02 0.916D-02 0.193D-01 0.781D-01 0.320D+00 0.575D+00
 Gap=     0.266 Goal=   None    Shift=    0.000
 RMSDP=4.22D-06 MaxDP=1.94D-04 DE=-3.21D-06 OVMax= 2.00D-04

 Initial convergence to 1.0D-05 achieved.  Increase integral accuracy.
 Cycle   7  Pass 1  IDiag  1:
 CoulSu:  requested number of processors reduced to:  11 ShMem   1 Linda.
 CalDSu:  requested number of processors reduced to:  20 ShMem   1 Linda.
 E= -319.929146408598     Delta-E=        0.000010878257 Rises=F Damp=F
 DIIS: error= 1.89D-05 at cycle   1 NSaved=   1.
 NSaved= 1 IEnMin= 1 EnMin= -319.929146408598     IErMin= 1 ErrMin= 1.89D-05
 ErrMax= 1.89D-05  0.00D+00 EMaxC= 1.00D-01 BMatC= 1.02D-07 BMatP= 1.02D-07
 IDIUse=1 WtCom= 1.00D+00 WtEn= 0.00D+00
 Coeff-Com:  0.100D+01
 Coeff:      0.100D+01
 Gap=     0.266 Goal=   None    Shift=    0.000
 RMSDP=4.22D-06 MaxDP=1.94D-04 DE= 1.09D-05 OVMax= 8.47D-05

 Cycle   8  Pass 1  IDiag  1:
 RMSU=  4.57D-06    CP:  1.00D+00
 CoulSu:  requested number of processors reduced to:  11 ShMem   1 Linda.
 CalDSu:  requested number of processors reduced to:  20 ShMem   1 Linda.
 E= -319.929146464449     Delta-E=       -0.000000055851 Rises=F Damp=F
 DIIS: error= 6.58D-06 at cycle   2 NSaved=   2.
 NSaved= 2 IEnMin= 2 EnMin= -319.929146464449     IErMin= 2 ErrMin= 6.58D-06
 ErrMax= 6.58D-06  0.00D+00 EMaxC= 1.00D-01 BMatC= 2.43D-08 BMatP= 1.02D-07
 IDIUse=1 WtCom= 1.00D+00 WtEn= 0.00D+00
 Coeff-Com:  0.243D+00 0.757D+00
 Coeff:      0.243D+00 0.757D+00
 Gap=     0.266 Goal=   None    Shift=    0.000
 RMSDP=1.56D-06 MaxDP=7.19D-05 DE=-5.59D-08 OVMax= 7.98D-05

 Cycle   9  Pass 1  IDiag  1:
 RMSU=  1.54D-06    CP:  1.00D+00  9.65D-01
 CoulSu:  requested number of processors reduced to:  11 ShMem   1 Linda.
 CalDSu:  requested number of processors reduced to:  20 ShMem   1 Linda.
 E= -319.929146465132     Delta-E=       -0.000000000683 Rises=F Damp=F
 DIIS: error= 6.78D-06 at cycle   3 NSaved=   3.
 NSaved= 3 IEnMin= 3 EnMin= -319.929146465132     IErMin= 2 ErrMin= 6.58D-06
 ErrMax= 6.78D-06  0.00D+00 EMaxC= 1.00D-01 BMatC= 2.49D-08 BMatP= 2.43D-08
 IDIUse=1 WtCom= 1.00D+00 WtEn= 0.00D+00
 Coeff-Com:  0.220D-02 0.503D+00 0.495D+00
 Coeff:      0.220D-02 0.503D+00 0.495D+00
 Gap=     0.266 Goal=   None    Shift=    0.000
 RMSDP=8.24D-07 MaxDP=4.35D-05 DE=-6.83D-10 OVMax= 5.35D-05

 Cycle  10  Pass 1  IDiag  1:
 RMSU=  2.67D-07    CP:  1.00D+00  1.01D+00  5.14D-01
 CoulSu:  requested number of processors reduced to:  11 ShMem   1 Linda.
 CalDSu:  requested number of processors reduced to:  20 ShMem   1 Linda.
 E= -319.929146485215     Delta-E=       -0.000000020083 Rises=F Damp=F
 DIIS: error= 1.83D-06 at cycle   4 NSaved=   4.
 NSaved= 4 IEnMin= 4 EnMin= -319.929146485215     IErMin= 4 ErrMin= 1.83D-06
 ErrMax= 1.83D-06  0.00D+00 EMaxC= 1.00D-01 BMatC= 1.80D-09 BMatP= 2.43D-08
 IDIUse=1 WtCom= 1.00D+00 WtEn= 0.00D+00
 Coeff-Com: -0.121D-01 0.285D+00 0.315D+00 0.412D+00
 Coeff:     -0.121D-01 0.285D+00 0.315D+00 0.412D+00
 Gap=     0.266 Goal=   None    Shift=    0.000
 RMSDP=1.84D-07 MaxDP=7.84D-06 DE=-2.01D-08 OVMax= 1.08D-05

 Cycle  11  Pass 1  IDiag  1:
 RMSU=  9.62D-08    CP:  1.00D+00  1.01D+00  5.48D-01  4.46D-01
 CoulSu:  requested number of processors reduced to:  11 ShMem   1 Linda.
 CalDSu:  requested number of processors reduced to:  20 ShMem   1 Linda.
 E= -319.929146486545     Delta-E=       -0.000000001329 Rises=F Damp=F
 DIIS: error= 4.66D-07 at cycle   5 NSaved=   5.
 NSaved= 5 IEnMin= 5 EnMin= -319.929146486545     IErMin= 5 ErrMin= 4.66D-07
 ErrMax= 4.66D-07  0.00D+00 EMaxC= 1.00D-01 BMatC= 8.28D-11 BMatP= 1.80D-09
 IDIUse=1 WtCom= 1.00D+00 WtEn= 0.00D+00
 Coeff-Com: -0.639D-02 0.104D+00 0.120D+00 0.229D+00 0.553D+00
 Coeff:     -0.639D-02 0.104D+00 0.120D+00 0.229D+00 0.553D+00
 Gap=     0.266 Goal=   None    Shift=    0.000
 RMSDP=4.31D-08 MaxDP=1.64D-06 DE=-1.33D-09 OVMax= 2.83D-06

 Cycle  12  Pass 1  IDiag  1:
 RMSU=  2.88D-08    CP:  1.00D+00  1.01D+00  5.41D-01  4.88D-01  7.11D-01
 CoulSu:  requested number of processors reduced to:  11 ShMem   1 Linda.
 CalDSu:  requested number of processors reduced to:  20 ShMem   1 Linda.
 E= -319.929146486614     Delta-E=       -0.000000000069 Rises=F Damp=F
 DIIS: error= 1.03D-07 at cycle   6 NSaved=   6.
 NSaved= 6 IEnMin= 6 EnMin= -319.929146486614     IErMin= 6 ErrMin= 1.03D-07
 ErrMax= 1.03D-07  0.00D+00 EMaxC= 1.00D-01 BMatC= 3.45D-12 BMatP= 8.28D-11
 IDIUse=1 WtCom= 1.00D+00 WtEn= 0.00D+00
 Coeff-Com: -0.169D-02 0.202D-01 0.248D-01 0.646D-01 0.232D+00 0.660D+00
 Coeff:     -0.169D-02 0.202D-01 0.248D-01 0.646D-01 0.232D+00 0.660D+00
 Gap=     0.266 Goal=   None    Shift=    0.000
 RMSDP=1.14D-08 MaxDP=4.10D-07 DE=-6.90D-11 OVMax= 4.05D-07

 Cycle  13  Pass 1  IDiag  1:
 RMSU=  6.50D-09    CP:  1.00D+00  1.01D+00  5.44D-01  5.01D-01  7.58D-01
                    CP:  7.95D-01
 CoulSu:  requested number of processors reduced to:  11 ShMem   1 Linda.
 CalDSu:  requested number of processors reduced to:  20 ShMem   1 Linda.
 E= -319.929146486617     Delta-E=       -0.000000000003 Rises=F Damp=F
 DIIS: error= 2.70D-08 at cycle   7 NSaved=   7.
 NSaved= 7 IEnMin= 7 EnMin= -319.929146486617     IErMin= 7 ErrMin= 2.70D-08
 ErrMax= 2.70D-08  0.00D+00 EMaxC= 1.00D-01 BMatC= 2.93D-13 BMatP= 3.45D-12
 IDIUse=1 WtCom= 1.00D+00 WtEn= 0.00D+00
 Coeff-Com: -0.354D-04-0.252D-02-0.204D-02 0.150D-02 0.378D-01 0.261D+00
 Coeff-Com:  0.705D+00
 Coeff:     -0.354D-04-0.252D-02-0.204D-02 0.150D-02 0.378D-01 0.261D+00
 Coeff:      0.705D+00
 Gap=     0.266 Goal=   None    Shift=    0.000
 RMSDP=2.83D-09 MaxDP=9.28D-08 DE=-2.84D-12 OVMax= 9.96D-08

 SCF Done:  E(RB3LYP) =  -319.929146487     A.U. after   13 cycles
            NFock= 13  Conv=0.28D-08     -V/T= 2.0069
 KE= 3.177268476913D+02 PE=-1.249763712014D+03 EE= 3.614481778788D+02
 Leave Link  502 at Wed Aug 24 01:49:49 2022, MaxMem=    23592960 cpu:       136.6
 (Enter /public/home/users/caep010/software/Gaussian09/g09/l701.exe)
 Compute integral first derivatives.
 ... and contract with generalized density number  0.
 PrsmSu:  requested number of processors reduced to:   3 ShMem   1 Linda.
 PrsmSu:  requested number of processors reduced to:   6 ShMem   1 Linda.
 Leave Link  701 at Wed Aug 24 01:49:50 2022, MaxMem=    23592960 cpu:         1.8
 (Enter /public/home/users/caep010/software/Gaussian09/g09/l702.exe)
 L702 exits ... SP integral derivatives will be done elsewhere.
 Leave Link  702 at Wed Aug 24 01:49:50 2022, MaxMem=    23592960 cpu:         0.5
 (Enter /public/home/users/caep010/software/Gaussian09/g09/l703.exe)
 Compute integral first derivatives, UseDBF=F ICtDFT=           0.
 Integral derivatives from FoFJK, PRISM(SPDF).
 Calling FoFJK, ICntrl=      2127 FMM=F ISym2X=0 I1Cent= 0 IOpClX= 0 NMat=1 NMatS=1 NMatT=0.
 FoFJK:  IHMeth= 1 ICntrl=    2127 DoSepK=F KAlg= 0 I1Cent=   0 FoldK=F
 IRaf=         0 NMat=   1 IRICut=       1 DoRegI=T DoRafI=F ISym2E= 0.
 FoFCou: FMM=F IPFlag=           0 FMFlag=      100000 FMFlg1=         800
         NFxFlg=           0 DoJE=F BraDBF=F KetDBF=F FulRan=T
         wScrn=  0.000000 ICntrl=    2127 IOpCl=  0 I1Cent=           0 NGrid=           0
         NMat0=    1 NMatS0=      1 NMatT0=    0 NMatD0=    1 NMtDS0=    0 NMtDT0=    0
 Symmetry not used in FoFCou.
 CoulSu:  requested number of processors reduced to:   6 ShMem   1 Linda.
 CalDSu:  requested number of processors reduced to:  17 ShMem   1 Linda.
 Leave Link  703 at Wed Aug 24 01:49:53 2022, MaxMem=    23592960 cpu:        24.5
 (Enter /public/home/users/caep010/software/Gaussian09/g09/l716.exe)
 Dipole        =-2.88287271D-01-8.22669444D-01-1.43250267D+00
 ***** Axes restored to original set *****
 -------------------------------------------------------------------
 Center     Atomic                   Forces (Hartrees/Bohr)
 Number     Number              X              Y              Z
 -------------------------------------------------------------------
      1        7          -0.004923360    0.000193076   -0.006486248
      2        6           0.011765878    0.004992172    0.018071671
      3        8          -0.001422997   -0.001916376   -0.007122761
      4        6          -0.005611459    0.002775971   -0.009892953
      5        7          -0.000247764   -0.002149469   -0.004372566
      6        7          -0.002933128    0.001767853    0.000094918
      7        1           0.000852723   -0.000918107    0.000867495
      8        1           0.000661767    0.000063805    0.002041140
      9        1           0.000616462   -0.001133857    0.001300134
     10        1          -0.000133264    0.000999794    0.000972441
     11        1           0.000304543   -0.002442122    0.002808584
     12        1           0.000313074   -0.000712001    0.001335996
     13        1           0.000757523   -0.001520740    0.000382149
 -------------------------------------------------------------------
 Cartesian Forces:  Max     0.018071671 RMS     0.004576817
 Leave Link  716 at Wed Aug 24 01:49:53 2022, MaxMem=    23592960 cpu:         0.6
 (Enter /public/home/users/caep010/software/Gaussian09/g09/l103.exe)

 GradGradGradGradGradGradGradGradGradGradGradGradGradGradGradGradGradGrad
 Berny optimization.
 Using GEDIIS/GDIIS optimizer.
 FormGI is forming the generalized inverse of G from B-inverse, IUseBI=4.
 Internal  Forces:  Max     0.010256712 RMS     0.002303280
 Search for a local minimum.
 Step number   2 out of a maximum of   62
 All quantities printed in internal units (Hartrees-Bohrs-Radians)
 RMS Force = .23033D-02 SwitMx=.10000D-02 MixMth= 1
 Mixed Optimization -- RFO/linear search
 Update second derivatives using D2CorX and points    1    2
 DE= -1.49D-02 DEPred=-1.45D-02 R= 1.03D+00
 TightC=F SS=  1.41D+00  RLast= 2.86D-01 DXNew= 5.0454D-01 8.5785D-01
 Trust test= 1.03D+00 RLast= 2.86D-01 DXMaxT set to 5.05D-01
 ITU=  1  0
 Use linear search instead of GDIIS.
     Eigenvalues ---    0.00714   0.00836   0.00862   0.00958   0.01323
     Eigenvalues ---    0.01326   0.04651   0.04824   0.05612   0.06014
     Eigenvalues ---    0.06948   0.15891   0.16000   0.16000   0.16000
     Eigenvalues ---    0.16000   0.16272   0.18071   0.18536   0.23857
     Eigenvalues ---    0.25129   0.30902   0.32187   0.36405   0.36667
     Eigenvalues ---    0.40162   0.40361   0.40436   0.40493   0.40651
     Eigenvalues ---    0.41000   0.43981   0.77160
 RFO step:  Lambda=-1.43937669D-03 EMin= 7.14285332D-03
 Quartic linear search produced a step of  0.06997.
 Iteration  1 RMS(Cart)=  0.03060849 RMS(Int)=  0.00107727
 Iteration  2 RMS(Cart)=  0.00106043 RMS(Int)=  0.00031029
 Iteration  3 RMS(Cart)=  0.00000116 RMS(Int)=  0.00031029
 Iteration  4 RMS(Cart)=  0.00000000 RMS(Int)=  0.00031029
 ITry= 1 IFail=0 DXMaxC= 1.01D-01 DCOld= 1.00D+10 DXMaxT= 5.05D-01 DXLimC= 3.00D+00 Rises=F
 Variable       Old X    -DE/DX   Delta X   Delta X   Delta X     New X
                                 (Linear)    (Quad)   (Total)
    R1        2.57879  -0.00151  -0.00836   0.00066  -0.00770   2.57109
    R2        1.89942   0.00101  -0.00516   0.00546   0.00030   1.89971
    R3        1.90211  -0.00188  -0.00496  -0.00221  -0.00717   1.89494
    R4        2.30494  -0.00718  -0.00540  -0.00712  -0.01251   2.29243
    R5        2.87218   0.01026   0.00211   0.03290   0.03501   2.90719
    R6        2.78355  -0.00250   0.00111  -0.00794  -0.00683   2.77672
    R7        2.74771   0.00141  -0.00114   0.00474   0.00360   2.75131
    R8        2.08970  -0.00102  -0.00109  -0.00274  -0.00383   2.08587
    R9        1.92531  -0.00072  -0.00360   0.00008  -0.00352   1.92180
   R10        1.93029  -0.00287  -0.00330  -0.00577  -0.00907   1.92122
   R11        1.92267  -0.00088  -0.00377  -0.00025  -0.00402   1.91866
   R12        1.92448  -0.00005  -0.00375   0.00192  -0.00183   1.92266
    A1        2.06396  -0.00056  -0.00242  -0.00263  -0.00628   2.05768
    A2        2.13342   0.00108   0.00164   0.00500   0.00542   2.13884
    A3        2.08525  -0.00056   0.00074  -0.00517  -0.00567   2.07958
    A4        2.12329   0.00521   0.00258   0.02039   0.02293   2.14623
    A5        2.02485  -0.00535  -0.00545  -0.01932  -0.02481   2.00004
    A6        2.13477   0.00013   0.00290  -0.00142   0.00145   2.13622
    A7        1.89719   0.00105  -0.00184   0.00501   0.00312   1.90031
    A8        1.87136  -0.00036  -0.00252  -0.00459  -0.00714   1.86422
    A9        1.90614  -0.00062   0.00014  -0.00200  -0.00195   1.90420
   A10        1.96886  -0.00163   0.00298  -0.01494  -0.01200   1.95686
   A11        1.95681   0.00095   0.00374   0.00994   0.01369   1.97050
   A12        1.86086   0.00054  -0.00266   0.00608   0.00335   1.86422
   A13        1.87250   0.00244  -0.00116   0.02287   0.02162   1.89412
   A14        1.93021  -0.00080   0.00290  -0.00227   0.00054   1.93075
   A15        1.84240   0.00032  -0.00061   0.01491   0.01411   1.85650
   A16        1.90435   0.00197   0.00079   0.01671   0.01733   1.92167
   A17        1.86395   0.00216  -0.00270   0.02100   0.01812   1.88207
   A18        1.86643  -0.00094  -0.00016   0.00400   0.00347   1.86990
    D1        0.00580   0.00087   0.00207   0.05282   0.05476   0.06056
    D2       -3.11149   0.00102   0.00116   0.06852   0.06967  -3.04183
    D3        3.11146  -0.00052  -0.00001  -0.03821  -0.03822   3.07324
    D4       -0.00584  -0.00038  -0.00092  -0.02252  -0.02331  -0.02915
    D5       -2.39384  -0.00104  -0.00010  -0.02124  -0.02127  -2.41511
    D6        1.75598   0.00053  -0.00106  -0.00342  -0.00444   1.75154
    D7       -0.25391   0.00040   0.00345  -0.00711  -0.00363  -0.25755
    D8        0.77223  -0.00097  -0.00101  -0.00576  -0.00679   0.76543
    D9       -1.36114   0.00060  -0.00197   0.01206   0.01004  -1.35110
   D10        2.91215   0.00047   0.00253   0.00837   0.01085   2.92300
   D11        3.09831   0.00044  -0.00011  -0.04040  -0.04043   3.05788
   D12        1.09729  -0.00089  -0.00026  -0.06964  -0.06993   1.02736
   D13       -1.11181  -0.00032  -0.00258  -0.05201  -0.05458  -1.16639
   D14       -3.11283  -0.00164  -0.00273  -0.08125  -0.08408   3.08628
   D15        0.98931  -0.00010  -0.00146  -0.04760  -0.04899   0.94032
   D16       -1.01171  -0.00142  -0.00161  -0.07684  -0.07849  -1.09020
   D17       -3.03503   0.00030  -0.00122  -0.03080  -0.03193  -3.06696
   D18        1.23655  -0.00072  -0.00001  -0.05483  -0.05496   1.18159
   D19        1.16012   0.00022   0.00088  -0.02508  -0.02414   1.13598
   D20       -0.85149  -0.00080   0.00209  -0.04910  -0.04716  -0.89865
   D21       -0.99514  -0.00032  -0.00385  -0.03234  -0.03603  -1.03116
   D22       -3.00674  -0.00133  -0.00264  -0.05636  -0.05905  -3.06580
         Item               Value     Threshold  Converged?
[...]
 Alpha virt. eigenvalues --   14.25626  14.30591  14.32250  14.32577  14.41494
 Alpha virt. eigenvalues --   14.46635  14.51179  14.52954  14.55346  14.58233
 Alpha virt. eigenvalues --   14.58972  14.60887  14.67865  14.69264  14.70340
 Alpha virt. eigenvalues --   14.76888  14.79918  14.80802  14.82114  14.84196
 Alpha virt. eigenvalues --   14.88460  14.96200  14.98565  14.99378  15.02307
 Alpha virt. eigenvalues --   15.02966  15.04064  15.06617  15.09327  15.11215
 Alpha virt. eigenvalues --   15.14053  15.19317  15.21521  15.24009  15.29358
 Alpha virt. eigenvalues --   15.32481  15.32991  15.38680  15.42582  15.46637
 Alpha virt. eigenvalues --   15.48250  15.50262  15.53619  15.60051  15.74159
 Alpha virt. eigenvalues --   15.78696  15.80365  15.85153  15.93392  15.94833
 Alpha virt. eigenvalues --   15.98981  16.01074  16.06825  16.11954  16.20565
 Alpha virt. eigenvalues --   16.28148  16.29220  16.30799  16.35395  16.40256
 Alpha virt. eigenvalues --   16.71387  16.78725  16.86539  16.90748  17.02551
 Alpha virt. eigenvalues --   17.09314  17.41287  17.61155  17.67870  17.79983
 Alpha virt. eigenvalues --   18.14159  18.33023  18.35979  18.40270  18.46279
 Alpha virt. eigenvalues --   18.47107  18.58839  18.62800  18.68307  18.79518
 Alpha virt. eigenvalues --   18.87773  18.88809  18.94161  18.95749  19.13440
 Alpha virt. eigenvalues --   19.15340  19.22616  19.24878  19.30952  19.45179
 Alpha virt. eigenvalues --   19.49249  19.51142  19.53456  19.56773  19.58601
 Alpha virt. eigenvalues --   19.60137  19.62845  19.72488  19.81927  19.85816
 Alpha virt. eigenvalues --   19.97655  20.09885  20.35272  20.39596  20.56259
 Alpha virt. eigenvalues --   20.99678  21.45250  22.21661  22.38916  22.50667
 Alpha virt. eigenvalues --   23.51425  23.89910  24.29692  40.66719  40.79600
 Alpha virt. eigenvalues --   50.71899  50.80625  51.51706  64.11067
          Condensed to atoms (all electrons):
               1          2          3          4          5          6
     1  N    6.817507   0.392205  -0.105044  -0.085101   0.002829  -0.014071
     2  C    0.392205   4.283657   0.507283   0.411302  -0.043464  -0.062403
     3  O   -0.105044   0.507283   8.299903  -0.046555  -0.026467   0.001409
     4  C   -0.085101   0.411302  -0.046555   4.682265   0.326106   0.283555
     5  N    0.002829  -0.043464  -0.026467   0.326106   6.791985  -0.061466
     6  N   -0.014071  -0.062403   0.001409   0.283555  -0.061466   6.868273
     7  H    0.356437  -0.020367   0.008363   0.006576  -0.000254  -0.000930
     8  H    0.371054  -0.017344   0.003112  -0.000389  -0.000239  -0.005740
     9  H    0.004495  -0.013888  -0.002493   0.391846  -0.045227  -0.036830
    10  H   -0.001292   0.005498  -0.000112  -0.029724   0.381685   0.001941
    11  H    0.000331  -0.011723   0.006675  -0.035334   0.396469   0.004612
    12  H   -0.001056   0.007099  -0.000520  -0.019841  -0.002563   0.374089
    13  H    0.000765  -0.000630   0.000434  -0.035772   0.002659   0.381560
               7          8          9         10         11         12
     1  N    0.356437   0.371054   0.004495  -0.001292   0.000331  -0.001056
     2  C   -0.020367  -0.017344  -0.013888   0.005498  -0.011723   0.007099
     3  O    0.008363   0.003112  -0.002493  -0.000112   0.006675  -0.000520
     4  C    0.006576  -0.000389   0.391846  -0.029724  -0.035334  -0.019841
     5  N   -0.000254  -0.000239  -0.045227   0.381685   0.396469  -0.002563
     6  N   -0.000930  -0.005740  -0.036830   0.001941   0.004612   0.374089
     7  H    0.306980  -0.013706  -0.000526   0.000047  -0.000077   0.000089
     8  H   -0.013706   0.287928   0.000975  -0.000039   0.000019   0.000732
     9  H   -0.000526   0.000975   0.552296  -0.011161   0.003005  -0.008404
    10  H    0.000047  -0.000039  -0.011161   0.394046  -0.028803   0.000842
    11  H   -0.000077   0.000019   0.003005  -0.028803   0.324030  -0.000301
    12  H    0.000089   0.000732  -0.008404   0.000842  -0.000301   0.379332
    13  H   -0.000079   0.000173   0.006357  -0.000435   0.000159  -0.025419
              13
     1  N    0.000765
     2  C   -0.000630
     3  O    0.000434
     4  C   -0.035772
     5  N    0.002659
     6  N    0.381560
     7  H   -0.000079
     8  H    0.000173
     9  H    0.006357
    10  H   -0.000435
    11  H    0.000159
    12  H   -0.025419
    13  H    0.357805
 Mulliken charges:
               1
     1  N   -0.739059
     2  C    0.562777
     3  O   -0.645987
     4  C    0.151067
     5  N   -0.722053
     6  N   -0.733999
     7  H    0.357446
     8  H    0.373465
     9  H    0.159555
    10  H    0.287504
    11  H    0.340939
    12  H    0.295922
    13  H    0.312423
 Sum of Mulliken charges =  -0.00000
 Mulliken charges with hydrogens summed into heavy atoms:
               1
     1  N   -0.008147
     2  C    0.562777
     3  O   -0.645987
     4  C    0.310622
     5  N   -0.093610
     6  N   -0.125655
 Electronic spatial extent (au):  <R**2>=            573.9850
 Charge=             -0.0000 electrons
 Dipole moment (field-independent basis, Debye):
    X=             -1.8117    Y=             -2.7353    Z=             -0.9831  Tot=              3.4250
 Quadrupole moment (field-independent basis, Debye-Ang):
   XX=            -32.0842   YY=            -38.1194   ZZ=            -36.5200
   XY=             -4.9340   XZ=              3.4369   YZ=             -2.2751
 Traceless Quadrupole moment (field-independent basis, Debye-Ang):
   XX=              3.4903   YY=             -2.5449   ZZ=             -0.9455
   XY=             -4.9340   XZ=              3.4369   YZ=             -2.2751
 Octapole moment (field-independent basis, Debye-Ang**2):
  XXX=              0.6653  YYY=              0.4951  ZZZ=             -0.2437  XYY=             -6.1524
  XXY=            -14.3502  XXZ=             -3.7244  XZZ=             -1.6182  YZZ=             -1.8137
  YYZ=              0.4479  XYZ=              1.7053
 Hexadecapole moment (field-independent basis, Debye-Ang**3):
 XXXX=           -318.0419 YYYY=           -269.6361 ZZZZ=            -55.5556 XXXY=            -15.4755
 XXXZ=             22.4305 YYYX=            -19.6087 YYYZ=             -1.4132 ZZZX=              2.2792
 ZZZY=             -4.9488 XXYY=            -99.0052 XXZZ=            -75.1982 YYZZ=            -57.2478
 XXYZ=             -9.4600 YYXZ=              4.3557 ZZXY=              6.7052
 N-N= 2.518425638080D+02 E-N=-1.251241515878D+03  KE= 3.177575686768D+02
 PrsmSu:  requested number of processors reduced to:   1 ShMem   1 Linda.
 No NMR shielding tensors so no spin-rotation constants.
 Leave Link  601 at Wed Aug 24 06:57:49 2022, MaxMem=    23592960 cpu:        10.2
 (Enter /public/home/users/caep010/software/Gaussian09/g09/l9999.exe)
 1\1\GINC-B1615\SP\RHF\GFHFB2\C2H7N3O1\ROOT\24-Aug-2022\0\\#P Geom=AllC
 heck Guess=TCheck SCRF=Check HF/GFHFB2 SCF=Tight\\Frag_623\\0,1\N,0,1.
 9069108272,-0.2091059329,0.2720039041\C,0,0.8587275146,0.64499132,0.26
 63938739\O,0,0.8895841425,1.7823570504,0.7038354726\C,0,-0.4107802009,
 0.0778702701,-0.4160357367\N,0,-1.5615542078,0.7354326051,0.1803363626
 \N,0,-0.4382010037,-1.3853485691,-0.316359739\H,0,2.7634338753,0.07029
 23746,0.7192842172\H,0,1.7414714061,-1.1663797381,0.0029084128\H,0,-0.
 2834938282,0.3041798576,-1.4882189263\H,0,-2.2958209048,0.8842115316,-
 0.5023591148\H,0,-1.255728564,1.6448289241,0.520081913\H,0,-1.08524347
 3,-1.7619284016,-1.0022384532\H,0,-0.8293055834,-1.621401292,0.5936678
 14\\Version=ES64L-G09RevE.01\State=1-A\HF=-318.187477\RMSD=2.889e-09\D
 ipole=-0.21155,-1.1016128,-0.7466086\Quadrupole=3.407638,-3.0505338,-0
 .3571042,-2.0199023,3.2344526,-1.7850664\PG=C01 [X(C2H7N3O1)]\\@


 The hours that make us happy make us wise.
                         -- John Masefield
 Diagonal vibrational polarizability:
        0.0000000       0.0000000       0.0000000

 Temperature=              298.150000 Pressure=                      1.000000
 E(ZPE)=                     0.108115 E(Thermal)=                    0.114986
 E(CCSD(T))=              -319.016303 E(Empiric)=                   -0.125046
 DE(Plus)=                  -0.031126 DE(2DF)=                      -0.262470
 E(Delta-G3XP)=             -0.401328 DE(HF)=                       -0.031161
 G4(0 K)=                 -319.759318 G4 Energy=                  -319.752447
 G4 Enthalpy=             -319.751503 G4 Free Energy=             -319.789561
 1\1\GINC-B1615\Mixed\G4\G4\C2H7N3O1\ROOT\24-Aug-2022\0\\#P Geom=AllChe
 ck Guess=TCheck SCRF=Check HF/GFHFB2 SCF=Tight\\Frag_623\\0,1\N,0,1.90
 69108272,-0.2091059329,0.2720039041\C,0,0.8587275146,0.64499132,0.2663
 938739\O,0,0.8895841425,1.7823570504,0.7038354726\C,0,-0.4107802009,0.
 0778702701,-0.4160357367\N,0,-1.5615542078,0.7354326051,0.1803363626\N
 ,0,-0.4382010037,-1.3853485691,-0.316359739\H,0,2.7634338753,0.0702923
 746,0.7192842172\H,0,1.7414714061,-1.1663797381,0.0029084128\H,0,-0.28
 34938282,0.3041798576,-1.4882189263\H,0,-2.2958209048,0.8842115316,-0.
 5023591148\H,0,-1.255728564,1.6448289241,0.520081913\H,0,-1.085243473,
 -1.7619284016,-1.0022384532\H,0,-0.8293055834,-1.621401292,0.593667814
 \\Version=ES64L-G09RevE.01\State=1-A\MP2/GTBas1=-318.9481009\MP4/GTBas
 1=-319.0190387\CCSD(T)/G3Bas1=-319.0163027\MP2/GTBas2=-318.9777882\MP4
 /GTBas2=-319.0501644\MP2/GTBas3=-319.1956905\MP4/GTBas3=-319.2815084\H
 F/GTLargeXP=-318.1576066\MP2/GTLargeXP=-319.6267055\HF/GFHFB1=-318.182
 1815\HF/GFHFB2=-318.187477\G4=-319.7593176\FreqCoord=3.6035392233,-0.3
 951529459,0.5140128857,1.6227598254,1.2188569529,0.5034114651,1.681070
 4015,3.3681666964,1.3300562857,-0.7762620805,0.1471534844,-0.786193603
 8,-2.9509097943,1.3897662128,0.3407863371,-0.8280798881,-2.6179293943,
 -0.5978332663,5.2221332106,0.1328333373,1.3592501821,3.2909040258,-2.2
 041382719,0.0054961036,-0.5357256956,0.574816626,-2.8123261964,-4.3384
 727603,1.6709176383,-0.9493211473,-2.3729830832,3.1082762021,0.9828123
 823,-2.0508129515,-3.3295621447,-1.8939561965,-1.5671604332,-3.0640043
 933,1.1218695823\PG=C01 [X(C2H7N3O1)]\NImag=0\\0.72742885,-0.01053133,
 0.77132544,0.24797000,0.21327777,0.17862318,-0.28161027,0.10971927,-0.
 03780307,0.57594844,0.09947854,-0.19816517,-0.01368232,-0.08584922,0.9
 1675925,-0.03180974,-0.02109454,-0.06663443,0.08196667,0.22968128,0.33
 572035,0.01503696,0.05868786,0.01874331,-0.11125088,-0.02215541,-0.018
 55795,0.10220082,0.03673061,-0.07443277,-0.02651298,-0.03109622,-0.607
 23680,-0.20664154,0.00556676,0.70635034,0.01078503,-0.01790103,0.01573
 270,-0.02213780,-0.20534201,-0.16133333,0.02124260,0.25432173,0.138245
 79,-0.03097200,-0.00282802,-0.01758914,-0.13238948,-0.01076381,-0.0261
 3487,0.00210973,-0.00710703,-0.00500665,0.47001682,0.01809820,0.007610
 78,0.00747920,-0.01812708,-0.07249279,-0.00475886,-0.02185057,-0.02542
 465,-0.02739280,0.00122619,0.48748740,-0.00608899,0.00063111,0.0068810
 2,-0.02245074,0.00270680,-0.09783562,-0.01037459,-0.02119329,0.0063226
 3,-0.00661006,-0.00818311,0.55851134,-0.00372068,-0.00275118,-0.002859
 27,-0.03872611,0.00967106,0.01104706,-0.00466118,0.00322227,-0.0007650
 8,-0.16803969,0.01692307,0.04720917,0.53791047,-0.00270576,0.00224996,
 -0.00119832,0.00324529,0.00025754,0.00508902,-0.00574357,0.00202133,-0
 .00144126,0.05342828,-0.10116261,-0.05164067,-0.02975710,0.51667002,-0
 .00315627,-0.00079558,-0.00107429,-0.01252687,0.00587904,0.00694210,-0
 .00289102,0.00005299,0.00178603,0.01568439,-0.01856894,-0.10462259,0.1
 9543224,0.15055017,0.38048156,-0.00668827,-0.00430220,-0.00239485,-0.0
 0254835,-0.02069342,0.00411070,-0.00055226,-0.00457666,-0.00440519,-0.
 06954763,-0.04488918,-0.00160262,0.00329989,0.03806530,0.00887123,0.35
 162397,-0.00384879,0.00200823,-0.00115534,-0.00142134,-0.02522273,-0.0
 0150332,-0.00503673,-0.00092174,-0.00199764,0.00923136,-0.18246678,0.0
 1040804,0.01154912,-0.03471660,-0.01409857,0.16327182,0.42158632,-0.00
 350781,-0.00168353,0.00130230,-0.00052164,-0.01956339,0.00230674,-0.00
 378703,-0.00285071,-0.00274101,-0.00830005,0.01587625,-0.09863800,0.00
 132840,-0.01780072,0.00575386,0.04436599,0.01489783,0.66473438,-0.3411
 9595,-0.08781630,-0.16528309,-0.02497904,-0.01090057,-0.01513247,0.004
 72299,-0.00307452,0.00288943,-0.00112750,0.00385988,0.00004665,-0.0005
 0528,-0.00002693,-0.00073450,0.00116448,0.00070442,0.00012108,0.361464
 76,-0.08631973,-0.09945501,-0.06540402,0.02023001,0.01631604,0.0144852
 7,-0.00471836,-0.00192646,-0.00045180,0.00241649,-0.00430518,-0.002826
 12,0.00130004,0.00065675,0.00098883,-0.00238978,0.00007191,-0.00081213
 ,0.09433895,0.08520181,-0.17593233,-0.06780153,-0.09731235,0.00272337,
 0.00002697,0.00060369,0.00128760,0.00158222,-0.00423294,-0.00130203,-0
 .00144557,0.00608638,-0.00033122,-0.00051978,-0.00058079,-0.00038148,-
 0.00001193,0.00028028,0.17472198,0.06352118,0.10169332,-0.07435039,-0.
 05484143,-0.03857353,0.01880864,0.02106390,0.01249444,-0.00774467,0.00
 854317,-0.00114200,-0.00166818,0.00601988,-0.00034057,0.00024933,-0.00
 195428,-0.00080112,-0.00045800,-0.00107461,0.00192529,0.00121351,-0.02
 455983,-0.00212631,0.06188844,-0.05181924,-0.41278612,-0.11340598,-0.0
 0182689,-0.02401224,-0.00418346,0.00263103,0.00336744,-0.00035073,0.00
 181577,0.00176858,-0.00040375,-0.00035252,-0.00087688,-0.00019081,-0.0
 0148751,-0.00294496,0.00013124,0.00308554,0.00301407,0.00419810,0.0489
 1972,0.43325168,-0.03866575,-0.10341208,-0.03924595,0.00885007,-0.0023
 7510,-0.00555219,-0.00271689,0.00088541,0.00743459,-0.00045892,0.00149
 999,-0.00095815,0.00022941,-0.00028019,-0.00049887,0.00011471,-0.00027
 313,-0.00350185,0.00359584,-0.00938106,-0.00695640,0.02822180,0.113837
 85,0.04945841,-0.00236081,-0.00050415,0.00112429,0.00396485,0.00665672
 ,-0.02665616,-0.00146933,-0.00244894,0.00202375,-0.04986596,-0.0043580
 3,0.00803922,-0.01066501,0.00335674,0.03147135,0.00281639,-0.00400824,
 0.00406923,-0.00034817,-0.00024416,0.00117466,-0.00025747,-0.00014896,
 -0.00085378,0.05636810,-0.00036597,0.00022040,0.00026203,0.00094514,0.
 00306600,-0.01119876,-0.00090161,-0.00087347,0.00139888,-0.00674280,-0
 .05490354,0.04102839,0.00917737,0.00295761,-0.01830143,-0.00373650,-0.
 01853269,0.03752300,-0.00016721,-0.00003498,0.00037433,-0.00037036,-0.
 00022528,0.00000700,0.00305552,0.07354094,-0.00112096,-0.00081282,0.00
 123096,-0.00005748,0.00309820,-0.01715380,-0.00164961,-0.00112677,0.00
 179004,0.01595446,0.05176609,-0.27108909,0.01072154,-0.00285502,-0.011
 74014,-0.00089466,0.00306861,-0.00454970,-0.00048161,-0.00004741,0.000
 34206,0.00019516,0.00023138,-0.00062416,-0.02374563,-0.05250837,0.2972
 8526,-0.00113205,-0.00103136,-0.00069342,-0.00429345,0.00386339,0.0027
 7648,0.00061661,0.00018213,0.00001432,-0.02399476,0.00284845,-0.021295
 78,-0.22614185,0.04060940,-0.17471104,-0.00015688,0.00071790,0.0005309
 2,-0.00022026,0.00041335,-0.00008081,0.00001550,-0.00003064,-0.0000020
 5,0.00295580,-0.00148955,-0.00074095,0.26042409,0.00039915,0.00062821,
 0.00041840,-0.00092557,-0.00306446,-0.00291925,-0.00170346,0.00150767,
 0.00130318,0.00979435,-0.00134602,0.01581919,0.06889788,-0.05406794,0.
 03141163,-0.00025967,-0.00184784,-0.00121806,0.00010550,-0.00015510,0.
 00005055,0.00001916,0.00004983,-0.00006168,-0.00005624,0.00007157,-0.0
 0183921,-0.04997384,0.05220555,0.00104523,0.00069946,0.00079124,0.0033
 1586,-0.00456131,-0.00165669,-0.00092148,0.00109943,0.00079945,0.02313
 505,-0.00266934,0.00765924,-0.22144284,0.01370923,-0.22155316,-0.00026
 930,0.00124333,0.00022776,0.00036376,-0.00025209,0.00013744,0.00003538
 ,0.00015314,-0.00002248,0.00019863,0.00037111,0.00262179,0.20228906,-0
 .01810822,0.22310182,0.00205762,-0.00408155,-0.00081354,-0.00475488,0.
 01284078,0.00353866,0.00217389,-0.00516324,-0.00225307,0.01225211,0.02
 689587,0.01130631,-0.08971292,-0.09768341,-0.05461184,-0.00598450,0.00
 543336,0.00139384,-0.00028421,0.00004700,0.00015486,0.00093990,0.00007
 416,0.00031932,-0.00190096,0.00031549,0.00117057,-0.00818105,-0.027079
 52,-0.00707867,0.09347807,0.00000295,-0.00063235,-0.00019788,0.0004552
 8,-0.00096280,-0.00095163,-0.00335683,-0.00063977,0.00030192,-0.004063
 48,-0.01934337,-0.00049695,-0.08853401,-0.34056585,-0.13726849,0.00400
 445,-0.00379282,-0.00255811,-0.00001469,0.00024588,0.00004977,-0.00028
 079,-0.00039866,-0.00015943,-0.00102988,0.00047431,0.00048312,0.003350
 56,0.00649700,0.00871454,0.08932562,0.35885047,-0.00028457,-0.00107944
 ,-0.00038406,-0.00100686,0.00179672,0.00299522,-0.00123897,-0.00023843
 ,-0.00407606,0.00382479,-0.01923287,-0.01148663,-0.04002503,-0.0916229
 0,-0.05561727,-0.00175201,0.00323563,0.00048022,-0.00012416,0.00010519
 ,0.00002288,0.00025276,-0.00009581,0.00030084,0.00127004,-0.00062551,-
 0.00081410,-0.00825404,-0.02464360,-0.01207955,0.04676446,0.13287058,0
 .08034850,-0.00142045,-0.00077789,-0.00009026,0.00031462,-0.00073262,0
 .00064175,-0.00040391,-0.00157958,-0.00089882,-0.00435152,0.00707722,0
 .00136646,0.00038346,0.00069617,0.00008030,-0.18473995,-0.11549644,-0.
 19131994,0.00025917,-0.00036097,0.00026838,0.00172800,-0.00038336,-0.0
 0088799,-0.00009524,-0.00009447,0.00092881,0.00021778,0.00053167,-0.00
 046804,-0.00050812,0.00018621,0.00015691,0.18283822,0.00062421,0.00143
 111,-0.00007247,0.00429055,-0.00577252,0.00278918,-0.00171224,-0.00118
 996,-0.00173611,-0.02870325,-0.01902651,-0.02722888,0.00060979,0.00129
 357,0.00111397,-0.08504083,-0.08950082,-0.07330097,-0.00002107,0.00033
 061,-0.00013657,-0.00141866,-0.00034504,0.00031921,0.00063245,0.001956
 44,0.00013834,0.00031478,-0.00079522,-0.00008424,-0.00025797,-0.000273
 60,-0.00013607,0.10380089,0.10820103,0.00080187,0.00015685,0.00035191,
 -0.00042977,0.00216318,0.00112827,0.00101449,0.00086089,0.00060254,0.0
 0290173,0.00245559,0.00341779,0.00094093,0.00065594,0.00028729,-0.1535
 0089,-0.08397528,-0.22396255,0.00000619,0.00010304,0.00003622,-0.00067
 489,-0.00015882,-0.00027277,0.00110853,0.00057050,0.00096710,-0.000291
 70,-0.00046175,0.00016894,-0.00008173,0.00006408,-0.00016984,0.1751744
 0,0.09161369,0.24307302,-0.00107257,0.00105828,-0.00173743,0.00151591,
 -0.00247933,0.00171544,-0.00077877,0.00080125,-0.00034653,-0.00242196,
 0.00627609,0.00079554,0.00032958,-0.00153014,-0.00210685,-0.08822889,-
 0.06002183,0.15370171,-0.00016450,-0.00015299,-0.00017667,-0.00036461,
 -0.00047712,0.00225424,0.00085783,0.00037494,-0.00027964,-0.00010948,0
 .00025058,-0.00020263,0.00042506,-0.00004538,0.00041670,0.00577794,0.0
 0688137,-0.02696918,0.08423446,0.00025715,-0.00000271,0.00019190,0.000
 36077,0.00053068,0.00120662,0.00029314,-0.00060117,-0.00071232,-0.0177
 0404,-0.01639533,0.04137924,0.00004422,0.00528310,-0.00077279,-0.03796
 581,-0.06371948,0.05135928,-0.00007302,0.00003965,0.00011225,-0.000065
 87,0.00013758,-0.00060679,-0.00090284,-0.00771732,0.00040387,0.0002254
 4,0.00031676,-0.00031503,-0.00066659,0.00054156,-0.00033350,0.00713318
 ,0.00369091,-0.01404789,0.04906427,0.07789576,-0.00003571,-0.00018463,
 -0.00026222,0.00007825,0.00017196,0.00046970,-0.00015046,-0.00023895,-
 0.00033042,0.00390131,0.00317437,-0.00424832,-0.00148532,-0.00264548,0
 .00043628,0.10773838,0.07016176,-0.34169244,0.00001091,-0.00002888,-0.
 00011980,0.00053360,0.00023765,0.00043897,0.00077587,0.00109884,0.0017
 3377,0.00045901,0.00024881,-0.00019578,0.00019082,-0.00085152,0.000479
 85,0.01504803,0.00672092,-0.02562792,-0.12706468,-0.07786484,0.3689183
 4\\-0.00001584,-0.00000034,0.00000503,0.00001258,-0.00001196,-0.000014
 08,-0.00000492,-0.00001077,0.00000218,-0.00002519,0.00006280,0.0000362
 1,0.00001836,-0.00001836,-0.00001878,0.00001357,-0.00003661,-0.0000039
 3,-0.00000014,0.00001478,-0.00000192,0.00002918,0.00001712,0.00000793,
 -0.00000100,-0.00000260,-0.00001554,-0.00000840,-0.00000496,0.00000501
 ,-0.00002461,-0.00000857,-0.00001588,0.00000220,-0.00000561,0.00000369
 ,0.00000420,0.00000509,0.00001009\\\@
 Job cpu time:       0 days  2 hours 33 minutes 45.5 seconds.
 File lengths (MBytes):  RWF=  11294 Int=      0 D2E=      0 Chk=     33 Scr=      1
 Normal termination of Gaussian 09 at Wed Aug 24 06:57:50 2022.
