 Entering Gaussian System, Link 0=g09
 Input=G4.Frag_598.gjf
 Output=G4.Frag_598.log
 Initial command:
 /public/home/users/caep010/software/Gaussian09/g09/l1.exe "/public/home/users/caep010/.cache/gau_scr/Gau-82592.inp" -scrdir="/public/home/users/caep010/.cache/gau_scr/"
 Entering Link 1 = /public/home/users/caep010/software/Gaussian09/g09/l1.exe PID=     82593.
  
 Copyright (c) 1988,1990,1992,1993,1995,1998,2003,2009,2015,
            Gaussian, Inc.  All Rights Reserved.
  
 This is part of the Gaussian(R) 09 program.  It is based on
 the Gaussian(R) 03 system (copyright 2003, Gaussian, Inc.),
 the Gaussian(R) 98 system (copyright 1998, Gaussian, Inc.),
 the Gaussian(R) 94 system (copyright 1995, Gaussian, Inc.),
 the Gaussian 92(TM) system (copyright 1992, Gaussian, Inc.),
 the Gaussian 90(TM) system (copyright 1990, Gaussian, Inc.),
 the Gaussian 88(TM) system (copyright 1988, Gaussian, Inc.),
 the Gaussian 86(TM) system (copyright 1986, Carnegie Mellon
 University), and the Gaussian 82(TM) system (copyright 1983,
 Carnegie Mellon University). Gaussian is a federally registered
 trademark of Gaussian, Inc.
  
 This software contains proprietary and confidential information,
 including trade secrets, belonging to Gaussian, Inc.
  
 This software is provided under written license and may be
 used, copied, transmitted, or stored only in accord with that
 written license.
  
 The following legend is applicable only to US Government
 contracts under FAR:
  
                    RESTRICTED RIGHTS LEGEND
  
 Use, reproduction and disclosure by the US Government is
 subject to restrictions as set forth in subparagraphs (a)
 and (c) of the Commercial Computer Software - Restricted
 Rights clause in FAR 52.227-19.
  
 Gaussian, Inc.
 340 Quinnipiac St., Bldg. 40, Wallingford CT 06492
  
  
 ---------------------------------------------------------------
 Warning -- This program may not be used in any manner that
 competes with the business of Gaussian, Inc. or will provide
 assistance to any competitor of Gaussian, Inc.  The licensee
 of this program is prohibited from giving any competitor of
 Gaussian, Inc. access to this program.  By using this program,
 the user acknowledges that Gaussian, Inc. is engaged in the
 business of creating and licensing software in the field of
 computational chemistry and represents and warrants to the
 licensee that it is not a competitor of Gaussian, Inc. and that
 it will not use this program in any manner prohibited above.
 ---------------------------------------------------------------
  

 Cite this work as:
 Gaussian 09, Revision E.01,
 M. J. Frisch, G. W. Trucks, H. B. Schlegel, G. E. Scuseria, 
 M. A. Robb, J. R. Cheeseman, G. Scalmani, V. Barone, B. Mennucci, 
 G. A. Petersson, H. Nakatsuji, M. Caricato, X. Li, H. P. Hratchian, 
 A. F. Izmaylov, J. Bloino, G. Zheng, J. L. Sonnenberg, M. Hada, 
 M. Ehara, K. Toyota, R. Fukuda, J. Hasegawa, M. Ishida, T. Nakajima, 
 Y. Honda, O. Kitao, H. Nakai, T. Vreven, J. A. Montgomery, Jr., 
 J. E. Peralta, F. Ogliaro, M. Bearpark, J. J. Heyd, E. Brothers, 
 K. N. Kudin, V. N. Staroverov, T. Keith, R. Kobayashi, J. Normand, 
 K. Raghavachari, A. Rendell, J. C. Burant, S. S. Iyengar, J. Tomasi, 
 M. Cossi, N. Rega, J. M. Millam, M. Klene, J. E. Knox, J. B. Cross, 
 V. Bakken, C. Adamo, J. Jaramillo, R. Gomperts, R. E. Stratmann, 
 O. Yazyev, A. J. Austin, R. Cammi, C. Pomelli, J. W. Ochterski, 
 R. L. Martin, K. Morokuma, V. G. Zakrzewski, G. A. Voth, 
 P. Salvador, J. J. Dannenberg, S. Dapprich, A. D. Daniels, 
 O. Farkas, J. B. Foresman, J. V. Ortiz, J. Cioslowski, 
 and D. J. Fox, Gaussian, Inc., Wallingford CT, 2013.
 
 ******************************************
 Gaussian 09:  ES64L-G09RevE.01 30-Nov-2015
                 1-Sep-2022 
 ******************************************
 %nproc=32
 Will use up to   32 processors via shared memory.
 %mem=180GB
 %chk=G4.Frag_598.chk
 -----
 #P G4
 -----
 1/14=-1,18=20,19=15,26=3,38=1/1,3;
 2/9=110,12=2,17=6,18=5,40=1/2;
 3/5=35,7=104,11=2,16=1,25=1,30=1,71=1,74=-5/1,2,3;
 4//1;
 5/5=2,38=5/2;
 6/7=2,8=2,9=2,10=2,28=1/1;
 7//1,2,3,16;
 1/14=-1,18=20,19=15,26=3/3(2);
 2/9=110/2;
 99//99;
 2/9=110/2;
 3/5=35,7=104,11=2,16=1,25=1,30=1,71=1,74=-5/1,2,3;
 4/5=5,16=3,69=1/1;
 5/5=2,38=5/2;
 7//1,2,3,16;
 1/14=-1,18=20,19=15,26=3/3(-5);
 2/9=110/2;
 6/7=2,8=2,9=2,10=2,19=2,28=1/1;
 99/9=1/99;
 Leave Link    1 at Thu Sep  1 15:42:50 2022, MaxMem= 24159191040 cpu:         3.1
 (Enter /public/home/users/caep010/software/Gaussian09/g09/l101.exe)
 --------
 Frag_598
 --------
 Symbolic Z-matrix:
 Charge =  0 Multiplicity = 1
 C                    -1.25574  -0.38515   0.11979 
 N                    -0.05951  -0.62188  -0.6654 
 C                     0.99766   0.00824  -0.42279 
 O                     1.14941   0.93843   0.54438 
 H                    -1.12666   0.32326   1.10228 
 H                    -2.17477   0.06864  -0.63138 
 H                    -1.48077  -1.42464   0.43052 
 H                     1.8941   -0.17193  -1.01132 
 H                     2.05328   1.26812   0.55903 
 
 NAtoms=      9 NQM=        9 NQMF=       0 NMMI=      0 NMMIF=      0
                NMic=       0 NMicF=      0.
                    Isotopes and Nuclear Properties:
 (Nuclear quadrupole moments (NQMom) in fm**2, nuclear magnetic moments (NMagM)
  in nuclear magnetons)

  Atom         1           2           3           4           5           6           7           8           9
 IAtWgt=          12          14          12          16           1           1           1           1           1
 AtmWgt=  12.0000000  14.0030740  12.0000000  15.9949146   1.0078250   1.0078250   1.0078250   1.0078250   1.0078250
 NucSpn=           0           2           0           0           1           1           1           1           1
 AtZEff=   0.0000000   0.0000000   0.0000000   0.0000000   0.0000000   0.0000000   0.0000000   0.0000000   0.0000000
 NQMom=    0.0000000   2.0440000   0.0000000   0.0000000   0.0000000   0.0000000   0.0000000   0.0000000   0.0000000
 NMagM=    0.0000000   0.4037610   0.0000000   0.0000000   2.7928460   2.7928460   2.7928460   2.7928460   2.7928460
 AtZNuc=   6.0000000   7.0000000   6.0000000   8.0000000   1.0000000   1.0000000   1.0000000   1.0000000   1.0000000
 Leave Link  101 at Thu Sep  1 15:42:50 2022, MaxMem= 24159191040 cpu:        10.6
 (Enter /public/home/users/caep010/software/Gaussian09/g09/l103.exe)

 GradGradGradGradGradGradGradGradGradGradGradGradGradGradGradGradGradGrad
 Berny optimization.
 Initialization pass.
                           ----------------------------
                           !    Initial Parameters    !
                           ! (Angstroms and Degrees)  !
 --------------------------                            --------------------------
 ! Name  Definition              Value          Derivative Info.                !
 --------------------------------------------------------------------------------
 ! R1    R(1,2)                  1.4504         estimate D2E/DX2                !
 ! R2    R(1,5)                  1.2181         estimate D2E/DX2                !
 ! R3    R(1,6)                  1.2708         estimate D2E/DX2                !
 ! R4    R(1,7)                  1.108          estimate D2E/DX2                !
 ! R5    R(2,3)                  1.2544         estimate D2E/DX2                !
 ! R6    R(3,4)                  1.3504         estimate D2E/DX2                !
 ! R7    R(3,8)                  1.0874         estimate D2E/DX2                !
 ! R8    R(4,9)                  0.9622         estimate D2E/DX2                !
 ! A1    A(2,1,5)              116.3711         estimate D2E/DX2                !
 ! A2    A(2,1,6)              109.5582         estimate D2E/DX2                !
 ! A3    A(2,1,7)               99.567          estimate D2E/DX2                !
 ! A4    A(5,1,6)              110.2273         estimate D2E/DX2                !
 ! A5    A(5,1,7)              109.9333         estimate D2E/DX2                !
 ! A6    A(6,1,7)              110.726          estimate D2E/DX2                !
 ! A7    A(1,2,3)              120.5577         estimate D2E/DX2                !
 ! A8    A(2,3,4)              125.3955         estimate D2E/DX2                !
 ! A9    A(2,3,8)              120.4552         estimate D2E/DX2                !
 ! A10   A(4,3,8)              114.1493         estimate D2E/DX2                !
 ! A11   A(3,4,9)              110.638          estimate D2E/DX2                !
 ! D1    D(5,1,2,3)             -8.3832         estimate D2E/DX2                !
 ! D2    D(6,1,2,3)            117.4667         estimate D2E/DX2                !
 ! D3    D(7,1,2,3)           -126.382          estimate D2E/DX2                !
 ! D4    D(1,2,3,4)             -0.1545         estimate D2E/DX2                !
 ! D5    D(1,2,3,8)            179.8836         estimate D2E/DX2                !
 ! D6    D(2,3,4,9)            178.3909         estimate D2E/DX2                !
 ! D7    D(8,3,4,9)             -1.6452         estimate D2E/DX2                !
 --------------------------------------------------------------------------------
 Trust Radius=3.00D-01 FncErr=1.00D-07 GrdErr=1.00D-06
 Number of steps in this run=     36 maximum allowed number of steps=    100.
 GradGradGradGradGradGradGradGradGradGradGradGradGradGradGradGradGradGrad

 Leave Link  103 at Thu Sep  1 15:42:50 2022, MaxMem= 24159191040 cpu:         0.5
 (Enter /public/home/users/caep010/software/Gaussian09/g09/l202.exe)
                          Input orientation:                          
 ---------------------------------------------------------------------
 Center     Atomic      Atomic             Coordinates (Angstroms)
 Number     Number       Type             X           Y           Z
 ---------------------------------------------------------------------
      1          6           0       -1.255736   -0.385148    0.119792
      2          7           0       -0.059511   -0.621877   -0.665398
      3          6           0        0.997662    0.008244   -0.422790
      4          8           0        1.149405    0.938426    0.544377
      5          1           0       -1.126656    0.323260    1.102278
      6          1           0       -2.174772    0.068638   -0.631384
      7          1           0       -1.480769   -1.424636    0.430516
      8          1           0        1.894101   -0.171926   -1.011321
      9          1           0        2.053275    1.268119    0.559029
 ---------------------------------------------------------------------
                    Distance matrix (angstroms):
                    1          2          3          4          5
     1  C    0.000000
     2  N    1.450351   0.000000
     3  C    2.350948   1.254403   0.000000
     4  O    2.777917   2.315076   1.350436   0.000000
     5  H    1.218106   2.270850   2.633969   2.422836   0.000000
     6  H    1.270753   2.225376   3.179858   3.631680   2.041804
     7  H    1.108027   1.966068   2.987289   3.537632   1.905728
     8  H    3.353558   2.034384   1.087397   2.051256   3.719877
     9  H    3.725020   3.087907   1.914568   0.962233   3.361523
                    6          7          8          9
     6  H    0.000000
     7  H    1.959372   0.000000
     8  H    4.093648   3.877876   0.000000
     9  H    4.553265   4.444875   2.136601   0.000000
 Stoichiometry    C2H5NO
 Framework group  C1[X(C2H5NO)]
 Deg. of freedom    21
 Full point group                 C1      NOp   1
 Largest Abelian subgroup         C1      NOp   1
 Largest concise Abelian subgroup C1      NOp   1
                         Standard orientation:                         
 ---------------------------------------------------------------------
 Center     Atomic      Atomic             Coordinates (Angstroms)
 Number     Number       Type             X           Y           Z
 ---------------------------------------------------------------------
      1          6           0       -1.465807   -0.414525   -0.013216
      2          7           0       -0.576996    0.731507   -0.001270
      3          6           0        0.667381    0.573434    0.006865
      4          8           0        1.304622   -0.617195    0.008592
      5          1           0       -0.943093   -1.502980   -0.173895
      6          1           0       -2.170523   -0.417365    1.044225
      7          1           0       -2.084490   -0.158557   -0.896072
      8          1           0        1.332239    1.433868    0.013912
      9          1           0        2.258418   -0.491409   -0.009917
 ---------------------------------------------------------------------
 Rotational constants (GHZ):     19.3682273      6.1571116      4.8459195
 Leave Link  202 at Thu Sep  1 15:42:50 2022, MaxMem= 24159191040 cpu:         0.4
 (Enter /public/home/users/caep010/software/Gaussian09/g09/l301.exe)
 Standard basis: GTBas3 (6D, 7F)
 Ernie: Thresh=  0.10000D-02 Tol=  0.10000D-05 Strict=F.
 There are   149 symmetry adapted cartesian basis functions of A   symmetry.
 There are   137 symmetry adapted basis functions of A   symmetry.
   137 basis functions,   211 primitive gaussians,   149 cartesian basis functions
    16 alpha electrons       16 beta electrons
       nuclear repulsion energy       120.1420489065 Hartrees.
 IExCor=  402 DFT=T Ex+Corr=B3LYP ExCW=0 ScaHFX=  0.200000
 ScaDFX=  0.800000  0.720000  1.000000  0.810000 ScalE2=  1.000000  1.000000
 IRadAn=      0 IRanWt=     -1 IRanGd=            0 ICorTp=0 IEmpDi=  4
 NAtoms=    9 NActive=    9 NUniq=    9 SFac= 1.00D+00 NAtFMM=   60 NAOKFM=F Big=F
 Integral buffers will be    131072 words long.
 Raffenetti 2 integral format.
 Two-electron integral symmetry is turned on.
 Leave Link  301 at Thu Sep  1 15:42:50 2022, MaxMem= 24159191040 cpu:         2.0
 (Enter /public/home/users/caep010/software/Gaussian09/g09/l302.exe)
 NPDir=0 NMtPBC=     1 NCelOv=     1 NCel=       1 NClECP=     1 NCelD=      1
         NCelK=      1 NCelE2=     1 NClLst=     1 CellRange=     0.0.
 One-electron integrals computed using PRISM.
 NBasis=   137 RedAO= T EigKep=  4.33D-04  NBF=   137
 NBsUse=   137 1.00D-06 EigRej= -1.00D+00 NBFU=   137
 Precomputing XC quadrature grid using
 IXCGrd= 4 IRadAn=           0 IRanWt=          -1 IRanGd=           0 AccXCQ= 0.00D+00.
 Generated NRdTot=       0 NPtTot=           0 NUsed=           0 NTot=          32
 NSgBfM=   149   149   149   149   149 MxSgAt=     9 MxSgA2=     9.
 Leave Link  302 at Thu Sep  1 15:42:51 2022, MaxMem= 24159191040 cpu:        14.1
 (Enter /public/home/users/caep010/software/Gaussian09/g09/l303.exe)
 DipDrv:  MaxL=1.
 Leave Link  303 at Thu Sep  1 15:42:51 2022, MaxMem= 24159191040 cpu:         1.3
 (Enter /public/home/users/caep010/software/Gaussian09/g09/l401.exe)
 ExpMin= 1.61D-01 ExpMax= 5.48D+03 ExpMxC= 8.25D+02 IAcc=1 IRadAn=         1 AccDes= 0.00D+00
 Harris functional with IExCor=  402 and IRadAn=       1 diagonalized for initial guess.
 HarFok:  IExCor=  402 AccDes= 0.00D+00 IRadAn=         1 IDoV= 1 UseB2=F ITyADJ=14
 ICtDFT=  3500011 ScaDFX=  1.000000  1.000000  1.000000  1.000000
 FoFCou: FMM=F IPFlag=           0 FMFlag=      100000 FMFlg1=           0
         NFxFlg=           0 DoJE=T BraDBF=F KetDBF=T FulRan=T
         wScrn=  0.000000 ICntrl=     500 IOpCl=  0 I1Cent=   200000004 NGrid=           0
         NMat0=    1 NMatS0=      1 NMatT0=    0 NMatD0=    1 NMtDS0=    0 NMtDT0=    0
 Petite list used in FoFCou.
 Harris En= -209.171258160021    
 JPrj=0 DoOrth=F DoCkMO=F.
 Leave Link  401 at Thu Sep  1 15:42:51 2022, MaxMem= 24159191040 cpu:        12.5
 (Enter /public/home/users/caep010/software/Gaussian09/g09/l502.exe)
 Closed shell SCF:
 Using DIIS extrapolation, IDIIS=  1040.
 Integral symmetry usage will be decided dynamically.
 Keep R1 ints in memory in canonical form, NReq=46767871.
 IVT=       91009 IEndB=       91009 NGot= 24159191040 MDV= 24114415701
 LenX= 24114415701 LenY= 24114393059
 Requested convergence on RMS density matrix=1.00D-08 within 128 cycles.
 Requested convergence on MAX density matrix=1.00D-06.
 Requested convergence on             energy=1.00D-06.
 No special actions if energy rises.
 FoFCou: FMM=F IPFlag=           0 FMFlag=           0 FMFlg1=           0
         NFxFlg=           0 DoJE=F BraDBF=F KetDBF=F FulRan=T
         wScrn=  0.000000 ICntrl=     600 IOpCl=  0 I1Cent=           0 NGrid=           0
         NMat0=    1 NMatS0=   9453 NMatT0=    0 NMatD0=    1 NMtDS0=    0 NMtDT0=    0
 Symmetry not used in FoFCou.
 Integral accuracy reduced to 1.0D-05 until final iterations.

 Cycle   1  Pass 0  IDiag  1:
 E= -209.058000471204    
 DIIS: error= 2.16D-02 at cycle   1 NSaved=   1.
 NSaved= 1 IEnMin= 1 EnMin= -209.058000471204     IErMin= 1 ErrMin= 2.16D-02
 ErrMax= 2.16D-02  0.00D+00 EMaxC= 1.00D-01 BMatC= 1.23D-01 BMatP= 1.23D-01
 IDIUse=3 WtCom= 7.84D-01 WtEn= 2.16D-01
 Coeff-Com:  0.100D+01
 Coeff-En:   0.100D+01
 Coeff:      0.100D+01
 Gap=     0.251 Goal=   None    Shift=    0.000
 GapD=    0.251 DampG=1.000 DampE=0.500 DampFc=0.5000 IDamp=-1.
 Damping current iteration by 5.00D-01
 RMSDP=5.85D-03 MaxDP=1.51D-01              OVMax= 2.01D-01

 Cycle   2  Pass 0  IDiag  1:
 E= -209.092742309020     Delta-E=       -0.034741837816 Rises=F Damp=T
 DIIS: error= 9.48D-03 at cycle   2 NSaved=   2.
 NSaved= 2 IEnMin= 2 EnMin= -209.092742309020     IErMin= 2 ErrMin= 9.48D-03
 ErrMax= 9.48D-03  0.00D+00 EMaxC= 1.00D-01 BMatC= 1.42D-02 BMatP= 1.23D-01
 IDIUse=3 WtCom= 9.05D-01 WtEn= 9.48D-02
 Coeff-Com:  0.175D+00 0.825D+00
 Coeff-En:   0.302D+00 0.698D+00
 Coeff:      0.187D+00 0.813D+00
 Gap=     0.314 Goal=   None    Shift=    0.000
 RMSDP=1.44D-03 MaxDP=4.15D-02 DE=-3.47D-02 OVMax= 1.60D-01

 Cycle   3  Pass 0  IDiag  1:
 E= -209.157821784704     Delta-E=       -0.065079475684 Rises=F Damp=F
 DIIS: error= 7.24D-03 at cycle   3 NSaved=   3.
 NSaved= 3 IEnMin= 3 EnMin= -209.157821784704     IErMin= 3 ErrMin= 7.24D-03
 ErrMax= 7.24D-03  0.00D+00 EMaxC= 1.00D-01 BMatC= 9.58D-03 BMatP= 1.42D-02
 IDIUse=3 WtCom= 9.28D-01 WtEn= 7.24D-02
 Coeff-Com:  0.488D-01 0.443D+00 0.508D+00
 Coeff-En:   0.000D+00 0.000D+00 0.100D+01
 Coeff:      0.452D-01 0.411D+00 0.543D+00
 Gap=     0.283 Goal=   None    Shift=    0.000
 RMSDP=8.36D-04 MaxDP=3.24D-02 DE=-6.51D-02 OVMax= 6.49D-02

 Cycle   4  Pass 0  IDiag  1:
 E= -209.163953445029     Delta-E=       -0.006131660325 Rises=F Damp=F
 DIIS: error= 2.63D-03 at cycle   4 NSaved=   4.
 NSaved= 4 IEnMin= 4 EnMin= -209.163953445029     IErMin= 4 ErrMin= 2.63D-03
 ErrMax= 2.63D-03  0.00D+00 EMaxC= 1.00D-01 BMatC= 2.93D-03 BMatP= 9.58D-03
 IDIUse=3 WtCom= 9.74D-01 WtEn= 2.63D-02
 Coeff-Com: -0.614D-03 0.104D+00 0.360D+00 0.536D+00
 Coeff-En:   0.000D+00 0.000D+00 0.257D+00 0.743D+00
 Coeff:     -0.598D-03 0.101D+00 0.357D+00 0.542D+00
 Gap=     0.280 Goal=   None    Shift=    0.000
 RMSDP=3.50D-04 MaxDP=1.11D-02 DE=-6.13D-03 OVMax= 2.24D-02

 Cycle   5  Pass 0  IDiag  1:
 E= -209.166224301536     Delta-E=       -0.002270856507 Rises=F Damp=F
 DIIS: error= 6.67D-04 at cycle   5 NSaved=   5.
 NSaved= 5 IEnMin= 5 EnMin= -209.166224301536     IErMin= 5 ErrMin= 6.67D-04
 ErrMax= 6.67D-04  0.00D+00 EMaxC= 1.00D-01 BMatC= 1.30D-04 BMatP= 2.93D-03
 IDIUse=3 WtCom= 9.93D-01 WtEn= 6.67D-03
 Coeff-Com: -0.213D-02 0.170D-01 0.143D+00 0.283D+00 0.559D+00
 Coeff-En:   0.000D+00 0.000D+00 0.000D+00 0.000D+00 0.100D+01
 Coeff:     -0.212D-02 0.169D-01 0.142D+00 0.281D+00 0.562D+00
 Gap=     0.280 Goal=   None    Shift=    0.000
 RMSDP=8.07D-05 MaxDP=2.22D-03 DE=-2.27D-03 OVMax= 2.61D-03

 Cycle   6  Pass 0  IDiag  1:
 E= -209.166325337793     Delta-E=       -0.000101036257 Rises=F Damp=F
 DIIS: error= 1.81D-04 at cycle   6 NSaved=   6.
 NSaved= 6 IEnMin= 6 EnMin= -209.166325337793     IErMin= 6 ErrMin= 1.81D-04
 ErrMax= 1.81D-04  0.00D+00 EMaxC= 1.00D-01 BMatC= 7.82D-06 BMatP= 1.30D-04
 IDIUse=3 WtCom= 9.98D-01 WtEn= 1.81D-03
 Coeff-Com: -0.918D-03 0.224D-03 0.430D-01 0.939D-01 0.276D+00 0.588D+00
 Coeff-En:   0.000D+00 0.000D+00 0.000D+00 0.000D+00 0.000D+00 0.100D+01
 Coeff:     -0.916D-03 0.223D-03 0.429D-01 0.937D-01 0.276D+00 0.588D+00
 Gap=     0.280 Goal=   None    Shift=    0.000
 RMSDP=1.60D-05 MaxDP=3.93D-04 DE=-1.01D-04 OVMax= 5.64D-04

 Cycle   7  Pass 0  IDiag  1:
 E= -209.166332053378     Delta-E=       -0.000006715585 Rises=F Damp=F
 DIIS: error= 1.87D-05 at cycle   7 NSaved=   7.
 NSaved= 7 IEnMin= 7 EnMin= -209.166332053378     IErMin= 7 ErrMin= 1.87D-05
 ErrMax= 1.87D-05  0.00D+00 EMaxC= 1.00D-01 BMatC= 7.43D-08 BMatP= 7.82D-06
 IDIUse=1 WtCom= 1.00D+00 WtEn= 0.00D+00
 Coeff-Com: -0.549D-05-0.694D-03 0.461D-02 0.921D-02 0.430D-01 0.115D+00
 Coeff-Com:  0.829D+00
 Coeff:     -0.549D-05-0.694D-03 0.461D-02 0.921D-02 0.430D-01 0.115D+00
 Coeff:      0.829D+00
 Gap=     0.280 Goal=   None    Shift=    0.000
 RMSDP=2.71D-06 MaxDP=6.60D-05 DE=-6.72D-06 OVMax= 1.12D-04

 Initial convergence to 1.0D-05 achieved.  Increase integral accuracy.
 Cycle   8  Pass 1  IDiag  1:
 E= -209.166358221282     Delta-E=       -0.000026167903 Rises=F Damp=F
 DIIS: error= 1.16D-05 at cycle   1 NSaved=   1.
 NSaved= 1 IEnMin= 1 EnMin= -209.166358221282     IErMin= 1 ErrMin= 1.16D-05
 ErrMax= 1.16D-05  0.00D+00 EMaxC= 1.00D-01 BMatC= 3.85D-08 BMatP= 3.85D-08
 IDIUse=1 WtCom= 1.00D+00 WtEn= 0.00D+00
 Coeff-Com:  0.100D+01
 Coeff:      0.100D+01
 Gap=     0.280 Goal=   None    Shift=    0.000
 RMSDP=2.71D-06 MaxDP=6.60D-05 DE=-2.62D-05 OVMax= 7.22D-05

 Cycle   9  Pass 1  IDiag  1:
 E= -209.166358220950     Delta-E=        0.000000000331 Rises=F Damp=F
 DIIS: error= 1.43D-05 at cycle   2 NSaved=   2.
 NSaved= 2 IEnMin= 1 EnMin= -209.166358221282     IErMin= 1 ErrMin= 1.16D-05
 ErrMax= 1.43D-05  0.00D+00 EMaxC= 1.00D-01 BMatC= 3.77D-08 BMatP= 3.85D-08
 IDIUse=1 WtCom= 1.00D+00 WtEn= 0.00D+00
 Coeff-Com:  0.497D+00 0.503D+00
 Coeff:      0.497D+00 0.503D+00
 Gap=     0.280 Goal=   None    Shift=    0.000
 RMSDP=1.46D-06 MaxDP=4.40D-05 DE= 3.31D-10 OVMax= 6.69D-05

 Cycle  10  Pass 1  IDiag  1:
 E= -209.166358254180     Delta-E=       -0.000000033229 Rises=F Damp=F
 DIIS: error= 3.53D-06 at cycle   3 NSaved=   3.
 NSaved= 3 IEnMin= 3 EnMin= -209.166358254180     IErMin= 3 ErrMin= 3.53D-06
 ErrMax= 3.53D-06  0.00D+00 EMaxC= 1.00D-01 BMatC= 3.38D-09 BMatP= 3.77D-08
 IDIUse=1 WtCom= 1.00D+00 WtEn= 0.00D+00
 Coeff-Com:  0.579D-01 0.231D+00 0.711D+00
 Coeff:      0.579D-01 0.231D+00 0.711D+00
 Gap=     0.280 Goal=   None    Shift=    0.000
 RMSDP=5.67D-07 MaxDP=1.94D-05 DE=-3.32D-08 OVMax= 3.71D-05

 Cycle  11  Pass 1  IDiag  1:
 E= -209.166358255653     Delta-E=       -0.000000001474 Rises=F Damp=F
 DIIS: error= 2.13D-06 at cycle   4 NSaved=   4.
 NSaved= 4 IEnMin= 4 EnMin= -209.166358255653     IErMin= 4 ErrMin= 2.13D-06
 ErrMax= 2.13D-06  0.00D+00 EMaxC= 1.00D-01 BMatC= 1.95D-09 BMatP= 3.38D-09
 IDIUse=1 WtCom= 1.00D+00 WtEn= 0.00D+00
 Coeff-Com: -0.121D-01 0.112D+00 0.509D+00 0.391D+00
 Coeff:     -0.121D-01 0.112D+00 0.509D+00 0.391D+00
 Gap=     0.280 Goal=   None    Shift=    0.000
 RMSDP=2.70D-07 MaxDP=1.11D-05 DE=-1.47D-09 OVMax= 1.79D-05

 Cycle  12  Pass 1  IDiag  1:
 E= -209.166358257308     Delta-E=       -0.000000001655 Rises=F Damp=F
 DIIS: error= 1.19D-07 at cycle   5 NSaved=   5.
 NSaved= 5 IEnMin= 5 EnMin= -209.166358257308     IErMin= 5 ErrMin= 1.19D-07
 ErrMax= 1.19D-07  0.00D+00 EMaxC= 1.00D-01 BMatC= 5.19D-12 BMatP= 1.95D-09
 IDIUse=1 WtCom= 1.00D+00 WtEn= 0.00D+00
 Coeff-Com: -0.568D-02 0.335D-01 0.158D+00 0.135D+00 0.679D+00
 Coeff:     -0.568D-02 0.335D-01 0.158D+00 0.135D+00 0.679D+00
 Gap=     0.280 Goal=   None    Shift=    0.000
 RMSDP=1.66D-08 MaxDP=3.95D-07 DE=-1.65D-09 OVMax= 6.78D-07

 Cycle  13  Pass 1  IDiag  1:
 E= -209.166358257315     Delta-E=       -0.000000000006 Rises=F Damp=F
 DIIS: error= 2.75D-08 at cycle   6 NSaved=   6.
 NSaved= 6 IEnMin= 6 EnMin= -209.166358257315     IErMin= 6 ErrMin= 2.75D-08
 ErrMax= 2.75D-08  0.00D+00 EMaxC= 1.00D-01 BMatC= 1.99D-13 BMatP= 5.19D-12
 IDIUse=1 WtCom= 1.00D+00 WtEn= 0.00D+00
 Coeff-Com: -0.816D-03 0.289D-02 0.129D-01 0.159D-01 0.158D+00 0.811D+00
 Coeff:     -0.816D-03 0.289D-02 0.129D-01 0.159D-01 0.158D+00 0.811D+00
 Gap=     0.280 Goal=   None    Shift=    0.000
 RMSDP=4.82D-09 MaxDP=1.21D-07 DE=-6.42D-12 OVMax= 1.54D-07

 SCF Done:  E(RB3LYP) =  -209.166358257     A.U. after   13 cycles
            NFock= 13  Conv=0.48D-08     -V/T= 2.0082
 KE= 2.074749847484D+02 PE=-7.291577704349D+02 EE= 1.923743785227D+02
 Leave Link  502 at Thu Sep  1 15:42:54 2022, MaxMem= 24159191040 cpu:        44.8
 (Enter /public/home/users/caep010/software/Gaussian09/g09/l601.exe)
 Copying SCF densities to generalized density rwf, IOpCl= 0 IROHF=0.

 **********************************************************************

            Population analysis using the SCF density.

 **********************************************************************

 Orbital symmetries:
       Occupied  (A) (A) (A) (A) (A) (A) (A) (A) (A) (A) (A) (A)
                 (A) (A) (A) (A)
       Virtual   (A) (A) (A) (A) (A) (A) (A) (A) (A) (A) (A) (A)
                 (A) (A) (A) (A) (A) (A) (A) (A) (A) (A) (A) (A)
                 (A) (A) (A) (A) (A) (A) (A) (A) (A) (A) (A) (A)
                 (A) (A) (A) (A) (A) (A) (A) (A) (A) (A) (A) (A)
                 (A) (A) (A) (A) (A) (A) (A) (A) (A) (A) (A) (A)
                 (A) (A) (A) (A) (A) (A) (A) (A) (A) (A) (A) (A)
                 (A) (A) (A) (A) (A) (A) (A) (A) (A) (A) (A) (A)
                 (A) (A) (A) (A) (A) (A) (A) (A) (A) (A) (A) (A)
                 (A) (A) (A) (A) (A) (A) (A) (A) (A) (A) (A) (A)
                 (A) (A) (A) (A) (A) (A) (A) (A) (A) (A) (A) (A)
                 (A)
 The electronic state is 1-A.
 Alpha  occ. eigenvalues --  -19.18009 -14.30558 -10.26561 -10.22024  -1.07525
 Alpha  occ. eigenvalues --   -0.89949  -0.68921  -0.59064  -0.54731  -0.45603
 Alpha  occ. eigenvalues --   -0.42820  -0.38686  -0.37494  -0.35915  -0.25626
 Alpha  occ. eigenvalues --   -0.25049
 Alpha virt. eigenvalues --    0.02982   0.05620   0.10579   0.13815   0.15437
 Alpha virt. eigenvalues --    0.16262   0.20650   0.27743   0.33580   0.46199
 Alpha virt. eigenvalues --    0.48160   0.49608   0.53528   0.54871   0.57543
 Alpha virt. eigenvalues --    0.60882   0.66919   0.68192   0.72451   0.74285
 Alpha virt. eigenvalues --    0.74871   0.76836   0.77683   0.78895   0.81548
 Alpha virt. eigenvalues --    0.83260   0.88692   0.89766   0.96531   0.98621
 Alpha virt. eigenvalues --    1.03901   1.08701   1.11523   1.16764   1.24491
 Alpha virt. eigenvalues --    1.35669   1.38006   1.40648   1.42808   1.46751
 Alpha virt. eigenvalues --    1.49972   1.52199   1.61388   1.65177   1.74030
 Alpha virt. eigenvalues --    1.81048   1.89834   1.90667   1.99302   2.11900
 Alpha virt. eigenvalues --    2.18718   2.21100   2.26487   2.37055   2.39933
 Alpha virt. eigenvalues --    2.56302   2.57527   2.59725   2.62018   2.68172
 Alpha virt. eigenvalues --    2.73688   2.78207   2.79470   2.87285   2.96296
 Alpha virt. eigenvalues --    2.97482   2.97711   3.08944   3.09508   3.18185
 Alpha virt. eigenvalues --    3.25267   3.29995   3.35647   3.41187   3.51904
 Alpha virt. eigenvalues --    3.54538   3.56664   3.67234   3.72180   3.81675
 Alpha virt. eigenvalues --    3.91537   3.96599   4.08948   4.12089   4.13968
 Alpha virt. eigenvalues --    4.22367   4.24701   4.26123   4.32434   4.37034
 Alpha virt. eigenvalues --    4.40667   4.42439   4.46201   4.48270   4.53434
 Alpha virt. eigenvalues --    4.57993   4.63666   4.67984   4.73781   4.84480
 Alpha virt. eigenvalues --    4.91150   4.92802   4.95558   5.01878   5.19326
 Alpha virt. eigenvalues --    5.26680   5.37780   5.40847   5.46250   5.52478
 Alpha virt. eigenvalues --    5.66937   5.78081   5.86573   6.09765   6.33628
 Alpha virt. eigenvalues --    7.03653  10.21952  10.85222  11.39545  12.54747
 Alpha virt. eigenvalues --   13.14418
          Condensed to atoms (all electrons):
               1          2          3          4          5          6
     1  C    4.994298   0.369781  -0.105972  -0.013893   0.350721   0.347837
     2  N    0.369781   6.320995   0.684104  -0.049527  -0.032691  -0.021722
     3  C   -0.105972   0.684104   4.564843   0.404288   0.000051   0.000649
     4  O   -0.013893  -0.049527   0.404288   7.758567   0.008639   0.000434
     5  H    0.350721  -0.032691   0.000051   0.008639   0.622982  -0.027794
     6  H    0.347837  -0.021722   0.000649   0.000434  -0.027794   0.621188
     7  H    0.371696  -0.033960   0.001072   0.000607  -0.030085  -0.023485
     8  H    0.009532  -0.035930   0.364757  -0.055044   0.000006  -0.000146
     9  H    0.000471   0.007497  -0.044724   0.305518  -0.000739  -0.000004
               7          8          9
     1  C    0.371696   0.009532   0.000471
     2  N   -0.033960  -0.035930   0.007497
     3  C    0.001072   0.364757  -0.044724
     4  O    0.000607  -0.055044   0.305518
     5  H   -0.030085   0.000006  -0.000739
     6  H   -0.023485  -0.000146  -0.000004
     7  H    0.575656  -0.000317  -0.000005
     8  H   -0.000317   0.618744  -0.005936
     9  H   -0.000005  -0.005936   0.431346
 Mulliken charges:
               1
     1  C   -0.324473
     2  N   -0.208547
     3  C    0.130932
     4  O   -0.359591
     5  H    0.108909
     6  H    0.103042
     7  H    0.138819
     8  H    0.104334
     9  H    0.306574
 Sum of Mulliken charges =  -0.00000
 Mulliken charges with hydrogens summed into heavy atoms:
               1
     1  C    0.026297
     2  N   -0.208547
     3  C    0.235266
     4  O   -0.053016
 Electronic spatial extent (au):  <R**2>=            282.4389
 Charge=              0.0000 electrons
 Dipole moment (field-independent basis, Debye):
    X=              2.4172    Y=             -0.4103    Z=             -0.1096  Tot=              2.4542
 Quadrupole moment (field-independent basis, Debye-Ang):
   XX=            -17.5638   YY=            -26.4932   ZZ=            -24.5357
   XY=              2.0798   XZ=             -0.0148   YZ=              0.0012
 Traceless Quadrupole moment (field-independent basis, Debye-Ang):
   XX=              5.3005   YY=             -3.6290   ZZ=             -1.6715
   XY=              2.0798   XZ=             -0.0148   YZ=              0.0012
 Octapole moment (field-independent basis, Debye-Ang**2):
  XXX=             24.2398  YYY=             -2.9100  ZZZ=             -0.1322  XYY=              5.9188
  XXY=             -1.7732  XXZ=             -0.0333  XZZ=              0.9579  YZZ=             -0.6338
  YYZ=             -0.2632  XYZ=              0.3430
 Hexadecapole moment (field-independent basis, Debye-Ang**3):
 XXXX=           -191.8803 YYYY=            -91.0982 ZZZZ=            -30.4915 XXXY=            -12.0931
 XXXZ=             -0.4350 YYYX=             -0.3606 YYYZ=              0.5340 ZZZX=              0.1930
 ZZZY=             -0.2391 XXYY=            -55.3750 XXZZ=            -41.8110 YYZZ=            -21.3866
 XXYZ=             -0.7010 YYXZ=              0.3347 ZZXY=             -1.4598
 N-N= 1.201420489065D+02 E-N=-7.291577763152D+02  KE= 2.074749847484D+02
 No NMR shielding tensors so no spin-rotation constants.
 Leave Link  601 at Thu Sep  1 15:42:54 2022, MaxMem= 24159191040 cpu:        14.3
 (Enter /public/home/users/caep010/software/Gaussian09/g09/l701.exe)
 Compute integral first derivatives.
 ... and contract with generalized density number  0.
 Leave Link  701 at Thu Sep  1 15:42:55 2022, MaxMem= 24159191040 cpu:        14.2
 (Enter /public/home/users/caep010/software/Gaussian09/g09/l702.exe)
 L702 exits ... SP integral derivatives will be done elsewhere.
 Leave Link  702 at Thu Sep  1 15:42:55 2022, MaxMem= 24159191040 cpu:         0.6
 (Enter /public/home/users/caep010/software/Gaussian09/g09/l703.exe)
 Compute integral first derivatives, UseDBF=F ICtDFT=           0.
 Integral derivatives from FoFJK, PRISM(SPDF).
 Calling FoFJK, ICntrl=      2127 FMM=F ISym2X=0 I1Cent= 0 IOpClX= 0 NMat=1 NMatS=1 NMatT=0.
 FoFJK:  IHMeth= 1 ICntrl=    2127 DoSepK=F KAlg= 0 I1Cent=   0 FoldK=F
 IRaf=         0 NMat=   1 IRICut=       1 DoRegI=T DoRafI=F ISym2E= 0.
 FoFCou: FMM=F IPFlag=           0 FMFlag=      100000 FMFlg1=         800
         NFxFlg=           0 DoJE=F BraDBF=F KetDBF=F FulRan=T
         wScrn=  0.000000 ICntrl=    2127 IOpCl=  0 I1Cent=           0 NGrid=           0
         NMat0=    1 NMatS0=      1 NMatT0=    0 NMatD0=    1 NMtDS0=    0 NMtDT0=    0
 Symmetry not used in FoFCou.
 Leave Link  703 at Thu Sep  1 15:42:56 2022, MaxMem= 24159191040 cpu:        20.8
 (Enter /public/home/users/caep010/software/Gaussian09/g09/l716.exe)
 Dipole        = 9.51003242D-01-1.61405532D-01-4.31019090D-02
 ***** Axes restored to original set *****
 -------------------------------------------------------------------
 Center     Atomic                   Forces (Hartrees/Bohr)
 Number     Number              X              Y              Z
 -------------------------------------------------------------------
      1        6          -0.028619892    0.028225602    0.004026980
      2        7          -0.002005494    0.011070949   -0.005749698
      3        6           0.003888647   -0.000895565   -0.003399387
      4        8          -0.000623843    0.008015014    0.008780834
      5        1          -0.007740517   -0.030220254   -0.046654319
      6        1           0.048924789   -0.025665315    0.043227267
      7        1          -0.015914674    0.013348278    0.003683399
      8        1           0.002157142   -0.002727572   -0.002515643
      9        1          -0.000066158   -0.001151137   -0.001399433
 -------------------------------------------------------------------
 Cartesian Forces:  Max     0.048924789 RMS     0.019718701
 Leave Link  716 at Thu Sep  1 15:42:56 2022, MaxMem= 24159191040 cpu:         1.0
 (Enter /public/home/users/caep010/software/Gaussian09/g09/l103.exe)

 GradGradGradGradGradGradGradGradGradGradGradGradGradGradGradGradGradGrad
 Berny optimization.
 FormGI is forming the generalized inverse of G from B-inverse, IUseBI=4.
 Internal  Forces:  Max     0.070102210 RMS     0.019211673
 Search for a local minimum.
 Step number   1 out of a maximum of   36
 All quantities printed in internal units (Hartrees-Bohrs-Radians)
 RMS Force = .19212D-01 SwitMx=.10000D-02 MixMth= 1
 Mixed Optimization -- RFO/linear search
 Second derivative matrix not updated -- first step.
 ITU=  0
     Eigenvalues ---    0.01026   0.02347   0.03019   0.03618   0.09465
     Eigenvalues ---    0.11022   0.16000   0.16000   0.16000   0.16000
     Eigenvalues ---    0.16000   0.20146   0.22000   0.23389   0.25000
     Eigenvalues ---    0.32810   0.35115   0.38199   0.54929   0.54996
     Eigenvalues ---    0.81631
 RFO step:  Lambda=-3.94336330D-02 EMin= 1.02573227D-02
 Linear search not attempted -- first point.
 Maximum step size (   0.300) exceeded in Quadratic search.
    -- Step size scaled by   0.746
 Iteration  1 RMS(Cart)=  0.07025962 RMS(Int)=  0.00436715
 Iteration  2 RMS(Cart)=  0.00418366 RMS(Int)=  0.00048297
 Iteration  3 RMS(Cart)=  0.00000609 RMS(Int)=  0.00048294
 Iteration  4 RMS(Cart)=  0.00000000 RMS(Int)=  0.00048294
 ITry= 1 IFail=0 DXMaxC= 1.99D-01 DCOld= 1.00D+10 DXMaxT= 3.00D-01 DXLimC= 3.00D+00 Rises=F
 Variable       Old X    -DE/DX   Delta X   Delta X   Delta X     New X
                                 (Linear)    (Quad)   (Total)
    R1        2.74077   0.00275   0.00000   0.00486   0.00486   2.74563
    R2        2.30189  -0.05602   0.00000  -0.15284  -0.15284   2.14905
    R3        2.40138  -0.07010   0.00000  -0.21700  -0.21700   2.18438
    R4        2.09387  -0.00826   0.00000  -0.01675  -0.01675   2.07712
    R5        2.37048   0.00642   0.00000   0.00560   0.00560   2.37608
    R6        2.55195   0.00994   0.00000   0.01258   0.01258   2.56454
    R7        2.05488   0.00359   0.00000   0.00686   0.00686   2.06174
    R8        1.81836  -0.00048   0.00000  -0.00060  -0.00060   1.81775
    A1        2.03106  -0.00309   0.00000  -0.01341  -0.01450   2.01656
    A2        1.91215  -0.00164   0.00000  -0.01247  -0.01327   1.89888
    A3        1.73777   0.03107   0.00000   0.12361   0.12255   1.86032
    A4        1.92383  -0.00589   0.00000  -0.03308  -0.03392   1.88991
    A5        1.91870  -0.00647   0.00000  -0.01208  -0.01336   1.90534
    A6        1.93253  -0.01190   0.00000  -0.04244  -0.04314   1.88939
    A7        2.10413   0.00258   0.00000   0.00664   0.00664   2.11077
    A8        2.18856   0.00055   0.00000   0.00158   0.00158   2.19014
    A9        2.10234  -0.00249   0.00000  -0.00908  -0.00908   2.09326
   A10        1.99228   0.00194   0.00000   0.00750   0.00750   1.99978
   A11        1.93100  -0.00318   0.00000  -0.01188  -0.01188   1.91912
    D1       -0.14631   0.00745   0.00000   0.03902   0.03937  -0.10695
    D2        2.05018  -0.00451   0.00000  -0.02785  -0.02780   2.02238
    D3       -2.20578  -0.00358   0.00000  -0.02081  -0.02121  -2.22699
    D4       -0.00270  -0.00090   0.00000  -0.00869  -0.00870  -0.01140
    D5        3.13956  -0.00136   0.00000  -0.01363  -0.01362   3.12595
    D6        3.11351  -0.00013   0.00000  -0.00127  -0.00128   3.11223
    D7       -0.02871   0.00031   0.00000   0.00338   0.00339  -0.02532
         Item               Value     Threshold  Converged?
 Maximum Force            0.070102     0.000450     NO 
 RMS     Force            0.019212     0.000300     NO 
 Maximum Displacement     0.198508     0.001800     NO 
 RMS     Displacement     0.071773     0.001200     NO 
 Predicted change in Energy=-2.027639D-02
 Lowest energy point so far.  Saving SCF results.
 GradGradGradGradGradGradGradGradGradGradGradGradGradGradGradGradGradGrad

 Leave Link  103 at Thu Sep  1 15:42:56 2022, MaxMem= 24159191040 cpu:         2.5
 (Enter /public/home/users/caep010/software/Gaussian09/g09/l202.exe)
                          Input orientation:                          
 ---------------------------------------------------------------------
 Center     Atomic      Atomic             Coordinates (Angstroms)
 Number     Number       Type             X           Y           Z
 ---------------------------------------------------------------------
      1          6           0       -1.255584   -0.402322    0.118910
      2          7           0       -0.056090   -0.611292   -0.673892
      3          6           0        1.000747    0.023584   -0.426923
      4          8           0        1.152408    0.950175    0.552941
      5          1           0       -1.133880    0.277473    1.022433
      6          1           0       -2.078575    0.041575   -0.560651
      7          1           0       -1.585815   -1.395021    0.456036
      8          1           0        1.896276   -0.156854   -1.023420
      9          1           0        2.057512    1.275781    0.559665
 ---------------------------------------------------------------------
                    Distance matrix (angstroms):
                    1          2          3          4          5
     1  C    0.000000
     2  N    1.452924   0.000000
     3  C    2.360161   1.257365   0.000000
     4  O    2.795721   2.324600   1.357095   0.000000
     5  H    1.137227   2.197510   2.592629   2.429005   0.000000
     6  H    1.155924   2.128263   3.082277   3.536225   1.858561
     7  H    1.099162   2.056946   3.079344   3.606550   1.822713
     8  H    3.361457   2.034801   1.091026   2.064889   3.681847
     9  H    3.739907   3.090311   1.912617   0.961914   3.375761
                    6          7          8          9
     6  H    0.000000
     7  H    1.827641   0.000000
     8  H    4.006615   3.980805   0.000000
     9  H    4.459326   4.518601   2.141167   0.000000
 Stoichiometry    C2H5NO
 Framework group  C1[X(C2H5NO)]
 Deg. of freedom    21
 Full point group                 C1      NOp   1
 RotChk:  IX=0 Diff= 2.52D-02
 Largest Abelian subgroup         C1      NOp   1
 Largest concise Abelian subgroup C1      NOp   1
                         Standard orientation:                         
 ---------------------------------------------------------------------
 Center     Atomic      Atomic             Coordinates (Angstroms)
 Number     Number       Type             X           Y           Z
 ---------------------------------------------------------------------
      1          6           0       -1.475860   -0.406575   -0.008409
      2          7           0       -0.575213    0.733476    0.001944
      3          6           0        0.671764    0.572183    0.002020
      4          8           0        1.311299   -0.624767    0.005525
      5          1           0       -0.979105   -1.422822   -0.125712
      6          1           0       -2.082567   -0.410902    0.975485
      7          1           0       -2.173767   -0.247578   -0.842558
      8          1           0        1.332985    1.439982   -0.004920
      9          1           0        2.263125   -0.488529   -0.021771
 ---------------------------------------------------------------------
 Rotational constants (GHZ):     19.6389698      6.1170215      4.8146128
 Leave Link  202 at Thu Sep  1 15:42:56 2022, MaxMem= 24159191040 cpu:         0.2
 (Enter /public/home/users/caep010/software/Gaussian09/g09/l301.exe)
 Standard basis: GTBas3 (6D, 7F)
 Ernie: Thresh=  0.10000D-02 Tol=  0.10000D-05 Strict=F.
 There are   149 symmetry adapted cartesian basis functions of A   symmetry.
 There are   137 symmetry adapted basis functions of A   symmetry.
   137 basis functions,   211 primitive gaussians,   149 cartesian basis functions
    16 alpha electrons       16 beta electrons
       nuclear repulsion energy       120.3962594255 Hartrees.
 IExCor=  402 DFT=T Ex+Corr=B3LYP ExCW=0 ScaHFX=  0.200000
 ScaDFX=  0.800000  0.720000  1.000000  0.810000 ScalE2=  1.000000  1.000000
 IRadAn=      0 IRanWt=     -1 IRanGd=            0 ICorTp=0 IEmpDi=  4
 NAtoms=    9 NActive=    9 NUniq=    9 SFac= 1.00D+00 NAtFMM=   60 NAOKFM=F Big=F
 Integral buffers will be    131072 words long.
 Raffenetti 2 integral format.
 Two-electron integral symmetry is turned on.
 Leave Link  301 at Thu Sep  1 15:42:56 2022, MaxMem= 24159191040 cpu:         1.6
 (Enter /public/home/users/caep010/software/Gaussian09/g09/l302.exe)
 NPDir=0 NMtPBC=     1 NCelOv=     1 NCel=       1 NClECP=     1 NCelD=      1
         NCelK=      1 NCelE2=     1 NClLst=     1 CellRange=     0.0.
 One-electron integrals computed using PRISM.
 NBasis=   137 RedAO= T EigKep=  4.34D-04  NBF=   137
 NBsUse=   137 1.00D-06 EigRej= -1.00D+00 NBFU=   137
 Precomputing XC quadrature grid using
 IXCGrd= 4 IRadAn=           0 IRanWt=          -1 IRanGd=           0 AccXCQ= 0.00D+00.
 Generated NRdTot=       0 NPtTot=           0 NUsed=           0 NTot=          32
 NSgBfM=   149   149   149   149   149 MxSgAt=     9 MxSgA2=     9.
 Leave Link  302 at Thu Sep  1 15:42:57 2022, MaxMem= 24159191040 cpu:        13.1
 (Enter /public/home/users/caep010/software/Gaussian09/g09/l303.exe)
 DipDrv:  MaxL=1.
 Leave Link  303 at Thu Sep  1 15:42:57 2022, MaxMem= 24159191040 cpu:         0.6
 (Enter /public/home/users/caep010/software/Gaussian09/g09/l401.exe)
 Initial guess from the checkpoint file:  "G4.Frag_598.chk"
 B after Tr=     0.000000   -0.000000   -0.000000
         Rot=    0.999984    0.004359   -0.003435    0.000777 Ang=   0.64 deg.
 Guess basis will be translated and rotated to current coordinates.
 JPrj=2 DoOrth=T DoCkMO=T.
 Generating alternative initial guess.
 ExpMin= 1.61D-01 ExpMax= 5.48D+03 ExpMxC= 8.25D+02 IAcc=1 IRadAn=         1 AccDes= 0.00D+00
 Harris functional with IExCor=  402 and IRadAn=       1 diagonalized for initial guess.
 HarFok:  IExCor=  402 AccDes= 0.00D+00 IRadAn=         1 IDoV= 1 UseB2=F ITyADJ=14
 ICtDFT=  3500011 ScaDFX=  1.000000  1.000000  1.000000  1.000000
 FoFCou: FMM=F IPFlag=           0 FMFlag=      100000 FMFlg1=           0
         NFxFlg=           0 DoJE=T BraDBF=F KetDBF=T FulRan=T
         wScrn=  0.000000 ICntrl=     500 IOpCl=  0 I1Cent=   200000004 NGrid=           0
         NMat0=    1 NMatS0=      1 NMatT0=    0 NMatD0=    1 NMtDS0=    0 NMtDT0=    0
 Petite list used in FoFCou.
 Harris En= -209.200496370501    
 Leave Link  401 at Thu Sep  1 15:42:57 2022, MaxMem= 24159191040 cpu:        17.2
 (Enter /public/home/users/caep010/software/Gaussian09/g09/l502.exe)
 Closed shell SCF:
 Using DIIS extrapolation, IDIIS=  1040.
 Integral symmetry usage will be decided dynamically.
 Keep R1 ints in memory in canonical form, NReq=46767924.
 IVT=       91009 IEndB=       91009 NGot= 24159191040 MDV= 24114415701
 LenX= 24114415701 LenY= 24114393059
 Requested convergence on RMS density matrix=1.00D-08 within 128 cycles.
 Requested convergence on MAX density matrix=1.00D-06.
 Requested convergence on             energy=1.00D-06.
 No special actions if energy rises.
 FoFCou: FMM=F IPFlag=           0 FMFlag=           0 FMFlg1=           0
         NFxFlg=           0 DoJE=F BraDBF=F KetDBF=F FulRan=T
         wScrn=  0.000000 ICntrl=     600 IOpCl=  0 I1Cent=           0 NGrid=           0
         NMat0=    1 NMatS0=   9453 NMatT0=    0 NMatD0=    1 NMtDS0=    0 NMtDT0=    0
 Symmetry not used in FoFCou.
 Integral accuracy reduced to 1.0D-05 until final iterations.

 Cycle   1  Pass 0  IDiag  1:
 E= -209.184747919470    
 DIIS: error= 3.90D-03 at cycle   1 NSaved=   1.
 NSaved= 1 IEnMin= 1 EnMin= -209.184747919470     IErMin= 1 ErrMin= 3.90D-03
 ErrMax= 3.90D-03  0.00D+00 EMaxC= 1.00D-01 BMatC= 2.32D-03 BMatP= 2.32D-03
 IDIUse=3 WtCom= 9.61D-01 WtEn= 3.90D-02
 Coeff-Com:  0.100D+01
 Coeff-En:   0.100D+01
 Coeff:      0.100D+01
 Gap=     0.983 Goal=   None    Shift=    0.000
 GapD=    0.983 DampG=2.000 DampE=1.000 DampFc=2.0000 IDamp=-1.
 RMSDP=5.10D-04 MaxDP=1.63D-02              OVMax= 1.77D-02

 Cycle   2  Pass 0  IDiag  1:
 E= -209.186903966731     Delta-E=       -0.002156047261 Rises=F Damp=F
 DIIS: error= 1.96D-03 at cycle   2 NSaved=   2.
 NSaved= 2 IEnMin= 2 EnMin= -209.186903966731     IErMin= 2 ErrMin= 1.96D-03
 ErrMax= 1.96D-03  0.00D+00 EMaxC= 1.00D-01 BMatC= 7.28D-04 BMatP= 2.32D-03
 IDIUse=3 WtCom= 9.80D-01 WtEn= 1.96D-02
 Coeff-Com:  0.308D+00 0.692D+00
 Coeff-En:   0.000D+00 0.100D+01
 Coeff:      0.302D+00 0.698D+00
 Gap=     0.280 Goal=   None    Shift=    0.000
 RMSDP=2.60D-04 MaxDP=9.52D-03 DE=-2.16D-03 OVMax= 9.55D-03

 Cycle   3  Pass 0  IDiag  1:
 E= -209.187404108712     Delta-E=       -0.000500141981 Rises=F Damp=F
 DIIS: error= 1.22D-03 at cycle   3 NSaved=   3.
 NSaved= 3 IEnMin= 3 EnMin= -209.187404108712     IErMin= 3 ErrMin= 1.22D-03
 ErrMax= 1.22D-03  0.00D+00 EMaxC= 1.00D-01 BMatC= 2.36D-04 BMatP= 7.28D-04
 IDIUse=3 WtCom= 9.88D-01 WtEn= 1.22D-02
 Coeff-Com:  0.150D-01 0.360D+00 0.625D+00
 Coeff-En:   0.000D+00 0.237D+00 0.763D+00
 Coeff:      0.148D-01 0.358D+00 0.627D+00
 Gap=     0.281 Goal=   None    Shift=    0.000
 RMSDP=9.76D-05 MaxDP=3.58D-03 DE=-5.00D-04 OVMax= 3.64D-03

 Cycle   4  Pass 0  IDiag  1:
 E= -209.187629530156     Delta-E=       -0.000225421444 Rises=F Damp=F
 DIIS: error= 3.06D-04 at cycle   4 NSaved=   4.
 NSaved= 4 IEnMin= 4 EnMin= -209.187629530156     IErMin= 4 ErrMin= 3.06D-04
 ErrMax= 3.06D-04  0.00D+00 EMaxC= 1.00D-01 BMatC= 7.51D-06 BMatP= 2.36D-04
 IDIUse=3 WtCom= 9.97D-01 WtEn= 3.06D-03
 Coeff-Com: -0.303D-02 0.132D+00 0.267D+00 0.604D+00
 Coeff-En:   0.000D+00 0.000D+00 0.000D+00 0.100D+01
 Coeff:     -0.302D-02 0.132D+00 0.266D+00 0.605D+00
 Gap=     0.280 Goal=   None    Shift=    0.000
 RMSDP=2.39D-05 MaxDP=9.59D-04 DE=-2.25D-04 OVMax= 1.82D-03

 Cycle   5  Pass 0  IDiag  1:
 E= -209.187633328050     Delta-E=       -0.000003797894 Rises=F Damp=F
 DIIS: error= 1.39D-04 at cycle   5 NSaved=   5.
 NSaved= 5 IEnMin= 5 EnMin= -209.187633328050     IErMin= 5 ErrMin= 1.39D-04
 ErrMax= 1.39D-04  0.00D+00 EMaxC= 1.00D-01 BMatC= 3.74D-06 BMatP= 7.51D-06
 IDIUse=3 WtCom= 9.99D-01 WtEn= 1.39D-03
 Coeff-Com: -0.406D-02 0.466D-01 0.108D+00 0.421D+00 0.429D+00
 Coeff-En:   0.000D+00 0.000D+00 0.000D+00 0.333D+00 0.667D+00
 Coeff:     -0.405D-02 0.466D-01 0.108D+00 0.420D+00 0.429D+00
 Gap=     0.281 Goal=   None    Shift=    0.000
 RMSDP=1.24D-05 MaxDP=5.32D-04 DE=-3.80D-06 OVMax= 9.20D-04

 Cycle   6  Pass 0  IDiag  1:
 E= -209.187636489726     Delta-E=       -0.000003161676 Rises=F Damp=F
 DIIS: error= 1.52D-05 at cycle   6 NSaved=   6.
 NSaved= 6 IEnMin= 6 EnMin= -209.187636489726     IErMin= 6 ErrMin= 1.52D-05
 ErrMax= 1.52D-05  0.00D+00 EMaxC= 1.00D-01 BMatC= 9.15D-08 BMatP= 3.74D-06
 IDIUse=1 WtCom= 1.00D+00 WtEn= 0.00D+00
 Coeff-Com: -0.155D-02 0.834D-02 0.233D-01 0.137D+00 0.195D+00 0.638D+00
 Coeff:     -0.155D-02 0.834D-02 0.233D-01 0.137D+00 0.195D+00 0.638D+00
 Gap=     0.281 Goal=   None    Shift=    0.000
 RMSDP=2.48D-06 MaxDP=6.88D-05 DE=-3.16D-06 OVMax= 1.03D-04

 Initial convergence to 1.0D-05 achieved.  Increase integral accuracy.
 Cycle   7  Pass 1  IDiag  1:
 E= -209.187656772816     Delta-E=       -0.000020283090 Rises=F Damp=F
 DIIS: error= 1.20D-05 at cycle   1 NSaved=   1.
 NSaved= 1 IEnMin= 1 EnMin= -209.187656772816     IErMin= 1 ErrMin= 1.20D-05
 ErrMax= 1.20D-05  0.00D+00 EMaxC= 1.00D-01 BMatC= 3.71D-08 BMatP= 3.71D-08
 IDIUse=1 WtCom= 1.00D+00 WtEn= 0.00D+00
 Coeff-Com:  0.100D+01
 Coeff:      0.100D+01
 Gap=     0.281 Goal=   None    Shift=    0.000
 RMSDP=2.48D-06 MaxDP=6.88D-05 DE=-2.03D-05 OVMax= 7.47D-05

 Cycle   8  Pass 1  IDiag  1:
 E= -209.187656765001     Delta-E=        0.000000007815 Rises=F Damp=F
 DIIS: error= 1.53D-05 at cycle   2 NSaved=   2.
 NSaved= 2 IEnMin= 1 EnMin= -209.187656772816     IErMin= 1 ErrMin= 1.20D-05
 ErrMax= 1.53D-05  0.00D+00 EMaxC= 1.00D-01 BMatC= 5.33D-08 BMatP= 3.71D-08
 IDIUse=1 WtCom= 1.00D+00 WtEn= 0.00D+00
 Coeff-Com:  0.552D+00 0.448D+00
 Coeff:      0.552D+00 0.448D+00
 Gap=     0.281 Goal=   None    Shift=    0.000
 RMSDP=1.46D-06 MaxDP=5.99D-05 DE= 7.82D-09 OVMax= 5.74D-05

 Cycle   9  Pass 1  IDiag  1:
 E= -209.187656801534     Delta-E=       -0.000000036532 Rises=F Damp=F
 DIIS: error= 3.13D-06 at cycle   3 NSaved=   3.
 NSaved= 3 IEnMin= 3 EnMin= -209.187656801534     IErMin= 3 ErrMin= 3.13D-06
 ErrMax= 3.13D-06  0.00D+00 EMaxC= 1.00D-01 BMatC= 3.16D-09 BMatP= 3.71D-08
 IDIUse=1 WtCom= 1.00D+00 WtEn= 0.00D+00
 Coeff-Com:  0.481D-01 0.197D+00 0.755D+00
 Coeff:      0.481D-01 0.197D+00 0.755D+00
 Gap=     0.281 Goal=   None    Shift=    0.000
 RMSDP=4.86D-07 MaxDP=1.66D-05 DE=-3.65D-08 OVMax= 3.24D-05

 Cycle  10  Pass 1  IDiag  1:
 E= -209.187656802741     Delta-E=       -0.000000001208 Rises=F Damp=F
 DIIS: error= 2.65D-06 at cycle   4 NSaved=   4.
 NSaved= 4 IEnMin= 4 EnMin= -209.187656802741     IErMin= 4 ErrMin= 2.65D-06
 ErrMax= 2.65D-06  0.00D+00 EMaxC= 1.00D-01 BMatC= 1.36D-09 BMatP= 3.16D-09
 IDIUse=1 WtCom= 1.00D+00 WtEn= 0.00D+00
 Coeff-Com: -0.102D-01 0.994D-01 0.515D+00 0.395D+00
 Coeff:     -0.102D-01 0.994D-01 0.515D+00 0.395D+00
 Gap=     0.281 Goal=   None    Shift=    0.000
 RMSDP=2.16D-07 MaxDP=9.54D-06 DE=-1.21D-09 OVMax= 1.65D-05

 Cycle  11  Pass 1  IDiag  1:
 E= -209.187656803905     Delta-E=       -0.000000001164 Rises=F Damp=F
 DIIS: error= 5.01D-07 at cycle   5 NSaved=   5.
 NSaved= 5 IEnMin= 5 EnMin= -209.187656803905     IErMin= 5 ErrMin= 5.01D-07
 ErrMax= 5.01D-07  0.00D+00 EMaxC= 1.00D-01 BMatC= 2.03D-11 BMatP= 1.36D-09
 IDIUse=1 WtCom= 1.00D+00 WtEn= 0.00D+00
 Coeff-Com: -0.706D-02 0.395D-01 0.213D+00 0.195D+00 0.559D+00
 Coeff:     -0.706D-02 0.395D-01 0.213D+00 0.195D+00 0.559D+00
 Gap=     0.281 Goal=   None    Shift=    0.000
 RMSDP=3.28D-08 MaxDP=9.94D-07 DE=-1.16D-09 OVMax= 1.59D-06

 Cycle  12  Pass 1  IDiag  1:
 E= -209.187656803924     Delta-E=       -0.000000000019 Rises=F Damp=F
 DIIS: error= 5.43D-08 at cycle   6 NSaved=   6.
 NSaved= 6 IEnMin= 6 EnMin= -209.187656803924     IErMin= 6 ErrMin= 5.43D-08
 ErrMax= 5.43D-08  0.00D+00 EMaxC= 1.00D-01 BMatC= 6.96D-13 BMatP= 2.03D-11
 IDIUse=1 WtCom= 1.00D+00 WtEn= 0.00D+00
 Coeff-Com: -0.208D-02 0.909D-02 0.500D-01 0.492D-01 0.216D+00 0.677D+00
 Coeff:     -0.208D-02 0.909D-02 0.500D-01 0.492D-01 0.216D+00 0.677D+00
 Gap=     0.281 Goal=   None    Shift=    0.000
 RMSDP=7.52D-09 MaxDP=1.89D-07 DE=-1.91D-11 OVMax= 2.21D-07

 SCF Done:  E(RB3LYP) =  -209.187656804     A.U. after   12 cycles
            NFock= 12  Conv=0.75D-08     -V/T= 2.0075
 KE= 2.076301082738D+02 PE=-7.298209674524D+02 EE= 1.926069429491D+02
 Leave Link  502 at Thu Sep  1 15:43:00 2022, MaxMem= 24159191040 cpu:        52.5
 (Enter /public/home/users/caep010/software/Gaussian09/g09/l701.exe)
 Compute integral first derivatives.
 ... and contract with generalized density number  0.
 Leave Link  701 at Thu Sep  1 15:43:00 2022, MaxMem= 24159191040 cpu:        14.6
 (Enter /public/home/users/caep010/software/Gaussian09/g09/l702.exe)
 L702 exits ... SP integral derivatives will be done elsewhere.
 Leave Link  702 at Thu Sep  1 15:43:01 2022, MaxMem= 24159191040 cpu:         0.5
 (Enter /public/home/users/caep010/software/Gaussian09/g09/l703.exe)
 Compute integral first derivatives, UseDBF=F ICtDFT=           0.
 Integral derivatives from FoFJK, PRISM(SPDF).
 Calling FoFJK, ICntrl=      2127 FMM=F ISym2X=0 I1Cent= 0 IOpClX= 0 NMat=1 NMatS=1 NMatT=0.
 FoFJK:  IHMeth= 1 ICntrl=    2127 DoSepK=F KAlg= 0 I1Cent=   0 FoldK=F
 IRaf=         0 NMat=   1 IRICut=       1 DoRegI=T DoRafI=F ISym2E= 0.
 FoFCou: FMM=F IPFlag=           0 FMFlag=      100000 FMFlg1=         800
         NFxFlg=           0 DoJE=F BraDBF=F KetDBF=F FulRan=T
         wScrn=  0.000000 ICntrl=    2127 IOpCl=  0 I1Cent=           0 NGrid=           0
         NMat0=    1 NMatS0=      1 NMatT0=    0 NMatD0=    1 NMtDS0=    0 NMtDT0=    0
 Symmetry not used in FoFCou.
 Leave Link  703 at Thu Sep  1 15:43:01 2022, MaxMem= 24159191040 cpu:        22.3
 (Enter /public/home/users/caep010/software/Gaussian09/g09/l716.exe)
 Dipole        = 8.97752496D-01-1.95767225D-01-2.77520941D-02
 ***** Axes restored to original set *****
 -------------------------------------------------------------------
 Center     Atomic                   Forces (Hartrees/Bohr)
 Number     Number              X              Y              Z
 -------------------------------------------------------------------
      1        6          -0.015369023    0.020061850   -0.000370846
      2        7           0.001126608    0.002307612   -0.000977297
      3        6          -0.001571889   -0.002984846   -0.002208565
      4        8          -0.000786381    0.003869148    0.004757591
      5        1          -0.002364103   -0.013594996   -0.018887119
      6        1           0.021886591   -0.013350125    0.019594042
      7        1          -0.003612319    0.004572018   -0.000101523
      8        1           0.000384356   -0.000471715   -0.001083698
      9        1           0.000306161   -0.000408944   -0.000722587
 -------------------------------------------------------------------
 Cartesian Forces:  Max     0.021886591 RMS     0.009280514
 Leave Link  716 at Thu Sep  1 15:43:01 2022, MaxMem= 24159191040 cpu:         0.5
 (Enter /public/home/users/caep010/software/Gaussian09/g09/l103.exe)

 GradGradGradGradGradGradGradGradGradGradGradGradGradGradGradGradGradGrad
 Berny optimization.
 Using GEDIIS/GDIIS optimizer.
 FormGI is forming the generalized inverse of G from B-inverse, IUseBI=4.
 Internal  Forces:  Max     0.032229069 RMS     0.008114609
 Search for a local minimum.
 Step number   2 out of a maximum of   36
 All quantities printed in internal units (Hartrees-Bohrs-Radians)
 RMS Force = .81146D-02 SwitMx=.10000D-02 MixMth= 1
 Mixed Optimization -- RFO/linear search
 Update second derivatives using D2CorX and points    1    2
 DE= -2.13D-02 DEPred=-2.03D-02 R= 1.05D+00
 TightC=F SS=  1.41D+00  RLast= 3.05D-01 DXNew= 5.0454D-01 9.1466D-01
 Trust test= 1.05D+00 RLast= 3.05D-01 DXMaxT set to 5.05D-01
 ITU=  1  0
 Use linear search instead of GDIIS.
     Eigenvalues ---    0.01026   0.02347   0.03014   0.03624   0.09857
     Eigenvalues ---    0.10496   0.15858   0.16000   0.16000   0.16000
     Eigenvalues ---    0.16566   0.18283   0.22007   0.22892   0.25449
     Eigenvalues ---    0.32804   0.35123   0.38261   0.54812   0.54998
     Eigenvalues ---    0.81872
 RFO step:  Lambda=-1.36761054D-03 EMin= 1.02583580D-02
 Quartic linear search produced a step of  0.49754.
 Iteration  1 RMS(Cart)=  0.03983799 RMS(Int)=  0.00055757
 Iteration  2 RMS(Cart)=  0.00062091 RMS(Int)=  0.00024683
 Iteration  3 RMS(Cart)=  0.00000028 RMS(Int)=  0.00024683
 ITry= 1 IFail=0 DXMaxC= 1.01D-01 DCOld= 1.00D+10 DXMaxT= 5.05D-01 DXLimC= 3.00D+00 Rises=F
 Variable       Old X    -DE/DX   Delta X   Delta X   Delta X     New X
                                 (Linear)    (Quad)   (Total)
    R1        2.74563  -0.00065   0.00242  -0.00627  -0.00385   2.74178
    R2        2.14905  -0.02338  -0.07604  -0.01677  -0.09282   2.05623
    R3        2.18438  -0.03223  -0.10796  -0.04166  -0.14962   2.03476
    R4        2.07712  -0.00307  -0.00833  -0.00071  -0.00905   2.06807
    R5        2.37608  -0.00125   0.00279  -0.00613  -0.00334   2.37273
    R6        2.56454   0.00522   0.00626   0.00515   0.01141   2.57595
    R7        2.06174   0.00099   0.00341  -0.00116   0.00225   2.06399
    R8        1.81775   0.00014  -0.00030   0.00083   0.00053   1.81828
    A1        2.01656  -0.00164  -0.00721  -0.00005  -0.00783   2.00873
    A2        1.89888   0.00038  -0.00660   0.01783   0.01082   1.90970
    A3        1.86032   0.00711   0.06097  -0.05463   0.00583   1.86615
    A4        1.88991  -0.00077  -0.01688   0.03023   0.01291   1.90282
    A5        1.90534  -0.00138  -0.00665   0.00120  -0.00610   1.89924
    A6        1.88939  -0.00389  -0.02146   0.00477  -0.01702   1.87237
    A7        2.11077  -0.00290   0.00330  -0.02293  -0.01963   2.09114
    A8        2.19014  -0.00033   0.00078  -0.00362  -0.00292   2.18722
    A9        2.09326  -0.00057  -0.00452   0.00313  -0.00147   2.09178
   A10        1.99978   0.00091   0.00373   0.00058   0.00423   2.00401
   A11        1.91912  -0.00158  -0.00591  -0.00301  -0.00892   1.91019
    D1       -0.10695   0.00136   0.01959  -0.02279  -0.00302  -0.10997
    D2        2.02238  -0.00050  -0.01383   0.03064   0.01686   2.03924
    D3       -2.22699  -0.00110  -0.01055   0.01627   0.00548  -2.22151
    D4       -0.01140   0.00003  -0.00433   0.01842   0.01410   0.00270
    D5        3.12595   0.00036  -0.00677   0.04635   0.03957  -3.11767
    D6        3.11223   0.00024  -0.00064   0.01495   0.01432   3.12655
    D7       -0.02532  -0.00008   0.00169  -0.01168  -0.01001  -0.03532
         Item               Value     Threshold  Converged?
 Maximum Force            0.032229     0.000450     NO 
 RMS     Force            0.008115     0.000300     NO 
 Maximum Displacement     0.100806     0.001800     NO 
 RMS     Displacement     0.039876     0.001200     NO 
 Predicted change in Energy=-4.444794D-03
 Lowest energy point so far.  Saving SCF results.
 GradGradGradGradGradGradGradGradGradGradGradGradGradGradGradGradGradGrad

 Leave Link  103 at Thu Sep  1 15:43:01 2022, MaxMem= 24159191040 cpu:         1.0
 (Enter /public/home/users/caep010/software/Gaussian09/g09/l202.exe)
                          Input orientation:                          
 ---------------------------------------------------------------------
 Center     Atomic      Atomic             Coordinates (Angstroms)
 Number     Number       Type             X           Y           Z
 ---------------------------------------------------------------------
      1          6           0       -1.253085   -0.385511    0.111684
      2          7           0       -0.060256   -0.618347   -0.680796
      3          6           0        0.992945    0.015431   -0.424639
      4          8           0        1.135503    0.938467    0.568240
      5          1           0       -1.116683    0.270413    0.969089
      6          1           0       -2.028376    0.016661   -0.518050
      7          1           0       -1.596056   -1.362592    0.465722
      8          1           0        1.884775   -0.142898   -1.034976
      9          1           0        2.038232    1.271477    0.568825
 ---------------------------------------------------------------------
                    Distance matrix (angstroms):
                    1          2          3          4          5
     1  C    0.000000
     2  N    1.450888   0.000000
     3  C    2.343725   1.255596   0.000000
     4  O    2.768883   2.326715   1.363132   0.000000
     5  H    1.088111   2.151290   2.541264   2.383132   0.000000
     6  H    1.076747   2.074420   3.022765   3.469854   1.762713
     7  H    1.094376   2.055987   3.065063   3.573066   1.774790
     8  H    3.349605   2.033381   1.092218   2.073900   3.632609
     9  H    3.713133   3.088145   1.912394   0.962193   3.334040
                    6          7          8          9
     6  H    0.000000
     7  H    1.748441   0.000000
     8  H    3.950370   3.981950   0.000000
     9  H    4.392398   4.489654   2.143871   0.000000
 Stoichiometry    C2H5NO
 Framework group  C1[X(C2H5NO)]
 Deg. of freedom    21
 Full point group                 C1      NOp   1
 RotChk:  IX=0 Diff= 1.06D-02
 Largest Abelian subgroup         C1      NOp   1
 Largest concise Abelian subgroup C1      NOp   1
                         Standard orientation:                         
 ---------------------------------------------------------------------
 Center     Atomic      Atomic             Coordinates (Angstroms)
 Number     Number       Type             X           Y           Z
 ---------------------------------------------------------------------
      1          6           0       -1.459186   -0.415024    0.003960
      2          7           0       -0.580721    0.739681   -0.001535
      3          6           0        0.664279    0.576901   -0.001178
      4          8           0        1.301483   -0.628127    0.001084
      5          1           0       -0.959072   -1.375787   -0.099990
      6          1           0       -2.040555   -0.418217    0.910262
      7          1           0       -2.157063   -0.288319   -0.829450
      8          1           0        1.326113    1.445562    0.017347
      9          1           0        2.253206   -0.487253   -0.012783
 ---------------------------------------------------------------------
 Rotational constants (GHZ):     19.5680978      6.2316762      4.8665865
 Leave Link  202 at Thu Sep  1 15:43:01 2022, MaxMem= 24159191040 cpu:         0.2
 (Enter /public/home/users/caep010/software/Gaussian09/g09/l301.exe)
 Standard basis: GTBas3 (6D, 7F)
 Ernie: Thresh=  0.10000D-02 Tol=  0.10000D-05 Strict=F.
 There are   149 symmetry adapted cartesian basis functions of A   symmetry.
 There are   137 symmetry adapted basis functions of A   symmetry.
   137 basis functions,   211 primitive gaussians,   149 cartesian basis functions
    16 alpha electrons       16 beta electrons
       nuclear repulsion energy       121.0758166088 Hartrees.
 IExCor=  402 DFT=T Ex+Corr=B3LYP ExCW=0 ScaHFX=  0.200000
 ScaDFX=  0.800000  0.720000  1.000000  0.810000 ScalE2=  1.000000  1.000000
 IRadAn=      0 IRanWt=     -1 IRanGd=            0 ICorTp=0 IEmpDi=  4
 NAtoms=    9 NActive=    9 NUniq=    9 SFac= 1.00D+00 NAtFMM=   60 NAOKFM=F Big=F
 Integral buffers will be    131072 words long.
 Raffenetti 2 integral format.
 Two-electron integral symmetry is turned on.
 Leave Link  301 at Thu Sep  1 15:43:02 2022, MaxMem= 24159191040 cpu:         1.6
 (Enter /public/home/users/caep010/software/Gaussian09/g09/l302.exe)
 NPDir=0 NMtPBC=     1 NCelOv=     1 NCel=       1 NClECP=     1 NCelD=      1
         NCelK=      1 NCelE2=     1 NClLst=     1 CellRange=     0.0.
 One-electron integrals computed using PRISM.
 NBasis=   137 RedAO= T EigKep=  4.31D-04  NBF=   137
 NBsUse=   137 1.00D-06 EigRej= -1.00D+00 NBFU=   137
 Precomputing XC quadrature grid using
 IXCGrd= 4 IRadAn=           0 IRanWt=          -1 IRanGd=           0 AccXCQ= 0.00D+00.
 Generated NRdTot=       0 NPtTot=           0 NUsed=           0 NTot=          32
 NSgBfM=   149   149   149   149   149 MxSgAt=     9 MxSgA2=     9.
 Leave Link  302 at Thu Sep  1 15:43:02 2022, MaxMem= 24159191040 cpu:        14.1
 (Enter /public/home/users/caep010/software/Gaussian09/g09/l303.exe)
 DipDrv:  MaxL=1.
 Leave Link  303 at Thu Sep  1 15:43:02 2022, MaxMem= 24159191040 cpu:         0.6
 (Enter /public/home/users/caep010/software/Gaussian09/g09/l401.exe)
 Initial guess from the checkpoint file:  "G4.Frag_598.chk"
 B after Tr=     0.000000   -0.000000   -0.000000
         Rot=    0.999998    0.001365   -0.000461   -0.001610 Ang=   0.25 deg.
 Guess basis will be translated and rotated to current coordinates.
 JPrj=2 DoOrth=T DoCkMO=T.
 Generating alternative initial guess.
 ExpMin= 1.61D-01 ExpMax= 5.48D+03 ExpMxC= 8.25D+02 IAcc=1 IRadAn=         1 AccDes= 0.00D+00
 Harris functional with IExCor=  402 and IRadAn=       1 diagonalized for initial guess.
 HarFok:  IExCor=  402 AccDes= 0.00D+00 IRadAn=         1 IDoV= 1 UseB2=F ITyADJ=14
 ICtDFT=  3500011 ScaDFX=  1.000000  1.000000  1.000000  1.000000
 FoFCou: FMM=F IPFlag=           0 FMFlag=      100000 FMFlg1=           0
         NFxFlg=           0 DoJE=T BraDBF=F KetDBF=T FulRan=T
         wScrn=  0.000000 ICntrl=     500 IOpCl=  0 I1Cent=   200000004 NGrid=           0
         NMat0=    1 NMatS0=      1 NMatT0=    0 NMatD0=    1 NMtDS0=    0 NMtDT0=    0
 Petite list used in FoFCou.
 Harris En= -209.211520860538    
 Leave Link  401 at Thu Sep  1 15:43:03 2022, MaxMem= 24159191040 cpu:        16.6
 (Enter /public/home/users/caep010/software/Gaussian09/g09/l502.exe)
 Closed shell SCF:
 Using DIIS extrapolation, IDIIS=  1040.
 Integral symmetry usage will be decided dynamically.
 Keep R1 ints in memory in canonical form, NReq=46767997.
 IVT=       91009 IEndB=       91009 NGot= 24159191040 MDV= 24114415701
 LenX= 24114415701 LenY= 24114393059
 Requested convergence on RMS density matrix=1.00D-08 within 128 cycles.
 Requested convergence on MAX density matrix=1.00D-06.
 Requested convergence on             energy=1.00D-06.
 No special actions if energy rises.
 FoFCou: FMM=F IPFlag=           0 FMFlag=           0 FMFlg1=           0
         NFxFlg=           0 DoJE=F BraDBF=F KetDBF=F FulRan=T
         wScrn=  0.000000 ICntrl=     600 IOpCl=  0 I1Cent=           0 NGrid=           0
         NMat0=    1 NMatS0=   9453 NMatT0=    0 NMatD0=    1 NMtDS0=    0 NMtDT0=    0
 Symmetry not used in FoFCou.
 Integral accuracy reduced to 1.0D-05 until final iterations.

 Cycle   1  Pass 0  IDiag  1:
 E= -209.188867674656    
 DIIS: error= 2.70D-03 at cycle   1 NSaved=   1.
 NSaved= 1 IEnMin= 1 EnMin= -209.188867674656     IErMin= 1 ErrMin= 2.70D-03
 ErrMax= 2.70D-03  0.00D+00 EMaxC= 1.00D-01 BMatC= 1.20D-03 BMatP= 1.20D-03
 IDIUse=3 WtCom= 9.73D-01 WtEn= 2.70D-02
 Coeff-Com:  0.100D+01
 Coeff-En:   0.100D+01
 Coeff:      0.100D+01
 Gap=     0.987 Goal=   None    Shift=    0.000
 GapD=    0.987 DampG=2.000 DampE=1.000 DampFc=2.0000 IDamp=-1.
 RMSDP=3.51D-04 MaxDP=1.10D-02              OVMax= 1.39D-02

 Cycle   2  Pass 0  IDiag  1:
 E= -209.190025058184     Delta-E=       -0.001157383528 Rises=F Damp=F
 DIIS: error= 2.20D-03 at cycle   2 NSaved=   2.
 NSaved= 2 IEnMin= 2 EnMin= -209.190025058184     IErMin= 2 ErrMin= 2.20D-03
 ErrMax= 2.20D-03  0.00D+00 EMaxC= 1.00D-01 BMatC= 3.66D-04 BMatP= 1.20D-03
 IDIUse=3 WtCom= 9.78D-01 WtEn= 2.20D-02
 Coeff-Com:  0.302D+00 0.698D+00
 Coeff-En:   0.000D+00 0.100D+01
 Coeff:      0.295D+00 0.705D+00
 Gap=     0.282 Goal=   None    Shift=    0.000
 RMSDP=1.86D-04 MaxDP=6.62D-03 DE=-1.16D-03 OVMax= 6.96D-03

 Cycle   3  Pass 0  IDiag  1:
 E= -209.190270304964     Delta-E=       -0.000245246780 Rises=F Damp=F
 DIIS: error= 1.19D-03 at cycle   3 NSaved=   3.
 NSaved= 3 IEnMin= 3 EnMin= -209.190270304964     IErMin= 3 ErrMin= 1.19D-03
 ErrMax= 1.19D-03  0.00D+00 EMaxC= 1.00D-01 BMatC= 1.22D-04 BMatP= 3.66D-04
 IDIUse=3 WtCom= 9.88D-01 WtEn= 1.19D-02
 Coeff-Com:  0.125D-01 0.363D+00 0.625D+00
 Coeff-En:   0.000D+00 0.245D+00 0.755D+00
 Coeff:      0.124D-01 0.361D+00 0.626D+00
 Gap=     0.284 Goal=   None    Shift=    0.000
 RMSDP=7.59D-05 MaxDP=2.50D-03 DE=-2.45D-04 OVMax= 3.68D-03

 Cycle   4  Pass 0  IDiag  1:
 E= -209.190381639189     Delta-E=       -0.000111334225 Rises=F Damp=F
 DIIS: error= 2.51D-04 at cycle   4 NSaved=   4.
 NSaved= 4 IEnMin= 4 EnMin= -209.190381639189     IErMin= 4 ErrMin= 2.51D-04
 ErrMax= 2.51D-04  0.00D+00 EMaxC= 1.00D-01 BMatC= 1.04D-05 BMatP= 1.22D-04
 IDIUse=3 WtCom= 9.97D-01 WtEn= 2.51D-03
 Coeff-Com: -0.138D-02 0.186D+00 0.357D+00 0.458D+00
 Coeff-En:   0.000D+00 0.000D+00 0.000D+00 0.100D+01
 Coeff:     -0.138D-02 0.186D+00 0.356D+00 0.460D+00
 Gap=     0.283 Goal=   None    Shift=    0.000
 RMSDP=2.48D-05 MaxDP=1.05D-03 DE=-1.11D-04 OVMax= 1.93D-03

 Cycle   5  Pass 0  IDiag  1:
 E= -209.190389368190     Delta-E=       -0.000007729001 Rises=F Damp=F
 DIIS: error= 8.75D-05 at cycle   5 NSaved=   5.
 NSaved= 5 IEnMin= 5 EnMin= -209.190389368190     IErMin= 5 ErrMin= 8.75D-05
 ErrMax= 8.75D-05  0.00D+00 EMaxC= 1.00D-01 BMatC= 1.77D-06 BMatP= 1.04D-05
 IDIUse=1 WtCom= 1.00D+00 WtEn= 0.00D+00
 Coeff-Com: -0.366D-02 0.419D-01 0.957D-01 0.301D+00 0.565D+00
 Coeff:     -0.366D-02 0.419D-01 0.957D-01 0.301D+00 0.565D+00
 Gap=     0.283 Goal=   None    Shift=    0.000
 RMSDP=8.76D-06 MaxDP=3.38D-04 DE=-7.73D-06 OVMax= 5.59D-04

 Initial convergence to 1.0D-05 achieved.  Increase integral accuracy.
 Cycle   6  Pass 1  IDiag  1:
 E= -209.190418580573     Delta-E=       -0.000029212383 Rises=F Damp=F
 DIIS: error= 1.71D-05 at cycle   1 NSaved=   1.
 NSaved= 1 IEnMin= 1 EnMin= -209.190418580573     IErMin= 1 ErrMin= 1.71D-05
 ErrMax= 1.71D-05  0.00D+00 EMaxC= 1.00D-01 BMatC= 5.59D-08 BMatP= 5.59D-08
 IDIUse=1 WtCom= 1.00D+00 WtEn= 0.00D+00
 Coeff-Com:  0.100D+01
 Coeff:      0.100D+01
 Gap=     0.283 Goal=   None    Shift=    0.000
 RMSDP=8.76D-06 MaxDP=3.38D-04 DE=-2.92D-05 OVMax= 1.12D-04

 Cycle   7  Pass 1  IDiag  1:
 E= -209.190418563985     Delta-E=        0.000000016588 Rises=F Damp=F
 DIIS: error= 1.78D-05 at cycle   2 NSaved=   2.
 NSaved= 2 IEnMin= 1 EnMin= -209.190418580573     IErMin= 1 ErrMin= 1.71D-05
 ErrMax= 1.78D-05  0.00D+00 EMaxC= 1.00D-01 BMatC= 8.26D-08 BMatP= 5.59D-08
 IDIUse=1 WtCom= 1.00D+00 WtEn= 0.00D+00
 Coeff-Com:  0.555D+00 0.445D+00
 Coeff:      0.555D+00 0.445D+00
 Gap=     0.283 Goal=   None    Shift=    0.000
 RMSDP=2.07D-06 MaxDP=5.66D-05 DE= 1.66D-08 OVMax= 8.88D-05

 Cycle   8  Pass 1  IDiag  1:
 E= -209.190418628720     Delta-E=       -0.000000064735 Rises=F Damp=F
 DIIS: error= 4.29D-06 at cycle   3 NSaved=   3.
 NSaved= 3 IEnMin= 3 EnMin= -209.190418628720     IErMin= 3 ErrMin= 4.29D-06
 ErrMax= 4.29D-06  0.00D+00 EMaxC= 1.00D-01 BMatC= 5.93D-09 BMatP= 5.59D-08
 IDIUse=1 WtCom= 1.00D+00 WtEn= 0.00D+00
 Coeff-Com:  0.174D+00 0.233D+00 0.593D+00
 Coeff:      0.174D+00 0.233D+00 0.593D+00
 Gap=     0.283 Goal=   None    Shift=    0.000
 RMSDP=6.16D-07 MaxDP=2.04D-05 DE=-6.47D-08 OVMax= 4.49D-05

 Cycle   9  Pass 1  IDiag  1:
 E= -209.190418632071     Delta-E=       -0.000000003350 Rises=F Damp=F
 DIIS: error= 2.27D-06 at cycle   4 NSaved=   4.
 NSaved= 4 IEnMin= 4 EnMin= -209.190418632071     IErMin= 4 ErrMin= 2.27D-06
 ErrMax= 2.27D-06  0.00D+00 EMaxC= 1.00D-01 BMatC= 1.52D-09 BMatP= 5.93D-09
 IDIUse=1 WtCom= 1.00D+00 WtEn= 0.00D+00
 Coeff-Com:  0.117D-01 0.673D-01 0.378D+00 0.543D+00
 Coeff:      0.117D-01 0.673D-01 0.378D+00 0.543D+00
 Gap=     0.283 Goal=   None    Shift=    0.000
 RMSDP=2.49D-07 MaxDP=1.07D-05 DE=-3.35D-09 OVMax= 1.90D-05

 Cycle  10  Pass 1  IDiag  1:
 E= -209.190418633331     Delta-E=       -0.000000001261 Rises=F Damp=F
 DIIS: error= 7.99D-07 at cycle   5 NSaved=   5.
 NSaved= 5 IEnMin= 5 EnMin= -209.190418633331     IErMin= 5 ErrMin= 7.99D-07
 ErrMax= 7.99D-07  0.00D+00 EMaxC= 1.00D-01 BMatC= 1.21D-10 BMatP= 1.52D-09
 IDIUse=1 WtCom= 1.00D+00 WtEn= 0.00D+00
 Coeff-Com: -0.652D-02 0.223D-01 0.178D+00 0.320D+00 0.486D+00
 Coeff:     -0.652D-02 0.223D-01 0.178D+00 0.320D+00 0.486D+00
 Gap=     0.283 Goal=   None    Shift=    0.000
 RMSDP=7.31D-08 MaxDP=2.60D-06 DE=-1.26D-09 OVMax= 3.56D-06

 Cycle  11  Pass 1  IDiag  1:
 E= -209.190418633432     Delta-E=       -0.000000000100 Rises=F Damp=F
 DIIS: error= 1.66D-07 at cycle   6 NSaved=   6.
 NSaved= 6 IEnMin= 6 EnMin= -209.190418633432     IErMin= 6 ErrMin= 1.66D-07
 ErrMax= 1.66D-07  0.00D+00 EMaxC= 1.00D-01 BMatC= 3.18D-12 BMatP= 1.21D-10
 IDIUse=1 WtCom= 1.00D+00 WtEn= 0.00D+00
 Coeff-Com: -0.367D-02 0.656D-02 0.627D-01 0.118D+00 0.225D+00 0.591D+00
 Coeff:     -0.367D-02 0.656D-02 0.627D-01 0.118D+00 0.225D+00 0.591D+00
 Gap=     0.283 Goal=   None    Shift=    0.000
 RMSDP=1.15D-08 MaxDP=2.82D-07 DE=-1.00D-10 OVMax= 3.58D-07

 Cycle  12  Pass 1  IDiag  1:
 E= -209.190418633434     Delta-E=       -0.000000000002 Rises=F Damp=F
 DIIS: error= 1.77D-08 at cycle   7 NSaved=   7.
 NSaved= 7 IEnMin= 7 EnMin= -209.190418633434     IErMin= 7 ErrMin= 1.77D-08
 ErrMax= 1.77D-08  0.00D+00 EMaxC= 1.00D-01 BMatC= 6.03D-14 BMatP= 3.18D-12
 IDIUse=1 WtCom= 1.00D+00 WtEn= 0.00D+00
 Coeff-Com: -0.526D-03 0.507D-03 0.666D-02 0.121D-01 0.277D-01 0.142D+00
 Coeff-Com:  0.812D+00
 Coeff:     -0.526D-03 0.507D-03 0.666D-02 0.121D-01 0.277D-01 0.142D+00
 Coeff:      0.812D+00
 Gap=     0.283 Goal=   None    Shift=    0.000
 RMSDP=2.59D-09 MaxDP=6.12D-08 DE=-1.71D-12 OVMax= 1.05D-07

 SCF Done:  E(RB3LYP) =  -209.190418633     A.U. after   12 cycles
            NFock= 12  Conv=0.26D-08     -V/T= 2.0067
 KE= 2.077968642559D+02 PE=-7.313135366229D+02 EE= 1.932504371248D+02
 Leave Link  502 at Thu Sep  1 15:43:05 2022, MaxMem= 24159191040 cpu:        41.8
 (Enter /public/home/users/caep010/software/Gaussian09/g09/l701.exe)
 Compute integral first derivatives.
 ... and contract with generalized density number  0.
 Leave Link  701 at Thu Sep  1 15:43:06 2022, MaxMem= 24159191040 cpu:        14.3
 (Enter /public/home/users/caep010/software/Gaussian09/g09/l702.exe)
 L702 exits ... SP integral derivatives will be done elsewhere.
 Leave Link  702 at Thu Sep  1 15:43:06 2022, MaxMem= 24159191040 cpu:         0.5
 (Enter /public/home/users/caep010/software/Gaussian09/g09/l703.exe)
 Compute integral first derivatives, UseDBF=F ICtDFT=           0.
 Integral derivatives from FoFJK, PRISM(SPDF).
 Calling FoFJK, ICntrl=      2127 FMM=F ISym2X=0 I1Cent= 0 IOpClX= 0 NMat=1 NMatS=1 NMatT=0.
 FoFJK:  IHMeth= 1 ICntrl=    2127 DoSepK=F KAlg= 0 I1Cent=   0 FoldK=F
 IRaf=         0 NMat=   1 IRICut=       1 DoRegI=T DoRafI=F ISym2E= 0.
 FoFCou: FMM=F IPFlag=           0 FMFlag=      100000 FMFlg1=         800
         NFxFlg=           0 DoJE=F BraDBF=F KetDBF=F FulRan=T
         wScrn=  0.000000 ICntrl=    2127 IOpCl=  0 I1Cent=           0 NGrid=           0
         NMat0=    1 NMatS0=      1 NMatT0=    0 NMatD0=    1 NMtDS0=    0 NMtDT0=    0
 Symmetry not used in FoFCou.
 Leave Link  703 at Thu Sep  1 15:43:07 2022, MaxMem= 24159191040 cpu:        21.1
 (Enter /public/home/users/caep010/software/Gaussian09/g09/l716.exe)
 Dipole        = 8.76066961D-01-2.11103556D-01 2.88679098D-03
 ***** Axes restored to original set *****
 -------------------------------------------------------------------
 Center     Atomic                   Forces (Hartrees/Bohr)
 Number     Number              X              Y              Z
 -------------------------------------------------------------------
      1        6           0.007260174   -0.010615530    0.006220304
      2        7           0.002159115    0.002099963   -0.003023665
      3        6           0.000690810    0.000420327   -0.002358729
      4        8           0.000385564    0.001183309    0.001519290
      5        1           0.000766617    0.003115955    0.003393433
      6        1          -0.008817517    0.004464593   -0.007759128
      7        1          -0.003037399    0.000208565    0.001403300
      8        1           0.000569079   -0.000699462    0.000840098
      9        1           0.000023556   -0.000177720   -0.000234902
 -------------------------------------------------------------------
 Cartesian Forces:  Max     0.010615530 RMS     0.003967100
 Leave Link  716 at Thu Sep  1 15:43:07 2022, MaxMem= 24159191040 cpu:         0.6
 (Enter /public/home/users/caep010/software/Gaussian09/g09/l103.exe)

 GradGradGradGradGradGradGradGradGradGradGradGradGradGradGradGradGradGrad
 Berny optimization.
 Using GEDIIS/GDIIS optimizer.
 FormGI is forming the generalized inverse of G from B-inverse, IUseBI=4.
 Internal  Forces:  Max     0.012554469 RMS     0.003102357
 Search for a local minimum.
 Step number   3 out of a maximum of   36
 All quantities printed in internal units (Hartrees-Bohrs-Radians)
 RMS Force = .31024D-02 SwitMx=.10000D-02 MixMth= 1
 Mixed Optimization -- RFO/linear search
 Update second derivatives using D2CorX and points    1    2    3
 DE= -2.76D-03 DEPred=-4.44D-03 R= 6.21D-01
 TightC=F SS=  1.41D+00  RLast= 1.87D-01 DXNew= 8.4853D-01 5.5995D-01
 Trust test= 6.21D-01 RLast= 1.87D-01 DXMaxT set to 5.60D-01
 ITU=  1  1  0
 Use linear search instead of GDIIS.
     Eigenvalues ---    0.01026   0.02347   0.03025   0.03639   0.09859
     Eigenvalues ---    0.10455   0.15855   0.15999   0.16000   0.16014
     Eigenvalues ---    0.16841   0.22006   0.22356   0.25237   0.29569
     Eigenvalues ---    0.33014   0.35118   0.38904   0.54664   0.54997
     Eigenvalues ---    0.81847
 RFO step:  Lambda=-3.74022694D-04 EMin= 1.02556448D-02
 Quartic linear search produced a step of -0.21427.
 Iteration  1 RMS(Cart)=  0.01394816 RMS(Int)=  0.00012827
 Iteration  2 RMS(Cart)=  0.00013372 RMS(Int)=  0.00005446
 Iteration  3 RMS(Cart)=  0.00000001 RMS(Int)=  0.00005446
 ITry= 1 IFail=0 DXMaxC= 3.62D-02 DCOld= 1.00D+10 DXMaxT= 5.60D-01 DXLimC= 3.00D+00 Rises=F
 Variable       Old X    -DE/DX   Delta X   Delta X   Delta X     New X
                                 (Linear)    (Quad)   (Total)
    R1        2.74178   0.00447   0.00082   0.00860   0.00942   2.75120
    R2        2.05623   0.00465   0.01989  -0.01024   0.00964   2.06587
    R3        2.03476   0.01255   0.03206   0.00644   0.03850   2.07325
    R4        2.06807   0.00122   0.00194   0.00065   0.00259   2.07066
    R5        2.37273   0.00172   0.00072   0.00098   0.00170   2.37443
    R6        2.57595   0.00166  -0.00244   0.00502   0.00258   2.57852
    R7        2.06399   0.00010  -0.00048   0.00083   0.00035   2.06434
    R8        1.81828  -0.00004  -0.00011   0.00006  -0.00006   1.81822
    A1        2.00873  -0.00106   0.00168  -0.00809  -0.00652   2.00222
    A2        1.90970  -0.00163  -0.00232  -0.00853  -0.01090   1.89881
    A3        1.86615   0.00516  -0.00125   0.03482   0.03353   1.89968
    A4        1.90282  -0.00006  -0.00277  -0.00293  -0.00581   1.89701
    A5        1.89924  -0.00093   0.00131  -0.00213  -0.00091   1.89833
    A6        1.87237  -0.00147   0.00365  -0.01315  -0.00948   1.86289
    A7        2.09114   0.00191   0.00421   0.00152   0.00572   2.09686
    A8        2.18722   0.00049   0.00063   0.00119   0.00173   2.18894
    A9        2.09178   0.00005   0.00032  -0.00001   0.00022   2.09200
   A10        2.00401  -0.00052  -0.00091  -0.00079  -0.00179   2.00222
   A11        1.91019  -0.00053   0.00191  -0.00547  -0.00356   1.90664
    D1       -0.10997   0.00136   0.00065   0.01722   0.01785  -0.09211
    D2        2.03924  -0.00077  -0.00361   0.00073  -0.00278   2.03646
    D3       -2.22151  -0.00055  -0.00117  -0.00030  -0.00156  -2.22307
    D4        0.00270  -0.00019  -0.00302   0.00313   0.00011   0.00281
    D5       -3.11767  -0.00153  -0.00848  -0.02009  -0.02857   3.13694
    D6        3.12655  -0.00063  -0.00307  -0.00902  -0.01208   3.11447
    D7       -0.03532   0.00065   0.00214   0.01318   0.01532  -0.02000
[...]
                 (A) (A) (A) (A) (A) (A) (A) (A) (A) (A) (A) (A)
                 (A) (A) (A) (A) (A) (A) (A) (A) (A) (A) (A) (A)
                 (A) (A) (A) (A) (A) (A) (A) (A) (A) (A) (A) (A)
                 (A) (A) (A) (A) (A) (A) (A) (A) (A) (A) (A) (A)
                 (A) (A) (A) (A) (A) (A) (A) (A) (A) (A) (A) (A)
                 (A) (A) (A) (A) (A) (A) (A) (A) (A) (A) (A) (A)
                 (A) (A) (A) (A) (A) (A) (A) (A) (A) (A) (A) (A)
                 (A) (A) (A) (A) (A) (A) (A) (A) (A) (A) (A) (A)
                 (A) (A) (A) (A) (A) (A) (A) (A) (A) (A) (A) (A)
                 (A) (A) (A) (A) (A) (A) (A) (A) (A) (A) (A) (A)
                 (A) (A) (A) (A) (A) (A) (A) (A) (A) (A) (A) (A)
                 (A) (A) (A) (A)
 The electronic state is 1-A.
 Alpha  occ. eigenvalues --  -20.60356 -15.54348 -11.33269 -11.23869  -1.42408
 Alpha  occ. eigenvalues --   -1.21226  -0.95161  -0.80377  -0.75632  -0.65147
 Alpha  occ. eigenvalues --   -0.61247  -0.57591  -0.55975  -0.53616  -0.41349
 Alpha  occ. eigenvalues --   -0.39245
 Alpha virt. eigenvalues --    0.03265   0.04833   0.05389   0.05540   0.07259
 Alpha virt. eigenvalues --    0.07943   0.08007   0.12285   0.13226   0.14089
 Alpha virt. eigenvalues --    0.14481   0.15975   0.16413   0.16452   0.17451
 Alpha virt. eigenvalues --    0.18956   0.20997   0.22137   0.22715   0.25483
 Alpha virt. eigenvalues --    0.26076   0.28560   0.29731   0.29842   0.31045
 Alpha virt. eigenvalues --    0.33152   0.33982   0.37654   0.41971   0.43113
 Alpha virt. eigenvalues --    0.44723   0.45611   0.47512   0.47961   0.50126
 Alpha virt. eigenvalues --    0.51194   0.52323   0.54058   0.54693   0.55348
 Alpha virt. eigenvalues --    0.57980   0.58564   0.59619   0.61909   0.64564
 Alpha virt. eigenvalues --    0.66552   0.69221   0.69893   0.70116   0.72989
 Alpha virt. eigenvalues --    0.75079   0.78883   0.81170   0.82314   0.84318
 Alpha virt. eigenvalues --    0.89645   0.91022   0.91275   0.93763   0.95161
 Alpha virt. eigenvalues --    0.96298   0.99111   1.00244   1.00837   1.03160
 Alpha virt. eigenvalues --    1.06032   1.07476   1.08849   1.11999   1.13401
 Alpha virt. eigenvalues --    1.15033   1.15790   1.16875   1.19218   1.21690
 Alpha virt. eigenvalues --    1.21891   1.26517   1.27808   1.30212   1.30674
 Alpha virt. eigenvalues --    1.32822   1.36771   1.37395   1.39070   1.42375
 Alpha virt. eigenvalues --    1.42835   1.44683   1.48821   1.50210   1.52307
 Alpha virt. eigenvalues --    1.54265   1.56313   1.57963   1.59746   1.65466
 Alpha virt. eigenvalues --    1.66783   1.67887   1.70208   1.72849   1.73904
 Alpha virt. eigenvalues --    1.75151   1.77140   1.79624   1.81839   1.83480
 Alpha virt. eigenvalues --    1.85687   1.91172   1.94451   1.94788   2.00522
 Alpha virt. eigenvalues --    2.01411   2.02887   2.06062   2.07558   2.09675
 Alpha virt. eigenvalues --    2.16833   2.18574   2.22837   2.27482   2.29217
 Alpha virt. eigenvalues --    2.33664   2.35594   2.37495   2.40089   2.42630
 Alpha virt. eigenvalues --    2.46680   2.48731   2.50138   2.52583   2.56958
 Alpha virt. eigenvalues --    2.58044   2.61182   2.61471   2.64696   2.66492
 Alpha virt. eigenvalues --    2.67075   2.70459   2.72970   2.74774   2.77589
 Alpha virt. eigenvalues --    2.78579   2.80533   2.83474   2.85081   2.88430
 Alpha virt. eigenvalues --    2.90287   2.90573   2.93508   2.96577   2.97427
 Alpha virt. eigenvalues --    2.99110   2.99308   3.02350   3.03862   3.05052
 Alpha virt. eigenvalues --    3.07342   3.11184   3.11640   3.14755   3.15781
 Alpha virt. eigenvalues --    3.17936   3.19556   3.23122   3.24795   3.25735
 Alpha virt. eigenvalues --    3.26057   3.27159   3.35797   3.37514   3.38651
 Alpha virt. eigenvalues --    3.40637   3.40796   3.46795   3.47589   3.49203
 Alpha virt. eigenvalues --    3.53281   3.55508   3.56628   3.58746   3.64310
 Alpha virt. eigenvalues --    3.69288   3.69947   3.72526   3.76705   3.77879
 Alpha virt. eigenvalues --    3.81335   3.84425   3.86988   3.90625   3.93362
 Alpha virt. eigenvalues --    3.94726   3.99379   4.04280   4.07385   4.08229
 Alpha virt. eigenvalues --    4.11229   4.11990   4.14048   4.15771   4.17697
 Alpha virt. eigenvalues --    4.18850   4.23112   4.26056   4.26955   4.31724
 Alpha virt. eigenvalues --    4.34687   4.38432   4.40515   4.43158   4.44635
 Alpha virt. eigenvalues --    4.49537   4.51651   4.58971   4.61826   4.66580
 Alpha virt. eigenvalues --    4.71960   4.80143   4.82814   4.83681   4.87698
 Alpha virt. eigenvalues --    4.91472   4.94921   5.03063   5.03740   5.08943
 Alpha virt. eigenvalues --    5.11922   5.15574   5.22729   5.26787   5.29438
 Alpha virt. eigenvalues --    5.30680   5.38644   5.41124   5.44852   5.47772
 Alpha virt. eigenvalues --    5.50737   5.54077   5.62421   5.64640   5.65341
 Alpha virt. eigenvalues --    5.70214   5.72408   5.75688   5.85754   5.94829
 Alpha virt. eigenvalues --    5.97631   6.00459   6.05567   6.10268   6.14180
 Alpha virt. eigenvalues --    6.16193   6.23108   6.30329   6.34830   6.37728
 Alpha virt. eigenvalues --    6.39923   6.46565   6.49577   6.56974   6.58061
 Alpha virt. eigenvalues --    6.64515   6.77983   6.79134   6.85462   6.89713
 Alpha virt. eigenvalues --    6.93816   7.00508   7.01806   7.11684   7.13147
 Alpha virt. eigenvalues --    7.22863   7.38151   7.38542   7.51512   7.51828
 Alpha virt. eigenvalues --    7.53161   7.54408   7.67955   7.69116   7.72321
 Alpha virt. eigenvalues --    7.74083   7.79654   7.82305   7.87366   7.93855
 Alpha virt. eigenvalues --    7.96703   7.97683   7.99788   8.01799   8.02722
 Alpha virt. eigenvalues --    8.15642   8.21961   8.22919   8.23893   8.27219
 Alpha virt. eigenvalues --    8.33414   8.39990   8.42018   8.45663   8.54614
 Alpha virt. eigenvalues --    8.55670   8.59299   8.61201   8.62253   8.64002
 Alpha virt. eigenvalues --    8.69496   8.72118   8.78169   8.79452   8.84669
 Alpha virt. eigenvalues --    8.85833   8.86969   8.92281   8.92883   8.94225
 Alpha virt. eigenvalues --    8.98062   9.00627   9.05047   9.06972   9.07592
 Alpha virt. eigenvalues --    9.09524   9.09873   9.21956   9.26784   9.29545
 Alpha virt. eigenvalues --    9.34007   9.34716   9.40137   9.41347   9.46404
 Alpha virt. eigenvalues --    9.48509   9.50495   9.52541   9.57058   9.63953
 Alpha virt. eigenvalues --    9.70084   9.72661   9.76255   9.82407   9.86879
 Alpha virt. eigenvalues --    9.87604   9.91580   9.93075  10.01345  10.11064
 Alpha virt. eigenvalues --   10.16521  10.16925  10.21914  10.24208  10.27850
 Alpha virt. eigenvalues --   10.28482  10.30814  10.39583  10.44165  10.46251
 Alpha virt. eigenvalues --   10.47061  10.48632  10.58129  10.62558  10.70480
 Alpha virt. eigenvalues --   10.72032  10.75371  10.77902  10.79873  10.86608
 Alpha virt. eigenvalues --   10.90369  10.93965  11.02862  11.04539  11.05787
 Alpha virt. eigenvalues --   11.12031  11.13053  11.13676  11.29600  11.34194
 Alpha virt. eigenvalues --   11.35710  11.39870  11.42268  11.45277  11.50192
 Alpha virt. eigenvalues --   11.56052  11.59578  11.64479  11.72895  11.73485
 Alpha virt. eigenvalues --   11.79224  11.88177  11.93909  11.97779  12.03855
 Alpha virt. eigenvalues --   12.06771  12.08488  12.16329  12.24799  12.31962
 Alpha virt. eigenvalues --   12.39740  12.44608  12.53878  12.57771  12.66337
 Alpha virt. eigenvalues --   12.69877  12.78935  12.87209  12.92356  12.96741
 Alpha virt. eigenvalues --   13.12488  13.15053  13.28076  13.33650  13.37971
 Alpha virt. eigenvalues --   13.56646  13.68679  13.70556  13.88756  14.01782
 Alpha virt. eigenvalues --   14.16938  14.32578  14.33031  14.58066  14.58869
 Alpha virt. eigenvalues --   14.68961  14.69888  14.77215  14.91096  15.02306
 Alpha virt. eigenvalues --   15.03436  15.06983  15.09943  15.23429  15.25965
 Alpha virt. eigenvalues --   15.32759  15.37931  15.44138  15.48989  15.52869
 Alpha virt. eigenvalues --   15.65075  15.81299  15.84647  16.07978  16.21408
 Alpha virt. eigenvalues --   16.22031  16.42969  16.44216  16.56822  16.79711
 Alpha virt. eigenvalues --   17.39490  17.44308  17.51898  17.54780  17.57701
 Alpha virt. eigenvalues --   17.92926  18.05505  18.26393  18.48008  18.55466
 Alpha virt. eigenvalues --   18.70813  18.73110  18.84048  19.02251  19.07587
 Alpha virt. eigenvalues --   19.13164  19.30615  19.34361  19.38217  19.49190
 Alpha virt. eigenvalues --   19.56548  19.65708  19.91636  20.02180  20.05759
 Alpha virt. eigenvalues --   20.11292  20.25185  20.56423  21.11064  22.39132
 Alpha virt. eigenvalues --   22.40103  23.06761  23.12993  23.75353  24.08035
 Alpha virt. eigenvalues --   40.15253  40.42806  51.58300  63.27498
          Condensed to atoms (all electrons):
               1          2          3          4          5          6
     1  C    4.963042   0.244819  -0.036657  -0.024227   0.407097   0.417198
     2  N    0.244819   6.684165   0.638523  -0.046275   0.000024  -0.048486
     3  C   -0.036657   0.638523   4.550912   0.265144  -0.021506   0.003022
     4  O   -0.024227  -0.046275   0.265144   8.071676  -0.001349   0.001938
     5  H    0.407097   0.000024  -0.021506  -0.001349   0.489217  -0.027551
     6  H    0.417198  -0.048486   0.003022   0.001938  -0.027551   0.506249
     7  H    0.420927  -0.052254   0.004577   0.001174  -0.027541  -0.028268
     8  H    0.007425  -0.062359   0.440850  -0.051296  -0.001692  -0.000153
     9  H    0.000406   0.003241  -0.012434   0.300658  -0.000323   0.000042
               7          8          9
     1  C    0.420927   0.007425   0.000406
     2  N   -0.052254  -0.062359   0.003241
     3  C    0.004577   0.440850  -0.012434
     4  O    0.001174  -0.051296   0.300658
     5  H   -0.027541  -0.001692  -0.000323
     6  H   -0.028268  -0.000153   0.000042
     7  H    0.505855  -0.000036   0.000101
     8  H   -0.000036   0.482228  -0.007204
     9  H    0.000101  -0.007204   0.331544
 Mulliken charges:
               1
     1  C   -0.400030
     2  N   -0.361398
     3  C    0.167569
     4  O   -0.517443
     5  H    0.183624
     6  H    0.176008
     7  H    0.175464
     8  H    0.192237
     9  H    0.383970
 Sum of Mulliken charges =  -0.00000
 Mulliken charges with hydrogens summed into heavy atoms:
               1
     1  C    0.135065
     2  N   -0.361398
     3  C    0.359806
     4  O   -0.133473
 Electronic spatial extent (au):  <R**2>=            281.6841
 Charge=             -0.0000 electrons
 Dipole moment (field-independent basis, Debye):
    X=              2.4788    Y=             -0.4799    Z=             -0.0246  Tot=              2.5249
 Quadrupole moment (field-independent basis, Debye-Ang):
   XX=            -17.1395   YY=            -27.3535   ZZ=            -25.3164
   XY=              3.2944   XZ=             -0.0886   YZ=              0.0142
 Traceless Quadrupole moment (field-independent basis, Debye-Ang):
   XX=              6.1303   YY=             -4.0837   ZZ=             -2.0466
   XY=              3.2944   XZ=             -0.0886   YZ=              0.0142
 Octapole moment (field-independent basis, Debye-Ang**2):
  XXX=             23.0431  YYY=             -4.1561  ZZZ=              0.1711  XYY=              5.9371
  XXY=             -2.1253  XXZ=             -0.2788  XZZ=              0.9434  YZZ=             -1.1316
  YYZ=             -0.0851  XYZ=              0.1323
 Hexadecapole moment (field-independent basis, Debye-Ang**3):
 XXXX=           -185.1256 YYYY=            -95.6183 ZZZZ=            -31.4306 XXXY=             -7.7653
 XXXZ=              0.0310 YYYX=              3.7899 YYYZ=              0.1738 ZZZX=             -0.3546
 ZZZY=             -0.1219 XXYY=            -55.2162 XXZZ=            -43.0706 YYZZ=            -22.5984
 XXYZ=             -0.1412 YYXZ=             -0.0244 ZZXY=             -0.4654
 N-N= 1.207523130135D+02 E-N=-7.301002725410D+02  KE= 2.077470543056D+02
 No NMR shielding tensors so no spin-rotation constants.
 Leave Link  601 at Thu Sep  1 15:47:29 2022, MaxMem= 24159191040 cpu:        22.7
 (Enter /public/home/users/caep010/software/Gaussian09/g09/l9999.exe)
 1\1\GINC-B0921\SP\RHF\GFHFB2\C2H5N1O1\ROOT\01-Sep-2022\0\\#P Geom=AllC
 heck Guess=TCheck SCRF=Check HF/GFHFB2 SCF=Tight\\Frag_598\\0,1\C,0,-1
 .2519635723,-0.3969742836,0.115491818\N,0,-0.0568686746,-0.6134705475,
 -0.6860458791\C,0,0.9953815059,0.022943449,-0.4294849806\O,0,1.1412690
 865,0.9422683704,0.569324601\H,0,-1.1154518695,0.2689845579,0.97470856
 05\H,0,-2.0378103816,0.016603494,-0.5267874435\H,0,-1.614589257,-1.366
 8110793,0.4727883825\H,0,1.8918138189,-0.1424504184,-1.0312961653\H,0,
 2.0452183437,1.2720064575,0.5664001064\\Version=ES64L-G09RevE.01\State
 =1-A\HF=-208.0324491\RMSD=3.413e-09\Dipole=0.8060912,0.5223057,0.25337
 5\Quadrupole=4.68852,-1.9505679,-2.7379521,1.8659743,-0.5886579,-1.298
 7568\PG=C01 [X(C2H5N1O1)]\\@


 ERWIN WITH HIS PSI CAN DO
 CALCULATIONS QUITE A FEW.
 BUT ONE THING HAS NOT BEEN SEEN
 JUST WHAT DOES PSI REALLY MEAN.
 -- WALTER HUCKEL, TRANS. BY FELIX BLOCH
 Diagonal vibrational polarizability:
        0.0000000       0.0000000       0.0000000

 Temperature=              298.150000 Pressure=                      1.000000
 E(ZPE)=                     0.072407 E(Thermal)=                    0.077465
 E(CCSD(T))=              -208.573886 E(Empiric)=                   -0.083364
 DE(Plus)=                  -0.017149 DE(2DF)=                      -0.172298
 E(Delta-G3XP)=             -0.266517 DE(HF)=                       -0.021287
 G4(0 K)=                 -209.062094 G4 Energy=                  -209.057036
 G4 Enthalpy=             -209.056092 G4 Free Energy=             -209.090257
 1\1\GINC-B0921\Mixed\G4\G4\C2H5N1O1\ROOT\01-Sep-2022\0\\#P Geom=AllChe
 ck Guess=TCheck SCRF=Check HF/GFHFB2 SCF=Tight\\Frag_598\\0,1\C,0,-1.2
 519635723,-0.3969742836,0.115491818\N,0,-0.0568686746,-0.6134705475,-0
 .6860458791\C,0,0.9953815059,0.022943449,-0.4294849806\O,0,1.141269086
 5,0.9422683704,0.569324601\H,0,-1.1154518695,0.2689845579,0.9747085605
 \H,0,-2.0378103816,0.016603494,-0.5267874435\H,0,-1.614589257,-1.36681
 10793,0.4727883825\H,0,1.8918138189,-0.1424504184,-1.0312961653\H,0,2.
 0452183437,1.2720064575,0.5664001064\\Version=ES64L-G09RevE.01\State=1
 -A\MP2/GTBas1=-208.5241607\MP4/GTBas1=-208.5743652\CCSD(T)/G3Bas1=-208
 .5738864\MP2/GTBas2=-208.5404443\MP4/GTBas2=-208.5915143\MP2/GTBas3=-2
 08.6863738\MP4/GTBas3=-208.7466631\HF/GTLargeXP=-208.0120374\MP2/GTLar
 geXP=-208.9691743\HF/GFHFB1=-208.0288574\HF/GFHFB2=-208.0324491\G4=-20
 9.0620939\FreqCoord=-2.36586828,-0.7501726778,0.2182479066,-0.10746622
 06,-1.1592913253,-1.2964388261,1.8809984439,0.0433568351,-0.8116089914
 ,2.1566860174,1.7806291637,1.0758675767,-2.1078985478,0.5083071484,1.8
 419322387,-3.850903532,0.0313760566,-0.9954839984,-3.0511315128,-2.582
 8986152,0.8934405617,3.5750100122,-0.2691922784,-1.9488673143,3.864902
 5515,2.4037438439,1.0703410828\PG=C01 [X(C2H5N1O1)]\NImag=0\\0.4958513
 6,0.02339112,0.56277942,0.04945393,0.00016587,0.53326720,-0.15638978,0
 .03584462,0.07989397,0.76267999,0.00309246,-0.07915086,-0.00075495,0.2
 5426953,0.29153353,0.04049553,-0.01390505,-0.11731874,-0.00740065,0.10
 119074,0.22688096,-0.05586792,-0.02713899,-0.00372883,-0.51178384,-0.2
 0980541,-0.04013479,0.90620216,-0.00408226,0.00191353,-0.00259610,-0.2
 4762598,-0.20366437,-0.04565363,0.23363798,0.42252257,0.02328479,0.006
 21869,0.00472208,-0.08435970,-0.06232512,-0.10209820,-0.07072595,0.203
 04934,0.42444812,0.00387003,0.00127939,-0.00307789,-0.00301753,-0.0434
 7620,-0.03719567,-0.11394114,-0.03037690,-0.00397629,0.57364151,0.0075
 1327,-0.00393824,0.00074032,-0.02913669,-0.01918510,-0.03857036,0.0036
 4852,-0.14786954,-0.12246571,0.19638663,0.24550888,0.00324948,0.003306
 65,-0.00632814,-0.02061970,-0.03192401,-0.00176964,0.03546646,-0.10804
 814,-0.18398833,-0.01127850,0.17742826,0.22939855,-0.05782644,-0.02751
 821,-0.03523005,-0.00380629,0.01781545,0.02782884,0.00597629,0.0056493
 1,0.00458463,-0.00300453,-0.00359444,-0.00227763,0.06254620,-0.0245689
 3,-0.14674926,-0.12000866,0.00549805,0.00081429,-0.00506125,-0.0020405
 6,-0.00109151,-0.00081005,-0.00176555,-0.00006750,0.00178134,0.0265668
 1,0.15392185,-0.03066911,-0.11830070,-0.20226721,0.00963138,-0.0099772
 0,-0.01551205,-0.00484478,-0.00507306,-0.00295690,-0.00075529,0.002687
 57,0.00284156,0.02928224,0.13573262,0.22128043,-0.16744216,0.06724733,
 -0.11051246,-0.03267766,0.00974575,-0.00993780,-0.00014562,0.00465675,
 0.00365119,-0.00016587,-0.00064092,-0.00199749,-0.00267675,0.00166269,
 -0.00392711,0.19499710,0.07002002,-0.08271617,0.05692664,0.00280726,0.
 00082398,0.00077860,-0.00090904,-0.00166233,-0.00138293,0.00026405,0.0
 0033137,0.00151169,-0.01481833,0.00862460,-0.01256444,-0.07771326,0.08
 606948,-0.11282086,0.05930942,-0.14439773,0.01745938,-0.00959911,0.014
 06402,0.00291898,-0.00131751,-0.00229401,-0.00008654,0.00006212,0.0019
 9570,-0.01579438,0.01084060,-0.01381947,0.11619646,-0.06407788,0.15222
 248,-0.06550385,-0.07007549,0.02195502,-0.02075702,-0.02579618,0.01604
 596,-0.00152573,0.00138243,0.00413312,0.00020848,-0.00118049,-0.000576
 18,-0.00132683,-0.00576952,0.00103583,0.00798125,0.02071750,-0.0072153
 9,0.08191829,-0.07310168,-0.25869144,0.07227290,-0.00165396,0.01015208
 ,-0.00260057,0.00302710,0.00042782,-0.00017509,-0.00057404,0.00053450,
 0.00007203,-0.00404386,-0.01596772,0.00674986,-0.00339175,-0.01178170,
 0.00324115,0.07961964,0.27590790,0.02509918,0.06920607,-0.07274350,0.0
 1095804,0.01607046,-0.00709433,0.00090415,-0.00220971,-0.00372461,-0.0
 0081815,0.00190236,0.00096722,-0.00750639,-0.02273217,0.00961423,0.005
 33837,0.01890805,-0.00667881,-0.03429119,-0.08025879,0.07844245,0.0022
 4244,-0.00324189,0.00156133,-0.03598209,-0.00457881,0.01010979,-0.2219
 0962,0.03373006,0.11959785,0.00642626,-0.00268597,-0.00128011,-0.00061
 531,0.00015275,0.00052205,-0.00000281,-0.00009762,-0.00033637,-0.00113
 441,0.00014899,0.00056590,0.24912743,-0.00403091,0.00681865,-0.0059707
 6,-0.01999295,-0.00069086,0.01113280,0.03324964,-0.05392332,-0.0249233
 9,0.01398464,-0.00532289,-0.02453885,-0.00031431,0.00021798,0.00020838
 ,-0.00178341,0.00021652,0.00138666,0.00101837,-0.00047537,-0.00071647,
 -0.02428631,0.05274967,0.00049911,-0.00623868,0.00602905,-0.00782406,0
 .00399703,0.00587522,0.11902399,-0.02518013,-0.12934848,0.01807347,-0.
 01672659,-0.01742380,-0.00049538,-0.00011529,0.00032856,0.00116668,-0.
 00011809,-0.00101833,-0.00123882,0.00043016,0.00090749,-0.13063743,0.0
 4316684,0.13492393,0.00106632,0.00021212,-0.00031504,0.00173422,-0.001
 26657,0.00018877,-0.00700458,0.00302862,0.00381036,-0.46401720,-0.1703
 0990,-0.00068634,0.00073366,0.00026424,-0.00027522,0.00013254,-0.00027
 057,-0.00032127,0.00013983,-0.00003045,-0.00024991,0.00184811,0.002155
 25,0.00143244,0.46536711,0.00176693,-0.00026563,-0.00077526,-0.0000098
 7,-0.00063268,-0.00731129,-0.03366923,-0.01665284,0.00281426,-0.135722
 02,-0.06999149,-0.01958898,0.00025758,0.00029728,0.00053697,0.00021682
 ,0.00009425,0.00015456,0.00008375,-0.00010608,-0.00016981,0.00085880,0
 .00040963,0.00078476,0.16621725,0.08684757,0.00140795,0.00023773,-0.00
 096302,0.00226133,-0.00667785,-0.00302726,-0.03887922,-0.01297105,-0.0
 0475967,0.03911485,-0.00505798,-0.02569312,-0.00039188,0.00037287,0.00
 049085,0.00002216,0.00001837,-0.00007386,0.00015163,0.00026834,0.00030
 985,-0.00010302,0.00025477,-0.00027363,-0.00358380,0.02355480,0.033989
 84\\0.00001281,-0.00009177,-0.00019339,-0.00002980,-0.00010233,-0.0000
 1350,-0.00009801,0.00022012,0.00007648,0.00000647,-0.00009261,-0.00011
 599,0.00001151,0.00015119,0.00019155,0.00007143,-0.00003904,0.00002865
 ,0.00001836,0.00001339,-0.00002513,-0.00000290,-0.00004840,0.00000667,
 0.00001013,-0.00001056,0.00004465\\\@
 Job cpu time:       0 days  0 hours 21 minutes 10.5 seconds.
 File lengths (MBytes):  RWF=    861 Int=      0 D2E=      0 Chk=     17 Scr=      1
 Normal termination of Gaussian 09 at Thu Sep  1 15:47:29 2022.
