 Entering Gaussian System, Link 0=g09
 Input=G4.Frag_769.gjf
 Output=G4.Frag_769.log
 Initial command:
 /public/home/users/caep010/software/Gaussian09/g09/l1.exe "/public/home/users/caep010/.cache/gau_scr/Gau-146165.inp" -scrdir="/public/home/users/caep010/.cache/gau_scr/"
 Entering Link 1 = /public/home/users/caep010/software/Gaussian09/g09/l1.exe PID=    146166.
  
 Copyright (c) 1988,1990,1992,1993,1995,1998,2003,2009,2015,
            Gaussian, Inc.  All Rights Reserved.
  
 This is part of the Gaussian(R) 09 program.  It is based on
 the Gaussian(R) 03 system (copyright 2003, Gaussian, Inc.),
 the Gaussian(R) 98 system (copyright 1998, Gaussian, Inc.),
 the Gaussian(R) 94 system (copyright 1995, Gaussian, Inc.),
 the Gaussian 92(TM) system (copyright 1992, Gaussian, Inc.),
 the Gaussian 90(TM) system (copyright 1990, Gaussian, Inc.),
 the Gaussian 88(TM) system (copyright 1988, Gaussian, Inc.),
 the Gaussian 86(TM) system (copyright 1986, Carnegie Mellon
 University), and the Gaussian 82(TM) system (copyright 1983,
 Carnegie Mellon University). Gaussian is a federally registered
 trademark of Gaussian, Inc.
  
 This software contains proprietary and confidential information,
 including trade secrets, belonging to Gaussian, Inc.
  
 This software is provided under written license and may be
 used, copied, transmitted, or stored only in accord with that
 written license.
  
 The following legend is applicable only to US Government
 contracts under FAR:
  
                    RESTRICTED RIGHTS LEGEND
  
 Use, reproduction and disclosure by the US Government is
 subject to restrictions as set forth in subparagraphs (a)
 and (c) of the Commercial Computer Software - Restricted
 Rights clause in FAR 52.227-19.
  
 Gaussian, Inc.
 340 Quinnipiac St., Bldg. 40, Wallingford CT 06492
  
  
 ---------------------------------------------------------------
 Warning -- This program may not be used in any manner that
 competes with the business of Gaussian, Inc. or will provide
 assistance to any competitor of Gaussian, Inc.  The licensee
 of this program is prohibited from giving any competitor of
 Gaussian, Inc. access to this program.  By using this program,
 the user acknowledges that Gaussian, Inc. is engaged in the
 business of creating and licensing software in the field of
 computational chemistry and represents and warrants to the
 licensee that it is not a competitor of Gaussian, Inc. and that
 it will not use this program in any manner prohibited above.
 ---------------------------------------------------------------
  

 Cite this work as:
 Gaussian 09, Revision E.01,
 M. J. Frisch, G. W. Trucks, H. B. Schlegel, G. E. Scuseria, 
 M. A. Robb, J. R. Cheeseman, G. Scalmani, V. Barone, B. Mennucci, 
 G. A. Petersson, H. Nakatsuji, M. Caricato, X. Li, H. P. Hratchian, 
 A. F. Izmaylov, J. Bloino, G. Zheng, J. L. Sonnenberg, M. Hada, 
 M. Ehara, K. Toyota, R. Fukuda, J. Hasegawa, M. Ishida, T. Nakajima, 
 Y. Honda, O. Kitao, H. Nakai, T. Vreven, J. A. Montgomery, Jr., 
 J. E. Peralta, F. Ogliaro, M. Bearpark, J. J. Heyd, E. Brothers, 
 K. N. Kudin, V. N. Staroverov, T. Keith, R. Kobayashi, J. Normand, 
 K. Raghavachari, A. Rendell, J. C. Burant, S. S. Iyengar, J. Tomasi, 
 M. Cossi, N. Rega, J. M. Millam, M. Klene, J. E. Knox, J. B. Cross, 
 V. Bakken, C. Adamo, J. Jaramillo, R. Gomperts, R. E. Stratmann, 
 O. Yazyev, A. J. Austin, R. Cammi, C. Pomelli, J. W. Ochterski, 
 R. L. Martin, K. Morokuma, V. G. Zakrzewski, G. A. Voth, 
 P. Salvador, J. J. Dannenberg, S. Dapprich, A. D. Daniels, 
 O. Farkas, J. B. Foresman, J. V. Ortiz, J. Cioslowski, 
 and D. J. Fox, Gaussian, Inc., Wallingford CT, 2013.
 
 ******************************************
 Gaussian 09:  ES64L-G09RevE.01 30-Nov-2015
                20-Aug-2022 
 ******************************************
 %nproc=32
 Will use up to   32 processors via shared memory.
 %mem=180MB
 %chk=G4.Frag_769.chk
 -----
 #P G4
 -----
 1/14=-1,18=20,19=15,26=3,38=1/1,3;
 2/9=110,12=2,17=6,18=5,40=1/2;
 3/5=35,7=104,11=2,16=1,25=1,30=1,71=1,74=-5/1,2,3;
 4//1;
 5/5=2,38=5/2;
 6/7=2,8=2,9=2,10=2,28=1/1;
 7//1,2,3,16;
 1/14=-1,18=20,19=15,26=3/3(2);
 2/9=110/2;
 99//99;
 2/9=110/2;
 3/5=35,7=104,11=2,16=1,25=1,30=1,71=1,74=-5/1,2,3;
 4/5=5,16=3,69=1/1;
 5/5=2,38=5/2;
 7//1,2,3,16;
 1/14=-1,18=20,19=15,26=3/3(-5);
 2/9=110/2;
 6/7=2,8=2,9=2,10=2,19=2,28=1/1;
 99/9=1/99;
 Leave Link    1 at Sat Aug 20 12:45:11 2022, MaxMem=    23592960 cpu:         3.1
 (Enter /public/home/users/caep010/software/Gaussian09/g09/l101.exe)
 --------
 Frag_769
 --------
 Symbolic Z-matrix:
 Charge =  0 Multiplicity = 1
 C                     2.1275   -0.145     0.1272 
 N                     1.0843   -0.7558    0.5744 
 C                    -0.2875   -0.3732    0.2763 
 C                    -0.5653    1.054     0.7911 
 C                    -0.5473   -0.4648   -1.2413 
 O                    -1.1328   -1.278     0.945 
 H                     3.1141   -0.5009    0.4019 
 H                     2.0464    0.7216   -0.5211 
 H                    -1.6293    1.3277    0.6249 
 H                     0.0665    1.8006    0.2656 
 H                    -0.3538    1.1126    1.8802 
 H                    -1.6107   -0.2368   -1.4688 
 H                    -0.3229   -1.4908   -1.6036 
 H                     0.0848    0.2561   -1.8012 
 H                    -2.0742   -1.0273    0.7493 
 
 Add atom      1 valence  3 ND=      2 dihedral       2      1      7      8
 NAtoms=     15 NQM=       15 NQMF=       0 NMMI=      0 NMMIF=      0
                NMic=       0 NMicF=      0.
                    Isotopes and Nuclear Properties:
 (Nuclear quadrupole moments (NQMom) in fm**2, nuclear magnetic moments (NMagM)
  in nuclear magnetons)

  Atom         1           2           3           4           5           6           7           8           9          10
 IAtWgt=          12          14          12          12          12          16           1           1           1           1
 AtmWgt=  12.0000000  14.0030740  12.0000000  12.0000000  12.0000000  15.9949146   1.0078250   1.0078250   1.0078250   1.0078250
 NucSpn=           0           2           0           0           0           0           1           1           1           1
 AtZEff=   0.0000000   0.0000000   0.0000000   0.0000000   0.0000000   0.0000000   0.0000000   0.0000000   0.0000000   0.0000000
 NQMom=    0.0000000   2.0440000   0.0000000   0.0000000   0.0000000   0.0000000   0.0000000   0.0000000   0.0000000   0.0000000
 NMagM=    0.0000000   0.4037610   0.0000000   0.0000000   0.0000000   0.0000000   2.7928460   2.7928460   2.7928460   2.7928460
 AtZNuc=   6.0000000   7.0000000   6.0000000   6.0000000   6.0000000   8.0000000   1.0000000   1.0000000   1.0000000   1.0000000

  Atom        11          12          13          14          15
 IAtWgt=           1           1           1           1           1
 AtmWgt=   1.0078250   1.0078250   1.0078250   1.0078250   1.0078250
 NucSpn=           1           1           1           1           1
 AtZEff=   0.0000000   0.0000000   0.0000000   0.0000000   0.0000000
 NQMom=    0.0000000   0.0000000   0.0000000   0.0000000   0.0000000
 NMagM=    2.7928460   2.7928460   2.7928460   2.7928460   2.7928460
 AtZNuc=   1.0000000   1.0000000   1.0000000   1.0000000   1.0000000
 Leave Link  101 at Sat Aug 20 12:45:11 2022, MaxMem=    23592960 cpu:         2.2
 (Enter /public/home/users/caep010/software/Gaussian09/g09/l103.exe)

 GradGradGradGradGradGradGradGradGradGradGradGradGradGradGradGradGradGrad
 Berny optimization.
 Initialization pass.
                           ----------------------------
                           !    Initial Parameters    !
                           ! (Angstroms and Degrees)  !
 --------------------------                            --------------------------
 ! Name  Definition              Value          Derivative Info.                !
 --------------------------------------------------------------------------------
 ! R1    R(1,2)                  1.2889         estimate D2E/DX2                !
 ! R2    R(1,7)                  1.0842         estimate D2E/DX2                !
 ! R3    R(1,8)                  1.0853         estimate D2E/DX2                !
 ! R4    R(2,3)                  1.455          estimate D2E/DX2                !
 ! R5    R(3,4)                  1.5424         estimate D2E/DX2                !
 ! R6    R(3,5)                  1.5424         estimate D2E/DX2                !
 ! R7    R(3,6)                  1.4073         estimate D2E/DX2                !
 ! R8    R(4,9)                  1.1111         estimate D2E/DX2                !
 ! R9    R(4,10)                 1.1103         estimate D2E/DX2                !
 ! R10   R(4,11)                 1.111          estimate D2E/DX2                !
 ! R11   R(5,12)                 1.1111         estimate D2E/DX2                !
 ! R12   R(5,13)                 1.111          estimate D2E/DX2                !
 ! R13   R(5,14)                 1.1103         estimate D2E/DX2                !
 ! R14   R(6,15)                 0.9937         estimate D2E/DX2                !
 ! A1    A(2,1,7)              119.54           estimate D2E/DX2                !
 ! A2    A(2,1,8)              121.6794         estimate D2E/DX2                !
 ! A3    A(7,1,8)              118.7807         estimate D2E/DX2                !
 ! A4    A(1,2,3)              124.5673         estimate D2E/DX2                !
 ! A5    A(2,3,4)              110.1654         estimate D2E/DX2                !
 ! A6    A(2,3,5)              110.1679         estimate D2E/DX2                !
 ! A7    A(2,3,6)              107.4515         estimate D2E/DX2                !
 ! A8    A(4,3,5)              110.6714         estimate D2E/DX2                !
 ! A9    A(4,3,6)              109.156          estimate D2E/DX2                !
 ! A10   A(5,3,6)              109.1584         estimate D2E/DX2                !
 ! A11   A(3,4,9)              110.5157         estimate D2E/DX2                !
 ! A12   A(3,4,10)             111.2076         estimate D2E/DX2                !
 ! A13   A(3,4,11)             109.9805         estimate D2E/DX2                !
 ! A14   A(9,4,10)             107.967          estimate D2E/DX2                !
 ! A15   A(9,4,11)             108.417          estimate D2E/DX2                !
 ! A16   A(10,4,11)            108.6737         estimate D2E/DX2                !
 ! A17   A(3,5,12)             110.5166         estimate D2E/DX2                !
 ! A18   A(3,5,13)             109.9796         estimate D2E/DX2                !
 ! A19   A(3,5,14)             111.206          estimate D2E/DX2                !
 ! A20   A(12,5,13)            108.4238         estimate D2E/DX2                !
 ! A21   A(12,5,14)            107.9617         estimate D2E/DX2                !
 ! A22   A(13,5,14)            108.6739         estimate D2E/DX2                !
 ! A23   A(3,6,15)             108.2567         estimate D2E/DX2                !
 ! D1    D(7,1,2,3)           -179.9987         estimate D2E/DX2                !
 ! D2    D(8,1,2,3)              0.0022         estimate D2E/DX2                !
 ! D3    D(2,1,7,8)           -179.9992         estimate D2E/DX2                !
 ! D4    D(1,2,3,4)            -61.1902         estimate D2E/DX2                !
 ! D5    D(1,2,3,5)             61.1882         estimate D2E/DX2                !
 ! D6    D(1,2,3,6)           -179.9989         estimate D2E/DX2                !
 ! D7    D(2,3,4,9)           -176.3763         estimate D2E/DX2                !
 ! D8    D(2,3,4,10)            63.7241         estimate D2E/DX2                !
 ! D9    D(2,3,4,11)           -56.7078         estimate D2E/DX2                !
 ! D10   D(5,3,4,9)             61.5426         estimate D2E/DX2                !
 ! D11   D(5,3,4,10)           -58.357          estimate D2E/DX2                !
 ! D12   D(5,3,4,11)          -178.7889         estimate D2E/DX2                !
 ! D13   D(6,3,4,9)            -58.6155         estimate D2E/DX2                !
 ! D14   D(6,3,4,10)          -178.5151         estimate D2E/DX2                !
 ! D15   D(6,3,4,11)            61.0531         estimate D2E/DX2                !
 ! D16   D(2,3,5,12)           176.3835         estimate D2E/DX2                !
 ! D17   D(2,3,5,13)            56.7065         estimate D2E/DX2                !
 ! D18   D(2,3,5,14)           -63.724          estimate D2E/DX2                !
 ! D19   D(4,3,5,12)           -61.5368         estimate D2E/DX2                !
 ! D20   D(4,3,5,13)           178.7862         estimate D2E/DX2                !
 ! D21   D(4,3,5,14)            58.3557         estimate D2E/DX2                !
 ! D22   D(6,3,5,12)            58.6198         estimate D2E/DX2                !
 ! D23   D(6,3,5,13)           -61.0572         estimate D2E/DX2                !
 ! D24   D(6,3,5,14)           178.5123         estimate D2E/DX2                !
 ! D25   D(2,3,6,15)           179.9996         estimate D2E/DX2                !
 ! D26   D(4,3,6,15)            60.5438         estimate D2E/DX2                !
 ! D27   D(5,3,6,15)           -60.5404         estimate D2E/DX2                !
 --------------------------------------------------------------------------------
 Trust Radius=3.00D-01 FncErr=1.00D-07 GrdErr=1.00D-06
 Number of steps in this run=     74 maximum allowed number of steps=    100.
 GradGradGradGradGradGradGradGradGradGradGradGradGradGradGradGradGradGrad

 Leave Link  103 at Sat Aug 20 12:45:11 2022, MaxMem=    23592960 cpu:         0.5
 (Enter /public/home/users/caep010/software/Gaussian09/g09/l202.exe)
                          Input orientation:                          
 ---------------------------------------------------------------------
 Center     Atomic      Atomic             Coordinates (Angstroms)
 Number     Number       Type             X           Y           Z
 ---------------------------------------------------------------------
      1          6           0        2.127500   -0.145000    0.127200
      2          7           0        1.084300   -0.755800    0.574400
      3          6           0       -0.287500   -0.373200    0.276300
      4          6           0       -0.565300    1.054000    0.791100
      5          6           0       -0.547300   -0.464800   -1.241300
      6          8           0       -1.132800   -1.278000    0.945000
      7          1           0        3.114100   -0.500900    0.401900
      8          1           0        2.046400    0.721600   -0.521100
      9          1           0       -1.629300    1.327700    0.624900
     10          1           0        0.066500    1.800600    0.265600
     11          1           0       -0.353800    1.112600    1.880200
     12          1           0       -1.610700   -0.236800   -1.468800
     13          1           0       -0.322900   -1.490800   -1.603600
     14          1           0        0.084800    0.256100   -1.801200
     15          1           0       -2.074200   -1.027300    0.749300
 ---------------------------------------------------------------------
                    Distance matrix (angstroms):
                    1          2          3          4          5
     1  C    0.000000
     2  N    1.288926   0.000000
     3  C    2.430336   1.455019   0.000000
     4  C    3.021512   2.458356   1.542430   0.000000
     5  C    3.021526   2.458367   1.542400   2.537268   0.000000
     6  O    3.547117   2.307720   1.407251   2.404988   2.404997
     7  H    1.084207   2.053002   3.406313   4.013375   4.013385
     8  H    1.085295   2.075685   2.698430   2.941655   2.941685
     9  H    4.065722   3.421571   2.194313   1.111139   2.804725
    10  H    2.837646   2.768836   2.202462   1.110285   2.789182
    11  H    3.288072   2.695211   2.187348   1.110993   3.502770
    12  H    4.065684   3.421557   2.194274   2.804670   1.111107
    13  H    3.288055   2.695203   2.187306   3.502764   1.110987
    14  H    2.837645   2.768830   2.202415   2.789139   1.110286
    15  H    4.338173   3.174968   1.960580   2.571057   2.571054
                    6          7          8          9         10
     6  O    0.000000
     7  H    4.351437   0.000000
     8  H    4.031769   1.867195   0.000000
     9  H    2.671825   5.088551   3.897620   0.000000
    10  H    3.373082   3.821432   2.388125   1.796794   0.000000
    11  H    2.682612   4.100620   3.417614   1.802483   1.804696
    12  H    2.671875   5.088517   3.897569   2.613730   3.157870
    13  H    2.682645   4.100598   3.417616   3.823197   3.805109
    14  H    3.373074   3.821434   2.388142   3.157915   2.580209
    15  H    0.993671   5.226494   4.653161   2.399883   3.579606
                   11         12         13         14         15
    11  H    0.000000
    12  H    3.823150   0.000000
    13  H    4.349196   1.802530   0.000000
    14  H    3.805085   1.796708   1.804695   0.000000
    15  H    2.969492   2.399935   2.969516   3.579588   0.000000
 Stoichiometry    C4H9NO
 Framework group  C1[X(C4H9NO)]
 Deg. of freedom    39
 Full point group                 C1      NOp   1
 Largest Abelian subgroup         C1      NOp   1
 Largest concise Abelian subgroup C1      NOp   1
                         Standard orientation:                         
 ---------------------------------------------------------------------
 Center     Atomic      Atomic             Coordinates (Angstroms)
 Number     Number       Type             X           Y           Z
 ---------------------------------------------------------------------
      1          6           0        2.085773   -0.000007   -0.065358
      2          7           0        0.970285   -0.000018   -0.711126
      3          6           0       -0.344459    0.000022   -0.087803
      4          6           0       -0.526028   -1.268612    0.770506
      5          6           0       -0.526035    1.268656    0.770448
      6          8           0       -1.300914   -0.000033   -1.120056
      7          1           0        3.020983   -0.000017   -0.613890
      8          1           0        2.116311   -0.000000    1.019507
      9          1           0       -1.551400   -1.306859    1.196862
     10          1           0        0.196374   -1.290085    1.613362
     11          1           0       -0.371416   -2.174593    0.146328
     12          1           0       -1.551341    1.306871    1.196883
     13          1           0       -0.371380    2.174603    0.146241
     14          1           0        0.196363    1.290124    1.613309
     15          1           0       -2.204681   -0.000013   -0.707032
 ---------------------------------------------------------------------
 Rotational constants (GHZ):      4.7577720      2.8775563      2.8183564
 Leave Link  202 at Sat Aug 20 12:45:11 2022, MaxMem=    23592960 cpu:         0.7
 (Enter /public/home/users/caep010/software/Gaussian09/g09/l301.exe)
 Standard basis: GTBas3 (6D, 7F)
 Ernie: Thresh=  0.10000D-02 Tol=  0.10000D-05 Strict=F.
 There are   231 symmetry adapted cartesian basis functions of A   symmetry.
 There are   213 symmetry adapted basis functions of A   symmetry.
   213 basis functions,   327 primitive gaussians,   231 cartesian basis functions
    24 alpha electrons       24 beta electrons
       nuclear repulsion energy       250.8780593748 Hartrees.
 IExCor=  402 DFT=T Ex+Corr=B3LYP ExCW=0 ScaHFX=  0.200000
 ScaDFX=  0.800000  0.720000  1.000000  0.810000 ScalE2=  1.000000  1.000000
 IRadAn=      0 IRanWt=     -1 IRanGd=            0 ICorTp=0 IEmpDi=  4
 NAtoms=   15 NActive=   15 NUniq=   15 SFac= 1.00D+00 NAtFMM=   60 NAOKFM=F Big=F
 Integral buffers will be    131072 words long.
 Raffenetti 2 integral format.
 Two-electron integral symmetry is turned on.
 Leave Link  301 at Sat Aug 20 12:45:11 2022, MaxMem=    23592960 cpu:         1.9
 (Enter /public/home/users/caep010/software/Gaussian09/g09/l302.exe)
 NPDir=0 NMtPBC=     1 NCelOv=     1 NCel=       1 NClECP=     1 NCelD=      1
         NCelK=      1 NCelE2=     1 NClLst=     1 CellRange=     0.0.
 One-electron integrals computed using PRISM.
 PrsmSu:  requested number of processors reduced to:   3 ShMem   1 Linda.
 PrsmSu:  requested number of processors reduced to:  11 ShMem   1 Linda.
 NBasis=   213 RedAO= T EigKep=  4.15D-04  NBF=   213
 NBsUse=   213 1.00D-06 EigRej= -1.00D+00 NBFU=   213
 Precomputing XC quadrature grid using
 IXCGrd= 4 IRadAn=           0 IRanWt=          -1 IRanGd=           0 AccXCQ= 0.00D+00.
 Generated NRdTot=       0 NPtTot=           0 NUsed=           0 NTot=          32
 NSgBfM=   231   231   231   231   231 MxSgAt=    15 MxSgA2=    15.
 Leave Link  302 at Sat Aug 20 12:45:12 2022, MaxMem=    23592960 cpu:         4.9
 (Enter /public/home/users/caep010/software/Gaussian09/g09/l303.exe)
 DipDrv:  MaxL=1.
 Leave Link  303 at Sat Aug 20 12:45:12 2022, MaxMem=    23592960 cpu:         1.5
 (Enter /public/home/users/caep010/software/Gaussian09/g09/l401.exe)
 ExpMin= 1.61D-01 ExpMax= 5.48D+03 ExpMxC= 8.25D+02 IAcc=1 IRadAn=         1 AccDes= 0.00D+00
 Harris functional with IExCor=  402 and IRadAn=       1 diagonalized for initial guess.
 HarFok:  IExCor=  402 AccDes= 0.00D+00 IRadAn=         1 IDoV= 1 UseB2=F ITyADJ=14
 ICtDFT=  3500011 ScaDFX=  1.000000  1.000000  1.000000  1.000000
 CalDSu:  requested number of processors reduced to:  19 ShMem   1 Linda.
 FoFCou: FMM=F IPFlag=           0 FMFlag=      100000 FMFlg1=           0
         NFxFlg=           0 DoJE=T BraDBF=F KetDBF=T FulRan=T
         wScrn=  0.000000 ICntrl=     500 IOpCl=  0 I1Cent=   200000004 NGrid=           0
         NMat0=    1 NMatS0=      1 NMatT0=    0 NMatD0=    1 NMtDS0=    0 NMtDT0=    0
 Petite list used in FoFCou.
 CoulSu:  requested number of processors reduced to:  11 ShMem   1 Linda.
 CoulSu:  requested number of processors reduced to:  11 ShMem   1 Linda.
 CoulSu:  requested number of processors reduced to:  12 ShMem   1 Linda.
 CoulSu:  requested number of processors reduced to:  12 ShMem   1 Linda.
 Harris En= -287.838270534245    
 JPrj=0 DoOrth=F DoCkMO=F.
 Leave Link  401 at Sat Aug 20 12:45:12 2022, MaxMem=    23592960 cpu:         5.3
 (Enter /public/home/users/caep010/software/Gaussian09/g09/l502.exe)
 Closed shell SCF:
 Using DIIS extrapolation, IDIIS=  1040.
 Integral symmetry usage will be decided dynamically.
 IVT=      187717 IEndB=      187717 NGot=    23592960 MDV=    23475476
 LenX=    23475476 LenY=    23421674
 Requested convergence on RMS density matrix=1.00D-08 within 128 cycles.
 Requested convergence on MAX density matrix=1.00D-06.
 Requested convergence on             energy=1.00D-06.
 No special actions if energy rises.
 Fock matrices will be formed incrementally for  20 cycles.
 Integral accuracy reduced to 1.0D-05 until final iterations.

 Cycle   1  Pass 0  IDiag  1:
 FoFJK:  IHMeth= 1 ICntrl=       0 DoSepK=F KAlg= 0 I1Cent=   0 FoldK=F
 IRaf= 980000000 NMat=   1 IRICut=       1 DoRegI=T DoRafI=F ISym2E= 0.
 FoFCou: FMM=F IPFlag=           0 FMFlag=      100000 FMFlg1=           0
         NFxFlg=           0 DoJE=F BraDBF=F KetDBF=F FulRan=T
         wScrn=  0.000000 ICntrl=       0 IOpCl=  0 I1Cent=           0 NGrid=           0
         NMat0=    1 NMatS0=      1 NMatT0=    0 NMatD0=    1 NMtDS0=    0 NMtDT0=    0
 Symmetry not used in FoFCou.
 CoulSu:  requested number of processors reduced to:  11 ShMem   1 Linda.
 CalDSu:  requested number of processors reduced to:  19 ShMem   1 Linda.
 E= -287.601979708571    
 DIIS: error= 3.03D-02 at cycle   1 NSaved=   1.
 NSaved= 1 IEnMin= 1 EnMin= -287.601979708571     IErMin= 1 ErrMin= 3.03D-02
 ErrMax= 3.03D-02  0.00D+00 EMaxC= 1.00D-01 BMatC= 2.13D-01 BMatP= 2.13D-01
 IDIUse=3 WtCom= 6.97D-01 WtEn= 3.03D-01
 Coeff-Com:  0.100D+01
 Coeff-En:   0.100D+01
 Coeff:      0.100D+01
 Gap=     0.212 Goal=   None    Shift=    0.000
 GapD=    0.212 DampG=1.000 DampE=0.500 DampFc=0.5000 IDamp=-1.
 Damping current iteration by 5.00D-01
 RMSDP=4.78D-03 MaxDP=1.34D-01              OVMax= 1.73D-01

 Cycle   2  Pass 0  IDiag  1:
 RMSU=  2.36D-03    CP:  9.77D-01
 CoulSu:  requested number of processors reduced to:  11 ShMem   1 Linda.
 CalDSu:  requested number of processors reduced to:  19 ShMem   1 Linda.
 E= -287.687284212186     Delta-E=       -0.085304503614 Rises=F Damp=T
 DIIS: error= 9.82D-03 at cycle   2 NSaved=   2.
 NSaved= 2 IEnMin= 2 EnMin= -287.687284212186     IErMin= 2 ErrMin= 9.82D-03
 ErrMax= 9.82D-03  0.00D+00 EMaxC= 1.00D-01 BMatC= 1.34D-02 BMatP= 2.13D-01
 IDIUse=3 WtCom= 9.02D-01 WtEn= 9.82D-02
 Coeff-Com:  0.106D+00 0.894D+00
 Coeff-En:   0.168D+00 0.832D+00
 Coeff:      0.112D+00 0.888D+00
 Gap=     0.257 Goal=   None    Shift=    0.000
 RMSDP=1.03D-03 MaxDP=3.61D-02 DE=-8.53D-02 OVMax= 1.14D-01

 Cycle   3  Pass 0  IDiag  1:
 RMSU=  9.32D-04    CP:  9.72D-01  8.17D-01
 CoulSu:  requested number of processors reduced to:  11 ShMem   1 Linda.
 CalDSu:  requested number of processors reduced to:  19 ShMem   1 Linda.
 E= -287.794943435371     Delta-E=       -0.107659223185 Rises=F Damp=F
 DIIS: error= 5.32D-03 at cycle   3 NSaved=   3.
 NSaved= 3 IEnMin= 3 EnMin= -287.794943435371     IErMin= 3 ErrMin= 5.32D-03
 ErrMax= 5.32D-03  0.00D+00 EMaxC= 1.00D-01 BMatC= 1.01D-02 BMatP= 1.34D-02
 IDIUse=3 WtCom= 9.47D-01 WtEn= 5.32D-02
 Coeff-Com:  0.265D-01 0.456D+00 0.517D+00
 Coeff-En:   0.000D+00 0.000D+00 0.100D+01
 Coeff:      0.251D-01 0.432D+00 0.543D+00
 Gap=     0.217 Goal=   None    Shift=    0.000
 RMSDP=5.69D-04 MaxDP=3.50D-02 DE=-1.08D-01 OVMax= 6.60D-02

 Cycle   4  Pass 0  IDiag  1:
 RMSU=  3.85D-04    CP:  9.73D-01  8.75D-01  5.77D-01
 CoulSu:  requested number of processors reduced to:  11 ShMem   1 Linda.
 CalDSu:  requested number of processors reduced to:  19 ShMem   1 Linda.
 E= -287.800551836366     Delta-E=       -0.005608400996 Rises=F Damp=F
 DIIS: error= 3.94D-03 at cycle   4 NSaved=   4.
 NSaved= 4 IEnMin= 4 EnMin= -287.800551836366     IErMin= 4 ErrMin= 3.94D-03
 ErrMax= 3.94D-03  0.00D+00 EMaxC= 1.00D-01 BMatC= 3.87D-03 BMatP= 1.01D-02
 IDIUse=3 WtCom= 9.61D-01 WtEn= 3.94D-02
 Coeff-Com: -0.348D-02 0.800D-01 0.380D+00 0.544D+00
 Coeff-En:   0.000D+00 0.000D+00 0.318D+00 0.682D+00
 Coeff:     -0.335D-02 0.769D-01 0.377D+00 0.549D+00
 Gap=     0.227 Goal=   None    Shift=    0.000
 RMSDP=2.48D-04 MaxDP=1.67D-02 DE=-5.61D-03 OVMax= 2.87D-02

 Cycle   5  Pass 0  IDiag  1:
 RMSU=  1.14D-04    CP:  9.73D-01  8.54D-01  7.07D-01  5.42D-01
 CoulSu:  requested number of processors reduced to:  11 ShMem   1 Linda.
 CalDSu:  requested number of processors reduced to:  19 ShMem   1 Linda.
 E= -287.803812223508     Delta-E=       -0.003260387142 Rises=F Damp=F
 DIIS: error= 7.26D-04 at cycle   5 NSaved=   5.
 NSaved= 5 IEnMin= 5 EnMin= -287.803812223508     IErMin= 5 ErrMin= 7.26D-04
 ErrMax= 7.26D-04  0.00D+00 EMaxC= 1.00D-01 BMatC= 2.43D-04 BMatP= 3.87D-03
 IDIUse=3 WtCom= 9.93D-01 WtEn= 7.26D-03
 Coeff-Com: -0.284D-02 0.182D-01 0.194D+00 0.327D+00 0.463D+00
 Coeff-En:   0.000D+00 0.000D+00 0.000D+00 0.000D+00 0.100D+01
 Coeff:     -0.282D-02 0.180D-01 0.193D+00 0.325D+00 0.467D+00
 Gap=     0.226 Goal=   None    Shift=    0.000
 RMSDP=7.20D-05 MaxDP=3.03D-03 DE=-3.26D-03 OVMax= 4.52D-03

 Cycle   6  Pass 0  IDiag  1:
 RMSU=  2.95D-05    CP:  9.73D-01  8.56D-01  7.14D-01  5.90D-01  4.54D-01
 CoulSu:  requested number of processors reduced to:  11 ShMem   1 Linda.
 CalDSu:  requested number of processors reduced to:  19 ShMem   1 Linda.
 E= -287.803998553578     Delta-E=       -0.000186330071 Rises=F Damp=F
 DIIS: error= 1.43D-04 at cycle   6 NSaved=   6.
 NSaved= 6 IEnMin= 6 EnMin= -287.803998553578     IErMin= 6 ErrMin= 1.43D-04
 ErrMax= 1.43D-04  0.00D+00 EMaxC= 1.00D-01 BMatC= 8.21D-06 BMatP= 2.43D-04
 IDIUse=3 WtCom= 9.99D-01 WtEn= 1.43D-03
 Coeff-Com: -0.763D-03 0.370D-03 0.510D-01 0.899D-01 0.212D+00 0.648D+00
 Coeff-En:   0.000D+00 0.000D+00 0.000D+00 0.000D+00 0.000D+00 0.100D+01
 Coeff:     -0.762D-03 0.370D-03 0.509D-01 0.897D-01 0.212D+00 0.648D+00
 Gap=     0.226 Goal=   None    Shift=    0.000
 RMSDP=1.25D-05 MaxDP=3.82D-04 DE=-1.86D-04 OVMax= 7.36D-04

 Cycle   7  Pass 0  IDiag  1:
 RMSU=  5.88D-06    CP:  9.73D-01  8.56D-01  7.15D-01  5.87D-01  5.05D-01
                    CP:  6.88D-01
 CoulSu:  requested number of processors reduced to:  11 ShMem   1 Linda.
 CalDSu:  requested number of processors reduced to:  19 ShMem   1 Linda.
 E= -287.804005190277     Delta-E=       -0.000006636698 Rises=F Damp=F
 DIIS: error= 3.85D-05 at cycle   7 NSaved=   7.
 NSaved= 7 IEnMin= 7 EnMin= -287.804005190277     IErMin= 7 ErrMin= 3.85D-05
 ErrMax= 3.85D-05  0.00D+00 EMaxC= 1.00D-01 BMatC= 3.12D-07 BMatP= 8.21D-06
 IDIUse=1 WtCom= 1.00D+00 WtEn= 0.00D+00
 Coeff-Com: -0.190D-03-0.423D-03 0.159D-01 0.278D-01 0.762D-01 0.279D+00
 Coeff-Com:  0.602D+00
 Coeff:     -0.190D-03-0.423D-03 0.159D-01 0.278D-01 0.762D-01 0.279D+00
 Coeff:      0.602D+00
 Gap=     0.226 Goal=   None    Shift=    0.000
 RMSDP=3.36D-06 MaxDP=1.19D-04 DE=-6.64D-06 OVMax= 1.64D-04

 Initial convergence to 1.0D-05 achieved.  Increase integral accuracy.
 Cycle   8  Pass 1  IDiag  1:
 CoulSu:  requested number of processors reduced to:  11 ShMem   1 Linda.
 CalDSu:  requested number of processors reduced to:  19 ShMem   1 Linda.
 E= -287.803998663128     Delta-E=        0.000006527149 Rises=F Damp=F
 DIIS: error= 2.75D-05 at cycle   1 NSaved=   1.
 NSaved= 1 IEnMin= 1 EnMin= -287.803998663128     IErMin= 1 ErrMin= 2.75D-05
 ErrMax= 2.75D-05  0.00D+00 EMaxC= 1.00D-01 BMatC= 2.07D-07 BMatP= 2.07D-07
 IDIUse=1 WtCom= 1.00D+00 WtEn= 0.00D+00
 Coeff-Com:  0.100D+01
 Coeff:      0.100D+01
 Gap=     0.226 Goal=   None    Shift=    0.000
 RMSDP=3.36D-06 MaxDP=1.19D-04 DE= 6.53D-06 OVMax= 1.27D-04

 Cycle   9  Pass 1  IDiag  1:
 RMSU=  5.51D-06    CP:  1.00D+00
 CoulSu:  requested number of processors reduced to:  11 ShMem   1 Linda.
 CalDSu:  requested number of processors reduced to:  19 ShMem   1 Linda.
 E= -287.803998769659     Delta-E=       -0.000000106531 Rises=F Damp=F
 DIIS: error= 1.68D-05 at cycle   2 NSaved=   2.
 NSaved= 2 IEnMin= 2 EnMin= -287.803998769659     IErMin= 2 ErrMin= 1.68D-05
 ErrMax= 1.68D-05  0.00D+00 EMaxC= 1.00D-01 BMatC= 6.24D-08 BMatP= 2.07D-07
 IDIUse=1 WtCom= 1.00D+00 WtEn= 0.00D+00
 Coeff-Com:  0.287D+00 0.713D+00
 Coeff:      0.287D+00 0.713D+00
 Gap=     0.226 Goal=   None    Shift=    0.000
 RMSDP=1.81D-06 MaxDP=8.82D-05 DE=-1.07D-07 OVMax= 1.40D-04

 Cycle  10  Pass 1  IDiag  1:
 RMSU=  1.76D-06    CP:  1.00D+00  9.21D-01
 CoulSu:  requested number of processors reduced to:  11 ShMem   1 Linda.
 CalDSu:  requested number of processors reduced to:  19 ShMem   1 Linda.
 E= -287.803998783966     Delta-E=       -0.000000014307 Rises=F Damp=F
 DIIS: error= 1.40D-05 at cycle   3 NSaved=   3.
 NSaved= 3 IEnMin= 3 EnMin= -287.803998783966     IErMin= 3 ErrMin= 1.40D-05
 ErrMax= 1.40D-05  0.00D+00 EMaxC= 1.00D-01 BMatC= 4.85D-08 BMatP= 6.24D-08
 IDIUse=1 WtCom= 1.00D+00 WtEn= 0.00D+00
 Coeff-Com: -0.193D-03 0.468D+00 0.533D+00
 Coeff:     -0.193D-03 0.468D+00 0.533D+00
 Gap=     0.226 Goal=   None    Shift=    0.000
 RMSDP=9.56D-07 MaxDP=5.14D-05 DE=-1.43D-08 OVMax= 9.84D-05

 Cycle  11  Pass 1  IDiag  1:
 RMSU=  4.67D-07    CP:  1.00D+00  9.83D-01  5.66D-01
 CoulSu:  requested number of processors reduced to:  11 ShMem   1 Linda.
 CalDSu:  requested number of processors reduced to:  19 ShMem   1 Linda.
 E= -287.803998825534     Delta-E=       -0.000000041569 Rises=F Damp=F
 DIIS: error= 4.49D-06 at cycle   4 NSaved=   4.
 NSaved= 4 IEnMin= 4 EnMin= -287.803998825534     IErMin= 4 ErrMin= 4.49D-06
 ErrMax= 4.49D-06  0.00D+00 EMaxC= 1.00D-01 BMatC= 5.05D-09 BMatP= 4.85D-08
 IDIUse=1 WtCom= 1.00D+00 WtEn= 0.00D+00
 Coeff-Com: -0.150D-01 0.281D+00 0.357D+00 0.377D+00
 Coeff:     -0.150D-01 0.281D+00 0.357D+00 0.377D+00
 Gap=     0.226 Goal=   None    Shift=    0.000
 RMSDP=2.89D-07 MaxDP=1.84D-05 DE=-4.16D-08 OVMax= 2.77D-05

 Cycle  12  Pass 1  IDiag  1:
 RMSU=  9.04D-08    CP:  1.00D+00  9.83D-01  5.80D-01  4.15D-01
 CoulSu:  requested number of processors reduced to:  11 ShMem   1 Linda.
 CalDSu:  requested number of processors reduced to:  19 ShMem   1 Linda.
 E= -287.803998829902     Delta-E=       -0.000000004368 Rises=F Damp=F
 DIIS: error= 4.03D-07 at cycle   5 NSaved=   5.
 NSaved= 5 IEnMin= 5 EnMin= -287.803998829902     IErMin= 5 ErrMin= 4.03D-07
 ErrMax= 4.03D-07  0.00D+00 EMaxC= 1.00D-01 BMatC= 6.67D-11 BMatP= 5.05D-09
 IDIUse=1 WtCom= 1.00D+00 WtEn= 0.00D+00
 Coeff-Com: -0.686D-02 0.107D+00 0.139D+00 0.176D+00 0.585D+00
 Coeff:     -0.686D-02 0.107D+00 0.139D+00 0.176D+00 0.585D+00
 Gap=     0.226 Goal=   None    Shift=    0.000
 RMSDP=3.88D-08 MaxDP=1.49D-06 DE=-4.37D-09 OVMax= 2.83D-06

 Cycle  13  Pass 1  IDiag  1:
 RMSU=  3.31D-08    CP:  1.00D+00  9.84D-01  5.81D-01  4.23D-01  7.87D-01
 CoulSu:  requested number of processors reduced to:  11 ShMem   1 Linda.
 CalDSu:  requested number of processors reduced to:  19 ShMem   1 Linda.
 E= -287.803998829956     Delta-E=       -0.000000000053 Rises=F Damp=F
 DIIS: error= 1.29D-07 at cycle   6 NSaved=   6.
 NSaved= 6 IEnMin= 6 EnMin= -287.803998829956     IErMin= 6 ErrMin= 1.29D-07
 ErrMax= 1.29D-07  0.00D+00 EMaxC= 1.00D-01 BMatC= 8.09D-12 BMatP= 6.67D-11
 IDIUse=1 WtCom= 1.00D+00 WtEn= 0.00D+00
 Coeff-Com: -0.162D-02 0.206D-01 0.273D-01 0.433D-01 0.291D+00 0.619D+00
 Coeff:     -0.162D-02 0.206D-01 0.273D-01 0.433D-01 0.291D+00 0.619D+00
 Gap=     0.226 Goal=   None    Shift=    0.000
 RMSDP=1.38D-08 MaxDP=6.07D-07 DE=-5.34D-11 OVMax= 7.17D-07

 Cycle  14  Pass 1  IDiag  1:
 RMSU=  7.82D-09    CP:  1.00D+00  9.84D-01  5.82D-01  4.30D-01  8.36D-01
                    CP:  7.03D-01
 CoulSu:  requested number of processors reduced to:  11 ShMem   1 Linda.
 CalDSu:  requested number of processors reduced to:  19 ShMem   1 Linda.
 E= -287.803998829962     Delta-E=       -0.000000000007 Rises=F Damp=F
 DIIS: error= 4.72D-08 at cycle   7 NSaved=   7.
 NSaved= 7 IEnMin= 7 EnMin= -287.803998829962     IErMin= 7 ErrMin= 4.72D-08
 ErrMax= 4.72D-08  0.00D+00 EMaxC= 1.00D-01 BMatC= 6.95D-13 BMatP= 8.09D-12
 IDIUse=1 WtCom= 1.00D+00 WtEn= 0.00D+00
 Coeff-Com: -0.165D-03 0.230D-03 0.239D-03 0.483D-02 0.843D-01 0.295D+00
 Coeff-Com:  0.616D+00
 Coeff:     -0.165D-03 0.230D-03 0.239D-03 0.483D-02 0.843D-01 0.295D+00
 Coeff:      0.616D+00
 Gap=     0.226 Goal=   None    Shift=    0.000
 RMSDP=4.51D-09 MaxDP=1.68D-07 DE=-6.59D-12 OVMax= 1.65D-07

 SCF Done:  E(RB3LYP) =  -287.803998830     A.U. after   14 cycles
            NFock= 14  Conv=0.45D-08     -V/T= 2.0084
 KE= 2.853945173509D+02 PE=-1.172278354054D+03 EE= 3.482017784986D+02
 Leave Link  502 at Sat Aug 20 12:45:22 2022, MaxMem=    23592960 cpu:       155.9
 (Enter /public/home/users/caep010/software/Gaussian09/g09/l601.exe)
 Copying SCF densities to generalized density rwf, IOpCl= 0 IROHF=0.

 **********************************************************************

            Population analysis using the SCF density.

 **********************************************************************

 Orbital symmetries:
       Occupied  (A) (A) (A) (A) (A) (A) (A) (A) (A) (A) (A) (A)
                 (A) (A) (A) (A) (A) (A) (A) (A) (A) (A) (A) (A)
       Virtual   (A) (A) (A) (A) (A) (A) (A) (A) (A) (A) (A) (A)
                 (A) (A) (A) (A) (A) (A) (A) (A) (A) (A) (A) (A)
                 (A) (A) (A) (A) (A) (A) (A) (A) (A) (A) (A) (A)
                 (A) (A) (A) (A) (A) (A) (A) (A) (A) (A) (A) (A)
                 (A) (A) (A) (A) (A) (A) (A) (A) (A) (A) (A) (A)
                 (A) (A) (A) (A) (A) (A) (A) (A) (A) (A) (A) (A)
                 (A) (A) (A) (A) (A) (A) (A) (A) (A) (A) (A) (A)
                 (A) (A) (A) (A) (A) (A) (A) (A) (A) (A) (A) (A)
                 (A) (A) (A) (A) (A) (A) (A) (A) (A) (A) (A) (A)
                 (A) (A) (A) (A) (A) (A) (A) (A) (A) (A) (A) (A)
                 (A) (A) (A) (A) (A) (A) (A) (A) (A) (A) (A) (A)
                 (A) (A) (A) (A) (A) (A) (A) (A) (A) (A) (A) (A)
                 (A) (A) (A) (A) (A) (A) (A) (A) (A) (A) (A) (A)
                 (A) (A) (A) (A) (A) (A) (A) (A) (A) (A) (A) (A)
                 (A) (A) (A) (A) (A) (A) (A) (A) (A) (A) (A) (A)
                 (A) (A) (A) (A) (A) (A) (A) (A) (A)
 The electronic state is 1-A.
 Alpha  occ. eigenvalues --  -19.13141 -14.32815 -10.26702 -10.22808 -10.18363
 Alpha  occ. eigenvalues --  -10.18362  -1.02214  -0.90400  -0.75520  -0.69094
 Alpha  occ. eigenvalues --   -0.65238  -0.55481  -0.49711  -0.48111  -0.44159
 Alpha  occ. eigenvalues --   -0.43048  -0.41175  -0.39700  -0.39289  -0.35925
 Alpha  occ. eigenvalues --   -0.33435  -0.30726  -0.25991  -0.24339
 Alpha virt. eigenvalues --   -0.01744   0.06019   0.09984   0.12530   0.14299
 Alpha virt. eigenvalues --    0.15035   0.15542   0.18326   0.18781   0.19278
 Alpha virt. eigenvalues --    0.21019   0.24277   0.25696   0.27622   0.30673
 Alpha virt. eigenvalues --    0.43271   0.46515   0.47373   0.49335   0.51465
 Alpha virt. eigenvalues --    0.51675   0.53876   0.55940   0.56674   0.57666
 Alpha virt. eigenvalues --    0.60509   0.66040   0.66985   0.70034   0.70782
 Alpha virt. eigenvalues --    0.71941   0.73147   0.73911   0.74999   0.75274
 Alpha virt. eigenvalues --    0.77394   0.82227   0.83023   0.84333   0.86119
 Alpha virt. eigenvalues --    0.88622   0.89199   0.92544   0.93173   0.94846
 Alpha virt. eigenvalues --    0.97069   1.02055   1.02124   1.07693   1.17464
 Alpha virt. eigenvalues --    1.18592   1.21432   1.22298   1.29505   1.37860
 Alpha virt. eigenvalues --    1.39955   1.40982   1.45062   1.46021   1.46920
 Alpha virt. eigenvalues --    1.49882   1.52102   1.53977   1.55380   1.59741
 Alpha virt. eigenvalues --    1.61075   1.64494   1.67067   1.71840   1.72322
 Alpha virt. eigenvalues --    1.75285   1.84173   1.84452   1.87224   1.89361
 Alpha virt. eigenvalues --    1.94306   1.94400   2.00257   2.11329   2.17322
 Alpha virt. eigenvalues --    2.19869   2.24005   2.28162   2.31270   2.32465
 Alpha virt. eigenvalues --    2.39875   2.43713   2.49641   2.49913   2.54564
 Alpha virt. eigenvalues --    2.58177   2.66387   2.68253   2.69844   2.79703
 Alpha virt. eigenvalues --    2.80369   2.81632   2.84018   2.84934   2.89880
 Alpha virt. eigenvalues --    2.90383   2.90736   2.94069   2.95070   2.98873
 Alpha virt. eigenvalues --    3.00415   3.05975   3.08635   3.09356   3.09970
 Alpha virt. eigenvalues --    3.18715   3.26425   3.29998   3.32419   3.34793
 Alpha virt. eigenvalues --    3.38733   3.39663   3.42621   3.44177   3.45005
 Alpha virt. eigenvalues --    3.53155   3.60120   3.62909   3.64672   3.72371
 Alpha virt. eigenvalues --    3.75714   3.77764   3.79443   3.86680   3.92404
 Alpha virt. eigenvalues --    3.96985   4.01679   4.05716   4.07838   4.13247
 Alpha virt. eigenvalues --    4.16713   4.16775   4.22364   4.24477   4.29537
 Alpha virt. eigenvalues --    4.33857   4.34903   4.38243   4.41005   4.45779
 Alpha virt. eigenvalues --    4.47607   4.48287   4.49995   4.53047   4.56943
 Alpha virt. eigenvalues --    4.61594   4.64259   4.67576   4.68618   4.69976
 Alpha virt. eigenvalues --    4.75521   4.80201   4.80791   4.82535   4.85399
 Alpha virt. eigenvalues --    4.87178   4.90215   4.90426   4.96935   5.04522
 Alpha virt. eigenvalues --    5.16589   5.19846   5.23337   5.30282   5.33479
 Alpha virt. eigenvalues --    5.35441   5.42746   5.47161   5.53271   5.56545
 Alpha virt. eigenvalues --    5.69197   5.71947   5.87316   5.97562   6.04553
 Alpha virt. eigenvalues --    6.20237   7.13164  10.24732  11.07433  11.43663
 Alpha virt. eigenvalues --   11.84279  11.88558  12.87385  13.70641
          Condensed to atoms (all electrons):
               1          2          3          4          5          6
     1  C    4.918441   0.642134  -0.086189  -0.005578  -0.005579   0.002275
     2  N    0.642134   6.278387   0.409453  -0.058656  -0.058655  -0.035910
     3  C   -0.086189   0.409453   4.343307   0.370004   0.370014   0.372371
     4  C   -0.005578  -0.058656   0.370004   5.170605  -0.067701  -0.060486
     5  C   -0.005579  -0.058655   0.370014  -0.067701   5.170580  -0.060482
     6  O    0.002275  -0.035910   0.372371  -0.060486  -0.060482   7.922202
     7  H    0.369731  -0.019392   0.005211  -0.000230  -0.000230   0.000004
     8  H    0.353636  -0.047633  -0.012621   0.004232   0.004232  -0.000320
     9  H   -0.000052   0.003862  -0.014410   0.351831  -0.004238  -0.000507
    10  H    0.000788  -0.001574  -0.014110   0.344409   0.000758   0.003269
    11  H    0.002187  -0.003744  -0.013238   0.360496   0.005848   0.000286
    12  H   -0.000052   0.003863  -0.014410  -0.004239   0.351839  -0.000508
    13  H    0.002187  -0.003744  -0.013238   0.005848   0.360495   0.000286
    14  H    0.000788  -0.001575  -0.014110   0.000758   0.344408   0.003269
    15  H   -0.000332   0.006634  -0.055380  -0.002236  -0.002236   0.301319
               7          8          9         10         11         12
     1  C    0.369731   0.353636  -0.000052   0.000788   0.002187  -0.000052
     2  N   -0.019392  -0.047633   0.003862  -0.001574  -0.003744   0.003863
     3  C    0.005211  -0.012621  -0.014410  -0.014110  -0.013238  -0.014410
     4  C   -0.000230   0.004232   0.351831   0.344409   0.360496  -0.004239
     5  C   -0.000230   0.004232  -0.004238   0.000758   0.005848   0.351839
     6  O    0.000004  -0.000320  -0.000507   0.003269   0.000286  -0.000508
     7  H    0.574024  -0.059729   0.000007  -0.000032  -0.000084   0.000007
     8  H   -0.059729   0.650463  -0.000286   0.003335   0.000469  -0.000286
     9  H    0.000007  -0.000286   0.613742  -0.028130  -0.029543   0.002312
    10  H   -0.000032   0.003335  -0.028130   0.608536  -0.026910   0.000159
    11  H   -0.000084   0.000469  -0.029543  -0.026910   0.571769  -0.000134
    12  H    0.000007  -0.000286   0.002312   0.000159  -0.000134   0.613729
    13  H   -0.000084   0.000469  -0.000134  -0.000117  -0.000182  -0.029539
    14  H   -0.000032   0.003336   0.000159  -0.000094  -0.000117  -0.028136
    15  H    0.000002   0.000019   0.003130  -0.000102   0.000049   0.003129
              13         14         15
     1  C    0.002187   0.000788  -0.000332
     2  N   -0.003744  -0.001575   0.006634
     3  C   -0.013238  -0.014110  -0.055380
     4  C    0.005848   0.000758  -0.002236
     5  C    0.360495   0.344408  -0.002236
     6  O    0.000286   0.003269   0.301319
     7  H   -0.000084  -0.000032   0.000002
     8  H    0.000469   0.003336   0.000019
     9  H   -0.000134   0.000159   0.003130
    10  H   -0.000117  -0.000094  -0.000102
    11  H   -0.000182  -0.000117   0.000049
    12  H   -0.029539  -0.028136   0.003129
    13  H    0.571766  -0.026909   0.000049
    14  H   -0.026909   0.608540  -0.000102
    15  H    0.000049  -0.000102   0.461758
 Mulliken charges:
               1
     1  C   -0.194384
     2  N   -0.113450
     3  C    0.367345
     4  C   -0.409057
     5  C   -0.409051
     6  O   -0.447067
     7  H    0.130827
     8  H    0.100684
     9  H    0.102258
    10  H    0.109815
    11  H    0.132850
    12  H    0.102266
    13  H    0.132848
    14  H    0.109817
    15  H    0.284300
 Sum of Mulliken charges =  -0.00000
 Mulliken charges with hydrogens summed into heavy atoms:
               1
     1  C    0.037127
     2  N   -0.113450
     3  C    0.367345
     4  C   -0.064134
     5  C   -0.064120
     6  O   -0.162767
 Electronic spatial extent (au):  <R**2>=            582.2497
 Charge=             -0.0000 electrons
 Dipole moment (field-independent basis, Debye):
    X=             -0.1857    Y=              0.0001    Z=              2.6829  Tot=              2.6893
 Quadrupole moment (field-independent basis, Debye-Ang):
   XX=            -30.1650   YY=            -37.7388   ZZ=            -41.7689
   XY=             -0.0000   XZ=             -0.0832   YZ=             -0.0001
 Traceless Quadrupole moment (field-independent basis, Debye-Ang):
   XX=              6.3926   YY=             -1.1812   ZZ=             -5.2114
   XY=             -0.0000   XZ=             -0.0832   YZ=             -0.0001
 Octapole moment (field-independent basis, Debye-Ang**2):
  XXX=             -6.6725  YYY=             -0.0001  ZZZ=              0.8976  XYY=             -1.9904
  XXY=             -0.0002  XXZ=             -2.3514  XZZ=              0.8143  YZZ=              0.0004
  YYZ=             -3.0925  XYZ=             -0.0001
 Hexadecapole moment (field-independent basis, Debye-Ang**3):
 XXXX=           -300.6703 YYYY=           -208.3098 ZZZZ=           -185.7923 XXXY=              0.0001
 XXXZ=              3.3438 YYYX=              0.0006 YYYZ=             -0.0001 ZZZX=              6.4904
 ZZZY=              0.0008 XXYY=           -101.3011 XXZZ=            -91.6221 YYZZ=            -67.1650
 XXYZ=              0.0002 YYXZ=              2.4073 ZZXY=             -0.0006
 N-N= 2.508780593748D+02 E-N=-1.172278363998D+03  KE= 2.853945173509D+02
 PrsmSu:  requested number of processors reduced to:  11 ShMem   1 Linda.
 No NMR shielding tensors so no spin-rotation constants.
 Leave Link  601 at Sat Aug 20 12:45:22 2022, MaxMem=    23592960 cpu:         3.0
 (Enter /public/home/users/caep010/software/Gaussian09/g09/l701.exe)
 Compute integral first derivatives.
 ... and contract with generalized density number  0.
 PrsmSu:  requested number of processors reduced to:   3 ShMem   1 Linda.
 PrsmSu:  requested number of processors reduced to:   6 ShMem   1 Linda.
 Leave Link  701 at Sat Aug 20 12:45:22 2022, MaxMem=    23592960 cpu:         2.2
 (Enter /public/home/users/caep010/software/Gaussian09/g09/l702.exe)
 L702 exits ... SP integral derivatives will be done elsewhere.
 Leave Link  702 at Sat Aug 20 12:45:23 2022, MaxMem=    23592960 cpu:         0.7
 (Enter /public/home/users/caep010/software/Gaussian09/g09/l703.exe)
 Compute integral first derivatives, UseDBF=F ICtDFT=           0.
 Integral derivatives from FoFJK, PRISM(SPDF).
 Calling FoFJK, ICntrl=      2127 FMM=F ISym2X=0 I1Cent= 0 IOpClX= 0 NMat=1 NMatS=1 NMatT=0.
 FoFJK:  IHMeth= 1 ICntrl=    2127 DoSepK=F KAlg= 0 I1Cent=   0 FoldK=F
 IRaf=         0 NMat=   1 IRICut=       1 DoRegI=T DoRafI=F ISym2E= 0.
 FoFCou: FMM=F IPFlag=           0 FMFlag=      100000 FMFlg1=         800
         NFxFlg=           0 DoJE=F BraDBF=F KetDBF=F FulRan=T
         wScrn=  0.000000 ICntrl=    2127 IOpCl=  0 I1Cent=           0 NGrid=           0
         NMat0=    1 NMatS0=      1 NMatT0=    0 NMatD0=    1 NMtDS0=    0 NMtDT0=    0
 Symmetry not used in FoFCou.
 CoulSu:  requested number of processors reduced to:   6 ShMem   1 Linda.
 CalDSu:  requested number of processors reduced to:  17 ShMem   1 Linda.
 Leave Link  703 at Sat Aug 20 12:45:27 2022, MaxMem=    23592960 cpu:        29.7
 (Enter /public/home/users/caep010/software/Gaussian09/g09/l716.exe)
 Dipole        =-7.30587300D-02 5.12804457D-05 1.05552858D+00
 ***** Axes restored to original set *****
 -------------------------------------------------------------------
 Center     Atomic                   Forces (Hartrees/Bohr)
 Number     Number              X              Y              Z
 -------------------------------------------------------------------
      1        6          -0.046657059   -0.014978783    0.010781194
      2        7           0.025717064   -0.001374494    0.001248877
      3        6           0.004444413    0.021224876   -0.015797926
      4        6           0.000379819    0.009453813    0.004933697
      5        6           0.000537968   -0.002040594   -0.010462817
      6        8          -0.022155931   -0.005293298    0.003755285
      7        1           0.002132072   -0.001465425    0.001114955
      8        1           0.005190351    0.007337483   -0.005438746
      9        1           0.009326787   -0.002251663    0.001259537
     10        1          -0.005990011   -0.005932910    0.005095724
     11        1          -0.002193568   -0.001030960   -0.011015906
     12        1           0.009301546   -0.001774762    0.001906572
     13        1          -0.002334065    0.010251068    0.004079253
     14        1          -0.005976629   -0.006621572    0.004177601
     15        1           0.028277243   -0.005502779    0.004362701
 -------------------------------------------------------------------
 Cartesian Forces:  Max     0.046657059 RMS     0.011799745
 Leave Link  716 at Sat Aug 20 12:45:27 2022, MaxMem=    23592960 cpu:         1.0
 (Enter /public/home/users/caep010/software/Gaussian09/g09/l103.exe)

 GradGradGradGradGradGradGradGradGradGradGradGradGradGradGradGradGradGrad
 Berny optimization.
 FormGI is forming the generalized inverse of G from B-inverse, IUseBI=4.
 Internal  Forces:  Max     0.038408317 RMS     0.007829790
 Search for a local minimum.
 Step number   1 out of a maximum of   74
 All quantities printed in internal units (Hartrees-Bohrs-Radians)
 RMS Force = .78298D-02 SwitMx=.10000D-02 MixMth= 1
 Mixed Optimization -- RFO/linear search
 Second derivative matrix not updated -- first step.
 ITU=  0
     Eigenvalues ---    0.00230   0.00230   0.00964   0.01299   0.01596
     Eigenvalues ---    0.03161   0.05204   0.05458   0.05459   0.05565
     Eigenvalues ---    0.05565   0.06298   0.08614   0.16000   0.16000
     Eigenvalues ---    0.16000   0.16000   0.16000   0.16000   0.16000
     Eigenvalues ---    0.16000   0.16000   0.16983   0.18823   0.25000
     Eigenvalues ---    0.28305   0.28307   0.32480   0.32483   0.32495
     Eigenvalues ---    0.32496   0.32570   0.32570   0.35362   0.35491
     Eigenvalues ---    0.37595   0.44440   0.48819   0.70365
 RFO step:  Lambda=-1.09445092D-02 EMin= 2.30000000D-03
 Linear search not attempted -- first point.
 Iteration  1 RMS(Cart)=  0.04289688 RMS(Int)=  0.00055221
 Iteration  2 RMS(Cart)=  0.00082264 RMS(Int)=  0.00017268
 Iteration  3 RMS(Cart)=  0.00000028 RMS(Int)=  0.00017268
 ITry= 1 IFail=0 DXMaxC= 1.53D-01 DCOld= 1.00D+10 DXMaxT= 3.00D-01 DXLimC= 3.00D+00 Rises=F
 Variable       Old X    -DE/DX   Delta X   Delta X   Delta X     New X
                                 (Linear)    (Quad)   (Total)
    R1        2.43572  -0.03841   0.00000  -0.05375  -0.05375   2.38197
    R2        2.04885   0.00271   0.00000   0.00740   0.00740   2.05625
    R3        2.05091   0.00871   0.00000   0.02390   0.02390   2.07481
    R4        2.74959  -0.00850   0.00000  -0.02196  -0.02196   2.72763
    R5        2.91477   0.00004   0.00000   0.00014   0.00014   2.91491
    R6        2.91471   0.00005   0.00000   0.00018   0.00018   2.91489
    R7        2.65932   0.00712   0.00000   0.01563   0.01563   2.67495
    R8        2.09975  -0.00967   0.00000  -0.02882  -0.02882   2.07093
    R9        2.09813  -0.00981   0.00000  -0.02913  -0.02913   2.06900
   R10        2.09947  -0.01127   0.00000  -0.03356  -0.03356   2.06592
   R11        2.09969  -0.00966   0.00000  -0.02876  -0.02876   2.07093
   R12        2.09946  -0.01127   0.00000  -0.03355  -0.03355   2.06591
   R13        2.09814  -0.00981   0.00000  -0.02913  -0.02913   2.06901
   R14        1.87777  -0.02903   0.00000  -0.05816  -0.05816   1.81961
    A1        2.08637  -0.00510   0.00000  -0.02986  -0.02986   2.05650
    A2        2.12371   0.00856   0.00000   0.05009   0.05009   2.17380
    A3        2.07311  -0.00346   0.00000  -0.02023  -0.02023   2.05288
    A4        2.17411  -0.02054   0.00000  -0.07872  -0.07872   2.09539
    A5        1.92275   0.00178   0.00000   0.00896   0.00875   1.93150
    A6        1.92279   0.00177   0.00000   0.00892   0.00871   1.93151
    A7        1.87538  -0.00744   0.00000  -0.08024  -0.07996   1.79542
    A8        1.93158  -0.00135   0.00000   0.02015   0.01949   1.95107
    A9        1.90513   0.00255   0.00000   0.01984   0.01914   1.92427
   A10        1.90517   0.00255   0.00000   0.01980   0.01910   1.92427
   A11        1.92886  -0.00008   0.00000  -0.00092  -0.00093   1.92793
   A12        1.94094   0.00147   0.00000   0.00945   0.00945   1.95039
   A13        1.91952  -0.00084   0.00000  -0.00534  -0.00534   1.91418
   A14        1.88438  -0.00060   0.00000  -0.00269  -0.00270   1.88168
   A15        1.89223   0.00024   0.00000  -0.00033  -0.00034   1.89190
   A16        1.89671  -0.00020   0.00000  -0.00031  -0.00030   1.89641
   A17        1.92888  -0.00009   0.00000  -0.00093  -0.00094   1.92794
   A18        1.91951  -0.00083   0.00000  -0.00532  -0.00532   1.91419
   A19        1.94091   0.00146   0.00000   0.00946   0.00946   1.95037
   A20        1.89235   0.00023   0.00000  -0.00041  -0.00042   1.89193
   A21        1.88429  -0.00060   0.00000  -0.00263  -0.00264   1.88165
   A22        1.89672  -0.00020   0.00000  -0.00032  -0.00031   1.89640
   A23        1.88944  -0.00452   0.00000  -0.02641  -0.02641   1.86302
    D1       -3.14157  -0.00000   0.00000  -0.00004  -0.00004   3.14158
    D2        0.00004  -0.00000   0.00000  -0.00005  -0.00005  -0.00001
    D3       -3.14158  -0.00000   0.00000  -0.00001  -0.00001  -3.14159
    D4       -1.06797  -0.00034   0.00000  -0.01865  -0.01845  -1.08642
    D5        1.06794   0.00034   0.00000   0.01862   0.01842   1.08636
    D6       -3.14157  -0.00000   0.00000  -0.00005  -0.00004   3.14157
    D7       -3.07835   0.00307   0.00000   0.03340   0.03350  -3.04484
    D8        1.11219   0.00293   0.00000   0.03121   0.03131   1.14350
    D9       -0.98974   0.00278   0.00000   0.02901   0.02912  -0.96062
   D10        1.07412   0.00054   0.00000   0.00260   0.00264   1.07676
   D11       -1.01852   0.00039   0.00000   0.00040   0.00045  -1.01808
   D12       -3.12045   0.00025   0.00000  -0.00180  -0.00174  -3.12220
   D13       -1.02303  -0.00340   0.00000  -0.04705  -0.04721  -1.07024
   D14       -3.11568  -0.00355   0.00000  -0.04924  -0.04940   3.11811
   D15        1.06558  -0.00370   0.00000  -0.05144  -0.05159   1.01398
   D16        3.07847  -0.00308   0.00000  -0.03348  -0.03358   3.04489
   D17        0.98972  -0.00278   0.00000  -0.02899  -0.02911   0.96061
   D18       -1.11219  -0.00293   0.00000  -0.03121  -0.03131  -1.14350
   D19       -1.07402  -0.00054   0.00000  -0.00265  -0.00270  -1.07672
   D20        3.12041  -0.00024   0.00000   0.00183   0.00178   3.12219
   D21        1.01850  -0.00039   0.00000  -0.00038  -0.00042   1.01807
   D22        1.02311   0.00340   0.00000   0.04702   0.04717   1.07028
   D23       -1.06565   0.00370   0.00000   0.05150   0.05165  -1.01400
   D24        3.11563   0.00355   0.00000   0.04929   0.04945  -3.11811
   D25        3.14159   0.00000   0.00000   0.00003   0.00003  -3.14157
   D26        1.05669   0.00074   0.00000   0.02452   0.02463   1.08132
   D27       -1.05663  -0.00074   0.00000  -0.02453  -0.02464  -1.08127
         Item               Value     Threshold  Converged?
 Maximum Force            0.038408     0.000450     NO 
 RMS     Force            0.007830     0.000300     NO 
 Maximum Displacement     0.152875     0.001800     NO 
 RMS     Displacement     0.043249     0.001200     NO 
 Predicted change in Energy=-5.785806D-03
 Lowest energy point so far.  Saving SCF results.
 GradGradGradGradGradGradGradGradGradGradGradGradGradGradGradGradGradGrad

 Leave Link  103 at Sat Aug 20 12:45:27 2022, MaxMem=    23592960 cpu:         2.4
 (Enter /public/home/users/caep010/software/Gaussian09/g09/l202.exe)
                          Input orientation:                          
 ---------------------------------------------------------------------
 Center     Atomic      Atomic             Coordinates (Angstroms)
 Number     Number       Type             X           Y           Z
 ---------------------------------------------------------------------
      1          6           0        2.046602   -0.152288    0.131916
      2          7           0        1.054920   -0.779725    0.592033
      3          6           0       -0.284963   -0.355523    0.263146
      4          6           0       -0.549505    1.069835    0.790111
      5          6           0       -0.531361   -0.459202   -1.256006
      6          8           0       -1.090722   -1.291200    0.955222
      7          1           0        3.040196   -0.503348    0.403089
      8          1           0        1.978311    0.725192   -0.524468
      9          1           0       -1.595956    1.350886    0.626018
     10          1           0        0.079342    1.811581    0.287019
     11          1           0       -0.345944    1.109090    1.863510
     12          1           0       -1.577169   -0.231055   -1.490958
     13          1           0       -0.315262   -1.475698   -1.595411
     14          1           0        0.098013    0.238797   -1.817638
     15          1           0       -2.006703   -1.057344    0.772317
 ---------------------------------------------------------------------
                    Distance matrix (angstroms):
                    1          2          3          4          5
     1  C    0.000000
     2  N    1.260484   0.000000
     3  C    2.344082   1.443399   0.000000
     4  C    2.943905   2.456479   1.542504   0.000000
     5  C    2.943877   2.456475   1.542493   2.554384   0.000000
     6  O    3.437696   2.235462   1.415524   2.427893   2.427887
     7  H    1.088121   2.013308   3.331384   3.938356   3.938345
     8  H    1.097940   2.089019   2.628819   2.869974   2.869911
     9  H    3.971385   3.401147   2.182249   1.095890   2.819893
    10  H    2.784053   2.785616   2.197641   1.094869   2.812533
    11  H    3.211506   2.673330   2.170247   1.093235   3.496469
    12  H    3.971353   3.401144   2.182240   2.819873   1.095887
    13  H    3.211460   2.673329   2.170241   3.496473   1.093233
    14  H    2.784009   2.785601   2.197623   2.812518   1.094872
    15  H    4.202204   3.079465   1.927744   2.578494   2.578469
                    6          7          8          9         10
     6  O    0.000000
     7  H    4.241467   0.000000
     8  H    3.959076   1.870100   0.000000
     9  H    2.710028   4.998179   3.806639   0.000000
    10  H    3.382720   3.760190   2.333417   1.770250   0.000000
    11  H    2.672278   4.024765   3.354397   1.775494   1.777550
    12  H    2.710043   4.998162   3.806567   2.642817   3.174523
    13  H    2.672285   4.024745   3.354298   3.816347   3.808604
    14  H    3.382711   3.760166   2.333322   3.174544   2.627467
    15  H    0.962894   5.090622   4.554055   2.447384   3.580200
                   11         12         13         14         15
    11  H    0.000000
    12  H    3.816328   0.000000
    13  H    4.318125   1.775516   0.000000
    14  H    3.808590   1.770231   1.777548   0.000000
    15  H    2.939771   2.447379   2.939750   3.580178   0.000000
 Stoichiometry    C4H9NO
 Framework group  C1[X(C4H9NO)]
 Deg. of freedom    39
 Full point group                 C1      NOp   1
 RotChk:  IX=3 Diff= 1.89D-03
 Largest Abelian subgroup         C1      NOp   1
 Largest concise Abelian subgroup C1      NOp   1
                         Standard orientation:                         
 ---------------------------------------------------------------------
 Center     Atomic      Atomic             Coordinates (Angstroms)
 Number     Number       Type             X           Y           Z
 ---------------------------------------------------------------------
      1          6           0        2.006909   -0.000010   -0.066607
      2          7           0        0.939607   -0.000018   -0.737192
      3          6           0       -0.337171    0.000005   -0.063963
      4          6           0       -0.505273   -1.277194    0.784462
      5          6           0       -0.505230    1.277190    0.784471
      6          8           0       -1.259708    0.000023   -1.137570
      7          1           0        2.948966   -0.000039   -0.611160
      8          1           0        2.053046    0.000024    1.030364
      9          1           0       -1.512097   -1.321405    1.214956
     10          1           0        0.213622   -1.313760    1.609440
     11          1           0       -0.360204   -2.159062    0.154836
     12          1           0       -1.512035    1.321411    1.215002
     13          1           0       -0.360120    2.159063    0.154866
     14          1           0        0.213674    1.313707    1.609448
     15          1           0       -2.139843    0.000057   -0.747023
 ---------------------------------------------------------------------
 Rotational constants (GHZ):      4.6537186      2.9863407      2.9430279
 Leave Link  202 at Sat Aug 20 12:45:27 2022, MaxMem=    23592960 cpu:         0.2
 (Enter /public/home/users/caep010/software/Gaussian09/g09/l301.exe)
 Standard basis: GTBas3 (6D, 7F)
 Ernie: Thresh=  0.10000D-02 Tol=  0.10000D-05 Strict=F.
 There are   231 symmetry adapted cartesian basis functions of A   symmetry.
 There are   213 symmetry adapted basis functions of A   symmetry.
   213 basis functions,   327 primitive gaussians,   231 cartesian basis functions
    24 alpha electrons       24 beta electrons
       nuclear repulsion energy       253.1206825948 Hartrees.
 IExCor=  402 DFT=T Ex+Corr=B3LYP ExCW=0 ScaHFX=  0.200000
 ScaDFX=  0.800000  0.720000  1.000000  0.810000 ScalE2=  1.000000  1.000000
 IRadAn=      0 IRanWt=     -1 IRanGd=            0 ICorTp=0 IEmpDi=  4
 NAtoms=   15 NActive=   15 NUniq=   15 SFac= 1.00D+00 NAtFMM=   60 NAOKFM=F Big=F
 Integral buffers will be    131072 words long.
 Raffenetti 2 integral format.
 Two-electron integral symmetry is turned on.
 Leave Link  301 at Sat Aug 20 12:45:27 2022, MaxMem=    23592960 cpu:         1.6
 (Enter /public/home/users/caep010/software/Gaussian09/g09/l302.exe)
 NPDir=0 NMtPBC=     1 NCelOv=     1 NCel=       1 NClECP=     1 NCelD=      1
         NCelK=      1 NCelE2=     1 NClLst=     1 CellRange=     0.0.
 One-electron integrals computed using PRISM.
 PrsmSu:  requested number of processors reduced to:   3 ShMem   1 Linda.
 PrsmSu:  requested number of processors reduced to:  11 ShMem   1 Linda.
 NBasis=   213 RedAO= T EigKep=  3.94D-04  NBF=   213
 NBsUse=   213 1.00D-06 EigRej= -1.00D+00 NBFU=   213
 Precomputing XC quadrature grid using
 IXCGrd= 4 IRadAn=           0 IRanWt=          -1 IRanGd=           0 AccXCQ= 0.00D+00.
 Generated NRdTot=       0 NPtTot=           0 NUsed=           0 NTot=          32
 NSgBfM=   231   231   231   231   231 MxSgAt=    15 MxSgA2=    15.
 Leave Link  302 at Sat Aug 20 12:45:27 2022, MaxMem=    23592960 cpu:         4.6
 (Enter /public/home/users/caep010/software/Gaussian09/g09/l303.exe)
 DipDrv:  MaxL=1.
 Leave Link  303 at Sat Aug 20 12:45:27 2022, MaxMem=    23592960 cpu:         0.8
 (Enter /public/home/users/caep010/software/Gaussian09/g09/l401.exe)
 Initial guess from the checkpoint file:  "G4.Frag_769.chk"
 B after Tr=    -0.000000   -0.000000    0.000000
         Rot=    1.000000   -0.000013   -0.000887    0.000005 Ang=  -0.10 deg.
 Guess basis will be translated and rotated to current coordinates.
 JPrj=2 DoOrth=T DoCkMO=T.
 Generating alternative initial guess.
 ExpMin= 1.61D-01 ExpMax= 5.48D+03 ExpMxC= 8.25D+02 IAcc=1 IRadAn=         1 AccDes= 0.00D+00
 Harris functional with IExCor=  402 and IRadAn=       1 diagonalized for initial guess.
 HarFok:  IExCor=  402 AccDes= 0.00D+00 IRadAn=         1 IDoV= 1 UseB2=F ITyADJ=14
 ICtDFT=  3500011 ScaDFX=  1.000000  1.000000  1.000000  1.000000
 CalDSu:  requested number of processors reduced to:  19 ShMem   1 Linda.
 FoFCou: FMM=F IPFlag=           0 FMFlag=      100000 FMFlg1=           0
         NFxFlg=           0 DoJE=T BraDBF=F KetDBF=T FulRan=T
         wScrn=  0.000000 ICntrl=     500 IOpCl=  0 I1Cent=   200000004 NGrid=           0
         NMat0=    1 NMatS0=      1 NMatT0=    0 NMatD0=    1 NMtDS0=    0 NMtDT0=    0
 Petite list used in FoFCou.
 CoulSu:  requested number of processors reduced to:  11 ShMem   1 Linda.
 CoulSu:  requested number of processors reduced to:  11 ShMem   1 Linda.
 CoulSu:  requested number of processors reduced to:  12 ShMem   1 Linda.
 CoulSu:  requested number of processors reduced to:  12 ShMem   1 Linda.
 Harris En= -287.850959517701    
 Leave Link  401 at Sat Aug 20 12:45:28 2022, MaxMem=    23592960 cpu:         8.0
 (Enter /public/home/users/caep010/software/Gaussian09/g09/l502.exe)
 Closed shell SCF:
 Using DIIS extrapolation, IDIIS=  1040.
 Integral symmetry usage will be decided dynamically.
 IVT=      187717 IEndB=      187717 NGot=    23592960 MDV=    23475476
 LenX=    23475476 LenY=    23421674
 Requested convergence on RMS density matrix=1.00D-08 within 128 cycles.
 Requested convergence on MAX density matrix=1.00D-06.
 Requested convergence on             energy=1.00D-06.
 No special actions if energy rises.
 Fock matrices will be formed incrementally for  20 cycles.
 Integral accuracy reduced to 1.0D-05 until final iterations.

 Cycle   1  Pass 0  IDiag  1:
 FoFJK:  IHMeth= 1 ICntrl=       0 DoSepK=F KAlg= 0 I1Cent=   0 FoldK=F
 IRaf= 980000000 NMat=   1 IRICut=       1 DoRegI=T DoRafI=F ISym2E= 0.
 FoFCou: FMM=F IPFlag=           0 FMFlag=      100000 FMFlg1=           0
         NFxFlg=           0 DoJE=F BraDBF=F KetDBF=F FulRan=T
         wScrn=  0.000000 ICntrl=       0 IOpCl=  0 I1Cent=           0 NGrid=           0
         NMat0=    1 NMatS0=      1 NMatT0=    0 NMatD0=    1 NMtDS0=    0 NMtDT0=    0
 Symmetry not used in FoFCou.
 CoulSu:  requested number of processors reduced to:  11 ShMem   1 Linda.
 CalDSu:  requested number of processors reduced to:  19 ShMem   1 Linda.
 E= -287.806523711066    
 DIIS: error= 1.95D-03 at cycle   1 NSaved=   1.
 NSaved= 1 IEnMin= 1 EnMin= -287.806523711066     IErMin= 1 ErrMin= 1.95D-03
 ErrMax= 1.95D-03  0.00D+00 EMaxC= 1.00D-01 BMatC= 2.25D-03 BMatP= 2.25D-03
 IDIUse=3 WtCom= 9.80D-01 WtEn= 1.95D-02
 Coeff-Com:  0.100D+01
 Coeff-En:   0.100D+01
 Coeff:      0.100D+01
 Gap=     1.049 Goal=   None    Shift=    0.000
 GapD=    1.049 DampG=2.000 DampE=1.000 DampFc=2.0000 IDamp=-1.
 RMSDP=3.57D-04 MaxDP=8.72D-03              OVMax= 1.36D-02

 Cycle   2  Pass 0  IDiag  1:
 RMSU=  3.57D-04    CP:  1.00D+00
 CoulSu:  requested number of processors reduced to:  11 ShMem   1 Linda.
 CalDSu:  requested number of processors reduced to:  19 ShMem   1 Linda.
 E= -287.808762174415     Delta-E=       -0.002238463349 Rises=F Damp=F
 DIIS: error= 1.08D-03 at cycle   2 NSaved=   2.
 NSaved= 2 IEnMin= 2 EnMin= -287.808762174415     IErMin= 2 ErrMin= 1.08D-03
 ErrMax= 1.08D-03  0.00D+00 EMaxC= 1.00D-01 BMatC= 1.52D-04 BMatP= 2.25D-03
 IDIUse=3 WtCom= 9.89D-01 WtEn= 1.08D-02
 Coeff-Com:  0.843D-01 0.916D+00
 Coeff-En:   0.000D+00 0.100D+01
 Coeff:      0.834D-01 0.917D+00
 Gap=     0.238 Goal=   None    Shift=    0.000
 RMSDP=1.10D-04 MaxDP=3.59D-03 DE=-2.24D-03 OVMax= 5.82D-03

 Cycle   3  Pass 0  IDiag  1:
 RMSU=  1.10D-04    CP:  1.00D+00  1.00D+00
 CoulSu:  requested number of processors reduced to:  11 ShMem   1 Linda.
 CalDSu:  requested number of processors reduced to:  19 ShMem   1 Linda.
 E= -287.808737370207     Delta-E=        0.000024804207 Rises=F Damp=F
 DIIS: error= 9.44D-04 at cycle   3 NSaved=   3.
 NSaved= 3 IEnMin= 2 EnMin= -287.808762174415     IErMin= 3 ErrMin= 9.44D-04
 ErrMax= 9.44D-04  0.00D+00 EMaxC= 1.00D-01 BMatC= 1.79D-04 BMatP= 1.52D-04
 IDIUse=3 WtCom= 2.46D-01 WtEn= 7.54D-01
 Coeff-Com: -0.317D-02 0.522D+00 0.481D+00
 Coeff-En:   0.000D+00 0.536D+00 0.464D+00
 Coeff:     -0.779D-03 0.532D+00 0.468D+00
 Gap=     0.240 Goal=   None    Shift=    0.000
 RMSDP=6.49D-05 MaxDP=3.02D-03 DE= 2.48D-05 OVMax= 5.28D-03

 Cycle   4  Pass 0  IDiag  1:
 RMSU=  2.74D-05    CP:  1.00D+00  1.04D+00  4.78D-01
 CoulSu:  requested number of processors reduced to:  11 ShMem   1 Linda.
 CalDSu:  requested number of processors reduced to:  19 ShMem   1 Linda.
 E= -287.808903780354     Delta-E=       -0.000166410146 Rises=F Damp=F
 DIIS: error= 2.37D-04 at cycle   4 NSaved=   4.
 NSaved= 4 IEnMin= 4 EnMin= -287.808903780354     IErMin= 4 ErrMin= 2.37D-04
 ErrMax= 2.37D-04  0.00D+00 EMaxC= 1.00D-01 BMatC= 1.40D-05 BMatP= 1.52D-04
 IDIUse=3 WtCom= 9.98D-01 WtEn= 2.37D-03
 Coeff-Com: -0.822D-02 0.263D+00 0.287D+00 0.457D+00
 Coeff-En:   0.000D+00 0.000D+00 0.000D+00 0.100D+01
 Coeff:     -0.820D-02 0.263D+00 0.287D+00 0.459D+00
 Gap=     0.239 Goal=   None    Shift=    0.000
 RMSDP=1.59D-05 MaxDP=1.02D-03 DE=-1.66D-04 OVMax= 1.78D-03

 Cycle   5  Pass 0  IDiag  1:
 RMSU=  9.15D-06    CP:  1.00D+00  1.04D+00  5.06D-01  5.40D-01
 CoulSu:  requested number of processors reduced to:  11 ShMem   1 Linda.
 CalDSu:  requested number of processors reduced to:  19 ShMem   1 Linda.
 E= -287.808915050429     Delta-E=       -0.000011270075 Rises=F Damp=F
 DIIS: error= 6.02D-05 at cycle   5 NSaved=   5.
 NSaved= 5 IEnMin= 5 EnMin= -287.808915050429     IErMin= 5 ErrMin= 6.02D-05
 ErrMax= 6.02D-05  0.00D+00 EMaxC= 1.00D-01 BMatC= 1.05D-06 BMatP= 1.40D-05
 IDIUse=1 WtCom= 1.00D+00 WtEn= 0.00D+00
 Coeff-Com: -0.390D-02 0.472D-01 0.723D-01 0.238D+00 0.646D+00
 Coeff:     -0.390D-02 0.472D-01 0.723D-01 0.238D+00 0.646D+00
 Gap=     0.239 Goal=   None    Shift=    0.000
 RMSDP=4.41D-06 MaxDP=2.40D-04 DE=-1.13D-05 OVMax= 3.69D-04

 Initial convergence to 1.0D-05 achieved.  Increase integral accuracy.
 Cycle   6  Pass 1  IDiag  1:
 CoulSu:  requested number of processors reduced to:  11 ShMem   1 Linda.
 CalDSu:  requested number of processors reduced to:  19 ShMem   1 Linda.
 E= -287.808906560082     Delta-E=        0.000008490346 Rises=F Damp=F
 DIIS: error= 3.99D-05 at cycle   1 NSaved=   1.
 NSaved= 1 IEnMin= 1 EnMin= -287.808906560082     IErMin= 1 ErrMin= 3.99D-05
 ErrMax= 3.99D-05  0.00D+00 EMaxC= 1.00D-01 BMatC= 2.87D-07 BMatP= 2.87D-07
 IDIUse=1 WtCom= 1.00D+00 WtEn= 0.00D+00
 Coeff-Com:  0.100D+01
 Coeff:      0.100D+01
 Gap=     0.239 Goal=   None    Shift=    0.000
 RMSDP=4.41D-06 MaxDP=2.40D-04 DE= 8.49D-06 OVMax= 1.70D-04

 Cycle   7  Pass 1  IDiag  1:
 RMSU=  6.28D-06    CP:  1.00D+00
 CoulSu:  requested number of processors reduced to:  11 ShMem   1 Linda.
 CalDSu:  requested number of processors reduced to:  19 ShMem   1 Linda.
 E= -287.808906561219     Delta-E=       -0.000000001136 Rises=F Damp=F
 DIIS: error= 2.30D-05 at cycle   2 NSaved=   2.
 NSaved= 2 IEnMin= 2 EnMin= -287.808906561219     IErMin= 2 ErrMin= 2.30D-05
 ErrMax= 2.30D-05  0.00D+00 EMaxC= 1.00D-01 BMatC= 2.78D-07 BMatP= 2.87D-07
 IDIUse=1 WtCom= 1.00D+00 WtEn= 0.00D+00
 Coeff-Com:  0.495D+00 0.505D+00
 Coeff:      0.495D+00 0.505D+00
 Gap=     0.239 Goal=   None    Shift=    0.000
 RMSDP=2.78D-06 MaxDP=1.21D-04 DE=-1.14D-09 OVMax= 1.89D-04

 Cycle   8  Pass 1  IDiag  1:
 RMSU=  2.55D-06    CP:  1.00D+00  8.24D-01
 CoulSu:  requested number of processors reduced to:  11 ShMem   1 Linda.
 CalDSu:  requested number of processors reduced to:  19 ShMem   1 Linda.
 E= -287.808906734938     Delta-E=       -0.000000173719 Rises=F Damp=F
 DIIS: error= 1.21D-05 at cycle   3 NSaved=   3.
 NSaved= 3 IEnMin= 3 EnMin= -287.808906734938     IErMin= 3 ErrMin= 1.21D-05
 ErrMax= 1.21D-05  0.00D+00 EMaxC= 1.00D-01 BMatC= 5.06D-08 BMatP= 2.78D-07
 IDIUse=1 WtCom= 1.00D+00 WtEn= 0.00D+00
 Coeff-Com:  0.151D-01 0.295D+00 0.690D+00
 Coeff:      0.151D-01 0.295D+00 0.690D+00
 Gap=     0.239 Goal=   None    Shift=    0.000
 RMSDP=9.87D-07 MaxDP=6.29D-05 DE=-1.74D-07 OVMax= 1.09D-04

 Cycle   9  Pass 1  IDiag  1:
 RMSU=  5.60D-07    CP:  1.00D+00  8.92D-01  7.29D-01
 CoulSu:  requested number of processors reduced to:  11 ShMem   1 Linda.
 CalDSu:  requested number of processors reduced to:  19 ShMem   1 Linda.
 E= -287.808906767827     Delta-E=       -0.000000032890 Rises=F Damp=F
 DIIS: error= 5.29D-06 at cycle   4 NSaved=   4.
 NSaved= 4 IEnMin= 4 EnMin= -287.808906767827     IErMin= 4 ErrMin= 5.29D-06
 ErrMax= 5.29D-06  0.00D+00 EMaxC= 1.00D-01 BMatC= 9.24D-09 BMatP= 5.06D-08
 IDIUse=1 WtCom= 1.00D+00 WtEn= 0.00D+00
 Coeff-Com: -0.137D-01 0.171D+00 0.459D+00 0.383D+00
 Coeff:     -0.137D-01 0.171D+00 0.459D+00 0.383D+00
 Gap=     0.239 Goal=   None    Shift=    0.000
 RMSDP=3.56D-07 MaxDP=2.11D-05 DE=-3.29D-08 OVMax= 3.91D-05

 Cycle  10  Pass 1  IDiag  1:
 RMSU=  1.21D-07    CP:  1.00D+00  8.94D-01  7.55D-01  4.14D-01
 CoulSu:  requested number of processors reduced to:  11 ShMem   1 Linda.
 CalDSu:  requested number of processors reduced to:  19 ShMem   1 Linda.
 E= -287.808906775901     Delta-E=       -0.000000008074 Rises=F Damp=F
 DIIS: error= 5.49D-07 at cycle   5 NSaved=   5.
 NSaved= 5 IEnMin= 5 EnMin= -287.808906775901     IErMin= 5 ErrMin= 5.49D-07
 ErrMax= 5.49D-07  0.00D+00 EMaxC= 1.00D-01 BMatC= 9.24D-11 BMatP= 9.24D-09
 IDIUse=1 WtCom= 1.00D+00 WtEn= 0.00D+00
 Coeff-Com: -0.675D-02 0.671D-01 0.183D+00 0.178D+00 0.579D+00
 Coeff:     -0.675D-02 0.671D-01 0.183D+00 0.178D+00 0.579D+00
 Gap=     0.239 Goal=   None    Shift=    0.000
 RMSDP=5.78D-08 MaxDP=2.25D-06 DE=-8.07D-09 OVMax= 2.81D-06

 Cycle  11  Pass 1  IDiag  1:
 RMSU=  4.01D-08    CP:  1.00D+00  8.96D-01  7.51D-01  4.35D-01  6.91D-01
 CoulSu:  requested number of processors reduced to:  11 ShMem   1 Linda.
 CalDSu:  requested number of processors reduced to:  19 ShMem   1 Linda.
 E= -287.808906775983     Delta-E=       -0.000000000082 Rises=F Damp=F
 DIIS: error= 1.39D-07 at cycle   6 NSaved=   6.
 NSaved= 6 IEnMin= 6 EnMin= -287.808906775983     IErMin= 6 ErrMin= 1.39D-07
 ErrMax= 1.39D-07  0.00D+00 EMaxC= 1.00D-01 BMatC= 5.35D-12 BMatP= 9.24D-11
 IDIUse=1 WtCom= 1.00D+00 WtEn= 0.00D+00
 Coeff-Com: -0.114D-02 0.796D-02 0.226D-01 0.288D-01 0.225D+00 0.717D+00
 Coeff:     -0.114D-02 0.796D-02 0.226D-01 0.288D-01 0.225D+00 0.717D+00
 Gap=     0.239 Goal=   None    Shift=    0.000
 RMSDP=1.31D-08 MaxDP=4.16D-07 DE=-8.23D-11 OVMax= 6.39D-07

 Cycle  12  Pass 1  IDiag  1:
 RMSU=  8.75D-09    CP:  1.00D+00  8.96D-01  7.52D-01  4.37D-01  7.46D-01
                    CP:  8.36D-01
 CoulSu:  requested number of processors reduced to:  11 ShMem   1 Linda.
 CalDSu:  requested number of processors reduced to:  19 ShMem   1 Linda.
 E= -287.808906776001     Delta-E=       -0.000000000018 Rises=F Damp=F
 DIIS: error= 3.30D-08 at cycle   7 NSaved=   7.
 NSaved= 7 IEnMin= 7 EnMin= -287.808906776001     IErMin= 7 ErrMin= 3.30D-08
 ErrMax= 3.30D-08  0.00D+00 EMaxC= 1.00D-01 BMatC= 3.66D-13 BMatP= 5.35D-12
 IDIUse=1 WtCom= 1.00D+00 WtEn= 0.00D+00
 Coeff-Com: -0.101D-03-0.560D-03-0.951D-03 0.165D-02 0.625D-01 0.297D+00
 Coeff-Com:  0.641D+00
 Coeff:     -0.101D-03-0.560D-03-0.951D-03 0.165D-02 0.625D-01 0.297D+00
 Coeff:      0.641D+00
 Gap=     0.239 Goal=   None    Shift=    0.000
 RMSDP=3.93D-09 MaxDP=1.23D-07 DE=-1.80D-11 OVMax= 1.51D-07

 SCF Done:  E(RB3LYP) =  -287.808906776     A.U. after   12 cycles
            NFock= 12  Conv=0.39D-08     -V/T= 2.0074
 KE= 2.856948685746D+02 PE=-1.176985688351D+03 EE= 3.503612304052D+02
 Leave Link  502 at Sat Aug 20 12:45:37 2022, MaxMem=    23592960 cpu:       150.0
 (Enter /public/home/users/caep010/software/Gaussian09/g09/l701.exe)
 Compute integral first derivatives.
 ... and contract with generalized density number  0.
 PrsmSu:  requested number of processors reduced to:   3 ShMem   1 Linda.
 PrsmSu:  requested number of processors reduced to:   6 ShMem   1 Linda.
 Leave Link  701 at Sat Aug 20 12:45:37 2022, MaxMem=    23592960 cpu:         1.9
 (Enter /public/home/users/caep010/software/Gaussian09/g09/l702.exe)
 L702 exits ... SP integral derivatives will be done elsewhere.
 Leave Link  702 at Sat Aug 20 12:45:37 2022, MaxMem=    23592960 cpu:         0.4
 (Enter /public/home/users/caep010/software/Gaussian09/g09/l703.exe)
 Compute integral first derivatives, UseDBF=F ICtDFT=           0.
 Integral derivatives from FoFJK, PRISM(SPDF).
 Calling FoFJK, ICntrl=      2127 FMM=F ISym2X=0 I1Cent= 0 IOpClX= 0 NMat=1 NMatS=1 NMatT=0.
 FoFJK:  IHMeth= 1 ICntrl=    2127 DoSepK=F KAlg= 0 I1Cent=   0 FoldK=F
 IRaf=         0 NMat=   1 IRICut=       1 DoRegI=T DoRafI=F ISym2E= 0.
 FoFCou: FMM=F IPFlag=           0 FMFlag=      100000 FMFlg1=         800
         NFxFlg=           0 DoJE=F BraDBF=F KetDBF=F FulRan=T
         wScrn=  0.000000 ICntrl=    2127 IOpCl=  0 I1Cent=           0 NGrid=           0
         NMat0=    1 NMatS0=      1 NMatT0=    0 NMatD0=    1 NMtDS0=    0 NMtDT0=    0
 Symmetry not used in FoFCou.
 CoulSu:  requested number of processors reduced to:   6 ShMem   1 Linda.
 CalDSu:  requested number of processors reduced to:  17 ShMem   1 Linda.
 Leave Link  703 at Sat Aug 20 12:45:41 2022, MaxMem=    23592960 cpu:        31.7
 (Enter /public/home/users/caep010/software/Gaussian09/g09/l716.exe)
 Dipole        =-8.06486331D-02 2.19939902D-05 1.09308486D+00
 ***** Axes restored to original set *****
 -------------------------------------------------------------------
 Center     Atomic                   Forces (Hartrees/Bohr)
 Number     Number              X              Y              Z
 -------------------------------------------------------------------
      1        6           0.000048265   -0.001527171    0.001141639
      2        7           0.007147202   -0.001477442    0.001168983
      3        6          -0.000607085    0.005575224   -0.004168184
      4        6          -0.001541419   -0.000809499    0.000639353
      5        6          -0.001537551   -0.000849253    0.000572954
      6        8          -0.007059408   -0.000505325    0.000314937
      7        1           0.002869206    0.001606831   -0.001175817
      8        1           0.002204109    0.000537763   -0.000381975
      9        1           0.000197350   -0.000093712   -0.000226842
     10        1          -0.000316424   -0.000690218   -0.000162387
     11        1           0.000005639   -0.000595596   -0.000309655
     12        1           0.000191731    0.000189524    0.000156003
     13        1          -0.000005232    0.000127204    0.000658405
     14        1          -0.000324102   -0.000044217    0.000704657
     15        1          -0.001272280   -0.001444112    0.001067929
 -------------------------------------------------------------------
 Cartesian Forces:  Max     0.007147202 RMS     0.002048176
 Leave Link  716 at Sat Aug 20 12:45:41 2022, MaxMem=    23592960 cpu:         0.6
 (Enter /public/home/users/caep010/software/Gaussian09/g09/l103.exe)

 GradGradGradGradGradGradGradGradGradGradGradGradGradGradGradGradGradGrad
 Berny optimization.
 Using GEDIIS/GDIIS optimizer.
 FormGI is forming the generalized inverse of G from B-inverse, IUseBI=4.
 Internal  Forces:  Max     0.011818840 RMS     0.002172848
 Search for a local minimum.
 Step number   2 out of a maximum of   74
 All quantities printed in internal units (Hartrees-Bohrs-Radians)
 RMS Force = .21728D-02 SwitMx=.10000D-02 MixMth= 1
 Mixed Optimization -- RFO/linear search
 Update second derivatives using D2CorX and points    1    2
 DE= -4.91D-03 DEPred=-5.79D-03 R= 8.48D-01
 TightC=F SS=  1.41D+00  RLast= 2.33D-01 DXNew= 5.0454D-01 6.9929D-01
 Trust test= 8.48D-01 RLast= 2.33D-01 DXMaxT set to 5.05D-01
 ITU=  1  0
 Use linear search instead of GDIIS.
     Eigenvalues ---    0.00230   0.00230   0.00964   0.01356   0.01596
     Eigenvalues ---    0.03161   0.04767   0.05405   0.05405   0.05593
     Eigenvalues ---    0.05594   0.06799   0.09306   0.15394   0.16000
     Eigenvalues ---    0.16000   0.16000   0.16000   0.16000   0.16000
     Eigenvalues ---    0.16000   0.16500   0.17030   0.19471   0.25974
     Eigenvalues ---    0.28306   0.28314   0.30782   0.32481   0.32488
     Eigenvalues ---    0.32495   0.32547   0.32570   0.35163   0.35493
     Eigenvalues ---    0.40224   0.43514   0.49714   0.72405
 RFO step:  Lambda=-7.85374391D-04 EMin= 2.30000000D-03
 Quartic linear search produced a step of -0.10899.
 Iteration  1 RMS(Cart)=  0.01869020 RMS(Int)=  0.00009232
 Iteration  2 RMS(Cart)=  0.00011411 RMS(Int)=  0.00002385
 Iteration  3 RMS(Cart)=  0.00000001 RMS(Int)=  0.00002385
[...]
    15  H    0.000006   0.000064  -0.000114   0.000352  -0.000345  -0.000114
              13         14         15
     1  C    0.001286  -0.004148  -0.000926
     2  N   -0.001362  -0.004382   0.014587
     3  C   -0.042430  -0.018088  -0.019170
     4  C    0.009702  -0.008379  -0.004681
     5  C    0.423567   0.411041  -0.004682
     6  O   -0.001380   0.007798   0.289199
     7  H   -0.000189   0.000216   0.000006
     8  H    0.000490  -0.001589   0.000064
     9  H   -0.000115   0.001044  -0.000114
    10  H   -0.000203  -0.000716   0.000352
    11  H   -0.000522  -0.000203  -0.000345
    12  H   -0.018223  -0.023024  -0.000114
    13  H    0.452363  -0.019843  -0.000345
    14  H   -0.019843   0.490946   0.000352
    15  H   -0.000345   0.000352   0.368703
 Mulliken charges:
               1
     1  C   -0.201513
     2  N   -0.358270
     3  C    0.485387
     4  C   -0.568013
     5  C   -0.568015
     6  O   -0.589036
     7  H    0.216564
     8  H    0.171501
     9  H    0.160962
    10  H    0.168975
    11  H    0.197204
    12  H    0.160962
    13  H    0.197203
    14  H    0.168976
    15  H    0.357114
 Sum of Mulliken charges =  -0.00000
 Mulliken charges with hydrogens summed into heavy atoms:
               1
     1  C    0.186551
     2  N   -0.358270
     3  C    0.485387
     4  C   -0.040873
     5  C   -0.040874
     6  O   -0.231922
 Electronic spatial extent (au):  <R**2>=            575.9175
 Charge=              0.0000 electrons
 Dipole moment (field-independent basis, Debye):
    X=              0.0437    Y=              0.0001    Z=              3.5170  Tot=              3.5173
 Quadrupole moment (field-independent basis, Debye-Ang):
   XX=            -30.4912   YY=            -38.3807   ZZ=            -43.2184
   XY=             -0.0001   XZ=              0.1625   YZ=             -0.0001
 Traceless Quadrupole moment (field-independent basis, Debye-Ang):
   XX=              6.8722   YY=             -1.0172   ZZ=             -5.8550
   XY=             -0.0001   XZ=              0.1625   YZ=             -0.0001
 Octapole moment (field-independent basis, Debye-Ang**2):
  XXX=             -5.0519  YYY=             -0.0001  ZZZ=              4.5647  XYY=             -2.3027
  XXY=              0.0002  XXZ=             -0.5754  XZZ=              1.1635  YZZ=              0.0002
  YYZ=             -1.9361  XYZ=              0.0001
 Hexadecapole moment (field-independent basis, Debye-Ang**3):
 XXXX=           -290.4304 YYYY=           -213.7763 ZZZZ=           -198.6576 XXXY=             -0.0009
 XXXZ=              4.8223 YYYX=              0.0001 YYYZ=             -0.0001 ZZZX=              6.7174
 ZZZY=             -0.0001 XXYY=           -101.6905 XXZZ=            -91.9670 YYZZ=            -69.5148
 XXYZ=              0.0000 YYXZ=              2.3405 ZZXY=              0.0000
 N-N= 2.523528549637D+02 E-N=-1.174795849078D+03  KE= 2.857393761911D+02
 PrsmSu:  requested number of processors reduced to:   1 ShMem   1 Linda.
 No NMR shielding tensors so no spin-rotation constants.
 Leave Link  601 at Sat Aug 20 19:38:25 2022, MaxMem=    23592960 cpu:        18.5
 (Enter /public/home/users/caep010/software/Gaussian09/g09/l9999.exe)
 1\1\GINC-B1615\SP\RHF\GFHFB2\C4H9N1O1\ROOT\20-Aug-2022\0\\#P Geom=AllC
 heck Guess=TCheck SCRF=Check HF/GFHFB2 SCF=Tight\\Frag_769\\0,1\C,0,2.
 0654789609,-0.1521489614,0.1319861889\N,0,1.0706124901,-0.7779224973,0
 .5908256595\C,0,-0.2837878497,-0.3483908072,0.2578292998\C,0,-0.556185
 0838,1.0672017627,0.7914009576\C,0,-0.5380527411,-0.4612332201,-1.2539
 302275\O,0,-1.1070029463,-1.2845221766,0.9500825969\H,0,3.0686990727,-
 0.4918414986,0.3947460671\H,0,2.013250881,0.7275429185,-0.5258853828\H
 ,0,-1.6007937529,1.3459535328,0.6152519764\H,0,0.0766177838,1.81241556
 23,0.2996762019\H,0,-0.3645289052,1.0939549785,1.8666518292\H,0,-1.582
 1898224,-0.2221975784,-1.4832292106\H,0,-0.3339578484,-1.4831560444,-1
 .5820026789\H,0,0.0954270511,0.2268740125,-1.8220742486\H,0,-2.0237872
 898,-1.0525299832,0.7685709711\\Version=ES64L-G09RevE.01\State=1-A\HF=
 -286.1195673\RMSD=3.342e-09\Dipole=-0.1223888,1.103604,-0.8258173\Quad
 rupole=4.9886403,-2.979567,-2.0090732,0.8794358,-0.6062483,1.6692269\P
 G=C01 [X(C4H9N1O1)]\\@


 IF YOU WANT TO LEARN FROM THE THEORETICAL PHYSICISTS ABOUT THE
 METHODS WHICH THEY USE, I ADVISE YOU TO FOLLOW THIS PRINCIPLE VERY STRICTLY:
 DON'T LISTEN TO THEIR WORDS; PAY ATTENTION, INSTEAD, TO THEIR ACTIONS.
 -- A.EINSTEIN, 1934
 Diagonal vibrational polarizability:
        0.0000000       0.0000000       0.0000000

 Temperature=              298.150000 Pressure=                      1.000000
 E(ZPE)=                     0.126179 E(Thermal)=                    0.133790
 E(CCSD(T))=              -286.929479 E(Empiric)=                   -0.125046
 DE(Plus)=                  -0.022334 DE(2DF)=                      -0.250987
 E(Delta-G3XP)=             -0.382444 DE(HF)=                       -0.028400
 G4(0 K)=                 -287.612511 G4 Energy=                  -287.604900
 G4 Enthalpy=             -287.603956 G4 Free Energy=             -287.643676
 1\1\GINC-B1615\Mixed\G4\G4\C4H9N1O1\ROOT\20-Aug-2022\0\\#P Geom=AllChe
 ck Guess=TCheck SCRF=Check HF/GFHFB2 SCF=Tight\\Frag_769\\0,1\C,0,2.06
 54789609,-0.1521489614,0.1319861889\N,0,1.0706124901,-0.7779224973,0.5
 908256595\C,0,-0.2837878497,-0.3483908072,0.2578292998\C,0,-0.55618508
 38,1.0672017627,0.7914009576\C,0,-0.5380527411,-0.4612332201,-1.253930
 2275\O,0,-1.1070029463,-1.2845221766,0.9500825969\H,0,3.0686990727,-0.
 4918414986,0.3947460671\H,0,2.013250881,0.7275429185,-0.5258853828\H,0
 ,-1.6007937529,1.3459535328,0.6152519764\H,0,0.0766177838,1.8124155623
 ,0.2996762019\H,0,-0.3645289052,1.0939549785,1.8666518292\H,0,-1.58218
 98224,-0.2221975784,-1.4832292106\H,0,-0.3339578484,-1.4831560444,-1.5
 820026789\H,0,0.0954270511,0.2268740125,-1.8220742486\H,0,-2.023787289
 8,-1.0525299832,0.7685709711\\Version=ES64L-G09RevE.01\State=1-A\MP2/G
 TBas1=-286.8468964\MP4/GTBas1=-286.9290536\CCSD(T)/G3Bas1=-286.9294788
 \MP2/GTBas2=-286.8678098\MP4/GTBas2=-286.9513878\MP2/GTBas3=-287.08323
 57\MP4/GTBas3=-287.1800409\HF/GTLargeXP=-286.0923369\MP2/GTLargeXP=-28
 7.4865927\HF/GFHFB1=-286.1147661\HF/GFHFB2=-286.1195673\G4=-287.612511
 2\FreqCoord=3.9031895693,-0.2875198685,0.2494177503,2.0231644008,-1.47
 00604726,1.1164986887,-0.5362813158,-0.6583632129,0.4872267657,-1.0510
 374877,2.0167190601,1.4955310711,-1.0167723258,-0.8716044694,-2.369584
 7198,-2.0919323968,-2.4273951254,1.7953959118,5.7990008317,-0.92944573
 31,0.7459619589,3.8044928019,1.3748568659,-0.9937793507,-3.0250617883,
 2.5434835646,1.1626577381,0.1447866282,3.4249690518,0.5663059502,-0.68
 88597983,2.067275311,3.5274607427,-2.9899054545,-0.4198925706,-2.80289
 70003,-0.6310888734,-2.8027587363,-2.9895518047,0.1803309923,0.4287297
 503,-3.4432213236,-3.8244037289,-1.9889934149,1.4523886491\PG=C01 [X(C
 4H9N1O1)]\NImag=0\\0.84207441,0.10749708,0.49775004,-0.07408107,-0.268
 89243,0.33696098,-0.45746299,-0.23269898,0.17026229,0.73747278,-0.1917
 7684,-0.21195429,0.12166941,0.20900390,0.30358753,0.13968044,0.1213072
 0,-0.13629116,-0.15056412,-0.14859109,0.21198896,-0.04924431,0.0067415
 0,-0.00545387,-0.14416849,0.01286403,-0.01020399,0.48672624,-0.0206360
 8,-0.00021081,-0.00173859,0.04277923,-0.08683539,0.00734026,0.00606659
 ,0.47047620,0.01500651,-0.00149611,-0.00104196,-0.03256080,0.00707573,
 -0.08309677,-0.00449068,0.00866092,0.47548386,-0.00016535,0.00692575,-
 0.00036478,-0.02092357,0.03113421,0.00891111,-0.07709287,0.02026761,0.
 00600798,0.57109410,-0.00185971,-0.00088260,-0.00044994,0.01689561,-0.
 01238664,-0.00257982,0.01246981,-0.14228351,-0.03592805,0.02296769,0.4
 7052649,-0.00049598,0.00050939,0.00120254,-0.00034975,0.00419600,0.002
 93150,0.00381002,-0.03701759,-0.09234994,0.00812663,-0.04446536,0.5665
 0950,-0.00013255,0.00229991,-0.00654012,-0.02041378,0.00007496,-0.0325
 6249,-0.07671557,0.00016483,-0.02006245,0.00454457,0.00128596,0.005989
 07,0.57165284,-0.00007272,0.00103850,0.00101422,0.00484431,0.00130556,
 0.00800951,0.00007595,-0.07653545,-0.01776894,-0.00492759,-0.00315013,
 -0.03397507,-0.00125513,0.58294699,0.00192860,0.00015355,-0.00075093,-
 0.01622526,0.00131785,-0.01127128,-0.01197031,-0.01660845,-0.15847247,
 -0.00264499,-0.00706284,-0.01523810,-0.02289508,-0.01145929,0.45353033
 ,-0.00567144,0.00151126,-0.00118575,-0.05800701,-0.02644751,0.01920600
 ,-0.10639054,-0.05761385,0.04269623,-0.00267948,-0.00875290,0.00393627
 ,-0.00296166,-0.00661912,0.00748634,0.63018531,0.00192562,-0.00046354,
 0.00089998,-0.00240026,0.00962294,-0.00353367,-0.01733956,-0.13811796,
 0.05360866,-0.03053837,-0.03992085,0.02399267,-0.00931272,-0.00579424,
 0.01104602,-0.03532736,0.23387686,-0.00149529,0.00089646,0.00003537,0.
 00123521,-0.00374735,0.00773404,0.01259992,0.05325097,-0.10585754,0.00
 058319,0.00096620,0.00470506,0.02913262,0.03428992,-0.02914107,0.03146
 398,-0.13003322,0.15774552,-0.26253453,0.08394459,-0.06471812,-0.03722
 803,-0.00168006,0.00103266,0.00222135,-0.00135430,0.00087554,-0.000121
 94,-0.00008412,-0.00026705,-0.00015957,0.00024598,0.00014859,-0.001053
 03,-0.00002867,0.00001407,0.29871076,0.08747133,-0.08304366,0.03378249
 ,-0.02283718,0.00381004,-0.01207016,-0.00169816,0.00572850,0.00885346,
 -0.00188170,-0.00000746,-0.00054718,0.00096407,-0.00073651,0.00067705,
 -0.00062890,0.00006132,-0.00024476,-0.08107155,0.07625411,-0.06735397,
 0.03375136,-0.06469789,0.01684389,-0.01188253,-0.00304062,0.00113271,0
 .00885638,0.01098675,-0.00156380,0.00088308,-0.00071211,0.00225162,-0.
 00074352,0.00005443,0.00046292,-0.00023947,-0.00007588,0.06301441,-0.0
 3900265,0.05473332,-0.06612430,0.02159470,-0.01627675,0.00354092,-0.02
 773987,0.02046030,0.00298293,-0.00174154,0.00143850,-0.00055950,-0.000
 27213,0.00032460,-0.00053019,-0.00040049,0.00016264,-0.00002505,0.0002
 2718,-0.00016944,0.00036567,0.01964954,-0.01475178,0.06072552,0.019583
 89,-0.20092697,0.11258676,-0.01067356,-0.00589833,0.02975218,0.0049395
 4,-0.00385126,-0.00639855,0.00065255,-0.00045438,0.00033932,-0.0017036
 5,0.00015532,0.00034793,-0.00036991,0.00034280,-0.00030953,-0.00017506
 ,-0.00337936,0.00847724,-0.01243909,0.21303771,-0.01477387,0.11260443,
 -0.13478699,0.00770639,0.02960079,0.01198695,-0.00355460,-0.00645733,-
 0.00767725,0.00195836,0.00018007,0.00038151,-0.00118883,0.00051060,-0.
 00025785,0.00027636,-0.00030437,0.00016250,0.00006350,0.00865315,0.001
 50029,0.00963548,-0.14254953,0.12905294,0.00094296,0.00114575,-0.00034
 753,-0.00023272,0.00120166,0.00143911,-0.00785248,-0.00181017,-0.00143
 456,-0.28441643,0.06119828,-0.04128902,0.00004918,-0.00022054,-0.00028
 747,0.00190445,-0.00024900,-0.00043940,-0.00004513,-0.00003056,-0.0000
 1197,0.00021565,-0.00022009,-0.00023012,0.30952534,-0.00047787,-0.0015
 4550,0.00051319,0.00198740,-0.00434512,-0.00225611,0.03009498,-0.00789
 699,0.00532722,0.05982188,-0.06179421,0.01086819,-0.00012142,0.0011064
 5,0.00121812,-0.00062308,0.00300740,-0.00029016,0.00021405,0.00080632,
 0.00050409,0.00010857,-0.00000399,-0.00102834,-0.06746650,0.06694639,-
 0.00008932,-0.00056593,0.00027896,0.00149383,-0.00248328,0.00040123,0.
 01187801,-0.00210000,0.00067378,-0.04237391,0.00993300,-0.05397671,0.0
 0033635,0.00044000,0.00036984,0.00020242,0.00110447,-0.00055209,0.0000
 3405,0.00005879,0.00006404,-0.00023904,0.00018312,-0.00003691,0.045563
 23,-0.01010131,0.05400536,-0.00071174,0.00096565,-0.00013284,0.0008456
 6,-0.00080237,0.00007217,0.00101130,0.00390977,-0.00269982,-0.13574931
 ,-0.10443838,0.07018933,0.00005781,-0.00019967,-0.00017977,0.00191244,
 0.00149643,-0.00051310,-0.00002268,-0.00002642,-0.00004500,-0.00040887
 ,0.00054818,0.00035606,-0.01701007,-0.02103569,0.01426720,0.14601956,0
 .00029392,-0.00014762,0.00071636,-0.00143128,0.00144189,-0.00050933,-0
 .01821762,-0.01535634,0.01643022,-0.10163424,-0.16529749,0.07889544,0.
 00010771,0.00105596,0.00054739,-0.00139146,-0.00953747,-0.00159854,0.0
 0012989,0.00049901,-0.00014138,0.00068682,0.00021959,-0.00090906,0.004
 94067,0.00579479,-0.00426218,0.11364430,0.18004591,0.00023695,-0.00027
 333,-0.00015030,-0.00056314,0.00117705,0.00000226,-0.00761994,-0.00603
 315,0.00379396,0.07040631,0.08013905,-0.10200797,-0.00021919,0.0004067
 1,0.00008440,-0.00038712,-0.00369999,0.00197664,-0.00000017,-0.0000193
 1,0.00004046,0.00028250,-0.00042634,0.00014230,-0.00357401,-0.00447286
 ,0.00177968,-0.07808317,-0.08760867,0.10675209,-0.00039516,-0.00048055
 ,0.00035111,0.00100340,-0.00029959,0.00024549,-0.00008609,0.00031972,0
 .00707860,-0.05570385,-0.00073665,-0.04815141,-0.00011054,0.00112460,0
 .00025082,-0.00041212,-0.00029974,0.00006970,-0.00001146,0.00002671,-0
 .00016910,0.00015628,0.00019148,0.00011726,-0.00461305,-0.00100007,-0.
 03060960,0.00334025,0.00128284,0.01919297,0.05596270,0.00008982,0.0001
 3936,0.00039806,-0.00162116,0.00137093,0.00045521,-0.00529938,-0.00197
 327,-0.03255550,-0.00070513,-0.04593559,-0.00141360,0.00152143,-0.0060
 1477,-0.00082141,0.00084788,0.00331396,0.00147311,0.00001060,-0.000021
 85,-0.00017675,-0.00002524,0.00006456,-0.00003588,0.00069741,-0.000706
 67,0.00768430,0.00518267,0.00068204,0.02108074,-0.00038512,0.04925368,
 0.00061177,0.00051109,-0.00002285,-0.00104284,0.00063548,0.00114794,-0
 .00117060,0.00016102,-0.01394985,-0.04742155,-0.00429155,-0.30776649,0
 .00087307,-0.00301578,0.00043559,-0.00027247,0.00095581,0.00242999,0.0
 0007035,-0.00012429,-0.00005886,-0.00006420,-0.00011488,-0.00000276,0.
 00008451,0.00011439,-0.00334932,-0.00317069,-0.00085205,-0.01203103,0.
 05174086,0.00591201,0.33362518,0.00094381,0.00065367,-0.00097368,-0.00
 017294,-0.00104648,-0.00149518,-0.00749304,0.00072353,0.00212923,0.000
 04717,0.00020321,0.00027540,-0.28429221,0.05489837,-0.04967822,0.00189
 383,0.00038597,0.00035081,-0.00004296,-0.00000027,0.00002379,0.0002092
 2,0.00016949,0.00027983,0.00066230,-0.00050287,-0.00018653,0.00004356,
 0.00012914,-0.00004815,0.00030304,-0.00009213,-0.00000558,0.30936323,-
 0.00004245,0.00015180,-0.00007463,-0.00087295,0.00129198,-0.00083600,-
 0.00292077,-0.00090948,-0.00004473,-0.00035760,-0.00002266,0.00010510,
 0.05555921,-0.05930050,0.01061987,-0.00035126,-0.00048735,0.00007074,0
 .00003006,-0.00002909,-0.00018757,0.00025742,0.00019910,0.00024717,0.0
 0004590,0.00005920,-0.00038646,-0.00013715,-0.00001909,-0.00008353,0.0
 0009275,-0.00000814,0.00016197,-0.06055415,0.05948545,0.00050218,0.001
 02500,-0.00141916,-0.00226671,-0.00061741,-0.00529549,-0.03230248,0.00
 713196,-0.00667464,-0.00000283,0.00088714,0.00150116,-0.04805908,0.011
 56167,-0.05659563,0.00053925,-0.00131393,0.00295309,-0.00022784,0.0002
 5533,0.00089746,-0.00002306,-0.00096782,-0.00023327,0.00054960,-0.0005
 3412,-0.00020846,0.00008854,-0.00001121,-0.00009233,0.00030317,0.00021
 796,0.00021474,0.05472133,-0.01224501,0.06162973,-0.00038731,-0.000477
 13,0.00034924,0.00097818,-0.00032303,0.00020591,-0.00006645,-0.0062845
 9,-0.00217563,-0.00007600,0.00005517,-0.00106781,-0.05683545,0.0487283
 4,0.01512187,-0.00040876,-0.00018285,0.00021420,-0.00001230,0.00017128
 ,0.00002436,0.00015826,-0.00005670,-0.00021416,0.00030638,-0.00026547,
 -0.00017429,0.00001987,0.00028746,0.00004319,0.00063067,-0.00026791,-0
 .00023334,-0.00496154,0.02900076,0.00957356,0.05716968,-0.00056707,-0.
 00026568,0.00039095,0.00053590,0.00087164,0.00049506,-0.00033745,-0.00
 424461,-0.00051540,-0.00040400,0.00095775,-0.00096921,0.04807037,-0.28
 439598,-0.07432512,0.00047655,0.00184416,0.00052822,-0.00006357,0.0000
 2671,-0.00011079,0.00005684,0.00004355,-0.00012247,-0.00002112,0.00009
 123,0.00019035,0.00008773,0.00025754,0.00020155,0.00015545,-0.00011634
 ,-0.00011157,0.00013256,-0.00500836,-0.00114688,-0.05279107,0.30671017
 ,-0.00027051,0.00027344,0.00037437,0.00183983,0.00031919,0.00167286,0.
 00582877,-0.03323542,-0.01169912,-0.00164319,0.00122596,-0.00657136,0.
 01486047,-0.07144178,-0.06817419,-0.00079349,0.00102961,0.00389713,-0.
 00002772,-0.00016098,-0.00010667,0.00004436,-0.00004248,0.00001623,0.0
 0008998,0.00024580,0.00011205,-0.00013468,0.00010002,0.00016686,0.0003
 5629,-0.00205775,-0.00075605,-0.00081692,0.00666409,0.00130094,-0.0151
 9845,0.08152724,0.07496171,-0.00069957,0.00038916,-0.00089339,0.000820
 78,-0.00027824,0.00073507,0.00077282,0.00347139,-0.00283595,0.00005283
 ,0.00011494,0.00022866,-0.13588368,-0.09772013,0.07932905,0.00190187,0
 .00088852,-0.00115253,-0.00002250,0.00003746,0.00003416,-0.00039126,-0
 .00018412,-0.00062679,0.00004376,-0.00012262,0.00010829,0.00026486,0.0
 0026974,0.00003970,0.00002203,0.00015277,-0.00005110,-0.01702203,-0.01
 977072,0.01594208,0.00357711,0.00474708,-0.00422551,0.14615563,-0.0001
 4413,-0.00026874,-0.00031852,0.00013362,-0.00006481,0.00073996,0.00217
 736,-0.00052007,-0.00166386,0.00024127,-0.00009374,0.00007107,-0.09714
 800,-0.15195335,0.08414675,-0.00002649,0.00249958,-0.00015655,0.000037
 12,0.00012164,-0.00013039,-0.00008021,0.00050944,-0.00034654,0.0000846
 7,-0.00006106,-0.00009400,0.00004432,0.00019356,-0.00046950,0.00003765
 ,0.00009381,0.00015247,0.00469961,0.00434849,-0.00467203,-0.01805343,-
 0.01662124,0.01576155,0.10801598,0.16207723,-0.00036256,0.00068177,-0.
 00004185,0.00153243,-0.00094444,0.00153383,0.01958633,0.02100665,-0.01
 080359,-0.00005640,0.00020766,0.00123923,0.07658933,0.08287358,-0.1152
 1769,0.00156348,0.00197873,-0.01004959,-0.00012717,-0.00025381,0.00041
 762,-0.00073454,-0.00083131,-0.00016519,-0.00010887,-0.00002583,-0.000
 05071,-0.00025608,-0.00096896,-0.00023422,-0.00029184,0.00005044,0.000
 32849,-0.00391456,-0.00490853,0.00323779,-0.00663666,-0.00593466,0.005
 03526,-0.08583655,-0.09296852,0.12458525,-0.00043191,-0.00001236,0.000
 00524,-0.00605218,-0.00388473,0.00283753,-0.02460480,0.01173786,-0.008
 97268,0.00174962,0.00095321,-0.00125897,0.00173080,0.00149785,-0.00054
 682,-0.46018881,0.09075482,-0.07189394,-0.00004364,-0.00014565,0.00010
 776,-0.00031528,-0.00026295,0.00019511,0.00051985,-0.00061127,-0.00021
 068,0.00038736,0.00090212,0.00029326,-0.00008610,-0.00010651,0.0000518
 1,0.00051856,0.00002095,0.00066228,-0.00009235,-0.00007821,0.00009077,
 0.00040734,-0.00001937,-0.00094634,0.48650154,-0.00128478,0.00062972,-
 0.00049731,-0.00364459,-0.00181795,0.00227680,-0.02961682,0.00253044,-
 0.00358506,-0.00156233,0.00074501,-0.00058917,-0.00050754,0.00027215,0
 .00020257,0.13531614,-0.06024760,0.04490450,-0.00015497,-0.00008972,0.
 00014290,0.00011751,-0.00005780,-0.00004267,0.00070367,-0.00145823,0.0
 0039911,0.00076063,0.00016772,0.00008157,-0.00002948,-0.00014169,-0.00
 009413,0.00020034,0.00024863,0.00042935,0.00045917,-0.00015054,-0.0002
 0850,-0.00001121,-0.00026074,0.00003723,-0.10074575,0.05963059,0.00095
 612,-0.00048589,0.00035088,0.00265875,0.00227459,-0.00040426,0.0219307
 0,-0.00321762,0.00068477,0.00007788,0.00035540,0.00015219,0.00149469,-
 0.00070182,0.00064462,-0.10519441,0.04450871,-0.03596317,0.00011490,0.
 00014288,-0.00000234,-0.00008958,-0.00004611,-0.00008251,-0.00000349,-
 0.00008228,0.00048928,0.00024185,0.00017193,-0.00022279,-0.00048433,-0
 .00021094,-0.00024470,-0.00066157,0.00089751,-0.00121591,0.00016800,-0
 .00009727,-0.00023002,-0.00079517,-0.00005191,0.00018537,0.07958566,-0
 .04345719,0.03585860\\-0.00010590,-0.00007707,0.00005546,0.00001254,0.
 00003215,-0.00002377,0.00002764,-0.00002037,0.00001564,-0.00000012,0.0
 0003619,0.00001428,0.00000041,-0.00000332,-0.00003878,0.00002343,-0.00
 002015,0.00001532,0.00001982,0.00002474,-0.00001778,0.00003909,0.00001
 133,-0.00000775,-0.00000968,-0.00000766,-0.00000997,0.00001675,0.00000
 058,-0.00000843,0.00000264,-0.00000537,0.00000161,-0.00000984,0.000007
 28,0.00001008,0.00000260,-0.00000309,0.00000471,0.00001662,0.00000836,
 0.00000204,-0.00003600,0.00001641,-0.00001265\\\@
 Job cpu time:       0 days  3 hours 15 minutes  3.2 seconds.
 File lengths (MBytes):  RWF=  13400 Int=      0 D2E=      0 Chk=     39 Scr=      1
 Normal termination of Gaussian 09 at Sat Aug 20 19:38:25 2022.
