 Entering Gaussian System, Link 0=g09
 Input=G4.Frag_474.gjf
 Output=G4.Frag_474.log
 Initial command:
 /public/home/users/caep010/software/Gaussian09/g09/l1.exe "/public/home/users/caep010/.cache/gau_scr/Gau-200113.inp" -scrdir="/public/home/users/caep010/.cache/gau_scr/"
 Entering Link 1 = /public/home/users/caep010/software/Gaussian09/g09/l1.exe PID=    200116.
  
 Copyright (c) 1988,1990,1992,1993,1995,1998,2003,2009,2015,
            Gaussian, Inc.  All Rights Reserved.
  
 This is part of the Gaussian(R) 09 program.  It is based on
 the Gaussian(R) 03 system (copyright 2003, Gaussian, Inc.),
 the Gaussian(R) 98 system (copyright 1998, Gaussian, Inc.),
 the Gaussian(R) 94 system (copyright 1995, Gaussian, Inc.),
 the Gaussian 92(TM) system (copyright 1992, Gaussian, Inc.),
 the Gaussian 90(TM) system (copyright 1990, Gaussian, Inc.),
 the Gaussian 88(TM) system (copyright 1988, Gaussian, Inc.),
 the Gaussian 86(TM) system (copyright 1986, Carnegie Mellon
 University), and the Gaussian 82(TM) system (copyright 1983,
 Carnegie Mellon University). Gaussian is a federally registered
 trademark of Gaussian, Inc.
  
 This software contains proprietary and confidential information,
 including trade secrets, belonging to Gaussian, Inc.
  
 This software is provided under written license and may be
 used, copied, transmitted, or stored only in accord with that
 written license.
  
 The following legend is applicable only to US Government
 contracts under FAR:
  
                    RESTRICTED RIGHTS LEGEND
  
 Use, reproduction and disclosure by the US Government is
 subject to restrictions as set forth in subparagraphs (a)
 and (c) of the Commercial Computer Software - Restricted
 Rights clause in FAR 52.227-19.
  
 Gaussian, Inc.
 340 Quinnipiac St., Bldg. 40, Wallingford CT 06492
  
  
 ---------------------------------------------------------------
 Warning -- This program may not be used in any manner that
 competes with the business of Gaussian, Inc. or will provide
 assistance to any competitor of Gaussian, Inc.  The licensee
 of this program is prohibited from giving any competitor of
 Gaussian, Inc. access to this program.  By using this program,
 the user acknowledges that Gaussian, Inc. is engaged in the
 business of creating and licensing software in the field of
 computational chemistry and represents and warrants to the
 licensee that it is not a competitor of Gaussian, Inc. and that
 it will not use this program in any manner prohibited above.
 ---------------------------------------------------------------
  

 Cite this work as:
 Gaussian 09, Revision E.01,
 M. J. Frisch, G. W. Trucks, H. B. Schlegel, G. E. Scuseria, 
 M. A. Robb, J. R. Cheeseman, G. Scalmani, V. Barone, B. Mennucci, 
 G. A. Petersson, H. Nakatsuji, M. Caricato, X. Li, H. P. Hratchian, 
 A. F. Izmaylov, J. Bloino, G. Zheng, J. L. Sonnenberg, M. Hada, 
 M. Ehara, K. Toyota, R. Fukuda, J. Hasegawa, M. Ishida, T. Nakajima, 
 Y. Honda, O. Kitao, H. Nakai, T. Vreven, J. A. Montgomery, Jr., 
 J. E. Peralta, F. Ogliaro, M. Bearpark, J. J. Heyd, E. Brothers, 
 K. N. Kudin, V. N. Staroverov, T. Keith, R. Kobayashi, J. Normand, 
 K. Raghavachari, A. Rendell, J. C. Burant, S. S. Iyengar, J. Tomasi, 
 M. Cossi, N. Rega, J. M. Millam, M. Klene, J. E. Knox, J. B. Cross, 
 V. Bakken, C. Adamo, J. Jaramillo, R. Gomperts, R. E. Stratmann, 
 O. Yazyev, A. J. Austin, R. Cammi, C. Pomelli, J. W. Ochterski, 
 R. L. Martin, K. Morokuma, V. G. Zakrzewski, G. A. Voth, 
 P. Salvador, J. J. Dannenberg, S. Dapprich, A. D. Daniels, 
 O. Farkas, J. B. Foresman, J. V. Ortiz, J. Cioslowski, 
 and D. J. Fox, Gaussian, Inc., Wallingford CT, 2013.
 
 ******************************************
 Gaussian 09:  ES64L-G09RevE.01 30-Nov-2015
                30-Aug-2022 
 ******************************************
 %nproc=32
 Will use up to   32 processors via shared memory.
 %mem=180GB
 %chk=G4.Frag_474.chk
 -----
 #P G4
 -----
 1/14=-1,18=20,19=15,26=3,38=1/1,3;
 2/9=110,12=2,17=6,18=5,40=1/2;
 3/5=35,7=104,11=2,16=1,25=1,30=1,71=1,74=-5/1,2,3;
 4//1;
 5/5=2,38=5/2;
 6/7=2,8=2,9=2,10=2,28=1/1;
 7//1,2,3,16;
 1/14=-1,18=20,19=15,26=3/3(2);
 2/9=110/2;
 99//99;
 2/9=110/2;
 3/5=35,7=104,11=2,16=1,25=1,30=1,71=1,74=-5/1,2,3;
 4/5=5,16=3,69=1/1;
 5/5=2,38=5/2;
 7//1,2,3,16;
 1/14=-1,18=20,19=15,26=3/3(-5);
 2/9=110/2;
 6/7=2,8=2,9=2,10=2,19=2,28=1/1;
 99/9=1/99;
 Leave Link    1 at Tue Aug 30 09:24:53 2022, MaxMem= 24159191040 cpu:         2.3
 (Enter /public/home/users/caep010/software/Gaussian09/g09/l101.exe)
 --------
 Frag_474
 --------
 Symbolic Z-matrix:
 Charge =  0 Multiplicity = 1
 C                     0.77332  -0.9515   -0.54104 
 C                     0.49872   0.45106  -0.06253 
 O                     1.5052    1.40177  -0.193 
 C                    -0.66614   0.82981   0.4886 
 N                    -1.77075   0.01078   0.59552 
 H                     1.78665  -1.04876  -0.94099 
 H                     0.08308  -1.26725  -1.34211 
 H                     0.68455  -1.68206   0.26501 
 H                     2.26941   0.9799   -0.59059 
 H                    -0.79386   1.85787   0.78812 
 H                    -1.76373  -0.95678   0.73275 
 H                    -2.60644   0.37505   1.45027 
 
 Add virtual bond connecting atoms H12        and N5         Dist= 2.36D+00.
 NAtoms=     12 NQM=       12 NQMF=       0 NMMI=      0 NMMIF=      0
                NMic=       0 NMicF=      0.
                    Isotopes and Nuclear Properties:
 (Nuclear quadrupole moments (NQMom) in fm**2, nuclear magnetic moments (NMagM)
  in nuclear magnetons)

  Atom         1           2           3           4           5           6           7           8           9          10
 IAtWgt=          12          12          16          12          14           1           1           1           1           1
 AtmWgt=  12.0000000  12.0000000  15.9949146  12.0000000  14.0030740   1.0078250   1.0078250   1.0078250   1.0078250   1.0078250
 NucSpn=           0           0           0           0           2           1           1           1           1           1
 AtZEff=   0.0000000   0.0000000   0.0000000   0.0000000   0.0000000   0.0000000   0.0000000   0.0000000   0.0000000   0.0000000
 NQMom=    0.0000000   0.0000000   0.0000000   0.0000000   2.0440000   0.0000000   0.0000000   0.0000000   0.0000000   0.0000000
 NMagM=    0.0000000   0.0000000   0.0000000   0.0000000   0.4037610   2.7928460   2.7928460   2.7928460   2.7928460   2.7928460
 AtZNuc=   6.0000000   6.0000000   8.0000000   6.0000000   7.0000000   1.0000000   1.0000000   1.0000000   1.0000000   1.0000000

  Atom        11          12
 IAtWgt=           1           1
 AtmWgt=   1.0078250   1.0078250
 NucSpn=           1           1
 AtZEff=   0.0000000   0.0000000
 NQMom=    0.0000000   0.0000000
 NMagM=    2.7928460   2.7928460
 AtZNuc=   1.0000000   1.0000000
 Leave Link  101 at Tue Aug 30 09:24:53 2022, MaxMem= 24159191040 cpu:        12.4
 (Enter /public/home/users/caep010/software/Gaussian09/g09/l103.exe)

 GradGradGradGradGradGradGradGradGradGradGradGradGradGradGradGradGradGrad
 Berny optimization.
 Initialization pass.
                           ----------------------------
                           !    Initial Parameters    !
                           ! (Angstroms and Degrees)  !
 --------------------------                            --------------------------
 ! Name  Definition              Value          Derivative Info.                !
 --------------------------------------------------------------------------------
 ! R1    R(1,2)                  1.5072         estimate D2E/DX2                !
 ! R2    R(1,6)                  1.0937         estimate D2E/DX2                !
 ! R3    R(1,7)                  1.1036         estimate D2E/DX2                !
 ! R4    R(1,8)                  1.0915         estimate D2E/DX2                !
 ! R5    R(2,3)                  1.3906         estimate D2E/DX2                !
 ! R6    R(2,4)                  1.3432         estimate D2E/DX2                !
 ! R7    R(3,9)                  0.9592         estimate D2E/DX2                !
 ! R8    R(4,5)                  1.3793         estimate D2E/DX2                !
 ! R9    R(4,10)                 1.0784         estimate D2E/DX2                !
 ! R10   R(5,11)                 0.9773         estimate D2E/DX2                !
 ! R11   R(5,12)                 1.2497         estimate D2E/DX2                !
 ! A1    A(2,1,6)              111.5708         estimate D2E/DX2                !
 ! A2    A(2,1,7)              112.5048         estimate D2E/DX2                !
 ! A3    A(2,1,8)              111.9371         estimate D2E/DX2                !
 ! A4    A(6,1,7)              106.7749         estimate D2E/DX2                !
 ! A5    A(6,1,8)              106.6117         estimate D2E/DX2                !
 ! A6    A(7,1,8)              107.0794         estimate D2E/DX2                !
 ! A7    A(1,2,3)              118.3301         estimate D2E/DX2                !
 ! A8    A(1,2,4)              123.4148         estimate D2E/DX2                !
 ! A9    A(3,2,4)              118.2545         estimate D2E/DX2                !
 ! A10   A(2,3,9)              108.3507         estimate D2E/DX2                !
 ! A11   A(2,4,5)              123.9805         estimate D2E/DX2                !
 ! A12   A(2,4,10)             119.0455         estimate D2E/DX2                !
 ! A13   A(5,4,10)             116.7251         estimate D2E/DX2                !
 ! A14   A(4,5,11)             126.3733         estimate D2E/DX2                !
 ! A15   A(4,5,12)             114.5506         estimate D2E/DX2                !
 ! A16   A(11,5,12)            101.3821         estimate D2E/DX2                !
 ! D1    D(6,1,2,3)              0.6344         estimate D2E/DX2                !
 ! D2    D(6,1,2,4)           -179.0898         estimate D2E/DX2                !
 ! D3    D(7,1,2,3)           -119.3473         estimate D2E/DX2                !
 ! D4    D(7,1,2,4)             60.9285         estimate D2E/DX2                !
 ! D5    D(8,1,2,3)            120.0165         estimate D2E/DX2                !
 ! D6    D(8,1,2,4)            -59.7076         estimate D2E/DX2                !
 ! D7    D(1,2,3,9)             -0.3583         estimate D2E/DX2                !
 ! D8    D(4,2,3,9)            179.3803         estimate D2E/DX2                !
 ! D9    D(1,2,4,5)             -4.6751         estimate D2E/DX2                !
 ! D10   D(1,2,4,10)          -178.7475         estimate D2E/DX2                !
 ! D11   D(3,2,4,5)            175.6006         estimate D2E/DX2                !
 ! D12   D(3,2,4,10)             1.5282         estimate D2E/DX2                !
 ! D13   D(2,4,5,11)            33.1104         estimate D2E/DX2                !
 ! D14   D(2,4,5,12)           160.405          estimate D2E/DX2                !
 ! D15   D(10,4,5,11)         -152.691          estimate D2E/DX2                !
 ! D16   D(10,4,5,12)          -25.3965         estimate D2E/DX2                !
 --------------------------------------------------------------------------------
 Trust Radius=3.00D-01 FncErr=1.00D-07 GrdErr=1.00D-06
 Number of steps in this run=     53 maximum allowed number of steps=    100.
 GradGradGradGradGradGradGradGradGradGradGradGradGradGradGradGradGradGrad

 Leave Link  103 at Tue Aug 30 09:24:53 2022, MaxMem= 24159191040 cpu:         0.4
 (Enter /public/home/users/caep010/software/Gaussian09/g09/l202.exe)
                          Input orientation:                          
 ---------------------------------------------------------------------
 Center     Atomic      Atomic             Coordinates (Angstroms)
 Number     Number       Type             X           Y           Z
 ---------------------------------------------------------------------
      1          6           0        0.773322   -0.951504   -0.541043
      2          6           0        0.498722    0.451059   -0.062533
      3          8           0        1.505198    1.401770   -0.193001
      4          6           0       -0.666136    0.829813    0.488596
      5          7           0       -1.770752    0.010784    0.595520
      6          1           0        1.786645   -1.048763   -0.940989
      7          1           0        0.083076   -1.267247   -1.342106
      8          1           0        0.684550   -1.682055    0.265009
      9          1           0        2.269406    0.979902   -0.590593
     10          1           0       -0.793856    1.857870    0.788120
     11          1           0       -1.763734   -0.956780    0.732751
     12          1           0       -2.606441    0.375049    1.450269
 ---------------------------------------------------------------------
                    Distance matrix (angstroms):
                    1          2          3          4          5
     1  C    0.000000
     2  C    1.507170   0.000000
     3  O    2.488910   1.390636   0.000000
     4  C    2.511033   1.343165   2.346572   0.000000
     5  N    2.947895   2.403620   3.645333   1.379282   0.000000
     6  H    1.093727   2.163307   2.577559   3.404247   4.017284
     7  H    1.103556   2.182348   3.235201   2.882785   2.970595
     8  H    1.091469   2.166100   3.223851   2.860738   3.000575
     9  H    2.443574   1.921938   0.959201   3.131227   4.320756
    10  H    3.480704   2.091288   2.540920   1.078391   2.098368
    11  H    2.838879   2.780862   4.135903   2.110983   0.977273
    12  H    4.140998   3.454907   4.545335   2.212783   1.249664
                    6          7          8          9         10
     6  H    0.000000
     7  H    1.763740   0.000000
     8  H    1.752171   1.765405   0.000000
     9  H    2.114549   3.224049   3.214007   0.000000
    10  H    4.254094   3.882426   3.871744   3.472067   0.000000
    11  H    3.926201   2.795019   2.595939   4.665640   2.977580
    12  H    5.200438   4.210463   4.057972   5.320230   2.433652
                   11         12
    11  H    0.000000
    12  H    1.731692   0.000000
 Stoichiometry    C3H7NO
 Framework group  C1[X(C3H7NO)]
 Deg. of freedom    30
 Full point group                 C1      NOp   1
 Largest Abelian subgroup         C1      NOp   1
 Largest concise Abelian subgroup C1      NOp   1
                         Standard orientation:                         
 ---------------------------------------------------------------------
 Center     Atomic      Atomic             Coordinates (Angstroms)
 Number     Number       Type             X           Y           Z
 ---------------------------------------------------------------------
      1          6           0       -0.687716    1.382579    0.000817
      2          6           0       -0.458548   -0.107065    0.001477
      3          8           0       -1.568031   -0.945437    0.008512
      4          6           0        0.762031   -0.667669    0.001020
      5          7           0        1.938292    0.046424   -0.093317
      6          1           0       -1.754020    1.625387    0.017507
      7          1           0       -0.262872    1.874909   -0.890785
      8          1           0       -0.244423    1.863719    0.874488
      9          1           0       -2.357786   -0.401133    0.017763
     10          1           0        0.844406   -1.742722   -0.019060
     11          1           0        2.103997    0.940289    0.265305
     12          1           0        2.952299   -0.568993    0.300016
 ---------------------------------------------------------------------
 Rotational constants (GHZ):      8.6608066      3.8303405      2.7080735
 Leave Link  202 at Tue Aug 30 09:24:53 2022, MaxMem= 24159191040 cpu:         0.4
 (Enter /public/home/users/caep010/software/Gaussian09/g09/l301.exe)
 Standard basis: GTBas3 (6D, 7F)
 Ernie: Thresh=  0.10000D-02 Tol=  0.10000D-05 Strict=F.
 There are   190 symmetry adapted cartesian basis functions of A   symmetry.
 There are   175 symmetry adapted basis functions of A   symmetry.
   175 basis functions,   269 primitive gaussians,   190 cartesian basis functions
    20 alpha electrons       20 beta electrons
       nuclear repulsion energy       176.0899579339 Hartrees.
 IExCor=  402 DFT=T Ex+Corr=B3LYP ExCW=0 ScaHFX=  0.200000
 ScaDFX=  0.800000  0.720000  1.000000  0.810000 ScalE2=  1.000000  1.000000
 IRadAn=      0 IRanWt=     -1 IRanGd=            0 ICorTp=0 IEmpDi=  4
 NAtoms=   12 NActive=   12 NUniq=   12 SFac= 1.00D+00 NAtFMM=   60 NAOKFM=F Big=F
 Integral buffers will be    131072 words long.
 Raffenetti 2 integral format.
 Two-electron integral symmetry is turned on.
 Leave Link  301 at Tue Aug 30 09:24:54 2022, MaxMem= 24159191040 cpu:         2.7
 (Enter /public/home/users/caep010/software/Gaussian09/g09/l302.exe)
 NPDir=0 NMtPBC=     1 NCelOv=     1 NCel=       1 NClECP=     1 NCelD=      1
         NCelK=      1 NCelE2=     1 NClLst=     1 CellRange=     0.0.
 One-electron integrals computed using PRISM.
 NBasis=   175 RedAO= T EigKep=  4.38D-04  NBF=   175
 NBsUse=   175 1.00D-06 EigRej= -1.00D+00 NBFU=   175
 Precomputing XC quadrature grid using
 IXCGrd= 4 IRadAn=           0 IRanWt=          -1 IRanGd=           0 AccXCQ= 0.00D+00.
 Generated NRdTot=       0 NPtTot=           0 NUsed=           0 NTot=          32
 NSgBfM=   190   190   190   190   190 MxSgAt=    12 MxSgA2=    12.
 Leave Link  302 at Tue Aug 30 09:24:54 2022, MaxMem= 24159191040 cpu:        14.3
 (Enter /public/home/users/caep010/software/Gaussian09/g09/l303.exe)
 DipDrv:  MaxL=1.
 Leave Link  303 at Tue Aug 30 09:24:54 2022, MaxMem= 24159191040 cpu:         1.0
 (Enter /public/home/users/caep010/software/Gaussian09/g09/l401.exe)
 ExpMin= 1.61D-01 ExpMax= 5.48D+03 ExpMxC= 8.25D+02 IAcc=1 IRadAn=         1 AccDes= 0.00D+00
 Harris functional with IExCor=  402 and IRadAn=       1 diagonalized for initial guess.
 HarFok:  IExCor=  402 AccDes= 0.00D+00 IRadAn=         1 IDoV= 1 UseB2=F ITyADJ=14
 ICtDFT=  3500011 ScaDFX=  1.000000  1.000000  1.000000  1.000000
 FoFCou: FMM=F IPFlag=           0 FMFlag=      100000 FMFlg1=           0
         NFxFlg=           0 DoJE=T BraDBF=F KetDBF=T FulRan=T
         wScrn=  0.000000 ICntrl=     500 IOpCl=  0 I1Cent=   200000004 NGrid=           0
         NMat0=    1 NMatS0=      1 NMatT0=    0 NMatD0=    1 NMtDS0=    0 NMtDT0=    0
 Petite list used in FoFCou.
 Harris En= -248.504480063525    
 JPrj=0 DoOrth=F DoCkMO=F.
 Leave Link  401 at Tue Aug 30 09:24:55 2022, MaxMem= 24159191040 cpu:        15.1
 (Enter /public/home/users/caep010/software/Gaussian09/g09/l502.exe)
 Closed shell SCF:
 Using DIIS extrapolation, IDIIS=  1040.
 Integral symmetry usage will be decided dynamically.
 Keep R1 ints in memory in canonical form, NReq=122205860.
 IVT=      134320 IEndB=      134320 NGot= 24159191040 MDV= 24040469021
 LenX= 24040469021 LenY= 24040432480
 Requested convergence on RMS density matrix=1.00D-08 within 128 cycles.
 Requested convergence on MAX density matrix=1.00D-06.
 Requested convergence on             energy=1.00D-06.
 No special actions if energy rises.
 FoFCou: FMM=F IPFlag=           0 FMFlag=           0 FMFlg1=           0
         NFxFlg=           0 DoJE=F BraDBF=F KetDBF=F FulRan=T
         wScrn=  0.000000 ICntrl=     600 IOpCl=  0 I1Cent=           0 NGrid=           0
         NMat0=    1 NMatS0=  15400 NMatT0=    0 NMatD0=    1 NMtDS0=    0 NMtDT0=    0
 Symmetry not used in FoFCou.
 Integral accuracy reduced to 1.0D-05 until final iterations.

 Cycle   1  Pass 0  IDiag  1:
 E= -248.277116545214    
 DIIS: error= 2.10D-02 at cycle   1 NSaved=   1.
 NSaved= 1 IEnMin= 1 EnMin= -248.277116545214     IErMin= 1 ErrMin= 2.10D-02
 ErrMax= 2.10D-02  0.00D+00 EMaxC= 1.00D-01 BMatC= 1.91D-01 BMatP= 1.91D-01
 IDIUse=3 WtCom= 7.90D-01 WtEn= 2.10D-01
 Coeff-Com:  0.100D+01
 Coeff-En:   0.100D+01
 Coeff:      0.100D+01
 Gap=     0.210 Goal=   None    Shift=    0.000
 GapD=    0.210 DampG=1.000 DampE=0.500 DampFc=0.5000 IDamp=-1.
 Damping current iteration by 5.00D-01
 RMSDP=5.71D-03 MaxDP=1.49D-01              OVMax= 1.86D-01

 Cycle   2  Pass 0  IDiag  1:
 E= -248.352851630380     Delta-E=       -0.075735085166 Rises=F Damp=T
 DIIS: error= 9.07D-03 at cycle   2 NSaved=   2.
 NSaved= 2 IEnMin= 2 EnMin= -248.352851630380     IErMin= 2 ErrMin= 9.07D-03
 ErrMax= 9.07D-03  0.00D+00 EMaxC= 1.00D-01 BMatC= 1.13D-02 BMatP= 1.91D-01
 IDIUse=3 WtCom= 9.09D-01 WtEn= 9.07D-02
 Coeff-Com:  0.110D+00 0.890D+00
 Coeff-En:   0.186D+00 0.814D+00
 Coeff:      0.117D+00 0.883D+00
 Gap=     0.181 Goal=   None    Shift=    0.000
 RMSDP=1.10D-03 MaxDP=4.29D-02 DE=-7.57D-02 OVMax= 1.15D-01

 Cycle   3  Pass 0  IDiag  1:
 E= -248.456772973966     Delta-E=       -0.103921343587 Rises=F Damp=F
 DIIS: error= 3.36D-03 at cycle   3 NSaved=   3.
 NSaved= 3 IEnMin= 3 EnMin= -248.456772973966     IErMin= 3 ErrMin= 3.36D-03
 ErrMax= 3.36D-03  0.00D+00 EMaxC= 1.00D-01 BMatC= 3.81D-03 BMatP= 1.13D-02
 IDIUse=3 WtCom= 9.66D-01 WtEn= 3.36D-02
 Coeff-Com:  0.158D-01 0.342D+00 0.642D+00
 Coeff-En:   0.000D+00 0.000D+00 0.100D+01
 Coeff:      0.152D-01 0.331D+00 0.654D+00
 Gap=     0.197 Goal=   None    Shift=    0.000
 RMSDP=5.00D-04 MaxDP=2.02D-02 DE=-1.04D-01 OVMax= 3.65D-02

 Cycle   4  Pass 0  IDiag  1:
 E= -248.458489591711     Delta-E=       -0.001716617745 Rises=F Damp=F
 DIIS: error= 2.45D-03 at cycle   4 NSaved=   4.
 NSaved= 4 IEnMin= 4 EnMin= -248.458489591711     IErMin= 4 ErrMin= 2.45D-03
 ErrMax= 2.45D-03  0.00D+00 EMaxC= 1.00D-01 BMatC= 1.80D-03 BMatP= 3.81D-03
 IDIUse=3 WtCom= 9.75D-01 WtEn= 2.45D-02
 Coeff-Com: -0.267D-02 0.779D-01 0.412D+00 0.513D+00
 Coeff-En:   0.000D+00 0.000D+00 0.356D+00 0.644D+00
 Coeff:     -0.261D-02 0.760D-01 0.411D+00 0.516D+00
 Gap=     0.191 Goal=   None    Shift=    0.000
 RMSDP=2.71D-04 MaxDP=1.14D-02 DE=-1.72D-03 OVMax= 2.47D-02

 Cycle   5  Pass 0  IDiag  1:
 E= -248.460101595830     Delta-E=       -0.001612004119 Rises=F Damp=F
 DIIS: error= 5.84D-04 at cycle   5 NSaved=   5.
 NSaved= 5 IEnMin= 5 EnMin= -248.460101595830     IErMin= 5 ErrMin= 5.84D-04
 ErrMax= 5.84D-04  0.00D+00 EMaxC= 1.00D-01 BMatC= 1.32D-04 BMatP= 1.80D-03
 IDIUse=3 WtCom= 9.94D-01 WtEn= 5.84D-03
 Coeff-Com: -0.229D-02 0.175D-01 0.185D+00 0.296D+00 0.504D+00
 Coeff-En:   0.000D+00 0.000D+00 0.000D+00 0.000D+00 0.100D+01
 Coeff:     -0.227D-02 0.174D-01 0.184D+00 0.295D+00 0.507D+00
 Gap=     0.192 Goal=   None    Shift=    0.000
 RMSDP=7.80D-05 MaxDP=3.61D-03 DE=-1.61D-03 OVMax= 7.62D-03

 Cycle   6  Pass 0  IDiag  1:
 E= -248.460218049840     Delta-E=       -0.000116454011 Rises=F Damp=F
 DIIS: error= 2.17D-04 at cycle   6 NSaved=   6.
 NSaved= 6 IEnMin= 6 EnMin= -248.460218049840     IErMin= 6 ErrMin= 2.17D-04
 ErrMax= 2.17D-04  0.00D+00 EMaxC= 1.00D-01 BMatC= 1.26D-05 BMatP= 1.32D-04
 IDIUse=3 WtCom= 9.98D-01 WtEn= 2.17D-03
 Coeff-Com: -0.835D-03 0.368D-03 0.544D-01 0.104D+00 0.289D+00 0.553D+00
 Coeff-En:   0.000D+00 0.000D+00 0.000D+00 0.000D+00 0.478D-01 0.952D+00
 Coeff:     -0.833D-03 0.367D-03 0.543D-01 0.104D+00 0.288D+00 0.554D+00
 Gap=     0.192 Goal=   None    Shift=    0.000
 RMSDP=1.79D-05 MaxDP=8.61D-04 DE=-1.16D-04 OVMax= 1.42D-03

 Cycle   7  Pass 0  IDiag  1:
 E= -248.460229407908     Delta-E=       -0.000011358067 Rises=F Damp=F
 DIIS: error= 2.27D-05 at cycle   7 NSaved=   7.
 NSaved= 7 IEnMin= 7 EnMin= -248.460229407908     IErMin= 7 ErrMin= 2.27D-05
 ErrMax= 2.27D-05  0.00D+00 EMaxC= 1.00D-01 BMatC= 1.46D-07 BMatP= 1.26D-05
 IDIUse=1 WtCom= 1.00D+00 WtEn= 0.00D+00
 Coeff-Com: -0.179D-03-0.591D-03 0.142D-01 0.293D-01 0.905D-01 0.195D+00
 Coeff-Com:  0.672D+00
 Coeff:     -0.179D-03-0.591D-03 0.142D-01 0.293D-01 0.905D-01 0.195D+00
 Coeff:      0.672D+00
 Gap=     0.192 Goal=   None    Shift=    0.000
 RMSDP=2.59D-06 MaxDP=8.10D-05 DE=-1.14D-05 OVMax= 1.20D-04

 Initial convergence to 1.0D-05 achieved.  Increase integral accuracy.
 Cycle   8  Pass 1  IDiag  1:
 E= -248.460261028316     Delta-E=       -0.000031620409 Rises=F Damp=F
 DIIS: error= 1.69D-05 at cycle   1 NSaved=   1.
 NSaved= 1 IEnMin= 1 EnMin= -248.460261028316     IErMin= 1 ErrMin= 1.69D-05
 ErrMax= 1.69D-05  0.00D+00 EMaxC= 1.00D-01 BMatC= 7.53D-08 BMatP= 7.53D-08
 IDIUse=1 WtCom= 1.00D+00 WtEn= 0.00D+00
 Coeff-Com:  0.100D+01
 Coeff:      0.100D+01
 Gap=     0.192 Goal=   None    Shift=    0.000
 RMSDP=2.59D-06 MaxDP=8.10D-05 DE=-3.16D-05 OVMax= 1.07D-04

 Cycle   9  Pass 1  IDiag  1:
 E= -248.460261027786     Delta-E=        0.000000000530 Rises=F Damp=F
 DIIS: error= 1.50D-05 at cycle   2 NSaved=   2.
 NSaved= 2 IEnMin= 1 EnMin= -248.460261028316     IErMin= 2 ErrMin= 1.50D-05
 ErrMax= 1.50D-05  0.00D+00 EMaxC= 1.00D-01 BMatC= 8.62D-08 BMatP= 7.53D-08
 IDIUse=1 WtCom= 1.00D+00 WtEn= 0.00D+00
 Coeff-Com:  0.520D+00 0.480D+00
 Coeff:      0.520D+00 0.480D+00
 Gap=     0.192 Goal=   None    Shift=    0.000
 RMSDP=1.52D-06 MaxDP=5.44D-05 DE= 5.30D-10 OVMax= 5.90D-05

 Cycle  10  Pass 1  IDiag  1:
 E= -248.460261094556     Delta-E=       -0.000000066770 Rises=F Damp=F
 DIIS: error= 3.27D-06 at cycle   3 NSaved=   3.
 NSaved= 3 IEnMin= 3 EnMin= -248.460261094556     IErMin= 3 ErrMin= 3.27D-06
 ErrMax= 3.27D-06  0.00D+00 EMaxC= 1.00D-01 BMatC= 4.92D-09 BMatP= 7.53D-08
 IDIUse=1 WtCom= 1.00D+00 WtEn= 0.00D+00
 Coeff-Com:  0.299D-02 0.186D+00 0.811D+00
 Coeff:      0.299D-02 0.186D+00 0.811D+00
 Gap=     0.192 Goal=   None    Shift=    0.000
 RMSDP=3.45D-07 MaxDP=1.61D-05 DE=-6.68D-08 OVMax= 1.46D-05

 Cycle  11  Pass 1  IDiag  1:
 E= -248.460261097614     Delta-E=       -0.000000003057 Rises=F Damp=F
 DIIS: error= 1.27D-06 at cycle   4 NSaved=   4.
 NSaved= 4 IEnMin= 4 EnMin= -248.460261097614     IErMin= 4 ErrMin= 1.27D-06
 ErrMax= 1.27D-06  0.00D+00 EMaxC= 1.00D-01 BMatC= 7.05D-10 BMatP= 4.92D-09
 IDIUse=1 WtCom= 1.00D+00 WtEn= 0.00D+00
 Coeff-Com: -0.152D-01 0.892D-01 0.456D+00 0.470D+00
 Coeff:     -0.152D-01 0.892D-01 0.456D+00 0.470D+00
 Gap=     0.192 Goal=   None    Shift=    0.000
 RMSDP=1.54D-07 MaxDP=6.44D-06 DE=-3.06D-09 OVMax= 7.67D-06

 Cycle  12  Pass 1  IDiag  1:
 E= -248.460261098224     Delta-E=       -0.000000000610 Rises=F Damp=F
 DIIS: error= 1.79D-07 at cycle   5 NSaved=   5.
 NSaved= 5 IEnMin= 5 EnMin= -248.460261098224     IErMin= 5 ErrMin= 1.79D-07
 ErrMax= 1.79D-07  0.00D+00 EMaxC= 1.00D-01 BMatC= 1.01D-11 BMatP= 7.05D-10
 IDIUse=1 WtCom= 1.00D+00 WtEn= 0.00D+00
 Coeff-Com: -0.657D-02 0.325D-01 0.168D+00 0.199D+00 0.607D+00
 Coeff:     -0.657D-02 0.325D-01 0.168D+00 0.199D+00 0.607D+00
 Gap=     0.192 Goal=   None    Shift=    0.000
 RMSDP=2.92D-08 MaxDP=1.39D-06 DE=-6.10D-10 OVMax= 2.83D-06

 Cycle  13  Pass 1  IDiag  1:
 E= -248.460261098229     Delta-E=       -0.000000000005 Rises=F Damp=F
 DIIS: error= 1.17D-07 at cycle   6 NSaved=   6.
 NSaved= 6 IEnMin= 6 EnMin= -248.460261098229     IErMin= 6 ErrMin= 1.17D-07
 ErrMax= 1.17D-07  0.00D+00 EMaxC= 1.00D-01 BMatC= 4.86D-12 BMatP= 1.01D-11
 IDIUse=1 WtCom= 1.00D+00 WtEn= 0.00D+00
 Coeff-Com: -0.159D-02 0.588D-02 0.309D-01 0.491D-01 0.416D+00 0.500D+00
 Coeff:     -0.159D-02 0.588D-02 0.309D-01 0.491D-01 0.416D+00 0.500D+00
 Gap=     0.192 Goal=   None    Shift=    0.000
 RMSDP=1.39D-08 MaxDP=6.10D-07 DE=-4.89D-12 OVMax= 1.37D-06

 Cycle  14  Pass 1  IDiag  1:
 E= -248.460261098234     Delta-E=       -0.000000000005 Rises=F Damp=F
 DIIS: error= 2.04D-08 at cycle   7 NSaved=   7.
 NSaved= 7 IEnMin= 7 EnMin= -248.460261098234     IErMin= 7 ErrMin= 2.04D-08
 ErrMax= 2.04D-08  0.00D+00 EMaxC= 1.00D-01 BMatC= 1.49D-13 BMatP= 4.86D-12
 IDIUse=1 WtCom= 1.00D+00 WtEn= 0.00D+00
 Coeff-Com:  0.492D-04-0.123D-02-0.562D-02-0.202D-02 0.940D-01 0.201D+00
 Coeff-Com:  0.714D+00
 Coeff:      0.492D-04-0.123D-02-0.562D-02-0.202D-02 0.940D-01 0.201D+00
 Coeff:      0.714D+00
 Gap=     0.192 Goal=   None    Shift=    0.000
 RMSDP=3.43D-09 MaxDP=1.44D-07 DE=-5.46D-12 OVMax= 2.63D-07

 SCF Done:  E(RB3LYP) =  -248.460261098     A.U. after   14 cycles
            NFock= 14  Conv=0.34D-08     -V/T= 2.0079
 KE= 2.465143804022D+02 PE=-9.322759279475D+02 EE= 2.612113285131D+02
 Leave Link  502 at Tue Aug 30 09:25:00 2022, MaxMem= 24159191040 cpu:        65.5
 (Enter /public/home/users/caep010/software/Gaussian09/g09/l601.exe)
 Copying SCF densities to generalized density rwf, IOpCl= 0 IROHF=0.

 **********************************************************************

            Population analysis using the SCF density.

 **********************************************************************

 Orbital symmetries:
       Occupied  (A) (A) (A) (A) (A) (A) (A) (A) (A) (A) (A) (A)
                 (A) (A) (A) (A) (A) (A) (A) (A)
       Virtual   (A) (A) (A) (A) (A) (A) (A) (A) (A) (A) (A) (A)
                 (A) (A) (A) (A) (A) (A) (A) (A) (A) (A) (A) (A)
                 (A) (A) (A) (A) (A) (A) (A) (A) (A) (A) (A) (A)
                 (A) (A) (A) (A) (A) (A) (A) (A) (A) (A) (A) (A)
                 (A) (A) (A) (A) (A) (A) (A) (A) (A) (A) (A) (A)
                 (A) (A) (A) (A) (A) (A) (A) (A) (A) (A) (A) (A)
                 (A) (A) (A) (A) (A) (A) (A) (A) (A) (A) (A) (A)
                 (A) (A) (A) (A) (A) (A) (A) (A) (A) (A) (A) (A)
                 (A) (A) (A) (A) (A) (A) (A) (A) (A) (A) (A) (A)
                 (A) (A) (A) (A) (A) (A) (A) (A) (A) (A) (A) (A)
                 (A) (A) (A) (A) (A) (A) (A) (A) (A) (A) (A) (A)
                 (A) (A) (A) (A) (A) (A) (A) (A) (A) (A) (A) (A)
                 (A) (A) (A) (A) (A) (A) (A) (A) (A) (A) (A)
 The electronic state is 1-A.
 Alpha  occ. eigenvalues --  -19.13954 -14.33365 -10.20707 -10.18531 -10.18329
 Alpha  occ. eigenvalues --   -1.02263  -0.88025  -0.74485  -0.67729  -0.56477
 Alpha  occ. eigenvalues --   -0.50231  -0.46952  -0.43527  -0.42069  -0.40340
 Alpha  occ. eigenvalues --   -0.36525  -0.34561  -0.32927  -0.30440  -0.15931
 Alpha virt. eigenvalues --    0.03295   0.06982   0.07784   0.11184   0.14591
 Alpha virt. eigenvalues --    0.15489   0.18383   0.20645   0.23416   0.28292
 Alpha virt. eigenvalues --    0.34731   0.37117   0.46427   0.49414   0.51506
 Alpha virt. eigenvalues --    0.51950   0.55329   0.56287   0.57072   0.62118
 Alpha virt. eigenvalues --    0.63924   0.64378   0.67149   0.68291   0.71314
 Alpha virt. eigenvalues --    0.73889   0.74947   0.77353   0.78125   0.78276
 Alpha virt. eigenvalues --    0.84200   0.86594   0.89116   0.89789   0.91931
 Alpha virt. eigenvalues --    0.92372   0.93790   0.99350   1.02036   1.03724
 Alpha virt. eigenvalues --    1.11718   1.16995   1.17361   1.26961   1.27925
 Alpha virt. eigenvalues --    1.35594   1.38339   1.41609   1.43540   1.47867
 Alpha virt. eigenvalues --    1.50646   1.51956   1.59113   1.62827   1.65881
 Alpha virt. eigenvalues --    1.75649   1.80645   1.83972   1.85070   1.90563
 Alpha virt. eigenvalues --    1.94303   1.95016   2.03880   2.12694   2.15749
 Alpha virt. eigenvalues --    2.20607   2.25945   2.29490   2.32219   2.37493
 Alpha virt. eigenvalues --    2.44521   2.48193   2.52636   2.60457   2.65500
 Alpha virt. eigenvalues --    2.69865   2.76777   2.79536   2.83039   2.86658
 Alpha virt. eigenvalues --    2.91977   2.92678   2.96191   2.98901   3.02726
 Alpha virt. eigenvalues --    3.05659   3.09292   3.09431   3.15880   3.18011
 Alpha virt. eigenvalues --    3.20058   3.25975   3.31255   3.32662   3.39009
 Alpha virt. eigenvalues --    3.46314   3.52210   3.55544   3.58809   3.61029
 Alpha virt. eigenvalues --    3.67459   3.75237   3.78536   3.86546   3.90641
 Alpha virt. eigenvalues --    3.92808   3.98266   4.10450   4.12407   4.16796
 Alpha virt. eigenvalues --    4.19148   4.25228   4.28588   4.32417   4.35354
 Alpha virt. eigenvalues --    4.36223   4.41896   4.44592   4.46104   4.49115
 Alpha virt. eigenvalues --    4.51542   4.54545   4.60184   4.62984   4.64650
 Alpha virt. eigenvalues --    4.66045   4.73414   4.76120   4.77314   4.81330
 Alpha virt. eigenvalues --    4.81982   4.86969   4.92075   5.00545   5.13396
 Alpha virt. eigenvalues --    5.22069   5.26135   5.34320   5.43818   5.48703
 Alpha virt. eigenvalues --    5.50513   5.56087   5.66459   5.71625   5.77295
 Alpha virt. eigenvalues --    5.85345   6.21983   6.30458   7.10592   9.46402
 Alpha virt. eigenvalues --   10.56629  11.37863  11.52605  12.23527  13.28238
          Condensed to atoms (all electrons):
               1          2          3          4          5          6
     1  C    5.180160   0.367918  -0.053194  -0.059366  -0.016318   0.356102
     2  C    0.367918   4.439994   0.395725   0.652945  -0.022220  -0.016372
     3  O   -0.053194   0.395725   7.810058  -0.025699   0.001276  -0.004316
     4  C   -0.059366   0.652945  -0.025699   4.827892   0.393047   0.003761
     5  N   -0.016318  -0.022220   0.001276   0.393047   6.563313   0.000346
     6  H    0.356102  -0.016372  -0.004316   0.003761   0.000346   0.598550
     7  H    0.366139  -0.022074   0.001610  -0.004815   0.004137  -0.027819
     8  H    0.357284  -0.014272   0.002168  -0.009100   0.002788  -0.028840
     9  H   -0.008604  -0.064384   0.320982   0.007298  -0.000109   0.008544
    10  H    0.008375  -0.018982  -0.003995   0.345562  -0.043947  -0.000187
    11  H    0.002992  -0.006868   0.000005  -0.042385   0.343703  -0.000107
    12  H   -0.000416   0.004089   0.000003  -0.042562   0.306086  -0.000002
               7          8          9         10         11         12
     1  C    0.366139   0.357284  -0.008604   0.008375   0.002992  -0.000416
     2  C   -0.022074  -0.014272  -0.064384  -0.018982  -0.006868   0.004089
     3  O    0.001610   0.002168   0.320982  -0.003995   0.000005   0.000003
     4  C   -0.004815  -0.009100   0.007298   0.345562  -0.042385  -0.042562
     5  N    0.004137   0.002788  -0.000109  -0.043947   0.343703   0.306086
     6  H   -0.027819  -0.028840   0.008544  -0.000187  -0.000107  -0.000002
     7  H    0.588959  -0.041480  -0.000000  -0.000080  -0.001532  -0.000120
     8  H   -0.041480   0.598732   0.000010  -0.000171   0.004548   0.000179
     9  H   -0.000000   0.000010   0.451882  -0.000447   0.000001   0.000004
    10  H   -0.000080  -0.000171  -0.000447   0.616708   0.004670  -0.010311
    11  H   -0.001532   0.004548   0.000001   0.004670   0.476823  -0.029092
    12  H   -0.000120   0.000179   0.000004  -0.010311  -0.029092   0.562717
 Mulliken charges:
               1
     1  C   -0.501072
     2  C    0.304502
     3  O   -0.444621
     4  C   -0.046577
     5  N   -0.532104
     6  H    0.110340
     7  H    0.137076
     8  H    0.128156
     9  H    0.284824
    10  H    0.102806
    11  H    0.247243
    12  H    0.209427
 Sum of Mulliken charges =  -0.00000
 Mulliken charges with hydrogens summed into heavy atoms:
               1
     1  C   -0.125500
     2  C    0.304502
     3  O   -0.159796
     4  C    0.056229
     5  N   -0.075434
 Electronic spatial extent (au):  <R**2>=            468.9128
 Charge=             -0.0000 electrons
 Dipole moment (field-independent basis, Debye):
    X=              0.3412    Y=              1.6954    Z=              0.9468  Tot=              1.9716
 Quadrupole moment (field-independent basis, Debye-Ang):
   XX=            -23.0412   YY=            -30.1959   ZZ=            -32.9335
   XY=             -2.5474   XZ=              2.6062   YZ=              0.2681
 Traceless Quadrupole moment (field-independent basis, Debye-Ang):
   XX=              5.6823   YY=             -1.4724   ZZ=             -4.2099
   XY=             -2.5474   XZ=              2.6062   YZ=              0.2681
 Octapole moment (field-independent basis, Debye-Ang**2):
  XXX=             -2.9840  YYY=             -2.4280  ZZZ=              0.5185  XYY=              6.3672
  XXY=              0.3977  XXZ=              7.1176  XZZ=             -2.7226  YZZ=              0.3632
  YYZ=              0.3773  XYZ=              0.4176
 Hexadecapole moment (field-independent basis, Debye-Ang**3):
 XXXX=           -261.6360 YYYY=           -192.2186 ZZZZ=            -38.7293 XXXY=             -1.5932
 XXXZ=             18.3629 YYYX=              3.8820 YYYZ=              0.3133 ZZZX=              1.5277
 ZZZY=              0.1712 XXYY=            -87.8095 XXZZ=            -71.2637 YYZZ=            -38.0066
 XXYZ=              0.3134 YYXZ=              1.4060 ZZXY=              2.5626
 N-N= 1.760899579339D+02 E-N=-9.322759307187D+02  KE= 2.465143804022D+02
 No NMR shielding tensors so no spin-rotation constants.
 Leave Link  601 at Tue Aug 30 09:25:01 2022, MaxMem= 24159191040 cpu:        13.0
 (Enter /public/home/users/caep010/software/Gaussian09/g09/l701.exe)
 Compute integral first derivatives.
 ... and contract with generalized density number  0.
 Leave Link  701 at Tue Aug 30 09:25:01 2022, MaxMem= 24159191040 cpu:        14.6
 (Enter /public/home/users/caep010/software/Gaussian09/g09/l702.exe)
 L702 exits ... SP integral derivatives will be done elsewhere.
 Leave Link  702 at Tue Aug 30 09:25:01 2022, MaxMem= 24159191040 cpu:         0.5
 (Enter /public/home/users/caep010/software/Gaussian09/g09/l703.exe)
 Compute integral first derivatives, UseDBF=F ICtDFT=           0.
 Integral derivatives from FoFJK, PRISM(SPDF).
 Calling FoFJK, ICntrl=      2127 FMM=F ISym2X=0 I1Cent= 0 IOpClX= 0 NMat=1 NMatS=1 NMatT=0.
 FoFJK:  IHMeth= 1 ICntrl=    2127 DoSepK=F KAlg= 0 I1Cent=   0 FoldK=F
 IRaf=         0 NMat=   1 IRICut=       1 DoRegI=T DoRafI=F ISym2E= 0.
 FoFCou: FMM=F IPFlag=           0 FMFlag=      100000 FMFlg1=         800
         NFxFlg=           0 DoJE=F BraDBF=F KetDBF=F FulRan=T
         wScrn=  0.000000 ICntrl=    2127 IOpCl=  0 I1Cent=           0 NGrid=           0
         NMat0=    1 NMatS0=      1 NMatT0=    0 NMatD0=    1 NMtDS0=    0 NMtDT0=    0
 Symmetry not used in FoFCou.
 Leave Link  703 at Tue Aug 30 09:25:02 2022, MaxMem= 24159191040 cpu:        33.9
 (Enter /public/home/users/caep010/software/Gaussian09/g09/l716.exe)
 Dipole        = 1.34254954D-01 6.67027591D-01 3.72514860D-01
 ***** Axes restored to original set *****
 -------------------------------------------------------------------
 Center     Atomic                   Forces (Hartrees/Bohr)
 Number     Number              X              Y              Z
 -------------------------------------------------------------------
      1        6          -0.002193434    0.002167071   -0.004629748
      2        6          -0.000609210    0.002128808    0.003604596
      3        8          -0.002781765   -0.001407606   -0.000270790
      4        6           0.023087205   -0.004872640   -0.002527489
      5        7          -0.105702500    0.055380493    0.062013890
      6        1           0.001230876    0.000263863   -0.000390449
      7        1           0.001641594    0.002033047    0.002968032
      8        1          -0.000781043   -0.002915855    0.003127128
      9        1           0.000049407   -0.000164576   -0.000245586
     10        1          -0.001838956    0.002559813    0.000786599
     11        1           0.018209821   -0.031558022    0.001576442
     12        1           0.069688005   -0.023614395   -0.066012625
 -------------------------------------------------------------------
 Cartesian Forces:  Max     0.105702500 RMS     0.028798218
 Leave Link  716 at Tue Aug 30 09:25:03 2022, MaxMem= 24159191040 cpu:         1.0
 (Enter /public/home/users/caep010/software/Gaussian09/g09/l103.exe)

 GradGradGradGradGradGradGradGradGradGradGradGradGradGradGradGradGradGrad
 Berny optimization.
 FormGI is forming the generalized inverse of G from B-inverse, IUseBI=4.
 Internal  Forces:  Max     0.098636826 RMS     0.016601892
 Search for a local minimum.
 Step number   1 out of a maximum of   53
 All quantities printed in internal units (Hartrees-Bohrs-Radians)
 RMS Force = .16602D-01 SwitMx=.10000D-02 MixMth= 1
 Mixed Optimization -- RFO/linear search
 Second derivative matrix not updated -- first step.
 ITU=  0
     Eigenvalues ---    0.00671   0.01580   0.01816   0.01966   0.02431
     Eigenvalues ---    0.02841   0.04047   0.06919   0.07045   0.15960
     Eigenvalues ---    0.16000   0.16000   0.16000   0.16000   0.16000
     Eigenvalues ---    0.16000   0.21368   0.22013   0.25000   0.25000
     Eigenvalues ---    0.31637   0.33292   0.34385   0.34643   0.36189
     Eigenvalues ---    0.47208   0.49234   0.51918   0.55646   0.56502
 RFO step:  Lambda=-4.45357062D-02 EMin= 6.71108490D-03
 Linear search not attempted -- first point.
 Maximum step size (   0.300) exceeded in Quadratic search.
    -- Step size scaled by   0.728
 Iteration  1 RMS(Cart)=  0.03447445 RMS(Int)=  0.01232025
 Iteration  2 RMS(Cart)=  0.01154493 RMS(Int)=  0.00051632
 Iteration  3 RMS(Cart)=  0.00002178 RMS(Int)=  0.00051596
 Iteration  4 RMS(Cart)=  0.00000003 RMS(Int)=  0.00051596
 ITry= 1 IFail=0 DXMaxC= 2.02D-01 DCOld= 1.00D+10 DXMaxT= 3.00D-01 DXLimC= 3.00D+00 Rises=F
 Variable       Old X    -DE/DX   Delta X   Delta X   Delta X     New X
                                 (Linear)    (Quad)   (Total)
    R1        2.84814  -0.00180   0.00000  -0.00363  -0.00363   2.84451
    R2        2.06685   0.00126   0.00000   0.00236   0.00236   2.06920
    R3        2.08542  -0.00376   0.00000  -0.00725  -0.00725   2.07817
    R4        2.06258   0.00432   0.00000   0.00805   0.00805   2.07063
    R5        2.62792  -0.00300   0.00000  -0.00423  -0.00423   2.62369
    R6        2.53821  -0.00529   0.00000  -0.00631  -0.00631   2.53190
    R7        1.81263   0.00021   0.00000   0.00026   0.00026   1.81289
    R8        2.60646   0.01395   0.00000   0.01890   0.01890   2.62536
    R9        2.03786   0.00288   0.00000   0.00515   0.00515   2.04302
   R10        1.84678   0.03160   0.00000   0.04078   0.04078   1.88756
   R11        2.36152  -0.09864   0.00000  -0.27793  -0.27793   2.08359
    A1        1.94728  -0.00010   0.00000   0.00008   0.00008   1.94736
    A2        1.96358  -0.00176   0.00000  -0.00685  -0.00686   1.95672
    A3        1.95367   0.00034   0.00000   0.00133   0.00133   1.95500
    A4        1.86357   0.00090   0.00000   0.00297   0.00296   1.86654
    A5        1.86072   0.00037   0.00000   0.00240   0.00240   1.86313
    A6        1.86889   0.00040   0.00000   0.00061   0.00061   1.86950
    A7        2.06525   0.00050   0.00000   0.00123   0.00123   2.06648
    A8        2.15399  -0.00035   0.00000  -0.00087  -0.00087   2.15312
    A9        2.06393  -0.00014   0.00000  -0.00034  -0.00034   2.06359
   A10        1.89108  -0.00023   0.00000  -0.00083  -0.00083   1.89025
   A11        2.16387   0.00306   0.00000   0.00846   0.00846   2.17233
   A12        2.07774   0.00004   0.00000   0.00145   0.00145   2.07919
   A13        2.03724  -0.00306   0.00000  -0.00961  -0.00961   2.02762
   A14        2.20563  -0.02314   0.00000  -0.08880  -0.09019   2.11544
   A15        1.99928  -0.00413   0.00000  -0.02197  -0.02349   1.97579
   A16        1.76945   0.01485   0.00000   0.04325   0.04102   1.81047
    D1        0.01107   0.00004   0.00000   0.00205   0.00205   0.01312
    D2       -3.12571  -0.00046   0.00000  -0.00393  -0.00393  -3.12964
    D3       -2.08300   0.00018   0.00000   0.00294   0.00294  -2.08006
    D4        1.06340  -0.00031   0.00000  -0.00304  -0.00304   1.06036
    D5        2.09468   0.00067   0.00000   0.00607   0.00607   2.10076
    D6       -1.04209   0.00018   0.00000   0.00009   0.00009  -1.04200
    D7       -0.00625  -0.00009   0.00000  -0.00116  -0.00117  -0.00742
    D8        3.13078   0.00038   0.00000   0.00450   0.00451   3.13528
    D9       -0.08160  -0.00006   0.00000   0.00020   0.00021  -0.08139
   D10       -3.11973  -0.00031   0.00000  -0.00283  -0.00284  -3.12257
   D11        3.06481  -0.00056   0.00000  -0.00578  -0.00577   3.05904
   D12        0.02667  -0.00080   0.00000  -0.00881  -0.00882   0.01786
   D13        0.57789   0.00197   0.00000   0.01375   0.01301   0.59089
   D14        2.79959  -0.00457   0.00000  -0.04227  -0.04152   2.75808
   D15       -2.66496   0.00237   0.00000   0.01729   0.01653  -2.64843
   D16       -0.44325  -0.00417   0.00000  -0.03873  -0.03799  -0.48124
         Item               Value     Threshold  Converged?
 Maximum Force            0.098637     0.000450     NO 
 RMS     Force            0.016602     0.000300     NO 
 Maximum Displacement     0.202451     0.001800     NO 
 RMS     Displacement     0.044069     0.001200     NO 
 Predicted change in Energy=-2.269434D-02
 Lowest energy point so far.  Saving SCF results.
 GradGradGradGradGradGradGradGradGradGradGradGradGradGradGradGradGradGrad

 Leave Link  103 at Tue Aug 30 09:25:03 2022, MaxMem= 24159191040 cpu:         3.8
 (Enter /public/home/users/caep010/software/Gaussian09/g09/l202.exe)
                          Input orientation:                          
 ---------------------------------------------------------------------
 Center     Atomic      Atomic             Coordinates (Angstroms)
 Number     Number       Type             X           Y           Z
 ---------------------------------------------------------------------
      1          6           0        0.756426   -0.949000   -0.534457
      2          6           0        0.486905    0.452360   -0.055575
      3          8           0        1.493770    1.399532   -0.184928
      4          6           0       -0.676355    0.834133    0.488673
      5          7           0       -1.798945    0.022478    0.594100
      6          1           0        1.771114   -1.050006   -0.933430
      7          1           0        0.065756   -1.253125   -1.334371
      8          1           0        0.659585   -1.684379    0.272054
      9          1           0        2.257116    0.975451   -0.582154
     10          1           0       -0.802051    1.863812    0.793262
     11          1           0       -1.714012   -0.961018    0.746507
     12          1           0       -2.499308    0.349661    1.380320
 ---------------------------------------------------------------------
                    Distance matrix (angstroms):
                    1          2          3          4          5
     1  C    0.000000
     2  C    1.505250   0.000000
     3  O    2.486252   1.388396   0.000000
     4  C    2.505837   1.339825   2.341550   0.000000
     5  N    2.957589   2.414950   3.653099   1.389283   0.000000
     6  H    1.094976   2.162620   2.576317   3.400362   4.028509
     7  H    1.099718   2.172870   3.224443   2.868948   2.970399
     8  H    1.095728   2.168597   3.227259   2.859119   3.010223
     9  H    2.440872   1.919520   0.959338   3.126003   4.329360
    10  H    3.479023   2.091442   2.538347   1.081117   2.103325
    11  H    2.782819   2.735875   4.090188   2.089445   0.998853
    12  H    3.994083   3.315088   4.415530   2.086362   1.102588
                    6          7          8          9         10
     6  H    0.000000
     7  H    1.763592   0.000000
     8  H    1.758156   1.766130   0.000000
     9  H    2.112361   3.214723   3.218147   0.000000
    10  H    4.253585   3.872365   3.872687   3.469792   0.000000
    11  H    3.869911   2.753716   2.526326   4.613579   2.968759
    12  H    5.054603   4.064237   3.917165   5.183289   2.349037
                   11         12
    11  H    0.000000
    12  H    1.654173   0.000000
 Stoichiometry    C3H7NO
 Framework group  C1[X(C3H7NO)]
 Deg. of freedom    30
 Full point group                 C1      NOp   1
 RotChk:  IX=2 Diff= 7.57D-03
 Largest Abelian subgroup         C1      NOp   1
 Largest concise Abelian subgroup C1      NOp   1
                         Standard orientation:                         
 ---------------------------------------------------------------------
 Center     Atomic      Atomic             Coordinates (Angstroms)
 Number     Number       Type             X           Y           Z
 ---------------------------------------------------------------------
      1          6           0       -0.677302    1.383091   -0.002895
      2          6           0       -0.456713   -0.105895    0.003322
      3          8           0       -1.568049   -0.938090    0.008742
      4          6           0        0.758189   -0.670821    0.002590
      5          7           0        1.952183    0.032431   -0.097016
      6          1           0       -1.743463    1.632247    0.011048
      7          1           0       -0.248011    1.861437   -0.895237
      8          1           0       -0.228141    1.868467    0.870767
      9          1           0       -2.355117   -0.389618    0.014321
     10          1           0        0.837219   -1.748964   -0.010653
     11          1           0        2.052801    0.940994    0.305596
     12          1           0        2.818781   -0.525109    0.295230
 ---------------------------------------------------------------------
 Rotational constants (GHZ):      8.6865086      3.8465159      2.7195454
 Leave Link  202 at Tue Aug 30 09:25:03 2022, MaxMem= 24159191040 cpu:         0.3
 (Enter /public/home/users/caep010/software/Gaussian09/g09/l301.exe)
 Standard basis: GTBas3 (6D, 7F)
 Ernie: Thresh=  0.10000D-02 Tol=  0.10000D-05 Strict=F.
 There are   190 symmetry adapted cartesian basis functions of A   symmetry.
 There are   175 symmetry adapted basis functions of A   symmetry.
   175 basis functions,   269 primitive gaussians,   190 cartesian basis functions
    20 alpha electrons       20 beta electrons
       nuclear repulsion energy       176.6296030997 Hartrees.
 IExCor=  402 DFT=T Ex+Corr=B3LYP ExCW=0 ScaHFX=  0.200000
 ScaDFX=  0.800000  0.720000  1.000000  0.810000 ScalE2=  1.000000  1.000000
 IRadAn=      0 IRanWt=     -1 IRanGd=            0 ICorTp=0 IEmpDi=  4
 NAtoms=   12 NActive=   12 NUniq=   12 SFac= 1.00D+00 NAtFMM=   60 NAOKFM=F Big=F
 Integral buffers will be    131072 words long.
 Raffenetti 2 integral format.
 Two-electron integral symmetry is turned on.
 Leave Link  301 at Tue Aug 30 09:25:03 2022, MaxMem= 24159191040 cpu:         1.6
 (Enter /public/home/users/caep010/software/Gaussian09/g09/l302.exe)
 NPDir=0 NMtPBC=     1 NCelOv=     1 NCel=       1 NClECP=     1 NCelD=      1
         NCelK=      1 NCelE2=     1 NClLst=     1 CellRange=     0.0.
 One-electron integrals computed using PRISM.
 NBasis=   175 RedAO= T EigKep=  4.34D-04  NBF=   175
 NBsUse=   175 1.00D-06 EigRej= -1.00D+00 NBFU=   175
 Precomputing XC quadrature grid using
 IXCGrd= 4 IRadAn=           0 IRanWt=          -1 IRanGd=           0 AccXCQ= 0.00D+00.
 Generated NRdTot=       0 NPtTot=           0 NUsed=           0 NTot=          32
 NSgBfM=   190   190   190   190   190 MxSgAt=    12 MxSgA2=    12.
 Leave Link  302 at Tue Aug 30 09:25:04 2022, MaxMem= 24159191040 cpu:        14.7
 (Enter /public/home/users/caep010/software/Gaussian09/g09/l303.exe)
 DipDrv:  MaxL=1.
 Leave Link  303 at Tue Aug 30 09:25:04 2022, MaxMem= 24159191040 cpu:         0.7
 (Enter /public/home/users/caep010/software/Gaussian09/g09/l401.exe)
 Initial guess from the checkpoint file:  "G4.Frag_474.chk"
 B after Tr=     0.000000    0.000000    0.000000
         Rot=    0.999997    0.001067    0.000805    0.001947 Ang=   0.27 deg.
 Guess basis will be translated and rotated to current coordinates.
 JPrj=2 DoOrth=T DoCkMO=T.
 Generating alternative initial guess.
 ExpMin= 1.61D-01 ExpMax= 5.48D+03 ExpMxC= 8.25D+02 IAcc=1 IRadAn=         1 AccDes= 0.00D+00
 Harris functional with IExCor=  402 and IRadAn=       1 diagonalized for initial guess.
 HarFok:  IExCor=  402 AccDes= 0.00D+00 IRadAn=         1 IDoV= 1 UseB2=F ITyADJ=14
 ICtDFT=  3500011 ScaDFX=  1.000000  1.000000  1.000000  1.000000
 FoFCou: FMM=F IPFlag=           0 FMFlag=      100000 FMFlg1=           0
         NFxFlg=           0 DoJE=T BraDBF=F KetDBF=T FulRan=T
         wScrn=  0.000000 ICntrl=     500 IOpCl=  0 I1Cent=   200000004 NGrid=           0
         NMat0=    1 NMatS0=      1 NMatT0=    0 NMatD0=    1 NMtDS0=    0 NMtDT0=    0
 Petite list used in FoFCou.
 Harris En= -248.530398676374    
 Leave Link  401 at Tue Aug 30 09:25:04 2022, MaxMem= 24159191040 cpu:        15.3
 (Enter /public/home/users/caep010/software/Gaussian09/g09/l502.exe)
 Closed shell SCF:
 Using DIIS extrapolation, IDIIS=  1040.
 Integral symmetry usage will be decided dynamically.
 Keep R1 ints in memory in canonical form, NReq=122205860.
 IVT=      134320 IEndB=      134320 NGot= 24159191040 MDV= 24040469021
 LenX= 24040469021 LenY= 24040432480
 Requested convergence on RMS density matrix=1.00D-08 within 128 cycles.
 Requested convergence on MAX density matrix=1.00D-06.
 Requested convergence on             energy=1.00D-06.
 No special actions if energy rises.
 FoFCou: FMM=F IPFlag=           0 FMFlag=           0 FMFlg1=           0
         NFxFlg=           0 DoJE=F BraDBF=F KetDBF=F FulRan=T
         wScrn=  0.000000 ICntrl=     600 IOpCl=  0 I1Cent=           0 NGrid=           0
         NMat0=    1 NMatS0=  15400 NMatT0=    0 NMatD0=    1 NMtDS0=    0 NMtDT0=    0
 Symmetry not used in FoFCou.
 Integral accuracy reduced to 1.0D-05 until final iterations.

 Cycle   1  Pass 0  IDiag  1:
 E= -248.482823464616    
 DIIS: error= 3.03D-03 at cycle   1 NSaved=   1.
 NSaved= 1 IEnMin= 1 EnMin= -248.482823464616     IErMin= 1 ErrMin= 3.03D-03
 ErrMax= 3.03D-03  0.00D+00 EMaxC= 1.00D-01 BMatC= 3.63D-03 BMatP= 3.63D-03
 IDIUse=3 WtCom= 9.70D-01 WtEn= 3.03D-02
 Coeff-Com:  0.100D+01
 Coeff-En:   0.100D+01
 Coeff:      0.100D+01
 Gap=     0.915 Goal=   None    Shift=    0.000
 GapD=    0.915 DampG=2.000 DampE=1.000 DampFc=2.0000 IDamp=-1.
 RMSDP=4.63D-04 MaxDP=2.15D-02              OVMax= 2.10D-02

 Cycle   2  Pass 0  IDiag  1:
 E= -248.486631373507     Delta-E=       -0.003807908891 Rises=F Damp=F
 DIIS: error= 1.75D-03 at cycle   2 NSaved=   2.
 NSaved= 2 IEnMin= 2 EnMin= -248.486631373507     IErMin= 2 ErrMin= 1.75D-03
 ErrMax= 1.75D-03  0.00D+00 EMaxC= 1.00D-01 BMatC= 5.75D-04 BMatP= 3.63D-03
 IDIUse=3 WtCom= 9.83D-01 WtEn= 1.75D-02
 Coeff-Com:  0.180D+00 0.820D+00
 Coeff-En:   0.000D+00 0.100D+01
 Coeff:      0.177D+00 0.823D+00
 Gap=     0.224 Goal=   None    Shift=    0.000
 RMSDP=2.45D-04 MaxDP=1.28D-02 DE=-3.81D-03 OVMax= 1.64D-02

 Cycle   3  Pass 0  IDiag  1:
 E= -248.486506065347     Delta-E=        0.000125308160 Rises=F Damp=F
 DIIS: error= 1.87D-03 at cycle   3 NSaved=   3.
 NSaved= 3 IEnMin= 2 EnMin= -248.486631373507     IErMin= 2 ErrMin= 1.75D-03
 ErrMax= 1.87D-03  0.00D+00 EMaxC= 1.00D-01 BMatC= 6.94D-04 BMatP= 5.75D-04
 IDIUse=3 WtCom= 1.88D-01 WtEn= 8.12D-01
 Coeff-Com:  0.976D-02 0.522D+00 0.468D+00
 Coeff-En:   0.000D+00 0.549D+00 0.451D+00
 Coeff:      0.183D-02 0.544D+00 0.454D+00
 Gap=     0.224 Goal=   None    Shift=    0.000
 RMSDP=1.44D-04 MaxDP=6.52D-03 DE= 1.25D-04 OVMax= 1.21D-02

 Cycle   4  Pass 0  IDiag  1:
 E= -248.487101028720     Delta-E=       -0.000594963373 Rises=F Damp=F
 DIIS: error= 2.28D-04 at cycle   4 NSaved=   4.
 NSaved= 4 IEnMin= 4 EnMin= -248.487101028720     IErMin= 4 ErrMin= 2.28D-04
 ErrMax= 2.28D-04  0.00D+00 EMaxC= 1.00D-01 BMatC= 2.21D-05 BMatP= 5.75D-04
 IDIUse=3 WtCom= 9.98D-01 WtEn= 2.28D-03
 Coeff-Com: -0.641D-02 0.230D+00 0.225D+00 0.551D+00
 Coeff-En:   0.000D+00 0.000D+00 0.000D+00 0.100D+01
 Coeff:     -0.640D-02 0.230D+00 0.225D+00 0.552D+00
 Gap=     0.224 Goal=   None    Shift=    0.000
 RMSDP=3.46D-05 MaxDP=1.75D-03 DE=-5.95D-04 OVMax= 3.19D-03

 Cycle   5  Pass 0  IDiag  1:
 E= -248.487117749084     Delta-E=       -0.000016720364 Rises=F Damp=F
 DIIS: error= 1.03D-04 at cycle   5 NSaved=   5.
 NSaved= 5 IEnMin= 5 EnMin= -248.487117749084     IErMin= 5 ErrMin= 1.03D-04
 ErrMax= 1.03D-04  0.00D+00 EMaxC= 1.00D-01 BMatC= 4.56D-06 BMatP= 2.21D-05
 IDIUse=3 WtCom= 9.99D-01 WtEn= 1.03D-03
 Coeff-Com: -0.519D-02 0.582D-01 0.641D-01 0.331D+00 0.552D+00
 Coeff-En:   0.000D+00 0.000D+00 0.000D+00 0.184D+00 0.816D+00
 Coeff:     -0.519D-02 0.582D-01 0.640D-01 0.331D+00 0.552D+00
 Gap=     0.224 Goal=   None    Shift=    0.000
 RMSDP=1.24D-05 MaxDP=6.02D-04 DE=-1.67D-05 OVMax= 1.11D-03

 Cycle   6  Pass 0  IDiag  1:
 E= -248.487122045405     Delta-E=       -0.000004296321 Rises=F Damp=F
 DIIS: error= 1.71D-05 at cycle   6 NSaved=   6.
 NSaved= 6 IEnMin= 6 EnMin= -248.487122045405     IErMin= 6 ErrMin= 1.71D-05
 ErrMax= 1.71D-05  0.00D+00 EMaxC= 1.00D-01 BMatC= 6.91D-08 BMatP= 4.56D-06
 IDIUse=1 WtCom= 1.00D+00 WtEn= 0.00D+00
 Coeff-Com: -0.939D-03 0.364D-02 0.620D-02 0.687D-01 0.182D+00 0.740D+00
 Coeff:     -0.939D-03 0.364D-02 0.620D-02 0.687D-01 0.182D+00 0.740D+00
 Gap=     0.224 Goal=   None    Shift=    0.000
 RMSDP=1.89D-06 MaxDP=7.12D-05 DE=-4.30D-06 OVMax= 1.14D-04

 Initial convergence to 1.0D-05 achieved.  Increase integral accuracy.
 Cycle   7  Pass 1  IDiag  1:
 E= -248.487168357266     Delta-E=       -0.000046311861 Rises=F Damp=F
 DIIS: error= 1.72D-05 at cycle   1 NSaved=   1.
 NSaved= 1 IEnMin= 1 EnMin= -248.487168357266     IErMin= 1 ErrMin= 1.72D-05
 ErrMax= 1.72D-05  0.00D+00 EMaxC= 1.00D-01 BMatC= 4.63D-08 BMatP= 4.63D-08
 IDIUse=1 WtCom= 1.00D+00 WtEn= 0.00D+00
 Coeff-Com:  0.100D+01
 Coeff:      0.100D+01
 Gap=     0.224 Goal=   None    Shift=    0.000
 RMSDP=1.89D-06 MaxDP=7.12D-05 DE=-4.63D-05 OVMax= 6.86D-05

 Cycle   8  Pass 1  IDiag  1:
 E= -248.487168395444     Delta-E=       -0.000000038178 Rises=F Damp=F
 DIIS: error= 3.96D-06 at cycle   2 NSaved=   2.
 NSaved= 2 IEnMin= 2 EnMin= -248.487168395444     IErMin= 2 ErrMin= 3.96D-06
 ErrMax= 3.96D-06  0.00D+00 EMaxC= 1.00D-01 BMatC= 6.23D-09 BMatP= 4.63D-08
 IDIUse=1 WtCom= 1.00D+00 WtEn= 0.00D+00
 Coeff-Com:  0.149D+00 0.851D+00
 Coeff:      0.149D+00 0.851D+00
 Gap=     0.224 Goal=   None    Shift=    0.000
 RMSDP=7.80D-07 MaxDP=2.23D-05 DE=-3.82D-08 OVMax= 3.83D-05

 Cycle   9  Pass 1  IDiag  1:
 E= -248.487168395771     Delta-E=       -0.000000000327 Rises=F Damp=F
 DIIS: error= 3.86D-06 at cycle   3 NSaved=   3.
 NSaved= 3 IEnMin= 3 EnMin= -248.487168395771     IErMin= 3 ErrMin= 3.86D-06
 ErrMax= 3.86D-06  0.00D+00 EMaxC= 1.00D-01 BMatC= 6.28D-09 BMatP= 6.23D-09
 IDIUse=1 WtCom= 1.00D+00 WtEn= 0.00D+00
 Coeff-Com: -0.176D-01 0.505D+00 0.512D+00
 Coeff:     -0.176D-01 0.505D+00 0.512D+00
 Gap=     0.224 Goal=   None    Shift=    0.000
 RMSDP=3.72D-07 MaxDP=1.23D-05 DE=-3.27D-10 OVMax= 1.97D-05

 Cycle  10  Pass 1  IDiag  1:
 E= -248.487168401121     Delta-E=       -0.000000005350 Rises=F Damp=F
 DIIS: error= 5.68D-07 at cycle   4 NSaved=   4.
 NSaved= 4 IEnMin= 4 EnMin= -248.487168401121     IErMin= 4 ErrMin= 5.68D-07
 ErrMax= 5.68D-07  0.00D+00 EMaxC= 1.00D-01 BMatC= 1.53D-10 BMatP= 6.23D-09
 IDIUse=1 WtCom= 1.00D+00 WtEn= 0.00D+00
 Coeff-Com: -0.129D-01 0.246D+00 0.269D+00 0.498D+00
 Coeff:     -0.129D-01 0.246D+00 0.269D+00 0.498D+00
 Gap=     0.224 Goal=   None    Shift=    0.000
 RMSDP=7.11D-08 MaxDP=2.95D-06 DE=-5.35D-09 OVMax= 4.16D-06

 Cycle  11  Pass 1  IDiag  1:
 E= -248.487168401234     Delta-E=       -0.000000000112 Rises=F Damp=F
 DIIS: error= 1.25D-07 at cycle   5 NSaved=   5.
 NSaved= 5 IEnMin= 5 EnMin= -248.487168401234     IErMin= 5 ErrMin= 1.25D-07
 ErrMax= 1.25D-07  0.00D+00 EMaxC= 1.00D-01 BMatC= 8.78D-12 BMatP= 1.53D-10
 IDIUse=1 WtCom= 1.00D+00 WtEn= 0.00D+00
 Coeff-Com: -0.442D-02 0.682D-01 0.775D-01 0.234D+00 0.625D+00
 Coeff:     -0.442D-02 0.682D-01 0.775D-01 0.234D+00 0.625D+00
 Gap=     0.224 Goal=   None    Shift=    0.000
 RMSDP=2.19D-08 MaxDP=9.61D-07 DE=-1.12D-10 OVMax= 1.83D-06

 Cycle  12  Pass 1  IDiag  1:
 E= -248.487168401229     Delta-E=        0.000000000005 Rises=F Damp=F
 DIIS: error= 8.33D-08 at cycle   6 NSaved=   6.
 NSaved= 6 IEnMin= 5 EnMin= -248.487168401234     IErMin= 6 ErrMin= 8.33D-08
 ErrMax= 8.33D-08  0.00D+00 EMaxC= 1.00D-01 BMatC= 1.79D-12 BMatP= 8.78D-12
 IDIUse=1 WtCom= 1.00D+00 WtEn= 0.00D+00
 Coeff-Com: -0.123D-02 0.154D-01 0.183D-01 0.839D-01 0.365D+00 0.519D+00
 Coeff:     -0.123D-02 0.154D-01 0.183D-01 0.839D-01 0.365D+00 0.519D+00
 Gap=     0.224 Goal=   None    Shift=    0.000
 RMSDP=9.17D-09 MaxDP=3.76D-07 DE= 4.55D-12 OVMax= 8.61D-07

 SCF Done:  E(RB3LYP) =  -248.487168401     A.U. after   12 cycles
            NFock= 12  Conv=0.92D-08     -V/T= 2.0076
 KE= 2.466151946232D+02 PE=-9.334402758567D+02 EE= 2.617083097325D+02
 Leave Link  502 at Tue Aug 30 09:25:08 2022, MaxMem= 24159191040 cpu:        61.7
 (Enter /public/home/users/caep010/software/Gaussian09/g09/l701.exe)
 Compute integral first derivatives.
 ... and contract with generalized density number  0.
 Leave Link  701 at Tue Aug 30 09:25:09 2022, MaxMem= 24159191040 cpu:        13.5
 (Enter /public/home/users/caep010/software/Gaussian09/g09/l702.exe)
 L702 exits ... SP integral derivatives will be done elsewhere.
 Leave Link  702 at Tue Aug 30 09:25:09 2022, MaxMem= 24159191040 cpu:         0.5
 (Enter /public/home/users/caep010/software/Gaussian09/g09/l703.exe)
 Compute integral first derivatives, UseDBF=F ICtDFT=           0.
 Integral derivatives from FoFJK, PRISM(SPDF).
 Calling FoFJK, ICntrl=      2127 FMM=F ISym2X=0 I1Cent= 0 IOpClX= 0 NMat=1 NMatS=1 NMatT=0.
 FoFJK:  IHMeth= 1 ICntrl=    2127 DoSepK=F KAlg= 0 I1Cent=   0 FoldK=F
 IRaf=         0 NMat=   1 IRICut=       1 DoRegI=T DoRafI=F ISym2E= 0.
 FoFCou: FMM=F IPFlag=           0 FMFlag=      100000 FMFlg1=         800
         NFxFlg=           0 DoJE=F BraDBF=F KetDBF=F FulRan=T
         wScrn=  0.000000 ICntrl=    2127 IOpCl=  0 I1Cent=           0 NGrid=           0
         NMat0=    1 NMatS0=      1 NMatT0=    0 NMatD0=    1 NMtDS0=    0 NMtDT0=    0
 Symmetry not used in FoFCou.
 Leave Link  703 at Tue Aug 30 09:25:10 2022, MaxMem= 24159191040 cpu:        30.6
 (Enter /public/home/users/caep010/software/Gaussian09/g09/l716.exe)
 Dipole        = 9.32141873D-02 6.58857883D-01 4.03720514D-01
 ***** Axes restored to original set *****
 -------------------------------------------------------------------
 Center     Atomic                   Forces (Hartrees/Bohr)
 Number     Number              X              Y              Z
 -------------------------------------------------------------------
      1        6          -0.000610879    0.000475794   -0.002296081
      2        6          -0.000964054    0.002585305    0.002619787
      3        8          -0.001255720   -0.001338636   -0.000185396
      4        6           0.017437725   -0.001768963   -0.002886113
      5        7          -0.066576967    0.022824489    0.043687995
      6        1           0.000434397    0.000044552    0.000018088
      7        1           0.000541747    0.000868206    0.001316026
      8        1          -0.000246186   -0.001121248    0.001074178
      9        1           0.000215149    0.000063488   -0.000006428
     10        1          -0.001116853    0.001416867    0.000322378
     11        1           0.013569065   -0.011319194   -0.001965361
     12        1           0.038572574   -0.012730659   -0.041699071
 -------------------------------------------------------------------
 Cartesian Forces:  Max     0.066576967 RMS     0.017412526
 Leave Link  716 at Tue Aug 30 09:25:10 2022, MaxMem= 24159191040 cpu:         0.4
 (Enter /public/home/users/caep010/software/Gaussian09/g09/l103.exe)

 GradGradGradGradGradGradGradGradGradGradGradGradGradGradGradGradGradGrad
 Berny optimization.
 Using GEDIIS/GDIIS optimizer.
 FormGI is forming the generalized inverse of G from B-inverse, IUseBI=4.
 Internal  Forces:  Max     0.058011922 RMS     0.009770194
 Search for a local minimum.
 Step number   2 out of a maximum of   53
 All quantities printed in internal units (Hartrees-Bohrs-Radians)
 RMS Force = .97702D-02 SwitMx=.10000D-02 MixMth= 1
 Mixed Optimization -- RFO/linear search
 Update second derivatives using D2CorX and points    1    2
 DE= -2.69D-02 DEPred=-2.27D-02 R= 1.19D+00
 TightC=F SS=  1.41D+00  RLast= 3.06D-01 DXNew= 5.0454D-01 9.1936D-01
 Trust test= 1.19D+00 RLast= 3.06D-01 DXMaxT set to 5.05D-01
 ITU=  1  0
 Use linear search instead of GDIIS.
     Eigenvalues ---    0.00671   0.01581   0.01816   0.01970   0.02432
     Eigenvalues ---    0.02842   0.04771   0.06963   0.07044   0.12689
     Eigenvalues ---    0.15964   0.16000   0.16000   0.16000   0.16000
     Eigenvalues ---    0.16014   0.17888   0.22012   0.25000   0.25009
     Eigenvalues ---    0.31648   0.33299   0.34388   0.34660   0.36186
     Eigenvalues ---    0.47201   0.48835   0.52672   0.55646   0.56479
 RFO step:  Lambda=-1.79486450D-03 EMin= 6.71120369D-03
 Quartic linear search produced a step of  0.69630.
 Iteration  1 RMS(Cart)=  0.03744742 RMS(Int)=  0.00369959
 Iteration  2 RMS(Cart)=  0.00364266 RMS(Int)=  0.00025707
 Iteration  3 RMS(Cart)=  0.00001894 RMS(Int)=  0.00025615
 Iteration  4 RMS(Cart)=  0.00000001 RMS(Int)=  0.00025615
 ITry= 1 IFail=0 DXMaxC= 1.67D-01 DCOld= 1.00D+10 DXMaxT= 5.05D-01 DXLimC= 3.00D+00 Rises=F
 Variable       Old X    -DE/DX   Delta X   Delta X   Delta X     New X
                                 (Linear)    (Quad)   (Total)
    R1        2.84451  -0.00026  -0.00253   0.00355   0.00102   2.84553
    R2        2.06920   0.00039   0.00164  -0.00120   0.00044   2.06964
    R3        2.07817  -0.00153  -0.00505   0.00190  -0.00315   2.07502
    R4        2.07063   0.00156   0.00560  -0.00298   0.00262   2.07325
    R5        2.62369  -0.00161  -0.00295  -0.00066  -0.00360   2.62009
    R6        2.53190  -0.00312  -0.00440  -0.00204  -0.00644   2.52547
    R7        1.81289   0.00015   0.00018   0.00015   0.00033   1.81322
    R8        2.62536   0.01238   0.01316   0.01997   0.03313   2.65849
    R9        2.04302   0.00157   0.00359   0.00064   0.00422   2.04724
   R10        1.88756   0.01200   0.02840  -0.00900   0.01939   1.90695
   R11        2.08359  -0.05801  -0.19353  -0.01885  -0.21237   1.87121
    A1        1.94736   0.00004   0.00005   0.00028   0.00034   1.94769
    A2        1.95672  -0.00089  -0.00477   0.00350  -0.00127   1.95545
    A3        1.95500   0.00025   0.00092  -0.00031   0.00062   1.95561
    A4        1.86654   0.00050   0.00206   0.00094   0.00301   1.86954
    A5        1.86313   0.00002   0.00167  -0.00511  -0.00344   1.85968
    A6        1.86950   0.00014   0.00043   0.00035   0.00078   1.87028
    A7        2.06648  -0.00016   0.00085  -0.00288  -0.00217   2.06430
    A8        2.15312  -0.00030  -0.00061  -0.00072  -0.00148   2.15164
    A9        2.06359   0.00046  -0.00024   0.00364   0.00325   2.06683
   A10        1.89025   0.00029  -0.00058   0.00453   0.00395   1.89420
   A11        2.17233   0.00203   0.00589   0.00245   0.00834   2.18067
   A12        2.07919  -0.00009   0.00101  -0.00153  -0.00053   2.07866
   A13        2.02762  -0.00190  -0.00669  -0.00069  -0.00739   2.02024
   A14        2.11544  -0.01707  -0.06280  -0.00282  -0.06634   2.04910
   A15        1.97579  -0.00192  -0.01636   0.03726   0.02016   1.99595
   A16        1.81047   0.01057   0.02856   0.06023   0.08771   1.89818
    D1        0.01312   0.00005   0.00143  -0.02527  -0.02381  -0.01069
    D2       -3.12964  -0.00014  -0.00274   0.01138   0.00862  -3.12102
    D3       -2.08006  -0.00000   0.00205  -0.02909  -0.02702  -2.10708
    D4        1.06036  -0.00019  -0.00212   0.00756   0.00541   1.06577
    D5        2.10076   0.00027   0.00423  -0.03181  -0.02756   2.07320
    D6       -1.04200   0.00008   0.00006   0.00484   0.00487  -1.03713
    D7       -0.00742  -0.00014  -0.00081  -0.00040  -0.00119  -0.00861
    D8        3.13528   0.00004   0.00314  -0.03513  -0.03201   3.10327
    D9       -0.08139   0.00033   0.00014   0.01126   0.01139  -0.07000
   D10       -3.12257  -0.00001  -0.00198   0.00843   0.00642  -3.11615
   D11        3.05904   0.00013  -0.00402   0.04785   0.04386   3.10290
   D12        0.01786  -0.00020  -0.00614   0.04502   0.03889   0.05675
   D13        0.59089   0.00019   0.00906  -0.01710  -0.00840   0.58250
   D14        2.75808  -0.00186  -0.02891   0.10835   0.07981   2.83789
   D15       -2.64843   0.00061   0.01151  -0.01440  -0.00326  -2.65168
   D16       -0.48124  -0.00144  -0.02645   0.11105   0.08495  -0.39629
         Item               Value     Threshold  Converged?
 Maximum Force            0.058012     0.000450     NO 
 RMS     Force            0.009770     0.000300     NO 
 Maximum Displacement     0.167251     0.001800     NO 
 RMS     Displacement     0.038501     0.001200     NO 
 Predicted change in Energy=-1.068335D-02
 Lowest energy point so far.  Saving SCF results.
 GradGradGradGradGradGradGradGradGradGradGradGradGradGradGradGradGradGrad

 Leave Link  103 at Tue Aug 30 09:25:10 2022, MaxMem= 24159191040 cpu:         1.1
 (Enter /public/home/users/caep010/software/Gaussian09/g09/l202.exe)
                          Input orientation:                          
 ---------------------------------------------------------------------
 Center     Atomic      Atomic             Coordinates (Angstroms)
 Number     Number       Type             X           Y           Z
 ---------------------------------------------------------------------
      1          6           0        0.742358   -0.944332   -0.541817
      2          6           0        0.476377    0.458524   -0.063638
      3          8           0        1.493713    1.394042   -0.174043
      4          6           0       -0.678220    0.837087    0.492790
      5          7           0       -1.812386    0.016619    0.632853
      6          1           0        1.755138   -1.047276   -0.945749
      7          1           0        0.045868   -1.248508   -1.334341
      8          1           0        0.652519   -1.679364    0.267702
      9          1           0        2.261549    0.965640   -0.558191
     10          1           0       -0.805294    1.870735    0.791247
     11          1           0       -1.656833   -0.967754    0.791373
     12          1           0       -2.474789    0.344484    1.291814
 ---------------------------------------------------------------------
                    Distance matrix (angstroms):
                    1          2          3          4          5
     1  C    0.000000
     2  C    1.505790   0.000000
     3  O    2.483502   1.386490   0.000000
     4  C    2.502380   1.336419   2.339264   0.000000
     5  N    2.971530   2.432861   3.671330   1.406812   0.000000
     6  H    1.095209   2.163512   2.573695   3.397271   4.043647
     7  H    1.098051   2.171171   3.228872   2.865731   2.987224
     8  H    1.097116   2.170571   3.216919   2.855531   3.014207
     9  H    2.440533   1.920569   0.959515   3.124631   4.349272
    10  H    3.478058   2.089940   2.538593   1.083352   2.115909
    11  H    2.744824   2.704791   4.054139   2.074678   1.009116
    12  H    3.920878   3.249559   4.358820   2.027007   0.990204
                    6          7          8          9         10
     6  H    0.000000
     7  H    1.764398   0.000000
     8  H    1.757204   1.766410   0.000000
     9  H    2.111512   3.227089   3.204235   0.000000
    10  H    4.252970   3.869403   3.873308   3.470692   0.000000
    11  H    3.829551   2.738006   2.472595   4.573079   2.963467
    12  H    4.983570   3.973415   3.863265   5.122621   2.316727
                   11         12
    11  H    0.000000
    12  H    1.625257   0.000000
 Stoichiometry    C3H7NO
 Framework group  C1[X(C3H7NO)]
 Deg. of freedom    30
 Full point group                 C1      NOp   1
 RotChk:  IX=2 Diff= 7.65D-03
 Largest Abelian subgroup         C1      NOp   1
 Largest concise Abelian subgroup C1      NOp   1
                         Standard orientation:                         
 ---------------------------------------------------------------------
 Center     Atomic      Atomic             Coordinates (Angstroms)
 Number     Number       Type             X           Y           Z
 ---------------------------------------------------------------------
      1          6           0       -0.672294    1.382798   -0.011611
      2          6           0       -0.457514   -0.107596   -0.011964
      3          8           0       -1.572043   -0.931808    0.017306
      4          6           0        0.752881   -0.674075   -0.004134
      5          7           0        1.970828    0.026393   -0.075323
      6          1           0       -1.737622    1.636510    0.002138
      7          1           0       -0.237380    1.861968   -0.898720
      8          1           0       -0.225237    1.863116    0.867647
      9          1           0       -2.357680   -0.381511    0.042146
     10          1           0        0.829115   -1.754455   -0.029037
     11          1           0        2.010048    0.935398    0.361124
     12          1           0        2.760871   -0.498066    0.209772
 ---------------------------------------------------------------------
 Rotational constants (GHZ):      8.7183293      3.8327352      2.7144600
 Leave Link  202 at Tue Aug 30 09:25:10 2022, MaxMem= 24159191040 cpu:         1.8
 (Enter /public/home/users/caep010/software/Gaussian09/g09/l301.exe)
 Standard basis: GTBas3 (6D, 7F)
 Ernie: Thresh=  0.10000D-02 Tol=  0.10000D-05 Strict=F.
 There are   190 symmetry adapted cartesian basis functions of A   symmetry.
 There are   175 symmetry adapted basis functions of A   symmetry.
   175 basis functions,   269 primitive gaussians,   190 cartesian basis functions
    20 alpha electrons       20 beta electrons
       nuclear repulsion energy       176.8596471118 Hartrees.
 IExCor=  402 DFT=T Ex+Corr=B3LYP ExCW=0 ScaHFX=  0.200000
 ScaDFX=  0.800000  0.720000  1.000000  0.810000 ScalE2=  1.000000  1.000000
 IRadAn=      0 IRanWt=     -1 IRanGd=            0 ICorTp=0 IEmpDi=  4
 NAtoms=   12 NActive=   12 NUniq=   12 SFac= 1.00D+00 NAtFMM=   60 NAOKFM=F Big=F
 Integral buffers will be    131072 words long.
 Raffenetti 2 integral format.
 Two-electron integral symmetry is turned on.
 Leave Link  301 at Tue Aug 30 09:25:10 2022, MaxMem= 24159191040 cpu:         1.6
 (Enter /public/home/users/caep010/software/Gaussian09/g09/l302.exe)
 NPDir=0 NMtPBC=     1 NCelOv=     1 NCel=       1 NClECP=     1 NCelD=      1
         NCelK=      1 NCelE2=     1 NClLst=     1 CellRange=     0.0.
 One-electron integrals computed using PRISM.
 NBasis=   175 RedAO= T EigKep=  4.36D-04  NBF=   175
 NBsUse=   175 1.00D-06 EigRej= -1.00D+00 NBFU=   175
 Precomputing XC quadrature grid using
 IXCGrd= 4 IRadAn=           0 IRanWt=          -1 IRanGd=           0 AccXCQ= 0.00D+00.
 Generated NRdTot=       0 NPtTot=           0 NUsed=           0 NTot=          32
 NSgBfM=   190   190   190   190   190 MxSgAt=    12 MxSgA2=    12.
 Leave Link  302 at Tue Aug 30 09:25:11 2022, MaxMem= 24159191040 cpu:        13.7
 (Enter /public/home/users/caep010/software/Gaussian09/g09/l303.exe)
 DipDrv:  MaxL=1.
 Leave Link  303 at Tue Aug 30 09:25:11 2022, MaxMem= 24159191040 cpu:         0.7
 (Enter /public/home/users/caep010/software/Gaussian09/g09/l401.exe)
 Initial guess from the checkpoint file:  "G4.Frag_474.chk"
 B after Tr=    -0.000000   -0.000000   -0.000000
         Rot=    0.999999    0.000123    0.000617    0.001236 Ang=   0.16 deg.
 Guess basis will be translated and rotated to current coordinates.
 JPrj=2 DoOrth=T DoCkMO=T.
 Generating alternative initial guess.
 ExpMin= 1.61D-01 ExpMax= 5.48D+03 ExpMxC= 8.25D+02 IAcc=1 IRadAn=         1 AccDes= 0.00D+00
 Harris functional with IExCor=  402 and IRadAn=       1 diagonalized for initial guess.
 HarFok:  IExCor=  402 AccDes= 0.00D+00 IRadAn=         1 IDoV= 1 UseB2=F ITyADJ=14
 ICtDFT=  3500011 ScaDFX=  1.000000  1.000000  1.000000  1.000000
 FoFCou: FMM=F IPFlag=           0 FMFlag=      100000 FMFlg1=           0
         NFxFlg=           0 DoJE=T BraDBF=F KetDBF=T FulRan=T
         wScrn=  0.000000 ICntrl=     500 IOpCl=  0 I1Cent=   200000004 NGrid=           0
         NMat0=    1 NMatS0=      1 NMatT0=    0 NMatD0=    1 NMtDS0=    0 NMtDT0=    0
 Petite list used in FoFCou.
 Harris En= -248.539998875120    
 Leave Link  401 at Tue Aug 30 09:25:12 2022, MaxMem= 24159191040 cpu:        15.0
 (Enter /public/home/users/caep010/software/Gaussian09/g09/l502.exe)
 Closed shell SCF:
 Using DIIS extrapolation, IDIIS=  1040.
 Integral symmetry usage will be decided dynamically.
 Keep R1 ints in memory in canonical form, NReq=122205860.
 IVT=      134320 IEndB=      134320 NGot= 24159191040 MDV= 24040469021
 LenX= 24040469021 LenY= 24040432480
 Requested convergence on RMS density matrix=1.00D-08 within 128 cycles.
 Requested convergence on MAX density matrix=1.00D-06.
 Requested convergence on             energy=1.00D-06.
 No special actions if energy rises.
 FoFCou: FMM=F IPFlag=           0 FMFlag=           0 FMFlg1=           0
         NFxFlg=           0 DoJE=F BraDBF=F KetDBF=F FulRan=T
         wScrn=  0.000000 ICntrl=     600 IOpCl=  0 I1Cent=           0 NGrid=           0
         NMat0=    1 NMatS0=  15400 NMatT0=    0 NMatD0=    1 NMtDS0=    0 NMtDT0=    0
 Symmetry not used in FoFCou.
 Integral accuracy reduced to 1.0D-05 until final iterations.

 Cycle   1  Pass 0  IDiag  1:
 E= -248.489620623262    
 DIIS: error= 2.93D-03 at cycle   1 NSaved=   1.
 NSaved= 1 IEnMin= 1 EnMin= -248.489620623262     IErMin= 1 ErrMin= 2.93D-03
 ErrMax= 2.93D-03  0.00D+00 EMaxC= 1.00D-01 BMatC= 3.78D-03 BMatP= 3.78D-03
 IDIUse=3 WtCom= 9.71D-01 WtEn= 2.93D-02
 Coeff-Com:  0.100D+01
 Coeff-En:   0.100D+01
 Coeff:      0.100D+01
 Gap=     0.912 Goal=   None    Shift=    0.000
 GapD=    0.912 DampG=2.000 DampE=1.000 DampFc=2.0000 IDamp=-1.
 RMSDP=5.45D-04 MaxDP=1.68D-02              OVMax= 2.29D-02

 Cycle   2  Pass 0  IDiag  1:
 E= -248.493477300305     Delta-E=       -0.003856677043 Rises=F Damp=F
 DIIS: error= 2.12D-03 at cycle   2 NSaved=   2.
 NSaved= 2 IEnMin= 2 EnMin= -248.493477300305     IErMin= 2 ErrMin= 2.12D-03
 ErrMax= 2.12D-03  0.00D+00 EMaxC= 1.00D-01 BMatC= 5.53D-04 BMatP= 3.78D-03
 IDIUse=3 WtCom= 9.79D-01 WtEn= 2.12D-02
 Coeff-Com:  0.175D+00 0.825D+00
 Coeff-En:   0.000D+00 0.100D+01
 Coeff:      0.171D+00 0.829D+00
 Gap=     0.228 Goal=   None    Shift=    0.000
 RMSDP=2.30D-04 MaxDP=1.22D-02 DE=-3.86D-03 OVMax= 1.48D-02

 Cycle   3  Pass 0  IDiag  1:
 E= -248.493423682976     Delta-E=        0.000053617329 Rises=F Damp=F
 DIIS: error= 2.10D-03 at cycle   3 NSaved=   3.
 NSaved= 3 IEnMin= 2 EnMin= -248.493477300305     IErMin= 3 ErrMin= 2.10D-03
 ErrMax= 2.10D-03  0.00D+00 EMaxC= 1.00D-01 BMatC= 6.05D-04 BMatP= 5.53D-04
 IDIUse=3 WtCom= 9.79D-01 WtEn= 2.10D-02
 Coeff-Com:  0.899D-02 0.510D+00 0.481D+00
 Coeff-En:   0.000D+00 0.524D+00 0.476D+00
 Coeff:      0.880D-02 0.510D+00 0.481D+00
 Gap=     0.230 Goal=   None    Shift=    0.000
 RMSDP=1.39D-04 MaxDP=6.76D-03 DE= 5.36D-05 OVMax= 1.10D-02

 Cycle   4  Pass 0  IDiag  1:
 E= -248.493927762573     Delta-E=       -0.000504079597 Rises=F Damp=F
 DIIS: error= 2.95D-04 at cycle   4 NSaved=   4.
 NSaved= 4 IEnMin= 4 EnMin= -248.493927762573     IErMin= 4 ErrMin= 2.95D-04
 ErrMax= 2.95D-04  0.00D+00 EMaxC= 1.00D-01 BMatC= 2.38D-05 BMatP= 5.53D-04
 IDIUse=3 WtCom= 9.97D-01 WtEn= 2.95D-03
 Coeff-Com: -0.603D-02 0.210D+00 0.246D+00 0.550D+00
 Coeff-En:   0.000D+00 0.000D+00 0.000D+00 0.100D+01
 Coeff:     -0.602D-02 0.209D+00 0.245D+00 0.552D+00
 Gap=     0.230 Goal=   None    Shift=    0.000
 RMSDP=3.69D-05 MaxDP=1.90D-03 DE=-5.04D-04 OVMax= 3.63D-03

 Cycle   5  Pass 0  IDiag  1:
 E= -248.493946063651     Delta-E=       -0.000018301078 Rises=F Damp=F
 DIIS: error= 1.11D-04 at cycle   5 NSaved=   5.
 NSaved= 5 IEnMin= 5 EnMin= -248.493946063651     IErMin= 5 ErrMin= 1.11D-04
 ErrMax= 1.11D-04  0.00D+00 EMaxC= 1.00D-01 BMatC= 5.11D-06 BMatP= 2.38D-05
 IDIUse=3 WtCom= 9.99D-01 WtEn= 1.11D-03
 Coeff-Com: -0.498D-02 0.486D-01 0.761D-01 0.347D+00 0.534D+00
 Coeff-En:   0.000D+00 0.000D+00 0.000D+00 0.193D+00 0.807D+00
 Coeff:     -0.498D-02 0.485D-01 0.761D-01 0.346D+00 0.534D+00
 Gap=     0.230 Goal=   None    Shift=    0.000
 RMSDP=1.30D-05 MaxDP=6.56D-04 DE=-1.83D-05 OVMax= 1.22D-03

 Cycle   6  Pass 0  IDiag  1:
 E= -248.493950970827     Delta-E=       -0.000004907176 Rises=F Damp=F
 DIIS: error= 1.60D-05 at cycle   6 NSaved=   6.
 NSaved= 6 IEnMin= 6 EnMin= -248.493950970827     IErMin= 6 ErrMin= 1.60D-05
[...]
 Alpha virt. eigenvalues --    8.09519   8.15369   8.19075   8.23053   8.26095
 Alpha virt. eigenvalues --    8.27069   8.30460   8.33021   8.34959   8.39682
 Alpha virt. eigenvalues --    8.40680   8.42108   8.43047   8.47191   8.50594
 Alpha virt. eigenvalues --    8.53219   8.55569   8.56185   8.56939   8.58189
 Alpha virt. eigenvalues --    8.59162   8.62397   8.63198   8.69529   8.71217
 Alpha virt. eigenvalues --    8.75753   8.76338   8.79258   8.83105   8.85167
 Alpha virt. eigenvalues --    8.87760   8.89656   8.91162   8.92872   8.96333
 Alpha virt. eigenvalues --    8.97708   8.99936   9.01605   9.03386   9.05465
 Alpha virt. eigenvalues --    9.07556   9.09509   9.13312   9.16553   9.17687
 Alpha virt. eigenvalues --    9.21912   9.26091   9.27766   9.28418   9.29678
 Alpha virt. eigenvalues --    9.34548   9.35819   9.40462   9.41074   9.43357
 Alpha virt. eigenvalues --    9.48386   9.51240   9.52982   9.54323   9.55006
 Alpha virt. eigenvalues --    9.57114   9.62616   9.63615   9.68180   9.68622
 Alpha virt. eigenvalues --    9.70420   9.72701   9.75855   9.77653   9.84035
 Alpha virt. eigenvalues --    9.87404   9.91996   9.93511  10.03057  10.03740
 Alpha virt. eigenvalues --   10.05865  10.09531  10.09889  10.13279  10.15061
 Alpha virt. eigenvalues --   10.18864  10.22629  10.25991  10.28993  10.32901
 Alpha virt. eigenvalues --   10.35241  10.37896  10.40726  10.41629  10.45763
 Alpha virt. eigenvalues --   10.46463  10.52063  10.57047  10.60986  10.62514
 Alpha virt. eigenvalues --   10.64842  10.68624  10.73334  10.74488  10.75394
 Alpha virt. eigenvalues --   10.78414  10.82066  10.84365  10.90436  10.92683
 Alpha virt. eigenvalues --   10.94896  11.02313  11.03984  11.05624  11.10794
 Alpha virt. eigenvalues --   11.12755  11.14333  11.19182  11.19919  11.24089
 Alpha virt. eigenvalues --   11.26302  11.33699  11.35377  11.37988  11.42608
 Alpha virt. eigenvalues --   11.43609  11.45094  11.50658  11.51366  11.63576
 Alpha virt. eigenvalues --   11.73198  11.74987  11.77999  11.80472  11.83994
 Alpha virt. eigenvalues --   11.89094  11.89637  11.93602  11.94310  11.98477
 Alpha virt. eigenvalues --   12.00889  12.06424  12.10074  12.14070  12.17034
 Alpha virt. eigenvalues --   12.17507  12.21418  12.25904  12.28808  12.34166
 Alpha virt. eigenvalues --   12.40737  12.48102  12.57327  12.65258  12.69901
 Alpha virt. eigenvalues --   12.72574  12.83317  12.84425  12.85721  12.91327
 Alpha virt. eigenvalues --   12.97728  13.09019  13.17010  13.21901  13.24940
 Alpha virt. eigenvalues --   13.34748  13.39950  13.45030  13.51999  13.57036
 Alpha virt. eigenvalues --   13.63828  13.77045  13.82439  13.83791  13.96162
 Alpha virt. eigenvalues --   14.00253  14.17121  14.34868  14.37480  14.43803
 Alpha virt. eigenvalues --   14.49977  14.55411  14.65610  14.68890  14.70318
 Alpha virt. eigenvalues --   14.76930  14.83362  14.83664  14.91299  14.98501
 Alpha virt. eigenvalues --   15.02994  15.06789  15.10216  15.20767  15.24405
 Alpha virt. eigenvalues --   15.29675  15.36290  15.40418  15.49772  15.52822
 Alpha virt. eigenvalues --   15.61385  15.65083  15.79475  15.80171  15.87866
 Alpha virt. eigenvalues --   15.94977  15.97213  16.06820  16.36003  16.43558
 Alpha virt. eigenvalues --   16.55276  16.58621  16.84972  16.94411  17.44529
 Alpha virt. eigenvalues --   17.49698  17.58342  17.66061  18.06058  18.34738
 Alpha virt. eigenvalues --   18.37516  18.61453  18.79177  18.83126  18.86602
 Alpha virt. eigenvalues --   19.10007  19.14396  19.25461  19.37522  19.40236
 Alpha virt. eigenvalues --   19.42926  19.52098  19.58747  19.61697  19.70950
 Alpha virt. eigenvalues --   19.75356  20.02307  20.03708  20.15412  20.40451
 Alpha virt. eigenvalues --   20.50049  21.16223  22.40731  22.51603  23.03228
 Alpha virt. eigenvalues --   23.26060  23.78768  24.05830  39.06417  40.50296
 Alpha virt. eigenvalues --   41.53081  51.16067  63.28356
          Condensed to atoms (all electrons):
               1          2          3          4          5          6
     1  C    5.009739   0.368156  -0.023313  -0.062967  -0.016464   0.427461
     2  C    0.368156   4.829256   0.165800   0.731633  -0.099322  -0.041902
     3  O   -0.023313   0.165800   8.222241  -0.073074   0.004607   0.004960
     4  C   -0.062967   0.731633  -0.073074   4.890526   0.290777   0.002290
     5  N   -0.016464  -0.099322   0.004607   0.290777   6.728421  -0.001097
     6  H    0.427461  -0.041902   0.004960   0.002290  -0.001097   0.476868
     7  H    0.407251  -0.029574   0.003882  -0.004776   0.000840  -0.023971
     8  H    0.403970  -0.034627  -0.015762  -0.006495   0.004938  -0.031213
     9  H   -0.009581  -0.002893   0.268404  -0.010231   0.001572  -0.002963
    10  H    0.002943  -0.017262  -0.002255   0.390174  -0.025711  -0.000329
    11  H   -0.001334  -0.000773  -0.000282  -0.045061   0.406153  -0.000160
    12  H   -0.001343   0.001788  -0.000870  -0.049705   0.397774  -0.000271
               7          8          9         10         11         12
     1  C    0.407251   0.403970  -0.009581   0.002943  -0.001334  -0.001343
     2  C   -0.029574  -0.034627  -0.002893  -0.017262  -0.000773   0.001788
     3  O    0.003882  -0.015762   0.268404  -0.002255  -0.000282  -0.000870
     4  C   -0.004776  -0.006495  -0.010231   0.390174  -0.045061  -0.049705
     5  N    0.000840   0.004938   0.001572  -0.025711   0.406153   0.397774
     6  H   -0.023971  -0.031213  -0.002963  -0.000329  -0.000160  -0.000271
     7  H    0.502331  -0.017445   0.000959  -0.000040   0.000064   0.000645
     8  H   -0.017445   0.528716   0.009799   0.000037   0.000034   0.000425
     9  H    0.000959   0.009799   0.381323   0.000281  -0.000027   0.000257
    10  H   -0.000040   0.000037   0.000281   0.439482   0.004713  -0.002707
    11  H    0.000064   0.000034  -0.000027   0.004713   0.373723  -0.029713
    12  H    0.000645   0.000425   0.000257  -0.002707  -0.029713   0.383224
 Mulliken charges:
               1
     1  C   -0.504519
     2  C    0.129719
     3  O   -0.554337
     4  C   -0.053090
     5  N   -0.692488
     6  H    0.190325
     7  H    0.159834
     8  H    0.157622
     9  H    0.363099
    10  H    0.210674
    11  H    0.292663
    12  H    0.300496
 Sum of Mulliken charges =  -0.00000
 Mulliken charges with hydrogens summed into heavy atoms:
               1
     1  C    0.003263
     2  C    0.129719
     3  O   -0.191238
     4  C    0.157585
     5  N   -0.099329
 Electronic spatial extent (au):  <R**2>=            472.1722
 Charge=             -0.0000 electrons
 Dipole moment (field-independent basis, Debye):
    X=             -0.0322    Y=              1.9186    Z=              1.9110  Tot=              2.7082
 Quadrupole moment (field-independent basis, Debye-Ang):
   XX=            -26.8373   YY=            -30.6725   ZZ=            -33.3765
   XY=             -1.8381   XZ=              1.1958   YZ=             -0.9629
 Traceless Quadrupole moment (field-independent basis, Debye-Ang):
   XX=              3.4581   YY=             -0.3771   ZZ=             -3.0811
   XY=             -1.8381   XZ=              1.1958   YZ=             -0.9629
 Octapole moment (field-independent basis, Debye-Ang**2):
  XXX=             -8.0518  YYY=             -0.4063  ZZZ=              0.5201  XYY=              6.6887
  XXY=              0.7381  XXZ=             15.2961  XZZ=             -4.1113  YZZ=             -0.0445
  YYZ=              0.5605  XYZ=              0.7499
 Hexadecapole moment (field-independent basis, Debye-Ang**3):
 XXXX=           -314.3931 YYYY=           -192.2488 ZZZZ=            -45.2224 XXXY=              7.2598
 XXXZ=             14.2797 YYYX=              3.5895 YYYZ=             -0.3909 ZZZX=              2.5652
 ZZZY=             -1.0126 XXYY=            -89.9010 XXZZ=            -70.0010 YYZZ=            -40.1799
 XXYZ=             -5.8027 YYXZ=              0.3008 ZZXY=              0.4101
 N-N= 1.764893527475D+02 E-N=-9.325133703146D+02  KE= 2.467613026172D+02
 No NMR shielding tensors so no spin-rotation constants.
 Leave Link  601 at Tue Aug 30 09:38:46 2022, MaxMem= 24159191040 cpu:        30.6
 (Enter /public/home/users/caep010/software/Gaussian09/g09/l9999.exe)
 1\1\GINC-B0961\SP\RHF\GFHFB2\C3H7N1O1\ROOT\30-Aug-2022\0\\#P Geom=AllC
 heck Guess=TCheck SCRF=Check HF/GFHFB2 SCF=Tight\\Frag_474\\0,1\C,0,0.
 7738405832,-0.977099044,-0.5196945546\C,0,0.4761020679,0.4009549414,-0
 .0121236985\O,0,1.5158130665,1.3136329647,-0.1214488378\C,0,-0.6952614
 869,0.8518666392,0.4471952462\N,0,-1.9394171824,0.1906142145,0.4254684
 148\H,0,0.9459005136,-0.9833216235,-1.6033492476\H,0,-0.0311081466,-1.
 6847594519,-0.3032034095\H,0,1.6841861481,-1.3765892351,-0.0484699945\
 H,0,2.3404827624,0.8577693702,0.0779246206\H,0,-0.742126319,1.88222306
 58,0.7861880439\H,0,-1.8677671148,-0.8014556218,0.238104544\H,0,-2.460
 6448921,0.3260617804,1.2834088731\\Version=ES64L-G09RevE.01\State=1-A\
 HF=-247.0733064\RMSD=4.702e-09\Dipole=0.1771604,-0.9322401,0.4845342\Q
 uadrupole=1.7906174,-0.9035775,-0.8870399,-0.6212748,-2.1726148,1.2757
 064\PG=C01 [X(C3H7N1O1)]\\@


 THE FIRST AND LAST THING REQUIRED OF GENIUS IS THE LOVE OF TRUTH.

                          -- GOETHE
 Diagonal vibrational polarizability:
        0.0000000       0.0000000       0.0000000

 Temperature=              298.150000 Pressure=                      1.000000
 E(ZPE)=                     0.100078 E(Thermal)=                    0.106535
 E(CCSD(T))=              -247.739188 E(Empiric)=                   -0.104205
 DE(Plus)=                  -0.022193 DE(2DF)=                      -0.217353
 E(Delta-G3XP)=             -0.325459 DE(HF)=                       -0.025547
 G4(0 K)=                 -248.333868 G4 Energy=                  -248.327411
 G4 Enthalpy=             -248.326467 G4 Free Energy=             -248.362991
 1\1\GINC-B0961\Mixed\G4\G4\C3H7N1O1\ROOT\30-Aug-2022\0\\#P Geom=AllChe
 ck Guess=TCheck SCRF=Check HF/GFHFB2 SCF=Tight\\Frag_474\\0,1\C,0,0.77
 38405832,-0.977099044,-0.5196945546\C,0,0.4761020679,0.4009549414,-0.0
 121236985\O,0,1.5158130665,1.3136329647,-0.1214488378\C,0,-0.695261486
 9,0.8518666392,0.4471952462\N,0,-1.9394171824,0.1906142145,0.425468414
 8\H,0,0.9459005136,-0.9833216235,-1.6033492476\H,0,-0.0311081466,-1.68
 47594519,-0.3032034095\H,0,1.6841861481,-1.3765892351,-0.0484699945\H,
 0,2.3404827624,0.8577693702,0.0779246206\H,0,-0.742126319,1.8822230658
 ,0.7861880439\H,0,-1.8677671148,-0.8014556218,0.238104544\H,0,-2.46064
 48921,0.3260617804,1.2834088731\\Version=ES64L-G09RevE.01\State=1-A\MP
 2/GTBas1=-247.6731164\MP4/GTBas1=-247.7385862\CCSD(T)/G3Bas1=-247.7391
 883\MP2/GTBas2=-247.6942435\MP4/GTBas2=-247.7607791\MP2/GTBas3=-247.87
 86945\MP4/GTBas3=-247.9559397\HF/GTLargeXP=-247.0488139\MP2/GTLargeXP=
 -248.2252802\HF/GFHFB1=-247.0689772\HF/GFHFB2=-247.0733064\G4=-248.333
 8679\FreqCoord=1.4623467727,-1.8464495979,-0.9820803809,0.8997025197,0
 .757695031,-0.0229104699,2.8644715644,2.4824065425,-0.2295050426,-1.31
 38538009,1.6097946498,0.8450765432,-3.6649673322,0.3602086625,0.804018
 7821,1.7874929197,-1.858208569,-3.0298909733,-0.0587858776,-3.18373396
 39,-0.5729714065,3.1826505767,-2.6013766519,-0.0915950152,4.4228714397
 ,1.6209491949,0.1472561919,-1.4024154989,3.5568861154,1.4856800919,-3.
 529568327,-1.5145316329,0.4499523791,-4.6499449563,0.6161674674,2.4252
 912866\PG=C01 [X(C3H7N1O1)]\NImag=0\\0.55375820,0.03365506,0.50041050,
 -0.00828404,-0.01786156,0.52329352,-0.09218604,0.02503359,0.01542545,0
 .77567955,0.03334773,-0.18569509,-0.04480259,-0.07620771,0.53945301,0.
 01438680,-0.04223015,-0.08903474,-0.18835391,0.12776904,0.23764606,-0.
 00630581,-0.00528509,0.00064204,-0.19707254,-0.10876473,0.02111334,0.6
 1645980,-0.03699332,-0.03270840,0.00472969,-0.06523665,-0.17209488,0.0
 1075502,-0.07141932,0.35374075,-0.00928701,-0.00902725,0.00473731,0.01
 401352,0.00466247,-0.04238474,0.05931290,-0.06630820,0.05344035,-0.000
 44722,0.01167018,0.00198592,-0.41226568,0.11820246,0.14329783,-0.04013
 893,0.00660528,0.00993940,0.77985455,0.02668324,-0.00639759,-0.0140592
 3,0.13135357,-0.16329948,-0.07093269,-0.03402915,0.01057293,0.01118035
 ,-0.03661336,0.62748301,0.01108446,-0.00682562,-0.00053870,0.13172107,
 -0.07051673,-0.10991669,0.01165038,0.00515293,0.00193492,-0.18631952,0
 .18321606,0.23463937,0.00244844,-0.00489256,-0.00132195,-0.03177566,-0
 .01002881,-0.00512153,-0.01276290,-0.00882409,0.00830223,-0.24375793,-
 0.06959651,0.00747876,0.46003491,-0.00005413,-0.00231483,0.00188579,0.
 00593605,0.01462304,0.00106030,0.00104398,-0.00153534,-0.00104908,-0.1
 0155997,-0.14132152,-0.03594824,0.07040549,0.61868998,-0.00059156,-0.0
 0067240,-0.00184574,0.01295132,0.01199357,0.00235159,-0.00053754,-0.00
 778185,0.00952194,0.03826753,-0.01978846,-0.05909197,-0.23640684,0.157
 50120,0.40315753,-0.05019967,-0.00264679,0.03798906,-0.00392479,0.0021
 3955,0.00941254,0.00071333,-0.00006479,-0.00032620,0.00123055,0.001094
 59,0.00039916,-0.00003093,0.00009977,-0.00010847,0.05256037,-0.0027305
 9,-0.04440926,0.00188090,0.00932320,-0.00285912,-0.03483960,0.00013497
 ,0.00231778,0.00265938,-0.00472392,-0.00344358,-0.00082744,0.00214873,
 0.00127026,0.00023266,-0.00147952,0.04919937,0.03770884,0.00523107,-0.
 29522905,0.00681834,-0.00551015,-0.00915840,-0.00083667,0.00031548,0.0
 0160045,-0.00395895,-0.00092345,0.00025127,0.00170558,0.00046962,0.000
 32582,-0.04302661,-0.00119614,0.32278062,-0.19125504,-0.12554590,0.040
 44845,0.00558653,0.00264134,-0.00370162,0.00163415,0.00198931,0.000978
 95,-0.00151339,-0.00112087,-0.00044244,-0.00059673,0.00179238,0.000716
 71,-0.00404479,-0.00199951,0.00026529,0.20947001,-0.12349926,-0.155888
 64,0.03239888,-0.02564767,-0.01358419,0.00861418,0.00030813,-0.0074296
 8,-0.00312820,-0.00207540,-0.00038938,-0.00006434,0.00157648,0.0010013
 6,0.00077483,0.00010404,-0.00066893,0.00029409,0.13742853,0.16856314,0
 .04122338,0.03385157,-0.05604030,-0.01080223,-0.00485524,0.00110757,-0
 .00031181,-0.00401327,0.00071327,0.00022204,0.00044636,0.00019854,0.00
 028671,0.00013307,-0.00055376,0.02430035,0.02049595,-0.00500944,-0.045
 38728,-0.03595509,0.05651274,-0.21435256,0.06906250,-0.09092695,-0.010
 37308,0.00458337,0.00161750,0.00366979,-0.00069560,0.00065233,0.002311
 24,0.00074212,-0.00150275,-0.00104880,0.00004059,0.00012193,0.00345571
 ,-0.00196976,0.00165097,-0.01918272,0.00855996,-0.01084110,0.23491750,
 0.07153252,-0.07614700,0.03960406,0.02957592,-0.01465747,0.01095763,0.
 00088197,0.00336464,-0.00020675,-0.00321734,-0.00450281,-0.00001343,0.
 00068769,0.00016027,0.00100242,0.00060649,-0.00056909,0.00108974,-0.01
 675193,0.00748985,-0.00998634,-0.08221813,0.08484019,-0.09052985,0.037
 54279,-0.09210056,0.01214482,-0.00607778,0.00664965,0.00133688,0.00165
 376,-0.00026811,0.00007011,-0.00126484,-0.00009161,0.00003928,-0.00043
 436,-0.00002656,-0.02788656,0.01057600,-0.01484428,0.00618167,-0.00286
 024,0.00228402,0.09929005,-0.04011272,0.09879564,0.00380486,0.00080578
 ,-0.00023084,-0.03740815,0.01484034,-0.00230970,-0.36751891,0.17130054
 ,-0.07976022,-0.00290969,-0.00417674,-0.00380459,0.00119910,0.00041087
 ,0.00282401,0.00005069,-0.00012661,-0.00025595,0.00061606,0.00120381,0
 .00074195,0.00017601,-0.00171460,-0.00068489,0.40297865,-0.00341007,0.
 00216855,-0.00154590,-0.03265010,0.00941727,-0.00552845,0.21976409,-0.
 15697239,0.05872131,-0.00236901,-0.00300926,-0.00003672,-0.00087294,0.
 00044588,0.00080210,0.00021190,-0.00024781,0.00008194,0.00058269,-0.00
 006834,0.00026560,0.00154177,-0.00097892,0.00101503,-0.18230388,0.1491
 8873,0.00049160,0.00037855,0.00022679,0.00547318,-0.00000535,-0.000973
 53,-0.09183089,0.05320326,-0.02342535,0.00314613,0.00167021,0.00055586
 ,-0.00141759,-0.00090981,-0.00016525,-0.00058760,-0.00031430,-0.000743
 39,0.00045064,0.00052390,-0.00015095,-0.00025345,-0.00005849,0.0003371
 1,0.08463449,-0.05395598,0.02414392,-0.00365828,-0.00081903,0.00346428
 ,0.00269395,0.02675495,0.00899903,0.00162414,0.00036834,-0.00220609,-0
 .05598875,0.01888822,0.01049768,-0.00082425,-0.03216626,-0.01103927,-0
 .00043389,0.00117739,0.00030627,0.00027138,-0.00025991,-0.00023925,-0.
 00016716,0.00044286,0.00027464,-0.00014380,-0.00014669,-0.00016939,0.0
 6044088,0.00014906,0.00185912,-0.00316747,-0.00197163,-0.01153333,-0.0
 0447053,-0.00039579,0.00101800,0.00275925,0.01702009,-0.30108578,-0.09
 100394,-0.00125291,-0.01397306,-0.00445245,0.00037756,-0.00102582,-0.0
 0028074,-0.00011915,0.00026011,0.00010936,0.00012577,0.00038502,0.0000
 6435,0.00013248,0.00024524,0.00019183,-0.01145756,0.32331718,0.0042334
 8,-0.00217778,0.00829566,0.00155202,-0.01158809,0.00303303,-0.00237191
 ,0.00098113,-0.00529956,0.01012691,-0.08710451,-0.06740179,-0.00142410
 ,-0.00126600,0.00071809,-0.00053317,0.00202465,0.00047713,0.00009273,0
 .00019393,-0.00003574,0.00028830,-0.00198201,-0.00092423,-0.00113198,0
 .00009509,-0.00060358,-0.01051737,0.09985818,0.05864319,-0.00164538,-0
 .00137460,0.00018616,0.00123480,-0.00105758,-0.00044959,0.00008925,0.0
 0076876,0.00006047,0.00271330,-0.03770917,-0.00938437,-0.05083981,0.03
 851481,0.03434470,0.00071393,0.00034049,-0.00016953,-0.00093370,0.0024
 2711,0.00078416,0.00048918,0.00038880,-0.00022714,-0.00023973,-0.00006
 735,-0.00022808,-0.00494412,-0.00261680,0.00071924,0.05523111,0.001062
 83,0.00053507,0.00097949,0.00146494,0.00094538,-0.00112614,0.00014075,
 0.00033705,-0.00012681,0.00348022,-0.01949745,-0.00112833,0.01636032,-
 0.41594107,-0.09256166,-0.00058750,-0.00001085,0.00020854,0.00081076,-
 0.00003075,-0.00037972,0.00038011,0.00020250,-0.00002476,-0.00001798,0
 .00002256,-0.00004896,-0.00304349,0.00041461,0.00074276,-0.02054395,0.
 43729559,0.00015947,0.00113011,-0.00120263,0.00102603,-0.00079536,0.00
 024285,0.00086662,0.00094679,-0.00095930,-0.00833209,-0.00386319,-0.00
 215095,0.02898439,-0.05026224,-0.03971799,0.00020424,-0.00054456,-0.00
 023067,0.00022627,-0.00055616,0.00099344,0.00003646,-0.00009075,0.0000
 7236,-0.00001865,-0.00008942,0.00023541,0.00052096,0.00030394,0.002783
 30,-0.02518914,0.08796713,0.04709124,0.00003850,0.00033688,0.00062242,
 -0.00018889,-0.00645092,0.00110930,-0.00039137,0.00220154,-0.00168027,
 -0.02908805,0.00448406,0.02862215,-0.12204546,0.01553641,0.15945749,-0
 .00009052,-0.00009487,-0.00020758,-0.00005177,-0.00012583,0.00002308,0
 .00010489,-0.00021425,-0.00000901,-0.00060509,-0.00028041,0.00029095,0
 .00112990,0.00000888,-0.00103416,-0.00186883,0.00049299,0.00151544,0.1
 5305668,0.00025693,-0.00141244,-0.00004207,-0.00097350,-0.00071514,-0.
 00002862,-0.00237981,-0.00061047,-0.00013646,-0.00641923,0.00489092,0.
 01799580,0.00428911,-0.06110498,-0.04704995,0.00014470,0.00044705,0.00
 022000,0.00029235,0.00074545,-0.00011225,-0.00015270,0.00041281,-0.000
 07722,-0.00035403,-0.00021150,-0.00067484,0.00026118,0.00011869,0.0002
 2265,0.02092947,-0.00427266,-0.03414631,-0.01589447,0.06171228,-0.0005
 9556,0.00066065,-0.00056155,-0.00196962,-0.00027378,0.00043735,0.00096
 666,0.00036526,0.00038883,-0.00844530,0.00142341,0.00161174,0.19889505
 ,-0.07118024,-0.31467370,0.00016325,-0.00014752,-0.00022005,0.00017063
 ,-0.00023579,-0.00001940,-0.00013328,-0.00020338,0.00011658,-0.0000036
 3,0.00017541,0.00056297,0.00010850,0.00008824,0.00031450,-0.00044688,0
 .00549846,-0.00715704,-0.18870982,0.06382928,0.31919978\\-0.00000658,-
 0.00001848,-0.00000392,0.00002671,0.00004893,-0.00000971,-0.00000899,-
 0.00003374,0.00001148,-0.00000819,0.00000100,-0.00001042,0.00001530,-0
 .00001295,0.00001761,-0.00000119,-0.00000590,-0.00000123,-0.00000069,0
 .00000344,0.00000057,0.00000337,0.00000607,-0.00000077,0.00001157,0.00
 000817,-0.00000323,-0.00000106,0.00000184,-0.00000138,-0.00001466,-0.0
 0000097,0.00000030,-0.00001560,0.00000259,0.00000068\\\@
 Job cpu time:       0 days  0 hours 49 minutes  8.0 seconds.
 File lengths (MBytes):  RWF=   2249 Int=      0 D2E=      0 Chk=     27 Scr=      1
 Normal termination of Gaussian 09 at Tue Aug 30 09:38:46 2022.
