 Entering Gaussian System, Link 0=g09
 Input=G4.Frag_1055.gjf
 Output=G4.Frag_1055.log
 Initial command:
 /public/home/users/caep010/software/Gaussian09/g09/l1.exe "/public/home/users/caep010/.cache/gau_scr/Gau-203637.inp" -scrdir="/public/home/users/caep010/.cache/gau_scr/"
 Entering Link 1 = /public/home/users/caep010/software/Gaussian09/g09/l1.exe PID=    203638.
  
 Copyright (c) 1988,1990,1992,1993,1995,1998,2003,2009,2015,
            Gaussian, Inc.  All Rights Reserved.
  
 This is part of the Gaussian(R) 09 program.  It is based on
 the Gaussian(R) 03 system (copyright 2003, Gaussian, Inc.),
 the Gaussian(R) 98 system (copyright 1998, Gaussian, Inc.),
 the Gaussian(R) 94 system (copyright 1995, Gaussian, Inc.),
 the Gaussian 92(TM) system (copyright 1992, Gaussian, Inc.),
 the Gaussian 90(TM) system (copyright 1990, Gaussian, Inc.),
 the Gaussian 88(TM) system (copyright 1988, Gaussian, Inc.),
 the Gaussian 86(TM) system (copyright 1986, Carnegie Mellon
 University), and the Gaussian 82(TM) system (copyright 1983,
 Carnegie Mellon University). Gaussian is a federally registered
 trademark of Gaussian, Inc.
  
 This software contains proprietary and confidential information,
 including trade secrets, belonging to Gaussian, Inc.
  
 This software is provided under written license and may be
 used, copied, transmitted, or stored only in accord with that
 written license.
  
 The following legend is applicable only to US Government
 contracts under FAR:
  
                    RESTRICTED RIGHTS LEGEND
  
 Use, reproduction and disclosure by the US Government is
 subject to restrictions as set forth in subparagraphs (a)
 and (c) of the Commercial Computer Software - Restricted
 Rights clause in FAR 52.227-19.
  
 Gaussian, Inc.
 340 Quinnipiac St., Bldg. 40, Wallingford CT 06492
  
  
 ---------------------------------------------------------------
 Warning -- This program may not be used in any manner that
 competes with the business of Gaussian, Inc. or will provide
 assistance to any competitor of Gaussian, Inc.  The licensee
 of this program is prohibited from giving any competitor of
 Gaussian, Inc. access to this program.  By using this program,
 the user acknowledges that Gaussian, Inc. is engaged in the
 business of creating and licensing software in the field of
 computational chemistry and represents and warrants to the
 licensee that it is not a competitor of Gaussian, Inc. and that
 it will not use this program in any manner prohibited above.
 ---------------------------------------------------------------
  

 Cite this work as:
 Gaussian 09, Revision E.01,
 M. J. Frisch, G. W. Trucks, H. B. Schlegel, G. E. Scuseria, 
 M. A. Robb, J. R. Cheeseman, G. Scalmani, V. Barone, B. Mennucci, 
 G. A. Petersson, H. Nakatsuji, M. Caricato, X. Li, H. P. Hratchian, 
 A. F. Izmaylov, J. Bloino, G. Zheng, J. L. Sonnenberg, M. Hada, 
 M. Ehara, K. Toyota, R. Fukuda, J. Hasegawa, M. Ishida, T. Nakajima, 
 Y. Honda, O. Kitao, H. Nakai, T. Vreven, J. A. Montgomery, Jr., 
 J. E. Peralta, F. Ogliaro, M. Bearpark, J. J. Heyd, E. Brothers, 
 K. N. Kudin, V. N. Staroverov, T. Keith, R. Kobayashi, J. Normand, 
 K. Raghavachari, A. Rendell, J. C. Burant, S. S. Iyengar, J. Tomasi, 
 M. Cossi, N. Rega, J. M. Millam, M. Klene, J. E. Knox, J. B. Cross, 
 V. Bakken, C. Adamo, J. Jaramillo, R. Gomperts, R. E. Stratmann, 
 O. Yazyev, A. J. Austin, R. Cammi, C. Pomelli, J. W. Ochterski, 
 R. L. Martin, K. Morokuma, V. G. Zakrzewski, G. A. Voth, 
 P. Salvador, J. J. Dannenberg, S. Dapprich, A. D. Daniels, 
 O. Farkas, J. B. Foresman, J. V. Ortiz, J. Cioslowski, 
 and D. J. Fox, Gaussian, Inc., Wallingford CT, 2013.
 
 ******************************************
 Gaussian 09:  ES64L-G09RevE.01 30-Nov-2015
                26-Aug-2022 
 ******************************************
 %nproc=32
 Will use up to   32 processors via shared memory.
 %mem=180GB
 %chk=G4.Frag_1055.chk
 -----
 #P G4
 -----
 1/14=-1,18=20,19=15,26=3,38=1/1,3;
 2/9=110,12=2,17=6,18=5,40=1/2;
 3/5=35,7=104,11=2,16=1,25=1,30=1,71=1,74=-5/1,2,3;
 4//1;
 5/5=2,38=5/2;
 6/7=2,8=2,9=2,10=2,28=1/1;
 7//1,2,3,16;
 1/14=-1,18=20,19=15,26=3/3(2);
 2/9=110/2;
 99//99;
 2/9=110/2;
 3/5=35,7=104,11=2,16=1,25=1,30=1,71=1,74=-5/1,2,3;
 4/5=5,16=3,69=1/1;
 5/5=2,38=5/2;
 7//1,2,3,16;
 1/14=-1,18=20,19=15,26=3/3(-5);
 2/9=110/2;
 6/7=2,8=2,9=2,10=2,19=2,28=1/1;
 99/9=1/99;
 Leave Link    1 at Fri Aug 26 14:20:33 2022, MaxMem= 24159191040 cpu:         2.3
 (Enter /public/home/users/caep010/software/Gaussian09/g09/l101.exe)
 ---------
 Frag_1055
 ---------
 Symbolic Z-matrix:
 Charge =  0 Multiplicity = 1
 C                     1.2479    0.5602    0.7503 
 N                     0.7429   -0.0376   -0.5006 
 N                     1.0478   -1.4174   -0.5502 
 C                    -0.7094    0.1468   -0.6951 
 N                    -1.4783   -0.4387    0.4101 
 O                    -1.0012    1.5154   -0.8264 
 H                     0.8337    0.0515    1.6475 
 H                     0.9945    1.6405    0.7936 
 H                     2.355     0.4779    0.7808 
 H                     0.7828   -1.8821    0.3507 
 H                     2.0816   -1.5151   -0.6746 
 H                    -0.9948   -0.3684   -1.6437 
 H                    -2.4703   -0.5443    0.0959 
 H                    -1.494     0.2339    1.2109 
 H                    -1.9381    1.5773   -1.1491 
 
 NAtoms=     15 NQM=       15 NQMF=       0 NMMI=      0 NMMIF=      0
                NMic=       0 NMicF=      0.
                    Isotopes and Nuclear Properties:
 (Nuclear quadrupole moments (NQMom) in fm**2, nuclear magnetic moments (NMagM)
  in nuclear magnetons)

  Atom         1           2           3           4           5           6           7           8           9          10
 IAtWgt=          12          14          14          12          14          16           1           1           1           1
 AtmWgt=  12.0000000  14.0030740  14.0030740  12.0000000  14.0030740  15.9949146   1.0078250   1.0078250   1.0078250   1.0078250
 NucSpn=           0           2           2           0           2           0           1           1           1           1
 AtZEff=   0.0000000   0.0000000   0.0000000   0.0000000   0.0000000   0.0000000   0.0000000   0.0000000   0.0000000   0.0000000
 NQMom=    0.0000000   2.0440000   2.0440000   0.0000000   2.0440000   0.0000000   0.0000000   0.0000000   0.0000000   0.0000000
 NMagM=    0.0000000   0.4037610   0.4037610   0.0000000   0.4037610   0.0000000   2.7928460   2.7928460   2.7928460   2.7928460
 AtZNuc=   6.0000000   7.0000000   7.0000000   6.0000000   7.0000000   8.0000000   1.0000000   1.0000000   1.0000000   1.0000000

  Atom        11          12          13          14          15
 IAtWgt=           1           1           1           1           1
 AtmWgt=   1.0078250   1.0078250   1.0078250   1.0078250   1.0078250
 NucSpn=           1           1           1           1           1
 AtZEff=   0.0000000   0.0000000   0.0000000   0.0000000   0.0000000
 NQMom=    0.0000000   0.0000000   0.0000000   0.0000000   0.0000000
 NMagM=    2.7928460   2.7928460   2.7928460   2.7928460   2.7928460
 AtZNuc=   1.0000000   1.0000000   1.0000000   1.0000000   1.0000000
 Leave Link  101 at Fri Aug 26 14:20:34 2022, MaxMem= 24159191040 cpu:        11.0
 (Enter /public/home/users/caep010/software/Gaussian09/g09/l103.exe)

 GradGradGradGradGradGradGradGradGradGradGradGradGradGradGradGradGradGrad
 Berny optimization.
 Initialization pass.
                           ----------------------------
                           !    Initial Parameters    !
                           ! (Angstroms and Degrees)  !
 --------------------------                            --------------------------
 ! Name  Definition              Value          Derivative Info.                !
 --------------------------------------------------------------------------------
 ! R1    R(1,2)                  1.4755         estimate D2E/DX2                !
 ! R2    R(1,7)                  1.1114         estimate D2E/DX2                !
 ! R3    R(1,8)                  1.1105         estimate D2E/DX2                !
 ! R4    R(1,9)                  1.1106         estimate D2E/DX2                !
 ! R5    R(2,3)                  1.414          estimate D2E/DX2                !
 ! R6    R(2,4)                  1.4768         estimate D2E/DX2                !
 ! R7    R(3,10)                 1.0478         estimate D2E/DX2                !
 ! R8    R(3,11)                 1.0458         estimate D2E/DX2                !
 ! R9    R(4,5)                  1.4682         estimate D2E/DX2                !
 ! R10   R(4,6)                  1.4055         estimate D2E/DX2                !
 ! R11   R(4,12)                 1.1166         estimate D2E/DX2                !
 ! R12   R(5,13)                 1.0459         estimate D2E/DX2                !
 ! R13   R(5,14)                 1.0459         estimate D2E/DX2                !
 ! R14   R(6,15)                 0.9928         estimate D2E/DX2                !
 ! A1    A(2,1,7)              111.8004         estimate D2E/DX2                !
 ! A2    A(2,1,8)              110.4322         estimate D2E/DX2                !
 ! A3    A(2,1,9)              109.5386         estimate D2E/DX2                !
 ! A4    A(7,1,8)              109.1925         estimate D2E/DX2                !
 ! A5    A(7,1,9)              108.3859         estimate D2E/DX2                !
 ! A6    A(8,1,9)              107.3676         estimate D2E/DX2                !
 ! A7    A(1,2,3)              110.5667         estimate D2E/DX2                !
 ! A8    A(1,2,4)              113.4304         estimate D2E/DX2                !
 ! A9    A(3,2,4)              109.2252         estimate D2E/DX2                !
 ! A10   A(2,3,10)             110.3714         estimate D2E/DX2                !
 ! A11   A(2,3,11)             107.9682         estimate D2E/DX2                !
 ! A12   A(10,3,11)            108.1108         estimate D2E/DX2                !
 ! A13   A(2,4,5)              111.4743         estimate D2E/DX2                !
 ! A14   A(2,4,6)              109.7582         estimate D2E/DX2                !
 ! A15   A(2,4,12)             107.7964         estimate D2E/DX2                !
 ! A16   A(5,4,6)              110.4824         estimate D2E/DX2                !
 ! A17   A(5,4,12)             108.7634         estimate D2E/DX2                !
 ! A18   A(6,4,12)             108.4735         estimate D2E/DX2                !
 ! A19   A(4,5,13)             108.1102         estimate D2E/DX2                !
 ! A20   A(4,5,14)             109.1335         estimate D2E/DX2                !
 ! A21   A(13,5,14)            106.3019         estimate D2E/DX2                !
 ! A22   A(4,6,15)             106.6775         estimate D2E/DX2                !
 ! D1    D(7,1,2,3)            -57.3949         estimate D2E/DX2                !
 ! D2    D(7,1,2,4)             65.6919         estimate D2E/DX2                !
 ! D3    D(8,1,2,3)           -179.1873         estimate D2E/DX2                !
 ! D4    D(8,1,2,4)            -56.1005         estimate D2E/DX2                !
 ! D5    D(9,1,2,3)             62.7648         estimate D2E/DX2                !
 ! D6    D(9,1,2,4)           -174.1484         estimate D2E/DX2                !
 ! D7    D(1,2,3,10)            48.2034         estimate D2E/DX2                !
 ! D8    D(1,2,3,11)           -69.7674         estimate D2E/DX2                !
 ! D9    D(4,2,3,10)           -77.2919         estimate D2E/DX2                !
 ! D10   D(4,2,3,11)           164.7374         estimate D2E/DX2                !
 ! D11   D(1,2,4,5)            -58.7513         estimate D2E/DX2                !
 ! D12   D(1,2,4,6)             63.9903         estimate D2E/DX2                !
 ! D13   D(1,2,4,12)          -178.0462         estimate D2E/DX2                !
 ! D14   D(3,2,4,5)             65.0703         estimate D2E/DX2                !
 ! D15   D(3,2,4,6)           -172.1881         estimate D2E/DX2                !
 ! D16   D(3,2,4,12)           -54.2246         estimate D2E/DX2                !
 ! D17   D(2,4,5,13)          -163.0068         estimate D2E/DX2                !
 ! D18   D(2,4,5,14)            81.7753         estimate D2E/DX2                !
 ! D19   D(6,4,5,13)            74.6675         estimate D2E/DX2                !
 ! D20   D(6,4,5,14)           -40.5503         estimate D2E/DX2                !
 ! D21   D(12,4,5,13)          -44.288          estimate D2E/DX2                !
 ! D22   D(12,4,5,14)         -159.5059         estimate D2E/DX2                !
 ! D23   D(2,4,6,15)           167.9132         estimate D2E/DX2                !
 ! D24   D(5,4,6,15)           -68.7603         estimate D2E/DX2                !
 ! D25   D(12,4,6,15)           50.3711         estimate D2E/DX2                !
 --------------------------------------------------------------------------------
 Trust Radius=3.00D-01 FncErr=1.00D-07 GrdErr=1.00D-06
 Number of steps in this run=     71 maximum allowed number of steps=    100.
 GradGradGradGradGradGradGradGradGradGradGradGradGradGradGradGradGradGrad

 Leave Link  103 at Fri Aug 26 14:20:34 2022, MaxMem= 24159191040 cpu:         0.3
 (Enter /public/home/users/caep010/software/Gaussian09/g09/l202.exe)
                          Input orientation:                          
 ---------------------------------------------------------------------
 Center     Atomic      Atomic             Coordinates (Angstroms)
 Number     Number       Type             X           Y           Z
 ---------------------------------------------------------------------
      1          6           0        1.247900    0.560200    0.750300
      2          7           0        0.742900   -0.037600   -0.500600
      3          7           0        1.047800   -1.417400   -0.550200
      4          6           0       -0.709400    0.146800   -0.695100
      5          7           0       -1.478300   -0.438700    0.410100
      6          8           0       -1.001200    1.515400   -0.826400
      7          1           0        0.833700    0.051500    1.647500
      8          1           0        0.994500    1.640500    0.793600
      9          1           0        2.355000    0.477900    0.780800
     10          1           0        0.782800   -1.882100    0.350700
     11          1           0        2.081600   -1.515100   -0.674600
     12          1           0       -0.994800   -0.368400   -1.643700
     13          1           0       -2.470300   -0.544300    0.095900
     14          1           0       -1.494000    0.233900    1.210900
     15          1           0       -1.938100    1.577300   -1.149100
 ---------------------------------------------------------------------
                    Distance matrix (angstroms):
                    1          2          3          4          5
     1  C    0.000000
     2  N    1.475514   0.000000
     3  N    2.375340   1.413956   0.000000
     4  C    2.468016   1.476824   2.357004   0.000000
     5  N    2.923304   2.433924   2.874232   1.468157   0.000000
     6  O    2.908065   2.357931   3.588315   1.405508   2.361157
     7  H    1.111443   2.151864   2.652054   2.806780   2.667733
     8  H    1.110466   2.134075   3.340568   2.711207   3.253442
     9  H    1.110574   2.122874   2.659416   3.417376   3.958758
    10  H    2.518100   2.031867   1.047756   2.727049   2.683189
    11  H    2.651842   2.001350   1.045831   3.248386   3.874029
    12  H    3.409287   2.106112   2.543297   1.116569   2.111116
    13  H    3.933595   3.307146   3.681953   2.050383   1.045914
    14  H    2.799400   2.829605   3.505569   2.063012   1.045905
    15  H    3.846142   3.196281   4.271125   1.939626   2.589745
                    6          7          8          9         10
     6  O    0.000000
     7  H    3.410285   0.000000
     8  H    2.573493   1.811056   0.000000
     9  H    3.863105   1.802038   1.789626   0.000000
    10  H    4.013879   2.328753   3.556640   2.868170   0.000000
    11  H    4.325578   3.066535   3.646260   2.482939   1.694937
    12  H    2.053466   3.788367   3.732750   4.220851   3.070632
    13  H    2.692816   3.698494   4.155114   4.979709   3.526654
    14  H    2.456763   2.375306   2.888822   3.880634   3.225092
    15  H    0.992849   4.222785   3.518270   4.833622   4.649747
                   11         12         13         14         15
    11  H    0.000000
    12  H    3.423202   0.000000
    13  H    4.717618   2.287848   0.000000
    14  H    4.404433   2.959849   1.673912   0.000000
    15  H    5.093729   2.218151   2.516833   2.751645   0.000000
 Stoichiometry    C2H9N3O
 Framework group  C1[X(C2H9N3O)]
 Deg. of freedom    39
 Full point group                 C1      NOp   1
 Largest Abelian subgroup         C1      NOp   1
 Largest concise Abelian subgroup C1      NOp   1
                         Standard orientation:                         
 ---------------------------------------------------------------------
 Center     Atomic      Atomic             Coordinates (Angstroms)
 Number     Number       Type             X           Y           Z
 ---------------------------------------------------------------------
      1          6           0        1.049130    1.143280    0.637960
      2          7           0        0.692794    0.217619   -0.454431
      3          7           0        1.578390   -0.884340   -0.480470
      4          6           0       -0.696554   -0.276831   -0.375440
      5          7           0       -0.946341   -0.978107    0.889986
      6          8           0       -1.591988    0.795662   -0.528445
      7          1           0        1.046180    0.635574    1.626662
      8          1           0        0.343500    2.000286    0.665555
      9          1           0        2.064655    1.555642    0.458961
     10          1           0        1.687298   -1.287515    0.480457
     11          1           0        2.513780   -0.539124   -0.796120
     12          1           0       -0.852954   -0.991419   -1.219021
     13          1           0       -1.817010   -1.547118    0.779990
     14          1           0       -1.147642   -0.274976    1.637651
     15          1           0       -2.491261    0.398448   -0.667285
 ---------------------------------------------------------------------
 Rotational constants (GHZ):      4.9728862      2.8433361      2.4711362
 Leave Link  202 at Fri Aug 26 14:20:34 2022, MaxMem= 24159191040 cpu:         0.6
 (Enter /public/home/users/caep010/software/Gaussian09/g09/l301.exe)
 Standard basis: GTBas3 (6D, 7F)
 Ernie: Thresh=  0.10000D-02 Tol=  0.10000D-05 Strict=F.
 There are   231 symmetry adapted cartesian basis functions of A   symmetry.
 There are   213 symmetry adapted basis functions of A   symmetry.
   213 basis functions,   327 primitive gaussians,   231 cartesian basis functions
    25 alpha electrons       25 beta electrons
       nuclear repulsion energy       272.9718103812 Hartrees.
 IExCor=  402 DFT=T Ex+Corr=B3LYP ExCW=0 ScaHFX=  0.200000
 ScaDFX=  0.800000  0.720000  1.000000  0.810000 ScalE2=  1.000000  1.000000
 IRadAn=      0 IRanWt=     -1 IRanGd=            0 ICorTp=0 IEmpDi=  4
 NAtoms=   15 NActive=   15 NUniq=   15 SFac= 1.00D+00 NAtFMM=   60 NAOKFM=F Big=F
 Integral buffers will be    131072 words long.
 Raffenetti 2 integral format.
 Two-electron integral symmetry is turned on.
 Leave Link  301 at Fri Aug 26 14:20:34 2022, MaxMem= 24159191040 cpu:         2.5
 (Enter /public/home/users/caep010/software/Gaussian09/g09/l302.exe)
 NPDir=0 NMtPBC=     1 NCelOv=     1 NCel=       1 NClECP=     1 NCelD=      1
         NCelK=      1 NCelE2=     1 NClLst=     1 CellRange=     0.0.
 One-electron integrals computed using PRISM.
 NBasis=   213 RedAO= T EigKep=  3.46D-04  NBF=   213
 NBsUse=   213 1.00D-06 EigRej= -1.00D+00 NBFU=   213
 Precomputing XC quadrature grid using
 IXCGrd= 4 IRadAn=           0 IRanWt=          -1 IRanGd=           0 AccXCQ= 0.00D+00.
 Generated NRdTot=       0 NPtTot=           0 NUsed=           0 NTot=          32
 NSgBfM=   231   231   231   231   231 MxSgAt=    15 MxSgA2=    15.
 Leave Link  302 at Fri Aug 26 14:20:35 2022, MaxMem= 24159191040 cpu:        15.1
 (Enter /public/home/users/caep010/software/Gaussian09/g09/l303.exe)
 DipDrv:  MaxL=1.
 Leave Link  303 at Fri Aug 26 14:20:35 2022, MaxMem= 24159191040 cpu:         1.1
 (Enter /public/home/users/caep010/software/Gaussian09/g09/l401.exe)
 ExpMin= 1.61D-01 ExpMax= 5.48D+03 ExpMxC= 8.25D+02 IAcc=1 IRadAn=         1 AccDes= 0.00D+00
 Harris functional with IExCor=  402 and IRadAn=       1 diagonalized for initial guess.
 HarFok:  IExCor=  402 AccDes= 0.00D+00 IRadAn=         1 IDoV= 1 UseB2=F ITyADJ=14
 ICtDFT=  3500011 ScaDFX=  1.000000  1.000000  1.000000  1.000000
 FoFCou: FMM=F IPFlag=           0 FMFlag=      100000 FMFlg1=           0
         NFxFlg=           0 DoJE=T BraDBF=F KetDBF=T FulRan=T
         wScrn=  0.000000 ICntrl=     500 IOpCl=  0 I1Cent=   200000004 NGrid=           0
         NMat0=    1 NMatS0=      1 NMatT0=    0 NMatD0=    1 NMtDS0=    0 NMtDT0=    0
 Petite list used in FoFCou.
 Harris En= -321.072497163328    
 JPrj=0 DoOrth=F DoCkMO=F.
 Leave Link  401 at Fri Aug 26 14:20:35 2022, MaxMem= 24159191040 cpu:        14.0
 (Enter /public/home/users/caep010/software/Gaussian09/g09/l502.exe)
 Closed shell SCF:
 Using DIIS extrapolation, IDIIS=  1040.
 Integral symmetry usage will be decided dynamically.
 Keep R1 ints in memory in canonical form, NReq=266157421.
 IVT=      187717 IEndB=      187717 NGot= 24159191040 MDV= 23899277088
 LenX= 23899277088 LenY= 23899223286
 Requested convergence on RMS density matrix=1.00D-08 within 128 cycles.
 Requested convergence on MAX density matrix=1.00D-06.
 Requested convergence on             energy=1.00D-06.
 No special actions if energy rises.
 FoFCou: FMM=F IPFlag=           0 FMFlag=           0 FMFlg1=           0
         NFxFlg=           0 DoJE=F BraDBF=F KetDBF=F FulRan=T
         wScrn=  0.000000 ICntrl=     600 IOpCl=  0 I1Cent=           0 NGrid=           0
         NMat0=    1 NMatS0=  22791 NMatT0=    0 NMatD0=    1 NMtDS0=    0 NMtDT0=    0
 Symmetry not used in FoFCou.
 Integral accuracy reduced to 1.0D-05 until final iterations.

 Cycle   1  Pass 0  IDiag  1:
 E= -320.893088546022    
 DIIS: error= 1.54D-02 at cycle   1 NSaved=   1.
 NSaved= 1 IEnMin= 1 EnMin= -320.893088546022     IErMin= 1 ErrMin= 1.54D-02
 ErrMax= 1.54D-02  0.00D+00 EMaxC= 1.00D-01 BMatC= 2.13D-01 BMatP= 2.13D-01
 IDIUse=3 WtCom= 8.46D-01 WtEn= 1.54D-01
 Coeff-Com:  0.100D+01
 Coeff-En:   0.100D+01
 Coeff:      0.100D+01
 Gap=     0.222 Goal=   None    Shift=    0.000
 GapD=    0.222 DampG=1.000 DampE=0.500 DampFc=0.5000 IDamp=-1.
 Damping current iteration by 5.00D-01
 RMSDP=4.81D-03 MaxDP=1.42D-01              OVMax= 1.43D-01

 Cycle   2  Pass 0  IDiag  1:
 E= -320.965495645653     Delta-E=       -0.072407099631 Rises=F Damp=T
 DIIS: error= 8.23D-03 at cycle   2 NSaved=   2.
 NSaved= 2 IEnMin= 2 EnMin= -320.965495645653     IErMin= 2 ErrMin= 8.23D-03
 ErrMax= 8.23D-03  0.00D+00 EMaxC= 1.00D-01 BMatC= 1.50D-02 BMatP= 2.13D-01
 IDIUse=3 WtCom= 9.18D-01 WtEn= 8.23D-02
 Coeff-Com:  0.126D+00 0.874D+00
 Coeff-En:   0.211D+00 0.789D+00
 Coeff:      0.133D+00 0.867D+00
 Gap=     0.290 Goal=   None    Shift=    0.000
 RMSDP=8.21D-04 MaxDP=3.65D-02 DE=-7.24D-02 OVMax= 8.24D-02

 Cycle   3  Pass 0  IDiag  1:
 E= -321.072667899344     Delta-E=       -0.107172253691 Rises=F Damp=F
 DIIS: error= 1.40D-03 at cycle   3 NSaved=   3.
 NSaved= 3 IEnMin= 3 EnMin= -321.072667899344     IErMin= 3 ErrMin= 1.40D-03
 ErrMax= 1.40D-03  0.00D+00 EMaxC= 1.00D-01 BMatC= 1.86D-03 BMatP= 1.50D-02
 IDIUse=3 WtCom= 9.86D-01 WtEn= 1.40D-02
 Coeff-Com:  0.597D-02 0.220D+00 0.774D+00
 Coeff-En:   0.000D+00 0.000D+00 0.100D+01
 Coeff:      0.589D-02 0.217D+00 0.777D+00
 Gap=     0.270 Goal=   None    Shift=    0.000
 RMSDP=2.51D-04 MaxDP=9.03D-03 DE=-1.07D-01 OVMax= 8.99D-03

 Cycle   4  Pass 0  IDiag  1:
 E= -321.073704980758     Delta-E=       -0.001037081414 Rises=F Damp=F
 DIIS: error= 1.11D-03 at cycle   4 NSaved=   4.
 NSaved= 4 IEnMin= 4 EnMin= -321.073704980758     IErMin= 4 ErrMin= 1.11D-03
 ErrMax= 1.11D-03  0.00D+00 EMaxC= 1.00D-01 BMatC= 5.60D-04 BMatP= 1.86D-03
 IDIUse=3 WtCom= 9.89D-01 WtEn= 1.11D-02
 Coeff-Com: -0.261D-02 0.468D-01 0.373D+00 0.583D+00
 Coeff-En:   0.000D+00 0.000D+00 0.193D+00 0.807D+00
 Coeff:     -0.258D-02 0.463D-01 0.371D+00 0.585D+00
 Gap=     0.268 Goal=   None    Shift=    0.000
 RMSDP=1.11D-04 MaxDP=4.42D-03 DE=-1.04D-03 OVMax= 4.88D-03

 Cycle   5  Pass 0  IDiag  1:
 E= -321.074126708116     Delta-E=       -0.000421727358 Rises=F Damp=F
 DIIS: error= 2.50D-04 at cycle   5 NSaved=   5.
 NSaved= 5 IEnMin= 5 EnMin= -321.074126708116     IErMin= 5 ErrMin= 2.50D-04
 ErrMax= 2.50D-04  0.00D+00 EMaxC= 1.00D-01 BMatC= 5.24D-05 BMatP= 5.60D-04
 IDIUse=3 WtCom= 9.97D-01 WtEn= 2.50D-03
 Coeff-Com: -0.152D-02 0.544D-02 0.130D+00 0.302D+00 0.565D+00
 Coeff-En:   0.000D+00 0.000D+00 0.000D+00 0.000D+00 0.100D+01
 Coeff:     -0.151D-02 0.543D-02 0.129D+00 0.301D+00 0.566D+00
 Gap=     0.268 Goal=   None    Shift=    0.000
 RMSDP=3.16D-05 MaxDP=1.14D-03 DE=-4.22D-04 OVMax= 1.38D-03

 Cycle   6  Pass 0  IDiag  1:
 E= -321.074165562854     Delta-E=       -0.000038854737 Rises=F Damp=F
 DIIS: error= 6.38D-05 at cycle   6 NSaved=   6.
 NSaved= 6 IEnMin= 6 EnMin= -321.074165562854     IErMin= 6 ErrMin= 6.38D-05
 ErrMax= 6.38D-05  0.00D+00 EMaxC= 1.00D-01 BMatC= 2.69D-06 BMatP= 5.24D-05
 IDIUse=1 WtCom= 1.00D+00 WtEn= 0.00D+00
 Coeff-Com: -0.578D-03 0.562D-03 0.502D-01 0.129D+00 0.293D+00 0.527D+00
 Coeff:     -0.578D-03 0.562D-03 0.502D-01 0.129D+00 0.293D+00 0.527D+00
 Gap=     0.268 Goal=   None    Shift=    0.000
 RMSDP=8.04D-06 MaxDP=2.88D-04 DE=-3.89D-05 OVMax= 3.82D-04

 Initial convergence to 1.0D-05 achieved.  Increase integral accuracy.
 Cycle   7  Pass 1  IDiag  1:
 E= -321.074212082640     Delta-E=       -0.000046519786 Rises=F Damp=F
 DIIS: error= 2.42D-05 at cycle   1 NSaved=   1.
 NSaved= 1 IEnMin= 1 EnMin= -321.074212082640     IErMin= 1 ErrMin= 2.42D-05
 ErrMax= 2.42D-05  0.00D+00 EMaxC= 1.00D-01 BMatC= 2.57D-07 BMatP= 2.57D-07
 IDIUse=1 WtCom= 1.00D+00 WtEn= 0.00D+00
 Coeff-Com:  0.100D+01
 Coeff:      0.100D+01
 Gap=     0.268 Goal=   None    Shift=    0.000
 RMSDP=8.04D-06 MaxDP=2.88D-04 DE=-4.65D-05 OVMax= 1.73D-04

 Cycle   8  Pass 1  IDiag  1:
 E= -321.074212059649     Delta-E=        0.000000022991 Rises=F Damp=F
 DIIS: error= 2.72D-05 at cycle   2 NSaved=   2.
 NSaved= 2 IEnMin= 1 EnMin= -321.074212082640     IErMin= 1 ErrMin= 2.42D-05
 ErrMax= 2.72D-05  0.00D+00 EMaxC= 1.00D-01 BMatC= 2.82D-07 BMatP= 2.57D-07
 IDIUse=1 WtCom= 1.00D+00 WtEn= 0.00D+00
 Coeff-Com:  0.514D+00 0.486D+00
 Coeff:      0.514D+00 0.486D+00
 Gap=     0.268 Goal=   None    Shift=    0.000
 RMSDP=2.58D-06 MaxDP=1.01D-04 DE= 2.30D-08 OVMax= 1.29D-04

 Cycle   9  Pass 1  IDiag  1:
 E= -321.074212290835     Delta-E=       -0.000000231186 Rises=F Damp=F
 DIIS: error= 5.34D-06 at cycle   3 NSaved=   3.
 NSaved= 3 IEnMin= 3 EnMin= -321.074212290835     IErMin= 3 ErrMin= 5.34D-06
 ErrMax= 5.34D-06  0.00D+00 EMaxC= 1.00D-01 BMatC= 1.61D-08 BMatP= 2.57D-07
 IDIUse=1 WtCom= 1.00D+00 WtEn= 0.00D+00
 Coeff-Com:  0.408D-01 0.195D+00 0.765D+00
 Coeff:      0.408D-01 0.195D+00 0.765D+00
 Gap=     0.268 Goal=   None    Shift=    0.000
 RMSDP=6.53D-07 MaxDP=2.14D-05 DE=-2.31D-07 OVMax= 3.10D-05

 Cycle  10  Pass 1  IDiag  1:
 E= -321.074212301393     Delta-E=       -0.000000010557 Rises=F Damp=F
 DIIS: error= 1.95D-06 at cycle   4 NSaved=   4.
 NSaved= 4 IEnMin= 4 EnMin= -321.074212301393     IErMin= 4 ErrMin= 1.95D-06
 ErrMax= 1.95D-06  0.00D+00 EMaxC= 1.00D-01 BMatC= 3.17D-09 BMatP= 1.61D-08
 IDIUse=1 WtCom= 1.00D+00 WtEn= 0.00D+00
 Coeff-Com: -0.115D-01 0.778D-01 0.433D+00 0.500D+00
 Coeff:     -0.115D-01 0.778D-01 0.433D+00 0.500D+00
 Gap=     0.268 Goal=   None    Shift=    0.000
 RMSDP=2.29D-07 MaxDP=8.78D-06 DE=-1.06D-08 OVMax= 9.14D-06

 Cycle  11  Pass 1  IDiag  1:
 E= -321.074212303900     Delta-E=       -0.000000002507 Rises=F Damp=F
 DIIS: error= 3.30D-07 at cycle   5 NSaved=   5.
 NSaved= 5 IEnMin= 5 EnMin= -321.074212303900     IErMin= 5 ErrMin= 3.30D-07
 ErrMax= 3.30D-07  0.00D+00 EMaxC= 1.00D-01 BMatC= 6.28D-11 BMatP= 3.17D-09
 IDIUse=1 WtCom= 1.00D+00 WtEn= 0.00D+00
 Coeff-Com: -0.681D-02 0.285D-01 0.172D+00 0.230D+00 0.577D+00
 Coeff:     -0.681D-02 0.285D-01 0.172D+00 0.230D+00 0.577D+00
 Gap=     0.268 Goal=   None    Shift=    0.000
 RMSDP=3.47D-08 MaxDP=1.16D-06 DE=-2.51D-09 OVMax= 1.28D-06

 Cycle  12  Pass 1  IDiag  1:
 E= -321.074212303929     Delta-E=       -0.000000000029 Rises=F Damp=F
 DIIS: error= 4.95D-08 at cycle   6 NSaved=   6.
 NSaved= 6 IEnMin= 6 EnMin= -321.074212303929     IErMin= 6 ErrMin= 4.95D-08
 ErrMax= 4.95D-08  0.00D+00 EMaxC= 1.00D-01 BMatC= 1.87D-12 BMatP= 6.28D-11
 IDIUse=1 WtCom= 1.00D+00 WtEn= 0.00D+00
 Coeff-Com: -0.152D-02 0.516D-02 0.325D-01 0.481D-01 0.194D+00 0.722D+00
 Coeff:     -0.152D-02 0.516D-02 0.325D-01 0.481D-01 0.194D+00 0.722D+00
 Gap=     0.268 Goal=   None    Shift=    0.000
 RMSDP=8.41D-09 MaxDP=2.45D-07 DE=-2.86D-11 OVMax= 2.84D-07

 SCF Done:  E(RB3LYP) =  -321.074212304     A.U. after   12 cycles
            NFock= 12  Conv=0.84D-08     -V/T= 2.0080
 KE= 3.185266620808D+02 PE=-1.296483659614D+03 EE= 3.839109748485D+02
 Leave Link  502 at Fri Aug 26 14:20:43 2022, MaxMem= 24159191040 cpu:        91.6
 (Enter /public/home/users/caep010/software/Gaussian09/g09/l601.exe)
 Copying SCF densities to generalized density rwf, IOpCl= 0 IROHF=0.

 **********************************************************************

            Population analysis using the SCF density.

 **********************************************************************

 Orbital symmetries:
       Occupied  (A) (A) (A) (A) (A) (A) (A) (A) (A) (A) (A) (A)
                 (A) (A) (A) (A) (A) (A) (A) (A) (A) (A) (A) (A)
                 (A)
       Virtual   (A) (A) (A) (A) (A) (A) (A) (A) (A) (A) (A) (A)
                 (A) (A) (A) (A) (A) (A) (A) (A) (A) (A) (A) (A)
                 (A) (A) (A) (A) (A) (A) (A) (A) (A) (A) (A) (A)
                 (A) (A) (A) (A) (A) (A) (A) (A) (A) (A) (A) (A)
                 (A) (A) (A) (A) (A) (A) (A) (A) (A) (A) (A) (A)
                 (A) (A) (A) (A) (A) (A) (A) (A) (A) (A) (A) (A)
                 (A) (A) (A) (A) (A) (A) (A) (A) (A) (A) (A) (A)
                 (A) (A) (A) (A) (A) (A) (A) (A) (A) (A) (A) (A)
                 (A) (A) (A) (A) (A) (A) (A) (A) (A) (A) (A) (A)
                 (A) (A) (A) (A) (A) (A) (A) (A) (A) (A) (A) (A)
                 (A) (A) (A) (A) (A) (A) (A) (A) (A) (A) (A) (A)
                 (A) (A) (A) (A) (A) (A) (A) (A) (A) (A) (A) (A)
                 (A) (A) (A) (A) (A) (A) (A) (A) (A) (A) (A) (A)
                 (A) (A) (A) (A) (A) (A) (A) (A) (A) (A) (A) (A)
                 (A) (A) (A) (A) (A) (A) (A) (A) (A) (A) (A) (A)
                 (A) (A) (A) (A) (A) (A) (A) (A)
 The electronic state is 1-A.
 Alpha  occ. eigenvalues --  -19.14011 -14.34048 -14.32905 -14.31598 -10.27836
 Alpha  occ. eigenvalues --  -10.19788  -1.03449  -0.95686  -0.85766  -0.76351
 Alpha  occ. eigenvalues --   -0.68207  -0.58270  -0.53383  -0.50271  -0.46051
 Alpha  occ. eigenvalues --   -0.45424  -0.44309  -0.41694  -0.39541  -0.38100
 Alpha  occ. eigenvalues --   -0.34834  -0.29739  -0.24573  -0.24263  -0.21694
 Alpha virt. eigenvalues --    0.05131   0.08199   0.11148   0.13213   0.14475
 Alpha virt. eigenvalues --    0.15394   0.17091   0.17753   0.18264   0.19139
 Alpha virt. eigenvalues --    0.24053   0.25485   0.26817   0.28463   0.44042
 Alpha virt. eigenvalues --    0.45237   0.48588   0.50337   0.53609   0.54817
 Alpha virt. eigenvalues --    0.58830   0.60301   0.62233   0.62730   0.65200
 Alpha virt. eigenvalues --    0.67844   0.70005   0.71189   0.71816   0.73102
 Alpha virt. eigenvalues --    0.74571   0.75641   0.77550   0.78492   0.82194
 Alpha virt. eigenvalues --    0.83245   0.85387   0.86328   0.87383   0.87760
 Alpha virt. eigenvalues --    0.90035   0.91622   0.92688   0.96395   0.97800
 Alpha virt. eigenvalues --    1.03785   1.04935   1.12112   1.18660   1.19175
 Alpha virt. eigenvalues --    1.26134   1.28211   1.33774   1.38080   1.40136
 Alpha virt. eigenvalues --    1.43278   1.46674   1.48448   1.49401   1.50925
 Alpha virt. eigenvalues --    1.55691   1.63168   1.64390   1.66495   1.69723
 Alpha virt. eigenvalues --    1.72282   1.73467   1.78112   1.83372   1.84715
 Alpha virt. eigenvalues --    1.88449   1.93420   1.94160   1.95820   2.02970
 Alpha virt. eigenvalues --    2.06255   2.12131   2.15343   2.18699   2.21509
 Alpha virt. eigenvalues --    2.32724   2.36529   2.40800   2.43425   2.49785
 Alpha virt. eigenvalues --    2.51902   2.54416   2.60304   2.63998   2.65210
 Alpha virt. eigenvalues --    2.72515   2.75836   2.79223   2.80786   2.83308
 Alpha virt. eigenvalues --    2.84810   2.86606   2.90266   2.90535   2.91938
 Alpha virt. eigenvalues --    2.94369   2.96356   2.99673   3.00718   3.11443
 Alpha virt. eigenvalues --    3.17829   3.21596   3.29873   3.31182   3.35486
 Alpha virt. eigenvalues --    3.37480   3.40917   3.44832   3.46949   3.54427
 Alpha virt. eigenvalues --    3.64179   3.67059   3.68218   3.73321   3.80554
 Alpha virt. eigenvalues --    3.87488   3.91210   3.93741   3.98090   4.01356
 Alpha virt. eigenvalues --    4.06491   4.09819   4.13083   4.17018   4.20492
 Alpha virt. eigenvalues --    4.21719   4.26027   4.27358   4.32682   4.34554
 Alpha virt. eigenvalues --    4.36350   4.37948   4.40369   4.42910   4.44986
 Alpha virt. eigenvalues --    4.46104   4.46331   4.51376   4.54783   4.56545
 Alpha virt. eigenvalues --    4.57625   4.61860   4.63344   4.67005   4.69197
 Alpha virt. eigenvalues --    4.71493   4.73586   4.74507   4.76409   4.79515
 Alpha virt. eigenvalues --    4.83778   4.87329   4.88513   4.97914   5.02338
 Alpha virt. eigenvalues --    5.03168   5.08226   5.09589   5.14516   5.23498
 Alpha virt. eigenvalues --    5.29168   5.31250   5.37547   5.39275   5.43555
 Alpha virt. eigenvalues --    5.47845   5.52136   5.56015   5.59700   5.76163
 Alpha virt. eigenvalues --    5.99478   6.02664   6.14529   7.09889   8.75480
 Alpha virt. eigenvalues --    9.81214  11.23081  11.42350  11.49064  11.63865
 Alpha virt. eigenvalues --   12.77191  13.50788  15.17805
          Condensed to atoms (all electrons):
               1          2          3          4          5          6
     1  C    5.037101   0.387632  -0.092836  -0.068174  -0.012061  -0.001137
     2  N    0.387632   6.291599   0.323669   0.372865  -0.057397  -0.034959
     3  N   -0.092836   0.323669   6.616709  -0.051729  -0.002910   0.000902
     4  C   -0.068174   0.372865  -0.051729   4.628018   0.344428   0.369209
     5  N   -0.012061  -0.057397  -0.002910   0.344428   6.725630  -0.095390
     6  O   -0.001137  -0.034959   0.000902   0.369209  -0.095390   7.901895
     7  H    0.344926  -0.044325  -0.001282   0.001421   0.008517  -0.000626
     8  H    0.354551  -0.019453   0.006253   0.000883  -0.000869   0.006308
     9  H    0.376637  -0.026130   0.001432   0.002994  -0.000016   0.000168
    10  H   -0.011220  -0.060104   0.316948  -0.000897   0.013771  -0.000177
    11  H   -0.001334  -0.047681   0.341315   0.004238   0.000059  -0.000035
    12  H    0.007337  -0.031493   0.005341   0.360540  -0.051586  -0.028898
    13  H    0.000227   0.006208  -0.000082  -0.042568   0.321832   0.002761
    14  H    0.003587  -0.000841  -0.000062  -0.040230   0.313883   0.005990
    15  H   -0.000057   0.006332  -0.000236  -0.055168   0.009245   0.296193
               7          8          9         10         11         12
     1  C    0.344926   0.354551   0.376637  -0.011220  -0.001334   0.007337
     2  N   -0.044325  -0.019453  -0.026130  -0.060104  -0.047681  -0.031493
     3  N   -0.001282   0.006253   0.001432   0.316948   0.341315   0.005341
     4  C    0.001421   0.000883   0.002994  -0.000897   0.004238   0.360540
     5  N    0.008517  -0.000869  -0.000016   0.013771   0.000059  -0.051586
     6  O   -0.000626   0.006308   0.000168  -0.000177  -0.000035  -0.028898
     7  H    0.656579  -0.032661  -0.043090   0.017992  -0.001050  -0.000206
     8  H   -0.032661   0.575813  -0.025740   0.000013   0.000019   0.000198
     9  H   -0.043090  -0.025740   0.597077  -0.001390   0.004903  -0.000152
    10  H    0.017992   0.000013  -0.001390   0.547238  -0.039635  -0.001023
    11  H   -0.001050   0.000019   0.004903  -0.039635   0.502094  -0.000182
    12  H   -0.000206   0.000198  -0.000152  -0.001023  -0.000182   0.658590
    13  H   -0.000478  -0.000012   0.000005  -0.000686   0.000016  -0.005906
    14  H   -0.001814   0.001238  -0.000033  -0.000581  -0.000013   0.006996
    15  H   -0.000028  -0.000250   0.000005   0.000004   0.000006  -0.008216
              13         14         15
     1  C    0.000227   0.003587  -0.000057
     2  N    0.006208  -0.000841   0.006332
     3  N   -0.000082  -0.000062  -0.000236
     4  C   -0.042568  -0.040230  -0.055168
     5  N    0.321832   0.313883   0.009245
     6  O    0.002761   0.005990   0.296193
     7  H   -0.000478  -0.001814  -0.000028
     8  H   -0.000012   0.001238  -0.000250
     9  H    0.000005  -0.000033   0.000005
    10  H   -0.000686  -0.000581   0.000004
    11  H    0.000016  -0.000013   0.000006
    12  H   -0.005906   0.006996  -0.008216
    13  H    0.524124  -0.027382   0.003110
    14  H   -0.027382   0.510892   0.000657
    15  H    0.003110   0.000657   0.464089
 Mulliken charges:
               1
     1  C   -0.325180
     2  N   -0.065921
     3  N   -0.463432
     4  C    0.174168
     5  N   -0.517136
     6  O   -0.422204
     7  H    0.096125
     8  H    0.133708
     9  H    0.113330
    10  H    0.219746
    11  H    0.237279
    12  H    0.088659
    13  H    0.218832
    14  H    0.227713
    15  H    0.284315
 Sum of Mulliken charges =  -0.00000
 Mulliken charges with hydrogens summed into heavy atoms:
               1
     1  C    0.017982
     2  N   -0.065921
     3  N   -0.006407
     4  C    0.262827
     5  N   -0.070592
     6  O   -0.137890
 Electronic spatial extent (au):  <R**2>=            595.5307
 Charge=             -0.0000 electrons
 Dipole moment (field-independent basis, Debye):
    X=             -1.1921    Y=             -0.2665    Z=              1.2865  Tot=              1.7741
 Quadrupole moment (field-independent basis, Debye-Ang):
   XX=            -26.5064   YY=            -40.6281   ZZ=            -38.2746
   XY=              3.5396   XZ=              0.9616   YZ=              1.2934
 Traceless Quadrupole moment (field-independent basis, Debye-Ang):
   XX=              8.6300   YY=             -5.4917   ZZ=             -3.1382
   XY=              3.5396   XZ=              0.9616   YZ=              1.2934
 Octapole moment (field-independent basis, Debye-Ang**2):
  XXX=            -12.6984  YYY=              2.9849  ZZZ=              1.2751  XYY=             -2.8389
  XXY=             -6.3014  XXZ=             -3.6534  XZZ=             -5.6975  YZZ=              0.5173
  YYZ=              1.5581  XYZ=             -2.5083
 Hexadecapole moment (field-independent basis, Debye-Ang**3):
 XXXX=           -290.1499 YYYY=           -213.7423 ZZZZ=           -138.3293 XXXY=             -2.0510
 XXXZ=              0.1351 YYYX=              3.8966 YYYZ=             -3.1252 ZZZX=             -2.8365
 ZZZY=             -0.9625 XXYY=            -94.9972 XXZZ=            -81.0364 YYZZ=            -64.4914
 XXYZ=             -6.0004 YYXZ=              2.6039 ZZXY=             -0.4280
 N-N= 2.729718103812D+02 E-N=-1.296483683815D+03  KE= 3.185266620808D+02
 No NMR shielding tensors so no spin-rotation constants.
 Leave Link  601 at Fri Aug 26 14:20:43 2022, MaxMem= 24159191040 cpu:        13.1
 (Enter /public/home/users/caep010/software/Gaussian09/g09/l701.exe)
 Compute integral first derivatives.
 ... and contract with generalized density number  0.
 Leave Link  701 at Fri Aug 26 14:20:44 2022, MaxMem= 24159191040 cpu:        14.1
 (Enter /public/home/users/caep010/software/Gaussian09/g09/l702.exe)
 L702 exits ... SP integral derivatives will be done elsewhere.
 Leave Link  702 at Fri Aug 26 14:20:44 2022, MaxMem= 24159191040 cpu:         0.6
 (Enter /public/home/users/caep010/software/Gaussian09/g09/l703.exe)
 Compute integral first derivatives, UseDBF=F ICtDFT=           0.
 Integral derivatives from FoFJK, PRISM(SPDF).
 Calling FoFJK, ICntrl=      2127 FMM=F ISym2X=0 I1Cent= 0 IOpClX= 0 NMat=1 NMatS=1 NMatT=0.
 FoFJK:  IHMeth= 1 ICntrl=    2127 DoSepK=F KAlg= 0 I1Cent=   0 FoldK=F
 IRaf=         0 NMat=   1 IRICut=       1 DoRegI=T DoRafI=F ISym2E= 0.
 FoFCou: FMM=F IPFlag=           0 FMFlag=      100000 FMFlg1=         800
         NFxFlg=           0 DoJE=F BraDBF=F KetDBF=F FulRan=T
         wScrn=  0.000000 ICntrl=    2127 IOpCl=  0 I1Cent=           0 NGrid=           0
         NMat0=    1 NMatS0=      1 NMatT0=    0 NMatD0=    1 NMtDS0=    0 NMtDT0=    0
 Symmetry not used in FoFCou.
 Leave Link  703 at Fri Aug 26 14:20:45 2022, MaxMem= 24159191040 cpu:        47.7
 (Enter /public/home/users/caep010/software/Gaussian09/g09/l716.exe)
 Dipole        =-4.69027344D-01-1.04846923D-01 5.06154781D-01
 ***** Axes restored to original set *****
 -------------------------------------------------------------------
 Center     Atomic                   Forces (Hartrees/Bohr)
 Number     Number              X              Y              Z
 -------------------------------------------------------------------
      1        6          -0.000490793    0.010601530   -0.001160703
      2        7          -0.003721782    0.015524627    0.008762490
      3        7           0.010319478   -0.017023982    0.003158799
      4        6          -0.002990193   -0.013443675   -0.001730701
      5        7          -0.020425849    0.002844323    0.004150285
      6        8          -0.013664840    0.013436395   -0.011254576
      7        1           0.003361432    0.002505139   -0.003249871
      8        1           0.000758454   -0.010254315   -0.001055689
      9        1          -0.010600216   -0.000969292   -0.001885437
     10        1           0.005624668    0.008181256   -0.014229419
     11        1          -0.023471634    0.003763262    0.003864657
     12        1           0.007539369   -0.002230865    0.013652763
     13        1           0.020525943    0.001257933    0.009654522
     14        1          -0.000126747   -0.012621480   -0.018787395
     15        1           0.027362712   -0.001570855    0.010110274
 -------------------------------------------------------------------
 Cartesian Forces:  Max     0.027362712 RMS     0.010795010
 Leave Link  716 at Fri Aug 26 14:20:45 2022, MaxMem= 24159191040 cpu:         0.8
 (Enter /public/home/users/caep010/software/Gaussian09/g09/l103.exe)

 GradGradGradGradGradGradGradGradGradGradGradGradGradGradGradGradGradGrad
 Berny optimization.
 FormGI is forming the generalized inverse of G from B-inverse, IUseBI=4.
 Internal  Forces:  Max     0.029207647 RMS     0.008951924
 Search for a local minimum.
 Step number   1 out of a maximum of   71
 All quantities printed in internal units (Hartrees-Bohrs-Radians)
 RMS Force = .89519D-02 SwitMx=.10000D-02 MixMth= 1
 Mixed Optimization -- RFO/linear search
 Second derivative matrix not updated -- first step.
 ITU=  0
     Eigenvalues ---    0.00676   0.00693   0.00790   0.01110   0.01619
     Eigenvalues ---    0.02947   0.04650   0.05873   0.05907   0.06453
     Eigenvalues ---    0.07108   0.07433   0.08301   0.16000   0.16000
     Eigenvalues ---    0.16000   0.16000   0.16000   0.16000   0.16000
     Eigenvalues ---    0.16000   0.17434   0.18328   0.18591   0.20241
     Eigenvalues ---    0.31914   0.32448   0.32539   0.32551   0.34936
     Eigenvalues ---    0.35088   0.35962   0.40189   0.40448   0.40449
     Eigenvalues ---    0.40460   0.43384   0.44720   0.48968
 RFO step:  Lambda=-1.60021180D-02 EMin= 6.75547080D-03
 Linear search not attempted -- first point.
 Iteration  1 RMS(Cart)=  0.07260043 RMS(Int)=  0.00161830
 Iteration  2 RMS(Cart)=  0.00221824 RMS(Int)=  0.00074050
 Iteration  3 RMS(Cart)=  0.00000243 RMS(Int)=  0.00074050
 Iteration  4 RMS(Cart)=  0.00000000 RMS(Int)=  0.00074050
 ITry= 1 IFail=0 DXMaxC= 2.71D-01 DCOld= 1.00D+10 DXMaxT= 3.00D-01 DXLimC= 3.00D+00 Rises=F
 Variable       Old X    -DE/DX   Delta X   Delta X   Delta X     New X
                                 (Linear)    (Quad)   (Total)
    R1        2.78832  -0.00786   0.00000  -0.02142  -0.02142   2.76690
    R2        2.10032  -0.00502   0.00000  -0.01475  -0.01475   2.08557
    R3        2.09848  -0.01019   0.00000  -0.02985  -0.02985   2.06863
    R4        2.09868  -0.01055   0.00000  -0.03089  -0.03089   2.06779
    R5        2.67199   0.00359   0.00000   0.00798   0.00798   2.67997
    R6        2.79079  -0.02022   0.00000  -0.05535  -0.05535   2.73545
    R7        1.97997  -0.01729   0.00000  -0.04136  -0.04136   1.93861
    R8        1.97633  -0.02402   0.00000  -0.05710  -0.05710   1.91924
    R9        2.77441  -0.00034   0.00000  -0.00091  -0.00091   2.77350
   R10        2.65603   0.00882   0.00000   0.01905   0.01905   2.67507
   R11        2.11001  -0.01250   0.00000  -0.03729  -0.03729   2.07272
   R12        1.97649  -0.02249   0.00000  -0.05350  -0.05350   1.92299
   R13        1.97647  -0.02250   0.00000  -0.05350  -0.05350   1.92297
   R14        1.87621  -0.02921   0.00000  -0.05776  -0.05776   1.81845
    A1        1.95129   0.00281   0.00000   0.01620   0.01624   1.96752
    A2        1.92741  -0.00157   0.00000  -0.00752  -0.00757   1.91984
    A3        1.91181  -0.00352   0.00000  -0.02158  -0.02159   1.89022
    A4        1.90577  -0.00001   0.00000   0.00285   0.00285   1.90862
    A5        1.89169  -0.00013   0.00000  -0.00333  -0.00326   1.88843
    A6        1.87392   0.00244   0.00000   0.01341   0.01331   1.88723
    A7        1.92975   0.01073   0.00000   0.06137   0.06146   1.99121
    A8        1.97973  -0.00160   0.00000  -0.00401  -0.00358   1.97616
    A9        1.90634  -0.00840   0.00000  -0.03914  -0.03928   1.86706
   A10        1.92634  -0.00058   0.00000  -0.00786  -0.00800   1.91835
   A11        1.88440  -0.00307   0.00000  -0.02226  -0.02241   1.86199
   A12        1.88689  -0.00008   0.00000  -0.01030  -0.01061   1.87628
   A13        1.94559   0.00504   0.00000   0.01288   0.01390   1.95949
   A14        1.91564  -0.01731   0.00000  -0.08560  -0.08531   1.83034
   A15        1.88140  -0.00107   0.00000  -0.03764  -0.03721   1.84419
   A16        1.92828   0.01275   0.00000   0.07229   0.07176   2.00005
   A17        1.89828  -0.00614   0.00000  -0.02825  -0.03028   1.86800
   A18        1.89322   0.00659   0.00000   0.06598   0.06384   1.95706
   A19        1.88688   0.00569   0.00000   0.03088   0.03099   1.91787
   A20        1.90474  -0.00404   0.00000  -0.02440  -0.02429   1.88045
   A21        1.85532  -0.00123   0.00000  -0.01024  -0.00999   1.84532
   A22        1.86187   0.00045   0.00000   0.00257   0.00257   1.86444
    D1       -1.00173   0.00294   0.00000   0.02808   0.02796  -0.97377
    D2        1.14654  -0.00107   0.00000   0.02055   0.02073   1.16727
    D3       -3.12741   0.00212   0.00000   0.01860   0.01848  -3.10892
    D4       -0.97914  -0.00190   0.00000   0.01107   0.01126  -0.96788
    D5        1.09545   0.00223   0.00000   0.01989   0.01967   1.11512
    D6       -3.03946  -0.00179   0.00000   0.01236   0.01244  -3.02702
    D7        0.84131  -0.00159   0.00000  -0.01759  -0.01777   0.82354
    D8       -1.21767   0.00066   0.00000   0.01246   0.01202  -1.20565
    D9       -1.34900  -0.00106   0.00000  -0.02741  -0.02697  -1.37597
   D10        2.87521   0.00119   0.00000   0.00264   0.00282   2.87803
   D11       -1.02540  -0.00735   0.00000  -0.04764  -0.04768  -1.07308
   D12        1.11684   0.00020   0.00000  -0.00676  -0.00767   1.10917
   D13       -3.10749  -0.00212   0.00000   0.00315   0.00411  -3.10338
   D14        1.13569  -0.00087   0.00000  -0.00022  -0.00028   1.13541
   D15       -3.00525   0.00668   0.00000   0.04066   0.03973  -2.96552
   D16       -0.94640   0.00436   0.00000   0.05056   0.05151  -0.89488
   D17       -2.84501  -0.00230   0.00000   0.01739   0.01732  -2.82769
   D18        1.42725  -0.00178   0.00000   0.02570   0.02577   1.45301
   D19        1.30319   0.00738   0.00000   0.06712   0.06662   1.36981
   D20       -0.70774   0.00790   0.00000   0.07542   0.07507  -0.63267
   D21       -0.77297  -0.00448   0.00000  -0.03915  -0.03879  -0.81176
   D22       -2.78390  -0.00396   0.00000  -0.03084  -0.03034  -2.81425
   D23        2.93064  -0.00307   0.00000  -0.00849  -0.00875   2.92189
   D24       -1.20009   0.00008   0.00000  -0.00187  -0.00472  -1.20481
   D25        0.87914   0.00417   0.00000   0.04686   0.04997   0.92911
         Item               Value     Threshold  Converged?
 Maximum Force            0.029208     0.000450     NO 
 RMS     Force            0.008952     0.000300     NO 
 Maximum Displacement     0.271240     0.001800     NO 
 RMS     Displacement     0.072459     0.001200     NO 
 Predicted change in Energy=-8.616100D-03
 Lowest energy point so far.  Saving SCF results.
 GradGradGradGradGradGradGradGradGradGradGradGradGradGradGradGradGradGrad

 Leave Link  103 at Fri Aug 26 14:20:46 2022, MaxMem= 24159191040 cpu:         3.1
 (Enter /public/home/users/caep010/software/Gaussian09/g09/l202.exe)
                          Input orientation:                          
 ---------------------------------------------------------------------
 Center     Atomic      Atomic             Coordinates (Angstroms)
 Number     Number       Type             X           Y           Z
 ---------------------------------------------------------------------
      1          6           0        1.219529    0.597313    0.743445
      2          7           0        0.721694   -0.032503   -0.481017
      3          7           0        0.995964   -1.421034   -0.570449
      4          6           0       -0.704701    0.129346   -0.666923
      5          7           0       -1.480249   -0.487301    0.415825
      6          8           0       -0.896621    1.524719   -0.808297
      7          1           0        0.842719    0.108153    1.658187
      8          1           0        0.943604    1.656533    0.758474
      9          1           0        2.311677    0.529894    0.744958
     10          1           0        0.750792   -1.883167    0.312007
     11          1           0        1.999802   -1.512565   -0.694574
     12          1           0       -0.947264   -0.416424   -1.586894
     13          1           0       -2.444468   -0.619935    0.118824
     14          1           0       -1.517810    0.175720    1.186856
     15          1           0       -1.794566    1.651151   -1.130321
 ---------------------------------------------------------------------
                    Distance matrix (angstroms):
                    1          2          3          4          5
     1  C    0.000000
     2  N    1.464178   0.000000
     3  N    2.418683   1.418182   0.000000
     4  C    2.431212   1.447535   2.303312   0.000000
     5  N    2.927887   2.420686   2.824221   1.467675   0.000000
     6  O    2.783177   2.269580   3.509403   1.415587   2.426380
     7  H    1.103637   2.147237   2.707160   2.793043   2.700779
     8  H    1.094671   2.106757   3.352640   2.661009   3.253997
     9  H    1.094228   2.085031   2.695834   3.354457   3.939761
    10  H    2.560983   2.013626   1.025868   2.669638   2.633773
    11  H    2.669890   1.967168   1.015616   3.164012   3.794062
    12  H    3.339631   2.038573   2.412164   1.096836   2.073639
    13  H    3.911102   3.275586   3.599087   2.050757   1.017605
    14  H    2.804885   2.800096   3.457861   2.024794   1.017593
    15  H    3.702208   3.096426   4.187939   1.928325   2.657507
                    6          7          8          9         10
     6  O    0.000000
     7  H    3.333992   0.000000
     8  H    2.420449   1.793638   0.000000
     9  H    3.700736   1.780362   1.772320   0.000000
    10  H    3.947497   2.405412   3.572951   2.906316   0.000000
    11  H    4.198487   3.082377   3.642812   2.518166   1.646383
    12  H    2.092084   3.742962   3.656950   4.117493   2.939482
    13  H    2.802663   3.702073   4.131645   4.933058   3.441331
    14  H    2.487228   2.408073   2.904286   3.871135   3.186053
    15  H    0.962284   4.136652   3.326432   4.651357   4.588089
                   11         12         13         14         15
    11  H    0.000000
    12  H    3.268480   0.000000
    13  H    4.605424   2.278707   0.000000
    14  H    4.331706   2.893068   1.622484   0.000000
    15  H    4.959456   2.280624   2.672184   2.760941   0.000000
 Stoichiometry    C2H9N3O
 Framework group  C1[X(C2H9N3O)]
 Deg. of freedom    39
 Full point group                 C1      NOp   1
 RotChk:  IX=0 Diff= 5.79D-02
 Largest Abelian subgroup         C1      NOp   1
 Largest concise Abelian subgroup C1      NOp   1
                         Standard orientation:                         
 ---------------------------------------------------------------------
 Center     Atomic      Atomic             Coordinates (Angstroms)
 Number     Number       Type             X           Y           Z
 ---------------------------------------------------------------------
      1          6           0        0.974232    1.155941    0.683511
      2          7           0        0.671734    0.241693   -0.419423
      3          7           0        1.547769   -0.870167   -0.506435
      4          6           0       -0.675807   -0.284778   -0.371237
      5          7           0       -0.924076   -1.067289    0.845360
      6          8           0       -1.513345    0.845969   -0.525599
      7          1           0        0.993145    0.649754    1.664037
      8          1           0        0.240631    1.968042    0.708538
      9          1           0        1.961127    1.593932    0.505924
     10          1           0        1.664962   -1.295963    0.419507
     11          1           0        2.452161   -0.507134   -0.792369
     12          1           0       -0.754227   -0.975938   -1.219292
     13          1           0       -1.744573   -1.655407    0.717211
     14          1           0       -1.164953   -0.415999    1.589198
     15          1           0       -2.400049    0.514330   -0.698120
 ---------------------------------------------------------------------
 Rotational constants (GHZ):      4.7827405      3.0254133      2.5409771
 Leave Link  202 at Fri Aug 26 14:20:46 2022, MaxMem= 24159191040 cpu:         0.3
 (Enter /public/home/users/caep010/software/Gaussian09/g09/l301.exe)
 Standard basis: GTBas3 (6D, 7F)
 Ernie: Thresh=  0.10000D-02 Tol=  0.10000D-05 Strict=F.
 There are   231 symmetry adapted cartesian basis functions of A   symmetry.
 There are   213 symmetry adapted basis functions of A   symmetry.
   213 basis functions,   327 primitive gaussians,   231 cartesian basis functions
    25 alpha electrons       25 beta electrons
       nuclear repulsion energy       275.6437185533 Hartrees.
 IExCor=  402 DFT=T Ex+Corr=B3LYP ExCW=0 ScaHFX=  0.200000
 ScaDFX=  0.800000  0.720000  1.000000  0.810000 ScalE2=  1.000000  1.000000
 IRadAn=      0 IRanWt=     -1 IRanGd=            0 ICorTp=0 IEmpDi=  4
 NAtoms=   15 NActive=   15 NUniq=   15 SFac= 1.00D+00 NAtFMM=   60 NAOKFM=F Big=F
 Integral buffers will be    131072 words long.
 Raffenetti 2 integral format.
 Two-electron integral symmetry is turned on.
 Leave Link  301 at Fri Aug 26 14:20:46 2022, MaxMem= 24159191040 cpu:         1.8
 (Enter /public/home/users/caep010/software/Gaussian09/g09/l302.exe)
 NPDir=0 NMtPBC=     1 NCelOv=     1 NCel=       1 NClECP=     1 NCelD=      1
         NCelK=      1 NCelE2=     1 NClLst=     1 CellRange=     0.0.
 One-electron integrals computed using PRISM.
 NBasis=   213 RedAO= T EigKep=  3.35D-04  NBF=   213
 NBsUse=   213 1.00D-06 EigRej= -1.00D+00 NBFU=   213
 Precomputing XC quadrature grid using
 IXCGrd= 4 IRadAn=           0 IRanWt=          -1 IRanGd=           0 AccXCQ= 0.00D+00.
 Generated NRdTot=       0 NPtTot=           0 NUsed=           0 NTot=          32
 NSgBfM=   231   231   231   231   231 MxSgAt=    15 MxSgA2=    15.
 Leave Link  302 at Fri Aug 26 14:20:46 2022, MaxMem= 24159191040 cpu:        15.1
 (Enter /public/home/users/caep010/software/Gaussian09/g09/l303.exe)
 DipDrv:  MaxL=1.
 Leave Link  303 at Fri Aug 26 14:20:46 2022, MaxMem= 24159191040 cpu:         0.7
 (Enter /public/home/users/caep010/software/Gaussian09/g09/l401.exe)
 Initial guess from the checkpoint file:  "G4.Frag_1055.chk"
 B after Tr=     0.000000    0.000000   -0.000000
         Rot=    0.999777   -0.019485    0.006724   -0.004573 Ang=  -2.42 deg.
 Guess basis will be translated and rotated to current coordinates.
 JPrj=2 DoOrth=T DoCkMO=T.
 Generating alternative initial guess.
 ExpMin= 1.61D-01 ExpMax= 5.48D+03 ExpMxC= 8.25D+02 IAcc=1 IRadAn=         1 AccDes= 0.00D+00
 Harris functional with IExCor=  402 and IRadAn=       1 diagonalized for initial guess.
 HarFok:  IExCor=  402 AccDes= 0.00D+00 IRadAn=         1 IDoV= 1 UseB2=F ITyADJ=14
 ICtDFT=  3500011 ScaDFX=  1.000000  1.000000  1.000000  1.000000
 FoFCou: FMM=F IPFlag=           0 FMFlag=      100000 FMFlg1=           0
         NFxFlg=           0 DoJE=T BraDBF=F KetDBF=T FulRan=T
         wScrn=  0.000000 ICntrl=     500 IOpCl=  0 I1Cent=   200000004 NGrid=           0
         NMat0=    1 NMatS0=      1 NMatT0=    0 NMatD0=    1 NMtDS0=    0 NMtDT0=    0
 Petite list used in FoFCou.
 Harris En= -321.086068908262    
 Leave Link  401 at Fri Aug 26 14:20:47 2022, MaxMem= 24159191040 cpu:        29.9
 (Enter /public/home/users/caep010/software/Gaussian09/g09/l502.exe)
 Closed shell SCF:
 Using DIIS extrapolation, IDIIS=  1040.
 Integral symmetry usage will be decided dynamically.
 Keep R1 ints in memory in canonical form, NReq=266157421.
 IVT=      187717 IEndB=      187717 NGot= 24159191040 MDV= 23899277088
 LenX= 23899277088 LenY= 23899223286
 Requested convergence on RMS density matrix=1.00D-08 within 128 cycles.
 Requested convergence on MAX density matrix=1.00D-06.
 Requested convergence on             energy=1.00D-06.
 No special actions if energy rises.
 FoFCou: FMM=F IPFlag=           0 FMFlag=           0 FMFlg1=           0
         NFxFlg=           0 DoJE=F BraDBF=F KetDBF=F FulRan=T
         wScrn=  0.000000 ICntrl=     600 IOpCl=  0 I1Cent=           0 NGrid=           0
         NMat0=    1 NMatS0=  22791 NMatT0=    0 NMatD0=    1 NMtDS0=    0 NMtDT0=    0
 Symmetry not used in FoFCou.
 Integral accuracy reduced to 1.0D-05 until final iterations.

 Cycle   1  Pass 0  IDiag  1:
 E= -321.076395318592    
 DIIS: error= 1.88D-03 at cycle   1 NSaved=   1.
 NSaved= 1 IEnMin= 1 EnMin= -321.076395318592     IErMin= 1 ErrMin= 1.88D-03
 ErrMax= 1.88D-03  0.00D+00 EMaxC= 1.00D-01 BMatC= 4.11D-03 BMatP= 4.11D-03
 IDIUse=3 WtCom= 9.81D-01 WtEn= 1.88D-02
 Coeff-Com:  0.100D+01
 Coeff-En:   0.100D+01
 Coeff:      0.100D+01
 Gap=     1.030 Goal=   None    Shift=    0.000
 GapD=    1.030 DampG=2.000 DampE=1.000 DampFc=2.0000 IDamp=-1.
 RMSDP=4.70D-04 MaxDP=1.03D-02              OVMax= 1.98D-02

 Cycle   2  Pass 0  IDiag  1:
 E= -321.081134680594     Delta-E=       -0.004739362002 Rises=F Damp=F
 DIIS: error= 8.10D-04 at cycle   2 NSaved=   2.
 NSaved= 2 IEnMin= 2 EnMin= -321.081134680594     IErMin= 2 ErrMin= 8.10D-04
 ErrMax= 8.10D-04  0.00D+00 EMaxC= 1.00D-01 BMatC= 2.86D-04 BMatP= 4.11D-03
 IDIUse=3 WtCom= 9.92D-01 WtEn= 8.10D-03
 Coeff-Com:  0.669D-01 0.933D+00
 Coeff-En:   0.000D+00 0.100D+01
 Coeff:      0.664D-01 0.934D+00
 Gap=     0.276 Goal=   None    Shift=    0.000
 RMSDP=1.62D-04 MaxDP=5.48D-03 DE=-4.74D-03 OVMax= 5.45D-03

 Cycle   3  Pass 0  IDiag  1:
 E= -321.081119569980     Delta-E=        0.000015110614 Rises=F Damp=F
 DIIS: error= 9.26D-04 at cycle   3 NSaved=   3.
 NSaved= 3 IEnMin= 2 EnMin= -321.081134680594     IErMin= 2 ErrMin= 8.10D-04
 ErrMax= 9.26D-04  0.00D+00 EMaxC= 1.00D-01 BMatC= 3.26D-04 BMatP= 2.86D-04
 IDIUse=3 WtCom= 2.47D-01 WtEn= 7.53D-01
 Coeff-Com: -0.189D-01 0.523D+00 0.495D+00
 Coeff-En:   0.000D+00 0.513D+00 0.487D+00
 Coeff:     -0.467D-02 0.516D+00 0.489D+00
 Gap=     0.278 Goal=   None    Shift=    0.000
 RMSDP=8.98D-05 MaxDP=3.59D-03 DE= 1.51D-05 OVMax= 3.28D-03

 Cycle   4  Pass 0  IDiag  1:
 E= -321.081401568275     Delta-E=       -0.000281998295 Rises=F Damp=F
 DIIS: error= 1.05D-04 at cycle   4 NSaved=   4.
 NSaved= 4 IEnMin= 4 EnMin= -321.081401568275     IErMin= 4 ErrMin= 1.05D-04
 ErrMax= 1.05D-04  0.00D+00 EMaxC= 1.00D-01 BMatC= 4.39D-06 BMatP= 2.86D-04
 IDIUse=3 WtCom= 9.99D-01 WtEn= 1.05D-03
 Coeff-Com: -0.973D-02 0.141D+00 0.177D+00 0.692D+00
 Coeff-En:   0.000D+00 0.000D+00 0.000D+00 0.100D+01
 Coeff:     -0.972D-02 0.140D+00 0.177D+00 0.692D+00
 Gap=     0.278 Goal=   None    Shift=    0.000
 RMSDP=1.24D-05 MaxDP=4.49D-04 DE=-2.82D-04 OVMax= 5.75D-04

 Cycle   5  Pass 0  IDiag  1:
 E= -321.081404131646     Delta-E=       -0.000002563371 Rises=F Damp=F
 DIIS: error= 4.54D-05 at cycle   5 NSaved=   5.
 NSaved= 5 IEnMin= 5 EnMin= -321.081404131646     IErMin= 5 ErrMin= 4.54D-05
 ErrMax= 4.54D-05  0.00D+00 EMaxC= 1.00D-01 BMatC= 1.35D-06 BMatP= 4.39D-06
 IDIUse=1 WtCom= 1.00D+00 WtEn= 0.00D+00
 Coeff-Com: -0.394D-02 0.283D-01 0.526D-01 0.403D+00 0.520D+00
 Coeff:     -0.394D-02 0.283D-01 0.526D-01 0.403D+00 0.520D+00
 Gap=     0.278 Goal=   None    Shift=    0.000
 RMSDP=5.40D-06 MaxDP=1.95D-04 DE=-2.56D-06 OVMax= 2.22D-04

 Initial convergence to 1.0D-05 achieved.  Increase integral accuracy.
 Cycle   6  Pass 1  IDiag  1:
 E= -321.081433895037     Delta-E=       -0.000029763390 Rises=F Damp=F
 DIIS: error= 2.22D-05 at cycle   1 NSaved=   1.
 NSaved= 1 IEnMin= 1 EnMin= -321.081433895037     IErMin= 1 ErrMin= 2.22D-05
 ErrMax= 2.22D-05  0.00D+00 EMaxC= 1.00D-01 BMatC= 1.46D-07 BMatP= 1.46D-07
 IDIUse=1 WtCom= 1.00D+00 WtEn= 0.00D+00
 Coeff-Com:  0.100D+01
 Coeff:      0.100D+01
 Gap=     0.278 Goal=   None    Shift=    0.000
 RMSDP=5.40D-06 MaxDP=1.95D-04 DE=-2.98D-05 OVMax= 7.60D-05

 Cycle   7  Pass 1  IDiag  1:
 E= -321.081433968168     Delta-E=       -0.000000073132 Rises=F Damp=F
 DIIS: error= 1.34D-05 at cycle   2 NSaved=   2.
 NSaved= 2 IEnMin= 2 EnMin= -321.081433968168     IErMin= 2 ErrMin= 1.34D-05
 ErrMax= 1.34D-05  0.00D+00 EMaxC= 1.00D-01 BMatC= 6.74D-08 BMatP= 1.46D-07
 IDIUse=1 WtCom= 1.00D+00 WtEn= 0.00D+00
 Coeff-Com:  0.365D+00 0.635D+00
 Coeff:      0.365D+00 0.635D+00
 Gap=     0.278 Goal=   None    Shift=    0.000
 RMSDP=1.60D-06 MaxDP=7.53D-05 DE=-7.31D-08 OVMax= 6.76D-05

 Cycle   8  Pass 1  IDiag  1:
 E= -321.081433996466     Delta-E=       -0.000000028298 Rises=F Damp=F
 DIIS: error= 8.62D-06 at cycle   3 NSaved=   3.
 NSaved= 3 IEnMin= 3 EnMin= -321.081433996466     IErMin= 3 ErrMin= 8.62D-06
 ErrMax= 8.62D-06  0.00D+00 EMaxC= 1.00D-01 BMatC= 2.80D-08 BMatP= 6.74D-08
 IDIUse=1 WtCom= 1.00D+00 WtEn= 0.00D+00
 Coeff-Com: -0.813D-02 0.390D+00 0.618D+00
 Coeff:     -0.813D-02 0.390D+00 0.618D+00
 Gap=     0.278 Goal=   None    Shift=    0.000
 RMSDP=6.83D-07 MaxDP=3.06D-05 DE=-2.83D-08 OVMax= 2.85D-05

 Cycle   9  Pass 1  IDiag  1:
 E= -321.081434016193     Delta-E=       -0.000000019727 Rises=F Damp=F
 DIIS: error= 8.67D-07 at cycle   4 NSaved=   4.
 NSaved= 4 IEnMin= 4 EnMin= -321.081434016193     IErMin= 4 ErrMin= 8.67D-07
 ErrMax= 8.67D-07  0.00D+00 EMaxC= 1.00D-01 BMatC= 4.80D-10 BMatP= 2.80D-08
 IDIUse=1 WtCom= 1.00D+00 WtEn= 0.00D+00
 Coeff-Com: -0.117D-01 0.163D+00 0.283D+00 0.566D+00
 Coeff:     -0.117D-01 0.163D+00 0.283D+00 0.566D+00
 Gap=     0.278 Goal=   None    Shift=    0.000
 RMSDP=1.15D-07 MaxDP=4.28D-06 DE=-1.97D-08 OVMax= 4.43D-06

 Cycle  10  Pass 1  IDiag  1:
 E= -321.081434016574     Delta-E=       -0.000000000380 Rises=F Damp=F
 DIIS: error= 3.97D-07 at cycle   5 NSaved=   5.
 NSaved= 5 IEnMin= 5 EnMin= -321.081434016574     IErMin= 5 ErrMin= 3.97D-07
 ErrMax= 3.97D-07  0.00D+00 EMaxC= 1.00D-01 BMatC= 3.79D-11 BMatP= 4.80D-10
 IDIUse=1 WtCom= 1.00D+00 WtEn= 0.00D+00
 Coeff-Com: -0.545D-02 0.578D-01 0.104D+00 0.283D+00 0.561D+00
 Coeff:     -0.545D-02 0.578D-01 0.104D+00 0.283D+00 0.561D+00
 Gap=     0.278 Goal=   None    Shift=    0.000
 RMSDP=3.00D-08 MaxDP=1.31D-06 DE=-3.80D-10 OVMax= 1.35D-06

 Cycle  11  Pass 1  IDiag  1:
 E= -321.081434016618     Delta-E=       -0.000000000045 Rises=F Damp=F
 DIIS: error= 6.18D-08 at cycle   6 NSaved=   6.
 NSaved= 6 IEnMin= 6 EnMin= -321.081434016618     IErMin= 6 ErrMin= 6.18D-08
 ErrMax= 6.18D-08  0.00D+00 EMaxC= 1.00D-01 BMatC= 1.05D-12 BMatP= 3.79D-11
 IDIUse=1 WtCom= 1.00D+00 WtEn= 0.00D+00
 Coeff-Com: -0.756D-03 0.542D-02 0.103D-01 0.410D-01 0.177D+00 0.767D+00
 Coeff:     -0.756D-03 0.542D-02 0.103D-01 0.410D-01 0.177D+00 0.767D+00
 Gap=     0.278 Goal=   None    Shift=    0.000
 RMSDP=5.86D-09 MaxDP=1.81D-07 DE=-4.46D-11 OVMax= 2.98D-07

 SCF Done:  E(RB3LYP) =  -321.081434017     A.U. after   11 cycles
            NFock= 11  Conv=0.59D-08     -V/T= 2.0069
 KE= 3.188828825397D+02 PE=-1.302087295484D+03 EE= 3.864792603739D+02
 Leave Link  502 at Fri Aug 26 14:20:55 2022, MaxMem= 24159191040 cpu:        81.1
 (Enter /public/home/users/caep010/software/Gaussian09/g09/l701.exe)
 Compute integral first derivatives.
 ... and contract with generalized density number  0.
 Leave Link  701 at Fri Aug 26 14:20:55 2022, MaxMem= 24159191040 cpu:        13.6
 (Enter /public/home/users/caep010/software/Gaussian09/g09/l702.exe)
 L702 exits ... SP integral derivatives will be done elsewhere.
 Leave Link  702 at Fri Aug 26 14:20:55 2022, MaxMem= 24159191040 cpu:         0.5
 (Enter /public/home/users/caep010/software/Gaussian09/g09/l703.exe)
 Compute integral first derivatives, UseDBF=F ICtDFT=           0.
 Integral derivatives from FoFJK, PRISM(SPDF).
 Calling FoFJK, ICntrl=      2127 FMM=F ISym2X=0 I1Cent= 0 IOpClX= 0 NMat=1 NMatS=1 NMatT=0.
 FoFJK:  IHMeth= 1 ICntrl=    2127 DoSepK=F KAlg= 0 I1Cent=   0 FoldK=F
 IRaf=         0 NMat=   1 IRICut=       1 DoRegI=T DoRafI=F ISym2E= 0.
 FoFCou: FMM=F IPFlag=           0 FMFlag=      100000 FMFlg1=         800
         NFxFlg=           0 DoJE=F BraDBF=F KetDBF=F FulRan=T
         wScrn=  0.000000 ICntrl=    2127 IOpCl=  0 I1Cent=           0 NGrid=           0
         NMat0=    1 NMatS0=      1 NMatT0=    0 NMatD0=    1 NMtDS0=    0 NMtDT0=    0
 Symmetry not used in FoFCou.
 Leave Link  703 at Fri Aug 26 14:20:57 2022, MaxMem= 24159191040 cpu:        50.5
 (Enter /public/home/users/caep010/software/Gaussian09/g09/l716.exe)
 Dipole        =-4.97040120D-01-1.35577651D-01 5.07395649D-01
 ***** Axes restored to original set *****
 -------------------------------------------------------------------
 Center     Atomic                   Forces (Hartrees/Bohr)
 Number     Number              X              Y              Z
 -------------------------------------------------------------------
      1        6           0.002214746   -0.000770464   -0.001344987
      2        7          -0.002646387    0.003706367    0.003099423
      3        7           0.004374347   -0.003907154    0.001812484
      4        6           0.003947609   -0.003064685   -0.003206613
      5        7          -0.002274236    0.007882285   -0.002389772
      6        8          -0.006372118   -0.000680675   -0.000338653
      7        1           0.000553884   -0.000028811    0.000652474
      8        1          -0.000493359   -0.002123095   -0.000886825
      9        1           0.000150523   -0.000157696    0.000777710
     10        1           0.000007404    0.000169287   -0.000782281
     11        1           0.000226229   -0.001055422   -0.000370265
     12        1          -0.001067541    0.000686710    0.000397611
     13        1           0.001362509   -0.001535478   -0.000083056
     14        1          -0.000057954   -0.001081658    0.001456095
     15        1           0.000074344    0.001960487    0.001206656
 -------------------------------------------------------------------
 Cartesian Forces:  Max     0.007882285 RMS     0.002348755
 Leave Link  716 at Fri Aug 26 14:20:57 2022, MaxMem= 24159191040 cpu:         0.7
 (Enter /public/home/users/caep010/software/Gaussian09/g09/l103.exe)

 GradGradGradGradGradGradGradGradGradGradGradGradGradGradGradGradGradGrad
 Berny optimization.
 Using GEDIIS/GDIIS optimizer.
 FormGI is forming the generalized inverse of G from B-inverse, IUseBI=4.
 Internal  Forces:  Max     0.005673334 RMS     0.001985924
 Search for a local minimum.
 Step number   2 out of a maximum of   71
 All quantities printed in internal units (Hartrees-Bohrs-Radians)
 RMS Force = .19859D-02 SwitMx=.10000D-02 MixMth= 1
 Mixed Optimization -- RFO/linear search
 Update second derivatives using D2CorX and points    1    2
 DE= -7.22D-03 DEPred=-8.62D-03 R= 8.38D-01
 TightC=F SS=  1.41D+00  RLast= 2.74D-01 DXNew= 5.0454D-01 8.2235D-01
 Trust test= 8.38D-01 RLast= 2.74D-01 DXMaxT set to 5.05D-01
 ITU=  1  0
 Use linear search instead of GDIIS.
     Eigenvalues ---    0.00675   0.00694   0.00791   0.01110   0.01615
     Eigenvalues ---    0.02825   0.04645   0.05882   0.06149   0.06747
     Eigenvalues ---    0.07062   0.07573   0.08458   0.15710   0.16000
     Eigenvalues ---    0.16000   0.16000   0.16000   0.16000   0.16000
     Eigenvalues ---    0.16110   0.17543   0.18799   0.19727   0.22273
     Eigenvalues ---    0.31525   0.32236   0.32460   0.32587   0.34896
     Eigenvalues ---    0.35724   0.36263   0.38968   0.40265   0.40454
     Eigenvalues ---    0.40539   0.43980   0.44584   0.48724
 RFO step:  Lambda=-1.10439624D-03 EMin= 6.75059146D-03
 Quartic linear search produced a step of -0.10016.
 Iteration  1 RMS(Cart)=  0.03341058 RMS(Int)=  0.00056804
 Iteration  2 RMS(Cart)=  0.00065608 RMS(Int)=  0.00012101
 Iteration  3 RMS(Cart)=  0.00000055 RMS(Int)=  0.00012101
 ITry= 1 IFail=0 DXMaxC= 1.08D-01 DCOld= 1.00D+10 DXMaxT= 5.05D-01 DXLimC= 3.00D+00 Rises=F
 Variable       Old X    -DE/DX   Delta X   Delta X   Delta X     New X
                                 (Linear)    (Quad)   (Total)
    R1        2.76690  -0.00116   0.00215  -0.00665  -0.00451   2.76239
    R2        2.08557   0.00037   0.00148  -0.00153  -0.00005   2.08552
    R3        2.06863  -0.00194   0.00299  -0.01049  -0.00750   2.06112
    R4        2.06779   0.00016   0.00309  -0.00489  -0.00179   2.06600
    R5        2.67997   0.00554  -0.00080   0.01281   0.01201   2.69199
    R6        2.73545   0.00517   0.00554   0.00374   0.00928   2.74473
    R7        1.93861  -0.00075   0.00414  -0.00875  -0.00460   1.93401
    R8        1.91924   0.00036   0.00572  -0.00895  -0.00323   1.91601
    R9        2.77350  -0.00246   0.00009  -0.00627  -0.00618   2.76732
   R10        2.67507   0.00203  -0.00191   0.00732   0.00541   2.68048
   R11        2.07272  -0.00044   0.00373  -0.00767  -0.00393   2.06879
   R12        1.92299  -0.00106   0.00536  -0.01150  -0.00614   1.91685
   R13        1.92297   0.00040   0.00536  -0.00826  -0.00290   1.92007
   R14        1.81845  -0.00022   0.00578  -0.01020  -0.00442   1.81404
    A1        1.96752   0.00101  -0.00163   0.00815   0.00651   1.97404
    A2        1.91984  -0.00207   0.00076  -0.01337  -0.01260   1.90724
    A3        1.89022   0.00108   0.00216   0.00298   0.00514   1.89536
    A4        1.90862   0.00031  -0.00029   0.00071   0.00044   1.90905
    A5        1.88843  -0.00093   0.00033  -0.00501  -0.00471   1.88372
    A6        1.88723   0.00062  -0.00133   0.00679   0.00548   1.89271
    A7        1.99121  -0.00366  -0.00616   0.00035  -0.00621   1.98500
    A8        1.97616   0.00219   0.00036   0.01795   0.01816   1.99432
    A9        1.86706   0.00245   0.00393   0.01441   0.01825   1.88531
   A10        1.91835   0.00016   0.00080   0.00101   0.00181   1.92016
   A11        1.86199   0.00185   0.00224   0.00795   0.01019   1.87219
   A12        1.87628  -0.00030   0.00106  -0.00010   0.00096   1.87724
   A13        1.95949   0.00045  -0.00139   0.00659   0.00520   1.96469
   A14        1.83034   0.00504   0.00854   0.01084   0.01938   1.84972
   A15        1.84419  -0.00047   0.00373   0.00114   0.00477   1.84897
   A16        2.00005  -0.00567  -0.00719  -0.01739  -0.02459   1.97545
   A17        1.86800   0.00095   0.00303  -0.00756  -0.00442   1.86358
   A18        1.95706   0.00008  -0.00639   0.00841   0.00198   1.95904
   A19        1.91787   0.00041  -0.00310   0.01368   0.01039   1.92826
   A20        1.88045   0.00286   0.00243   0.01763   0.01987   1.90032
   A21        1.84532  -0.00009   0.00100   0.01083   0.01144   1.85677
   A22        1.86444   0.00355  -0.00026   0.02025   0.01999   1.88444
    D1       -0.97377  -0.00114  -0.00280   0.00649   0.00374  -0.97004
    D2        1.16727   0.00102  -0.00208   0.04076   0.03862   1.20589
    D3       -3.10892  -0.00074  -0.00185   0.00962   0.00782  -3.10110
    D4       -0.96788   0.00143  -0.00113   0.04389   0.04270  -0.92518
    D5        1.11512  -0.00095  -0.00197   0.00728   0.00539   1.12051
    D6       -3.02702   0.00122  -0.00125   0.04155   0.04027  -2.98675
    D7        0.82354   0.00143   0.00178   0.01477   0.01653   0.84007
    D8       -1.20565   0.00069  -0.00120   0.00997   0.00875  -1.19689
    D9       -1.37597  -0.00074   0.00270  -0.02000  -0.01728  -1.39325
   D10        2.87803  -0.00149  -0.00028  -0.02479  -0.02506   2.85296
   D11       -1.07308   0.00239   0.00478   0.02176   0.02638  -1.04670
   D12        1.10917  -0.00092   0.00077   0.01164   0.01235   1.12152
   D13       -3.10338   0.00130  -0.00041   0.02674   0.02611  -3.07727
   D14        1.13541   0.00104   0.00003   0.04570   0.04586   1.18127
   D15       -2.96552  -0.00226  -0.00398   0.03558   0.03183  -2.93369
   D16       -0.89488  -0.00005  -0.00516   0.05067   0.04559  -0.84929
   D17       -2.82769   0.00195  -0.00173   0.04988   0.04825  -2.77944
   D18        1.45301   0.00028  -0.00258   0.02036   0.01766   1.47068
   D19        1.36981  -0.00091  -0.00667   0.04327   0.03682   1.40663
   D20       -0.63267  -0.00258  -0.00752   0.01374   0.00624  -0.62644
   D21       -0.81176   0.00219   0.00388   0.05024   0.05413  -0.75763
   D22       -2.81425   0.00053   0.00304   0.02072   0.02354  -2.79070
   D23        2.92189   0.00125   0.00088   0.04236   0.04337   2.96526
   D24       -1.20481   0.00195   0.00047   0.04773   0.04839  -1.15642
   D25        0.92911  -0.00109  -0.00500   0.03091   0.02557   0.95469
         Item               Value     Threshold  Converged?
 Maximum Force            0.005673     0.000450     NO 
 RMS     Force            0.001986     0.000300     NO 
 Maximum Displacement     0.108310     0.001800     NO 
 RMS     Displacement     0.033355     0.001200     NO 
 Predicted change in Energy=-6.568452D-04
 Lowest energy point so far.  Saving SCF results.
 GradGradGradGradGradGradGradGradGradGradGradGradGradGradGradGradGradGrad

 Leave Link  103 at Fri Aug 26 14:20:57 2022, MaxMem= 24159191040 cpu:         2.3
 (Enter /public/home/users/caep010/software/Gaussian09/g09/l202.exe)
                          Input orientation:                          
 ---------------------------------------------------------------------
 Center     Atomic      Atomic             Coordinates (Angstroms)
 Number     Number       Type             X           Y           Z
 ---------------------------------------------------------------------
      1          6           0        1.231904    0.582987    0.754481
      2          7           0        0.720570   -0.037586   -0.466284
      3          7           0        1.019312   -1.426437   -0.571907
      4          6           0       -0.707732    0.131447   -0.668725
      5          7           0       -1.501548   -0.444553    0.418730
      6          8           0       -0.916402    1.524554   -0.835177
      7          1           0        0.887120    0.078903    1.673709
      8          1           0        0.928368    1.630279    0.780402
      9          1           0        2.324180    0.539776    0.736408
     10          1           0        0.784903   -1.902727    0.303086
     11          1           0        2.020799   -1.509486   -0.706570
     12          1           0       -0.952334   -0.435204   -1.572917
     13          1           0       -2.451559   -0.620681    0.109903
     14          1           0       -1.566361    0.233036    1.173082
     15          1           0       -1.821119    1.655591   -1.128120
 ---------------------------------------------------------------------
                    Distance matrix (angstroms):
                    1          2          3          4          5
     1  C    0.000000
     2  N    1.461793   0.000000
     3  N    2.417081   1.424538   0.000000
     4  C    2.447772   1.452446   2.327886   0.000000
     5  N    2.939443   2.426248   2.881005   1.464403   0.000000
     6  O    2.833510   2.292606   3.539018   1.418449   2.406670
     7  H    1.103611   2.149622   2.706716   2.834309   2.748583
     8  H    1.090700   2.092649   3.343729   2.650149   3.215623
     9  H    1.093280   2.085996   2.698214   3.366544   3.963081
    10  H    2.565607   2.018618   1.023432   2.703745   2.714313
    11  H    2.671230   1.978592   1.013908   3.184176   3.848027
    12  H    3.350282   2.044834   2.423211   1.094754   2.066005
    13  H    3.928383   3.276338   3.627816   2.052532   1.014355
    14  H    2.850962   2.826802   3.533347   2.034654   1.016059
    15  H    3.743743   3.124909   4.228039   1.942599   2.627827
                    6          7          8          9         10
     6  O    0.000000
     7  H    3.411321   0.000000
     8  H    2.454476   1.790661   0.000000
     9  H    3.733770   1.776536   1.771842   0.000000
    10  H    3.992034   2.411620   3.567989   2.919411   0.000000
    11  H    4.224819   3.077976   3.641788   2.524619   1.643619
    12  H    2.094326   3.766759   3.652585   4.125423   2.948050
    13  H    2.802127   3.752557   4.115859   4.954478   3.486494
    14  H    2.474586   2.508775   2.886203   3.926969   3.293451
    15  H    0.959947   4.203659   3.347055   4.680279   4.636952
                   11         12         13         14         15
    11  H    0.000000
    12  H    3.277829   0.000000
    13  H    4.632342   2.261406   0.000000
    14  H    4.408764   2.892073   1.625656   0.000000
    15  H    4.995574   2.307391   2.666753   2.717370   0.000000
 Stoichiometry    C2H9N3O
 Framework group  C1[X(C2H9N3O)]
 Deg. of freedom    39
 Full point group                 C1      NOp   1
 RotChk:  IX=0 Diff= 1.99D-02
 Largest Abelian subgroup         C1      NOp   1
 Largest concise Abelian subgroup C1      NOp   1
                         Standard orientation:                         
 ---------------------------------------------------------------------
 Center     Atomic      Atomic             Coordinates (Angstroms)
 Number     Number       Type             X           Y           Z
 ---------------------------------------------------------------------
      1          6           0        1.002416    1.153230    0.676516
      2          7           0        0.678217    0.228441   -0.408149
      3          7           0        1.568560   -0.879599   -0.502200
      4          6           0       -0.678770   -0.287780   -0.366887
      5          7           0       -0.962480   -1.024720    0.866363
      6          8           0       -1.528533    0.832046   -0.556333
[...]
    11  H   -0.002915   0.000251   0.004431  -0.042906   0.375247   0.000458
    12  H   -0.000613  -0.000368  -0.000194  -0.000701   0.000458   0.512576
    13  H   -0.000478   0.000019   0.000089  -0.000528   0.000141  -0.005665
    14  H   -0.001730   0.000068   0.000173  -0.000020   0.000050   0.006690
    15  H    0.000203  -0.000041  -0.000004   0.000097   0.000010  -0.007109
              13         14         15
     1  C   -0.000348  -0.000446  -0.001997
     2  N    0.002939  -0.004280   0.011236
     3  N    0.000129   0.000542  -0.000564
     4  C   -0.031400  -0.043087  -0.005651
     5  N    0.402711   0.393017  -0.005138
     6  O   -0.003026   0.008554   0.284077
     7  H   -0.000478  -0.001730   0.000203
     8  H    0.000019   0.000068  -0.000041
     9  H    0.000089   0.000173  -0.000004
    10  H   -0.000528  -0.000020   0.000097
    11  H    0.000141   0.000050   0.000010
    12  H   -0.005665   0.006690  -0.007109
    13  H    0.364841  -0.035201   0.000914
    14  H   -0.035201   0.367710  -0.001872
    15  H    0.000914  -0.001872   0.359811
 Mulliken charges:
               1
     1  C   -0.524762
     2  N    0.051984
     3  N   -0.695212
     4  C    0.236005
     5  N   -0.775029
     6  O   -0.582102
     7  H    0.144244
     8  H    0.211029
     9  H    0.167159
    10  H    0.300008
    11  H    0.309692
    12  H    0.176262
    13  H    0.304862
    14  H    0.309831
    15  H    0.366029
 Sum of Mulliken charges =  -0.00000
 Mulliken charges with hydrogens summed into heavy atoms:
               1
     1  C   -0.002330
     2  N    0.051984
     3  N   -0.085512
     4  C    0.412267
     5  N   -0.160335
     6  O   -0.216073
 Electronic spatial extent (au):  <R**2>=            589.4058
 Charge=              0.0000 electrons
 Dipole moment (field-independent basis, Debye):
    X=             -1.1827    Y=             -0.5104    Z=              1.9763  Tot=              2.3590
 Quadrupole moment (field-independent basis, Debye-Ang):
   XX=            -27.2464   YY=            -40.9146   ZZ=            -39.7114
   XY=              3.7027   XZ=             -0.3919   YZ=              1.6531
 Traceless Quadrupole moment (field-independent basis, Debye-Ang):
   XX=              8.7110   YY=             -4.9572   ZZ=             -3.7539
   XY=              3.7027   XZ=             -0.3919   YZ=              1.6531
 Octapole moment (field-independent basis, Debye-Ang**2):
  XXX=            -11.8474  YYY=              1.4317  ZZZ=              2.4355  XYY=             -3.9925
  XXY=             -5.2765  XXZ=             -0.1309  XZZ=             -4.0324  YZZ=              0.1096
  YYZ=              2.4958  XYZ=             -3.3894
 Hexadecapole moment (field-independent basis, Debye-Ang**3):
 XXXX=           -286.4732 YYYY=           -224.6997 ZZZZ=           -145.0944 XXXY=             -3.8169
 XXXZ=             -8.4531 YYYX=              8.8036 YYYZ=             -3.2683 ZZZX=             -4.9593
 ZZZY=             -0.1003 XXYY=            -92.8221 XXZZ=            -84.1167 YYZZ=            -68.3656
 XXYZ=             -5.7411 YYXZ=              2.3730 ZZXY=              1.5459
 N-N= 2.749511687723D+02 E-N=-1.299955656172D+03  KE= 3.188563506747D+02
 No NMR shielding tensors so no spin-rotation constants.
 Leave Link  601 at Fri Aug 26 14:42:41 2022, MaxMem= 24159191040 cpu:        28.7
 (Enter /public/home/users/caep010/software/Gaussian09/g09/l9999.exe)
 1\1\GINC-B1913\SP\RHF\GFHFB2\C2H9N3O1\ROOT\26-Aug-2022\0\\#P Geom=AllC
 heck Guess=TCheck SCRF=Check HF/GFHFB2 SCF=Tight\\Frag_1055\\0,1\C,0,1
 .2241482107,0.5842229594,0.7426249093\N,0,0.725388496,-0.0477688463,-0
 .4734542714\N,0,1.0210738234,-1.4377797222,-0.5576994422\C,0,-0.695950
 444,0.1207534174,-0.6954037301\N,0,-1.5122656973,-0.4106752879,0.39087
 97274\O,0,-0.8846760361,1.5110084291,-0.9094832224\H,0,0.8736958469,0.
 0828749718,1.6627790734\H,0,0.9085361398,1.6297386152,0.7592525969\H,0
 ,2.3180693964,0.5520195999,0.7367159421\H,0,0.7982514583,-1.8946262315
 ,0.3318103336\H,0,2.0225029572,-1.5224743391,-0.7036513421\H,0,-0.9322
 671862,-0.4679682318,-1.5894915463\H,0,-2.4506284132,-0.6323013638,0.0
 774673529\H,0,-1.5822013688,0.2637794466,1.1469350132\H,0,-1.833577183
 1,1.669096583,-0.9191813942\\Version=ES64L-G09RevE.01\State=1-A\HF=-31
 9.2814903\RMSD=2.964e-09\Dipole=-0.6354387,0.0107231,0.6763825\Quadrup
 ole=6.1758292,-3.8396559,-2.3361733,-2.803276,1.820392,0.6991838\PG=C0
 1 [X(C2H9N3O1)]\\@


 FIREWORKS ENDED
 AND SPECTATORS GONE AWAY....
 AH, HOW VAST AND DARK
                     SHIKI
 Diagonal vibrational polarizability:
        0.0000000       0.0000000       0.0000000

 Temperature=              298.150000 Pressure=                      1.000000
 E(ZPE)=                     0.129495 E(Thermal)=                    0.136988
 E(CCSD(T))=              -320.127544 E(Empiric)=                   -0.131993
 DE(Plus)=                  -0.032465 DE(2DF)=                      -0.282431
 E(Delta-G3XP)=             -0.404402 DE(HF)=                       -0.031881
 G4(0 K)=                 -320.881220 G4 Energy=                  -320.873727
 G4 Enthalpy=             -320.872783 G4 Free Energy=             -320.911753
 1\1\GINC-B1913\Mixed\G4\G4\C2H9N3O1\ROOT\26-Aug-2022\0\\#P Geom=AllChe
 ck Guess=TCheck SCRF=Check HF/GFHFB2 SCF=Tight\\Frag_1055\\0,1\C,0,1.2
 241482107,0.5842229594,0.7426249093\N,0,0.725388496,-0.0477688463,-0.4
 734542714\N,0,1.0210738234,-1.4377797222,-0.5576994422\C,0,-0.69595044
 4,0.1207534174,-0.6954037301\N,0,-1.5122656973,-0.4106752879,0.3908797
 274\O,0,-0.8846760361,1.5110084291,-0.9094832224\H,0,0.8736958469,0.08
 28749718,1.6627790734\H,0,0.9085361398,1.6297386152,0.7592525969\H,0,2
 .3180693964,0.5520195999,0.7367159421\H,0,0.7982514583,-1.8946262315,0
 .3318103336\H,0,2.0225029572,-1.5224743391,-0.7036513421\H,0,-0.932267
 1862,-0.4679682318,-1.5894915463\H,0,-2.4506284132,-0.6323013638,0.077
 4673529\H,0,-1.5822013688,0.2637794466,1.1469350132\H,0,-1.8335771831,
 1.669096583,-0.9191813942\\Version=ES64L-G09RevE.01\State=1-A\MP2/GTBa
 s1=-320.0495485\MP4/GTBas1=-320.1270245\CCSD(T)/G3Bas1=-320.1275437\MP
 2/GTBas2=-320.0800676\MP4/GTBas2=-320.15949\MP2/GTBas3=-320.3161083\MP
 4/GTBas3=-320.4094559\HF/GTLargeXP=-319.2509778\MP2/GTLargeXP=-320.751
 0288\HF/GFHFB1=-319.2758752\HF/GFHFB2=-319.2814903\G4=-320.8812203\Fre
 qCoord=2.3133048642,1.1040213938,1.403357698,1.3707855974,-0.090270037
 2,-0.8946989095,1.9295498877,-2.7170099143,-1.0538992103,-1.3151557412
 ,0.2281908884,-1.3141226018,-2.8577680081,-0.7760638236,0.7386556357,-
 1.6717954245,2.8553921155,-1.7186742128,1.6510458741,0.1566109999,3.14
 21970682,1.716884486,3.079759651,1.4347794739,4.3805163163,1.043165863
 9,1.3921913683,1.5084766414,-3.5803247017,0.6270306586,3.821976692,-2.
 8770595452,-1.3297083296,-1.7617296646,-0.8843317969,-3.0037037131,-4.
 6310165543,-1.194876411,0.1463920812,-2.9899272741,0.4984709135,2.1673
 930672,-3.4649587196,3.1541354313,-1.7370011014\PG=C01 [X(C2H9N3O1)]\N
 Imag=0\\0.58323847,-0.03516995,0.57169578,-0.01399435,-0.03355970,0.46
 457666,-0.10396770,-0.00014522,-0.05962915,0.48031127,-0.00501213,-0.0
 9425311,-0.06216738,-0.06963052,0.47064784,-0.03191924,-0.01892542,-0.
 15898954,0.11620896,0.07115806,0.35637324,0.00470118,-0.00809039,0.003
 98952,-0.09695277,0.03783210,0.01142701,0.59022976,0.00521541,-0.04329
 453,0.00068100,0.03047072,-0.20228892,-0.05021442,-0.06567722,0.401982
 95,0.00929293,-0.03847677,-0.00848413,-0.01020312,0.03315168,-0.068135
 03,-0.14861650,-0.11765395,0.41667706,-0.02394932,-0.01257559,-0.01091
 841,-0.18311483,0.02436703,-0.05833373,-0.02040163,0.00946351,0.007584
 71,0.51302609,-0.01701851,0.00831308,0.00178270,-0.00973199,-0.0788244
 7,-0.01529194,0.04488659,-0.02319070,0.00184618,0.00594525,0.51213006,
 -0.03698964,0.00242289,-0.01269090,-0.01790259,-0.02079463,-0.08504233
 ,0.00240818,0.00605998,-0.00118292,0.05590371,0.11268069,0.58136304,0.
 00108104,0.00197845,0.00300267,-0.04687712,-0.01338969,0.02862626,0.00
 047451,-0.00282778,0.00038741,-0.11053992,-0.04546362,0.04964136,0.575
 73912,-0.00047792,0.00001072,0.00348714,-0.01121807,0.00068696,0.00439
 940,0.00215752,-0.00115099,-0.00008228,-0.00772855,-0.08304279,-0.0083
 4648,0.13712554,0.33971298,-0.00035834,-0.00104423,0.00000570,0.010645
 84,0.00238694,0.00905881,-0.00018871,0.00084636,0.00049526,0.01181097,
 0.01658333,-0.16190321,0.00510606,0.20243736,0.51463844,-0.00040410,0.
 00024369,-0.00116554,-0.01611125,0.04735848,-0.00232777,-0.00714746,0.
 00340523,-0.00189178,-0.09696878,0.02652475,-0.00595696,0.00665645,-0.
 02694784,0.01079383,0.61566810,-0.00077955,-0.00265217,-0.00060852,0.0
 1860034,-0.02030518,0.00137443,0.00358083,0.00026202,0.00212537,-0.016
 33020,-0.19552466,0.00355035,-0.00825986,-0.03890042,0.02623301,-0.095
 53986,0.33981261,-0.00135712,-0.00138718,-0.00179739,-0.00557092,0.008
 15317,0.00381723,0.00014280,-0.00051407,0.00114450,0.00342398,0.002209
 80,-0.07110719,0.00670524,0.04313559,-0.00752729,0.00244792,-0.0427322
 7,0.06110245,-0.07842619,-0.03858346,0.06403700,0.00709627,0.00590093,
 -0.01366140,-0.00045877,0.00145628,0.00011644,0.00188113,0.00081046,-0
 .00152545,-0.00058543,0.00092990,0.00094567,-0.00037769,-0.00015462,0.
 00012848,0.07891259,-0.03743599,-0.10649634,0.08873904,0.00527278,0.00
 506091,-0.01524088,0.00088988,0.00685304,-0.00307157,-0.00005028,-0.00
 056846,0.00059358,-0.00050730,0.00086798,0.00020567,0.00062040,0.00031
 610,-0.00000699,0.04222014,0.10598381,0.06409148,0.08887384,-0.1944623
 7,-0.00107796,0.00459466,-0.04228947,-0.00135084,0.00415253,0.00374480
 ,0.00873364,-0.00025286,-0.00155364,-0.00068114,-0.00052198,0.00245676
 ,-0.00103634,0.00023450,0.00054751,-0.06843903,-0.09711071,0.22921286,
 -0.07237252,0.07905048,0.00157147,0.00404363,-0.01168535,0.00069448,0.
 00014353,-0.00259945,-0.00244316,0.00063016,-0.00168346,0.00099871,-0.
 00036437,0.00042374,-0.00051863,-0.00159720,0.00060148,-0.00127381,0.0
 0360383,-0.01235249,0.00002153,0.07334886,0.07286342,-0.29054968,-0.00
 243577,0.00418851,-0.01550009,-0.00142789,-0.00167732,-0.00218726,-0.0
 0425652,0.00152595,-0.00260681,-0.00013105,-0.00045091,0.00029626,-0.0
 0023230,0.00177965,0.00118215,0.00205606,0.00475519,-0.01181311,0.0003
 0147,-0.08243642,0.31884247,-0.00217349,0.00676580,-0.05030680,0.01186
 489,-0.02818447,0.00006159,-0.00291365,-0.00587111,-0.00477783,0.00076
 675,-0.00192915,0.00181085,-0.00033086,0.00055837,-0.00002267,-0.00084
 441,0.00070524,-0.00125759,-0.00852947,0.02387243,0.00143762,0.0011109
 9,0.00455829,0.05347387,-0.30743640,0.01070421,0.00828748,-0.01257704,
 0.00105867,-0.00734288,0.00236251,0.00046390,0.00097504,0.00152139,-0.
 00185764,-0.00042689,0.00004831,0.00009195,-0.00000286,-0.00004299,-0.
 00014592,-0.00013468,-0.01077738,0.00111168,0.00153093,-0.00737700,-0.
 00014584,0.00095567,0.33526743,0.01399731,-0.04747388,0.00119946,-0.01
 691011,-0.00059860,-0.00498016,-0.00118673,0.00186835,0.00143450,-0.00
 073430,-0.00339979,-0.00197140,0.00014245,0.00022362,-0.00046600,0.000
 86058,0.00084260,0.00092010,-0.01650586,0.00035013,0.00200465,0.030554
 06,0.00114532,-0.00118052,-0.00981550,0.04728374,0.01532651,-0.0008421
 8,-0.04535912,-0.03684345,0.00056005,-0.00749121,-0.00016940,0.0022217
 0,0.00137966,0.00024813,-0.00441164,-0.00444896,0.00017921,-0.00039900
 ,0.00059515,0.00013686,-0.00004348,0.00059934,0.02593047,-0.00120151,-
 0.00062395,-0.00001217,0.00082945,-0.00054900,-0.00346372,0.00341051,0
 .05613118,-0.00079853,-0.00013551,0.00062734,0.00197187,0.00335623,-0.
 01126048,-0.06254642,-0.01022196,0.06176877,0.00507759,0.00338953,-0.0
 0377894,0.00050050,-0.00117505,0.00106500,-0.00142307,-0.00017406,0.00
 073036,0.00033355,-0.00044424,0.00047570,0.00002923,0.00039091,-0.0000
 7330,-0.00048993,-0.00028512,0.00032506,0.06774240,0.00011677,0.003274
 18,0.00574586,0.00024841,-0.04163530,0.03450338,-0.01887572,-0.0943404
 4,0.10615457,-0.00666579,-0.00152286,0.00185243,0.00028511,0.00073856,
 -0.00128903,0.00145850,-0.00021059,-0.00026504,0.00002935,0.00021433,-
 0.00257226,0.00043015,0.00088457,-0.00018237,-0.00037450,-0.00023375,-
 0.00047183,0.02321803,0.13078421,-0.00201173,-0.00374456,0.00729099,-0
 .00840506,-0.00079115,0.00266602,0.09956338,0.14262431,-0.31018782,0.0
 0376182,0.00201626,-0.00139452,-0.00063380,-0.00190078,0.00003133,-0.0
 0107529,0.00020080,0.00009886,0.00119238,0.00282452,0.00070799,0.00001
 157,-0.00024176,-0.00042096,0.00036853,0.00014387,-0.00037376,-0.08648
 786,-0.14050334,0.31158381,0.00179401,-0.00117210,0.00038227,-0.006479
 35,-0.00131242,-0.00714599,-0.41233165,0.03437709,0.08383870,0.0000237
 5,0.00172765,0.00089686,0.00017125,0.00041068,-0.00002519,-0.00070938,
 0.00028158,0.00014779,-0.00038073,-0.00004571,0.00012196,0.00012082,-0
 .00026534,-0.00029226,-0.00022319,0.00048853,0.00061252,-0.01046274,-0
 .00103898,-0.00599493,0.42810947,0.00251023,0.00081683,-0.00035655,0.0
 4789862,-0.01847240,-0.00320573,0.00180115,-0.04527696,0.01684604,-0.0
 0070355,-0.00695925,-0.00292081,-0.00031566,0.00090629,0.00027915,0.00
 205183,-0.00036911,0.00022706,-0.00029237,-0.00021081,-0.00031891,-0.0
 0037124,0.00014322,0.00036538,-0.00102932,-0.00016046,-0.00048400,-0.0
 1761932,0.00229745,-0.00098883,-0.03399905,0.06749605,0.00203355,0.000
 23561,-0.00057751,0.00048571,-0.00719080,-0.00241416,0.03573162,0.0174
 5520,-0.03221541,0.00008698,0.00110685,-0.00035392,0.00010131,-0.00062
 460,0.00049600,-0.00121782,0.00085423,0.00010060,0.00016983,0.00029062
 ,-0.00013238,-0.00043720,0.00020790,0.00025203,-0.00054485,-0.00054499
 ,0.00011487,0.03656854,-0.00254627,-0.00992314,-0.07281845,-0.01000449
 ,0.04417486,-0.00502139,0.00324273,0.00019255,-0.02055653,-0.01859576,
 -0.03150192,0.00122057,-0.00218644,0.00030777,-0.06326707,-0.02566385,
 -0.04309935,0.00233848,0.00652535,0.02147440,0.00606020,0.00513257,0.0
 0459083,-0.00017858,-0.00002758,-0.00062099,0.00031004,-0.00004377,0.0
 0031777,-0.00056076,-0.00076097,-0.00149009,0.00006814,0.00043344,0.00
 000126,0.00022564,-0.00005712,0.00005890,0.07849824,0.00165772,0.00008
 370,0.00013838,-0.00276329,0.00118202,-0.00046440,0.00263947,0.0010226
 2,0.00171655,-0.02881221,-0.11149590,-0.10990115,-0.00044403,0.0091198
 9,0.01025261,-0.00286188,-0.03537747,-0.01922797,-0.00011066,0.0000142
 0,-0.00025098,0.00023606,0.00001121,0.00017674,0.00006657,0.00029279,0
 .00028115,-0.00019895,-0.00007317,-0.00018724,0.00029234,0.00011086,0.
 00037491,0.03259343,0.13472136,-0.00093344,0.00053644,0.00151574,-0.00
 511772,-0.00517109,-0.00457518,0.00157130,-0.00025063,0.00078227,-0.04
 675461,-0.10288769,-0.22327336,-0.00070559,-0.01286496,-0.02791889,0.0
 0278216,0.00405835,0.01191851,0.00023122,0.00011635,0.00021822,-0.0000
 3196,0.00015237,-0.00001981,-0.00019528,-0.00020761,-0.00033416,-0.000
 07562,-0.00004800,-0.00031916,0.00030231,0.00036050,0.00041085,0.04511
 886,0.11454203,0.24375705,0.00110966,0.00081471,0.00209892,-0.00558159
 ,-0.00235458,0.00542196,0.00063572,-0.00128974,0.00017051,-0.01793645,
 0.00276041,-0.01411412,-0.37190819,-0.10456482,-0.10490861,0.00136038,
 0.00100668,-0.00053919,0.00056965,0.00029949,-0.00033227,-0.00011101,-
 0.00013369,-0.00007911,0.00000070,-0.00001168,-0.00017143,0.00019234,0
 .00009891,-0.00059214,0.00014008,0.00015395,-0.00010265,0.00128710,0.0
 0078850,0.00045389,0.38765230,0.00042348,-0.00027778,-0.00004125,0.002
 67465,0.00174592,-0.00035351,-0.00047096,0.00046471,-0.00010181,-0.014
 97995,-0.00725765,-0.00207014,-0.06047601,-0.02948958,-0.03250407,0.00
 104617,-0.00118015,0.00176193,-0.00016674,-0.00014032,-0.00015398,-0.0
 0000313,0.00007504,-0.00015306,0.00006848,0.00005963,0.00012219,-0.000
 32086,0.00036591,0.00050376,-0.00001827,0.00015035,0.00007050,0.001417
 33,-0.00011778,-0.00056151,0.09662343,0.04592907,-0.00052047,-0.000015
 24,-0.00155867,0.00473810,0.00173377,-0.00359398,-0.00024620,0.0003833
 3,0.00023571,0.02877396,0.00791943,0.01043127,-0.11229800,-0.04792058,
 -0.09569755,-0.00021931,0.00042468,-0.00134385,0.00000678,-0.00030671,
 0.00071794,0.00006880,0.00010736,0.00004373,-0.00002093,-0.00005302,0.
 00046042,0.00010433,-0.00034297,-0.00001395,0.00001807,-0.00013605,0.0
 0005263,-0.00007855,-0.00028996,0.00069213,0.10981995,0.04085241,0.097
 99915,0.00003041,-0.00005500,0.00115885,-0.00187733,-0.00035184,-0.000
 00965,-0.00041053,-0.00037599,-0.00034711,0.00380212,0.02063924,0.0135
 0122,-0.05800106,0.00794288,0.04213061,-0.00015573,-0.00083398,-0.0018
 1513,-0.00115195,0.00045464,-0.00130851,-0.00027359,-0.00039722,0.0001
 0897,0.00022460,0.00009455,-0.00062377,0.00030972,0.00024286,0.0002412
 5,-0.00010530,-0.00007500,0.00001171,-0.00082996,-0.00201799,0.0030104
 6,0.00235102,-0.02542626,-0.02989803,0.05591132,-0.00046392,0.00095111
 ,-0.00220471,0.00107235,-0.00045673,-0.00054426,0.00061095,0.00020668,
 -0.00016044,-0.00174426,0.00565189,0.01792164,-0.00498061,-0.20470450,
 -0.22164265,0.00108559,0.00289423,-0.00163205,-0.00033628,-0.00053288,
 0.00081042,-0.00034193,-0.00022787,-0.00000257,-0.00010875,-0.00026195
 ,0.00044167,-0.00026906,-0.00019320,-0.00017795,0.00009452,0.00003567,
 0.00004495,-0.00165526,0.00036453,0.00277230,0.00665066,-0.00864659,-0
 .00300328,-0.00003096,0.20511437,-0.00011011,-0.00062997,0.00075074,0.
 00083703,0.00078180,0.00041488,-0.00063561,0.00028831,0.00006615,0.003
 43811,-0.02313230,-0.02940171,0.01902113,-0.17810873,-0.23552803,-0.00
 324794,-0.00193319,0.00664680,-0.00049659,0.00012753,0.00011967,0.0002
 3167,0.00025417,0.00005325,-0.00004424,0.00020671,-0.00001196,0.000171
 14,0.00002333,0.00021746,-0.00010771,0.00000803,0.00001575,0.00429441,
 0.00293741,-0.00312661,0.00272903,-0.00832595,-0.00863564,-0.02543101,
 0.20626305,0.27051311,0.00042136,-0.00010705,0.00035937,0.00067248,0.0
 0245884,0.00112436,0.00048144,0.00032643,-0.00094062,-0.00978425,-0.00
 526481,0.00044391,0.00126642,-0.00349532,0.00202996,-0.50480747,0.0930
 1460,-0.00762654,-0.00006031,-0.00000544,-0.00012815,-0.00013441,0.000
 04689,0.00011150,0.00005975,0.00007278,0.00001527,-0.00050463,0.000393
 47,0.00006062,0.00010731,0.00004685,-0.00012718,0.00040588,-0.00106507
 ,0.00034403,0.00023829,-0.00039136,-0.00024851,0.00017625,0.00041697,-
 0.00064930,0.51146188,-0.00042637,-0.00014792,-0.00039970,-0.00002719,
 -0.00698883,-0.00078667,0.00157985,-0.00093055,0.00052844,0.04902296,-
 0.01170169,0.00105409,-0.00241608,0.00472502,-0.00204614,0.03891472,-0
 .05078996,0.00730186,0.00004774,0.00010141,0.00020962,0.00017748,0.000
 30458,0.00050100,-0.00008799,0.00006224,-0.00001308,0.00048943,-0.0003
 4991,0.00022208,0.00017948,-0.00050773,0.00027039,-0.00035409,0.000141
 13,-0.00054685,-0.00084222,-0.00168079,0.00064682,0.00019007,-0.000194
 76,0.00123980,-0.08644779,0.06795776,-0.00037655,-0.00020931,0.0000866
 0,-0.00003056,0.00177938,0.00013914,-0.00071291,-0.00020855,0.00045773
 ,-0.00852603,0.00176034,-0.00125250,0.00187874,-0.00324848,0.00082018,
 0.00282239,0.00555650,-0.00294249,-0.00010633,0.00016863,-0.00010157,0
 .00000772,0.00025822,0.00022172,0.00005867,0.00008389,-0.00008848,-0.0
 0016004,-0.00005845,0.00003683,0.00006406,0.00032920,-0.00000106,0.000
 43416,-0.00009809,0.00027239,0.00014526,0.00095449,0.00021068,-0.00072
 986,0.00111389,-0.00209387,0.00523127,-0.00818166,0.00423470\\0.000008
 59,0.00002521,0.00002143,-0.00000611,0.00003654,-0.00000525,0.00000942
 ,-0.00004478,0.00000238,-0.00001109,0.00003934,-0.00001463,0.00001547,
 -0.00001663,0.00000455,-0.00000494,-0.00004131,0.00000839,-0.00000085,
 -0.00000935,-0.00000160,-0.00000531,-0.00000343,0.00000669,-0.00000094
 ,-0.00000549,0.00000395,-0.00000545,0.00000133,-0.00001342,0.00000470,
 0.00000835,-0.00000938,0.00000305,0.00000297,-0.00000924,-0.00000804,-
 0.00000048,-0.00000669,-0.00000586,0.00000421,0.00000655,0.00000736,0.
 00000354,0.00000625\\\@
 Job cpu time:       0 days  4 hours 13 minutes  4.1 seconds.
 File lengths (MBytes):  RWF=   6085 Int=      0 D2E=      0 Chk=     39 Scr=      1
 Normal termination of Gaussian 09 at Fri Aug 26 14:42:41 2022.
