 Entering Gaussian System, Link 0=g09
 Input=G4.Frag_752.gjf
 Output=G4.Frag_752.log
 Initial command:
 /public/home/users/caep010/software/Gaussian09/g09/l1.exe "/public/home/users/caep010/.cache/gau_scr/Gau-133237.inp" -scrdir="/public/home/users/caep010/.cache/gau_scr/"
 Entering Link 1 = /public/home/users/caep010/software/Gaussian09/g09/l1.exe PID=    133239.
  
 Copyright (c) 1988,1990,1992,1993,1995,1998,2003,2009,2015,
            Gaussian, Inc.  All Rights Reserved.
  
 This is part of the Gaussian(R) 09 program.  It is based on
 the Gaussian(R) 03 system (copyright 2003, Gaussian, Inc.),
 the Gaussian(R) 98 system (copyright 1998, Gaussian, Inc.),
 the Gaussian(R) 94 system (copyright 1995, Gaussian, Inc.),
 the Gaussian 92(TM) system (copyright 1992, Gaussian, Inc.),
 the Gaussian 90(TM) system (copyright 1990, Gaussian, Inc.),
 the Gaussian 88(TM) system (copyright 1988, Gaussian, Inc.),
 the Gaussian 86(TM) system (copyright 1986, Carnegie Mellon
 University), and the Gaussian 82(TM) system (copyright 1983,
 Carnegie Mellon University). Gaussian is a federally registered
 trademark of Gaussian, Inc.
  
 This software contains proprietary and confidential information,
 including trade secrets, belonging to Gaussian, Inc.
  
 This software is provided under written license and may be
 used, copied, transmitted, or stored only in accord with that
 written license.
  
 The following legend is applicable only to US Government
 contracts under FAR:
  
                    RESTRICTED RIGHTS LEGEND
  
 Use, reproduction and disclosure by the US Government is
 subject to restrictions as set forth in subparagraphs (a)
 and (c) of the Commercial Computer Software - Restricted
 Rights clause in FAR 52.227-19.
  
 Gaussian, Inc.
 340 Quinnipiac St., Bldg. 40, Wallingford CT 06492
  
  
 ---------------------------------------------------------------
 Warning -- This program may not be used in any manner that
 competes with the business of Gaussian, Inc. or will provide
 assistance to any competitor of Gaussian, Inc.  The licensee
 of this program is prohibited from giving any competitor of
 Gaussian, Inc. access to this program.  By using this program,
 the user acknowledges that Gaussian, Inc. is engaged in the
 business of creating and licensing software in the field of
 computational chemistry and represents and warrants to the
 licensee that it is not a competitor of Gaussian, Inc. and that
 it will not use this program in any manner prohibited above.
 ---------------------------------------------------------------
  

 Cite this work as:
 Gaussian 09, Revision E.01,
 M. J. Frisch, G. W. Trucks, H. B. Schlegel, G. E. Scuseria, 
 M. A. Robb, J. R. Cheeseman, G. Scalmani, V. Barone, B. Mennucci, 
 G. A. Petersson, H. Nakatsuji, M. Caricato, X. Li, H. P. Hratchian, 
 A. F. Izmaylov, J. Bloino, G. Zheng, J. L. Sonnenberg, M. Hada, 
 M. Ehara, K. Toyota, R. Fukuda, J. Hasegawa, M. Ishida, T. Nakajima, 
 Y. Honda, O. Kitao, H. Nakai, T. Vreven, J. A. Montgomery, Jr., 
 J. E. Peralta, F. Ogliaro, M. Bearpark, J. J. Heyd, E. Brothers, 
 K. N. Kudin, V. N. Staroverov, T. Keith, R. Kobayashi, J. Normand, 
 K. Raghavachari, A. Rendell, J. C. Burant, S. S. Iyengar, J. Tomasi, 
 M. Cossi, N. Rega, J. M. Millam, M. Klene, J. E. Knox, J. B. Cross, 
 V. Bakken, C. Adamo, J. Jaramillo, R. Gomperts, R. E. Stratmann, 
 O. Yazyev, A. J. Austin, R. Cammi, C. Pomelli, J. W. Ochterski, 
 R. L. Martin, K. Morokuma, V. G. Zakrzewski, G. A. Voth, 
 P. Salvador, J. J. Dannenberg, S. Dapprich, A. D. Daniels, 
 O. Farkas, J. B. Foresman, J. V. Ortiz, J. Cioslowski, 
 and D. J. Fox, Gaussian, Inc., Wallingford CT, 2013.
 
 ******************************************
 Gaussian 09:  ES64L-G09RevE.01 30-Nov-2015
                26-Aug-2022 
 ******************************************
 %nproc=32
 Will use up to   32 processors via shared memory.
 %mem=180GB
 %chk=G4.Frag_752.chk
 -----
 #P G4
 -----
 1/14=-1,18=20,19=15,26=3,38=1/1,3;
 2/9=110,12=2,17=6,18=5,40=1/2;
 3/5=35,7=104,11=2,16=1,25=1,30=1,71=1,74=-5/1,2,3;
 4//1;
 5/5=2,38=5/2;
 6/7=2,8=2,9=2,10=2,28=1/1;
 7//1,2,3,16;
 1/14=-1,18=20,19=15,26=3/3(2);
 2/9=110/2;
 99//99;
 2/9=110/2;
 3/5=35,7=104,11=2,16=1,25=1,30=1,71=1,74=-5/1,2,3;
 4/5=5,16=3,69=1/1;
 5/5=2,38=5/2;
 7//1,2,3,16;
 1/14=-1,18=20,19=15,26=3/3(-5);
 2/9=110/2;
 6/7=2,8=2,9=2,10=2,19=2,28=1/1;
 99/9=1/99;
 Leave Link    1 at Fri Aug 26 13:08:47 2022, MaxMem= 24159191040 cpu:         2.2
 (Enter /public/home/users/caep010/software/Gaussian09/g09/l101.exe)
 --------
 Frag_752
 --------
 Symbolic Z-matrix:
 Charge =  0 Multiplicity = 1
 C                     1.7084    0.4699   -0.5836 
 C                     0.5727   -0.3775   -0.0006 
 N                     0.5705   -0.2823    1.4643 
 N                    -0.7212    0.0526   -0.5745 
 N                    -1.727    -0.8767   -0.2251 
 N                    -1.068     1.324    -0.0589 
 H                     1.6137    1.5288   -0.2616 
 H                     1.6826    0.4261   -1.6933 
 H                     2.6903    0.0803   -0.2403 
 H                     0.7718   -1.4338   -0.2964 
 H                    -0.1408   -0.9507    1.8389 
 H                     1.494    -0.6227    1.819 
 H                    -2.63     -0.5382   -0.631 
 H                    -1.5248   -1.7679   -0.7341 
 H                    -1.5179    1.2245    0.8825 
 H                    -1.7742    1.7436   -0.7055 
 
 NAtoms=     16 NQM=       16 NQMF=       0 NMMI=      0 NMMIF=      0
                NMic=       0 NMicF=      0.
                    Isotopes and Nuclear Properties:
 (Nuclear quadrupole moments (NQMom) in fm**2, nuclear magnetic moments (NMagM)
  in nuclear magnetons)

  Atom         1           2           3           4           5           6           7           8           9          10
 IAtWgt=          12          12          14          14          14          14           1           1           1           1
 AtmWgt=  12.0000000  12.0000000  14.0030740  14.0030740  14.0030740  14.0030740   1.0078250   1.0078250   1.0078250   1.0078250
 NucSpn=           0           0           2           2           2           2           1           1           1           1
 AtZEff=   0.0000000   0.0000000   0.0000000   0.0000000   0.0000000   0.0000000   0.0000000   0.0000000   0.0000000   0.0000000
 NQMom=    0.0000000   0.0000000   2.0440000   2.0440000   2.0440000   2.0440000   0.0000000   0.0000000   0.0000000   0.0000000
 NMagM=    0.0000000   0.0000000   0.4037610   0.4037610   0.4037610   0.4037610   2.7928460   2.7928460   2.7928460   2.7928460
 AtZNuc=   6.0000000   6.0000000   7.0000000   7.0000000   7.0000000   7.0000000   1.0000000   1.0000000   1.0000000   1.0000000

  Atom        11          12          13          14          15          16
 IAtWgt=           1           1           1           1           1           1
 AtmWgt=   1.0078250   1.0078250   1.0078250   1.0078250   1.0078250   1.0078250
 NucSpn=           1           1           1           1           1           1
 AtZEff=   0.0000000   0.0000000   0.0000000   0.0000000   0.0000000   0.0000000
 NQMom=    0.0000000   0.0000000   0.0000000   0.0000000   0.0000000   0.0000000
 NMagM=    2.7928460   2.7928460   2.7928460   2.7928460   2.7928460   2.7928460
 AtZNuc=   1.0000000   1.0000000   1.0000000   1.0000000   1.0000000   1.0000000
 Leave Link  101 at Fri Aug 26 13:08:47 2022, MaxMem= 24159191040 cpu:        10.0
 (Enter /public/home/users/caep010/software/Gaussian09/g09/l103.exe)

 GradGradGradGradGradGradGradGradGradGradGradGradGradGradGradGradGradGrad
 Berny optimization.
 Initialization pass.
                           ----------------------------
                           !    Initial Parameters    !
                           ! (Angstroms and Degrees)  !
 --------------------------                            --------------------------
 ! Name  Definition              Value          Derivative Info.                !
 --------------------------------------------------------------------------------
 ! R1    R(1,2)                  1.5323         estimate D2E/DX2                !
 ! R2    R(1,7)                  1.1108         estimate D2E/DX2                !
 ! R3    R(1,8)                  1.1109         estimate D2E/DX2                !
 ! R4    R(1,9)                  1.1108         estimate D2E/DX2                !
 ! R5    R(2,3)                  1.468          estimate D2E/DX2                !
 ! R6    R(2,4)                  1.4794         estimate D2E/DX2                !
 ! R7    R(2,10)                 1.1149         estimate D2E/DX2                !
 ! R8    R(3,11)                 1.0455         estimate D2E/DX2                !
 ! R9    R(3,12)                 1.0462         estimate D2E/DX2                !
 ! R10   R(4,5)                  1.4133         estimate D2E/DX2                !
 ! R11   R(4,6)                  1.4151         estimate D2E/DX2                !
 ! R12   R(5,13)                 1.0463         estimate D2E/DX2                !
 ! R13   R(5,14)                 1.046          estimate D2E/DX2                !
 ! R14   R(6,15)                 1.0481         estimate D2E/DX2                !
 ! R15   R(6,16)                 1.0454         estimate D2E/DX2                !
 ! A1    A(2,1,7)              110.7145         estimate D2E/DX2                !
 ! A2    A(2,1,8)              109.9419         estimate D2E/DX2                !
 ! A3    A(2,1,9)              110.0986         estimate D2E/DX2                !
 ! A4    A(7,1,8)              108.9764         estimate D2E/DX2                !
 ! A5    A(7,1,9)              108.6708         estimate D2E/DX2                !
 ! A6    A(8,1,9)              108.3878         estimate D2E/DX2                !
 ! A7    A(1,2,3)              110.1776         estimate D2E/DX2                !
 ! A8    A(1,2,4)              109.8697         estimate D2E/DX2                !
 ! A9    A(1,2,10)             106.8982         estimate D2E/DX2                !
 ! A10   A(3,2,4)              111.5279         estimate D2E/DX2                !
 ! A11   A(3,2,10)             109.0552         estimate D2E/DX2                !
 ! A12   A(4,2,10)             109.1918         estimate D2E/DX2                !
 ! A13   A(2,3,11)             108.4881         estimate D2E/DX2                !
 ! A14   A(2,3,12)             108.4151         estimate D2E/DX2                !
 ! A15   A(11,3,12)            105.7279         estimate D2E/DX2                !
 ! A16   A(2,4,5)              109.5957         estimate D2E/DX2                !
 ! A17   A(2,4,6)              109.5241         estimate D2E/DX2                !
 ! A18   A(5,4,6)              109.0434         estimate D2E/DX2                !
 ! A19   A(4,5,13)             107.7925         estimate D2E/DX2                !
 ! A20   A(4,5,14)             107.5988         estimate D2E/DX2                !
 ! A21   A(13,5,14)            104.6958         estimate D2E/DX2                !
 ! A22   A(4,6,15)             110.3135         estimate D2E/DX2                !
 ! A23   A(4,6,16)             107.5059         estimate D2E/DX2                !
 ! A24   A(15,6,16)            107.6786         estimate D2E/DX2                !
 ! D1    D(7,1,2,3)            -57.3842         estimate D2E/DX2                !
 ! D2    D(7,1,2,4)             65.8801         estimate D2E/DX2                !
 ! D3    D(7,1,2,10)          -175.7539         estimate D2E/DX2                !
 ! D4    D(8,1,2,3)           -177.8505         estimate D2E/DX2                !
 ! D5    D(8,1,2,4)            -54.5861         estimate D2E/DX2                !
 ! D6    D(8,1,2,10)            63.7798         estimate D2E/DX2                !
 ! D7    D(9,1,2,3)             62.8028         estimate D2E/DX2                !
 ! D8    D(9,1,2,4)           -173.9328         estimate D2E/DX2                !
 ! D9    D(9,1,2,10)           -55.5668         estimate D2E/DX2                !
 ! D10   D(1,2,3,11)          -173.6951         estimate D2E/DX2                !
 ! D11   D(1,2,3,12)           -59.3285         estimate D2E/DX2                !
 ! D12   D(4,2,3,11)            64.0137         estimate D2E/DX2                !
 ! D13   D(4,2,3,12)           178.3803         estimate D2E/DX2                !
 ! D14   D(10,2,3,11)          -56.6583         estimate D2E/DX2                !
 ! D15   D(10,2,3,12)           57.7083         estimate D2E/DX2                !
 ! D16   D(1,2,4,5)            169.5255         estimate D2E/DX2                !
 ! D17   D(1,2,4,6)            -70.8899         estimate D2E/DX2                !
 ! D18   D(3,2,4,5)            -68.0063         estimate D2E/DX2                !
 ! D19   D(3,2,4,6)             51.5783         estimate D2E/DX2                !
 ! D20   D(10,2,4,5)            52.5857         estimate D2E/DX2                !
 ! D21   D(10,2,4,6)           172.1703         estimate D2E/DX2                !
 ! D22   D(2,4,5,13)           179.1046         estimate D2E/DX2                !
 ! D23   D(2,4,5,14)           -68.4806         estimate D2E/DX2                !
 ! D24   D(6,4,5,13)            59.2255         estimate D2E/DX2                !
 ! D25   D(6,4,5,14)           171.6403         estimate D2E/DX2                !
 ! D26   D(2,4,6,15)           -82.4178         estimate D2E/DX2                !
 ! D27   D(2,4,6,16)           160.4336         estimate D2E/DX2                !
 ! D28   D(5,4,6,15)            37.5055         estimate D2E/DX2                !
 ! D29   D(5,4,6,16)           -79.6431         estimate D2E/DX2                !
 --------------------------------------------------------------------------------
 Trust Radius=3.00D-01 FncErr=1.00D-07 GrdErr=1.00D-06
 Number of steps in this run=     78 maximum allowed number of steps=    100.
 GradGradGradGradGradGradGradGradGradGradGradGradGradGradGradGradGradGrad

 Leave Link  103 at Fri Aug 26 13:08:47 2022, MaxMem= 24159191040 cpu:         0.4
 (Enter /public/home/users/caep010/software/Gaussian09/g09/l202.exe)
                          Input orientation:                          
 ---------------------------------------------------------------------
 Center     Atomic      Atomic             Coordinates (Angstroms)
 Number     Number       Type             X           Y           Z
 ---------------------------------------------------------------------
      1          6           0        1.708400    0.469900   -0.583600
      2          6           0        0.572700   -0.377500   -0.000600
      3          7           0        0.570500   -0.282300    1.464300
      4          7           0       -0.721200    0.052600   -0.574500
      5          7           0       -1.727000   -0.876700   -0.225100
      6          7           0       -1.068000    1.324000   -0.058900
      7          1           0        1.613700    1.528800   -0.261600
      8          1           0        1.682600    0.426100   -1.693300
      9          1           0        2.690300    0.080300   -0.240300
     10          1           0        0.771800   -1.433800   -0.296400
     11          1           0       -0.140800   -0.950700    1.838900
     12          1           0        1.494000   -0.622700    1.819000
     13          1           0       -2.630000   -0.538200   -0.631000
     14          1           0       -1.524800   -1.767900   -0.734100
     15          1           0       -1.517900    1.224500    0.882500
     16          1           0       -1.774200    1.743600   -0.705500
 ---------------------------------------------------------------------
                    Distance matrix (angstroms):
                    1          2          3          4          5
     1  C    0.000000
     2  C    1.532250   0.000000
     3  N    2.460593   1.467992   0.000000
     4  N    2.465193   1.479366   2.436668   0.000000
     5  N    3.707267   2.363942   2.913055   1.413263   0.000000
     6  N    2.951812   2.364402   2.754092   1.415122   2.303255
     7  H    1.110820   2.187643   2.710550   2.780077   4.116800
     8  H    1.110864   2.177816   3.421847   2.677587   3.934243
     9  H    1.110752   2.179740   2.744211   3.427942   4.519803
    10  H    2.140976   1.114858   2.113419   2.125035   2.561141
    11  H    3.362462   2.054605   1.045481   2.677307   2.604151
    12  H    2.648061   2.054230   1.046201   3.330463   3.823310
    13  H    4.454237   3.268106   3.833923   1.998938   1.046301
    14  H    3.934969   2.621210   3.380866   1.996363   1.046042
    15  H    3.623242   2.777927   2.640142   2.032469   2.384437
    16  H    3.710212   3.240970   3.782846   1.996359   2.664392
                    6          7          8          9         10
     6  N    0.000000
     7  H    2.697136   0.000000
     8  H    3.323144   1.808441   0.000000
     9  H    3.962892   1.804903   1.801734   0.000000
    10  H    3.323662   3.080098   2.498022   2.444645   0.000000
    11  H    3.104127   3.693006   4.206757   3.660760   2.371862
    12  H    3.725586   2.995359   3.670395   2.483155   2.377893
    13  H    2.496984   4.734758   4.544983   5.370361   3.533596
    14  H    3.197563   4.576207   4.002639   4.628904   2.361689
    15  H    1.048115   3.347907   4.185139   4.503201   3.701228
    16  H    1.045406   3.423602   3.828971   4.786934   4.092108
                   11         12         13         14         15
    11  H    0.000000
    12  H    1.667498   0.000000
    13  H    3.530818   4.797605   0.000000
    14  H    3.033744   4.116182   1.656580   0.000000
    15  H    2.746380   3.655232   2.575764   3.401162   0.000000
    16  H    4.049842   4.759581   2.438146   3.520462   1.690236
                   16
    16  H    0.000000
 Stoichiometry    C2H10N4
 Framework group  C1[X(C2H10N4)]
 Deg. of freedom    42
 Full point group                 C1      NOp   1
 Largest Abelian subgroup         C1      NOp   1
 Largest concise Abelian subgroup C1      NOp   1
                         Standard orientation:                         
 ---------------------------------------------------------------------
 Center     Atomic      Atomic             Coordinates (Angstroms)
 Number     Number       Type             X           Y           Z
 ---------------------------------------------------------------------
      1          6           0       -1.767102   -0.768736   -0.442037
      2          6           0       -0.665835    0.293354   -0.358581
      3          7           0       -0.851413    1.122202    0.838737
      4          7           0        0.662464   -0.357851   -0.367484
      5          7           0        1.668845    0.620426   -0.533272
      6          7           0        0.868563   -1.028656    0.861383
      7          1           0       -1.774387   -1.399850    0.472055
      8          1           0       -1.600946   -1.418008   -1.327958
      9          1           0       -2.759990   -0.281731   -0.545821
     10          1           0       -0.765374    0.935271   -1.264640
     11          1           0       -0.154922    1.901500    0.813697
     12          1           0       -1.790706    1.579400    0.781861
     13          1           0        2.594312    0.132487   -0.520090
     14          1           0        1.583248    1.000890   -1.503903
     15          1           0        1.202813   -0.355412    1.591839
     16          1           0        1.624364   -1.735097    0.711122
 ---------------------------------------------------------------------
 Rotational constants (GHZ):      4.8665274      2.8057466      2.4966849
 Leave Link  202 at Fri Aug 26 13:08:47 2022, MaxMem= 24159191040 cpu:         0.5
 (Enter /public/home/users/caep010/software/Gaussian09/g09/l301.exe)
 Standard basis: GTBas3 (6D, 7F)
 Ernie: Thresh=  0.10000D-02 Tol=  0.10000D-05 Strict=F.
 There are   236 symmetry adapted cartesian basis functions of A   symmetry.
 There are   218 symmetry adapted basis functions of A   symmetry.
   218 basis functions,   334 primitive gaussians,   236 cartesian basis functions
    25 alpha electrons       25 beta electrons
       nuclear repulsion energy       273.2243527305 Hartrees.
 IExCor=  402 DFT=T Ex+Corr=B3LYP ExCW=0 ScaHFX=  0.200000
 ScaDFX=  0.800000  0.720000  1.000000  0.810000 ScalE2=  1.000000  1.000000
 IRadAn=      0 IRanWt=     -1 IRanGd=            0 ICorTp=0 IEmpDi=  4
 NAtoms=   16 NActive=   16 NUniq=   16 SFac= 1.00D+00 NAtFMM=   60 NAOKFM=F Big=F
 Integral buffers will be    131072 words long.
 Raffenetti 2 integral format.
 Two-electron integral symmetry is turned on.
 Leave Link  301 at Fri Aug 26 13:08:47 2022, MaxMem= 24159191040 cpu:         2.1
 (Enter /public/home/users/caep010/software/Gaussian09/g09/l302.exe)
 NPDir=0 NMtPBC=     1 NCelOv=     1 NCel=       1 NClECP=     1 NCelD=      1
         NCelK=      1 NCelE2=     1 NClLst=     1 CellRange=     0.0.
 One-electron integrals computed using PRISM.
 NBasis=   218 RedAO= T EigKep=  3.00D-04  NBF=   218
 NBsUse=   218 1.00D-06 EigRej= -1.00D+00 NBFU=   218
 Precomputing XC quadrature grid using
 IXCGrd= 4 IRadAn=           0 IRanWt=          -1 IRanGd=           0 AccXCQ= 0.00D+00.
 Generated NRdTot=       0 NPtTot=           0 NUsed=           0 NTot=          32
 NSgBfM=   236   236   236   236   236 MxSgAt=    16 MxSgA2=    16.
 Leave Link  302 at Fri Aug 26 13:08:48 2022, MaxMem= 24159191040 cpu:        14.9
 (Enter /public/home/users/caep010/software/Gaussian09/g09/l303.exe)
 DipDrv:  MaxL=1.
 Leave Link  303 at Fri Aug 26 13:08:48 2022, MaxMem= 24159191040 cpu:         1.3
 (Enter /public/home/users/caep010/software/Gaussian09/g09/l401.exe)
 ExpMin= 1.61D-01 ExpMax= 4.17D+03 ExpMxC= 6.27D+02 IAcc=1 IRadAn=         1 AccDes= 0.00D+00
 Harris functional with IExCor=  402 and IRadAn=       1 diagonalized for initial guess.
 HarFok:  IExCor=  402 AccDes= 0.00D+00 IRadAn=         1 IDoV= 1 UseB2=F ITyADJ=14
 ICtDFT=  3500011 ScaDFX=  1.000000  1.000000  1.000000  1.000000
 FoFCou: FMM=F IPFlag=           0 FMFlag=      100000 FMFlg1=           0
         NFxFlg=           0 DoJE=T BraDBF=F KetDBF=T FulRan=T
         wScrn=  0.000000 ICntrl=     500 IOpCl=  0 I1Cent=   200000004 NGrid=           0
         NMat0=    1 NMatS0=      1 NMatT0=    0 NMatD0=    1 NMtDS0=    0 NMtDT0=    0
 Petite list used in FoFCou.
 Harris En= -301.170761828448    
 JPrj=0 DoOrth=F DoCkMO=F.
 Leave Link  401 at Fri Aug 26 13:08:48 2022, MaxMem= 24159191040 cpu:        14.5
 (Enter /public/home/users/caep010/software/Gaussian09/g09/l502.exe)
 Closed shell SCF:
 Using DIIS extrapolation, IDIIS=  1040.
 Integral symmetry usage will be decided dynamically.
 Keep R1 ints in memory in canonical form, NReq=291775086.
 IVT=      194922 IEndB=      194922 NGot= 24159191040 MDV= 23874071863
 LenX= 23874071863 LenY= 23874015726
 Requested convergence on RMS density matrix=1.00D-08 within 128 cycles.
 Requested convergence on MAX density matrix=1.00D-06.
 Requested convergence on             energy=1.00D-06.
 No special actions if energy rises.
 FoFCou: FMM=F IPFlag=           0 FMFlag=           0 FMFlg1=           0
         NFxFlg=           0 DoJE=F BraDBF=F KetDBF=F FulRan=T
         wScrn=  0.000000 ICntrl=     600 IOpCl=  0 I1Cent=           0 NGrid=           0
         NMat0=    1 NMatS0=  23871 NMatT0=    0 NMatD0=    1 NMtDS0=    0 NMtDT0=    0
 Symmetry not used in FoFCou.
 Integral accuracy reduced to 1.0D-05 until final iterations.

 Cycle   1  Pass 0  IDiag  1:
 E= -300.983128547831    
 DIIS: error= 1.91D-02 at cycle   1 NSaved=   1.
 NSaved= 1 IEnMin= 1 EnMin= -300.983128547831     IErMin= 1 ErrMin= 1.91D-02
 ErrMax= 1.91D-02  0.00D+00 EMaxC= 1.00D-01 BMatC= 2.12D-01 BMatP= 2.12D-01
 IDIUse=3 WtCom= 8.09D-01 WtEn= 1.91D-01
 Coeff-Com:  0.100D+01
 Coeff-En:   0.100D+01
 Coeff:      0.100D+01
 Gap=     0.227 Goal=   None    Shift=    0.000
 GapD=    0.227 DampG=1.000 DampE=0.500 DampFc=0.5000 IDamp=-1.
 Damping current iteration by 5.00D-01
 RMSDP=4.96D-03 MaxDP=1.39D-01              OVMax= 1.76D-01

 Cycle   2  Pass 0  IDiag  1:
 E= -301.059539868996     Delta-E=       -0.076411321165 Rises=F Damp=T
 DIIS: error= 8.73D-03 at cycle   2 NSaved=   2.
 NSaved= 2 IEnMin= 2 EnMin= -301.059539868996     IErMin= 2 ErrMin= 8.73D-03
 ErrMax= 8.73D-03  0.00D+00 EMaxC= 1.00D-01 BMatC= 1.61D-02 BMatP= 2.12D-01
 IDIUse=3 WtCom= 9.13D-01 WtEn= 8.73D-02
 Coeff-Com:  0.127D+00 0.873D+00
 Coeff-En:   0.220D+00 0.780D+00
 Coeff:      0.135D+00 0.865D+00
 Gap=     0.298 Goal=   None    Shift=    0.000
 RMSDP=9.24D-04 MaxDP=2.94D-02 DE=-7.64D-02 OVMax= 1.06D-01

 Cycle   3  Pass 0  IDiag  1:
 E= -301.174846934745     Delta-E=       -0.115307065749 Rises=F Damp=F
 DIIS: error= 2.54D-03 at cycle   3 NSaved=   3.
 NSaved= 3 IEnMin= 3 EnMin= -301.174846934745     IErMin= 3 ErrMin= 2.54D-03
 ErrMax= 2.54D-03  0.00D+00 EMaxC= 1.00D-01 BMatC= 2.94D-03 BMatP= 1.61D-02
 IDIUse=3 WtCom= 9.75D-01 WtEn= 2.54D-02
 Coeff-Com:  0.935D-02 0.264D+00 0.726D+00
 Coeff-En:   0.000D+00 0.000D+00 0.100D+01
 Coeff:      0.912D-02 0.258D+00 0.733D+00
 Gap=     0.253 Goal=   None    Shift=    0.000
 RMSDP=3.39D-04 MaxDP=1.03D-02 DE=-1.15D-01 OVMax= 1.34D-02

 Cycle   4  Pass 0  IDiag  1:
 E= -301.176452405195     Delta-E=       -0.001605470450 Rises=F Damp=F
 DIIS: error= 1.36D-03 at cycle   4 NSaved=   4.
 NSaved= 4 IEnMin= 4 EnMin= -301.176452405195     IErMin= 4 ErrMin= 1.36D-03
 ErrMax= 1.36D-03  0.00D+00 EMaxC= 1.00D-01 BMatC= 9.94D-04 BMatP= 2.94D-03
 IDIUse=3 WtCom= 9.86D-01 WtEn= 1.36D-02
 Coeff-Com: -0.360D-02 0.561D-01 0.385D+00 0.562D+00
 Coeff-En:   0.000D+00 0.000D+00 0.256D+00 0.744D+00
 Coeff:     -0.355D-02 0.554D-01 0.383D+00 0.565D+00
 Gap=     0.249 Goal=   None    Shift=    0.000
 RMSDP=1.52D-04 MaxDP=5.01D-03 DE=-1.61D-03 OVMax= 5.74D-03

 Cycle   5  Pass 0  IDiag  1:
 E= -301.177298480699     Delta-E=       -0.000846075504 Rises=F Damp=F
 DIIS: error= 3.16D-04 at cycle   5 NSaved=   5.
 NSaved= 5 IEnMin= 5 EnMin= -301.177298480699     IErMin= 5 ErrMin= 3.16D-04
 ErrMax= 3.16D-04  0.00D+00 EMaxC= 1.00D-01 BMatC= 4.64D-05 BMatP= 9.94D-04
 IDIUse=3 WtCom= 9.97D-01 WtEn= 3.16D-03
 Coeff-Com: -0.188D-02 0.564D-02 0.119D+00 0.256D+00 0.621D+00
 Coeff-En:   0.000D+00 0.000D+00 0.000D+00 0.000D+00 0.100D+01
 Coeff:     -0.187D-02 0.562D-02 0.119D+00 0.255D+00 0.622D+00
 Gap=     0.250 Goal=   None    Shift=    0.000
 RMSDP=3.14D-05 MaxDP=1.08D-03 DE=-8.46D-04 OVMax= 1.37D-03

 Cycle   6  Pass 0  IDiag  1:
 E= -301.177335386571     Delta-E=       -0.000036905872 Rises=F Damp=F
 DIIS: error= 7.28D-05 at cycle   6 NSaved=   6.
 NSaved= 6 IEnMin= 6 EnMin= -301.177335386571     IErMin= 6 ErrMin= 7.28D-05
 ErrMax= 7.28D-05  0.00D+00 EMaxC= 1.00D-01 BMatC= 2.99D-06 BMatP= 4.64D-05
 IDIUse=1 WtCom= 1.00D+00 WtEn= 0.00D+00
 Coeff-Com: -0.731D-03 0.747D-03 0.460D-01 0.110D+00 0.320D+00 0.524D+00
 Coeff:     -0.731D-03 0.747D-03 0.460D-01 0.110D+00 0.320D+00 0.524D+00
 Gap=     0.250 Goal=   None    Shift=    0.000
 RMSDP=8.54D-06 MaxDP=2.82D-04 DE=-3.69D-05 OVMax= 3.39D-04

 Initial convergence to 1.0D-05 achieved.  Increase integral accuracy.
 Cycle   7  Pass 1  IDiag  1:
 E= -301.177403409736     Delta-E=       -0.000068023165 Rises=F Damp=F
 DIIS: error= 1.59D-05 at cycle   1 NSaved=   1.
 NSaved= 1 IEnMin= 1 EnMin= -301.177403409736     IErMin= 1 ErrMin= 1.59D-05
 ErrMax= 1.59D-05  0.00D+00 EMaxC= 1.00D-01 BMatC= 2.44D-07 BMatP= 2.44D-07
 IDIUse=1 WtCom= 1.00D+00 WtEn= 0.00D+00
 Coeff-Com:  0.100D+01
 Coeff:      0.100D+01
 Gap=     0.250 Goal=   None    Shift=    0.000
 RMSDP=8.54D-06 MaxDP=2.82D-04 DE=-6.80D-05 OVMax= 1.73D-04

 Cycle   8  Pass 1  IDiag  1:
 E= -301.177403427831     Delta-E=       -0.000000018096 Rises=F Damp=F
 DIIS: error= 1.91D-05 at cycle   2 NSaved=   2.
 NSaved= 2 IEnMin= 2 EnMin= -301.177403427831     IErMin= 1 ErrMin= 1.59D-05
 ErrMax= 1.91D-05  0.00D+00 EMaxC= 1.00D-01 BMatC= 2.25D-07 BMatP= 2.44D-07
 IDIUse=1 WtCom= 1.00D+00 WtEn= 0.00D+00
 Coeff-Com:  0.488D+00 0.512D+00
 Coeff:      0.488D+00 0.512D+00
 Gap=     0.250 Goal=   None    Shift=    0.000
 RMSDP=2.60D-06 MaxDP=9.06D-05 DE=-1.81D-08 OVMax= 1.13D-04

 Cycle   9  Pass 1  IDiag  1:
 E= -301.177403613376     Delta-E=       -0.000000185545 Rises=F Damp=F
 DIIS: error= 6.01D-06 at cycle   3 NSaved=   3.
 NSaved= 3 IEnMin= 3 EnMin= -301.177403613376     IErMin= 3 ErrMin= 6.01D-06
 ErrMax= 6.01D-06  0.00D+00 EMaxC= 1.00D-01 BMatC= 1.79D-08 BMatP= 2.25D-07
 IDIUse=1 WtCom= 1.00D+00 WtEn= 0.00D+00
 Coeff-Com:  0.177D-01 0.217D+00 0.765D+00
 Coeff:      0.177D-01 0.217D+00 0.765D+00
 Gap=     0.250 Goal=   None    Shift=    0.000
 RMSDP=6.21D-07 MaxDP=2.50D-05 DE=-1.86D-07 OVMax= 2.81D-05

 Cycle  10  Pass 1  IDiag  1:
 E= -301.177403627120     Delta-E=       -0.000000013744 Rises=F Damp=F
 DIIS: error= 1.68D-06 at cycle   4 NSaved=   4.
 NSaved= 4 IEnMin= 4 EnMin= -301.177403627120     IErMin= 4 ErrMin= 1.68D-06
 ErrMax= 1.68D-06  0.00D+00 EMaxC= 1.00D-01 BMatC= 1.73D-09 BMatP= 1.79D-08
 IDIUse=1 WtCom= 1.00D+00 WtEn= 0.00D+00
 Coeff-Com: -0.110D-01 0.922D-01 0.398D+00 0.521D+00
 Coeff:     -0.110D-01 0.922D-01 0.398D+00 0.521D+00
 Gap=     0.250 Goal=   None    Shift=    0.000
 RMSDP=1.78D-07 MaxDP=6.74D-06 DE=-1.37D-08 OVMax= 7.84D-06

 Cycle  11  Pass 1  IDiag  1:
 E= -301.177403628543     Delta-E=       -0.000000001423 Rises=F Damp=F
 DIIS: error= 2.91D-07 at cycle   5 NSaved=   5.
 NSaved= 5 IEnMin= 5 EnMin= -301.177403628543     IErMin= 5 ErrMin= 2.91D-07
 ErrMax= 2.91D-07  0.00D+00 EMaxC= 1.00D-01 BMatC= 6.19D-11 BMatP= 1.73D-09
 IDIUse=1 WtCom= 1.00D+00 WtEn= 0.00D+00
 Coeff-Com: -0.608D-02 0.323D-01 0.150D+00 0.246D+00 0.578D+00
 Coeff:     -0.608D-02 0.323D-01 0.150D+00 0.246D+00 0.578D+00
 Gap=     0.250 Goal=   None    Shift=    0.000
 RMSDP=3.86D-08 MaxDP=1.20D-06 DE=-1.42D-09 OVMax= 1.53D-06

 Cycle  12  Pass 1  IDiag  1:
 E= -301.177403628590     Delta-E=       -0.000000000047 Rises=F Damp=F
 DIIS: error= 8.21D-08 at cycle   6 NSaved=   6.
 NSaved= 6 IEnMin= 6 EnMin= -301.177403628590     IErMin= 6 ErrMin= 8.21D-08
 ErrMax= 8.21D-08  0.00D+00 EMaxC= 1.00D-01 BMatC= 2.79D-12 BMatP= 6.19D-11
 IDIUse=1 WtCom= 1.00D+00 WtEn= 0.00D+00
 Coeff-Com: -0.137D-02 0.475D-02 0.250D-01 0.511D-01 0.220D+00 0.700D+00
 Coeff:     -0.137D-02 0.475D-02 0.250D-01 0.511D-01 0.220D+00 0.700D+00
 Gap=     0.250 Goal=   None    Shift=    0.000
 RMSDP=1.02D-08 MaxDP=3.87D-07 DE=-4.74D-11 OVMax= 4.58D-07

 Cycle  13  Pass 1  IDiag  1:
 E= -301.177403628607     Delta-E=       -0.000000000017 Rises=F Damp=F
 DIIS: error= 3.25D-08 at cycle   7 NSaved=   7.
 NSaved= 7 IEnMin= 7 EnMin= -301.177403628607     IErMin= 7 ErrMin= 3.25D-08
 ErrMax= 3.25D-08  0.00D+00 EMaxC= 1.00D-01 BMatC= 5.08D-13 BMatP= 2.79D-12
 IDIUse=1 WtCom= 1.00D+00 WtEn= 0.00D+00
 Coeff-Com: -0.224D-03 0.547D-04 0.181D-02 0.802D-02 0.700D-01 0.368D+00
 Coeff-Com:  0.552D+00
 Coeff:     -0.224D-03 0.547D-04 0.181D-02 0.802D-02 0.700D-01 0.368D+00
 Coeff:      0.552D+00
 Gap=     0.250 Goal=   None    Shift=    0.000
 RMSDP=3.15D-09 MaxDP=1.40D-07 DE=-1.66D-11 OVMax= 1.45D-07

 SCF Done:  E(RB3LYP) =  -301.177403629     A.U. after   13 cycles
            NFock= 13  Conv=0.31D-08     -V/T= 2.0083
 KE= 2.986878423197D+02 PE=-1.248473556145D+03 EE= 3.753839574660D+02
 Leave Link  502 at Fri Aug 26 13:08:57 2022, MaxMem= 24159191040 cpu:       101.3
 (Enter /public/home/users/caep010/software/Gaussian09/g09/l601.exe)
 Copying SCF densities to generalized density rwf, IOpCl= 0 IROHF=0.

 **********************************************************************

            Population analysis using the SCF density.

 **********************************************************************

 Orbital symmetries:
       Occupied  (A) (A) (A) (A) (A) (A) (A) (A) (A) (A) (A) (A)
                 (A) (A) (A) (A) (A) (A) (A) (A) (A) (A) (A) (A)
                 (A)
       Virtual   (A) (A) (A) (A) (A) (A) (A) (A) (A) (A) (A) (A)
                 (A) (A) (A) (A) (A) (A) (A) (A) (A) (A) (A) (A)
                 (A) (A) (A) (A) (A) (A) (A) (A) (A) (A) (A) (A)
                 (A) (A) (A) (A) (A) (A) (A) (A) (A) (A) (A) (A)
                 (A) (A) (A) (A) (A) (A) (A) (A) (A) (A) (A) (A)
                 (A) (A) (A) (A) (A) (A) (A) (A) (A) (A) (A) (A)
                 (A) (A) (A) (A) (A) (A) (A) (A) (A) (A) (A) (A)
                 (A) (A) (A) (A) (A) (A) (A) (A) (A) (A) (A) (A)
                 (A) (A) (A) (A) (A) (A) (A) (A) (A) (A) (A) (A)
                 (A) (A) (A) (A) (A) (A) (A) (A) (A) (A) (A) (A)
                 (A) (A) (A) (A) (A) (A) (A) (A) (A) (A) (A) (A)
                 (A) (A) (A) (A) (A) (A) (A) (A) (A) (A) (A) (A)
                 (A) (A) (A) (A) (A) (A) (A) (A) (A) (A) (A) (A)
                 (A) (A) (A) (A) (A) (A) (A) (A) (A) (A) (A) (A)
                 (A) (A) (A) (A) (A) (A) (A) (A) (A) (A) (A) (A)
                 (A) (A) (A) (A) (A) (A) (A) (A) (A) (A) (A) (A)
                 (A)
 The electronic state is 1-A.
 Alpha  occ. eigenvalues --  -14.35929 -14.33769 -14.33053 -14.30082 -10.22894
 Alpha  occ. eigenvalues --  -10.16575  -1.00345  -0.86411  -0.83943  -0.73879
 Alpha  occ. eigenvalues --   -0.67691  -0.56845  -0.50082  -0.49206  -0.48561
 Alpha  occ. eigenvalues --   -0.44942  -0.43312  -0.41305  -0.36065  -0.35002
 Alpha  occ. eigenvalues --   -0.34800  -0.32643  -0.24799  -0.23008  -0.18660
 Alpha virt. eigenvalues --    0.06307   0.09819   0.11041   0.12994   0.14379
 Alpha virt. eigenvalues --    0.15211   0.16377   0.16749   0.18932   0.19044
 Alpha virt. eigenvalues --    0.20015   0.23846   0.24967   0.26981   0.28680
 Alpha virt. eigenvalues --    0.46867   0.47468   0.48937   0.51956   0.53180
 Alpha virt. eigenvalues --    0.54059   0.57139   0.58573   0.60680   0.62909
 Alpha virt. eigenvalues --    0.64511   0.67041   0.69074   0.71068   0.72100
 Alpha virt. eigenvalues --    0.72413   0.73320   0.74278   0.76177   0.76455
 Alpha virt. eigenvalues --    0.79389   0.80312   0.81870   0.83486   0.84542
 Alpha virt. eigenvalues --    0.86476   0.89339   0.89953   0.90900   0.91997
 Alpha virt. eigenvalues --    0.92993   1.00874   1.02312   1.07398   1.14358
 Alpha virt. eigenvalues --    1.19770   1.21040   1.26140   1.33427   1.35930
 Alpha virt. eigenvalues --    1.39198   1.41039   1.44926   1.48094   1.48833
 Alpha virt. eigenvalues --    1.51744   1.54440   1.57641   1.60794   1.64385
 Alpha virt. eigenvalues --    1.66668   1.70087   1.72297   1.76638   1.78538
 Alpha virt. eigenvalues --    1.81179   1.82850   1.87036   1.88591   1.92519
 Alpha virt. eigenvalues --    1.96787   1.99332   2.04901   2.12154   2.13418
 Alpha virt. eigenvalues --    2.20125   2.22208   2.24613   2.29536   2.31727
 Alpha virt. eigenvalues --    2.40440   2.45892   2.48462   2.53855   2.54361
 Alpha virt. eigenvalues --    2.56633   2.61863   2.63294   2.72366   2.76364
 Alpha virt. eigenvalues --    2.78628   2.79521   2.82029   2.84327   2.86288
 Alpha virt. eigenvalues --    2.87667   2.88181   2.90478   2.94546   2.95921
 Alpha virt. eigenvalues --    2.97177   2.99105   3.02385   3.04783   3.10585
 Alpha virt. eigenvalues --    3.15655   3.22846   3.32191   3.33280   3.34191
 Alpha virt. eigenvalues --    3.41914   3.44945   3.48066   3.54018   3.60021
 Alpha virt. eigenvalues --    3.63303   3.64915   3.69804   3.75456   3.78625
 Alpha virt. eigenvalues --    3.82851   3.86942   3.89952   3.93178   3.95217
 Alpha virt. eigenvalues --    4.01431   4.05324   4.08105   4.09269   4.11918
 Alpha virt. eigenvalues --    4.14343   4.19979   4.23732   4.26856   4.29387
 Alpha virt. eigenvalues --    4.31626   4.34405   4.37309   4.38048   4.39784
 Alpha virt. eigenvalues --    4.42836   4.43242   4.44983   4.47314   4.49262
 Alpha virt. eigenvalues --    4.51214   4.52071   4.55697   4.58099   4.58641
 Alpha virt. eigenvalues --    4.59820   4.63455   4.66529   4.68242   4.71620
 Alpha virt. eigenvalues --    4.74782   4.77279   4.78531   4.80659   4.81603
 Alpha virt. eigenvalues --    4.85383   4.89707   4.92253   4.93585   5.00209
 Alpha virt. eigenvalues --    5.04771   5.16925   5.20422   5.21876   5.33163
 Alpha virt. eigenvalues --    5.35452   5.38550   5.39768   5.49067   5.52253
 Alpha virt. eigenvalues --    5.56885   5.63583   5.69958   8.20050   9.52021
 Alpha virt. eigenvalues --   10.94596  11.23948  11.42163  11.51235  11.54157
 Alpha virt. eigenvalues --   11.98147  13.24100  16.22195
          Condensed to atoms (all electrons):
               1          2          3          4          5          6
     1  C    5.030048   0.376003  -0.037940  -0.020905   0.003322  -0.005111
     2  C    0.376003   4.653528   0.354544   0.353316  -0.057105  -0.060756
     3  N   -0.037940   0.354544   6.662370  -0.056365  -0.006336  -0.004918
     4  N   -0.020905   0.353316  -0.056365   6.480082   0.253409   0.341095
     5  N    0.003322  -0.057105  -0.006336   0.253409   6.712451  -0.090720
     6  N   -0.005111  -0.060756  -0.004918   0.341095  -0.090720   6.580165
     7  H    0.365556  -0.018517   0.001078  -0.005380   0.000179   0.010288
     8  H    0.360476  -0.020309   0.003346   0.000961  -0.000076   0.000837
     9  H    0.360416  -0.024005  -0.000400   0.002944  -0.000094   0.000211
    10  H   -0.053390   0.385665  -0.056978  -0.050448  -0.003350   0.004307
    11  H    0.006839  -0.043902   0.322391  -0.002800   0.014648  -0.000320
    12  H   -0.003674  -0.036096   0.323620   0.005659  -0.000139   0.000009
    13  H   -0.000428   0.005559   0.000066  -0.047938   0.315052   0.005276
    14  H   -0.000616   0.000633  -0.000192  -0.046958   0.313035   0.007784
    15  H    0.000474  -0.004860   0.011922  -0.059834   0.011281   0.311894
    16  H   -0.000151   0.005838   0.000250  -0.050369  -0.000764   0.336066
               7          8          9         10         11         12
     1  C    0.365556   0.360476   0.360416  -0.053390   0.006839  -0.003674
     2  C   -0.018517  -0.020309  -0.024005   0.385665  -0.043902  -0.036096
     3  N    0.001078   0.003346  -0.000400  -0.056978   0.322391   0.323620
     4  N   -0.005380   0.000961   0.002944  -0.050448  -0.002800   0.005659
     5  N    0.000179  -0.000076  -0.000094  -0.003350   0.014648  -0.000139
     6  N    0.010288   0.000837   0.000211   0.004307  -0.000320   0.000009
     7  H    0.553553  -0.025224  -0.029538   0.006028  -0.000104  -0.000203
     8  H   -0.025224   0.594200  -0.028432   0.000584  -0.000235  -0.000299
     9  H   -0.029538  -0.028432   0.622290  -0.004328   0.000023   0.002760
    10  H    0.006028   0.000584  -0.004328   0.724143  -0.005887  -0.003416
    11  H   -0.000104  -0.000235   0.000023  -0.005887   0.508737  -0.029328
    12  H   -0.000203  -0.000299   0.002760  -0.003416  -0.029328   0.521772
    13  H   -0.000001  -0.000019   0.000002  -0.000068  -0.000535   0.000016
    14  H   -0.000008  -0.000029  -0.000024   0.004455  -0.001020  -0.000022
    15  H   -0.000042   0.000109   0.000027  -0.000042   0.001682  -0.000499
    16  H   -0.000433  -0.000121  -0.000004  -0.000198  -0.000091   0.000005
              13         14         15         16
     1  C   -0.000428  -0.000616   0.000474  -0.000151
     2  C    0.005559   0.000633  -0.004860   0.005838
     3  N    0.000066  -0.000192   0.011922   0.000250
     4  N   -0.047938  -0.046958  -0.059834  -0.050369
     5  N    0.315052   0.313035   0.011281  -0.000764
     6  N    0.005276   0.007784   0.311894   0.336066
     7  H   -0.000001  -0.000008  -0.000042  -0.000433
     8  H   -0.000019  -0.000029   0.000109  -0.000121
     9  H    0.000002  -0.000024   0.000027  -0.000004
    10  H   -0.000068   0.004455  -0.000042  -0.000198
    11  H   -0.000535  -0.001020   0.001682  -0.000091
    12  H    0.000016  -0.000022  -0.000499   0.000005
    13  H    0.515492  -0.023123  -0.002107   0.005780
    14  H   -0.023123   0.515422  -0.000373  -0.000010
    15  H   -0.002107  -0.000373   0.554880  -0.042298
    16  H    0.005780  -0.000010  -0.042298   0.515832
 Mulliken charges:
               1
     1  C   -0.380921
     2  C    0.130465
     3  N   -0.516458
     4  N   -0.096469
     5  N   -0.464794
     6  N   -0.436107
     7  H    0.142767
     8  H    0.114229
     9  H    0.098151
    10  H    0.052924
    11  H    0.229902
    12  H    0.219836
    13  H    0.226975
    14  H    0.231046
    15  H    0.217785
    16  H    0.230669
 Sum of Mulliken charges =  -0.00000
 Mulliken charges with hydrogens summed into heavy atoms:
               1
     1  C   -0.025774
     2  C    0.183389
     3  N   -0.066720
     4  N   -0.096469
     5  N   -0.006773
     6  N    0.012346
 Electronic spatial extent (au):  <R**2>=            613.8788
 Charge=             -0.0000 electrons
 Dipole moment (field-independent basis, Debye):
    X=              1.1709    Y=              1.0249    Z=             -1.3347  Tot=              2.0501
 Quadrupole moment (field-independent basis, Debye-Ang):
   XX=            -31.6322   YY=            -36.8222   ZZ=            -38.7739
   XY=             -3.6287   XZ=              0.5598   YZ=             -1.2453
 Traceless Quadrupole moment (field-independent basis, Debye-Ang):
   XX=              4.1105   YY=             -1.0794   ZZ=             -3.0311
   XY=             -3.6287   XZ=              0.5598   YZ=             -1.2453
 Octapole moment (field-independent basis, Debye-Ang**2):
  XXX=             15.8976  YYY=              5.3432  ZZZ=             -3.1635  XYY=              1.0072
  XXY=             -1.8690  XXZ=             -0.4121  XZZ=              8.4933  YZZ=              3.1593
  YYZ=              1.1905  XYZ=             -3.8483
 Hexadecapole moment (field-independent basis, Debye-Ang**3):
 XXXX=           -378.0379 YYYY=           -196.9081 ZZZZ=           -150.5003 XXXY=            -26.3871
 XXXZ=            -12.7026 YYYX=            -18.2215 YYYZ=              3.8187 ZZZX=              0.7987
 ZZZY=             -6.3036 XXYY=            -97.3306 XXZZ=            -89.4712 YYZZ=            -58.2864
 XXYZ=             -5.8285 YYXZ=             -2.1512 ZZXY=              2.9242
 N-N= 2.732243527305D+02 E-N=-1.248473548327D+03  KE= 2.986878423197D+02
 No NMR shielding tensors so no spin-rotation constants.
 Leave Link  601 at Fri Aug 26 13:08:57 2022, MaxMem= 24159191040 cpu:        14.1
 (Enter /public/home/users/caep010/software/Gaussian09/g09/l701.exe)
 Compute integral first derivatives.
 ... and contract with generalized density number  0.
 Leave Link  701 at Fri Aug 26 13:08:58 2022, MaxMem= 24159191040 cpu:        14.6
 (Enter /public/home/users/caep010/software/Gaussian09/g09/l702.exe)
 L702 exits ... SP integral derivatives will be done elsewhere.
 Leave Link  702 at Fri Aug 26 13:08:58 2022, MaxMem= 24159191040 cpu:         0.5
 (Enter /public/home/users/caep010/software/Gaussian09/g09/l703.exe)
 Compute integral first derivatives, UseDBF=F ICtDFT=           0.
 Integral derivatives from FoFJK, PRISM(SPDF).
 Calling FoFJK, ICntrl=      2127 FMM=F ISym2X=0 I1Cent= 0 IOpClX= 0 NMat=1 NMatS=1 NMatT=0.
 FoFJK:  IHMeth= 1 ICntrl=    2127 DoSepK=F KAlg= 0 I1Cent=   0 FoldK=F
 IRaf=         0 NMat=   1 IRICut=       1 DoRegI=T DoRafI=F ISym2E= 0.
 FoFCou: FMM=F IPFlag=           0 FMFlag=      100000 FMFlg1=         800
         NFxFlg=           0 DoJE=F BraDBF=F KetDBF=F FulRan=T
         wScrn=  0.000000 ICntrl=    2127 IOpCl=  0 I1Cent=           0 NGrid=           0
         NMat0=    1 NMatS0=      1 NMatT0=    0 NMatD0=    1 NMtDS0=    0 NMtDT0=    0
 Symmetry not used in FoFCou.
 Leave Link  703 at Fri Aug 26 13:09:00 2022, MaxMem= 24159191040 cpu:        50.1
 (Enter /public/home/users/caep010/software/Gaussian09/g09/l716.exe)
 Dipole        = 4.60661145D-01 4.03239021D-01-5.25109386D-01
 ***** Axes restored to original set *****
 -------------------------------------------------------------------
 Center     Atomic                   Forces (Hartrees/Bohr)
 Number     Number              X              Y              Z
 -------------------------------------------------------------------
      1        6           0.003454476    0.006452289   -0.003070863
      2        6           0.006512072   -0.002835198    0.003461386
      3        7           0.004367206   -0.018837530    0.018049330
      4        7           0.023750982    0.019952946   -0.013997337
      5        7          -0.035266904   -0.036710222    0.004520460
      6        7          -0.018998231    0.009317985    0.000267507
      7        1          -0.000103737   -0.011766862   -0.003283177
      8        1           0.000279579    0.000402033    0.011271602
      9        1          -0.008573517    0.003399215   -0.002848216
     10        1          -0.010120167    0.007051111   -0.006922543
     11        1           0.014429477    0.013165614   -0.008568208
     12        1          -0.020482461    0.007881423   -0.006787963
     13        1           0.020718225   -0.005097468    0.004000301
     14        1          -0.003240244    0.017349850    0.006132907
     15        1           0.008928130    0.000448249   -0.015857759
     16        1           0.014345113   -0.010173438    0.013632573
 -------------------------------------------------------------------
 Cartesian Forces:  Max     0.036710222 RMS     0.013103958
 Leave Link  716 at Fri Aug 26 13:09:00 2022, MaxMem= 24159191040 cpu:         0.7
 (Enter /public/home/users/caep010/software/Gaussian09/g09/l103.exe)

 GradGradGradGradGradGradGradGradGradGradGradGradGradGradGradGradGradGrad
 Berny optimization.
 FormGI is forming the generalized inverse of G from B-inverse, IUseBI=4.
 Internal  Forces:  Max     0.032369757 RMS     0.008239741
 Search for a local minimum.
 Step number   1 out of a maximum of   78
 All quantities printed in internal units (Hartrees-Bohrs-Radians)
 RMS Force = .82397D-02 SwitMx=.10000D-02 MixMth= 1
 Mixed Optimization -- RFO/linear search
 Second derivative matrix not updated -- first step.
 ITU=  0
     Eigenvalues ---    0.00339   0.00642   0.00792   0.01095   0.01119
     Eigenvalues ---    0.03930   0.04593   0.04720   0.05421   0.05593
     Eigenvalues ---    0.05692   0.05960   0.06202   0.06465   0.16000
     Eigenvalues ---    0.16000   0.16000   0.16000   0.16000   0.16000
     Eigenvalues ---    0.16000   0.16000   0.16000   0.17179   0.17185
     Eigenvalues ---    0.18399   0.18579   0.29217   0.32091   0.32509
     Eigenvalues ---    0.32513   0.32521   0.34642   0.35982   0.40139
     Eigenvalues ---    0.40393   0.40408   0.40430   0.40509   0.40520
     Eigenvalues ---    0.43203   0.43491
 RFO step:  Lambda=-1.48421465D-02 EMin= 3.39340954D-03
 Linear search not attempted -- first point.
 Iteration  1 RMS(Cart)=  0.06482887 RMS(Int)=  0.00188210
 Iteration  2 RMS(Cart)=  0.00208426 RMS(Int)=  0.00048074
 Iteration  3 RMS(Cart)=  0.00000363 RMS(Int)=  0.00048073
 Iteration  4 RMS(Cart)=  0.00000000 RMS(Int)=  0.00048073
 ITry= 1 IFail=0 DXMaxC= 2.14D-01 DCOld= 1.00D+10 DXMaxT= 3.00D-01 DXLimC= 3.00D+00 Rises=F
 Variable       Old X    -DE/DX   Delta X   Delta X   Delta X     New X
                                 (Linear)    (Quad)   (Total)
    R1        2.89553  -0.00529   0.00000  -0.01722  -0.01722   2.87832
    R2        2.09915  -0.01216   0.00000  -0.03576  -0.03576   2.06338
    R3        2.09923  -0.01128   0.00000  -0.03319  -0.03319   2.06604
    R4        2.09902  -0.00965   0.00000  -0.02839  -0.02839   2.07063
    R5        2.77410   0.00283   0.00000   0.00756   0.00756   2.78167
    R6        2.79560  -0.00988   0.00000  -0.02735  -0.02735   2.76825
    R7        2.10678  -0.00665   0.00000  -0.01981  -0.01981   2.08696
    R8        1.97567  -0.02131   0.00000  -0.05074  -0.05074   1.92494
    R9        1.97703  -0.02295   0.00000  -0.05477  -0.05477   1.92226
   R10        2.67068   0.03237   0.00000   0.07197   0.07197   2.74265
   R11        2.67419  -0.00213   0.00000  -0.00477  -0.00477   2.66943
   R12        1.97722  -0.02108   0.00000  -0.05035  -0.05035   1.92688
   R13        1.97673  -0.01839   0.00000  -0.04388  -0.04388   1.93285
   R14        1.98065  -0.01812   0.00000  -0.04353  -0.04353   1.93712
   R15        1.97553  -0.02221   0.00000  -0.05286  -0.05286   1.92267
    A1        1.93233  -0.00170   0.00000  -0.01064  -0.01065   1.92169
    A2        1.91885   0.00025   0.00000   0.00156   0.00155   1.92040
    A3        1.92158   0.00023   0.00000   0.00215   0.00215   1.92373
    A4        1.90200   0.00050   0.00000   0.00125   0.00124   1.90323
    A5        1.89666   0.00072   0.00000   0.00386   0.00386   1.90053
    A6        1.89172   0.00004   0.00000   0.00210   0.00209   1.89381
    A7        1.92296  -0.00101   0.00000   0.00837   0.00788   1.93084
    A8        1.91759   0.00164   0.00000   0.00100   0.00111   1.91870
    A9        1.86573   0.00217   0.00000   0.02755   0.02636   1.89208
   A10        1.94653  -0.00046   0.00000  -0.00666  -0.00650   1.94003
   A11        1.90337   0.00389   0.00000   0.04829   0.04724   1.95061
   A12        1.90576  -0.00617   0.00000  -0.07766  -0.07722   1.82854
   A13        1.89348  -0.00201   0.00000  -0.01145  -0.01143   1.88204
   A14        1.89220   0.00211   0.00000   0.01211   0.01213   1.90433
   A15        1.84530  -0.00003   0.00000  -0.00001   0.00004   1.84534
   A16        1.91281  -0.00770   0.00000  -0.04799  -0.04797   1.86483
   A17        1.91156   0.00002   0.00000  -0.00915  -0.00918   1.90238
   A18        1.90317   0.00497   0.00000   0.01722   0.01661   1.91977
   A19        1.88133  -0.00811   0.00000  -0.05645  -0.05723   1.82410
   A20        1.87795  -0.00409   0.00000  -0.03349  -0.03425   1.84371
   A21        1.82729   0.00027   0.00000  -0.02286  -0.02512   1.80217
   A22        1.92533  -0.00219   0.00000  -0.01410  -0.01416   1.91118
   A23        1.87633  -0.00156   0.00000  -0.01061  -0.01067   1.86566
   A24        1.87935   0.00110   0.00000   0.00284   0.00270   1.88205
    D1       -1.00154   0.00163   0.00000   0.01873   0.01884  -0.98270
    D2        1.14983   0.00148   0.00000   0.01665   0.01672   1.16654
    D3       -3.06748  -0.00374   0.00000  -0.05961  -0.05978  -3.12727
    D4       -3.10408   0.00193   0.00000   0.02300   0.02311  -3.08097
    D5       -0.95271   0.00178   0.00000   0.02092   0.02099  -0.93172
    D6        1.11317  -0.00344   0.00000  -0.05534  -0.05552   1.05765
    D7        1.09612   0.00158   0.00000   0.01810   0.01821   1.11433
    D8       -3.03570   0.00143   0.00000   0.01602   0.01609  -3.01961
    D9       -0.96982  -0.00379   0.00000  -0.06024  -0.06042  -1.03024
   D10       -3.03155  -0.00095   0.00000  -0.01489  -0.01521  -3.04676
   D11       -1.03548  -0.00093   0.00000  -0.01455  -0.01490  -1.05037
   D12        1.11725  -0.00202   0.00000  -0.01745  -0.01766   1.09959
   D13        3.11332  -0.00200   0.00000  -0.01711  -0.01734   3.09598
   D14       -0.98887   0.00339   0.00000   0.05172   0.05228  -0.93660
   D15        1.00720   0.00341   0.00000   0.05206   0.05259   1.05979
   D16        2.95878   0.00097   0.00000   0.07289   0.07283   3.03161
   D17       -1.23726   0.00238   0.00000   0.05912   0.05954  -1.17772
   D18       -1.18693   0.00052   0.00000   0.07970   0.07919  -1.10774
   D19        0.90021   0.00192   0.00000   0.06593   0.06591   0.96612
   D20        0.91779   0.00100   0.00000   0.08425   0.08409   1.00189
   D21        3.00494   0.00240   0.00000   0.07048   0.07081   3.07575
   D22        3.12597   0.00222   0.00000   0.02996   0.02884  -3.12838
   D23       -1.19521  -0.00328   0.00000  -0.03924  -0.03830  -1.23351
   D24        1.03368   0.00381   0.00000   0.05956   0.05862   1.09230
   D25        2.99569  -0.00169   0.00000  -0.00964  -0.00852   2.98716
   D26       -1.43846   0.00377   0.00000   0.05935   0.05954  -1.37892
   D27        2.80009   0.00454   0.00000   0.06976   0.06984   2.86993
   D28        0.65459  -0.00259   0.00000   0.00575   0.00567   0.66027
   D29       -1.39003  -0.00182   0.00000   0.01616   0.01597  -1.37407
         Item               Value     Threshold  Converged?
 Maximum Force            0.032370     0.000450     NO 
 RMS     Force            0.008240     0.000300     NO 
 Maximum Displacement     0.213774     0.001800     NO 
 RMS     Displacement     0.065110     0.001200     NO 
 Predicted change in Energy=-8.217191D-03
 Lowest energy point so far.  Saving SCF results.
 GradGradGradGradGradGradGradGradGradGradGradGradGradGradGradGradGradGrad

 Leave Link  103 at Fri Aug 26 13:09:00 2022, MaxMem= 24159191040 cpu:         2.6
 (Enter /public/home/users/caep010/software/Gaussian09/g09/l202.exe)
                          Input orientation:                          
 ---------------------------------------------------------------------
 Center     Atomic      Atomic             Coordinates (Angstroms)
 Number     Number       Type             X           Y           Z
 ---------------------------------------------------------------------
      1          6           0        1.696737    0.488969   -0.568884
      2          6           0        0.568124   -0.373123   -0.018444
      3          7           0        0.535762   -0.308304    1.451767
      4          7           0       -0.710386    0.050415   -0.594586
      5          7           0       -1.709583   -0.902408   -0.147207
      6          7           0       -1.025441    1.341444   -0.115606
      7          1           0        1.590341    1.516745   -0.215908
      8          1           0        1.673663    0.482915   -1.661926
      9          1           0        2.666323    0.099231   -0.239292
     10          1           0        0.710968   -1.406930   -0.379663
     11          1           0       -0.170379   -0.966207    1.777560
     12          1           0        1.420781   -0.649038    1.819695
     13          1           0       -2.577510   -0.583128   -0.576705
     14          1           0       -1.505894   -1.770895   -0.647612
     15          1           0       -1.404775    1.270973    0.834094
     16          1           0       -1.758628    1.709341   -0.717483
 ---------------------------------------------------------------------
                    Distance matrix (angstroms):
                    1          2          3          4          5
     1  C    0.000000
     2  C    1.523139   0.000000
     3  N    2.463034   1.471995   0.000000
     4  N    2.446882   1.464893   2.422627   0.000000
     5  N    3.703614   2.341938   2.819796   1.451349   0.000000
     6  N    2.888326   2.342783   2.759653   1.412600   2.346043
     7  H    1.091895   2.157665   2.687765   2.754426   4.092251
     8  H    1.093302   2.157789   3.408215   2.647633   3.957253
     9  H    1.095730   2.162020   2.750465   3.395701   4.490024
    10  H    2.145222   1.104374   2.142852   2.047021   2.483475
    11  H    3.333086   2.030460   1.018633   2.636703   2.465349
    12  H    2.660173   2.044971   1.017216   3.295430   3.705682
    13  H    4.406659   3.201683   3.725948   1.971763   1.019659
    14  H    3.920463   2.578987   3.273366   1.988169   1.022822
    15  H    3.492743   2.705957   2.577076   2.003264   2.404047
    16  H    3.667552   3.199857   3.747101   1.966202   2.673733
                    6          7          8          9         10
     6  N    0.000000
     7  H    2.623567   0.000000
     8  H    3.226971   1.779526   0.000000
     9  H    3.897117   1.779784   1.776647   0.000000
    10  H    3.261657   3.057448   2.478406   2.472173   0.000000
    11  H    3.104909   3.638557   4.162993   3.640019   2.371629
    12  H    3.700190   2.977087   3.669735   2.520062   2.432162
    13  H    2.515056   4.680878   4.515155   5.298797   3.395816
    14  H    3.193826   4.536697   4.027168   4.590370   2.262464
    15  H    1.025081   3.183336   4.040784   4.370238   3.622256
    16  H    1.017432   3.391794   3.765198   4.733003   3.990510
                   11         12         13         14         15
    11  H    0.000000
    12  H    1.623010   0.000000
    13  H    3.388745   4.661910   0.000000
    14  H    2.883155   3.988933   1.601306   0.000000
    15  H    2.723754   3.555505   2.608323   3.385061   0.000000
    16  H    3.988274   4.701900   2.438401   3.490101   1.650688
                   16
    16  H    0.000000
 Stoichiometry    C2H10N4
 Framework group  C1[X(C2H10N4)]
 Deg. of freedom    42
 Full point group                 C1      NOp   1
 RotChk:  IX=0 Diff= 5.71D-02
 Largest Abelian subgroup         C1      NOp   1
 Largest concise Abelian subgroup C1      NOp   1
                         Standard orientation:                         
 ---------------------------------------------------------------------
 Center     Atomic      Atomic             Coordinates (Angstroms)
 Number     Number       Type             X           Y           Z
 ---------------------------------------------------------------------
      1          6           0       -1.780571   -0.705888   -0.432728
      2          6           0       -0.646761    0.308600   -0.360309
      3          7           0       -0.774154    1.143545    0.845264
      4          7           0        0.644487   -0.382532   -0.390726
      5          7           0        1.668552    0.642746   -0.471414
      6          7           0        0.796985   -1.124777    0.801438
      7          1           0       -1.799300   -1.313217    0.474485
      8          1           0       -1.642730   -1.360458   -1.297510
      9          1           0       -2.742763   -0.191830   -0.535465
     10          1           0       -0.662772    0.915933   -1.282552
     11          1           0       -0.052759    1.861589    0.805088
     12          1           0       -1.660721    1.641256    0.813495
     13          1           0        2.546452    0.125086   -0.503444
     14          1           0        1.592802    1.034544   -1.413179
     15          1           0        1.079384   -0.497459    1.561381
     16          1           0        1.555301   -1.784576    0.643992
 ---------------------------------------------------------------------
 Rotational constants (GHZ):      4.8320612      2.9215328      2.5159535
 Leave Link  202 at Fri Aug 26 13:09:00 2022, MaxMem= 24159191040 cpu:         0.3
 (Enter /public/home/users/caep010/software/Gaussian09/g09/l301.exe)
 Standard basis: GTBas3 (6D, 7F)
 Ernie: Thresh=  0.10000D-02 Tol=  0.10000D-05 Strict=F.
 There are   236 symmetry adapted cartesian basis functions of A   symmetry.
 There are   218 symmetry adapted basis functions of A   symmetry.
   218 basis functions,   334 primitive gaussians,   236 cartesian basis functions
    25 alpha electrons       25 beta electrons
       nuclear repulsion energy       275.0968422909 Hartrees.
 IExCor=  402 DFT=T Ex+Corr=B3LYP ExCW=0 ScaHFX=  0.200000
 ScaDFX=  0.800000  0.720000  1.000000  0.810000 ScalE2=  1.000000  1.000000
 IRadAn=      0 IRanWt=     -1 IRanGd=            0 ICorTp=0 IEmpDi=  4
 NAtoms=   16 NActive=   16 NUniq=   16 SFac= 1.00D+00 NAtFMM=   60 NAOKFM=F Big=F
 Integral buffers will be    131072 words long.
 Raffenetti 2 integral format.
 Two-electron integral symmetry is turned on.
 Leave Link  301 at Fri Aug 26 13:09:00 2022, MaxMem= 24159191040 cpu:         1.9
 (Enter /public/home/users/caep010/software/Gaussian09/g09/l302.exe)
 NPDir=0 NMtPBC=     1 NCelOv=     1 NCel=       1 NClECP=     1 NCelD=      1
         NCelK=      1 NCelE2=     1 NClLst=     1 CellRange=     0.0.
 One-electron integrals computed using PRISM.
 NBasis=   218 RedAO= T EigKep=  2.98D-04  NBF=   218
 NBsUse=   218 1.00D-06 EigRej= -1.00D+00 NBFU=   218
 Precomputing XC quadrature grid using
 IXCGrd= 4 IRadAn=           0 IRanWt=          -1 IRanGd=           0 AccXCQ= 0.00D+00.
 Generated NRdTot=       0 NPtTot=           0 NUsed=           0 NTot=          32
 NSgBfM=   236   236   236   236   236 MxSgAt=    16 MxSgA2=    16.
 Leave Link  302 at Fri Aug 26 13:09:01 2022, MaxMem= 24159191040 cpu:        14.6
 (Enter /public/home/users/caep010/software/Gaussian09/g09/l303.exe)
 DipDrv:  MaxL=1.
 Leave Link  303 at Fri Aug 26 13:09:01 2022, MaxMem= 24159191040 cpu:         0.7
 (Enter /public/home/users/caep010/software/Gaussian09/g09/l401.exe)
 Initial guess from the checkpoint file:  "G4.Frag_752.chk"
 B after Tr=    -0.000000   -0.000000   -0.000000
         Rot=    0.999744   -0.015264    0.000551    0.016686 Ang=  -2.59 deg.
 Guess basis will be translated and rotated to current coordinates.
 JPrj=2 DoOrth=T DoCkMO=T.
 Generating alternative initial guess.
 ExpMin= 1.61D-01 ExpMax= 4.17D+03 ExpMxC= 6.27D+02 IAcc=1 IRadAn=         1 AccDes= 0.00D+00
 Harris functional with IExCor=  402 and IRadAn=       1 diagonalized for initial guess.
 HarFok:  IExCor=  402 AccDes= 0.00D+00 IRadAn=         1 IDoV= 1 UseB2=F ITyADJ=14
 ICtDFT=  3500011 ScaDFX=  1.000000  1.000000  1.000000  1.000000
 FoFCou: FMM=F IPFlag=           0 FMFlag=      100000 FMFlg1=           0
         NFxFlg=           0 DoJE=T BraDBF=F KetDBF=T FulRan=T
         wScrn=  0.000000 ICntrl=     500 IOpCl=  0 I1Cent=   200000004 NGrid=           0
         NMat0=    1 NMatS0=      1 NMatT0=    0 NMatD0=    1 NMtDS0=    0 NMtDT0=    0
 Petite list used in FoFCou.
 Harris En= -301.188286267692    
 Leave Link  401 at Fri Aug 26 13:09:01 2022, MaxMem= 24159191040 cpu:        19.2
 (Enter /public/home/users/caep010/software/Gaussian09/g09/l502.exe)
 Closed shell SCF:
 Using DIIS extrapolation, IDIIS=  1040.
 Integral symmetry usage will be decided dynamically.
 Keep R1 ints in memory in canonical form, NReq=291775086.
 IVT=      194922 IEndB=      194922 NGot= 24159191040 MDV= 23874071863
 LenX= 23874071863 LenY= 23874015726
 Requested convergence on RMS density matrix=1.00D-08 within 128 cycles.
 Requested convergence on MAX density matrix=1.00D-06.
 Requested convergence on             energy=1.00D-06.
 No special actions if energy rises.
 FoFCou: FMM=F IPFlag=           0 FMFlag=           0 FMFlg1=           0
         NFxFlg=           0 DoJE=F BraDBF=F KetDBF=F FulRan=T
         wScrn=  0.000000 ICntrl=     600 IOpCl=  0 I1Cent=           0 NGrid=           0
         NMat0=    1 NMatS0=  23871 NMatT0=    0 NMatD0=    1 NMtDS0=    0 NMtDT0=    0
 Symmetry not used in FoFCou.
 Integral accuracy reduced to 1.0D-05 until final iterations.

 Cycle   1  Pass 0  IDiag  1:
 E= -301.179110957060    
 DIIS: error= 2.14D-03 at cycle   1 NSaved=   1.
 NSaved= 1 IEnMin= 1 EnMin= -301.179110957060     IErMin= 1 ErrMin= 2.14D-03
 ErrMax= 2.14D-03  0.00D+00 EMaxC= 1.00D-01 BMatC= 4.93D-03 BMatP= 4.93D-03
 IDIUse=3 WtCom= 9.79D-01 WtEn= 2.14D-02
 Coeff-Com:  0.100D+01
 Coeff-En:   0.100D+01
 Coeff:      0.100D+01
 Gap=     1.061 Goal=   None    Shift=    0.000
 GapD=    1.061 DampG=2.000 DampE=1.000 DampFc=2.0000 IDamp=-1.
 RMSDP=5.44D-04 MaxDP=1.13D-02              OVMax= 2.95D-02

 Cycle   2  Pass 0  IDiag  1:
 E= -301.185411434421     Delta-E=       -0.006300477361 Rises=F Damp=F
 DIIS: error= 9.21D-04 at cycle   2 NSaved=   2.
 NSaved= 2 IEnMin= 2 EnMin= -301.185411434421     IErMin= 2 ErrMin= 9.21D-04
 ErrMax= 9.21D-04  0.00D+00 EMaxC= 1.00D-01 BMatC= 3.55D-04 BMatP= 4.93D-03
 IDIUse=3 WtCom= 9.91D-01 WtEn= 9.21D-03
 Coeff-Com:  0.631D-01 0.937D+00
 Coeff-En:   0.000D+00 0.100D+01
 Coeff:      0.625D-01 0.937D+00
 Gap=     0.264 Goal=   None    Shift=    0.000
 RMSDP=1.81D-04 MaxDP=6.55D-03 DE=-6.30D-03 OVMax= 7.27D-03

 Cycle   3  Pass 0  IDiag  1:
 E= -301.185380569583     Delta-E=        0.000030864838 Rises=F Damp=F
 DIIS: error= 1.06D-03 at cycle   3 NSaved=   3.
 NSaved= 3 IEnMin= 2 EnMin= -301.185411434421     IErMin= 2 ErrMin= 9.21D-04
 ErrMax= 1.06D-03  0.00D+00 EMaxC= 1.00D-01 BMatC= 4.38D-04 BMatP= 3.55D-04
 IDIUse=3 WtCom= 2.35D-01 WtEn= 7.65D-01
 Coeff-Com: -0.242D-01 0.537D+00 0.487D+00
 Coeff-En:   0.000D+00 0.521D+00 0.479D+00
 Coeff:     -0.569D-02 0.525D+00 0.481D+00
 Gap=     0.265 Goal=   None    Shift=    0.000
 RMSDP=9.75D-05 MaxDP=3.71D-03 DE= 3.09D-05 OVMax= 4.27D-03

 Cycle   4  Pass 0  IDiag  1:
 E= -301.185755273854     Delta-E=       -0.000374704271 Rises=F Damp=F
 DIIS: error= 1.01D-04 at cycle   4 NSaved=   4.
 NSaved= 4 IEnMin= 4 EnMin= -301.185755273854     IErMin= 4 ErrMin= 1.01D-04
 ErrMax= 1.01D-04  0.00D+00 EMaxC= 1.00D-01 BMatC= 6.09D-06 BMatP= 3.55D-04
 IDIUse=3 WtCom= 9.99D-01 WtEn= 1.01D-03
 Coeff-Com: -0.110D-01 0.145D+00 0.178D+00 0.688D+00
 Coeff-En:   0.000D+00 0.000D+00 0.000D+00 0.100D+01
 Coeff:     -0.110D-01 0.145D+00 0.178D+00 0.688D+00
 Gap=     0.265 Goal=   None    Shift=    0.000
 RMSDP=1.44D-05 MaxDP=4.41D-04 DE=-3.75D-04 OVMax= 5.87D-04

 Cycle   5  Pass 0  IDiag  1:
 E= -301.185759857085     Delta-E=       -0.000004583231 Rises=F Damp=F
 DIIS: error= 5.01D-05 at cycle   5 NSaved=   5.
 NSaved= 5 IEnMin= 5 EnMin= -301.185759857085     IErMin= 5 ErrMin= 5.01D-05
 ErrMax= 5.01D-05  0.00D+00 EMaxC= 1.00D-01 BMatC= 9.95D-07 BMatP= 6.09D-06
 IDIUse=1 WtCom= 1.00D+00 WtEn= 0.00D+00
 Coeff-Com: -0.375D-02 0.272D-01 0.464D-01 0.344D+00 0.587D+00
 Coeff:     -0.375D-02 0.272D-01 0.464D-01 0.344D+00 0.587D+00
 Gap=     0.265 Goal=   None    Shift=    0.000
 RMSDP=5.35D-06 MaxDP=2.01D-04 DE=-4.58D-06 OVMax= 2.33D-04

 Initial convergence to 1.0D-05 achieved.  Increase integral accuracy.
 Cycle   6  Pass 1  IDiag  1:
 E= -301.185806671038     Delta-E=       -0.000046813952 Rises=F Damp=F
 DIIS: error= 2.40D-05 at cycle   1 NSaved=   1.
 NSaved= 1 IEnMin= 1 EnMin= -301.185806671038     IErMin= 1 ErrMin= 2.40D-05
 ErrMax= 2.40D-05  0.00D+00 EMaxC= 1.00D-01 BMatC= 2.37D-07 BMatP= 2.37D-07
 IDIUse=1 WtCom= 1.00D+00 WtEn= 0.00D+00
 Coeff-Com:  0.100D+01
 Coeff:      0.100D+01
 Gap=     0.265 Goal=   None    Shift=    0.000
 RMSDP=5.35D-06 MaxDP=2.01D-04 DE=-4.68D-05 OVMax= 1.33D-04

 Cycle   7  Pass 1  IDiag  1:
 E= -301.185806736161     Delta-E=       -0.000000065124 Rises=F Damp=F
 DIIS: error= 2.15D-05 at cycle   2 NSaved=   2.
 NSaved= 2 IEnMin= 2 EnMin= -301.185806736161     IErMin= 2 ErrMin= 2.15D-05
 ErrMax= 2.15D-05  0.00D+00 EMaxC= 1.00D-01 BMatC= 1.69D-07 BMatP= 2.37D-07
 IDIUse=1 WtCom= 1.00D+00 WtEn= 0.00D+00
 Coeff-Com:  0.446D+00 0.554D+00
 Coeff:      0.446D+00 0.554D+00
 Gap=     0.265 Goal=   None    Shift=    0.000
 RMSDP=2.43D-06 MaxDP=1.14D-04 DE=-6.51D-08 OVMax= 1.13D-04

 Cycle   8  Pass 1  IDiag  1:
 E= -301.185806854360     Delta-E=       -0.000000118199 Rises=F Damp=F
 DIIS: error= 9.13D-06 at cycle   3 NSaved=   3.
 NSaved= 3 IEnMin= 3 EnMin= -301.185806854360     IErMin= 3 ErrMin= 9.13D-06
 ErrMax= 9.13D-06  0.00D+00 EMaxC= 1.00D-01 BMatC= 2.75D-08 BMatP= 1.69D-07
 IDIUse=1 WtCom= 1.00D+00 WtEn= 0.00D+00
 Coeff-Com:  0.115D-01 0.284D+00 0.705D+00
 Coeff:      0.115D-01 0.284D+00 0.705D+00
 Gap=     0.265 Goal=   None    Shift=    0.000
 RMSDP=7.69D-07 MaxDP=3.83D-05 DE=-1.18D-07 OVMax= 3.66D-05

 Cycle   9  Pass 1  IDiag  1:
 E= -301.185806875973     Delta-E=       -0.000000021613 Rises=F Damp=F
 DIIS: error= 1.52D-06 at cycle   4 NSaved=   4.
 NSaved= 4 IEnMin= 4 EnMin= -301.185806875973     IErMin= 4 ErrMin= 1.52D-06
 ErrMax= 1.52D-06  0.00D+00 EMaxC= 1.00D-01 BMatC= 1.51D-09 BMatP= 2.75D-08
 IDIUse=1 WtCom= 1.00D+00 WtEn= 0.00D+00
 Coeff-Com: -0.120D-01 0.117D+00 0.351D+00 0.544D+00
 Coeff:     -0.120D-01 0.117D+00 0.351D+00 0.544D+00
 Gap=     0.265 Goal=   None    Shift=    0.000
 RMSDP=1.71D-07 MaxDP=6.12D-06 DE=-2.16D-08 OVMax= 6.53D-06

 Cycle  10  Pass 1  IDiag  1:
 E= -301.185806877223     Delta-E=       -0.000000001250 Rises=F Damp=F
 DIIS: error= 5.08D-07 at cycle   5 NSaved=   5.
 NSaved= 5 IEnMin= 5 EnMin= -301.185806877223     IErMin= 5 ErrMin= 5.08D-07
 ErrMax= 5.08D-07  0.00D+00 EMaxC= 1.00D-01 BMatC= 7.32D-11 BMatP= 1.51D-09
 IDIUse=1 WtCom= 1.00D+00 WtEn= 0.00D+00
 Coeff-Com: -0.642D-02 0.460D-01 0.145D+00 0.272D+00 0.543D+00
 Coeff:     -0.642D-02 0.460D-01 0.145D+00 0.272D+00 0.543D+00
 Gap=     0.265 Goal=   None    Shift=    0.000
 RMSDP=4.02D-08 MaxDP=1.56D-06 DE=-1.25D-09 OVMax= 1.52D-06

 Cycle  11  Pass 1  IDiag  1:
 E= -301.185806877281     Delta-E=       -0.000000000058 Rises=F Damp=F
 DIIS: error= 5.71D-08 at cycle   6 NSaved=   6.
 NSaved= 6 IEnMin= 6 EnMin= -301.185806877281     IErMin= 6 ErrMin= 5.71D-08
 ErrMax= 5.71D-08  0.00D+00 EMaxC= 1.00D-01 BMatC= 1.65D-12 BMatP= 7.32D-11
 IDIUse=1 WtCom= 1.00D+00 WtEn= 0.00D+00
 Coeff-Com: -0.105D-02 0.492D-02 0.169D-01 0.374D-01 0.155D+00 0.787D+00
 Coeff:     -0.105D-02 0.492D-02 0.169D-01 0.374D-01 0.155D+00 0.787D+00
 Gap=     0.265 Goal=   None    Shift=    0.000
 RMSDP=8.44D-09 MaxDP=2.93D-07 DE=-5.82D-11 OVMax= 3.87D-07

 SCF Done:  E(RB3LYP) =  -301.185806877     A.U. after   11 cycles
            NFock= 11  Conv=0.84D-08     -V/T= 2.0073
 KE= 2.990088179184D+02 PE=-1.252417766750D+03 EE= 3.771262996631D+02
 Leave Link  502 at Fri Aug 26 13:09:09 2022, MaxMem= 24159191040 cpu:        86.3
 (Enter /public/home/users/caep010/software/Gaussian09/g09/l701.exe)
 Compute integral first derivatives.
 ... and contract with generalized density number  0.
 Leave Link  701 at Fri Aug 26 13:09:09 2022, MaxMem= 24159191040 cpu:        14.7
 (Enter /public/home/users/caep010/software/Gaussian09/g09/l702.exe)
 L702 exits ... SP integral derivatives will be done elsewhere.
 Leave Link  702 at Fri Aug 26 13:09:09 2022, MaxMem= 24159191040 cpu:         0.5
 (Enter /public/home/users/caep010/software/Gaussian09/g09/l703.exe)
 Compute integral first derivatives, UseDBF=F ICtDFT=           0.
 Integral derivatives from FoFJK, PRISM(SPDF).
 Calling FoFJK, ICntrl=      2127 FMM=F ISym2X=0 I1Cent= 0 IOpClX= 0 NMat=1 NMatS=1 NMatT=0.
 FoFJK:  IHMeth= 1 ICntrl=    2127 DoSepK=F KAlg= 0 I1Cent=   0 FoldK=F
 IRaf=         0 NMat=   1 IRICut=       1 DoRegI=T DoRafI=F ISym2E= 0.
 FoFCou: FMM=F IPFlag=           0 FMFlag=      100000 FMFlg1=         800
         NFxFlg=           0 DoJE=F BraDBF=F KetDBF=F FulRan=T
         wScrn=  0.000000 ICntrl=    2127 IOpCl=  0 I1Cent=           0 NGrid=           0
         NMat0=    1 NMatS0=      1 NMatT0=    0 NMatD0=    1 NMtDS0=    0 NMtDT0=    0
 Symmetry not used in FoFCou.
 Leave Link  703 at Fri Aug 26 13:09:11 2022, MaxMem= 24159191040 cpu:        49.9
 (Enter /public/home/users/caep010/software/Gaussian09/g09/l716.exe)
 Dipole        = 4.68690910D-01 3.93465447D-01-4.86259928D-01
 ***** Axes restored to original set *****
 -------------------------------------------------------------------
 Center     Atomic                   Forces (Hartrees/Bohr)
 Number     Number              X              Y              Z
 -------------------------------------------------------------------
      1        6           0.001175738    0.000135153    0.000933097
      2        6           0.004030228   -0.000818825    0.002774002
      3        7           0.000410807   -0.004714525    0.000075756
      4        7           0.012835411    0.007501733   -0.008068977
      5        7          -0.013194730   -0.008732303    0.006730826
      6        7          -0.007616808    0.000368953    0.000311727
      7        1          -0.000373107   -0.000638277   -0.000245882
      8        1           0.000008273   -0.000108027    0.000395789
      9        1          -0.000283777    0.000159609   -0.000090366
     10        1          -0.000679300    0.000265374   -0.001401072
     11        1          -0.000257874    0.001827311   -0.000720720
     12        1          -0.000093808    0.002347617   -0.000384655
     13        1          -0.000510708    0.000130531   -0.000041349
     14        1           0.001086337    0.000935097   -0.000473303
     15        1           0.002603177    0.001004445   -0.000465503
     16        1           0.000860140    0.000336134    0.000670630
 -------------------------------------------------------------------
 Cartesian Forces:  Max     0.013194730 RMS     0.003857246
 Leave Link  716 at Fri Aug 26 13:09:11 2022, MaxMem= 24159191040 cpu:         0.6
 (Enter /public/home/users/caep010/software/Gaussian09/g09/l103.exe)

 GradGradGradGradGradGradGradGradGradGradGradGradGradGradGradGradGradGrad
 Berny optimization.
 Using GEDIIS/GDIIS optimizer.
 FormGI is forming the generalized inverse of G from B-inverse, IUseBI=4.
 Internal  Forces:  Max     0.015638174 RMS     0.002220479
 Search for a local minimum.
 Step number   2 out of a maximum of   78
 All quantities printed in internal units (Hartrees-Bohrs-Radians)
 RMS Force = .22205D-02 SwitMx=.10000D-02 MixMth= 1
 Mixed Optimization -- RFO/linear search
 Update second derivatives using D2CorX and points    1    2
 DE= -8.40D-03 DEPred=-8.22D-03 R= 1.02D+00
 TightC=F SS=  1.41D+00  RLast= 3.27D-01 DXNew= 5.0454D-01 9.8233D-01
 Trust test= 1.02D+00 RLast= 3.27D-01 DXMaxT set to 5.05D-01
 ITU=  1  0
 Use linear search instead of GDIIS.
     Eigenvalues ---    0.00339   0.00662   0.00792   0.01085   0.01121
     Eigenvalues ---    0.04230   0.04552   0.04685   0.05421   0.05656
     Eigenvalues ---    0.05678   0.06187   0.06465   0.07132   0.15645
     Eigenvalues ---    0.16000   0.16000   0.16000   0.16000   0.16000
     Eigenvalues ---    0.16000   0.16000   0.16085   0.17163   0.17290
     Eigenvalues ---    0.18194   0.18493   0.29176   0.31446   0.32130
     Eigenvalues ---    0.32511   0.32519   0.34741   0.35624   0.36123
     Eigenvalues ---    0.40190   0.40416   0.40422   0.40483   0.40516
     Eigenvalues ---    0.43125   0.45994
 RFO step:  Lambda=-1.62403157D-03 EMin= 3.39397742D-03
 Quartic linear search produced a step of  0.12575.
 Iteration  1 RMS(Cart)=  0.04537254 RMS(Int)=  0.00157060
 Iteration  2 RMS(Cart)=  0.00160855 RMS(Int)=  0.00011164
 Iteration  3 RMS(Cart)=  0.00000376 RMS(Int)=  0.00011161
 Iteration  4 RMS(Cart)=  0.00000000 RMS(Int)=  0.00011161
 ITry= 1 IFail=0 DXMaxC= 1.58D-01 DCOld= 1.00D+10 DXMaxT= 5.05D-01 DXLimC= 3.00D+00 Rises=F
 Variable       Old X    -DE/DX   Delta X   Delta X   Delta X     New X
                                 (Linear)    (Quad)   (Total)
    R1        2.87832  -0.00022  -0.00216  -0.00000  -0.00217   2.87615
    R2        2.06338  -0.00065  -0.00450  -0.00047  -0.00497   2.05841
    R3        2.06604  -0.00039  -0.00417   0.00027  -0.00391   2.06213
    R4        2.07063  -0.00034  -0.00357   0.00023  -0.00334   2.06729
    R5        2.78167  -0.00106   0.00095  -0.00364  -0.00269   2.77898
    R6        2.76825   0.00441  -0.00344   0.01551   0.01207   2.78032
    R7        2.08696   0.00012  -0.00249   0.00139  -0.00110   2.08587
    R8        1.92494  -0.00123  -0.00638  -0.00101  -0.00739   1.91755
    R9        1.92226  -0.00101  -0.00689  -0.00020  -0.00709   1.91517
   R10        2.74265   0.01564   0.00905   0.03680   0.04585   2.78850
   R11        2.66943   0.00267  -0.00060   0.00712   0.00652   2.67595
   R12        1.92688   0.00049  -0.00633   0.00374  -0.00259   1.92428
   R13        1.93285  -0.00035  -0.00552   0.00110  -0.00441   1.92844
   R14        1.93712  -0.00146  -0.00547  -0.00202  -0.00749   1.92963
   R15        1.92267  -0.00090  -0.00665   0.00002  -0.00663   1.91604
    A1        1.92169  -0.00051  -0.00134  -0.00317  -0.00452   1.91717
    A2        1.92040  -0.00006   0.00020  -0.00079  -0.00059   1.91981
    A3        1.92373   0.00018   0.00027   0.00167   0.00194   1.92567
    A4        1.90323   0.00017   0.00016   0.00005   0.00019   1.90343
    A5        1.90053   0.00023   0.00049   0.00199   0.00248   1.90300
    A6        1.89381  -0.00000   0.00026   0.00032   0.00059   1.89440
    A7        1.93084  -0.00085   0.00099  -0.00426  -0.00333   1.92751
    A8        1.91870   0.00150   0.00014   0.00945   0.00962   1.92831
    A9        1.89208  -0.00008   0.00331  -0.00210   0.00108   1.89317
   A10        1.94003  -0.00046  -0.00082  -0.00187  -0.00267   1.93737
   A11        1.95061   0.00077   0.00594   0.00249   0.00828   1.95889
   A12        1.82854  -0.00081  -0.00971  -0.00340  -0.01304   1.81549
   A13        1.88204  -0.00002  -0.00144   0.00758   0.00603   1.88808
   A14        1.90433   0.00058   0.00153   0.01021   0.01162   1.91595
   A15        1.84534   0.00112   0.00000   0.02351   0.02327   1.86861
   A16        1.86483   0.00024  -0.00603   0.00309  -0.00287   1.86197
   A17        1.90238   0.00256  -0.00115   0.01539   0.01420   1.91657
   A18        1.91977  -0.00285   0.00209  -0.02246  -0.02041   1.89936
   A19        1.82410   0.00043  -0.00720   0.00564  -0.00167   1.82243
   A20        1.84371  -0.00267  -0.00431  -0.01721  -0.02163   1.82208
   A21        1.80217   0.00049  -0.00316   0.00374   0.00023   1.80240
   A22        1.91118   0.00156  -0.00178   0.01756   0.01559   1.92676
   A23        1.86566   0.00141  -0.00134   0.01671   0.01516   1.88082
   A24        1.88205   0.00041   0.00034   0.01636   0.01629   1.89834
    D1       -0.98270   0.00001   0.00237  -0.01654  -0.01416  -0.99686
    D2        1.16654  -0.00013   0.00210  -0.01531  -0.01320   1.15334
    D3       -3.12727  -0.00035  -0.00752  -0.01552  -0.02305   3.13287
    D4       -3.08097   0.00016   0.00291  -0.01408  -0.01117  -3.09213
    D5       -0.93172   0.00002   0.00264  -0.01285  -0.01021  -0.94193
    D6        1.05765  -0.00021  -0.00698  -0.01306  -0.02006   1.03759
    D7        1.11433   0.00009   0.00229  -0.01504  -0.01274   1.10159
    D8       -3.01961  -0.00005   0.00202  -0.01381  -0.01178  -3.03140
    D9       -1.03024  -0.00028  -0.00760  -0.01402  -0.02163  -1.05187
   D10       -3.04676  -0.00023  -0.00191   0.00527   0.00324  -3.04352
   D11       -1.05037   0.00137  -0.00187   0.04209   0.04023  -1.01014
   D12        1.09959  -0.00122  -0.00222  -0.00253  -0.00486   1.09473
   D13        3.09598   0.00038  -0.00218   0.03429   0.03214   3.12812
   D14       -0.93660  -0.00040   0.00657   0.00134   0.00793  -0.92867
   D15        1.05979   0.00121   0.00661   0.03816   0.04492   1.10472
   D16        3.03161   0.00168   0.00916   0.06074   0.06988   3.10149
   D17       -1.17772  -0.00019   0.00749   0.04409   0.05160  -1.12612
   D18       -1.10774   0.00132   0.00996   0.06062   0.07051  -1.03723
   D19        0.96612  -0.00055   0.00829   0.04397   0.05223   1.01835
   D20        1.00189   0.00150   0.01057   0.06053   0.07113   1.07301
   D21        3.07575  -0.00037   0.00890   0.04388   0.05285   3.12860
   D22       -3.12838   0.00092   0.00363  -0.00265   0.00085  -3.12753
   D23       -1.23351   0.00064  -0.00482  -0.00269  -0.00731  -1.24082
   D24        1.09230  -0.00074   0.00737  -0.01070  -0.00352   1.08878
   D25        2.98716  -0.00102  -0.00107  -0.01074  -0.01168   2.97548
   D26       -1.37892   0.00186   0.00749   0.09048   0.09820  -1.28072
   D27        2.86993  -0.00020   0.00878   0.05295   0.06162   2.93155
   D28        0.66027   0.00202   0.00071   0.09038   0.09120   0.75147
   D29       -1.37407  -0.00004   0.00201   0.05285   0.05462  -1.31945
         Item               Value     Threshold  Converged?
 Maximum Force            0.015638     0.000450     NO 
 RMS     Force            0.002220     0.000300     NO 
 Maximum Displacement     0.158054     0.001800     NO 
 RMS     Displacement     0.045729     0.001200     NO 
 Predicted change in Energy=-1.003543D-03
 Lowest energy point so far.  Saving SCF results.
 GradGradGradGradGradGradGradGradGradGradGradGradGradGradGradGradGradGrad

 Leave Link  103 at Fri Aug 26 13:09:11 2022, MaxMem= 24159191040 cpu:         6.7
 (Enter /public/home/users/caep010/software/Gaussian09/g09/l202.exe)
                          Input orientation:                          
 ---------------------------------------------------------------------
 Center     Atomic      Atomic             Coordinates (Angstroms)
 Number     Number       Type             X           Y           Z
 ---------------------------------------------------------------------
      1          6           0        1.705085    0.501133   -0.548917
      2          6           0        0.575572   -0.379817   -0.034538
[...]
 Quadrupole moment (field-independent basis, Debye-Ang):
   XX=            -32.2751   YY=            -38.5811   ZZ=            -39.1524
   XY=             -3.9513   XZ=              0.0979   YZ=             -1.5759
 Traceless Quadrupole moment (field-independent basis, Debye-Ang):
   XX=              4.3944   YY=             -1.9115   ZZ=             -2.4829
   XY=             -3.9513   XZ=              0.0979   YZ=             -1.5759
 Octapole moment (field-independent basis, Debye-Ang**2):
  XXX=             15.4174  YYY=              6.1258  ZZZ=             -2.4592  XYY=              1.2342
  XXY=             -2.8607  XXZ=             -0.5528  XZZ=              7.0040  YZZ=              2.8546
  YYZ=              0.9724  XYZ=             -5.0869
 Hexadecapole moment (field-independent basis, Debye-Ang**3):
 XXXX=           -378.5196 YYYY=           -215.6777 ZZZZ=           -146.8973 XXXY=            -27.9458
 XXXZ=            -14.0809 YYYX=            -18.5299 YYYZ=              5.5715 ZZZX=              0.0625
 ZZZY=             -8.8812 XXYY=            -99.0341 XXZZ=            -89.8139 YYZZ=            -59.9701
 XXYZ=             -5.2245 YYXZ=             -2.0901 ZZXY=              2.0143
 N-N= 2.743684316238D+02 E-N=-1.250226420135D+03  KE= 2.989720860218D+02
 No NMR shielding tensors so no spin-rotation constants.
 Leave Link  601 at Fri Aug 26 13:32:51 2022, MaxMem= 24159191040 cpu:        30.7
 (Enter /public/home/users/caep010/software/Gaussian09/g09/l9999.exe)
 1\1\GINC-B1615\SP\RHF\GFHFB2\C2H10N4\ROOT\26-Aug-2022\0\\#P Geom=AllCh
 eck Guess=TCheck SCRF=Check HF/GFHFB2 SCF=Tight\\Frag_752\\0,1\C,0,1.7
 104402796,0.4863785429,-0.5489595925\C,0,0.5726889951,-0.382854786,-0.
 0294969633\N,0,0.5037977057,-0.3217968253,1.4315904742\N,0,-0.70501093
 2,0.0399796735,-0.6328754109\N,0,-1.7205937923,-0.9372133075,-0.141151
 5437\N,0,-1.0320319645,1.3291717954,-0.1605352126\H,0,1.5851170043,1.5
 132291631,-0.2020983105\H,0,1.7167965703,0.4810201042,-1.6415378923\H,
 0,2.6726849192,0.1022866848,-0.194340515\H,0,0.716665987,-1.4108069134
 ,-0.4052838744\H,0,-0.1511329067,-1.0227066774,1.7618479706\H,0,1.4113
 492474,-0.5203434169,1.8373929232\H,0,-2.6033321469,-0.5553110201,-0.4
 802596461\H,0,-1.5772526134,-1.7595934483,-0.7322688508\H,0,-1.2734307
 851,1.2933680237,0.8318536237\H,0,-1.8266555678,1.6651924073,-0.694077
 1794\\Version=ES64L-G09RevE.01\State=1-A\HF=-299.4068205\RMSD=2.163e-0
 9\Dipole=-0.2959326,-0.6156788,-0.1268118\Quadrupole=3.2863523,-0.8947
 55,-2.3915972,-2.0050395,2.3171217,0.0963669\PG=C01 [X(C2H10N4)]\\@


 OF ALL THE WONDERS OF THE UNIVERSE, THE GREATEST IS MAN.

                                    -- ARISTOTLE
 Diagonal vibrational polarizability:
        0.0000000       0.0000000       0.0000000

 Temperature=              298.150000 Pressure=                      1.000000
 E(ZPE)=                     0.141524 E(Thermal)=                    0.149310
 E(CCSD(T))=              -300.266903 E(Empiric)=                   -0.131993
 DE(Plus)=                  -0.030022 DE(2DF)=                      -0.271358
 E(Delta-G3XP)=             -0.391299 DE(HF)=                       -0.029358
 G4(0 K)=                 -300.979409 G4 Energy=                  -300.971623
 G4 Enthalpy=             -300.970678 G4 Free Energy=             -301.010248
 1\1\GINC-B1615\Mixed\G4\G4\C2H10N4\ROOT\26-Aug-2022\0\\#P Geom=AllChec
 k Guess=TCheck SCRF=Check HF/GFHFB2 SCF=Tight\\Frag_752\\0,1\C,0,1.710
 4402796,0.4863785429,-0.5489595925\C,0,0.5726889951,-0.382854786,-0.02
 94969633\N,0,0.5037977057,-0.3217968253,1.4315904742\N,0,-0.705010932,
 0.0399796735,-0.6328754109\N,0,-1.7205937923,-0.9372133075,-0.14115154
 37\N,0,-1.0320319645,1.3291717954,-0.1605352126\H,0,1.5851170043,1.513
 2291631,-0.2020983105\H,0,1.7167965703,0.4810201042,-1.6415378923\H,0,
 2.6726849192,0.1022866848,-0.194340515\H,0,0.716665987,-1.4108069134,-
 0.4052838744\H,0,-0.1511329067,-1.0227066774,1.7618479706\H,0,1.411349
 2474,-0.5203434169,1.8373929232\H,0,-2.6033321469,-0.5553110201,-0.480
 2596461\H,0,-1.5772526134,-1.7595934483,-0.7322688508\H,0,-1.273430785
 1,1.2933680237,0.8318536237\H,0,-1.8266555678,1.6651924073,-0.69407717
 94\\Version=ES64L-G09RevE.01\State=1-A\MP2/GTBas1=-300.1811638\MP4/GTB
 as1=-300.2655077\CCSD(T)/G3Bas1=-300.2669027\MP2/GTBas2=-300.2095756\M
 P4/GTBas2=-300.2955297\MP2/GTBas3=-300.4376718\MP4/GTBas3=-300.5368653
 \HF/GTLargeXP=-299.3787081\MP2/GTLargeXP=-300.8573828\HF/GFHFB1=-299.4
 017082\HF/GFHFB2=-299.4068205\G4=-300.9794088\FreqCoord=3.2322636952,0
 .9191222429,-1.0373832879,1.0822253601,-0.7234906942,-0.0557411824,0.9
 520396901,-0.6081078702,2.7053139306,-1.3322775821,0.0755506337,-1.195
 9612028,-3.2514510534,-1.7710764792,-0.2667377609,-1.9502577733,2.5117
 706768,-0.3033675865,2.9954370267,2.8595886946,-0.3819104588,3.2442753
 437,0.9089962614,-3.1020570531,5.0506425368,0.1932938212,-0.3672503499
 ,1.3543024442,-2.6660386928,-0.7658755287,-0.2855998034,-1.9326355346,
 3.3294101522,2.6670635554,-0.9833065529,3.4721694234,-4.9195847906,-1.
 0493857466,-0.9075592038,-2.9805754817,-3.3251497224,-1.3837875837,-2.
 406435433,2.4441113539,1.5719755314,-3.4518787623,3.1467576084,-1.3116
 157841\PG=C01 [X(C2H10N4)]\NImag=0\\0.51808338,-0.04427437,0.54558904,
 0.02537866,0.02259321,0.57396339,-0.13630331,-0.05334344,0.02414112,0.
 49909561,-0.04750168,-0.12551167,0.02080365,0.01970043,0.59962629,0.02
 905559,0.02468687,-0.09008483,-0.03341229,0.03175658,0.46506717,-0.001
 31601,-0.00008484,0.03256528,-0.10055392,-0.00943763,0.00422086,0.6635
 5995,-0.00297802,0.00165224,0.02375450,-0.01269647,-0.07310891,0.01138
 951,0.12716118,0.31535266,0.00539361,0.00260344,-0.02172054,0.02485451
 ,-0.03638464,-0.18743275,0.06625360,-0.13684763,0.46317307,-0.03493533
 ,0.00377549,-0.00659745,-0.13739134,0.02184943,-0.06416691,-0.01234083
 ,0.00285996,-0.02054646,0.46230336,-0.01861638,0.00867889,-0.00842473,
 0.01721650,-0.09306746,0.02228406,0.00391547,0.00308632,0.00748864,-0.
 06221052,0.43444271,0.00644356,-0.00404915,0.00464198,0.00027922,-0.00
 207888,-0.07709383,-0.04520341,0.00840580,-0.03350463,0.00035565,0.027
 40125,0.28476647,-0.00437945,0.00417766,-0.00448506,-0.04043116,-0.027
 38245,0.01728814,0.00066412,0.00017080,-0.00174635,-0.12897714,-0.0207
 4291,0.04101127,0.53301244,0.00282664,0.00012241,0.00112116,-0.0004284
 4,0.00453904,-0.00268234,0.00033921,0.00243926,-0.00009626,-0.00881114
 ,-0.10000177,0.02519776,-0.12870099,0.50533533,-0.00081957,0.00011712,
 -0.00017106,-0.01582386,-0.00307082,-0.00072763,-0.00185070,-0.0005997
 7,0.00062896,0.04421033,0.02288557,-0.07094403,0.05123637,0.10898246,0
 .29245909,-0.00294423,-0.00013893,-0.00066631,-0.01510884,0.03954415,0
 .01210254,0.00030242,0.00213839,-0.00022940,-0.09423494,0.07124097,0.0
 0432567,0.00812451,-0.02889680,-0.00959202,0.43226698,-0.00105438,0.00
 014050,-0.00020876,0.01872392,-0.02926265,-0.00672912,-0.00063602,-0.0
 0043944,-0.00097932,0.01175529,-0.17093607,-0.00460290,0.00423880,-0.0
 5625483,-0.01716728,-0.17685350,0.36524325,0.00105754,-0.00054052,0.00
 061268,-0.00761358,0.01767582,-0.00003324,-0.00156085,0.00220378,0.001
 31209,0.00662892,-0.07521943,-0.10369899,-0.00443855,0.01059597,0.0048
 9303,0.08522621,-0.04834724,0.63512637,-0.04927519,0.03288037,0.011565
 52,0.00323590,-0.02619057,-0.00927157,0.00106406,0.00148882,-0.0009891
 9,0.00128528,-0.00065983,-0.00042161,0.00002298,0.00084713,0.00013072,
 -0.00153702,0.00010773,0.00061800,0.05221999,0.02965316,-0.28661936,-0
 .08167529,0.00131571,-0.02161400,-0.00741071,0.00129034,0.00210151,-0.
 00036149,0.00108807,-0.00070377,0.00025412,-0.00023781,0.00015420,-0.0
 0011323,0.00208279,0.00055142,0.00005731,-0.03202717,0.31326540,0.0101
 2009,-0.08307551,-0.07611661,-0.00180879,0.01171848,0.00308384,-0.0007
 7482,-0.00028178,0.00108761,-0.00044305,-0.00083945,-0.00006422,-0.000
 12733,0.00004873,-0.00001242,0.00081586,0.00027270,-0.00029640,-0.0129
 5991,0.08945665,0.07786156,-0.04539674,-0.00060030,-0.00233463,0.00080
 700,0.00268105,0.02595315,-0.00477833,-0.00340026,0.00115243,0.0009387
 0,0.00029567,0.00031032,0.00050273,0.00010805,-0.00058954,-0.00017865,
 0.00036730,-0.00028999,-0.00082321,-0.00006381,0.00414088,0.04710106,-
 0.00047510,-0.04725299,-0.00477774,0.00194462,-0.00017089,0.02047543,-
 0.00350766,-0.00185290,0.00103799,0.00082802,0.00074193,-0.00027910,0.
 00026510,-0.00007612,-0.00018580,-0.00005119,-0.00011255,0.00028868,-0
 .00078985,0.00183933,-0.03068941,0.00217659,0.04743920,0.00136153,-0.0
 0227243,-0.31488823,-0.00169681,-0.00214519,-0.01193329,0.00275983,0.0
 0268121,0.00009892,-0.00131920,-0.00049533,0.00065664,0.00005855,-0.00
 006968,0.00057577,0.00030076,-0.00025219,0.00023668,-0.00052796,0.0009
 0580,-0.00873758,-0.00100666,0.00179140,0.34244214,-0.24607348,0.08064
 954,-0.07335134,-0.02054957,0.01197760,-0.01064135,0.00134188,0.000446
 64,-0.00068147,-0.00206468,-0.00380659,0.00213220,-0.00159498,0.000806
 86,0.00007427,0.00004385,-0.00051594,-0.00016281,-0.00264413,0.0005246
 4,-0.00084166,0.00091007,-0.00059615,0.00039016,0.27001641,0.08288553,
 -0.08088574,0.03136326,-0.01780298,0.00676878,-0.00745937,0.00066004,0
 .00033413,-0.00087271,-0.00289636,-0.00338297,0.00132734,-0.00157489,0
 .00050830,0.00007928,0.00140487,0.00025102,0.00001752,0.02609527,-0.00
 855386,0.01187951,-0.00097953,-0.00096240,-0.00052084,-0.08818379,0.08
 454025,-0.07486296,0.03062051,-0.07494827,0.01030610,-0.00505366,0.002
 01617,-0.00007230,-0.00020141,0.00064446,0.00069230,0.00079678,-0.0005
 8235,0.00045215,-0.00015615,0.00056958,0.00041930,0.00004809,0.0001804
 1,0.01006157,-0.00303922,0.00311822,-0.02867148,0.01194685,-0.00870158
 ,0.08178215,-0.03515810,0.07787129,0.00226157,-0.02537159,-0.00643540,
 -0.05403292,0.01915083,0.00839461,0.00430570,0.00027959,0.00114561,-0.
 00957145,0.03345668,0.00369913,0.00011164,0.00033613,0.00099317,-0.005
 75184,0.00298631,-0.00262109,-0.00371711,-0.00339015,0.00178362,0.0006
 7343,0.00075065,0.00005885,0.00101165,0.00074461,-0.00063037,0.0664416
 3,0.00128823,-0.01848431,-0.00499776,0.02804812,-0.25046264,-0.0635618
 3,-0.00015417,0.00350779,-0.00569804,0.00311602,-0.01711485,-0.0009881
 0,-0.00160957,0.00155716,-0.00080468,0.00259422,0.00087155,0.00176359,
 -0.00289737,-0.00100655,0.00141218,0.00016662,0.00018579,0.00058364,-0
 .00028575,0.00100912,-0.00035690,-0.03126536,0.27727706,-0.00064947,0.
 01004041,0.00412009,0.00917504,-0.06850323,-0.06795346,0.00571937,-0.0
 3195586,-0.03155098,-0.00269842,0.01224257,0.00388970,0.00016826,0.000
 12663,0.00010397,-0.00268553,0.00177506,0.00055135,0.00180311,0.001718
 43,-0.00014652,-0.00064561,-0.00022726,0.00054014,-0.00021215,-0.00062
 827,0.00007725,-0.00761739,0.07391254,0.08744042,0.00035947,0.00057928
 ,0.00088679,0.00028452,-0.00241338,0.00527951,-0.19580840,-0.15982794,
 0.06360116,-0.00013142,0.00050351,-0.00004095,-0.00111989,-0.00023624,
 -0.00118460,-0.00094280,-0.00013834,-0.00007275,-0.00000196,-0.0000415
 5,0.00002960,0.00018408,-0.00040120,-0.00031345,0.00026287,-0.00003314
 ,-0.00012713,0.00018475,-0.00033926,-0.00181069,0.21819605,0.00025705,
 0.00079325,0.00038188,0.00442976,-0.00248299,-0.00712224,-0.20371237,-
 0.21810384,0.10775328,-0.00082111,-0.00084553,0.00125780,-0.00065120,-
 0.00132466,-0.00141206,0.00027718,0.00019743,0.00057340,0.00019092,0.0
 0051909,-0.00025394,-0.00043770,0.00064174,-0.00000856,-0.00025808,-0.
 00002176,-0.00012717,0.00080188,0.00181723,0.00019991,0.18831754,0.217
 97093,-0.00138183,-0.00130267,-0.00770693,0.02895290,0.03026784,-0.014
 82238,0.06046822,0.08129327,-0.08786667,0.00063789,0.00088705,0.000191
 55,0.00049112,-0.00160615,-0.00013469,-0.00056673,-0.00022410,-0.00000
 839,-0.00029616,-0.00007499,0.00011865,0.00176222,0.00138922,-0.000760
 86,-0.00000105,-0.00030385,0.00019445,0.00015707,-0.00051023,0.0016304
 0,-0.07950466,-0.09674897,0.10260394,0.00112978,-0.00021167,0.00097525
 ,0.00123250,0.00278015,0.00506147,-0.35872781,0.04493544,-0.13828951,0
 .00053244,-0.00108178,0.00089479,0.00010288,0.00033094,-0.00081426,0.0
 0033746,-0.00036101,-0.00011940,0.00002171,-0.00006611,-0.00015077,-0.
 00014419,-0.00020027,-0.00003982,0.00001332,0.00017841,0.00035598,0.00
 000462,-0.00014544,0.00068039,-0.02204490,0.01146580,-0.01086128,0.377
 34189,0.00010254,0.00049114,0.00041019,-0.00090085,-0.00444237,-0.0099
 6427,0.08557919,-0.03437045,0.06094387,0.00148670,-0.00145231,0.003755
 50,-0.00100441,0.00027430,-0.00102628,0.00006046,0.00043145,0.00077879
 ,0.00029307,-0.00048908,0.00036377,-0.00019235,-0.00034014,-0.00039557
 ,-0.00040582,0.00036914,0.00035707,-0.00003534,0.00029780,-0.00013853,
 -0.02674476,0.00169574,-0.01316366,-0.05718882,0.03631437,-0.00101240,
 0.00052358,0.00164936,-0.03687218,0.00904259,-0.01454362,-0.11968265,0
 .03671563,-0.10431948,-0.00163397,0.00063171,-0.01034453,0.00183682,0.
 00066365,0.00100805,0.00128677,-0.00176288,0.00001596,0.00009060,0.000
 01090,0.00001512,0.00014544,-0.00064066,0.00046260,0.00133157,0.000145
 46,-0.00043676,0.00025874,-0.00074509,0.00051432,0.01222187,-0.0035325
 8,0.00537398,0.14250227,-0.04149544,0.11955395,-0.00087740,0.00067495,
 -0.00120962,-0.00380202,-0.00515986,0.00330556,0.00073667,-0.00017372,
 0.00084142,-0.03022241,0.01103174,-0.00917764,-0.30379200,0.11620540,-
 0.09191574,0.00448971,0.00187455,-0.00023828,-0.00029101,-0.00014369,0
 .00002352,0.00001972,0.00006694,0.00005996,-0.00036090,-0.00042661,0.0
 0016353,0.00057992,-0.00023828,0.00009657,-0.00001963,0.00008655,-0.00
 008201,0.00007457,-0.00000147,0.00006512,0.33980598,-0.00137796,0.0011
 3176,-0.00066896,-0.00301772,-0.00518016,0.00179744,0.00010351,0.00015
 764,0.00008999,-0.03205218,0.00591277,-0.00638327,0.12866091,-0.112188
 75,0.04007633,-0.00008629,0.00356829,-0.00127773,0.00007637,-0.0000134
 1,-0.00010759,0.00006413,0.00003642,0.00000117,-0.00045745,-0.00034984
 ,0.00019096,0.00005275,0.00059066,0.00031380,-0.00004527,-0.00008436,-
 0.00029263,0.00004843,0.00006597,-0.00008209,-0.12389472,0.12196805,0.
 00047933,0.00000124,0.00039892,0.00119688,0.00118559,-0.00241015,-0.00
 086544,-0.00017574,-0.00024665,0.01686359,-0.00278097,0.00097214,-0.14
 632917,0.06461717,-0.06973097,0.00124052,-0.00119721,0.00082165,-0.000
 08345,-0.00003887,-0.00001171,-0.00000184,-0.00006956,0.00008094,0.000
 17004,0.00001827,0.00001894,0.00009297,0.00004426,0.00001177,0.0006749
 7,-0.00003044,0.00150682,-0.00012427,-0.00027436,0.00018361,0.10484975
 ,-0.04761828,0.06655000,-0.00013761,0.00062658,0.00027805,0.00061661,-
 0.00320419,-0.00189619,-0.00048288,0.00096614,0.00059688,0.00339358,-0
 .02375573,-0.01472486,-0.06640142,0.04290095,0.03085827,-0.00285092,-0
 .00685005,-0.00006761,0.00039237,0.00009522,-0.00005892,-0.00000719,-0
 .00004230,0.00001178,-0.00000194,-0.00002796,0.00005881,-0.00121555,0.
 00126548,0.00039099,0.00021846,-0.00035833,-0.00017276,-0.00007254,-0.
 00002987,-0.00013611,-0.00572988,0.03196104,0.02322037,0.07241505,-0.0
 0011636,0.00006839,0.00027380,-0.00063888,0.00024024,-0.00175405,-0.00
 002678,-0.00024724,0.00050593,0.00688425,-0.02174765,-0.01513561,0.042
 04857,-0.25266138,-0.14891135,-0.00591164,-0.00869501,0.00139392,0.000
 22043,0.00016936,0.00004480,-0.00006925,-0.00005790,0.00008529,0.00011
 229,0.00011213,0.00005911,-0.00023403,0.00047351,-0.00012344,-0.000026
 33,0.00022361,0.00003811,0.00006243,-0.00001377,0.00003587,0.00206605,
 -0.01354240,-0.01312834,-0.04373120,0.29467941,-0.00034990,0.00041053,
 0.00010398,0.00025161,-0.00185869,-0.00039437,-0.00084501,0.00048144,-
 0.00041801,-0.00214124,0.01487822,0.00599533,0.04657934,-0.20747076,-0
 .16148902,0.00062992,0.00383531,0.00108735,0.00010249,0.00015124,-0.00
 002622,0.00011002,0.00002003,-0.00005660,-0.00008767,-0.00004865,-0.00
 003836,-0.00043934,0.00056536,0.00059548,0.00056890,-0.00104367,-0.000
 24616,-0.00021272,0.00004645,0.00011681,-0.00597138,0.01351613,0.00236
 210,-0.03883056,0.17559129,0.15233289,-0.00057325,0.00024761,-0.000430
 31,0.00157209,0.00072344,0.00709373,0.00141822,-0.00115853,-0.00169340
 ,-0.00614054,-0.00211080,0.01272056,0.00228776,0.00369953,-0.00545206,
 -0.05548409,0.01757686,0.10113017,-0.00027895,-0.00016277,0.00039830,0
 .00029911,-0.00008387,-0.00028102,-0.00021159,-0.00004476,-0.00000612,
 -0.00037923,-0.00014087,-0.00119858,0.00051537,0.00018385,0.00031931,0
 .00014059,-0.00099965,-0.00038398,-0.00060329,-0.00030017,-0.00096998,
 -0.00017843,-0.00043662,0.00064265,0.05446000,-0.00006697,-0.00004215,
 0.00016254,-0.00239742,0.00080476,-0.00321786,-0.00082562,-0.00115378,
 0.00148336,0.01617864,-0.01673522,-0.04783783,0.00124874,0.00664809,-0
 .00110105,0.01046165,-0.04612679,0.04931104,-0.00001891,0.00006821,0.0
 0015020,-0.00010392,-0.00017712,0.00004150,0.00007706,0.00009493,0.000
 02157,0.00029538,-0.00006689,0.00065443,0.00075523,-0.00102294,0.00021
 399,-0.00047811,0.00096884,0.00045651,-0.00054657,-0.00055900,-0.00030
 057,0.00013024,0.00032486,0.00093895,-0.01631241,0.05877554,-0.0000473
 5,-0.00012803,-0.00007972,-0.00219786,0.00066352,-0.00086315,0.0000962
 9,0.00179093,-0.00020167,0.01394613,-0.01436566,-0.01529774,-0.0023397
 9,0.00136058,0.00386562,0.06027948,0.01836821,-0.37373188,0.00024750,0
 .00008014,0.00012371,-0.00006337,-0.00003816,0.00003055,-0.00001143,0.
 00014989,0.00007228,-0.00003522,0.00002746,-0.00030346,-0.00017949,0.0
 0020752,0.00002429,0.00017767,-0.00046849,0.00043698,-0.00067795,-0.00
 073496,-0.00105928,0.00028584,0.00148078,0.00004223,-0.07943667,-0.012
 21807,0.40388917,0.00037780,0.00041365,-0.00028056,0.00132885,0.002882
 69,0.00163315,0.00061514,-0.00021202,0.00033655,-0.01244329,-0.0046760
 1,-0.00260389,0.00186698,-0.00132724,0.00053922,-0.26653160,0.12877847
 ,-0.17747591,0.00032629,0.00008314,-0.00014662,-0.00010761,0.00011567,
 0.00018350,-0.00009877,0.00000129,0.00007848,-0.00090682,0.00059736,-0
 .00051588,-0.00013658,0.00022827,0.00007776,0.00005768,-0.00001863,-0.
 00001791,-0.00000803,0.00026463,-0.00041428,0.00004227,-0.00020292,-0.
 00000710,0.00315622,-0.00839701,0.00995624,0.27246147,-0.00055192,0.00
 012861,-0.00011097,-0.00015289,-0.00667537,-0.00248810,-0.00066384,0.0
 0064501,-0.00066642,0.03696943,-0.02687504,0.01375527,0.00109364,0.000
 92943,0.00225156,0.08213367,-0.05942759,0.04072509,0.00038359,0.000331
 50,-0.00009935,-0.00001228,0.00011859,0.00006978,-0.00008505,0.0001687
 7,0.00005169,0.00144165,-0.00045241,0.00059280,0.00009185,0.00002707,0
 .00013778,-0.00006837,0.00019937,0.00003284,-0.00142126,-0.00151363,-0
 .00025218,0.00005397,0.00067383,-0.00001318,-0.00068085,-0.00180134,0.
 00382436,-0.11853134,0.09352320,-0.00016644,-0.00022859,0.00022580,0.0
 0026801,-0.00401896,-0.00187448,-0.00122828,0.00134612,0.00031626,0.01
 621188,-0.00737027,0.01041650,0.00034425,-0.00063278,-0.00089426,-0.15
 288704,0.05717163,-0.16706867,-0.00006964,0.00007920,0.00000297,0.0000
 2866,-0.00004191,-0.00004622,0.00011055,0.00001127,-0.00005572,0.00119
 507,-0.00064641,0.00047955,-0.00002909,-0.00009414,-0.00009799,-0.0000
 3580,0.00027096,0.00031365,-0.00013281,0.00117969,0.00055186,0.0001860
 2,-0.00045612,0.00003256,-0.03245259,0.01124127,-0.01694793,0.16865726
 ,-0.05781095,0.17464614\\-0.00000071,-0.00000072,0.00000157,-0.0000136
 3,0.00001199,-0.00001034,0.00000903,-0.00000847,0.00001277,0.00000719,
 -0.00003257,-0.00001286,0.00000032,0.00000029,0.00000132,-0.00000419,0
 .00003451,0.00001178,-0.00000143,0.00000073,0.00000016,0.00000119,0.00
 000390,-0.00000344,-0.00000001,-0.00000209,-0.00000134,0.00000153,-0.0
 0000028,-0.00000019,-0.00000385,0.00000019,-0.00000097,0.00000214,0.00
 000196,-0.00000005,0.00000055,0.00000126,0.00000144,0.00000063,-0.0000
 0172,-0.00000147,0.00000297,-0.00000554,0.00000278,-0.00000173,-0.0000
 0342,-0.00000116\\\@
 Job cpu time:       0 days  4 hours 29 minutes 19.3 seconds.
 File lengths (MBytes):  RWF=   6390 Int=      0 D2E=      0 Chk=     42 Scr=      1
 Normal termination of Gaussian 09 at Fri Aug 26 13:32:51 2022.
