 Entering Gaussian System, Link 0=g09
 Input=G4.Frag_1089.gjf
 Output=G4.Frag_1089.log
 Initial command:
 /public/home/users/caep010/software/Gaussian09/g09/l1.exe "/public/home/users/caep010/.cache/gau_scr/Gau-142719.inp" -scrdir="/public/home/users/caep010/.cache/gau_scr/"
 Entering Link 1 = /public/home/users/caep010/software/Gaussian09/g09/l1.exe PID=    142720.
  
 Copyright (c) 1988,1990,1992,1993,1995,1998,2003,2009,2015,
            Gaussian, Inc.  All Rights Reserved.
  
 This is part of the Gaussian(R) 09 program.  It is based on
 the Gaussian(R) 03 system (copyright 2003, Gaussian, Inc.),
 the Gaussian(R) 98 system (copyright 1998, Gaussian, Inc.),
 the Gaussian(R) 94 system (copyright 1995, Gaussian, Inc.),
 the Gaussian 92(TM) system (copyright 1992, Gaussian, Inc.),
 the Gaussian 90(TM) system (copyright 1990, Gaussian, Inc.),
 the Gaussian 88(TM) system (copyright 1988, Gaussian, Inc.),
 the Gaussian 86(TM) system (copyright 1986, Carnegie Mellon
 University), and the Gaussian 82(TM) system (copyright 1983,
 Carnegie Mellon University). Gaussian is a federally registered
 trademark of Gaussian, Inc.
  
 This software contains proprietary and confidential information,
 including trade secrets, belonging to Gaussian, Inc.
  
 This software is provided under written license and may be
 used, copied, transmitted, or stored only in accord with that
 written license.
  
 The following legend is applicable only to US Government
 contracts under FAR:
  
                    RESTRICTED RIGHTS LEGEND
  
 Use, reproduction and disclosure by the US Government is
 subject to restrictions as set forth in subparagraphs (a)
 and (c) of the Commercial Computer Software - Restricted
 Rights clause in FAR 52.227-19.
  
 Gaussian, Inc.
 340 Quinnipiac St., Bldg. 40, Wallingford CT 06492
  
  
 ---------------------------------------------------------------
 Warning -- This program may not be used in any manner that
 competes with the business of Gaussian, Inc. or will provide
 assistance to any competitor of Gaussian, Inc.  The licensee
 of this program is prohibited from giving any competitor of
 Gaussian, Inc. access to this program.  By using this program,
 the user acknowledges that Gaussian, Inc. is engaged in the
 business of creating and licensing software in the field of
 computational chemistry and represents and warrants to the
 licensee that it is not a competitor of Gaussian, Inc. and that
 it will not use this program in any manner prohibited above.
 ---------------------------------------------------------------
  

 Cite this work as:
 Gaussian 09, Revision E.01,
 M. J. Frisch, G. W. Trucks, H. B. Schlegel, G. E. Scuseria, 
 M. A. Robb, J. R. Cheeseman, G. Scalmani, V. Barone, B. Mennucci, 
 G. A. Petersson, H. Nakatsuji, M. Caricato, X. Li, H. P. Hratchian, 
 A. F. Izmaylov, J. Bloino, G. Zheng, J. L. Sonnenberg, M. Hada, 
 M. Ehara, K. Toyota, R. Fukuda, J. Hasegawa, M. Ishida, T. Nakajima, 
 Y. Honda, O. Kitao, H. Nakai, T. Vreven, J. A. Montgomery, Jr., 
 J. E. Peralta, F. Ogliaro, M. Bearpark, J. J. Heyd, E. Brothers, 
 K. N. Kudin, V. N. Staroverov, T. Keith, R. Kobayashi, J. Normand, 
 K. Raghavachari, A. Rendell, J. C. Burant, S. S. Iyengar, J. Tomasi, 
 M. Cossi, N. Rega, J. M. Millam, M. Klene, J. E. Knox, J. B. Cross, 
 V. Bakken, C. Adamo, J. Jaramillo, R. Gomperts, R. E. Stratmann, 
 O. Yazyev, A. J. Austin, R. Cammi, C. Pomelli, J. W. Ochterski, 
 R. L. Martin, K. Morokuma, V. G. Zakrzewski, G. A. Voth, 
 P. Salvador, J. J. Dannenberg, S. Dapprich, A. D. Daniels, 
 O. Farkas, J. B. Foresman, J. V. Ortiz, J. Cioslowski, 
 and D. J. Fox, Gaussian, Inc., Wallingford CT, 2013.
 
 ******************************************
 Gaussian 09:  ES64L-G09RevE.01 30-Nov-2015
                 1-Sep-2022 
 ******************************************
 %nproc=32
 Will use up to   32 processors via shared memory.
 %mem=180GB
 %chk=G4.Frag_1089.chk
 -----
 #P G4
 -----
 1/14=-1,18=20,19=15,26=3,38=1/1,3;
 2/9=110,12=2,17=6,18=5,40=1/2;
 3/5=35,7=104,11=2,16=1,25=1,30=1,71=1,74=-5/1,2,3;
 4//1;
 5/5=2,38=5/2;
 6/7=2,8=2,9=2,10=2,28=1/1;
 7//1,2,3,16;
 1/14=-1,18=20,19=15,26=3/3(2);
 2/9=110/2;
 99//99;
 2/9=110/2;
 3/5=35,7=104,11=2,16=1,25=1,30=1,71=1,74=-5/1,2,3;
 4/5=5,16=3,69=1/1;
 5/5=2,38=5/2;
 7//1,2,3,16;
 1/14=-1,18=20,19=15,26=3/3(-5);
 2/9=110/2;
 6/7=2,8=2,9=2,10=2,19=2,28=1/1;
 99/9=1/99;
 Leave Link    1 at Thu Sep  1 13:24:21 2022, MaxMem= 24159191040 cpu:         3.7
 (Enter /public/home/users/caep010/software/Gaussian09/g09/l101.exe)
 ---------
 Frag_1089
 ---------
 Symbolic Z-matrix:
 Charge =  0 Multiplicity = 1
 C                    -0.80739  -0.96443   1.11669 
 N                    -0.67741  -0.26436  -0.14735 
 C                    -1.60007   0.86273  -0.2304 
 C                     0.69383   0.0383   -0.5799 
 N                     1.34083   1.04645   0.26052 
 N                     1.54988  -1.13538  -0.6662 
 O                     0.58571   0.54193  -1.89395 
 H                    -0.21756  -1.88403   1.12086 
 H                    -0.51817  -0.36606   2.00431 
 H                    -1.85439  -1.25091   1.25609 
 H                    -2.62628   0.49067  -0.1403 
 H                    -1.48831   1.34766  -1.1985 
 H                    -1.44991   1.61781   0.56306 
 H                     0.92163   1.0985    1.1806 
 H                     2.32329   0.81854   0.36414 
 H                     1.15809  -1.77529  -1.35099 
 H                     1.60402  -1.62073   0.2225 
 H                     1.06222   1.39871  -1.88108 
 
 NAtoms=     18 NQM=       18 NQMF=       0 NMMI=      0 NMMIF=      0
                NMic=       0 NMicF=      0.
                    Isotopes and Nuclear Properties:
 (Nuclear quadrupole moments (NQMom) in fm**2, nuclear magnetic moments (NMagM)
  in nuclear magnetons)

  Atom         1           2           3           4           5           6           7           8           9          10
 IAtWgt=          12          14          12          12          14          14          16           1           1           1
 AtmWgt=  12.0000000  14.0030740  12.0000000  12.0000000  14.0030740  14.0030740  15.9949146   1.0078250   1.0078250   1.0078250
 NucSpn=           0           2           0           0           2           2           0           1           1           1
 AtZEff=   0.0000000   0.0000000   0.0000000   0.0000000   0.0000000   0.0000000   0.0000000   0.0000000   0.0000000   0.0000000
 NQMom=    0.0000000   2.0440000   0.0000000   0.0000000   2.0440000   2.0440000   0.0000000   0.0000000   0.0000000   0.0000000
 NMagM=    0.0000000   0.4037610   0.0000000   0.0000000   0.4037610   0.4037610   0.0000000   2.7928460   2.7928460   2.7928460
 AtZNuc=   6.0000000   7.0000000   6.0000000   6.0000000   7.0000000   7.0000000   8.0000000   1.0000000   1.0000000   1.0000000

  Atom        11          12          13          14          15          16          17          18
 IAtWgt=           1           1           1           1           1           1           1           1
 AtmWgt=   1.0078250   1.0078250   1.0078250   1.0078250   1.0078250   1.0078250   1.0078250   1.0078250
 NucSpn=           1           1           1           1           1           1           1           1
 AtZEff=   0.0000000   0.0000000   0.0000000   0.0000000   0.0000000   0.0000000   0.0000000   0.0000000
 NQMom=    0.0000000   0.0000000   0.0000000   0.0000000   0.0000000   0.0000000   0.0000000   0.0000000
 NMagM=    2.7928460   2.7928460   2.7928460   2.7928460   2.7928460   2.7928460   2.7928460   2.7928460
 AtZNuc=   1.0000000   1.0000000   1.0000000   1.0000000   1.0000000   1.0000000   1.0000000   1.0000000
 Leave Link  101 at Thu Sep  1 13:24:22 2022, MaxMem= 24159191040 cpu:        18.3
 (Enter /public/home/users/caep010/software/Gaussian09/g09/l103.exe)

 GradGradGradGradGradGradGradGradGradGradGradGradGradGradGradGradGradGrad
 Berny optimization.
 Initialization pass.
                           ----------------------------
                           !    Initial Parameters    !
                           ! (Angstroms and Degrees)  !
 --------------------------                            --------------------------
 ! Name  Definition              Value          Derivative Info.                !
 --------------------------------------------------------------------------------
 ! R1    R(1,2)                  1.4508         estimate D2E/DX2                !
 ! R2    R(1,8)                  1.0925         estimate D2E/DX2                !
 ! R3    R(1,9)                  1.1089         estimate D2E/DX2                !
 ! R4    R(1,10)                 1.0944         estimate D2E/DX2                !
 ! R5    R(2,3)                  1.4589         estimate D2E/DX2                !
 ! R6    R(2,4)                  1.4694         estimate D2E/DX2                !
 ! R7    R(3,11)                 1.0953         estimate D2E/DX2                !
 ! R8    R(3,12)                 1.0885         estimate D2E/DX2                !
 ! R9    R(3,13)                 1.1056         estimate D2E/DX2                !
 ! R10   R(4,5)                  1.4633         estimate D2E/DX2                !
 ! R11   R(4,6)                  1.4553         estimate D2E/DX2                !
 ! R12   R(4,7)                  1.4114         estimate D2E/DX2                !
 ! R13   R(5,14)                 1.0124         estimate D2E/DX2                !
 ! R14   R(5,15)                 1.0139         estimate D2E/DX2                !
 ! R15   R(6,16)                 1.0158         estimate D2E/DX2                !
 ! R16   R(6,17)                 1.014          estimate D2E/DX2                !
 ! R17   R(7,18)                 0.9805         estimate D2E/DX2                !
 ! A1    A(2,1,8)              111.1695         estimate D2E/DX2                !
 ! A2    A(2,1,9)              114.4366         estimate D2E/DX2                !
 ! A3    A(2,1,10)             108.8455         estimate D2E/DX2                !
 ! A4    A(8,1,9)              108.0799         estimate D2E/DX2                !
 ! A5    A(8,1,10)             107.1974         estimate D2E/DX2                !
 ! A6    A(9,1,10)             106.7877         estimate D2E/DX2                !
 ! A7    A(1,2,3)              111.4516         estimate D2E/DX2                !
 ! A8    A(1,2,4)              116.0717         estimate D2E/DX2                !
 ! A9    A(3,2,4)              114.4754         estimate D2E/DX2                !
 ! A10   A(2,3,11)             108.9917         estimate D2E/DX2                !
 ! A11   A(2,3,12)             109.2603         estimate D2E/DX2                !
 ! A12   A(2,3,13)             113.6332         estimate D2E/DX2                !
 ! A13   A(11,3,12)            108.7048         estimate D2E/DX2                !
 ! A14   A(11,3,13)            107.4704         estimate D2E/DX2                !
 ! A15   A(12,3,13)            108.6678         estimate D2E/DX2                !
 ! A16   A(2,4,5)              112.6725         estimate D2E/DX2                !
 ! A17   A(2,4,6)              113.5966         estimate D2E/DX2                !
 ! A18   A(2,4,7)              106.0266         estimate D2E/DX2                !
 ! A19   A(5,4,6)              109.2453         estimate D2E/DX2                !
 ! A20   A(5,4,7)              108.8289         estimate D2E/DX2                !
 ! A21   A(6,4,7)              106.1194         estimate D2E/DX2                !
 ! A22   A(4,5,14)             111.9804         estimate D2E/DX2                !
 ! A23   A(4,5,15)             109.4069         estimate D2E/DX2                !
 ! A24   A(14,5,15)            108.657          estimate D2E/DX2                !
 ! A25   A(4,6,16)             108.7321         estimate D2E/DX2                !
 ! A26   A(4,6,17)             111.4356         estimate D2E/DX2                !
 ! A27   A(16,6,17)            108.052          estimate D2E/DX2                !
 ! A28   A(4,7,18)             105.2108         estimate D2E/DX2                !
 ! D1    D(8,1,2,3)            172.179          estimate D2E/DX2                !
 ! D2    D(8,1,2,4)            -54.3632         estimate D2E/DX2                !
 ! D3    D(9,1,2,3)            -65.0342         estimate D2E/DX2                !
 ! D4    D(9,1,2,4)             68.4236         estimate D2E/DX2                !
 ! D5    D(10,1,2,3)            54.3264         estimate D2E/DX2                !
 ! D6    D(10,1,2,4)          -172.2158         estimate D2E/DX2                !
 ! D7    D(1,2,3,11)           -60.1114         estimate D2E/DX2                !
 ! D8    D(1,2,3,12)          -178.7655         estimate D2E/DX2                !
 ! D9    D(1,2,3,13)            59.701          estimate D2E/DX2                !
 ! D10   D(4,2,3,11)           165.6461         estimate D2E/DX2                !
 ! D11   D(4,2,3,12)            46.9921         estimate D2E/DX2                !
 ! D12   D(4,2,3,13)           -74.5414         estimate D2E/DX2                !
 ! D13   D(1,2,4,5)            -68.9469         estimate D2E/DX2                !
 ! D14   D(1,2,4,6)             55.9632         estimate D2E/DX2                !
 ! D15   D(1,2,4,7)            172.1117         estimate D2E/DX2                !
 ! D16   D(3,2,4,5)             63.1253         estimate D2E/DX2                !
 ! D17   D(3,2,4,6)           -171.9645         estimate D2E/DX2                !
 ! D18   D(3,2,4,7)            -55.816          estimate D2E/DX2                !
 ! D19   D(2,4,5,14)            23.0009         estimate D2E/DX2                !
 ! D20   D(2,4,5,15)           143.5285         estimate D2E/DX2                !
 ! D21   D(6,4,5,14)          -104.2527         estimate D2E/DX2                !
 ! D22   D(6,4,5,15)            16.275          estimate D2E/DX2                !
 ! D23   D(7,4,5,14)           140.2957         estimate D2E/DX2                !
 ! D24   D(7,4,5,15)           -99.1766         estimate D2E/DX2                !
 ! D25   D(2,4,6,16)            61.0719         estimate D2E/DX2                !
 ! D26   D(2,4,6,17)           -57.9186         estimate D2E/DX2                !
 ! D27   D(5,4,6,16)          -172.1987         estimate D2E/DX2                !
 ! D28   D(5,4,6,17)            68.8108         estimate D2E/DX2                !
 ! D29   D(7,4,6,16)           -55.0221         estimate D2E/DX2                !
 ! D30   D(7,4,6,17)          -174.0126         estimate D2E/DX2                !
 ! D31   D(2,4,7,18)           126.93           estimate D2E/DX2                !
 ! D32   D(5,4,7,18)             5.4853         estimate D2E/DX2                !
 ! D33   D(6,4,7,18)          -111.9695         estimate D2E/DX2                !
 --------------------------------------------------------------------------------
 Trust Radius=3.00D-01 FncErr=1.00D-07 GrdErr=1.00D-06
 Number of steps in this run=     88 maximum allowed number of steps=    108.
 GradGradGradGradGradGradGradGradGradGradGradGradGradGradGradGradGradGrad

 Leave Link  103 at Thu Sep  1 13:24:22 2022, MaxMem= 24159191040 cpu:         0.5
 (Enter /public/home/users/caep010/software/Gaussian09/g09/l202.exe)
                          Input orientation:                          
 ---------------------------------------------------------------------
 Center     Atomic      Atomic             Coordinates (Angstroms)
 Number     Number       Type             X           Y           Z
 ---------------------------------------------------------------------
      1          6           0       -0.807393   -0.964425    1.116687
      2          7           0       -0.677408   -0.264360   -0.147352
      3          6           0       -1.600068    0.862725   -0.230401
      4          6           0        0.693829    0.038299   -0.579900
      5          7           0        1.340827    1.046455    0.260518
      6          7           0        1.549880   -1.135384   -0.666195
      7          8           0        0.585706    0.541926   -1.893946
      8          1           0       -0.217564   -1.884030    1.120860
      9          1           0       -0.518171   -0.366063    2.004308
     10          1           0       -1.854391   -1.250913    1.256092
     11          1           0       -2.626275    0.490674   -0.140298
     12          1           0       -1.488307    1.347662   -1.198499
     13          1           0       -1.449909    1.617814    0.563061
     14          1           0        0.921632    1.098499    1.180596
     15          1           0        2.323286    0.818538    0.364142
     16          1           0        1.158089   -1.775294   -1.350993
     17          1           0        1.604018   -1.620734    0.222502
     18          1           0        1.062220    1.398711   -1.881083
 ---------------------------------------------------------------------
                    Distance matrix (angstroms):
                    1          2          3          4          5
     1  C    0.000000
     2  N    1.450787   0.000000
     3  C    2.404466   1.458945   0.000000
     4  C    2.477404   1.469351   2.462477   0.000000
     5  N    3.064558   2.440874   2.987243   1.463314   0.000000
     6  N    2.960512   2.447181   3.755600   1.455267   2.379689
     7  O    3.643313   2.301335   2.765484   1.411399   2.338049
     8  H    1.092515   2.107878   3.358852   2.723705   3.428777
     9  H    1.108854   2.159940   2.770261   2.882808   2.914084
    10  H    1.094401   2.080440   2.596499   3.395049   4.059370
    11  H    2.646820   2.090026   1.095281   3.379495   4.025847
    12  H    3.342077   2.088320   1.088516   2.618934   3.197414
    13  H    2.717956   2.155000   1.105572   2.897730   2.864645
    14  H    2.692446   2.485510   2.899219   2.067671   1.012411
    15  H    3.680548   3.230860   3.968393   2.038411   1.013859
    16  H    3.257311   2.664718   3.977726   2.024658   3.254632
    17  H    2.654282   2.679822   4.079075   2.055403   2.680413
    18  H    4.250469   2.966131   3.178020   1.918205   2.188187
                    6          7          8          9         10
     6  N    0.000000
     7  O    2.291369   0.000000
     8  H    2.622574   3.952159   0.000000
     9  H    3.464141   4.152032   1.781872   0.000000
    10  H    3.911214   4.369335   1.760207   1.768692   0.000000
    11  H    4.512306   3.659881   3.609935   3.126889   2.361956
    12  H    3.959728   2.331177   4.175889   3.759786   3.593275
    13  H    4.253223   3.367216   3.754028   2.623184   2.978841
    14  H    2.965732   3.142519   3.193245   2.212798   3.637546
    15  H    2.340419   2.862632   3.785818   3.488166   4.746703
    16  H    1.015841   2.447842   2.830954   4.006722   4.018321
    17  H    1.014040   3.192712   2.048056   3.041828   3.628453
    18  H    2.852263   0.980465   4.628812   4.550640   5.036764
                   11         12         13         14         15
    11  H    0.000000
    12  H    1.774595   0.000000
    13  H    1.774541   1.782568   0.000000
    14  H    3.834300   3.395583   2.505044   0.000000
    15  H    4.985991   4.153319   3.862048   1.646089   0.000000
    16  H    4.574036   4.096281   4.688117   3.837127   3.320743
    17  H    4.741840   4.515871   4.464375   2.962739   2.547049
    18  H    4.178500   2.640779   3.511786   3.079573   2.639682
                   16         17         18
    16  H    0.000000
    17  H    1.642750   0.000000
    18  H    3.219393   3.719632   0.000000
 Stoichiometry    C3H11N3O
 Framework group  C1[X(C3H11N3O)]
 Deg. of freedom    48
 Full point group                 C1      NOp   1
 Largest Abelian subgroup         C1      NOp   1
 Largest concise Abelian subgroup C1      NOp   1
                         Standard orientation:                         
 ---------------------------------------------------------------------
 Center     Atomic      Atomic             Coordinates (Angstroms)
 Number     Number       Type             X           Y           Z
 ---------------------------------------------------------------------
      1          6           0        1.507805    1.231310   -0.004749
      2          7           0        0.793623    0.028838   -0.390478
      3          6           0        1.548480   -1.172382   -0.050211
      4          6           0       -0.628847   -0.022406   -0.025864
      5          7           0       -0.837296   -0.135233    1.418126
      6          7           0       -1.401737    1.100269   -0.535810
      7          8           0       -1.150555   -1.174285   -0.652795
      8          1           0        1.007109    2.125861   -0.382467
      9          1           0        1.647572    1.350975    1.088733
     10          1           0        2.507080    1.207273   -0.450380
     11          1           0        2.508471   -1.151280   -0.577102
     12          1           0        0.991819   -2.049991   -0.373939
     13          1           0        1.764637   -1.268931    1.029716
     14          1           0       -0.042100    0.206119    1.943595
     15          1           0       -1.655725    0.401215    1.683284
     16          1           0       -1.356017    1.093679   -1.550600
     17          1           0       -1.028840    1.985257   -0.210200
     18          1           0       -1.586318   -1.682141    0.063798
 ---------------------------------------------------------------------
 Rotational constants (GHZ):      3.3571020      2.4059397      1.9902333
 Leave Link  202 at Thu Sep  1 13:24:22 2022, MaxMem= 24159191040 cpu:         0.5
 (Enter /public/home/users/caep010/software/Gaussian09/g09/l301.exe)
 Standard basis: GTBas3 (6D, 7F)
 Ernie: Thresh=  0.10000D-02 Tol=  0.10000D-05 Strict=F.
 There are   272 symmetry adapted cartesian basis functions of A   symmetry.
 There are   251 symmetry adapted basis functions of A   symmetry.
   251 basis functions,   385 primitive gaussians,   272 cartesian basis functions
    29 alpha electrons       29 beta electrons
       nuclear repulsion energy       360.0514191581 Hartrees.
 IExCor=  402 DFT=T Ex+Corr=B3LYP ExCW=0 ScaHFX=  0.200000
 ScaDFX=  0.800000  0.720000  1.000000  0.810000 ScalE2=  1.000000  1.000000
 IRadAn=      0 IRanWt=     -1 IRanGd=            0 ICorTp=0 IEmpDi=  4
 NAtoms=   18 NActive=   18 NUniq=   18 SFac= 1.00D+00 NAtFMM=   60 NAOKFM=F Big=F
 Integral buffers will be    131072 words long.
 Raffenetti 2 integral format.
 Two-electron integral symmetry is turned on.
 Leave Link  301 at Thu Sep  1 13:24:22 2022, MaxMem= 24159191040 cpu:         2.1
 (Enter /public/home/users/caep010/software/Gaussian09/g09/l302.exe)
 NPDir=0 NMtPBC=     1 NCelOv=     1 NCel=       1 NClECP=     1 NCelD=      1
         NCelK=      1 NCelE2=     1 NClLst=     1 CellRange=     0.0.
 One-electron integrals computed using PRISM.
 NBasis=   251 RedAO= T EigKep=  3.11D-04  NBF=   251
 NBsUse=   251 1.00D-06 EigRej= -1.00D+00 NBFU=   251
 Precomputing XC quadrature grid using
 IXCGrd= 4 IRadAn=           0 IRanWt=          -1 IRanGd=           0 AccXCQ= 0.00D+00.
 Generated NRdTot=       0 NPtTot=           0 NUsed=           0 NTot=          32
 NSgBfM=   272   272   272   272   272 MxSgAt=    18 MxSgA2=    18.
 Leave Link  302 at Thu Sep  1 13:24:23 2022, MaxMem= 24159191040 cpu:        15.6
 (Enter /public/home/users/caep010/software/Gaussian09/g09/l303.exe)
 DipDrv:  MaxL=1.
 Leave Link  303 at Thu Sep  1 13:24:23 2022, MaxMem= 24159191040 cpu:         0.9
 (Enter /public/home/users/caep010/software/Gaussian09/g09/l401.exe)
 ExpMin= 1.61D-01 ExpMax= 5.48D+03 ExpMxC= 8.25D+02 IAcc=1 IRadAn=         1 AccDes= 0.00D+00
 Harris functional with IExCor=  402 and IRadAn=       1 diagonalized for initial guess.
 HarFok:  IExCor=  402 AccDes= 0.00D+00 IRadAn=         1 IDoV= 1 UseB2=F ITyADJ=14
 ICtDFT=  3500011 ScaDFX=  1.000000  1.000000  1.000000  1.000000
 FoFCou: FMM=F IPFlag=           0 FMFlag=      100000 FMFlg1=           0
         NFxFlg=           0 DoJE=T BraDBF=F KetDBF=T FulRan=T
         wScrn=  0.000000 ICntrl=     500 IOpCl=  0 I1Cent=   200000004 NGrid=           0
         NMat0=    1 NMatS0=      1 NMatT0=    0 NMatD0=    1 NMtDS0=    0 NMtDT0=    0
 Petite list used in FoFCou.
 Harris En= -360.452919468530    
 JPrj=0 DoOrth=F DoCkMO=F.
 Leave Link  401 at Thu Sep  1 13:24:24 2022, MaxMem= 24159191040 cpu:        15.1
 (Enter /public/home/users/caep010/software/Gaussian09/g09/l502.exe)
 Closed shell SCF:
 Using DIIS extrapolation, IDIIS=  1040.
 Integral symmetry usage will be decided dynamically.
 Keep R1 ints in memory in canonical form, NReq=510542023.
 IVT=      251200 IEndB=      251200 NGot= 24159191040 MDV= 23658822090
 LenX= 23658822090 LenY= 23658747665
 Requested convergence on RMS density matrix=1.00D-08 within 128 cycles.
 Requested convergence on MAX density matrix=1.00D-06.
 Requested convergence on             energy=1.00D-06.
 No special actions if energy rises.
 FoFCou: FMM=F IPFlag=           0 FMFlag=           0 FMFlg1=           0
         NFxFlg=           0 DoJE=F BraDBF=F KetDBF=F FulRan=T
         wScrn=  0.000000 ICntrl=     600 IOpCl=  0 I1Cent=           0 NGrid=           0
         NMat0=    1 NMatS0=  31626 NMatT0=    0 NMatD0=    1 NMtDS0=    0 NMtDT0=    0
 Symmetry not used in FoFCou.
 Integral accuracy reduced to 1.0D-05 until final iterations.

 Cycle   1  Pass 0  IDiag  1:
 E= -360.170752987427    
 DIIS: error= 2.32D-02 at cycle   1 NSaved=   1.
 NSaved= 1 IEnMin= 1 EnMin= -360.170752987427     IErMin= 1 ErrMin= 2.32D-02
 ErrMax= 2.32D-02  0.00D+00 EMaxC= 1.00D-01 BMatC= 3.03D-01 BMatP= 3.03D-01
 IDIUse=3 WtCom= 7.68D-01 WtEn= 2.32D-01
 Coeff-Com:  0.100D+01
 Coeff-En:   0.100D+01
 Coeff:      0.100D+01
 Gap=     0.224 Goal=   None    Shift=    0.000
 GapD=    0.224 DampG=1.000 DampE=0.500 DampFc=0.5000 IDamp=-1.
 Damping current iteration by 5.00D-01
 RMSDP=4.73D-03 MaxDP=1.56D-01              OVMax= 1.51D-01

 Cycle   2  Pass 0  IDiag  1:
 E= -360.278269688522     Delta-E=       -0.107516701095 Rises=F Damp=T
 DIIS: error= 1.03D-02 at cycle   2 NSaved=   2.
 NSaved= 2 IEnMin= 2 EnMin= -360.278269688522     IErMin= 2 ErrMin= 1.03D-02
 ErrMax= 1.03D-02  0.00D+00 EMaxC= 1.00D-01 BMatC= 1.66D-02 BMatP= 3.03D-01
 IDIUse=3 WtCom= 8.97D-01 WtEn= 1.03D-01
 Coeff-Com:  0.115D+00 0.885D+00
 Coeff-En:   0.192D+00 0.808D+00
 Coeff:      0.123D+00 0.877D+00
 Gap=     0.276 Goal=   None    Shift=    0.000
 RMSDP=7.96D-04 MaxDP=3.92D-02 DE=-1.08D-01 OVMax= 9.18D-02

 Cycle   3  Pass 0  IDiag  1:
 E= -360.427937985367     Delta-E=       -0.149668296845 Rises=F Damp=F
 DIIS: error= 2.32D-03 at cycle   3 NSaved=   3.
 NSaved= 3 IEnMin= 3 EnMin= -360.427937985367     IErMin= 3 ErrMin= 2.32D-03
 ErrMax= 2.32D-03  0.00D+00 EMaxC= 1.00D-01 BMatC= 2.60D-03 BMatP= 1.66D-02
 IDIUse=3 WtCom= 9.77D-01 WtEn= 2.32D-02
 Coeff-Com:  0.136D-01 0.238D+00 0.748D+00
 Coeff-En:   0.000D+00 0.000D+00 0.100D+01
 Coeff:      0.133D-01 0.233D+00 0.754D+00
 Gap=     0.276 Goal=   None    Shift=    0.000
 RMSDP=2.89D-04 MaxDP=1.29D-02 DE=-1.50D-01 OVMax= 1.25D-02

 Cycle   4  Pass 0  IDiag  1:
 E= -360.428890626682     Delta-E=       -0.000952641315 Rises=F Damp=F
 DIIS: error= 1.95D-03 at cycle   4 NSaved=   4.
 NSaved= 4 IEnMin= 4 EnMin= -360.428890626682     IErMin= 4 ErrMin= 1.95D-03
 ErrMax= 1.95D-03  0.00D+00 EMaxC= 1.00D-01 BMatC= 1.43D-03 BMatP= 2.60D-03
 IDIUse=3 WtCom= 9.80D-01 WtEn= 1.95D-02
 Coeff-Com: -0.167D-02 0.442D-01 0.430D+00 0.527D+00
 Coeff-En:   0.000D+00 0.000D+00 0.357D+00 0.643D+00
 Coeff:     -0.164D-02 0.433D-01 0.429D+00 0.529D+00
 Gap=     0.276 Goal=   None    Shift=    0.000
 RMSDP=1.38D-04 MaxDP=6.34D-03 DE=-9.53D-04 OVMax= 7.10D-03

 Cycle   5  Pass 0  IDiag  1:
 E= -360.429977826085     Delta-E=       -0.001087199403 Rises=F Damp=F
 DIIS: error= 2.70D-04 at cycle   5 NSaved=   5.
 NSaved= 5 IEnMin= 5 EnMin= -360.429977826085     IErMin= 5 ErrMin= 2.70D-04
 ErrMax= 2.70D-04  0.00D+00 EMaxC= 1.00D-01 BMatC= 4.44D-05 BMatP= 1.43D-03
 IDIUse=3 WtCom= 9.97D-01 WtEn= 2.70D-03
 Coeff-Com: -0.105D-02 0.493D-02 0.145D+00 0.235D+00 0.616D+00
 Coeff-En:   0.000D+00 0.000D+00 0.000D+00 0.000D+00 0.100D+01
 Coeff:     -0.104D-02 0.491D-02 0.144D+00 0.234D+00 0.617D+00
 Gap=     0.275 Goal=   None    Shift=    0.000
 RMSDP=2.77D-05 MaxDP=1.11D-03 DE=-1.09D-03 OVMax= 1.17D-03

 Cycle   6  Pass 0  IDiag  1:
 E= -360.430009364983     Delta-E=       -0.000031538898 Rises=F Damp=F
 DIIS: error= 9.90D-05 at cycle   6 NSaved=   6.
 NSaved= 6 IEnMin= 6 EnMin= -360.430009364983     IErMin= 6 ErrMin= 9.90D-05
 ErrMax= 9.90D-05  0.00D+00 EMaxC= 1.00D-01 BMatC= 4.20D-06 BMatP= 4.44D-05
 IDIUse=1 WtCom= 1.00D+00 WtEn= 0.00D+00
 Coeff-Com: -0.443D-03 0.139D-04 0.549D-01 0.976D-01 0.329D+00 0.519D+00
 Coeff:     -0.443D-03 0.139D-04 0.549D-01 0.976D-01 0.329D+00 0.519D+00
 Gap=     0.275 Goal=   None    Shift=    0.000
 RMSDP=7.40D-06 MaxDP=2.93D-04 DE=-3.15D-05 OVMax= 3.04D-04

 Initial convergence to 1.0D-05 achieved.  Increase integral accuracy.
 Cycle   7  Pass 1  IDiag  1:
 E= -360.429973878170     Delta-E=        0.000035486813 Rises=F Damp=F
 DIIS: error= 1.78D-05 at cycle   1 NSaved=   1.
 NSaved= 1 IEnMin= 1 EnMin= -360.429973878170     IErMin= 1 ErrMin= 1.78D-05
 ErrMax= 1.78D-05  0.00D+00 EMaxC= 1.00D-01 BMatC= 1.91D-07 BMatP= 1.91D-07
 IDIUse=1 WtCom= 1.00D+00 WtEn= 0.00D+00
 Coeff-Com:  0.100D+01
 Coeff:      0.100D+01
 Gap=     0.276 Goal=   None    Shift=    0.000
 RMSDP=7.40D-06 MaxDP=2.93D-04 DE= 3.55D-05 OVMax= 1.04D-04

 Cycle   8  Pass 1  IDiag  1:
 E= -360.429974001706     Delta-E=       -0.000000123536 Rises=F Damp=F
 DIIS: error= 1.25D-05 at cycle   2 NSaved=   2.
 NSaved= 2 IEnMin= 2 EnMin= -360.429974001706     IErMin= 2 ErrMin= 1.25D-05
 ErrMax= 1.25D-05  0.00D+00 EMaxC= 1.00D-01 BMatC= 6.49D-08 BMatP= 1.91D-07
 IDIUse=1 WtCom= 1.00D+00 WtEn= 0.00D+00
 Coeff-Com:  0.321D+00 0.679D+00
 Coeff:      0.321D+00 0.679D+00
 Gap=     0.276 Goal=   None    Shift=    0.000
 RMSDP=1.32D-06 MaxDP=7.41D-05 DE=-1.24D-07 OVMax= 6.52D-05

 Cycle   9  Pass 1  IDiag  1:
 E= -360.429974040998     Delta-E=       -0.000000039291 Rises=F Damp=F
 DIIS: error= 8.67D-06 at cycle   3 NSaved=   3.
 NSaved= 3 IEnMin= 3 EnMin= -360.429974040998     IErMin= 3 ErrMin= 8.67D-06
 ErrMax= 8.67D-06  0.00D+00 EMaxC= 1.00D-01 BMatC= 2.07D-08 BMatP= 6.49D-08
 IDIUse=1 WtCom= 1.00D+00 WtEn= 0.00D+00
 Coeff-Com:  0.190D-03 0.357D+00 0.643D+00
 Coeff:      0.190D-03 0.357D+00 0.643D+00
 Gap=     0.275 Goal=   None    Shift=    0.000
 RMSDP=5.47D-07 MaxDP=3.49D-05 DE=-3.93D-08 OVMax= 3.03D-05

 Cycle  10  Pass 1  IDiag  1:
 E= -360.429974057530     Delta-E=       -0.000000016533 Rises=F Damp=F
 DIIS: error= 2.03D-06 at cycle   4 NSaved=   4.
 NSaved= 4 IEnMin= 4 EnMin= -360.429974057530     IErMin= 4 ErrMin= 2.03D-06
 ErrMax= 2.03D-06  0.00D+00 EMaxC= 1.00D-01 BMatC= 9.78D-10 BMatP= 2.07D-08
 IDIUse=1 WtCom= 1.00D+00 WtEn= 0.00D+00
 Coeff-Com: -0.117D-01 0.153D+00 0.323D+00 0.536D+00
 Coeff:     -0.117D-01 0.153D+00 0.323D+00 0.536D+00
 Gap=     0.276 Goal=   None    Shift=    0.000
 RMSDP=1.29D-07 MaxDP=5.07D-06 DE=-1.65D-08 OVMax= 6.88D-06

 Cycle  11  Pass 1  IDiag  1:
 E= -360.429974058387     Delta-E=       -0.000000000857 Rises=F Damp=F
 DIIS: error= 2.93D-07 at cycle   5 NSaved=   5.
 NSaved= 5 IEnMin= 5 EnMin= -360.429974058387     IErMin= 5 ErrMin= 2.93D-07
 ErrMax= 2.93D-07  0.00D+00 EMaxC= 1.00D-01 BMatC= 4.57D-11 BMatP= 9.78D-10
 IDIUse=1 WtCom= 1.00D+00 WtEn= 0.00D+00
 Coeff-Com: -0.616D-02 0.648D-01 0.141D+00 0.274D+00 0.527D+00
 Coeff:     -0.616D-02 0.648D-01 0.141D+00 0.274D+00 0.527D+00
 Gap=     0.276 Goal=   None    Shift=    0.000
 RMSDP=2.51D-08 MaxDP=1.04D-06 DE=-8.57D-10 OVMax= 1.08D-06

 Cycle  12  Pass 1  IDiag  1:
 E= -360.429974058425     Delta-E=       -0.000000000038 Rises=F Damp=F
 DIIS: error= 7.78D-08 at cycle   6 NSaved=   6.
 NSaved= 6 IEnMin= 6 EnMin= -360.429974058425     IErMin= 6 ErrMin= 7.78D-08
 ErrMax= 7.78D-08  0.00D+00 EMaxC= 1.00D-01 BMatC= 2.34D-12 BMatP= 4.57D-11
 IDIUse=1 WtCom= 1.00D+00 WtEn= 0.00D+00
 Coeff-Com: -0.803D-03 0.501D-02 0.117D-01 0.352D-01 0.203D+00 0.746D+00
 Coeff:     -0.803D-03 0.501D-02 0.117D-01 0.352D-01 0.203D+00 0.746D+00
 Gap=     0.276 Goal=   None    Shift=    0.000
 RMSDP=6.75D-09 MaxDP=3.04D-07 DE=-3.81D-11 OVMax= 3.15D-07

 SCF Done:  E(RB3LYP) =  -360.429974058     A.U. after   12 cycles
            NFock= 12  Conv=0.67D-08     -V/T= 2.0073
 KE= 3.578271708038D+02 PE=-1.561567270791D+03 EE= 4.832587067711D+02
 Leave Link  502 at Thu Sep  1 13:24:37 2022, MaxMem= 24159191040 cpu:       128.7
 (Enter /public/home/users/caep010/software/Gaussian09/g09/l601.exe)
 Copying SCF densities to generalized density rwf, IOpCl= 0 IROHF=0.

 **********************************************************************

            Population analysis using the SCF density.

 **********************************************************************

 Orbital symmetries:
       Occupied  (A) (A) (A) (A) (A) (A) (A) (A) (A) (A) (A) (A)
                 (A) (A) (A) (A) (A) (A) (A) (A) (A) (A) (A) (A)
                 (A) (A) (A) (A) (A)
       Virtual   (A) (A) (A) (A) (A) (A) (A) (A) (A) (A) (A) (A)
                 (A) (A) (A) (A) (A) (A) (A) (A) (A) (A) (A) (A)
                 (A) (A) (A) (A) (A) (A) (A) (A) (A) (A) (A) (A)
                 (A) (A) (A) (A) (A) (A) (A) (A) (A) (A) (A) (A)
                 (A) (A) (A) (A) (A) (A) (A) (A) (A) (A) (A) (A)
                 (A) (A) (A) (A) (A) (A) (A) (A) (A) (A) (A) (A)
                 (A) (A) (A) (A) (A) (A) (A) (A) (A) (A) (A) (A)
                 (A) (A) (A) (A) (A) (A) (A) (A) (A) (A) (A) (A)
                 (A) (A) (A) (A) (A) (A) (A) (A) (A) (A) (A) (A)
                 (A) (A) (A) (A) (A) (A) (A) (A) (A) (A) (A) (A)
                 (A) (A) (A) (A) (A) (A) (A) (A) (A) (A) (A) (A)
                 (A) (A) (A) (A) (A) (A) (A) (A) (A) (A) (A) (A)
                 (A) (A) (A) (A) (A) (A) (A) (A) (A) (A) (A) (A)
                 (A) (A) (A) (A) (A) (A) (A) (A) (A) (A) (A) (A)
                 (A) (A) (A) (A) (A) (A) (A) (A) (A) (A) (A) (A)
                 (A) (A) (A) (A) (A) (A) (A) (A) (A) (A) (A) (A)
                 (A) (A) (A) (A) (A) (A) (A) (A) (A) (A) (A) (A)
                 (A) (A) (A) (A) (A) (A) (A) (A) (A) (A) (A) (A)
                 (A) (A) (A) (A) (A) (A)
 The electronic state is 1-A.
 Alpha  occ. eigenvalues --  -19.12546 -14.31659 -14.31367 -14.30819 -10.30570
 Alpha  occ. eigenvalues --  -10.20548 -10.19091  -1.03578  -0.92071  -0.87072
 Alpha  occ. eigenvalues --   -0.84203  -0.70143  -0.66365  -0.57364  -0.52369
 Alpha  occ. eigenvalues --   -0.51803  -0.47632  -0.46741  -0.44165  -0.43127
 Alpha  occ. eigenvalues --   -0.41685  -0.38421  -0.37894  -0.36173  -0.35183
 Alpha  occ. eigenvalues --   -0.27794  -0.26504  -0.24941  -0.21396
 Alpha virt. eigenvalues --    0.06154   0.09984   0.11549   0.13056   0.13915
 Alpha virt. eigenvalues --    0.14795   0.15758   0.17398   0.17890   0.18406
 Alpha virt. eigenvalues --    0.20682   0.22223   0.23862   0.25257   0.28034
 Alpha virt. eigenvalues --    0.30565   0.31336   0.45141   0.46214   0.47118
 Alpha virt. eigenvalues --    0.49525   0.50859   0.51835   0.56228   0.58677
 Alpha virt. eigenvalues --    0.60267   0.61912   0.64155   0.65287   0.66392
 Alpha virt. eigenvalues --    0.67756   0.68252   0.69961   0.71400   0.72591
 Alpha virt. eigenvalues --    0.73456   0.74178   0.75335   0.76484   0.77566
 Alpha virt. eigenvalues --    0.79853   0.81526   0.83541   0.85671   0.86377
 Alpha virt. eigenvalues --    0.87049   0.88334   0.90468   0.92779   0.94493
 Alpha virt. eigenvalues --    0.96439   0.98632   1.00828   1.03726   1.08883
 Alpha virt. eigenvalues --    1.10280   1.20087   1.21540   1.24627   1.26248
 Alpha virt. eigenvalues --    1.28168   1.33386   1.36832   1.38393   1.39823
 Alpha virt. eigenvalues --    1.43000   1.48320   1.50498   1.52464   1.55343
 Alpha virt. eigenvalues --    1.56580   1.57527   1.61651   1.61850   1.64674
 Alpha virt. eigenvalues --    1.67033   1.70365   1.72269   1.75726   1.79096
 Alpha virt. eigenvalues --    1.82447   1.84997   1.89466   1.91123   1.92552
 Alpha virt. eigenvalues --    1.96236   1.97656   1.99550   2.07264   2.12087
 Alpha virt. eigenvalues --    2.13966   2.16661   2.24828   2.26734   2.28365
 Alpha virt. eigenvalues --    2.29727   2.33262   2.37036   2.43634   2.44669
 Alpha virt. eigenvalues --    2.45203   2.47517   2.54920   2.57878   2.64487
 Alpha virt. eigenvalues --    2.67834   2.71594   2.72676   2.75881   2.77187
 Alpha virt. eigenvalues --    2.83119   2.84832   2.86717   2.88741   2.92045
 Alpha virt. eigenvalues --    2.93084   2.94219   2.94896   2.96206   2.98083
 Alpha virt. eigenvalues --    2.98769   3.03630   3.06870   3.09622   3.11283
 Alpha virt. eigenvalues --    3.17186   3.20205   3.21593   3.25035   3.27660
 Alpha virt. eigenvalues --    3.31995   3.37321   3.40649   3.46991   3.49773
 Alpha virt. eigenvalues --    3.52421   3.54751   3.56553   3.63089   3.64902
 Alpha virt. eigenvalues --    3.68714   3.73081   3.78279   3.81640   3.83305
 Alpha virt. eigenvalues --    3.90629   3.93351   3.96810   4.01421   4.06626
 Alpha virt. eigenvalues --    4.09544   4.12532   4.14178   4.16026   4.18513
 Alpha virt. eigenvalues --    4.20213   4.24700   4.28413   4.29874   4.32380
 Alpha virt. eigenvalues --    4.33392   4.35967   4.38268   4.40599   4.42542
 Alpha virt. eigenvalues --    4.45242   4.46848   4.48172   4.50945   4.52361
 Alpha virt. eigenvalues --    4.55332   4.57559   4.60667   4.62127   4.63185
 Alpha virt. eigenvalues --    4.67422   4.69732   4.72236   4.73833   4.76993
 Alpha virt. eigenvalues --    4.78992   4.80454   4.81499   4.83222   4.85631
 Alpha virt. eigenvalues --    4.86868   4.90523   4.92555   4.94940   4.99870
 Alpha virt. eigenvalues --    5.02752   5.04593   5.07951   5.12553   5.18012
 Alpha virt. eigenvalues --    5.23029   5.28165   5.33619   5.39665   5.42375
 Alpha virt. eigenvalues --    5.43440   5.49662   5.52867   5.58253   5.60404
 Alpha virt. eigenvalues --    5.63334   5.67569   5.72297   6.02355   6.06317
 Alpha virt. eigenvalues --    6.18585   7.17757   9.98063  11.12973  11.18595
 Alpha virt. eigenvalues --   11.46619  11.54829  11.67039  12.04158  13.50128
 Alpha virt. eigenvalues --   14.75647  16.02840
          Condensed to atoms (all electrons):
               1          2          3          4          5          6
     1  C    4.984834   0.383368  -0.075500  -0.053284  -0.000877  -0.004829
     2  N    0.383368   6.271605   0.397083   0.407328  -0.059997  -0.089651
     3  C   -0.075500   0.397083   4.962434  -0.046514  -0.003505   0.004447
     4  C   -0.053284   0.407328  -0.046514   4.433165   0.347774   0.393366
     5  N   -0.000877  -0.059997  -0.003505   0.347774   6.700391  -0.056571
     6  N   -0.004829  -0.089651   0.004447   0.393366  -0.056571   6.635509
     7  O    0.002541  -0.059846  -0.014507   0.372867  -0.062002  -0.040540
     8  H    0.368177  -0.027410   0.006437  -0.003492  -0.000835   0.007994
     9  H    0.344401  -0.044674  -0.005182  -0.003204   0.004706  -0.000704
    10  H    0.382324  -0.025109  -0.003216   0.002304   0.000104   0.000251
    11  H   -0.002894  -0.027851   0.375245   0.001714  -0.000053  -0.000133
    12  H    0.005952  -0.025738   0.368726   0.001045  -0.000047   0.000534
    13  H   -0.006115  -0.043911   0.354347  -0.001492   0.005061  -0.000173
    14  H    0.002277  -0.007746   0.000349  -0.040222   0.336246   0.003176
    15  H   -0.000203   0.005884  -0.000057  -0.030331   0.324957   0.005347
    16  H    0.001288   0.002280  -0.000166  -0.045361   0.007428   0.331964
    17  H    0.001762  -0.001011  -0.000137  -0.045950   0.004573   0.331264
    18  H   -0.000487   0.004503   0.001056  -0.056160   0.014008   0.003772
               7          8          9         10         11         12
     1  C    0.002541   0.368177   0.344401   0.382324  -0.002894   0.005952
     2  N   -0.059846  -0.027410  -0.044674  -0.025109  -0.027851  -0.025738
     3  C   -0.014507   0.006437  -0.005182  -0.003216   0.375245   0.368726
     4  C    0.372867  -0.003492  -0.003204   0.002304   0.001714   0.001045
     5  N   -0.062002  -0.000835   0.004706   0.000104  -0.000053  -0.000047
     6  N   -0.040540   0.007994  -0.000704   0.000251  -0.000133   0.000534
     7  O    7.897242   0.000135  -0.000134  -0.000042   0.000514   0.020725
     8  H    0.000135   0.606100  -0.047036  -0.024935   0.000088  -0.000243
     9  H   -0.000134  -0.047036   0.696337  -0.044754  -0.002018  -0.000299
    10  H   -0.000042  -0.024935  -0.044754   0.584537   0.005118   0.000057
    11  H    0.000514   0.000088  -0.002018   0.005118   0.612145  -0.024711
    12  H    0.020725  -0.000243  -0.000299   0.000057  -0.024711   0.554292
    13  H   -0.000612  -0.000315   0.012472  -0.002015  -0.047778  -0.037522
    14  H    0.003715  -0.000327   0.007439  -0.000272  -0.000166  -0.000152
    15  H    0.002044  -0.000121  -0.000594   0.000019   0.000010  -0.000024
    16  H    0.002703   0.000746   0.000214  -0.000047  -0.000038  -0.000033
    17  H    0.004240   0.005652   0.000864  -0.000083  -0.000016  -0.000038
    18  H    0.302832  -0.000006   0.000025   0.000001   0.000047  -0.001113
              13         14         15         16         17         18
     1  C   -0.006115   0.002277  -0.000203   0.001288   0.001762  -0.000487
     2  N   -0.043911  -0.007746   0.005884   0.002280  -0.001011   0.004503
     3  C    0.354347   0.000349  -0.000057  -0.000166  -0.000137   0.001056
     4  C   -0.001492  -0.040222  -0.030331  -0.045361  -0.045950  -0.056160
     5  N    0.005061   0.336246   0.324957   0.007428   0.004573   0.014008
     6  N   -0.000173   0.003176   0.005347   0.331964   0.331264   0.003772
     7  O   -0.000612   0.003715   0.002044   0.002703   0.004240   0.302832
     8  H   -0.000315  -0.000327  -0.000121   0.000746   0.005652  -0.000006
     9  H    0.012472   0.007439  -0.000594   0.000214   0.000864   0.000025
    10  H   -0.002015  -0.000272   0.000019  -0.000047  -0.000083   0.000001
    11  H   -0.047778  -0.000166   0.000010  -0.000038  -0.000016   0.000047
    12  H   -0.037522  -0.000152  -0.000024  -0.000033  -0.000038  -0.001113
    13  H    0.680346   0.001843  -0.000223   0.000025  -0.000003   0.000220
    14  H    0.001843   0.487502  -0.027596  -0.000266   0.000268  -0.000027
    15  H   -0.000223  -0.027596   0.484684  -0.000501   0.000204   0.000246
    16  H    0.000025  -0.000266  -0.000501   0.490426  -0.026174  -0.000761
    17  H   -0.000003   0.000268   0.000204  -0.026174   0.505850  -0.000472
    18  H    0.000220  -0.000027   0.000246  -0.000761  -0.000472   0.445521
 Mulliken charges:
               1
     1  C   -0.332735
     2  N   -0.059106
     3  C   -0.321339
     4  C    0.366447
     5  N   -0.561361
     6  N   -0.525024
     7  O   -0.431875
     8  H    0.109390
     9  H    0.082142
    10  H    0.125756
    11  H    0.110778
    12  H    0.138590
    13  H    0.085844
    14  H    0.233960
    15  H    0.236256
    16  H    0.236274
    17  H    0.219206
    18  H    0.286796
 Sum of Mulliken charges =  -0.00000
 Mulliken charges with hydrogens summed into heavy atoms:
               1
     1  C   -0.015448
     2  N   -0.059106
     3  C    0.013874
     4  C    0.366447
     5  N   -0.091145
     6  N   -0.069543
     7  O   -0.145079
 Electronic spatial extent (au):  <R**2>=            758.0120
 Charge=             -0.0000 electrons
 Dipole moment (field-independent basis, Debye):
    X=              0.9654    Y=              1.5817    Z=              1.4180  Tot=              2.3333
 Quadrupole moment (field-independent basis, Debye-Ang):
   XX=            -44.4346   YY=            -40.7843   ZZ=            -43.6611
   XY=              0.4517   XZ=             -1.2271   YZ=             -0.5335
 Traceless Quadrupole moment (field-independent basis, Debye-Ang):
   XX=             -1.4746   YY=              2.1757   ZZ=             -0.7011
   XY=              0.4517   XZ=             -1.2271   YZ=             -0.5335
 Octapole moment (field-independent basis, Debye-Ang**2):
  XXX=             -1.1576  YYY=             -1.0630  ZZZ=              0.1356  XYY=             -6.2031
  XXY=             -5.6036  XXZ=              2.2754  XZZ=             -5.0008  YZZ=              7.2636
  YYZ=             -1.3401  XYZ=              1.0637
 Hexadecapole moment (field-independent basis, Debye-Ang**3):
 XXXX=           -471.7356 YYYY=           -287.5319 ZZZZ=           -169.9617 XXXY=             18.9491
 XXXZ=            -16.8597 YYYX=              7.3963 YYYZ=             -2.7825 ZZZX=              6.7820
 ZZZY=              4.4307 XXYY=           -126.4204 XXZZ=           -104.0164 YYZZ=            -85.0839
 XXYZ=             -0.0688 YYXZ=             -2.5610 ZZXY=             -8.6966
 N-N= 3.600514191581D+02 E-N=-1.561567287067D+03  KE= 3.578271708038D+02
 No NMR shielding tensors so no spin-rotation constants.
 Leave Link  601 at Thu Sep  1 13:24:37 2022, MaxMem= 24159191040 cpu:        13.2
 (Enter /public/home/users/caep010/software/Gaussian09/g09/l701.exe)
 Compute integral first derivatives.
 ... and contract with generalized density number  0.
 Leave Link  701 at Thu Sep  1 13:24:38 2022, MaxMem= 24159191040 cpu:        15.2
 (Enter /public/home/users/caep010/software/Gaussian09/g09/l702.exe)
 L702 exits ... SP integral derivatives will be done elsewhere.
 Leave Link  702 at Thu Sep  1 13:24:38 2022, MaxMem= 24159191040 cpu:         0.7
 (Enter /public/home/users/caep010/software/Gaussian09/g09/l703.exe)
 Compute integral first derivatives, UseDBF=F ICtDFT=           0.
 Integral derivatives from FoFJK, PRISM(SPDF).
 Calling FoFJK, ICntrl=      2127 FMM=F ISym2X=0 I1Cent= 0 IOpClX= 0 NMat=1 NMatS=1 NMatT=0.
 FoFJK:  IHMeth= 1 ICntrl=    2127 DoSepK=F KAlg= 0 I1Cent=   0 FoldK=F
 IRaf=         0 NMat=   1 IRICut=       1 DoRegI=T DoRafI=F ISym2E= 0.
 FoFCou: FMM=F IPFlag=           0 FMFlag=      100000 FMFlg1=         800
         NFxFlg=           0 DoJE=F BraDBF=F KetDBF=F FulRan=T
         wScrn=  0.000000 ICntrl=    2127 IOpCl=  0 I1Cent=           0 NGrid=           0
         NMat0=    1 NMatS0=      1 NMatT0=    0 NMatD0=    1 NMtDS0=    0 NMtDT0=    0
 Symmetry not used in FoFCou.
 Leave Link  703 at Thu Sep  1 13:24:41 2022, MaxMem= 24159191040 cpu:        74.6
 (Enter /public/home/users/caep010/software/Gaussian09/g09/l716.exe)
 Dipole        = 3.79832416D-01 6.22288733D-01 5.57873087D-01
 ***** Axes restored to original set *****
 -------------------------------------------------------------------
 Center     Atomic                   Forces (Hartrees/Bohr)
 Number     Number              X              Y              Z
 -------------------------------------------------------------------
      1        6           0.000005538   -0.000050343   -0.000019817
      2        7           0.000013168    0.000062507   -0.000124508
      3        6           0.000008910   -0.000007910   -0.000031791
      4        6           0.000285587    0.000738880   -0.000413367
      5        7           0.000156047    0.000132842    0.000022455
      6        7           0.000100677   -0.000046231   -0.000085790
      7        8           0.007291706    0.014069136   -0.000372079
      8        1          -0.000015876   -0.000006045   -0.000002140
      9        1           0.000021389    0.000005041   -0.000004797
     10        1          -0.000009511   -0.000003822    0.000003823
     11        1          -0.000007796   -0.000009180    0.000008350
     12        1           0.000045947   -0.000009322    0.000010500
     13        1          -0.000002965   -0.000006083    0.000021652
     14        1          -0.000155132    0.000091674    0.000414515
     15        1           0.000138777   -0.000077947    0.000085823
     16        1           0.000045866    0.000036141    0.000021890
     17        1          -0.000020153   -0.000032147   -0.000004503
     18        1          -0.007902178   -0.014887191    0.000469785
 -------------------------------------------------------------------
 Cartesian Forces:  Max     0.014887191 RMS     0.003152518
 Leave Link  716 at Thu Sep  1 13:24:41 2022, MaxMem= 24159191040 cpu:         0.8
 (Enter /public/home/users/caep010/software/Gaussian09/g09/l103.exe)

 GradGradGradGradGradGradGradGradGradGradGradGradGradGradGradGradGradGrad
 Berny optimization.
 FormGI is forming the generalized inverse of G from B-inverse, IUseBI=4.
 Internal  Forces:  Max     0.016849189 RMS     0.001917858
 Search for a local minimum.
 Step number   1 out of a maximum of   88
 All quantities printed in internal units (Hartrees-Bohrs-Radians)
 RMS Force = .19179D-02 SwitMx=.10000D-02 MixMth= 1
 Mixed Optimization -- RFO/linear search
 Second derivative matrix not updated -- first step.
 ITU=  0
     Eigenvalues ---    0.00774   0.00854   0.00912   0.00961   0.01020
     Eigenvalues ---    0.01541   0.02099   0.04086   0.04349   0.05837
     Eigenvalues ---    0.06954   0.07123   0.07591   0.07639   0.08228
     Eigenvalues ---    0.08762   0.16000   0.16000   0.16000   0.16000
     Eigenvalues ---    0.16000   0.16000   0.16000   0.16000   0.16000
     Eigenvalues ---    0.16000   0.16000   0.17833   0.18454   0.18580
     Eigenvalues ---    0.19303   0.32722   0.33073   0.34209   0.34309
     Eigenvalues ---    0.34524   0.34985   0.35818   0.36553   0.37097
     Eigenvalues ---    0.37563   0.38142   0.43782   0.45008   0.45303
     Eigenvalues ---    0.45332   0.45571   0.51295
 RFO step:  Lambda=-5.72527651D-04 EMin= 7.74404966D-03
 Linear search not attempted -- first point.
 Iteration  1 RMS(Cart)=  0.00474451 RMS(Int)=  0.00002106
 Iteration  2 RMS(Cart)=  0.00002644 RMS(Int)=  0.00000028
 Iteration  3 RMS(Cart)=  0.00000000 RMS(Int)=  0.00000028
 ITry= 1 IFail=0 DXMaxC= 3.48D-02 DCOld= 1.00D+10 DXMaxT= 3.00D-01 DXLimC= 3.00D+00 Rises=F
 Variable       Old X    -DE/DX   Delta X   Delta X   Delta X     New X
                                 (Linear)    (Quad)   (Total)
    R1        2.74159   0.00001   0.00000   0.00002   0.00002   2.74161
    R2        2.06455  -0.00001   0.00000  -0.00002  -0.00002   2.06453
    R3        2.09543   0.00001   0.00000   0.00003   0.00003   2.09546
    R4        2.06812   0.00001   0.00000   0.00003   0.00003   2.06815
    R5        2.75701  -0.00005   0.00000  -0.00014  -0.00014   2.75686
    R6        2.77667  -0.00009   0.00000  -0.00026  -0.00026   2.77641
    R7        2.06978   0.00001   0.00000   0.00003   0.00003   2.06981
    R8        2.05700  -0.00000   0.00000  -0.00001  -0.00001   2.05698
    R9        2.08923   0.00001   0.00000   0.00002   0.00002   2.08925
   R10        2.76526   0.00046   0.00000   0.00126   0.00126   2.76652
   R11        2.75006   0.00012   0.00000   0.00031   0.00031   2.75037
   R12        2.66716  -0.00034   0.00000  -0.00077  -0.00077   2.66639
   R13        1.91318   0.00044   0.00000   0.00097   0.00097   1.91415
   R14        1.91592   0.00016   0.00000   0.00035   0.00035   1.91627
   R15        1.91966  -0.00006   0.00000  -0.00013  -0.00013   1.91954
   R16        1.91626   0.00002   0.00000   0.00004   0.00004   1.91630
   R17        1.85281  -0.01685   0.00000  -0.03281  -0.03281   1.82000
    A1        1.94027   0.00002   0.00000   0.00012   0.00012   1.94039
    A2        1.99730  -0.00003   0.00000  -0.00019  -0.00019   1.99711
    A3        1.89971   0.00001   0.00000   0.00005   0.00005   1.89976
    A4        1.88635   0.00000   0.00000   0.00000   0.00000   1.88635
    A5        1.87095  -0.00001   0.00000  -0.00003  -0.00003   1.87092
    A6        1.86380   0.00001   0.00000   0.00005   0.00005   1.86384
    A7        1.94520   0.00004   0.00000   0.00025   0.00025   1.94545
    A8        2.02583   0.00004   0.00000   0.00025   0.00025   2.02609
    A9        1.99797  -0.00007   0.00000  -0.00034  -0.00034   1.99763
   A10        1.90226   0.00001   0.00000   0.00008   0.00008   1.90234
   A11        1.90695  -0.00006   0.00000  -0.00037  -0.00037   1.90658
   A12        1.98327  -0.00000   0.00000  -0.00003  -0.00003   1.98325
   A13        1.89726   0.00003   0.00000   0.00026   0.00026   1.89751
   A14        1.87571   0.00000   0.00000   0.00004   0.00004   1.87575
   A15        1.89661   0.00002   0.00000   0.00005   0.00005   1.89666
   A16        1.96651  -0.00004   0.00000  -0.00013  -0.00013   1.96637
   A17        1.98264   0.00015   0.00000   0.00012   0.00012   1.98276
   A18        1.85051  -0.00027   0.00000  -0.00205  -0.00205   1.84846
   A19        1.90669  -0.00013   0.00000  -0.00027  -0.00027   1.90642
   A20        1.89942   0.00035   0.00000   0.00292   0.00292   1.90234
   A21        1.85213  -0.00006   0.00000  -0.00048  -0.00048   1.85165
   A22        1.95443   0.00011   0.00000   0.00068   0.00068   1.95511
   A23        1.90951  -0.00002   0.00000  -0.00016  -0.00016   1.90935
   A24        1.89642  -0.00005   0.00000  -0.00036  -0.00036   1.89606
   A25        1.89773   0.00003   0.00000   0.00018   0.00018   1.89791
   A26        1.94492   0.00001   0.00000   0.00004   0.00004   1.94496
   A27        1.88586  -0.00002   0.00000  -0.00012  -0.00012   1.88575
   A28        1.83627  -0.00139   0.00000  -0.00864  -0.00864   1.82764
    D1        3.00509   0.00001   0.00000  -0.00101  -0.00101   3.00408
    D2       -0.94882  -0.00002   0.00000  -0.00100  -0.00100  -0.94982
    D3       -1.13506   0.00000   0.00000  -0.00105  -0.00105  -1.13612
    D4        1.19422  -0.00003   0.00000  -0.00104  -0.00104   1.19317
    D5        0.94817   0.00000   0.00000  -0.00108  -0.00108   0.94710
    D6       -3.00573  -0.00003   0.00000  -0.00107  -0.00107  -3.00680
    D7       -1.04914   0.00000   0.00000  -0.00102  -0.00102  -1.05016
    D8       -3.12005  -0.00001   0.00000  -0.00116  -0.00116  -3.12120
    D9        1.04198   0.00001   0.00000  -0.00093  -0.00093   1.04105
   D10        2.89107  -0.00002   0.00000  -0.00131  -0.00131   2.88976
   D11        0.82017  -0.00003   0.00000  -0.00145  -0.00145   0.81871
   D12       -1.30099  -0.00002   0.00000  -0.00123  -0.00123  -1.30222
   D13       -1.20335   0.00009   0.00000  -0.00025  -0.00025  -1.20360
   D14        0.97674   0.00000   0.00000  -0.00062  -0.00062   0.97612
   D15        3.00392  -0.00015   0.00000  -0.00243  -0.00243   3.00149
   D16        1.10174   0.00011   0.00000   0.00004   0.00004   1.10179
   D17       -3.00135   0.00003   0.00000  -0.00033  -0.00033  -3.00168
   D18       -0.97417  -0.00013   0.00000  -0.00214  -0.00214  -0.97631
   D19        0.40144   0.00003   0.00000  -0.00338  -0.00338   0.39806
   D20        2.50505   0.00003   0.00000  -0.00351  -0.00351   2.50154
   D21       -1.81955  -0.00003   0.00000  -0.00323  -0.00323  -1.82278
   D22        0.28405  -0.00004   0.00000  -0.00336  -0.00336   0.28070
   D23        2.44862  -0.00009   0.00000  -0.00412  -0.00412   2.44451
   D24       -1.73096  -0.00010   0.00000  -0.00424  -0.00424  -1.73520
   D25        1.06591  -0.00006   0.00000   0.00069   0.00069   1.06660
   D26       -1.01087  -0.00006   0.00000   0.00070   0.00070  -1.01017
   D27       -3.00543  -0.00010   0.00000   0.00039   0.00039  -3.00504
   D28        1.20098  -0.00010   0.00000   0.00040   0.00040   1.20137
   D29       -0.96032   0.00021   0.00000   0.00342   0.00342  -0.95690
   D30       -3.03709   0.00021   0.00000   0.00343   0.00343  -3.03366
   D31        2.21535   0.00009   0.00000   0.00621   0.00621   2.22155
   D32        0.09574   0.00009   0.00000   0.00595   0.00596   0.10169
   D33       -1.95424   0.00010   0.00000   0.00506   0.00506  -1.94918
         Item               Value     Threshold  Converged?
 Maximum Force            0.016849     0.000450     NO 
 RMS     Force            0.001918     0.000300     NO 
 Maximum Displacement     0.034843     0.001800     NO 
 RMS     Displacement     0.004744     0.001200     NO 
 Predicted change in Energy=-2.866647D-04
 Lowest energy point so far.  Saving SCF results.
 GradGradGradGradGradGradGradGradGradGradGradGradGradGradGradGradGradGrad

 Leave Link  103 at Thu Sep  1 13:24:41 2022, MaxMem= 24159191040 cpu:         3.0
 (Enter /public/home/users/caep010/software/Gaussian09/g09/l202.exe)
                          Input orientation:                          
 ---------------------------------------------------------------------
 Center     Atomic      Atomic             Coordinates (Angstroms)
 Number     Number       Type             X           Y           Z
 ---------------------------------------------------------------------
      1          6           0       -0.806885   -0.964571    1.115441
      2          7           0       -0.676836   -0.263123   -0.147838
      3          6           0       -1.599389    0.864010   -0.230077
      4          6           0        0.694156    0.040218   -0.580211
      5          7           0        1.341108    1.048299    0.261492
      6          7           0        1.550864   -1.133144   -0.667154
      7          8           0        0.583218    0.541710   -1.894403
      8          1           0       -0.217849   -1.884674    1.118418
      9          1           0       -0.516730   -0.367332    2.003532
     10          1           0       -1.854076   -1.250338    1.255013
     11          1           0       -2.625723    0.491870   -0.141608
     12          1           0       -1.486264    1.350267   -1.197346
     13          1           0       -1.449981    1.617905    0.564679
     14          1           0        0.920078    1.102103    1.181196
     15          1           0        2.323089    0.818623    0.367574
     16          1           0        1.159877   -1.772658   -1.352682
     17          1           0        1.604760   -1.619337    0.221118
     18          1           0        1.056584    1.380273   -1.877044
 ---------------------------------------------------------------------
                    Distance matrix (angstroms):
                    1          2          3          4          5
     1  C    0.000000
     2  N    1.450798   0.000000
     3  C    2.404619   1.458868   0.000000
     4  C    2.477491   1.469212   2.462027   0.000000
     5  N    3.065086   2.441205   2.986993   1.463981   0.000000
     6  N    2.960581   2.447299   3.755497   1.455433   2.380142
     7  O    3.641488   2.299127   2.763627   1.410993   2.340708
     8  H    1.092503   2.107962   3.358922   2.724391   3.430307
     9  H    1.108869   2.159835   2.770806   2.882373   2.913809
    10  H    1.094418   2.080499   2.596310   3.395154   4.059559
    11  H    2.647558   2.090027   1.095297   3.379047   4.025898
    12  H    3.342008   2.087981   1.088509   2.617502   3.195845
    13  H    2.717737   2.154924   1.105585   2.897791   2.864708
    14  H    2.694043   2.486023   2.897602   2.069105   1.012925
    15  H    3.679106   3.230383   3.968007   2.039027   1.014046
    16  H    3.257728   2.665307   3.978167   2.024877   3.255182
    17  H    2.654160   2.679763   4.078868   2.055590   2.680938
    18  H    4.233885   2.948839   3.167526   1.899705   2.182773
                    6          7          8          9         10
     6  N    0.000000
     7  O    2.290767   0.000000
     8  H    2.623244   3.950461   0.000000
     9  H    3.463232   4.150921   1.781876   0.000000
    10  H    3.911787   4.366997   1.760193   1.768749   0.000000
    11  H    4.512288   3.656785   3.610192   3.128531   2.362473
    12  H    3.958860   2.328607   4.175702   3.759756   3.593396
    13  H    4.253322   3.367370   3.754043   2.623437   2.977695
    14  H    2.968268   3.144333   3.196820   2.213571   3.638043
    15  H    2.340168   2.867119   3.785227   3.485315   4.745192
    16  H    1.015775   2.445874   2.831433   4.006261   4.019553
    17  H    1.014060   3.192038   2.048769   3.040598   3.628863
    18  H    2.832915   0.963102   4.610516   4.537435   5.020143
                   11         12         13         14         15
    11  H    0.000000
    12  H    1.774766   0.000000
    13  H    1.774588   1.782605   0.000000
    14  H    3.833393   3.392570   2.502664   0.000000
    15  H    4.985657   4.152444   3.861833   1.646445   0.000000
    16  H    4.574446   4.096199   4.688662   3.839570   3.320705
    17  H    4.741915   4.514977   4.464215   2.965936   2.545799
    18  H    4.166580   2.632293   3.507328   3.073898   2.637763
                   16         17         18
    16  H    0.000000
    17  H    1.642643   0.000000
    18  H    3.197906   3.701411   0.000000
 Stoichiometry    C3H11N3O
 Framework group  C1[X(C3H11N3O)]
 Deg. of freedom    48
 Full point group                 C1      NOp   1
 RotChk:  IX=0 Diff= 2.76D-03
 Largest Abelian subgroup         C1      NOp   1
 Largest concise Abelian subgroup C1      NOp   1
                         Standard orientation:                         
 ---------------------------------------------------------------------
 Center     Atomic      Atomic             Coordinates (Angstroms)
 Number     Number       Type             X           Y           Z
 ---------------------------------------------------------------------
      1          6           0        1.504804    1.234177   -0.007413
      2          7           0        0.792840    0.029513   -0.390438
      3          6           0        1.550121   -1.169661   -0.048674
      4          6           0       -0.629157   -0.024340   -0.024916
      5          7           0       -0.836383   -0.135467    1.420057
      6          7           0       -1.404994    1.096145   -0.535674
      7          8           0       -1.146591   -1.176970   -0.653094
      8          1           0        1.002638    2.127006   -0.387211
      9          1           0        1.644079    1.356479    1.085855
     10          1           0        2.504229    1.210926   -0.452789
     11          1           0        2.509291   -1.148270   -0.577078
     12          1           0        0.994017   -2.048649   -0.369579
     13          1           0        1.768026   -1.263458    1.031158
     14          1           0       -0.040208    0.205586    1.945228
     15          1           0       -1.654061    0.402398    1.685376
     16          1           0       -1.360599    1.088257   -1.550448
     17          1           0       -1.033486    1.982403   -0.211875
     18          1           0       -1.576045   -1.669323    0.054524
 ---------------------------------------------------------------------
 Rotational constants (GHZ):      3.3568745      2.4063709      1.9918780
 Leave Link  202 at Thu Sep  1 13:24:41 2022, MaxMem= 24159191040 cpu:         0.2
 (Enter /public/home/users/caep010/software/Gaussian09/g09/l301.exe)
 Standard basis: GTBas3 (6D, 7F)
 Ernie: Thresh=  0.10000D-02 Tol=  0.10000D-05 Strict=F.
 There are   272 symmetry adapted cartesian basis functions of A   symmetry.
 There are   251 symmetry adapted basis functions of A   symmetry.
   251 basis functions,   385 primitive gaussians,   272 cartesian basis functions
    29 alpha electrons       29 beta electrons
       nuclear repulsion energy       360.1796026052 Hartrees.
 IExCor=  402 DFT=T Ex+Corr=B3LYP ExCW=0 ScaHFX=  0.200000
 ScaDFX=  0.800000  0.720000  1.000000  0.810000 ScalE2=  1.000000  1.000000
 IRadAn=      0 IRanWt=     -1 IRanGd=            0 ICorTp=0 IEmpDi=  4
 NAtoms=   18 NActive=   18 NUniq=   18 SFac= 1.00D+00 NAtFMM=   60 NAOKFM=F Big=F
 Integral buffers will be    131072 words long.
 Raffenetti 2 integral format.
 Two-electron integral symmetry is turned on.
 Leave Link  301 at Thu Sep  1 13:24:41 2022, MaxMem= 24159191040 cpu:         1.7
 (Enter /public/home/users/caep010/software/Gaussian09/g09/l302.exe)
 NPDir=0 NMtPBC=     1 NCelOv=     1 NCel=       1 NClECP=     1 NCelD=      1
         NCelK=      1 NCelE2=     1 NClLst=     1 CellRange=     0.0.
 One-electron integrals computed using PRISM.
 NBasis=   251 RedAO= T EigKep=  3.11D-04  NBF=   251
 NBsUse=   251 1.00D-06 EigRej= -1.00D+00 NBFU=   251
 Precomputing XC quadrature grid using
 IXCGrd= 4 IRadAn=           0 IRanWt=          -1 IRanGd=           0 AccXCQ= 0.00D+00.
 Generated NRdTot=       0 NPtTot=           0 NUsed=           0 NTot=          32
 NSgBfM=   272   272   272   272   272 MxSgAt=    18 MxSgA2=    18.
 Leave Link  302 at Thu Sep  1 13:24:42 2022, MaxMem= 24159191040 cpu:        15.8
 (Enter /public/home/users/caep010/software/Gaussian09/g09/l303.exe)
 DipDrv:  MaxL=1.
 Leave Link  303 at Thu Sep  1 13:24:42 2022, MaxMem= 24159191040 cpu:         0.8
 (Enter /public/home/users/caep010/software/Gaussian09/g09/l401.exe)
 Initial guess from the checkpoint file:  "G4.Frag_1089.chk"
 B after Tr=     0.000000   -0.000000   -0.000000
         Rot=    0.999999    0.000460   -0.000151   -0.001014 Ang=   0.13 deg.
 Guess basis will be translated and rotated to current coordinates.
 JPrj=2 DoOrth=T DoCkMO=T.
 Generating alternative initial guess.
 ExpMin= 1.61D-01 ExpMax= 5.48D+03 ExpMxC= 8.25D+02 IAcc=1 IRadAn=         1 AccDes= 0.00D+00
 Harris functional with IExCor=  402 and IRadAn=       1 diagonalized for initial guess.
 HarFok:  IExCor=  402 AccDes= 0.00D+00 IRadAn=         1 IDoV= 1 UseB2=F ITyADJ=14
 ICtDFT=  3500011 ScaDFX=  1.000000  1.000000  1.000000  1.000000
 FoFCou: FMM=F IPFlag=           0 FMFlag=      100000 FMFlg1=           0
         NFxFlg=           0 DoJE=T BraDBF=F KetDBF=T FulRan=T
         wScrn=  0.000000 ICntrl=     500 IOpCl=  0 I1Cent=   200000004 NGrid=           0
         NMat0=    1 NMatS0=      1 NMatT0=    0 NMatD0=    1 NMtDS0=    0 NMtDT0=    0
 Petite list used in FoFCou.
 Harris En= -360.453403383757    
 Leave Link  401 at Thu Sep  1 13:24:43 2022, MaxMem= 24159191040 cpu:        17.9
 (Enter /public/home/users/caep010/software/Gaussian09/g09/l502.exe)
 Closed shell SCF:
 Using DIIS extrapolation, IDIIS=  1040.
 Integral symmetry usage will be decided dynamically.
 Keep R1 ints in memory in canonical form, NReq=510542023.
 IVT=      251200 IEndB=      251200 NGot= 24159191040 MDV= 23658822090
 LenX= 23658822090 LenY= 23658747665
 Requested convergence on RMS density matrix=1.00D-08 within 128 cycles.
 Requested convergence on MAX density matrix=1.00D-06.
 Requested convergence on             energy=1.00D-06.
 No special actions if energy rises.
 FoFCou: FMM=F IPFlag=           0 FMFlag=           0 FMFlg1=           0
         NFxFlg=           0 DoJE=F BraDBF=F KetDBF=F FulRan=T
         wScrn=  0.000000 ICntrl=     600 IOpCl=  0 I1Cent=           0 NGrid=           0
         NMat0=    1 NMatS0=  31626 NMatT0=    0 NMatD0=    1 NMtDS0=    0 NMtDT0=    0
 Symmetry not used in FoFCou.
 Integral accuracy reduced to 1.0D-05 until final iterations.

 Cycle   1  Pass 0  IDiag  1:
 E= -360.430210151157    
 DIIS: error= 5.40D-04 at cycle   1 NSaved=   1.
 NSaved= 1 IEnMin= 1 EnMin= -360.430210151157     IErMin= 1 ErrMin= 5.40D-04
 ErrMax= 5.40D-04  0.00D+00 EMaxC= 1.00D-01 BMatC= 1.04D-04 BMatP= 1.04D-04
 IDIUse=3 WtCom= 9.95D-01 WtEn= 5.40D-03
 Coeff-Com:  0.100D+01
 Coeff-En:   0.100D+01
 Coeff:      0.100D+01
 Gap=     0.935 Goal=   None    Shift=    0.000
 RMSDP=5.48D-05 MaxDP=3.21D-03              OVMax= 2.63D-03

 Cycle   2  Pass 0  IDiag  1:
 E= -360.430288329956     Delta-E=       -0.000078178799 Rises=F Damp=F
 DIIS: error= 2.90D-04 at cycle   2 NSaved=   2.
 NSaved= 2 IEnMin= 2 EnMin= -360.430288329956     IErMin= 2 ErrMin= 2.90D-04
 ErrMax= 2.90D-04  0.00D+00 EMaxC= 1.00D-01 BMatC= 1.99D-05 BMatP= 1.04D-04
 IDIUse=3 WtCom= 9.97D-01 WtEn= 2.90D-03
 Coeff-Com:  0.223D+00 0.777D+00
 Coeff-En:   0.000D+00 0.100D+01
 Coeff:      0.222D+00 0.778D+00
 Gap=     0.276 Goal=   None    Shift=    0.000
 RMSDP=2.81D-05 MaxDP=1.68D-03 DE=-7.82D-05 OVMax= 1.83D-03

 Cycle   3  Pass 0  IDiag  1:
 E= -360.430290148306     Delta-E=       -0.000001818350 Rises=F Damp=F
 DIIS: error= 2.79D-04 at cycle   3 NSaved=   3.
 NSaved= 3 IEnMin= 3 EnMin= -360.430290148306     IErMin= 3 ErrMin= 2.79D-04
 ErrMax= 2.79D-04  0.00D+00 EMaxC= 1.00D-01 BMatC= 1.74D-05 BMatP= 1.99D-05
 IDIUse=3 WtCom= 9.97D-01 WtEn= 2.79D-03
 Coeff-Com:  0.155D-01 0.481D+00 0.504D+00
 Coeff-En:   0.000D+00 0.470D+00 0.530D+00
 Coeff:      0.155D-01 0.481D+00 0.504D+00
 Gap=     0.276 Goal=   None    Shift=    0.000
 RMSDP=1.47D-05 MaxDP=8.86D-04 DE=-1.82D-06 OVMax= 8.88D-04

 Cycle   4  Pass 0  IDiag  1:
 E= -360.430302146947     Delta-E=       -0.000011998640 Rises=F Damp=F
 DIIS: error= 2.55D-05 at cycle   4 NSaved=   4.
 NSaved= 4 IEnMin= 4 EnMin= -360.430302146947     IErMin= 4 ErrMin= 2.55D-05
 ErrMax= 2.55D-05  0.00D+00 EMaxC= 1.00D-01 BMatC= 1.96D-07 BMatP= 1.74D-05
 IDIUse=1 WtCom= 1.00D+00 WtEn= 0.00D+00
 Coeff-Com: -0.624D-02 0.125D+00 0.176D+00 0.706D+00
 Coeff:     -0.624D-02 0.125D+00 0.176D+00 0.706D+00
 Gap=     0.276 Goal=   None    Shift=    0.000
 RMSDP=1.90D-06 MaxDP=5.54D-05 DE=-1.20D-05 OVMax= 7.30D-05

 Initial convergence to 1.0D-05 achieved.  Increase integral accuracy.
 Cycle   5  Pass 1  IDiag  1:
 E= -360.430265755335     Delta-E=        0.000036391612 Rises=F Damp=F
 DIIS: error= 1.72D-05 at cycle   1 NSaved=   1.
 NSaved= 1 IEnMin= 1 EnMin= -360.430265755335     IErMin= 1 ErrMin= 1.72D-05
 ErrMax= 1.72D-05  0.00D+00 EMaxC= 1.00D-01 BMatC= 1.57D-07 BMatP= 1.57D-07
 IDIUse=1 WtCom= 1.00D+00 WtEn= 0.00D+00
 Coeff-Com:  0.100D+01
 Coeff:      0.100D+01
 Gap=     0.276 Goal=   None    Shift=    0.000
 RMSDP=1.90D-06 MaxDP=5.54D-05 DE= 3.64D-05 OVMax= 8.66D-05

 Cycle   6  Pass 1  IDiag  1:
 E= -360.430265874255     Delta-E=       -0.000000118921 Rises=F Damp=F
 DIIS: error= 8.76D-06 at cycle   2 NSaved=   2.
 NSaved= 2 IEnMin= 2 EnMin= -360.430265874255     IErMin= 2 ErrMin= 8.76D-06
 ErrMax= 8.76D-06  0.00D+00 EMaxC= 1.00D-01 BMatC= 3.32D-08 BMatP= 1.57D-07
 IDIUse=1 WtCom= 1.00D+00 WtEn= 0.00D+00
 Coeff-Com:  0.226D+00 0.774D+00
 Coeff:      0.226D+00 0.774D+00
 Gap=     0.276 Goal=   None    Shift=    0.000
 RMSDP=1.36D-06 MaxDP=5.69D-05 DE=-1.19D-07 OVMax= 5.52D-05

 Cycle   7  Pass 1  IDiag  1:
 E= -360.430265883642     Delta-E=       -0.000000009386 Rises=F Damp=F
 DIIS: error= 7.67D-06 at cycle   3 NSaved=   3.
 NSaved= 3 IEnMin= 3 EnMin= -360.430265883642     IErMin= 3 ErrMin= 7.67D-06
 ErrMax= 7.67D-06  0.00D+00 EMaxC= 1.00D-01 BMatC= 2.40D-08 BMatP= 3.32D-08
 IDIUse=1 WtCom= 1.00D+00 WtEn= 0.00D+00
 Coeff-Com: -0.203D-01 0.461D+00 0.559D+00
 Coeff:     -0.203D-01 0.461D+00 0.559D+00
 Gap=     0.276 Goal=   None    Shift=    0.000
 RMSDP=6.06D-07 MaxDP=2.77D-05 DE=-9.39D-09 OVMax= 2.67D-05

 Cycle   8  Pass 1  IDiag  1:
 E= -360.430265904447     Delta-E=       -0.000000020806 Rises=F Damp=F
 DIIS: error= 1.17D-06 at cycle   4 NSaved=   4.
 NSaved= 4 IEnMin= 4 EnMin= -360.430265904447     IErMin= 4 ErrMin= 1.17D-06
 ErrMax= 1.17D-06  0.00D+00 EMaxC= 1.00D-01 BMatC= 3.71D-10 BMatP= 2.40D-08
 IDIUse=1 WtCom= 1.00D+00 WtEn= 0.00D+00
 Coeff-Com: -0.137D-01 0.228D+00 0.286D+00 0.499D+00
 Coeff:     -0.137D-01 0.228D+00 0.286D+00 0.499D+00
 Gap=     0.276 Goal=   None    Shift=    0.000
 RMSDP=7.54D-08 MaxDP=4.15D-06 DE=-2.08D-08 OVMax= 4.30D-06

 Cycle   9  Pass 1  IDiag  1:
 E= -360.430265904694     Delta-E=       -0.000000000247 Rises=F Damp=F
 DIIS: error= 2.66D-07 at cycle   5 NSaved=   5.
 NSaved= 5 IEnMin= 5 EnMin= -360.430265904694     IErMin= 5 ErrMin= 2.66D-07
 ErrMax= 2.66D-07  0.00D+00 EMaxC= 1.00D-01 BMatC= 1.97D-11 BMatP= 3.71D-10
 IDIUse=1 WtCom= 1.00D+00 WtEn= 0.00D+00
 Coeff-Com: -0.412D-02 0.589D-01 0.741D-01 0.221D+00 0.651D+00
 Coeff:     -0.412D-02 0.589D-01 0.741D-01 0.221D+00 0.651D+00
 Gap=     0.276 Goal=   None    Shift=    0.000
 RMSDP=2.00D-08 MaxDP=9.61D-07 DE=-2.47D-10 OVMax= 1.05D-06

 Cycle  10  Pass 1  IDiag  1:
 E= -360.430265904712     Delta-E=       -0.000000000018 Rises=F Damp=F
 DIIS: error= 5.38D-08 at cycle   6 NSaved=   6.
 NSaved= 6 IEnMin= 6 EnMin= -360.430265904712     IErMin= 6 ErrMin= 5.38D-08
 ErrMax= 5.38D-08  0.00D+00 EMaxC= 1.00D-01 BMatC= 1.54D-12 BMatP= 1.97D-11
 IDIUse=1 WtCom= 1.00D+00 WtEn= 0.00D+00
 Coeff-Com: -0.276D-03 0.125D-03-0.249D-03 0.328D-01 0.261D+00 0.707D+00
 Coeff:     -0.276D-03 0.125D-03-0.249D-03 0.328D-01 0.261D+00 0.707D+00
 Gap=     0.276 Goal=   None    Shift=    0.000
 RMSDP=5.26D-09 MaxDP=1.77D-07 DE=-1.77D-11 OVMax= 2.16D-07

 SCF Done:  E(RB3LYP) =  -360.430265905     A.U. after   10 cycles
            NFock= 10  Conv=0.53D-08     -V/T= 2.0072
 KE= 3.578550956424D+02 PE=-1.561823993669D+03 EE= 4.833590295166D+02
 Leave Link  502 at Thu Sep  1 13:24:54 2022, MaxMem= 24159191040 cpu:       124.5
 (Enter /public/home/users/caep010/software/Gaussian09/g09/l701.exe)
 Compute integral first derivatives.
 ... and contract with generalized density number  0.
 Leave Link  701 at Thu Sep  1 13:24:55 2022, MaxMem= 24159191040 cpu:        14.0
 (Enter /public/home/users/caep010/software/Gaussian09/g09/l702.exe)
 L702 exits ... SP integral derivatives will be done elsewhere.
 Leave Link  702 at Thu Sep  1 13:24:55 2022, MaxMem= 24159191040 cpu:         0.5
 (Enter /public/home/users/caep010/software/Gaussian09/g09/l703.exe)
 Compute integral first derivatives, UseDBF=F ICtDFT=           0.
 Integral derivatives from FoFJK, PRISM(SPDF).
 Calling FoFJK, ICntrl=      2127 FMM=F ISym2X=0 I1Cent= 0 IOpClX= 0 NMat=1 NMatS=1 NMatT=0.
 FoFJK:  IHMeth= 1 ICntrl=    2127 DoSepK=F KAlg= 0 I1Cent=   0 FoldK=F
 IRaf=         0 NMat=   1 IRICut=       1 DoRegI=T DoRafI=F ISym2E= 0.
 FoFCou: FMM=F IPFlag=           0 FMFlag=      100000 FMFlg1=         800
         NFxFlg=           0 DoJE=F BraDBF=F KetDBF=F FulRan=T
         wScrn=  0.000000 ICntrl=    2127 IOpCl=  0 I1Cent=           0 NGrid=           0
         NMat0=    1 NMatS0=      1 NMatT0=    0 NMatD0=    1 NMtDS0=    0 NMtDT0=    0
 Symmetry not used in FoFCou.
 Leave Link  703 at Thu Sep  1 13:24:57 2022, MaxMem= 24159191040 cpu:        76.9
 (Enter /public/home/users/caep010/software/Gaussian09/g09/l716.exe)
 Dipole        = 3.81179716D-01 6.30777258D-01 5.53841339D-01
 ***** Axes restored to original set *****
 -------------------------------------------------------------------
 Center     Atomic                   Forces (Hartrees/Bohr)
 Number     Number              X              Y              Z
 -------------------------------------------------------------------
      1        6          -0.000010300    0.000047606    0.000000026
      2        7          -0.000045868   -0.000144001    0.000169917
      3        6          -0.000006791   -0.000021430   -0.000000360
      4        6          -0.000492589   -0.000871892    0.000170867
      5        7           0.000124446   -0.000073281   -0.000327459
      6        7           0.000142271    0.000075705    0.000147186
      7        8           0.000577629    0.001191789    0.000625385
      8        1           0.000000754   -0.000010961   -0.000014562
      9        1           0.000007397   -0.000018593    0.000012228
     10        1           0.000006107    0.000005470   -0.000004127
     11        1          -0.000000236    0.000009605    0.000000863
     12        1          -0.000026460    0.000017022    0.000019865
     13        1          -0.000013902    0.000003194    0.000022555
     14        1          -0.000107746    0.000038058   -0.000132681
     15        1          -0.000026802   -0.000008637    0.000023054
     16        1          -0.000007566    0.000061568   -0.000024646
     17        1           0.000022823   -0.000018337    0.000001145
     18        1          -0.000143165   -0.000282884   -0.000689257
 -------------------------------------------------------------------
 Cartesian Forces:  Max     0.001191789 RMS     0.000272965
 Leave Link  716 at Thu Sep  1 13:24:58 2022, MaxMem= 24159191040 cpu:         0.5
 (Enter /public/home/users/caep010/software/Gaussian09/g09/l103.exe)

 GradGradGradGradGradGradGradGradGradGradGradGradGradGradGradGradGradGrad
 Berny optimization.
 Using GEDIIS/GDIIS optimizer.
 FormGI is forming the generalized inverse of G from B-inverse, IUseBI=4.
 Internal  Forces:  Max     0.001202331 RMS     0.000174579
 Search for a local minimum.
 Step number   2 out of a maximum of   88
 All quantities printed in internal units (Hartrees-Bohrs-Radians)
 RMS Force = .17458D-03 SwitMx=.10000D-02 MixMth= 2
 Mixed Optimization -- En-DIIS/RFO-DIIS
 Update second derivatives using D2CorX and points    1    2
 DE= -2.92D-04 DEPred=-2.87D-04 R= 1.02D+00
 TightC=F SS=  1.41D+00  RLast= 3.74D-02 DXNew= 5.0454D-01 1.1224D-01
 Trust test= 1.02D+00 RLast= 3.74D-02 DXMaxT set to 3.00D-01
 ITU=  1  0
 Use linear search instead of GDIIS.
     Eigenvalues ---    0.00774   0.00851   0.00912   0.00961   0.01020
     Eigenvalues ---    0.01531   0.02098   0.04084   0.04348   0.05839
     Eigenvalues ---    0.06955   0.07125   0.07590   0.07640   0.08238
     Eigenvalues ---    0.08817   0.15999   0.16000   0.16000   0.16000
     Eigenvalues ---    0.16000   0.16000   0.16000   0.16000   0.16000
     Eigenvalues ---    0.16000   0.16475   0.17877   0.18477   0.18585
     Eigenvalues ---    0.19307   0.32722   0.33073   0.34209   0.34309
     Eigenvalues ---    0.34524   0.34985   0.35812   0.36563   0.37097
     Eigenvalues ---    0.37563   0.38142   0.43680   0.45007   0.45302
     Eigenvalues ---    0.45333   0.45574   0.50029
 RFO step:  Lambda=-1.92139962D-05 EMin= 7.74328402D-03
 Quartic linear search produced a step of -0.00158.
 Iteration  1 RMS(Cart)=  0.00297591 RMS(Int)=  0.00001020
 Iteration  2 RMS(Cart)=  0.00000970 RMS(Int)=  0.00000059
 Iteration  3 RMS(Cart)=  0.00000000 RMS(Int)=  0.00000059
 ITry= 1 IFail=0 DXMaxC= 1.18D-02 DCOld= 1.00D+10 DXMaxT= 3.00D-01 DXLimC= 3.00D+00 Rises=F
 Variable       Old X    -DE/DX   Delta X   Delta X   Delta X     New X
                                 (Linear)    (Quad)   (Total)
    R1        2.74161  -0.00002  -0.00000  -0.00004  -0.00004   2.74157
    R2        2.06453   0.00001   0.00000   0.00001   0.00001   2.06455
    R3        2.09546   0.00001  -0.00000   0.00002   0.00002   2.09548
    R4        2.06815  -0.00001  -0.00000  -0.00002  -0.00002   2.06813
    R5        2.75686   0.00003   0.00000   0.00009   0.00009   2.75695
    R6        2.77641   0.00016   0.00000   0.00045   0.00045   2.77686
    R7        2.06981  -0.00000  -0.00000  -0.00001  -0.00001   2.06980
    R8        2.05698  -0.00001   0.00000  -0.00003  -0.00003   2.05696
    R9        2.08925   0.00001  -0.00000   0.00004   0.00004   2.08930
   R10        2.76652  -0.00029  -0.00000  -0.00074  -0.00074   2.76578
   R11        2.75037  -0.00001  -0.00000  -0.00000  -0.00000   2.75037
   R12        2.66639   0.00035   0.00000   0.00077   0.00077   2.66716
   R13        1.91415  -0.00008  -0.00000  -0.00013  -0.00014   1.91402
   R14        1.91627  -0.00002  -0.00000  -0.00003  -0.00004   1.91623
   R15        1.91954  -0.00002   0.00000  -0.00005  -0.00005   1.91949
   R16        1.91630   0.00002  -0.00000   0.00004   0.00004   1.91633
   R17        1.82000  -0.00033   0.00005  -0.00180  -0.00175   1.81825
    A1        1.94039  -0.00001  -0.00000  -0.00008  -0.00008   1.94031
    A2        1.99711   0.00003   0.00000   0.00017   0.00017   1.99728
    A3        1.89976  -0.00001  -0.00000  -0.00006  -0.00006   1.89970
    A4        1.88635  -0.00001  -0.00000  -0.00002  -0.00002   1.88633
    A5        1.87092   0.00001   0.00000  -0.00000  -0.00000   1.87092
    A6        1.86384  -0.00001  -0.00000  -0.00001  -0.00001   1.86383
    A7        1.94545  -0.00006  -0.00000  -0.00036  -0.00037   1.94508
    A8        2.02609  -0.00001  -0.00000  -0.00016  -0.00016   2.02593
    A9        1.99763   0.00006   0.00000   0.00024   0.00024   1.99787
   A10        1.90234   0.00000  -0.00000  -0.00002  -0.00002   1.90232
[...]
 -0.5415632362,-0.4146327347,1.9791882253\H,0,-1.7667931791,-1.41697497
 12,1.1861181186\H,0,-2.6186220698,0.4957945519,0.0458198407\H,0,-1.594
 700374,1.3922009739,-1.092490707\H,0,-1.380587695,1.6046898682,0.66563
 51545\H,0,1.1972742188,1.8101856278,0.3989157296\H,0,1.3576802427,0.48
 59196047,1.3517609476\H,0,0.8139303091,-1.863978474,-1.1269001513\H,0,
 2.1162933939,-1.3440035336,-0.2185442503\H,0,1.3347148007,0.7220185713
 ,-2.2327438656\\Version=ES64L-G09RevE.01\State=1-A\MP2/GTBas1=-359.252
 8976\MP4/GTBas1=-359.344555\CCSD(T)/G3Bas1=-359.3448334\MP2/GTBas2=-35
 9.2855948\MP4/GTBas2=-359.3795245\MP2/GTBas3=-359.5583052\MP4/GTBas3=-
 359.6683021\HF/GTLargeXP=-358.3312647\MP2/GTLargeXP=-360.0523393\HF/GF
 HFB1=-358.3588161\HF/GFHFB2=-358.3650424\G4=-360.1964568\FreqCoord=-1.
 4288981349,-1.9142672767,2.0254662645,-1.2887329863,-0.4746314337,-0.3
 108692329,-3.0384726781,1.6542012258,-0.2545660599,1.3109580205,0.1869
 202583,-1.0684010551,2.8344612109,1.5918660444,0.7761935197,2.71316609
 58,-2.0637610056,-1.7417382167,1.0540543135,1.743705034,-3.2131043662,
 -0.111144295,-3.5040457806,1.9791936648,-1.0234062001,-0.7835423142,3.
 7401237112,-3.3387552419,-2.6776946326,2.2414384054,-4.9484785575,0.93
 69159212,0.0865869504,-3.0135469709,2.6308785627,-2.0645082389,-2.6089
 32646,3.032424379,1.2578681463,2.2625203795,3.4207550862,0.7538414791,
 2.5656438347,0.9182549754,2.5544579881,1.5381053755,-3.5224088335,-2.1
 295326651,3.9992149314,-2.5397986002,-0.412988781,2.5222454388,1.36441
 73626,-4.2192744308\PG=C01 [X(C3H11N3O1)]\NImag=0\\0.60125934,-0.02017
 525,0.54925538,-0.01155187,0.01990119,0.46505855,-0.09865561,0.0068971
 5,0.01631343,0.46869404,0.00678172,-0.10827500,0.08485590,-0.08122904,
 0.42610272,0.00838583,0.04352908,-0.16398808,-0.07528902,-0.13886126,0
 .38784011,0.00078505,0.00824878,-0.00636113,-0.13176055,0.04731038,0.0
 0347439,0.54200048,0.01508722,-0.02858429,0.00176126,0.06582209,-0.156
 86362,0.02539171,0.05167247,0.50199729,-0.02367967,0.03170203,-0.00921
 311,0.02530492,-0.00159927,-0.07645761,-0.01292765,-0.04886973,0.58445
 883,0.00025082,-0.01768869,0.01337637,-0.13317606,0.00993031,0.0277850
 8,-0.03424517,0.00793131,0.00061691,0.46344589,-0.02065470,-0.00862104
 ,0.00445005,-0.01011345,-0.09166197,0.02177242,0.02569702,0.00995566,-
 0.01194001,-0.03426615,0.53388683,0.02850457,0.01355777,-0.01641267,0.
 00373293,0.01233371,-0.07813632,0.00710871,-0.01136196,0.00095663,-0.0
 1381452,-0.00954796,0.51542945,-0.00114756,0.00373579,-0.00619102,-0.0
 4117671,-0.03171762,-0.02070088,0.00411994,-0.00589722,0.00002334,-0.0
 8851105,-0.00745072,-0.01159491,0.19274465,-0.00015756,0.00130690,-0.0
 0303712,-0.02153000,-0.00472106,-0.00666077,0.00109967,-0.00293334,-0.
 00031842,-0.03575495,-0.12538757,-0.02526510,-0.04305625,0.65875581,-0
 .00021289,0.00010250,-0.00242599,-0.00696080,-0.00336894,0.00683213,0.
 00074027,-0.00097144,-0.00082359,-0.04744897,-0.02451027,-0.11801660,0
 .02819368,-0.07025343,0.59006827,-0.00068989,0.00100395,-0.00178905,-0
 .03801592,0.03423883,0.00880440,-0.00292469,-0.00414502,0.00476917,-0.
 11904398,0.03025101,0.00981591,0.00977605,-0.01727909,-0.00818449,0.56
 413257,-0.00016402,-0.00313957,0.00190496,0.01202356,-0.00109398,-0.00
 205667,-0.00001201,0.00126527,-0.00067083,0.05787648,-0.16602961,-0.05
 203329,0.00434888,-0.03628524,-0.01719907,0.01916362,0.60296223,0.0011
 3841,0.00149207,-0.00110153,0.00927422,-0.00921256,0.00404760,0.001527
 92,0.00264690,0.00002083,-0.01388064,-0.00281151,-0.08932048,0.0044580
 3,-0.03304111,-0.00688788,0.27590996,0.03801248,0.33731363,-0.00589123
 ,0.00137676,-0.00040483,-0.00314699,-0.02604534,0.03698922,-0.00412169
 ,-0.00011194,0.00115051,-0.09586975,0.00529524,0.01472128,0.00247495,0
 .01121560,-0.02719642,-0.00339160,0.02583862,-0.01427386,0.45328137,-0
 .00118499,0.00266170,-0.00046398,-0.00986850,-0.00832448,0.02123214,0.
 00217655,-0.00140088,0.00021883,0.02709434,-0.10874638,0.03628524,0.00
 184579,0.00866715,-0.00239564,0.02941550,-0.03854493,0.02971736,-0.132
 41081,0.19337080,0.00526508,-0.00098247,0.00049480,0.01195331,0.022136
 57,-0.02575669,0.00146964,0.00193651,-0.00160293,-0.01748026,0.0564851
 2,-0.15752854,-0.01451736,0.02299363,-0.05458881,-0.00911194,0.0139164
 6,0.00982251,-0.21007254,-0.06135118,0.40875909,-0.15657957,0.13048063
 ,0.00519372,0.00132657,-0.00146896,-0.00165707,0.00029837,-0.00050818,
 -0.00003452,-0.00105244,-0.00086435,-0.00003745,0.00012464,0.00011024,
 0.00015098,-0.00085379,-0.00085359,0.00136268,0.00029297,0.00038661,-0
 .00033548,0.16797079,0.12667757,-0.19958572,-0.00747374,0.01140613,-0.
 01596382,0.00352896,-0.00207718,-0.00107846,0.00417107,0.00370176,-0.0
 0186455,-0.00060358,-0.00107751,0.00020287,0.00020315,0.00079169,0.002
 06500,-0.00249027,-0.00054748,0.00040767,-0.00015032,-0.14415098,0.219
 39118,0.01121713,-0.01366112,-0.05026223,-0.02243331,0.02445454,-0.000
 42113,0.00209273,0.00275426,-0.00482780,-0.00140831,0.00169205,0.00135
 870,0.00037843,-0.00005564,0.00007988,0.00032713,-0.00066616,0.0001459
 5,0.00002853,-0.00069410,0.00027418,-0.00761444,0.00487178,0.05673086,
 -0.05958419,-0.02515252,-0.03355964,0.00287481,0.00376123,0.00010152,0
 .00046361,-0.00158814,-0.00106061,-0.00007555,0.00116825,0.00132727,0.
 00071766,0.00000582,0.00050683,-0.00014404,-0.00035124,0.00041524,0.00
 000843,-0.00012076,-0.00029766,0.00493914,0.01219864,0.01667857,0.0583
 8252,-0.02484765,-0.12737808,-0.09984228,0.00523681,0.01215322,0.01669
 028,-0.00060037,0.00455457,0.00233175,0.00021268,0.00025562,0.00013806
 ,0.00068309,0.00004172,0.00051472,0.00028196,0.00040664,-0.00050970,-0
 .00008904,-0.00013642,0.00006097,-0.00666187,-0.01362411,-0.01832918,0
 .02962421,0.13124002,-0.03480483,-0.10171032,-0.18207733,-0.00242277,-
 0.00331370,-0.04150178,0.00371282,-0.00417749,0.00107923,-0.00995041,-
 0.00375653,-0.00091253,0.00143528,0.00125459,0.00218702,0.00129276,-0.
 00004037,0.00028266,0.00160410,0.00120582,0.00011595,-0.00036486,-0.00
 220683,-0.00048784,0.03951822,0.10985671,0.21798398,-0.27449408,-0.087
 96919,0.02018160,-0.00044450,0.00008002,0.00458750,0.00069427,0.001291
 06,-0.00074436,0.00106231,0.00048341,-0.00117743,-0.00002869,-0.000006
 16,-0.00013761,-0.00032646,-0.00073137,0.00076145,0.00009652,-0.000235
 65,0.00034245,-0.01702575,-0.00748224,0.00057068,-0.00613321,-0.001747
 47,-0.00034970,0.29529048,-0.08435297,-0.07942984,0.00678546,-0.017079
 03,-0.00757588,0.00805147,-0.00237573,0.00048345,-0.00016303,0.0024109
 1,-0.00340227,0.00047794,-0.00034189,0.00041318,0.00029382,0.00047590,
 0.00097164,-0.00093910,-0.00085771,0.00006915,0.00103486,0.02299924,0.
 01045565,-0.00194957,-0.01897840,-0.00728617,-0.00076724,0.09689752,0.
 08566613,0.01322790,0.00503704,-0.04547622,0.03256570,0.01403334,-0.01
 174518,0.00167003,-0.00102761,0.00052277,-0.00411107,0.00316453,-0.002
 93811,0.00070118,0.00006727,0.00078465,0.00021763,0.00024660,0.0000641
 7,0.00178876,0.00043070,-0.00135094,0.00186603,-0.00004156,-0.00055478
 ,-0.02373947,-0.00915551,0.00182503,-0.02357271,-0.01340709,0.05838056
 ,0.00025714,-0.00185993,0.00134266,-0.02604426,-0.00107276,0.00707153,
 -0.26178100,-0.08677735,0.03820011,0.00154687,0.00328930,-0.00264493,-
 0.00038260,-0.00036414,0.00007298,-0.00141082,0.00049339,0.00068379,0.
 00002781,-0.00011402,0.00002773,0.00061697,0.00012439,0.00011613,-0.00
 020184,-0.00013320,-0.00044850,0.00045404,0.00086111,-0.00069645,0.292
 30026,0.00170585,0.00140920,-0.00083518,0.03203746,0.00674456,-0.00614
 455,-0.09491148,-0.08441906,0.01803460,0.00097780,-0.00540856,0.002165
 39,0.00031877,0.00078929,0.00026764,0.00164308,-0.00005375,-0.00100789
 ,-0.00080024,0.00051688,0.00023894,0.00002144,0.00032920,-0.00034491,-
 0.00032589,-0.00043235,0.00017658,-0.00044104,-0.00013969,0.00020281,0
 .09046979,0.09274989,-0.00145997,-0.00012381,0.00025812,0.00219438,0.0
 0089959,-0.00107301,0.03892600,0.01612810,-0.05452541,-0.00116440,0.00
 046108,-0.00104020,0.00012632,0.00036724,0.00064406,0.00027770,-0.0002
 3646,0.00012239,0.00138630,-0.00040632,-0.00019793,-0.00000991,-0.0002
 1578,-0.00007429,-0.00008470,-0.00010869,-0.00000268,0.00001772,0.0002
 5447,0.00031776,-0.04440015,-0.01661166,0.05439649,-0.00399987,0.00269
 979,0.00061887,-0.00052982,0.01376018,-0.02024630,-0.04702156,-0.00727
 872,0.01074613,0.00122143,0.00154749,-0.00372984,-0.00050639,-0.000370
 95,0.00061525,0.00049679,-0.00059793,0.00044257,-0.00366322,-0.0002404
 5,0.00224132,0.00042166,0.00104154,-0.00105445,0.00002140,-0.00013609,
 0.00015991,0.00053847,0.00011375,0.00009054,0.00120307,-0.01273590,0.0
 2617433,0.05095916,0.00460661,-0.00303703,-0.00093775,0.00009155,-0.01
 762930,0.02406366,-0.00160821,-0.10587473,0.10761945,-0.00120121,-0.00
 089491,0.00220066,0.00026727,0.00041472,-0.00019854,-0.00006869,0.0003
 5897,-0.00027790,-0.00149401,0.00096287,-0.00019976,0.00026099,-0.0007
 3615,0.00162169,0.00018655,0.00003301,0.00051277,0.00011688,0.00025831
 ,-0.00034085,-0.00027598,-0.00500370,0.00962988,-0.00093727,0.12051614
 ,-0.00012042,-0.00033540,0.00104116,-0.00202276,0.00042111,0.00320725,
 0.00251853,0.11548696,-0.26693854,0.00052286,0.00135543,-0.00071487,-0
 .00025254,-0.00003480,0.00012855,-0.00029278,-0.00019875,0.00005698,0.
 00415990,-0.00096646,-0.00162654,0.00017818,-0.00001565,0.00024986,0.0
 0018711,-0.00020242,0.00038280,0.00008408,-0.00010395,-0.00006274,0.00
 007784,0.00004133,-0.00220357,-0.00733122,-0.12451345,0.28568064,0.000
 32018,-0.00120325,0.00310765,0.00285399,0.02230210,0.01744208,-0.06407
 591,-0.03551145,-0.04169834,0.00332660,0.00238139,0.00126936,0.0010979
 3,-0.00064744,-0.00053197,-0.00090240,-0.00028836,-0.00020467,-0.00013
 009,-0.00027167,-0.00002094,-0.00000907,-0.00010967,-0.00004682,0.0000
 9784,-0.00098470,-0.00082467,-0.00031124,0.00008566,-0.00048722,-0.006
 94398,-0.01834179,-0.02249038,0.00031638,0.00048050,0.00174861,0.06563
 676,-0.00036776,0.00226344,-0.00590667,0.00812290,-0.03052222,-0.01854
 977,-0.03615356,-0.13695547,-0.10172551,-0.00597794,-0.00270490,0.0011
 2413,0.00096186,0.00160178,0.00111540,0.00139452,0.00000919,0.00005072
 ,0.00022337,0.00077262,-0.00037889,0.00028449,0.00038587,0.00063128,0.
 00014783,0.00046706,0.00219509,-0.00028206,-0.00014583,0.00020611,-0.0
 0461552,-0.00744802,-0.00989561,0.00335366,0.01063198,0.00961212,0.032
 71897,0.16107396,0.00082885,0.00225922,0.00249124,0.00759072,-0.005686
 15,0.00086095,-0.04274629,-0.10067024,-0.17323077,-0.00352376,-0.00209
 666,-0.00000362,0.00072281,0.00107573,0.00089291,0.00069802,-0.0000206
 4,0.00004069,0.00070566,0.00047849,0.00005763,0.00014862,-0.00015649,0
 .00012430,0.00028805,-0.00180242,0.00096331,-0.00021119,-0.00014085,-0
 .00001001,0.00090349,0.00383061,0.00316555,-0.00909124,-0.01890385,-0.
 01912925,0.04317919,0.12152524,0.18387456,-0.00027871,-0.00011296,0.00
 030532,-0.00111120,0.00086292,-0.00017075,-0.00040536,-0.00105319,-0.0
 0102117,0.00089397,-0.02490296,-0.00335399,-0.05376865,0.14562567,-0.0
 1636554,0.00024915,0.00037490,-0.00134281,-0.00099726,-0.00140476,0.00
 230376,-0.00002229,0.00014337,0.00000322,0.00006728,-0.00023830,-0.000
 00541,0.00004980,-0.00000253,-0.00013946,0.00011137,0.00040901,0.00026
 593,-0.00003811,0.00003093,-0.00009825,-0.00118682,0.00036274,0.000556
 46,0.05767759,0.00004348,-0.00041249,0.00000850,0.00086240,0.00119633,
 0.00059690,-0.00010835,-0.00004744,-0.00049059,0.01060485,-0.02268187,
 -0.00090827,0.09670558,-0.39101540,0.00931747,-0.00315325,-0.00152749,
 -0.00228508,0.00005474,0.00251508,0.00345201,0.00000670,0.00018427,-0.
 00004675,-0.00002655,-0.00004759,0.00009918,0.00002774,0.00008998,-0.0
 0002597,0.00004753,0.00021592,0.00017734,0.00000923,0.00006477,0.00007
 418,-0.00027856,0.00027031,0.00035615,-0.11169822,0.42248709,0.0004287
 6,0.00032036,-0.00010721,-0.00041504,0.00026433,-0.00014754,-0.0002991
 9,0.00047293,0.00092411,0.01233029,-0.02639517,0.00317137,-0.01299374,
 -0.00199308,-0.05587676,-0.00371789,-0.00452641,-0.00404337,0.00128984
 ,0.00253134,0.00108731,-0.00003125,-0.00013029,-0.00018326,-0.00005032
 ,0.00008781,0.00006065,0.00004567,0.00002496,0.00008696,-0.00007526,0.
 00004695,-0.00020694,-0.00028119,-0.00005540,-0.00020359,-0.00005023,-
 0.00019971,-0.00020073,0.01456298,-0.00646470,0.05784357,-0.00082919,-
 0.00207015,-0.00209821,0.00160004,0.00082718,0.00204922,-0.00081345,0.
 00050545,-0.00025820,-0.00075467,0.00709083,-0.02145321,-0.02354997,-0
 .03927988,0.07778373,-0.00070462,0.00079802,0.00094128,-0.00037575,-0.
 00051251,-0.00681855,0.00010103,0.00030158,0.00013269,-0.00141765,-0.0
 0031798,0.00167909,0.00009412,0.00047820,0.00058416,0.00010603,-0.0000
 0423,0.00003474,0.00022238,-0.00004621,0.00014977,-0.00010540,0.000050
 66,-0.00004457,-0.00233723,0.00644281,-0.01105090,0.02935390,-0.000993
 25,0.00023362,-0.00056954,-0.00062038,-0.00041664,0.00034844,-0.000242
 21,0.00044585,0.00053299,0.00816044,0.00932417,-0.01472653,-0.01965691
 ,-0.10856511,0.10944793,-0.00093968,-0.00054361,0.00031470,-0.00245879
 ,0.00204545,-0.00386763,0.00001087,-0.00061227,-0.00024719,-0.00068556
 ,-0.00000784,0.00039783,0.00018256,-0.00016112,0.00016505,-0.00005578,
 -0.00001623,-0.00008326,0.00002939,-0.00016738,-0.00008187,-0.00001046
 ,-0.00017005,-0.00021464,-0.00823257,-0.01126905,0.03774140,0.02490964
 ,0.11100711,0.00078671,0.00022246,0.00172876,0.00181912,0.00162154,0.0
 0024939,-0.00028599,0.00029689,-0.00025857,0.01013303,0.01280918,-0.02
 097727,0.02895135,0.12146767,-0.36429814,-0.00069573,-0.00120944,0.001
 13153,-0.00407833,-0.00157774,-0.00617754,-0.00000947,-0.00025599,-0.0
 0008963,0.00006389,0.00001891,0.00019784,0.00020727,-0.00002569,0.0003
 2668,-0.00002444,-0.00001994,0.00008551,0.00021260,-0.00012021,0.00002
 119,-0.00022020,0.00006554,-0.00001610,0.00383310,-0.00309841,-0.00033
 377,-0.04088180,-0.12917110,0.38849996,-0.00043195,0.00009096,0.002089
 29,-0.00020602,-0.00058314,-0.00038141,-0.00056619,0.00037786,-0.00030
 019,0.01333192,0.01614806,0.00672086,-0.00057400,0.00281570,0.00112237
 ,-0.20285746,-0.18210017,-0.07850480,-0.00089086,0.00022755,-0.0001415
 4,-0.00016537,0.00019230,0.00041432,-0.00003349,-0.00001748,-0.0003990
 1,-0.00001003,0.00010522,-0.00002361,0.00009418,-0.00000056,0.00002698
 ,0.00009505,-0.00007818,0.00005550,0.00026169,-0.00036852,-0.00009499,
 0.00055452,0.00086613,0.00079940,0.00019321,0.00010297,0.00008433,0.20
 476115,-0.00002881,0.00064700,-0.00103821,-0.00222388,0.00261267,0.001
 54837,0.00059223,-0.00025255,0.00075466,-0.02608040,-0.02040327,-0.003
 70223,0.00159562,-0.00424325,-0.00160607,-0.16794834,-0.27845316,-0.07
 072627,0.00210573,-0.00146538,0.00177045,0.00003242,0.00031129,-0.0000
 7205,-0.00005082,0.00000080,0.00039382,-0.00015978,0.00014523,0.000100
 28,-0.00006058,0.00008880,0.00003964,-0.00003085,0.00001278,-0.0000554
 5,-0.00031639,0.00054818,0.00025457,0.00016938,-0.00036439,-0.00148869
 ,0.00015110,-0.00058132,-0.00048746,0.18382385,0.29250965,0.00089988,-
 0.00137036,-0.00078836,-0.00199864,0.00196640,-0.00023335,-0.00024326,
 -0.00024631,0.00048830,-0.00241284,-0.01312067,-0.00612469,0.00122258,
 -0.00569175,0.00095669,-0.04649730,-0.03256679,-0.02963434,-0.00249614
 ,0.00169111,-0.00226956,0.00041436,0.00065638,-0.00174112,-0.00029154,
 0.00042301,0.00009587,-0.00030180,0.00032534,0.00013808,-0.00022080,0.
 00018650,0.00010810,-0.00003112,0.00013378,-0.00001227,-0.00018973,0.0
 0029628,0.00011779,0.00009622,-0.00094930,-0.00109339,-0.00055973,0.00
 041841,0.00011469,0.06595777,0.06929262,0.04556630,-0.00024729,0.00169
 761,-0.00060178,-0.00284823,0.00241386,0.00099632,-0.00019281,0.000165
 63,0.00103924,-0.01444391,0.00663531,-0.01401082,0.00005262,-0.0036023
 1,0.00015685,-0.20080982,0.06231196,-0.18670753,0.00092695,-0.00253622
 ,0.00186122,-0.00041200,-0.00109951,0.00058902,0.00008361,-0.00025293,
 0.00017868,0.00036181,-0.00039719,0.00003509,-0.00005575,0.00003451,-0
 .00000537,0.00006242,-0.00007967,-0.00001309,-0.00020656,0.00016062,0.
 00000121,0.00006602,-0.00075817,-0.00062034,0.00004080,0.00064206,0.00
 072210,-0.01334130,0.00826132,-0.01429112,0.23052196,-0.00010011,0.000
 42619,-0.00015869,0.00024993,-0.00045158,-0.00030779,0.00015294,0.0002
 3212,0.00005246,0.01647964,-0.00159529,0.02803445,-0.00093573,0.002123
 12,-0.00082300,0.07535347,-0.08290179,0.05435386,0.00320279,-0.0093437
 4,0.00133713,-0.00010591,-0.00004965,-0.00006809,0.00012757,-0.0001039
 0,-0.00020028,0.00002862,-0.00005720,-0.00012998,0.00002950,-0.0000452
 9,-0.00009591,-0.00020290,-0.00001018,0.00003764,0.00006368,-0.0000545
 0,-0.00010710,-0.00124730,0.00028782,0.00044734,0.00107087,-0.00063679
 ,-0.00087210,-0.02113196,0.00929937,-0.02169375,-0.07425000,0.08233049
 ,0.00028548,-0.00002169,0.00021216,0.00278565,-0.00271528,-0.00064825,
 0.00064588,0.00014772,-0.00069636,0.01431148,-0.00638600,0.00240044,0.
 00096914,-0.00078229,0.00040917,-0.23194199,0.06079971,-0.22349768,-0.
 00099794,0.00358226,-0.00000662,0.00076616,0.00015998,-0.00023404,-0.0
 0000069,-0.00012072,-0.00015504,-0.00014109,0.00008693,-0.00005882,0.0
 0014074,-0.00016104,0.00000513,0.00002086,0.00003568,-0.00001330,-0.00
 001592,-0.00012934,-0.00007273,0.00004171,-0.00000205,-0.00029230,0.00
 085832,-0.00065393,-0.00051299,0.00280958,0.00568851,-0.00699774,0.210
 86836,-0.05906721,0.22972915,-0.00004341,0.00000051,0.00002862,-0.0002
 3359,-0.00015185,0.00075834,-0.00045334,0.00001809,-0.00012562,0.00209
 276,-0.00173498,-0.00138379,-0.00146283,0.00117602,-0.00230428,-0.0025
 7906,0.00186925,-0.00200122,-0.33863057,0.08775401,0.23333176,0.000028
 12,-0.00003438,0.00000876,-0.00006634,-0.00001167,-0.00001073,0.000132
 14,-0.00004206,0.00002294,0.00010252,-0.00005660,0.00018448,0.00020076
 ,-0.00025184,0.00044868,-0.00003989,-0.00001625,0.00008896,0.00047592,
 0.00035190,0.00012843,-0.00082360,-0.00014235,-0.00061753,-0.00021504,
 0.00016820,0.00094320,0.00044149,0.00121490,-0.00140572,0.34107393,-0.
 00187539,0.00025962,0.00059584,-0.00008572,-0.00530994,0.00582737,0.00
 113907,-0.00052434,0.00035956,-0.02441118,0.00597990,0.02183157,-0.000
 32881,-0.00116556,0.00006378,-0.00047946,0.00053418,-0.00328668,0.1155
 0249,-0.04402716,-0.05843239,0.00002025,-0.00021828,0.00010916,0.00005
 976,-0.00013620,0.00008035,-0.00005284,-0.00035472,0.00047484,0.000014
 24,0.00012291,-0.00017986,-0.00002398,0.00009984,-0.00052058,-0.000068
 57,-0.00002338,0.00001904,0.00091388,0.00005414,-0.00068397,-0.0003953
 8,0.00009118,0.00033590,-0.00047057,-0.00041244,0.00024912,0.00065312,
 0.00055082,-0.00046123,-0.09011091,0.04447942,0.00086104,0.00008147,0.
 00056795,-0.00199204,0.00177012,-0.00292851,-0.00102341,0.00030154,0.0
 0012399,0.03611917,-0.00162508,-0.03119071,-0.00093170,-0.00009261,-0.
 00006558,0.00011849,-0.00345531,0.00143634,0.19569596,-0.02951788,-0.1
 6950538,0.00001371,0.00014916,-0.00008761,-0.00000209,-0.00005130,-0.0
 0003712,-0.00016254,0.00016127,-0.00024983,-0.00012649,-0.00006616,0.0
 0022094,0.00044296,-0.00026986,0.00013624,0.00003422,-0.00003641,0.000
 07430,0.00052869,0.00018939,-0.00048512,-0.00104783,0.00024894,0.00030
 848,-0.00023484,-0.00066648,0.00130900,-0.00019803,-0.00073898,0.00042
 981,-0.22809528,0.03361818,0.19994279\\0.00000688,-0.00000998,-0.00000
 937,0.00001974,0.00000039,0.00001282,-0.00000277,-0.00000411,-0.000001
 18,-0.00003833,-0.00000393,0.00000389,-0.00000832,0.00002201,-0.000004
 04,0.00001487,0.00000230,-0.00000100,0.00000790,0.00000201,-0.00000223
 ,0.00000938,0.00000450,0.00000845,0.00000058,0.00000091,0.00000369,0.0
 0000776,-0.00001097,0.00000549,-0.00000203,-0.00001294,0.00000060,-0.0
 0001065,-0.00000785,-0.00000049,-0.00000648,-0.00000702,-0.00000366,-0
 .00000464,0.00000753,-0.00000539,-0.00000161,0.00000254,-0.00000117,0.
 00000933,-0.00000018,0.00000174,0.00000302,0.00001109,0.00000301,-0.00
 000464,0.00000370,-0.00001117\\\@
 Job cpu time:       0 days  7 hours 18 minutes 49.5 seconds.
 File lengths (MBytes):  RWF=  13085 Int=      0 D2E=      0 Chk=     54 Scr=      1
 Normal termination of Gaussian 09 at Thu Sep  1 14:19:51 2022.
