 Entering Gaussian System, Link 0=g09
 Input=G4.Frag_969.gjf
 Output=G4.Frag_969.log
 Initial command:
 /public/home/users/caep010/software/Gaussian09/g09/l1.exe "/public/home/users/caep010/.cache/gau_scr/Gau-213909.inp" -scrdir="/public/home/users/caep010/.cache/gau_scr/"
 Entering Link 1 = /public/home/users/caep010/software/Gaussian09/g09/l1.exe PID=    213910.
  
 Copyright (c) 1988,1990,1992,1993,1995,1998,2003,2009,2015,
            Gaussian, Inc.  All Rights Reserved.
  
 This is part of the Gaussian(R) 09 program.  It is based on
 the Gaussian(R) 03 system (copyright 2003, Gaussian, Inc.),
 the Gaussian(R) 98 system (copyright 1998, Gaussian, Inc.),
 the Gaussian(R) 94 system (copyright 1995, Gaussian, Inc.),
 the Gaussian 92(TM) system (copyright 1992, Gaussian, Inc.),
 the Gaussian 90(TM) system (copyright 1990, Gaussian, Inc.),
 the Gaussian 88(TM) system (copyright 1988, Gaussian, Inc.),
 the Gaussian 86(TM) system (copyright 1986, Carnegie Mellon
 University), and the Gaussian 82(TM) system (copyright 1983,
 Carnegie Mellon University). Gaussian is a federally registered
 trademark of Gaussian, Inc.
  
 This software contains proprietary and confidential information,
 including trade secrets, belonging to Gaussian, Inc.
  
 This software is provided under written license and may be
 used, copied, transmitted, or stored only in accord with that
 written license.
  
 The following legend is applicable only to US Government
 contracts under FAR:
  
                    RESTRICTED RIGHTS LEGEND
  
 Use, reproduction and disclosure by the US Government is
 subject to restrictions as set forth in subparagraphs (a)
 and (c) of the Commercial Computer Software - Restricted
 Rights clause in FAR 52.227-19.
  
 Gaussian, Inc.
 340 Quinnipiac St., Bldg. 40, Wallingford CT 06492
  
  
 ---------------------------------------------------------------
 Warning -- This program may not be used in any manner that
 competes with the business of Gaussian, Inc. or will provide
 assistance to any competitor of Gaussian, Inc.  The licensee
 of this program is prohibited from giving any competitor of
 Gaussian, Inc. access to this program.  By using this program,
 the user acknowledges that Gaussian, Inc. is engaged in the
 business of creating and licensing software in the field of
 computational chemistry and represents and warrants to the
 licensee that it is not a competitor of Gaussian, Inc. and that
 it will not use this program in any manner prohibited above.
 ---------------------------------------------------------------
  

 Cite this work as:
 Gaussian 09, Revision E.01,
 M. J. Frisch, G. W. Trucks, H. B. Schlegel, G. E. Scuseria, 
 M. A. Robb, J. R. Cheeseman, G. Scalmani, V. Barone, B. Mennucci, 
 G. A. Petersson, H. Nakatsuji, M. Caricato, X. Li, H. P. Hratchian, 
 A. F. Izmaylov, J. Bloino, G. Zheng, J. L. Sonnenberg, M. Hada, 
 M. Ehara, K. Toyota, R. Fukuda, J. Hasegawa, M. Ishida, T. Nakajima, 
 Y. Honda, O. Kitao, H. Nakai, T. Vreven, J. A. Montgomery, Jr., 
 J. E. Peralta, F. Ogliaro, M. Bearpark, J. J. Heyd, E. Brothers, 
 K. N. Kudin, V. N. Staroverov, T. Keith, R. Kobayashi, J. Normand, 
 K. Raghavachari, A. Rendell, J. C. Burant, S. S. Iyengar, J. Tomasi, 
 M. Cossi, N. Rega, J. M. Millam, M. Klene, J. E. Knox, J. B. Cross, 
 V. Bakken, C. Adamo, J. Jaramillo, R. Gomperts, R. E. Stratmann, 
 O. Yazyev, A. J. Austin, R. Cammi, C. Pomelli, J. W. Ochterski, 
 R. L. Martin, K. Morokuma, V. G. Zakrzewski, G. A. Voth, 
 P. Salvador, J. J. Dannenberg, S. Dapprich, A. D. Daniels, 
 O. Farkas, J. B. Foresman, J. V. Ortiz, J. Cioslowski, 
 and D. J. Fox, Gaussian, Inc., Wallingford CT, 2013.
 
 ******************************************
 Gaussian 09:  ES64L-G09RevE.01 30-Nov-2015
                22-Aug-2022 
 ******************************************
 %nproc=32
 Will use up to   32 processors via shared memory.
 %mem=180MB
 %chk=G4.Frag_969.chk
 -----
 #P G4
 -----
 1/14=-1,18=20,19=15,26=3,38=1/1,3;
 2/9=110,12=2,17=6,18=5,40=1/2;
 3/5=35,7=104,11=2,16=1,25=1,30=1,71=1,74=-5/1,2,3;
 4//1;
 5/5=2,38=5/2;
 6/7=2,8=2,9=2,10=2,28=1/1;
 7//1,2,3,16;
 1/14=-1,18=20,19=15,26=3/3(2);
 2/9=110/2;
 99//99;
 2/9=110/2;
 3/5=35,7=104,11=2,16=1,25=1,30=1,71=1,74=-5/1,2,3;
 4/5=5,16=3,69=1/1;
 5/5=2,38=5/2;
 7//1,2,3,16;
 1/14=-1,18=20,19=15,26=3/3(-5);
 2/9=110/2;
 6/7=2,8=2,9=2,10=2,19=2,28=1/1;
 99/9=1/99;
 Leave Link    1 at Mon Aug 22 22:52:47 2022, MaxMem=    23592960 cpu:         2.1
 (Enter /public/home/users/caep010/software/Gaussian09/g09/l101.exe)
 --------
 Frag_969
 --------
 Symbolic Z-matrix:
 Charge =  0 Multiplicity = 1
 C                     1.256     1.6549    0.294 
 C                     0.9568    0.3518    0.1968 
 N                     2.0336   -0.5892    0.0807 
 C                    -0.482    -0.1621    0.1254 
 C                    -0.8064   -0.5169   -1.3387 
 N                    -0.5816   -1.3769    0.9455 
 N                    -1.4417    0.8393    0.6263 
 H                     0.5007    2.4245    0.3539 
 H                     2.2886    1.98      0.3146 
 H                     3.0309   -0.2798    0.1172 
 H                     1.844    -1.6065   -0.0571 
 H                    -0.6727    0.3704   -1.9945 
 H                    -0.139    -1.3278   -1.7017 
 H                    -1.8579   -0.8643   -1.429 
 H                    -1.5469   -1.7744    0.8721 
 H                    -0.4352   -1.1197    1.9495 
 H                    -1.5632    1.6004   -0.0817 
 H                    -2.3841    0.3962    0.7267 
 
 NAtoms=     18 NQM=       18 NQMF=       0 NMMI=      0 NMMIF=      0
                NMic=       0 NMicF=      0.
                    Isotopes and Nuclear Properties:
 (Nuclear quadrupole moments (NQMom) in fm**2, nuclear magnetic moments (NMagM)
  in nuclear magnetons)

  Atom         1           2           3           4           5           6           7           8           9          10
 IAtWgt=          12          12          14          12          12          14          14           1           1           1
 AtmWgt=  12.0000000  12.0000000  14.0030740  12.0000000  12.0000000  14.0030740  14.0030740   1.0078250   1.0078250   1.0078250
 NucSpn=           0           0           2           0           0           2           2           1           1           1
 AtZEff=   0.0000000   0.0000000   0.0000000   0.0000000   0.0000000   0.0000000   0.0000000   0.0000000   0.0000000   0.0000000
 NQMom=    0.0000000   0.0000000   2.0440000   0.0000000   0.0000000   2.0440000   2.0440000   0.0000000   0.0000000   0.0000000
 NMagM=    0.0000000   0.0000000   0.4037610   0.0000000   0.0000000   0.4037610   0.4037610   2.7928460   2.7928460   2.7928460
 AtZNuc=   6.0000000   6.0000000   7.0000000   6.0000000   6.0000000   7.0000000   7.0000000   1.0000000   1.0000000   1.0000000

  Atom        11          12          13          14          15          16          17          18
 IAtWgt=           1           1           1           1           1           1           1           1
 AtmWgt=   1.0078250   1.0078250   1.0078250   1.0078250   1.0078250   1.0078250   1.0078250   1.0078250
 NucSpn=           1           1           1           1           1           1           1           1
 AtZEff=   0.0000000   0.0000000   0.0000000   0.0000000   0.0000000   0.0000000   0.0000000   0.0000000
 NQMom=    0.0000000   0.0000000   0.0000000   0.0000000   0.0000000   0.0000000   0.0000000   0.0000000
 NMagM=    2.7928460   2.7928460   2.7928460   2.7928460   2.7928460   2.7928460   2.7928460   2.7928460
 AtZNuc=   1.0000000   1.0000000   1.0000000   1.0000000   1.0000000   1.0000000   1.0000000   1.0000000
 Leave Link  101 at Mon Aug 22 22:52:47 2022, MaxMem=    23592960 cpu:         2.8
 (Enter /public/home/users/caep010/software/Gaussian09/g09/l103.exe)

 GradGradGradGradGradGradGradGradGradGradGradGradGradGradGradGradGradGrad
 Berny optimization.
 Initialization pass.
                           ----------------------------
                           !    Initial Parameters    !
                           ! (Angstroms and Degrees)  !
 --------------------------                            --------------------------
 ! Name  Definition              Value          Derivative Info.                !
 --------------------------------------------------------------------------------
 ! R1    R(1,2)                  1.3405         estimate D2E/DX2                !
 ! R2    R(1,8)                  1.08           estimate D2E/DX2                !
 ! R3    R(1,9)                  1.0828         estimate D2E/DX2                !
 ! R4    R(2,3)                  1.4347         estimate D2E/DX2                !
 ! R5    R(2,4)                  1.5295         estimate D2E/DX2                !
 ! R6    R(3,10)                 1.0448         estimate D2E/DX2                !
 ! R7    R(3,11)                 1.044          estimate D2E/DX2                !
 ! R8    R(4,5)                  1.541          estimate D2E/DX2                !
 ! R9    R(4,6)                  1.4691         estimate D2E/DX2                !
 ! R10   R(4,7)                  1.4747         estimate D2E/DX2                !
 ! R11   R(5,12)                 1.1114         estimate D2E/DX2                !
 ! R12   R(5,13)                 1.1112         estimate D2E/DX2                !
 ! R13   R(5,14)                 1.1111         estimate D2E/DX2                !
 ! R14   R(6,15)                 1.0465         estimate D2E/DX2                !
 ! R15   R(6,16)                 1.0467         estimate D2E/DX2                !
 ! R16   R(7,17)                 1.0466         estimate D2E/DX2                !
 ! R17   R(7,18)                 1.0462         estimate D2E/DX2                !
 ! A1    A(2,1,8)              122.7268         estimate D2E/DX2                !
 ! A2    A(2,1,9)              120.4043         estimate D2E/DX2                !
 ! A3    A(8,1,9)              116.8688         estimate D2E/DX2                !
 ! A4    A(1,2,3)              118.4186         estimate D2E/DX2                !
 ! A5    A(1,2,4)              122.6807         estimate D2E/DX2                !
 ! A6    A(3,2,4)              118.8079         estimate D2E/DX2                !
 ! A7    A(2,3,10)             121.2877         estimate D2E/DX2                !
 ! A8    A(2,3,11)             120.8972         estimate D2E/DX2                !
 ! A9    A(10,3,11)            117.8094         estimate D2E/DX2                !
 ! A10   A(2,4,5)              108.6473         estimate D2E/DX2                !
 ! A11   A(2,4,6)              108.3942         estimate D2E/DX2                !
 ! A12   A(2,4,7)              111.6032         estimate D2E/DX2                !
 ! A13   A(5,4,6)              109.0091         estimate D2E/DX2                !
 ! A14   A(5,4,7)              110.0024         estimate D2E/DX2                !
 ! A15   A(6,4,7)              109.1342         estimate D2E/DX2                !
 ! A16   A(4,5,12)             110.5775         estimate D2E/DX2                !
 ! A17   A(4,5,13)             110.6069         estimate D2E/DX2                !
 ! A18   A(4,5,14)             110.3912         estimate D2E/DX2                !
 ! A19   A(12,5,13)            108.5173         estimate D2E/DX2                !
 ! A20   A(12,5,14)            108.3916         estimate D2E/DX2                !
 ! A21   A(13,5,14)            108.2816         estimate D2E/DX2                !
 ! A22   A(4,6,15)             109.7227         estimate D2E/DX2                !
 ! A23   A(4,6,16)             108.8315         estimate D2E/DX2                !
 ! A24   A(15,6,16)            106.8353         estimate D2E/DX2                !
 ! A25   A(4,7,17)             109.8527         estimate D2E/DX2                !
 ! A26   A(4,7,18)             109.3419         estimate D2E/DX2                !
 ! A27   A(17,7,18)            105.5663         estimate D2E/DX2                !
 ! D1    D(8,1,2,3)            178.0776         estimate D2E/DX2                !
 ! D2    D(8,1,2,4)              1.6247         estimate D2E/DX2                !
 ! D3    D(9,1,2,3)             -1.856          estimate D2E/DX2                !
 ! D4    D(9,1,2,4)           -178.3089         estimate D2E/DX2                !
 ! D5    D(1,2,3,10)             2.9612         estimate D2E/DX2                !
 ! D6    D(1,2,3,11)          -176.1523         estimate D2E/DX2                !
 ! D7    D(4,2,3,10)           179.5542         estimate D2E/DX2                !
 ! D8    D(4,2,3,11)             0.4407         estimate D2E/DX2                !
 ! D9    D(1,2,4,5)            102.0901         estimate D2E/DX2                !
 ! D10   D(1,2,4,6)           -139.5836         estimate D2E/DX2                !
 ! D11   D(1,2,4,7)            -19.3708         estimate D2E/DX2                !
 ! D12   D(3,2,4,5)            -74.3497         estimate D2E/DX2                !
 ! D13   D(3,2,4,6)             43.9767         estimate D2E/DX2                !
 ! D14   D(3,2,4,7)            164.1895         estimate D2E/DX2                !
 ! D15   D(2,4,5,12)           -58.2909         estimate D2E/DX2                !
 ! D16   D(2,4,5,13)            61.9468         estimate D2E/DX2                !
 ! D17   D(2,4,5,14)          -178.2312         estimate D2E/DX2                !
 ! D18   D(6,4,5,12)          -176.2279         estimate D2E/DX2                !
 ! D19   D(6,4,5,13)           -55.9903         estimate D2E/DX2                !
 ! D20   D(6,4,5,14)            63.8317         estimate D2E/DX2                !
 ! D21   D(7,4,5,12)            64.1452         estimate D2E/DX2                !
 ! D22   D(7,4,5,13)          -175.6171         estimate D2E/DX2                !
 ! D23   D(7,4,5,14)           -55.7951         estimate D2E/DX2                !
 ! D24   D(2,4,6,15)          -177.1116         estimate D2E/DX2                !
 ! D25   D(2,4,6,16)            66.3157         estimate D2E/DX2                !
 ! D26   D(5,4,6,15)           -59.0152         estimate D2E/DX2                !
 ! D27   D(5,4,6,16)          -175.5879         estimate D2E/DX2                !
 ! D28   D(7,4,6,15)            61.1485         estimate D2E/DX2                !
 ! D29   D(7,4,6,16)           -55.4242         estimate D2E/DX2                !
 ! D30   D(2,4,7,17)            74.8471         estimate D2E/DX2                !
 ! D31   D(2,4,7,18)          -169.7415         estimate D2E/DX2                !
 ! D32   D(5,4,7,17)           -45.8249         estimate D2E/DX2                !
 ! D33   D(5,4,7,18)            69.5865         estimate D2E/DX2                !
 ! D34   D(6,4,7,17)          -165.3756         estimate D2E/DX2                !
 ! D35   D(6,4,7,18)           -49.9642         estimate D2E/DX2                !
 --------------------------------------------------------------------------------
 Trust Radius=3.00D-01 FncErr=1.00D-07 GrdErr=1.00D-06
 Number of steps in this run=     89 maximum allowed number of steps=    108.
 GradGradGradGradGradGradGradGradGradGradGradGradGradGradGradGradGradGrad

 Leave Link  103 at Mon Aug 22 22:52:47 2022, MaxMem=    23592960 cpu:         0.8
 (Enter /public/home/users/caep010/software/Gaussian09/g09/l202.exe)
                          Input orientation:                          
 ---------------------------------------------------------------------
 Center     Atomic      Atomic             Coordinates (Angstroms)
 Number     Number       Type             X           Y           Z
 ---------------------------------------------------------------------
      1          6           0        1.256000    1.654900    0.294000
      2          6           0        0.956800    0.351800    0.196800
      3          7           0        2.033600   -0.589200    0.080700
      4          6           0       -0.482000   -0.162100    0.125400
      5          6           0       -0.806400   -0.516900   -1.338700
      6          7           0       -0.581600   -1.376900    0.945500
      7          7           0       -1.441700    0.839300    0.626300
      8          1           0        0.500700    2.424500    0.353900
      9          1           0        2.288600    1.980000    0.314600
     10          1           0        3.030900   -0.279800    0.117200
     11          1           0        1.844000   -1.606500   -0.057100
     12          1           0       -0.672700    0.370400   -1.994500
     13          1           0       -0.139000   -1.327800   -1.701700
     14          1           0       -1.857900   -0.864300   -1.429000
     15          1           0       -1.546900   -1.774400    0.872100
     16          1           0       -0.435200   -1.119700    1.949500
     17          1           0       -1.563200    1.600400   -0.081700
     18          1           0       -2.384100    0.396200    0.726700
 ---------------------------------------------------------------------
                    Distance matrix (angstroms):
                    1          2          3          4          5
     1  C    0.000000
     2  C    1.340536   0.000000
     3  N    2.384564   1.434733   0.000000
     4  C    2.520032   1.529489   2.551991   0.000000
     5  C    3.411146   2.494248   3.175771   1.541009   0.000000
     6  N    3.604586   2.432207   2.864895   1.469089   2.451062
     7  N    2.837818   2.484940   3.796841   1.474696   2.470650
     8  H    1.079977   2.128096   3.392169   2.776403   3.636652
     9  H    1.082764   2.106799   2.592397   3.507223   4.306615
    10  H    2.631462   2.169596   1.044829   3.514881   4.111050
    11  H    3.332528   2.164839   1.043952   2.744062   3.139163
    12  H    3.256848   2.730826   3.542788   2.194060   1.111418
    13  H    3.850369   2.761546   2.905627   2.194265   1.111193
    14  H    4.360215   3.470542   4.183138   2.191425   1.111077
    15  H    4.466603   3.353397   3.853699   2.071493   2.649016
    16  H    3.646813   2.678607   3.141467   2.060711   3.363542
    17  H    2.844646   2.826122   4.213988   2.078050   2.575996
    18  H    3.875807   3.382954   4.572133   2.071532   2.754772
                    6          7          8          9         10
     6  N    0.000000
     7  N    2.398584   0.000000
     8  H    3.996499   2.521900   0.000000
     9  H    4.461486   3.913246   1.842746   0.000000
    10  H    3.865212   4.638504   3.710954   2.386770   0.000000
    11  H    2.634665   4.152686   4.268763   3.633017   1.788643
    12  H    3.421251   2.771249   3.333343   4.085591   4.312620
    13  H    2.684394   3.436995   4.326022   4.571679   3.801969
    14  H    2.744076   2.701802   4.422435   5.321996   5.160692
    15  H    1.046517   2.627339   4.700208   5.396053   4.874419
    16  H    1.046710   2.569354   3.997900   4.438482   4.009564
    17  H    3.298938   1.046566   2.264635   3.890696   4.967944
    18  H    2.537866   1.046201   3.546132   4.950997   5.490965
                   11         12         13         14         15
    11  H    0.000000
    12  H    3.741047   0.000000
    13  H    2.591268   1.804010   0.000000
    14  H    4.017093   1.802491   1.801059   0.000000
    15  H    3.519916   3.685348   2.967504   2.494006   0.000000
    16  H    3.075414   4.222788   3.669101   3.674720   1.680863
    17  H    4.679084   2.442272   3.636908   2.824325   3.507032
    18  H    4.743625   3.214729   3.729581   2.552017   2.330998
                   16         17         18
    16  H    0.000000
    17  H    3.577304   0.000000
    18  H    2.755250   1.666579   0.000000
 Stoichiometry    C4H11N3
 Framework group  C1[X(C4H11N3)]
 Deg. of freedom    48
 Full point group                 C1      NOp   1
 Largest Abelian subgroup         C1      NOp   1
 Largest concise Abelian subgroup C1      NOp   1
                         Standard orientation:                         
 ---------------------------------------------------------------------
 Center     Atomic      Atomic             Coordinates (Angstroms)
 Number     Number       Type             X           Y           Z
 ---------------------------------------------------------------------
      1          6           0       -1.537621    1.337074   -0.035328
      2          6           0       -0.934411    0.139967   -0.045859
      3          7           0       -1.752628   -1.037401    0.006899
      4          6           0        0.586789   -0.018444   -0.031969
      5          6           0        1.030076   -0.393805    1.395374
      6          7           0        0.947663   -1.109214   -0.947509
      7          7           0        1.265397    1.218156   -0.462128
      8          1           0       -0.989098    2.267357   -0.042121
      9          1           0       -2.618044    1.406151   -0.018244
     10          1           0       -2.795524   -0.973883    0.006482
     11          1           0       -1.322553   -1.987115    0.060891
     12          1           0        0.709022    0.384063    2.121388
     13          1           0        0.585817   -1.365707    1.699990
     14          1           0        2.136244   -0.485160    1.445769
     15          1           0        1.981546   -1.268438   -0.916985
     16          1           0        0.714216   -0.820154   -1.926052
     17          1           0        1.223679    1.931039    0.302958
     18          1           0        2.282667    1.022313   -0.608221
 ---------------------------------------------------------------------
 Rotational constants (GHZ):      3.3326756      2.2820714      1.8996287
 Leave Link  202 at Mon Aug 22 22:52:47 2022, MaxMem=    23592960 cpu:         0.7
 (Enter /public/home/users/caep010/software/Gaussian09/g09/l301.exe)
 Standard basis: GTBas3 (6D, 7F)
 Ernie: Thresh=  0.10000D-02 Tol=  0.10000D-05 Strict=F.
 There are   272 symmetry adapted cartesian basis functions of A   symmetry.
 There are   251 symmetry adapted basis functions of A   symmetry.
   251 basis functions,   385 primitive gaussians,   272 cartesian basis functions
    28 alpha electrons       28 beta electrons
       nuclear repulsion energy       327.0629229628 Hartrees.
 IExCor=  402 DFT=T Ex+Corr=B3LYP ExCW=0 ScaHFX=  0.200000
 ScaDFX=  0.800000  0.720000  1.000000  0.810000 ScalE2=  1.000000  1.000000
 IRadAn=      0 IRanWt=     -1 IRanGd=            0 ICorTp=0 IEmpDi=  4
 NAtoms=   18 NActive=   18 NUniq=   18 SFac= 1.00D+00 NAtFMM=   60 NAOKFM=F Big=F
 Integral buffers will be    131072 words long.
 Raffenetti 2 integral format.
 Two-electron integral symmetry is turned on.
 Leave Link  301 at Mon Aug 22 22:52:48 2022, MaxMem=    23592960 cpu:         1.9
 (Enter /public/home/users/caep010/software/Gaussian09/g09/l302.exe)
 NPDir=0 NMtPBC=     1 NCelOv=     1 NCel=       1 NClECP=     1 NCelD=      1
         NCelK=      1 NCelE2=     1 NClLst=     1 CellRange=     0.0.
 One-electron integrals computed using PRISM.
 PrsmSu:  requested number of processors reduced to:   3 ShMem   1 Linda.
 PrsmSu:  requested number of processors reduced to:  11 ShMem   1 Linda.
 NBasis=   251 RedAO= T EigKep=  3.28D-04  NBF=   251
 NBsUse=   251 1.00D-06 EigRej= -1.00D+00 NBFU=   251
 Precomputing XC quadrature grid using
 IXCGrd= 4 IRadAn=           0 IRanWt=          -1 IRanGd=           0 AccXCQ= 0.00D+00.
 Generated NRdTot=       0 NPtTot=           0 NUsed=           0 NTot=          32
 NSgBfM=   272   272   272   272   272 MxSgAt=    18 MxSgA2=    18.
 Leave Link  302 at Mon Aug 22 22:52:48 2022, MaxMem=    23592960 cpu:         5.2
 (Enter /public/home/users/caep010/software/Gaussian09/g09/l303.exe)
 DipDrv:  MaxL=1.
 Leave Link  303 at Mon Aug 22 22:52:48 2022, MaxMem=    23592960 cpu:         2.7
 (Enter /public/home/users/caep010/software/Gaussian09/g09/l401.exe)
 ExpMin= 1.61D-01 ExpMax= 4.17D+03 ExpMxC= 6.27D+02 IAcc=1 IRadAn=         1 AccDes= 0.00D+00
 Harris functional with IExCor=  402 and IRadAn=       1 diagonalized for initial guess.
 HarFok:  IExCor=  402 AccDes= 0.00D+00 IRadAn=         1 IDoV= 1 UseB2=F ITyADJ=14
 ICtDFT=  3500011 ScaDFX=  1.000000  1.000000  1.000000  1.000000
 CalDSu:  requested number of processors reduced to:  18 ShMem   1 Linda.
 FoFCou: FMM=F IPFlag=           0 FMFlag=      100000 FMFlg1=           0
         NFxFlg=           0 DoJE=T BraDBF=F KetDBF=T FulRan=T
         wScrn=  0.000000 ICntrl=     500 IOpCl=  0 I1Cent=   200000004 NGrid=           0
         NMat0=    1 NMatS0=      1 NMatT0=    0 NMatD0=    1 NMtDS0=    0 NMtDT0=    0
 Petite list used in FoFCou.
 CoulSu:  requested number of processors reduced to:  11 ShMem   1 Linda.
 CoulSu:  requested number of processors reduced to:  11 ShMem   1 Linda.
 CoulSu:  requested number of processors reduced to:  12 ShMem   1 Linda.
 CoulSu:  requested number of processors reduced to:  12 ShMem   1 Linda.
 Harris En= -323.325297102419    
 JPrj=0 DoOrth=F DoCkMO=F.
 Leave Link  401 at Mon Aug 22 22:52:48 2022, MaxMem=    23592960 cpu:         7.5
 (Enter /public/home/users/caep010/software/Gaussian09/g09/l502.exe)
 Closed shell SCF:
 Using DIIS extrapolation, IDIIS=  1040.
 Integral symmetry usage will be decided dynamically.
 IVT=      251200 IEndB=      251200 NGot=    23592960 MDV=    23432657
 LenX=    23432657 LenY=    23358232
 Requested convergence on RMS density matrix=1.00D-08 within 128 cycles.
 Requested convergence on MAX density matrix=1.00D-06.
 Requested convergence on             energy=1.00D-06.
 No special actions if energy rises.
 Fock matrices will be formed incrementally for  20 cycles.
 Integral accuracy reduced to 1.0D-05 until final iterations.

 Cycle   1  Pass 0  IDiag  1:
 FoFJK:  IHMeth= 1 ICntrl=       0 DoSepK=F KAlg= 0 I1Cent=   0 FoldK=F
 IRaf= 970000000 NMat=   1 IRICut=       1 DoRegI=T DoRafI=F ISym2E= 0.
 FoFCou: FMM=F IPFlag=           0 FMFlag=      100000 FMFlg1=           0
         NFxFlg=           0 DoJE=F BraDBF=F KetDBF=F FulRan=T
         wScrn=  0.000000 ICntrl=       0 IOpCl=  0 I1Cent=           0 NGrid=           0
         NMat0=    1 NMatS0=      1 NMatT0=    0 NMatD0=    1 NMtDS0=    0 NMtDT0=    0
 Symmetry not used in FoFCou.
 CoulSu:  requested number of processors reduced to:  11 ShMem   1 Linda.
 CalDSu:  requested number of processors reduced to:  18 ShMem   1 Linda.
 E= -323.008681712829    
 DIIS: error= 2.17D-02 at cycle   1 NSaved=   1.
 NSaved= 1 IEnMin= 1 EnMin= -323.008681712829     IErMin= 1 ErrMin= 2.17D-02
 ErrMax= 2.17D-02  0.00D+00 EMaxC= 1.00D-01 BMatC= 2.91D-01 BMatP= 2.91D-01
 IDIUse=3 WtCom= 7.83D-01 WtEn= 2.17D-01
 Coeff-Com:  0.100D+01
 Coeff-En:   0.100D+01
 Coeff:      0.100D+01
 Gap=     0.213 Goal=   None    Shift=    0.000
 GapD=    0.213 DampG=1.000 DampE=0.500 DampFc=0.5000 IDamp=-1.
 Damping current iteration by 5.00D-01
 RMSDP=5.24D-03 MaxDP=1.90D-01              OVMax= 2.46D-01

 Cycle   2  Pass 0  IDiag  1:
 RMSU=  2.59D-03    CP:  9.75D-01
 CoulSu:  requested number of processors reduced to:  11 ShMem   1 Linda.
 CalDSu:  requested number of processors reduced to:  18 ShMem   1 Linda.
 E= -323.127980324229     Delta-E=       -0.119298611399 Rises=F Damp=T
 DIIS: error= 1.09D-02 at cycle   2 NSaved=   2.
 NSaved= 2 IEnMin= 2 EnMin= -323.127980324229     IErMin= 2 ErrMin= 1.09D-02
 ErrMax= 1.09D-02  0.00D+00 EMaxC= 1.00D-01 BMatC= 1.40D-02 BMatP= 2.91D-01
 IDIUse=3 WtCom= 8.91D-01 WtEn= 1.09D-01
 Coeff-Com:  0.987D-01 0.901D+00
 Coeff-En:   0.174D+00 0.826D+00
 Coeff:      0.107D+00 0.893D+00
 Gap=     0.228 Goal=   None    Shift=    0.000
 RMSDP=9.61D-04 MaxDP=4.35D-02 DE=-1.19D-01 OVMax= 1.45D-01

 Cycle   3  Pass 0  IDiag  1:
 RMSU=  7.94D-04    CP:  9.70D-01  7.93D-01
 CoulSu:  requested number of processors reduced to:  11 ShMem   1 Linda.
 CalDSu:  requested number of processors reduced to:  18 ShMem   1 Linda.
 E= -323.285810485610     Delta-E=       -0.157830161381 Rises=F Damp=F
 DIIS: error= 2.29D-03 at cycle   3 NSaved=   3.
 NSaved= 3 IEnMin= 3 EnMin= -323.285810485610     IErMin= 3 ErrMin= 2.29D-03
 ErrMax= 2.29D-03  0.00D+00 EMaxC= 1.00D-01 BMatC= 2.82D-03 BMatP= 1.40D-02
 IDIUse=3 WtCom= 9.77D-01 WtEn= 2.29D-02
 Coeff-Com:  0.141D-01 0.263D+00 0.723D+00
 Coeff-En:   0.000D+00 0.000D+00 0.100D+01
 Coeff:      0.138D-01 0.257D+00 0.729D+00
 Gap=     0.230 Goal=   None    Shift=    0.000
 RMSDP=3.49D-04 MaxDP=1.90D-02 DE=-1.58D-01 OVMax= 3.70D-02

 Cycle   4  Pass 0  IDiag  1:
 RMSU=  3.15D-04    CP:  9.71D-01  8.08D-01  8.18D-01
 CoulSu:  requested number of processors reduced to:  11 ShMem   1 Linda.
 CalDSu:  requested number of processors reduced to:  18 ShMem   1 Linda.
 E= -323.286327093013     Delta-E=       -0.000516607403 Rises=F Damp=F
 DIIS: error= 2.62D-03 at cycle   4 NSaved=   4.
 NSaved= 4 IEnMin= 4 EnMin= -323.286327093013     IErMin= 3 ErrMin= 2.29D-03
 ErrMax= 2.62D-03  0.00D+00 EMaxC= 1.00D-01 BMatC= 2.18D-03 BMatP= 2.82D-03
 IDIUse=3 WtCom= 9.74D-01 WtEn= 2.62D-02
 Coeff-Com: -0.198D-02 0.433D-01 0.468D+00 0.490D+00
 Coeff-En:   0.000D+00 0.000D+00 0.454D+00 0.546D+00
 Coeff:     -0.193D-02 0.422D-01 0.468D+00 0.492D+00
 Gap=     0.228 Goal=   None    Shift=    0.000
 RMSDP=1.94D-04 MaxDP=1.03D-02 DE=-5.17D-04 OVMax= 2.26D-02

 Cycle   5  Pass 0  IDiag  1:
 RMSU=  7.20D-05    CP:  9.71D-01  8.10D-01  8.82D-01  4.53D-01
 CoulSu:  requested number of processors reduced to:  11 ShMem   1 Linda.
 CalDSu:  requested number of processors reduced to:  18 ShMem   1 Linda.
 E= -323.288349028322     Delta-E=       -0.002021935310 Rises=F Damp=F
 DIIS: error= 5.32D-04 at cycle   5 NSaved=   5.
 NSaved= 5 IEnMin= 5 EnMin= -323.288349028322     IErMin= 5 ErrMin= 5.32D-04
 ErrMax= 5.32D-04  0.00D+00 EMaxC= 1.00D-01 BMatC= 1.04D-04 BMatP= 2.18D-03
 IDIUse=3 WtCom= 9.95D-01 WtEn= 5.32D-03
 Coeff-Com: -0.140D-02 0.888D-02 0.220D+00 0.273D+00 0.499D+00
 Coeff-En:   0.000D+00 0.000D+00 0.000D+00 0.000D+00 0.100D+01
 Coeff:     -0.139D-02 0.883D-02 0.218D+00 0.272D+00 0.502D+00
 Gap=     0.228 Goal=   None    Shift=    0.000
 RMSDP=4.88D-05 MaxDP=3.08D-03 DE=-2.02D-03 OVMax= 6.11D-03

 Cycle   6  Pass 0  IDiag  1:
 RMSU=  2.58D-05    CP:  9.71D-01  8.07D-01  8.89D-01  5.00D-01  4.76D-01
 CoulSu:  requested number of processors reduced to:  11 ShMem   1 Linda.
 CalDSu:  requested number of processors reduced to:  18 ShMem   1 Linda.
 E= -323.288441575314     Delta-E=       -0.000092546992 Rises=F Damp=F
 DIIS: error= 1.48D-04 at cycle   6 NSaved=   6.
 NSaved= 6 IEnMin= 6 EnMin= -323.288441575314     IErMin= 6 ErrMin= 1.48D-04
 ErrMax= 1.48D-04  0.00D+00 EMaxC= 1.00D-01 BMatC= 9.62D-06 BMatP= 1.04D-04
 IDIUse=3 WtCom= 9.99D-01 WtEn= 1.48D-03
 Coeff-Com: -0.355D-03-0.622D-03 0.629D-01 0.878D-01 0.280D+00 0.570D+00
 Coeff-En:   0.000D+00 0.000D+00 0.000D+00 0.000D+00 0.535D-01 0.946D+00
 Coeff:     -0.355D-03-0.621D-03 0.628D-01 0.877D-01 0.280D+00 0.571D+00
 Gap=     0.228 Goal=   None    Shift=    0.000
 RMSDP=1.23D-05 MaxDP=6.22D-04 DE=-9.25D-05 OVMax= 1.27D-03

 Cycle   7  Pass 0  IDiag  1:
 RMSU=  4.00D-06    CP:  9.71D-01  8.07D-01  8.88D-01  4.99D-01  5.72D-01
                    CP:  6.39D-01
 CoulSu:  requested number of processors reduced to:  11 ShMem   1 Linda.
 CalDSu:  requested number of processors reduced to:  18 ShMem   1 Linda.
 E= -323.288450944044     Delta-E=       -0.000009368730 Rises=F Damp=F
 DIIS: error= 8.63D-06 at cycle   7 NSaved=   7.
 NSaved= 7 IEnMin= 7 EnMin= -323.288450944044     IErMin= 7 ErrMin= 8.63D-06
 ErrMax= 8.63D-06  0.00D+00 EMaxC= 1.00D-01 BMatC= 5.50D-08 BMatP= 9.62D-06
 IDIUse=1 WtCom= 1.00D+00 WtEn= 0.00D+00
 Coeff-Com:  0.364D-04-0.536D-03 0.780D-02 0.113D-01 0.505D-01 0.122D+00
 Coeff-Com:  0.809D+00
 Coeff:      0.364D-04-0.536D-03 0.780D-02 0.113D-01 0.505D-01 0.122D+00
 Coeff:      0.809D+00
 Gap=     0.228 Goal=   None    Shift=    0.000
 RMSDP=1.44D-06 MaxDP=7.73D-05 DE=-9.37D-06 OVMax= 8.37D-05

 Initial convergence to 1.0D-05 achieved.  Increase integral accuracy.
 Cycle   8  Pass 1  IDiag  1:
 CoulSu:  requested number of processors reduced to:  11 ShMem   1 Linda.
 CalDSu:  requested number of processors reduced to:  18 ShMem   1 Linda.
 E= -323.288554028839     Delta-E=       -0.000103084795 Rises=F Damp=F
 DIIS: error= 1.77D-05 at cycle   1 NSaved=   1.
 NSaved= 1 IEnMin= 1 EnMin= -323.288554028839     IErMin= 1 ErrMin= 1.77D-05
 ErrMax= 1.77D-05  0.00D+00 EMaxC= 1.00D-01 BMatC= 2.01D-07 BMatP= 2.01D-07
 IDIUse=1 WtCom= 1.00D+00 WtEn= 0.00D+00
 Coeff-Com:  0.100D+01
 Coeff:      0.100D+01
 Gap=     0.228 Goal=   None    Shift=    0.000
 RMSDP=1.44D-06 MaxDP=7.73D-05 DE=-1.03D-04 OVMax= 1.22D-04

 Cycle   9  Pass 1  IDiag  1:
 RMSU=  7.55D-06    CP:  1.00D+00
 CoulSu:  requested number of processors reduced to:  11 ShMem   1 Linda.
 CalDSu:  requested number of processors reduced to:  18 ShMem   1 Linda.
 E= -323.288554159586     Delta-E=       -0.000000130747 Rises=F Damp=F
 DIIS: error= 1.06D-05 at cycle   2 NSaved=   2.
 NSaved= 2 IEnMin= 2 EnMin= -323.288554159586     IErMin= 2 ErrMin= 1.06D-05
 ErrMax= 1.06D-05  0.00D+00 EMaxC= 1.00D-01 BMatC= 3.97D-08 BMatP= 2.01D-07
 IDIUse=1 WtCom= 1.00D+00 WtEn= 0.00D+00
 Coeff-Com:  0.216D+00 0.784D+00
 Coeff:      0.216D+00 0.784D+00
 Gap=     0.228 Goal=   None    Shift=    0.000
 RMSDP=1.43D-06 MaxDP=6.52D-05 DE=-1.31D-07 OVMax= 1.41D-04

 Cycle  10  Pass 1  IDiag  1:
 RMSU=  1.43D-06    CP:  1.00D+00  1.00D+00
 CoulSu:  requested number of processors reduced to:  11 ShMem   1 Linda.
 CalDSu:  requested number of processors reduced to:  18 ShMem   1 Linda.
 E= -323.288554160962     Delta-E=       -0.000000001376 Rises=F Damp=F
 DIIS: error= 1.00D-05 at cycle   3 NSaved=   3.
 NSaved= 3 IEnMin= 3 EnMin= -323.288554160962     IErMin= 3 ErrMin= 1.00D-05
 ErrMax= 1.00D-05  0.00D+00 EMaxC= 1.00D-01 BMatC= 3.83D-08 BMatP= 3.97D-08
 IDIUse=1 WtCom= 1.00D+00 WtEn= 0.00D+00
 Coeff-Com: -0.106D-01 0.497D+00 0.513D+00
 Coeff:     -0.106D-01 0.497D+00 0.513D+00
 Gap=     0.228 Goal=   None    Shift=    0.000
 RMSDP=7.66D-07 MaxDP=4.14D-05 DE=-1.38D-09 OVMax= 9.93D-05

 Cycle  11  Pass 1  IDiag  1:
 RMSU=  3.03D-07    CP:  1.00D+00  1.03D+00  5.25D-01
 CoulSu:  requested number of processors reduced to:  11 ShMem   1 Linda.
 CalDSu:  requested number of processors reduced to:  18 ShMem   1 Linda.
 E= -323.288554195817     Delta-E=       -0.000000034855 Rises=F Damp=F
 DIIS: error= 2.23D-06 at cycle   4 NSaved=   4.
 NSaved= 4 IEnMin= 4 EnMin= -323.288554195817     IErMin= 4 ErrMin= 2.23D-06
 ErrMax= 2.23D-06  0.00D+00 EMaxC= 1.00D-01 BMatC= 1.98D-09 BMatP= 3.83D-08
 IDIUse=1 WtCom= 1.00D+00 WtEn= 0.00D+00
 Coeff-Com: -0.129D-01 0.289D+00 0.323D+00 0.401D+00
 Coeff:     -0.129D-01 0.289D+00 0.323D+00 0.401D+00
 Gap=     0.228 Goal=   None    Shift=    0.000
 RMSDP=1.79D-07 MaxDP=1.11D-05 DE=-3.49D-08 OVMax= 2.29D-05

 Cycle  12  Pass 1  IDiag  1:
 RMSU=  8.23D-08    CP:  1.00D+00  1.03D+00  5.45D-01  4.85D-01
 CoulSu:  requested number of processors reduced to:  11 ShMem   1 Linda.
 CalDSu:  requested number of processors reduced to:  18 ShMem   1 Linda.
 E= -323.288554197752     Delta-E=       -0.000000001935 Rises=F Damp=F
 DIIS: error= 2.26D-07 at cycle   5 NSaved=   5.
 NSaved= 5 IEnMin= 5 EnMin= -323.288554197752     IErMin= 5 ErrMin= 2.26D-07
 ErrMax= 2.26D-07  0.00D+00 EMaxC= 1.00D-01 BMatC= 2.90D-11 BMatP= 1.98D-09
 IDIUse=1 WtCom= 1.00D+00 WtEn= 0.00D+00
 Coeff-Com: -0.420D-02 0.754D-01 0.870D-01 0.154D+00 0.687D+00
 Coeff:     -0.420D-02 0.754D-01 0.870D-01 0.154D+00 0.687D+00
 Gap=     0.228 Goal=   None    Shift=    0.000
 RMSDP=2.95D-08 MaxDP=1.31D-06 DE=-1.94D-09 OVMax= 2.22D-06

 Cycle  13  Pass 1  IDiag  1:
 RMSU=  2.29D-08    CP:  1.00D+00  1.03D+00  5.42D-01  5.18D-01  8.16D-01
 CoulSu:  requested number of processors reduced to:  11 ShMem   1 Linda.
 CalDSu:  requested number of processors reduced to:  18 ShMem   1 Linda.
 E= -323.288554197783     Delta-E=       -0.000000000031 Rises=F Damp=F
 DIIS: error= 1.18D-07 at cycle   6 NSaved=   6.
 NSaved= 6 IEnMin= 6 EnMin= -323.288554197783     IErMin= 6 ErrMin= 1.18D-07
 ErrMax= 1.18D-07  0.00D+00 EMaxC= 1.00D-01 BMatC= 4.64D-12 BMatP= 2.90D-11
 IDIUse=1 WtCom= 1.00D+00 WtEn= 0.00D+00
 Coeff-Com: -0.463D-03 0.319D-02 0.493D-02 0.258D-01 0.323D+00 0.644D+00
 Coeff:     -0.463D-03 0.319D-02 0.493D-02 0.258D-01 0.323D+00 0.644D+00
 Gap=     0.228 Goal=   None    Shift=    0.000
 RMSDP=1.05D-08 MaxDP=4.72D-07 DE=-3.08D-11 OVMax= 7.67D-07

 Cycle  14  Pass 1  IDiag  1:
 RMSU=  5.98D-09    CP:  1.00D+00  1.03D+00  5.44D-01  5.21D-01  8.73D-01
                    CP:  7.27D-01
 CoulSu:  requested number of processors reduced to:  11 ShMem   1 Linda.
 CalDSu:  requested number of processors reduced to:  18 ShMem   1 Linda.
 E= -323.288554197785     Delta-E=       -0.000000000002 Rises=F Damp=F
 DIIS: error= 4.01D-08 at cycle   7 NSaved=   7.
 NSaved= 7 IEnMin= 7 EnMin= -323.288554197785     IErMin= 7 ErrMin= 4.01D-08
 ErrMax= 4.01D-08  0.00D+00 EMaxC= 1.00D-01 BMatC= 6.40D-13 BMatP= 4.64D-12
 IDIUse=1 WtCom= 1.00D+00 WtEn= 0.00D+00
 Coeff-Com: -0.371D-04-0.249D-02-0.222D-02 0.416D-02 0.126D+00 0.353D+00
 Coeff-Com:  0.522D+00
 Coeff:     -0.371D-04-0.249D-02-0.222D-02 0.416D-02 0.126D+00 0.353D+00
 Coeff:      0.522D+00
 Gap=     0.228 Goal=   None    Shift=    0.000
 RMSDP=2.98D-09 MaxDP=1.41D-07 DE=-2.16D-12 OVMax= 2.18D-07

 SCF Done:  E(RB3LYP) =  -323.288554198     A.U. after   14 cycles
            NFock= 14  Conv=0.30D-08     -V/T= 2.0093
 KE= 3.202948461207D+02 PE=-1.405851948227D+03 EE= 4.352056249455D+02
 Leave Link  502 at Mon Aug 22 22:53:04 2022, MaxMem=    23592960 cpu:       249.2
 (Enter /public/home/users/caep010/software/Gaussian09/g09/l601.exe)
 Copying SCF densities to generalized density rwf, IOpCl= 0 IROHF=0.

 **********************************************************************

            Population analysis using the SCF density.

 **********************************************************************

 Orbital symmetries:
       Occupied  (A) (A) (A) (A) (A) (A) (A) (A) (A) (A) (A) (A)
                 (A) (A) (A) (A) (A) (A) (A) (A) (A) (A) (A) (A)
                 (A) (A) (A) (A)
       Virtual   (A) (A) (A) (A) (A) (A) (A) (A) (A) (A) (A) (A)
                 (A) (A) (A) (A) (A) (A) (A) (A) (A) (A) (A) (A)
                 (A) (A) (A) (A) (A) (A) (A) (A) (A) (A) (A) (A)
                 (A) (A) (A) (A) (A) (A) (A) (A) (A) (A) (A) (A)
                 (A) (A) (A) (A) (A) (A) (A) (A) (A) (A) (A) (A)
                 (A) (A) (A) (A) (A) (A) (A) (A) (A) (A) (A) (A)
                 (A) (A) (A) (A) (A) (A) (A) (A) (A) (A) (A) (A)
                 (A) (A) (A) (A) (A) (A) (A) (A) (A) (A) (A) (A)
                 (A) (A) (A) (A) (A) (A) (A) (A) (A) (A) (A) (A)
                 (A) (A) (A) (A) (A) (A) (A) (A) (A) (A) (A) (A)
                 (A) (A) (A) (A) (A) (A) (A) (A) (A) (A) (A) (A)
                 (A) (A) (A) (A) (A) (A) (A) (A) (A) (A) (A) (A)
                 (A) (A) (A) (A) (A) (A) (A) (A) (A) (A) (A) (A)
                 (A) (A) (A) (A) (A) (A) (A) (A) (A) (A) (A) (A)
                 (A) (A) (A) (A) (A) (A) (A) (A) (A) (A) (A) (A)
                 (A) (A) (A) (A) (A) (A) (A) (A) (A) (A) (A) (A)
                 (A) (A) (A) (A) (A) (A) (A) (A) (A) (A) (A) (A)
                 (A) (A) (A) (A) (A) (A) (A) (A) (A) (A) (A) (A)
                 (A) (A) (A) (A) (A) (A) (A)
 The electronic state is 1-A.
 Alpha  occ. eigenvalues --  -14.31923 -14.31598 -14.30931 -10.24759 -10.20828
 Alpha  occ. eigenvalues --  -10.17768 -10.13605  -0.92122  -0.86137  -0.82246
 Alpha  occ. eigenvalues --   -0.72552  -0.70130  -0.60987  -0.52744  -0.50103
 Alpha  occ. eigenvalues --   -0.48371  -0.46739  -0.44349  -0.42423  -0.40809
 Alpha  occ. eigenvalues --   -0.38765  -0.37535  -0.36674  -0.33778  -0.30347
 Alpha  occ. eigenvalues --   -0.24925  -0.23594  -0.18073
 Alpha virt. eigenvalues --    0.04723   0.06622   0.08959   0.11043   0.12434
 Alpha virt. eigenvalues --    0.13598   0.15235   0.15402   0.18040   0.18787
 Alpha virt. eigenvalues --    0.18895   0.20870   0.23645   0.25062   0.25733
 Alpha virt. eigenvalues --    0.28738   0.33638   0.36516   0.45694   0.49106
 Alpha virt. eigenvalues --    0.50073   0.51353   0.52378   0.53339   0.54876
 Alpha virt. eigenvalues --    0.56073   0.56605   0.59283   0.60318   0.60869
 Alpha virt. eigenvalues --    0.61825   0.62816   0.68525   0.70297   0.72196
 Alpha virt. eigenvalues --    0.72458   0.72993   0.75653   0.76743   0.77653
 Alpha virt. eigenvalues --    0.78508   0.78966   0.80095   0.81607   0.83455
 Alpha virt. eigenvalues --    0.83595   0.85585   0.86772   0.88332   0.88882
 Alpha virt. eigenvalues --    0.90199   0.95209   0.97120   0.99007   1.00218
 Alpha virt. eigenvalues --    1.02755   1.06885   1.13356   1.16449   1.20099
 Alpha virt. eigenvalues --    1.26568   1.28297   1.31960   1.33230   1.37667
 Alpha virt. eigenvalues --    1.39010   1.42336   1.43053   1.47361   1.48127
 Alpha virt. eigenvalues --    1.52352   1.53554   1.57828   1.60310   1.60876
 Alpha virt. eigenvalues --    1.64132   1.66896   1.69314   1.71186   1.72531
 Alpha virt. eigenvalues --    1.75152   1.79252   1.80666   1.83053   1.84708
 Alpha virt. eigenvalues --    1.89944   1.90753   1.93637   1.95178   1.96313
 Alpha virt. eigenvalues --    2.06930   2.10263   2.11760   2.20069   2.21995
 Alpha virt. eigenvalues --    2.22444   2.26428   2.31107   2.33511   2.35334
 Alpha virt. eigenvalues --    2.39946   2.41734   2.44554   2.47637   2.52261
 Alpha virt. eigenvalues --    2.52844   2.58444   2.67491   2.72893   2.74111
 Alpha virt. eigenvalues --    2.78865   2.82007   2.82295   2.83734   2.85324
 Alpha virt. eigenvalues --    2.86615   2.87080   2.88706   2.91445   2.92747
 Alpha virt. eigenvalues --    2.93650   2.97239   2.99361   3.00958   3.01882
 Alpha virt. eigenvalues --    3.04711   3.07842   3.10290   3.12025   3.13987
 Alpha virt. eigenvalues --    3.16520   3.19660   3.25738   3.28972   3.35053
 Alpha virt. eigenvalues --    3.35947   3.40288   3.41720   3.43443   3.51817
 Alpha virt. eigenvalues --    3.57263   3.59783   3.62154   3.65171   3.69746
 Alpha virt. eigenvalues --    3.72020   3.74582   3.77721   3.79301   3.84889
 Alpha virt. eigenvalues --    3.86553   3.92426   3.97005   3.99122   4.02436
 Alpha virt. eigenvalues --    4.06442   4.07255   4.10470   4.11760   4.14401
 Alpha virt. eigenvalues --    4.15336   4.19465   4.23189   4.25490   4.27134
 Alpha virt. eigenvalues --    4.30552   4.31816   4.33249   4.33557   4.35263
 Alpha virt. eigenvalues --    4.37611   4.40472   4.44395   4.45573   4.47343
 Alpha virt. eigenvalues --    4.47798   4.52439   4.53576   4.59741   4.60063
 Alpha virt. eigenvalues --    4.61448   4.62117   4.63572   4.67036   4.69781
 Alpha virt. eigenvalues --    4.72042   4.73181   4.75236   4.75987   4.77744
 Alpha virt. eigenvalues --    4.81343   4.82610   4.85850   4.87142   4.89053
 Alpha virt. eigenvalues --    4.92333   4.94234   4.97480   5.03824   5.05025
 Alpha virt. eigenvalues --    5.08750   5.14715   5.18400   5.26594   5.29307
 Alpha virt. eigenvalues --    5.43466   5.49036   5.57089   5.61786   5.62997
 Alpha virt. eigenvalues --    5.73536   5.75804   6.16351   9.94467  10.43286
 Alpha virt. eigenvalues --   10.90630  11.09462  11.40680  11.47432  11.76795
 Alpha virt. eigenvalues --   12.09334  12.90485  13.93995
          Condensed to atoms (all electrons):
               1          2          3          4          5          6
     1  C    5.294514   0.548618  -0.047181  -0.041449  -0.000136   0.000788
     2  C    0.548618   4.401692   0.407807   0.373018  -0.060848  -0.035975
     3  N   -0.047181   0.407807   6.624403  -0.044810  -0.003234  -0.004512
     4  C   -0.041449   0.373018  -0.044810   4.665594   0.381053   0.355090
     5  C   -0.000136  -0.060848  -0.003234   0.381053   5.148233  -0.042353
     6  N    0.000788  -0.035975  -0.004512   0.355090  -0.042353   6.654676
     7  N   -0.005214  -0.045963   0.001669   0.412374  -0.081581  -0.062252
     8  H    0.364506  -0.003883   0.003904  -0.014821   0.000839   0.000190
     9  H    0.338050   0.005218  -0.013931   0.005767  -0.000044  -0.000105
    10  H   -0.008307  -0.026009   0.345721   0.003781  -0.000115   0.000265
    11  H    0.006326  -0.032054   0.339707  -0.004373   0.000656   0.013439
    12  H    0.003678  -0.002081  -0.000433  -0.018270   0.363939   0.003342
    13  H   -0.000886  -0.002210   0.003975  -0.012530   0.340294  -0.001962
    14  H   -0.000182   0.003794   0.000113  -0.019008   0.347341  -0.003905
    15  H   -0.000346   0.005301   0.000286  -0.042220  -0.008201   0.323473
    16  H    0.001077  -0.002059   0.000718  -0.045317   0.007858   0.328964
    17  H   -0.000355   0.002452  -0.000134  -0.050160  -0.006792   0.007340
    18  H   -0.000586   0.007071  -0.000067  -0.054682  -0.003636   0.000167
               7          8          9         10         11         12
     1  C   -0.005214   0.364506   0.338050  -0.008307   0.006326   0.003678
     2  C   -0.045963  -0.003883   0.005218  -0.026009  -0.032054  -0.002081
     3  N    0.001669   0.003904  -0.013931   0.345721   0.339707  -0.000433
     4  C    0.412374  -0.014821   0.005767   0.003781  -0.004373  -0.018270
     5  C   -0.081581   0.000839  -0.000044  -0.000115   0.000656   0.363939
     6  N   -0.062252   0.000190  -0.000105   0.000265   0.013439   0.003342
     7  N    6.650292   0.008365   0.000322  -0.000041   0.000068  -0.000838
     8  H    0.008365   0.590160  -0.045154  -0.000219  -0.000166   0.000051
     9  H    0.000322  -0.045154   0.627332   0.005881  -0.000006  -0.000063
    10  H   -0.000041  -0.000219   0.005881   0.457745  -0.029402  -0.000021
    11  H    0.000068  -0.000166  -0.000006  -0.029402   0.448270   0.000047
    12  H   -0.000838   0.000051  -0.000063  -0.000021   0.000047   0.583096
    13  H    0.006303  -0.000038  -0.000010   0.000013   0.001707  -0.026686
    14  H    0.000036  -0.000036   0.000005   0.000006  -0.000086  -0.029860
    15  H   -0.002865  -0.000013   0.000005   0.000008  -0.000445  -0.000234
    16  H    0.001415   0.000074  -0.000011  -0.000082  -0.000403  -0.000238
    17  H    0.317550   0.000126  -0.000042  -0.000001  -0.000025   0.003246
    18  H    0.322505  -0.000258  -0.000003   0.000003  -0.000015  -0.000204
              13         14         15         16         17         18
     1  C   -0.000886  -0.000182  -0.000346   0.001077  -0.000355  -0.000586
     2  C   -0.002210   0.003794   0.005301  -0.002059   0.002452   0.007071
     3  N    0.003975   0.000113   0.000286   0.000718  -0.000134  -0.000067
     4  C   -0.012530  -0.019008  -0.042220  -0.045317  -0.050160  -0.054682
     5  C    0.340294   0.347341  -0.008201   0.007858  -0.006792  -0.003636
     6  N   -0.001962  -0.003905   0.323473   0.328964   0.007340   0.000167
     7  N    0.006303   0.000036  -0.002865   0.001415   0.317550   0.322505
     8  H   -0.000038  -0.000036  -0.000013   0.000074   0.000126  -0.000258
     9  H   -0.000010   0.000005   0.000005  -0.000011  -0.000042  -0.000003
    10  H    0.000013   0.000006   0.000008  -0.000082  -0.000001   0.000003
    11  H    0.001707  -0.000086  -0.000445  -0.000403  -0.000025  -0.000015
    12  H   -0.026686  -0.029860  -0.000234  -0.000238   0.003246  -0.000204
    13  H    0.604052  -0.027889   0.000110  -0.000329   0.000056  -0.000025
    14  H   -0.027889   0.625774   0.004522  -0.000232   0.001017   0.003832
    15  H    0.000110   0.004522   0.524869  -0.028846   0.000032   0.006935
    16  H   -0.000329  -0.000232  -0.028846   0.499294  -0.000212   0.000265
    17  H    0.000056   0.001017   0.000032  -0.000212   0.526527  -0.022537
    18  H   -0.000025   0.003832   0.006935   0.000265  -0.022537   0.529941
 Mulliken charges:
               1
     1  C   -0.452916
     2  C    0.456110
     3  N   -0.614001
     4  C    0.150962
     5  C   -0.383272
     6  N   -0.536667
     7  N   -0.522144
     8  H    0.096372
     9  H    0.076789
    10  H    0.250776
    11  H    0.256753
    12  H    0.121528
    13  H    0.116056
    14  H    0.094757
    15  H    0.217628
    16  H    0.238063
    17  H    0.221911
    18  H    0.211295
 Sum of Mulliken charges =  -0.00000
 Mulliken charges with hydrogens summed into heavy atoms:
               1
     1  C   -0.279755
     2  C    0.456110
     3  N   -0.106471
     4  C    0.150962
     5  C   -0.050931
     6  N   -0.080976
     7  N   -0.088939
 Electronic spatial extent (au):  <R**2>=            787.8088
 Charge=             -0.0000 electrons
 Dipole moment (field-independent basis, Debye):
    X=              1.2307    Y=             -0.9135    Z=              0.6026  Tot=              1.6469
 Quadrupole moment (field-independent basis, Debye-Ang):
   XX=            -35.8647   YY=            -44.3934   ZZ=            -45.5324
   XY=              2.7112   XZ=             -0.6447   YZ=              2.0793
 Traceless Quadrupole moment (field-independent basis, Debye-Ang):
   XX=              6.0655   YY=             -2.4633   ZZ=             -3.6023
   XY=              2.7112   XZ=             -0.6447   YZ=              2.0793
 Octapole moment (field-independent basis, Debye-Ang**2):
  XXX=             -0.4327  YYY=             -3.4155  ZZZ=             -7.9447  XYY=             -1.0527
  XXY=             -7.3217  XXZ=             -4.6162  XZZ=              5.3550  YZZ=             -4.3926
  YYZ=              5.8416  XYZ=              3.3234
 Hexadecapole moment (field-independent basis, Debye-Ang**3):
 XXXX=           -405.6603 YYYY=           -303.5484 ZZZZ=           -196.1209 XXXY=             23.3880
 XXXZ=            -14.5519 YYYX=             24.6279 YYYZ=              4.0376 ZZZX=             -8.7960
 ZZZY=             11.5341 XXYY=           -126.1761 XXZZ=           -125.1260 YYZZ=            -94.0433
 XXYZ=              4.0639 YYXZ=              1.1374 ZZXY=             -0.1407
 N-N= 3.270629229628D+02 E-N=-1.405851948491D+03  KE= 3.202948461207D+02
 PrsmSu:  requested number of processors reduced to:  11 ShMem   1 Linda.
 No NMR shielding tensors so no spin-rotation constants.
 Leave Link  601 at Mon Aug 22 22:53:04 2022, MaxMem=    23592960 cpu:         3.1
 (Enter /public/home/users/caep010/software/Gaussian09/g09/l701.exe)
 Compute integral first derivatives.
 ... and contract with generalized density number  0.
 PrsmSu:  requested number of processors reduced to:   3 ShMem   1 Linda.
 PrsmSu:  requested number of processors reduced to:   6 ShMem   1 Linda.
 Leave Link  701 at Mon Aug 22 22:53:05 2022, MaxMem=    23592960 cpu:         2.0
 (Enter /public/home/users/caep010/software/Gaussian09/g09/l702.exe)
 L702 exits ... SP integral derivatives will be done elsewhere.
 Leave Link  702 at Mon Aug 22 22:53:05 2022, MaxMem=    23592960 cpu:         0.5
 (Enter /public/home/users/caep010/software/Gaussian09/g09/l703.exe)
 Compute integral first derivatives, UseDBF=F ICtDFT=           0.
 Integral derivatives from FoFJK, PRISM(SPDF).
 Calling FoFJK, ICntrl=      2127 FMM=F ISym2X=0 I1Cent= 0 IOpClX= 0 NMat=1 NMatS=1 NMatT=0.
 FoFJK:  IHMeth= 1 ICntrl=    2127 DoSepK=F KAlg= 0 I1Cent=   0 FoldK=F
 IRaf=         0 NMat=   1 IRICut=       1 DoRegI=T DoRafI=F ISym2E= 0.
 FoFCou: FMM=F IPFlag=           0 FMFlag=      100000 FMFlg1=         800
         NFxFlg=           0 DoJE=F BraDBF=F KetDBF=F FulRan=T
         wScrn=  0.000000 ICntrl=    2127 IOpCl=  0 I1Cent=           0 NGrid=           0
         NMat0=    1 NMatS0=      1 NMatT0=    0 NMatD0=    1 NMtDS0=    0 NMtDT0=    0
 Symmetry not used in FoFCou.
 CoulSu:  requested number of processors reduced to:   6 ShMem   1 Linda.
 CalDSu:  requested number of processors reduced to:  15 ShMem   1 Linda.
 Leave Link  703 at Mon Aug 22 22:53:11 2022, MaxMem=    23592960 cpu:        45.1
 (Enter /public/home/users/caep010/software/Gaussian09/g09/l716.exe)
 Dipole        = 4.84191931D-01-3.59407926D-01 2.37070979D-01
 ***** Axes restored to original set *****
 -------------------------------------------------------------------
 Center     Atomic                   Forces (Hartrees/Bohr)
 Number     Number              X              Y              Z
 -------------------------------------------------------------------
      1        6          -0.004940512    0.001833618    0.000860729
      2        6           0.036795926   -0.004219089   -0.001351663
      3        7          -0.011380287   -0.013464540   -0.001510885
      4        6          -0.006778792   -0.010489212   -0.001395840
      5        6           0.002043928   -0.009105866   -0.010918320
      6        7          -0.010775338   -0.004866601    0.014710340
      7        7          -0.015537374    0.016058457   -0.007542963
      8        1          -0.000312779   -0.001404992    0.003256827
      9        1           0.001148712    0.001157254   -0.001359144
     10        1          -0.034744480   -0.007042979   -0.002102664
     11        1           0.003945131    0.033175326    0.007801626
     12        1          -0.001238223   -0.009007725    0.007478924
     13        1          -0.006572755    0.008291658    0.001229116
     14        1           0.008679093    0.002439115    0.000970105
     15        1           0.020536280    0.009317633    0.001957085
     16        1          -0.004583399   -0.004587446   -0.022161300
     17        1           0.001783376   -0.015544785    0.015257145
     18        1           0.021931494    0.007460172   -0.005179119
 -------------------------------------------------------------------
 Cartesian Forces:  Max     0.036795926 RMS     0.012070856
 Leave Link  716 at Mon Aug 22 22:53:11 2022, MaxMem=    23592960 cpu:         0.8
 (Enter /public/home/users/caep010/software/Gaussian09/g09/l103.exe)

 GradGradGradGradGradGradGradGradGradGradGradGradGradGradGradGradGradGrad
 Berny optimization.
 FormGI is forming the generalized inverse of G from B-inverse, IUseBI=4.
 Internal  Forces:  Max     0.040306633 RMS     0.010063521
 Search for a local minimum.
 Step number   1 out of a maximum of   89
 All quantities printed in internal units (Hartrees-Bohrs-Radians)
 RMS Force = .10064D-01 SwitMx=.10000D-02 MixMth= 1
 Mixed Optimization -- RFO/linear search
 Second derivative matrix not updated -- first step.
 ITU=  0
     Eigenvalues ---    0.00230   0.00376   0.00704   0.00778   0.01232
     Eigenvalues ---    0.01233   0.01340   0.02875   0.02875   0.04418
     Eigenvalues ---    0.04468   0.05504   0.05536   0.05594   0.06062
     Eigenvalues ---    0.06664   0.16000   0.16000   0.16000   0.16000
     Eigenvalues ---    0.16000   0.16000   0.16000   0.16000   0.16000
     Eigenvalues ---    0.16000   0.16000   0.16149   0.16436   0.24962
     Eigenvalues ---    0.24971   0.28430   0.29471   0.32450   0.32474
     Eigenvalues ---    0.32486   0.35184   0.35662   0.35849   0.35997
     Eigenvalues ---    0.40317   0.40336   0.40356   0.40363   0.40408
     Eigenvalues ---    0.40602   0.40726   0.57085
 RFO step:  Lambda=-2.29214137D-02 EMin= 2.30000000D-03
 Linear search not attempted -- first point.
 Iteration  1 RMS(Cart)=  0.07719661 RMS(Int)=  0.00192199
 Iteration  2 RMS(Cart)=  0.00279818 RMS(Int)=  0.00031418
 Iteration  3 RMS(Cart)=  0.00000673 RMS(Int)=  0.00031414
 Iteration  4 RMS(Cart)=  0.00000000 RMS(Int)=  0.00031414
 ITry= 1 IFail=0 DXMaxC= 3.51D-01 DCOld= 1.00D+10 DXMaxT= 3.00D-01 DXLimC= 3.00D+00 Rises=F
 Variable       Old X    -DE/DX   Delta X   Delta X   Delta X     New X
                                 (Linear)    (Quad)   (Total)
    R1        2.53325   0.00083   0.00000   0.00139   0.00139   2.53464
    R2        2.04086  -0.00060   0.00000  -0.00157  -0.00157   2.03929
    R3        2.04613   0.00142   0.00000   0.00373   0.00373   2.04986
    R4        2.71125  -0.04031   0.00000  -0.09460  -0.09460   2.61666
    R5        2.89032  -0.00529   0.00000  -0.01667  -0.01667   2.87365
    R6        1.97444  -0.03532   0.00000  -0.08235  -0.08235   1.89209
    R7        1.97278  -0.03408   0.00000  -0.07921  -0.07921   1.89357
    R8        2.91208   0.00227   0.00000   0.00739   0.00739   2.91947
    R9        2.77618  -0.00331   0.00000  -0.00868  -0.00868   2.76750
   R10        2.78677   0.00095   0.00000   0.00254   0.00254   2.78931
   R11        2.10028  -0.01175   0.00000  -0.03383  -0.03383   2.06645
   R12        2.09985  -0.01040   0.00000  -0.02990  -0.02990   2.06995
   R13        2.09963  -0.00906   0.00000  -0.02605  -0.02605   2.07359
   R14        1.97763  -0.02262   0.00000  -0.05302  -0.05302   1.92461
   R15        1.97799  -0.02303   0.00000  -0.05401  -0.05401   1.92398
   R16        1.97772  -0.02183   0.00000  -0.05118  -0.05118   1.92654
   R17        1.97703  -0.02341   0.00000  -0.05483  -0.05483   1.92220
    A1        2.14199  -0.00186   0.00000  -0.01017  -0.01030   2.13168
    A2        2.10145   0.00160   0.00000   0.00877   0.00864   2.11009
    A3        2.03975   0.00026   0.00000   0.00143   0.00129   2.04104
    A4        2.06679   0.02066   0.00000   0.07626   0.07619   2.14299
    A5        2.14118   0.00576   0.00000   0.02153   0.02143   2.16262
    A6        2.07359  -0.02638   0.00000  -0.09641  -0.09653   1.97706
    A7        2.11687  -0.00305   0.00000  -0.01649  -0.01681   2.10006
    A8        2.11006  -0.00069   0.00000  -0.00359  -0.00391   2.10615
    A9        2.05616   0.00375   0.00000   0.02069   0.02038   2.07654
   A10        1.89625   0.00252   0.00000   0.00647   0.00652   1.90277
   A11        1.89184  -0.00010   0.00000  -0.01559  -0.01548   1.87636
   A12        1.94784  -0.00627   0.00000  -0.03862  -0.03848   1.90936
   A13        1.90257  -0.00536   0.00000  -0.02446  -0.02511   1.87745
   A14        1.91990   0.00469   0.00000   0.03873   0.03881   1.95871
   A15        1.90475   0.00437   0.00000   0.03241   0.03223   1.93698
   A16        1.92994  -0.00164   0.00000  -0.01068  -0.01067   1.91927
   A17        1.93045   0.00339   0.00000   0.01991   0.01991   1.95037
   A18        1.92669  -0.00048   0.00000  -0.00230  -0.00235   1.92434
   A19        1.89398  -0.00103   0.00000  -0.00629  -0.00623   1.88775
   A20        1.89179   0.00064   0.00000   0.00084   0.00080   1.89259
   A21        1.88987  -0.00092   0.00000  -0.00173  -0.00178   1.88809
   A22        1.91502  -0.00078   0.00000  -0.00786  -0.00794   1.90708
   A23        1.89947  -0.00174   0.00000  -0.01319  -0.01327   1.88620
   A24        1.86463   0.00001   0.00000  -0.00763  -0.00781   1.85682
   A25        1.91729   0.00214   0.00000   0.00742   0.00735   1.92464
   A26        1.90838  -0.00643   0.00000  -0.03949  -0.03956   1.86882
   A27        1.84248   0.00064   0.00000  -0.00570  -0.00586   1.83662
    D1        3.10804   0.00285   0.00000   0.06715   0.06795  -3.10719
    D2        0.02836   0.00291   0.00000   0.04416   0.04336   0.07172
    D3       -0.03239   0.00123   0.00000   0.03598   0.03678   0.00438
    D4       -3.11208   0.00130   0.00000   0.01298   0.01219  -3.09989
    D5        0.05168  -0.00161   0.00000  -0.04406  -0.04391   0.00777
    D6       -3.07444  -0.00329   0.00000  -0.09175  -0.09159   3.11716
    D7        3.13381  -0.00058   0.00000  -0.01800  -0.01816   3.11565
    D8        0.00769  -0.00226   0.00000  -0.06568  -0.06584  -0.05814
    D9        1.78181   0.00369   0.00000   0.03737   0.03699   1.81880
   D10       -2.43619  -0.00136   0.00000   0.00301   0.00217  -2.43402
   D11       -0.33808   0.00014   0.00000   0.00923   0.00901  -0.32907
   D12       -1.29765   0.00215   0.00000   0.00842   0.00900  -1.28864
   D13        0.76754  -0.00289   0.00000  -0.02594  -0.02582   0.74172
   D14        2.86565  -0.00140   0.00000  -0.01971  -0.01897   2.84667
   D15       -1.01737   0.00004   0.00000  -0.01705  -0.01711  -1.03448
   D16        1.08117  -0.00010   0.00000  -0.01890  -0.01901   1.06216
   D17       -3.11072   0.00062   0.00000  -0.00973  -0.00981  -3.12053
   D18       -3.07576   0.00175   0.00000   0.01176   0.01162  -3.06414
   D19       -0.97721   0.00161   0.00000   0.00991   0.00971  -0.96750
   D20        1.11407   0.00233   0.00000   0.01909   0.01892   1.13299
   D21        1.11954  -0.00313   0.00000  -0.03621  -0.03593   1.08361
   D22       -3.06510  -0.00328   0.00000  -0.03806  -0.03783  -3.10293
   D23       -0.97381  -0.00256   0.00000  -0.02889  -0.02863  -1.00244
   D24       -3.09118  -0.00216   0.00000  -0.01064  -0.01089  -3.10207
   D25        1.15743  -0.00073   0.00000   0.01047   0.01012   1.16755
   D26       -1.03001  -0.00221   0.00000  -0.02546  -0.02512  -1.05513
   D27       -3.06459  -0.00078   0.00000  -0.00436  -0.00411  -3.06870
   D28        1.06724   0.00290   0.00000   0.02639   0.02645   1.09369
   D29       -0.96734   0.00433   0.00000   0.04750   0.04745  -0.91988
   D30        1.30633   0.00143   0.00000   0.00478   0.00466   1.31099
   D31       -2.96255  -0.00025   0.00000  -0.02029  -0.02031  -2.98286
   D32       -0.79979  -0.00079   0.00000  -0.00416  -0.00352  -0.80332
   D33        1.21451  -0.00247   0.00000  -0.02923  -0.02850   1.18602
   D34       -2.88635   0.00024   0.00000  -0.01759  -0.01826  -2.90461
   D35       -0.87204  -0.00144   0.00000  -0.04266  -0.04323  -0.91527
         Item               Value     Threshold  Converged?
 Maximum Force            0.040307     0.000450     NO 
 RMS     Force            0.010064     0.000300     NO 
 Maximum Displacement     0.351317     0.001800     NO 
 RMS     Displacement     0.076741     0.001200     NO 
 Predicted change in Energy=-1.257887D-02
 Lowest energy point so far.  Saving SCF results.
 GradGradGradGradGradGradGradGradGradGradGradGradGradGradGradGradGradGrad

 Leave Link  103 at Mon Aug 22 22:53:11 2022, MaxMem=    23592960 cpu:         4.5
 (Enter /public/home/users/caep010/software/Gaussian09/g09/l202.exe)
                          Input orientation:                          
 ---------------------------------------------------------------------
 Center     Atomic      Atomic             Coordinates (Angstroms)
 Number     Number       Type             X           Y           Z
 ---------------------------------------------------------------------
      1          6           0        1.252621    1.687116    0.304407
      2          6           0        0.951863    0.385240    0.187456
      3          7           0        1.918056   -0.600699    0.079213
      4          6           0       -0.468011   -0.154068    0.113054
      5          6           0       -0.781730   -0.546292   -1.347943
      6          7           0       -0.518098   -1.375661    0.919251
      7          7           0       -1.405699    0.860692    0.632373
      8          1           0        0.491974    2.443922    0.419377
      9          1           0        2.284405    2.021741    0.314640
     10          1           0        2.889814   -0.359837    0.092504
     11          1           0        1.658091   -1.566240    0.014232
     12          1           0       -0.677446    0.325841   -1.999318
     13          1           0       -0.105925   -1.327452   -1.712516
     14          1           0       -1.810718   -0.918732   -1.428740
     15          1           0       -1.450378   -1.781015    0.857611
     16          1           0       -0.381486   -1.116402    1.894291
     17          1           0       -1.531178    1.607745   -0.049909
     18          1           0       -2.316253    0.414002    0.710017
 ---------------------------------------------------------------------
                    Distance matrix (angstroms):
                    1          2          3          4          5
     1  C    0.000000
     2  C    1.341273   0.000000
     3  N    2.393244   1.384674   0.000000
     4  C    2.527281   1.520668   2.427745   0.000000
     5  C    3.443393   2.496107   3.054273   1.544919   0.000000
     6  N    3.590833   2.407713   2.690925   1.464497   2.428482
     7  N    2.803070   2.445834   3.672738   1.476038   2.508106
     8  H    1.079147   2.122135   3.379222   2.786567   3.699611
     9  H    1.084738   2.114233   2.658351   3.514339   4.331300
    10  H    2.629700   2.078416   1.001251   3.364187   3.948404
    11  H    3.291342   2.082556   1.002035   2.554273   2.974650
    12  H    3.299299   2.727665   3.451869   2.176302   1.093517
    13  H    3.873144   2.768054   2.799101   2.200146   1.095370
    14  H    4.379302   3.456050   4.034703   2.182820   1.097294
    15  H    4.431723   3.303412   3.653136   2.041168   2.614594
    16  H    3.613551   2.635533   2.974618   2.026420   3.316218
    17  H    2.807379   2.777832   4.097697   2.064186   2.624203
    18  H    3.810800   3.309755   4.399649   2.023627   2.740826
                    6          7          8          9         10
     6  N    0.000000
     7  N    2.423100   0.000000
     8  H    3.982378   2.480553   0.000000
     9  H    4.445438   3.881476   1.844455   0.000000
    10  H    3.650928   4.498065   3.703721   2.467343   0.000000
    11  H    2.364567   3.957134   4.195876   3.654603   1.725884
    12  H    3.382092   2.782483   3.421096   4.123475   4.191804
    13  H    2.664284   3.460620   4.373295   4.586953   3.628888
    14  H    2.718955   2.752922   4.474971   5.334397   4.972077
    15  H    1.018459   2.651669   4.670640   5.357647   4.630595
    16  H    1.018126   2.559366   3.951482   4.410240   3.810543
    17  H    3.296410   1.019481   2.238876   3.855251   4.841161
    18  H    2.545592   1.017187   3.477238   4.889499   5.299367
                   11         12         13         14         15
    11  H    0.000000
    12  H    3.617885   0.000000
    13  H    2.480007   1.772644   0.000000
    14  H    3.812357   1.777308   1.775921   0.000000
    15  H    3.228002   3.632947   2.935784   2.469975   0.000000
    16  H    2.810134   4.162673   3.623470   3.622749   1.630627
    17  H    4.499971   2.484417   3.662101   2.891782   3.509105
    18  H    4.494540   3.167642   3.713068   2.570220   2.364239
                   16         17         18
    16  H    0.000000
    17  H    3.538740   0.000000
    18  H    2.736415   1.618287   0.000000
 Stoichiometry    C4H11N3
 Framework group  C1[X(C4H11N3)]
 Deg. of freedom    48
 Full point group                 C1      NOp   1
 RotChk:  IX=0 Diff= 1.09D-01
 Largest Abelian subgroup         C1      NOp   1
 Largest concise Abelian subgroup C1      NOp   1
                         Standard orientation:                         
 ---------------------------------------------------------------------
 Center     Atomic      Atomic             Coordinates (Angstroms)
 Number     Number       Type             X           Y           Z
 ---------------------------------------------------------------------
      1          6           0       -1.632003    1.255124    0.015253
      2          6           0       -0.945180    0.103577   -0.019767
      3          7           0       -1.560136   -1.136957   -0.004693
      4          6           0        0.573218    0.021480   -0.032409
      5          6           0        1.066321   -0.400792    1.369486
      6          7           0        0.949345   -1.037910   -0.971010
      7          7           0        1.131013    1.322006   -0.452156
      8          1           0       -1.143539    2.216404   -0.028346
      9          1           0       -2.715752    1.256156    0.061581
     10          1           0       -2.558506   -1.205929    0.026998
     11          1           0       -1.016759   -1.977484   -0.052964
     12          1           0        0.736514    0.326861    2.116164
     13          1           0        0.678903   -1.384256    1.656786
     14          1           0        2.162525   -0.445587    1.389087
     15          1           0        1.962511   -1.141603   -0.972339
     16          1           0        0.690251   -0.736132   -1.908230
     17          1           0        1.059349    1.998688    0.306993
     18          1           0        2.128815    1.186574   -0.596094
 ---------------------------------------------------------------------
 Rotational constants (GHZ):      3.3041624      2.4078471      1.9652396
 Leave Link  202 at Mon Aug 22 22:53:11 2022, MaxMem=    23592960 cpu:         0.2
 (Enter /public/home/users/caep010/software/Gaussian09/g09/l301.exe)
 Standard basis: GTBas3 (6D, 7F)
 Ernie: Thresh=  0.10000D-02 Tol=  0.10000D-05 Strict=F.
 There are   272 symmetry adapted cartesian basis functions of A   symmetry.
 There are   251 symmetry adapted basis functions of A   symmetry.
   251 basis functions,   385 primitive gaussians,   272 cartesian basis functions
    28 alpha electrons       28 beta electrons
       nuclear repulsion energy       331.3748946659 Hartrees.
 IExCor=  402 DFT=T Ex+Corr=B3LYP ExCW=0 ScaHFX=  0.200000
 ScaDFX=  0.800000  0.720000  1.000000  0.810000 ScalE2=  1.000000  1.000000
 IRadAn=      0 IRanWt=     -1 IRanGd=            0 ICorTp=0 IEmpDi=  4
 NAtoms=   18 NActive=   18 NUniq=   18 SFac= 1.00D+00 NAtFMM=   60 NAOKFM=F Big=F
 Integral buffers will be    131072 words long.
 Raffenetti 2 integral format.
 Two-electron integral symmetry is turned on.
 Leave Link  301 at Mon Aug 22 22:53:11 2022, MaxMem=    23592960 cpu:         2.5
 (Enter /public/home/users/caep010/software/Gaussian09/g09/l302.exe)
 NPDir=0 NMtPBC=     1 NCelOv=     1 NCel=       1 NClECP=     1 NCelD=      1
         NCelK=      1 NCelE2=     1 NClLst=     1 CellRange=     0.0.
 One-electron integrals computed using PRISM.
 PrsmSu:  requested number of processors reduced to:   3 ShMem   1 Linda.
 PrsmSu:  requested number of processors reduced to:  11 ShMem   1 Linda.
 NBasis=   251 RedAO= T EigKep=  3.18D-04  NBF=   251
 NBsUse=   251 1.00D-06 EigRej= -1.00D+00 NBFU=   251
 Precomputing XC quadrature grid using
 IXCGrd= 4 IRadAn=           0 IRanWt=          -1 IRanGd=           0 AccXCQ= 0.00D+00.
 Generated NRdTot=       0 NPtTot=           0 NUsed=           0 NTot=          32
 NSgBfM=   272   272   272   272   272 MxSgAt=    18 MxSgA2=    18.
 Leave Link  302 at Mon Aug 22 22:53:12 2022, MaxMem=    23592960 cpu:         5.2
 (Enter /public/home/users/caep010/software/Gaussian09/g09/l303.exe)
 DipDrv:  MaxL=1.
 Leave Link  303 at Mon Aug 22 22:53:12 2022, MaxMem=    23592960 cpu:         0.8
 (Enter /public/home/users/caep010/software/Gaussian09/g09/l401.exe)
 Initial guess from the checkpoint file:  "G4.Frag_969.chk"
 B after Tr=     0.000000   -0.000000   -0.000000
         Rot=    0.999271   -0.014149   -0.008386   -0.034438 Ang=  -4.37 deg.
 Guess basis will be translated and rotated to current coordinates.
 JPrj=2 DoOrth=T DoCkMO=T.
 Generating alternative initial guess.
 ExpMin= 1.61D-01 ExpMax= 4.17D+03 ExpMxC= 6.27D+02 IAcc=1 IRadAn=         1 AccDes= 0.00D+00
 Harris functional with IExCor=  402 and IRadAn=       1 diagonalized for initial guess.
 HarFok:  IExCor=  402 AccDes= 0.00D+00 IRadAn=         1 IDoV= 1 UseB2=F ITyADJ=14
 ICtDFT=  3500011 ScaDFX=  1.000000  1.000000  1.000000  1.000000
 CalDSu:  requested number of processors reduced to:  18 ShMem   1 Linda.
 FoFCou: FMM=F IPFlag=           0 FMFlag=      100000 FMFlg1=           0
         NFxFlg=           0 DoJE=T BraDBF=F KetDBF=T FulRan=T
         wScrn=  0.000000 ICntrl=     500 IOpCl=  0 I1Cent=   200000004 NGrid=           0
         NMat0=    1 NMatS0=      1 NMatT0=    0 NMatD0=    1 NMtDS0=    0 NMtDT0=    0
 Petite list used in FoFCou.
 CoulSu:  requested number of processors reduced to:  11 ShMem   1 Linda.
 CoulSu:  requested number of processors reduced to:  11 ShMem   1 Linda.
 CoulSu:  requested number of processors reduced to:  12 ShMem   1 Linda.
 CoulSu:  requested number of processors reduced to:  12 ShMem   1 Linda.
 Harris En= -323.348792544477    
 Leave Link  401 at Mon Aug 22 22:53:12 2022, MaxMem=    23592960 cpu:         8.8
 (Enter /public/home/users/caep010/software/Gaussian09/g09/l502.exe)
 Closed shell SCF:
 Using DIIS extrapolation, IDIIS=  1040.
 Integral symmetry usage will be decided dynamically.
 IVT=      251200 IEndB=      251200 NGot=    23592960 MDV=    23432657
 LenX=    23432657 LenY=    23358232
 Requested convergence on RMS density matrix=1.00D-08 within 128 cycles.
 Requested convergence on MAX density matrix=1.00D-06.
 Requested convergence on             energy=1.00D-06.
 No special actions if energy rises.
 Fock matrices will be formed incrementally for  20 cycles.
 Integral accuracy reduced to 1.0D-05 until final iterations.

 Cycle   1  Pass 0  IDiag  1:
 FoFJK:  IHMeth= 1 ICntrl=       0 DoSepK=F KAlg= 0 I1Cent=   0 FoldK=F
 IRaf= 970000000 NMat=   1 IRICut=       1 DoRegI=T DoRafI=F ISym2E= 0.
 FoFCou: FMM=F IPFlag=           0 FMFlag=      100000 FMFlg1=           0
         NFxFlg=           0 DoJE=F BraDBF=F KetDBF=F FulRan=T
         wScrn=  0.000000 ICntrl=       0 IOpCl=  0 I1Cent=           0 NGrid=           0
         NMat0=    1 NMatS0=      1 NMatT0=    0 NMatD0=    1 NMtDS0=    0 NMtDT0=    0
 Symmetry not used in FoFCou.
 CoulSu:  requested number of processors reduced to:  11 ShMem   1 Linda.
 CalDSu:  requested number of processors reduced to:  18 ShMem   1 Linda.
 E= -323.294447633429    
 DIIS: error= 2.45D-03 at cycle   1 NSaved=   1.
 NSaved= 1 IEnMin= 1 EnMin= -323.294447633429     IErMin= 1 ErrMin= 2.45D-03
 ErrMax= 2.45D-03  0.00D+00 EMaxC= 1.00D-01 BMatC= 6.21D-03 BMatP= 6.21D-03
 IDIUse=3 WtCom= 9.76D-01 WtEn= 2.45D-02
 Coeff-Com:  0.100D+01
 Coeff-En:   0.100D+01
 Coeff:      0.100D+01
 Gap=     0.961 Goal=   None    Shift=    0.000
 GapD=    0.961 DampG=2.000 DampE=1.000 DampFc=2.0000 IDamp=-1.
 RMSDP=4.88D-04 MaxDP=1.51D-02              OVMax= 2.11D-02

 Cycle   2  Pass 0  IDiag  1:
 RMSU=  4.88D-04    CP:  1.00D+00
 CoulSu:  requested number of processors reduced to:  11 ShMem   1 Linda.
 CalDSu:  requested number of processors reduced to:  18 ShMem   1 Linda.
 E= -323.300393771404     Delta-E=       -0.005946137975 Rises=F Damp=F
 DIIS: error= 1.09D-03 at cycle   2 NSaved=   2.
 NSaved= 2 IEnMin= 2 EnMin= -323.300393771404     IErMin= 2 ErrMin= 1.09D-03
 ErrMax= 1.09D-03  0.00D+00 EMaxC= 1.00D-01 BMatC= 6.55D-04 BMatP= 6.21D-03
 IDIUse=3 WtCom= 9.89D-01 WtEn= 1.09D-02
 Coeff-Com:  0.125D+00 0.875D+00
 Coeff-En:   0.000D+00 0.100D+01
 Coeff:      0.124D+00 0.876D+00
 Gap=     0.232 Goal=   None    Shift=    0.000
 RMSDP=2.05D-04 MaxDP=1.32D-02 DE=-5.95D-03 OVMax= 1.80D-02

 Cycle   3  Pass 0  IDiag  1:
 RMSU=  2.05D-04    CP:  9.99D-01  1.01D+00
 CoulSu:  requested number of processors reduced to:  11 ShMem   1 Linda.
 CalDSu:  requested number of processors reduced to:  18 ShMem   1 Linda.
 E= -323.300187461446     Delta-E=        0.000206309958 Rises=F Damp=F
 DIIS: error= 1.53D-03 at cycle   3 NSaved=   3.
 NSaved= 3 IEnMin= 2 EnMin= -323.300393771404     IErMin= 2 ErrMin= 1.09D-03
 ErrMax= 1.53D-03  0.00D+00 EMaxC= 1.00D-01 BMatC= 8.97D-04 BMatP= 6.55D-04
 IDIUse=3 WtCom= 2.04D-01 WtEn= 7.96D-01
 Coeff-Com: -0.152D-01 0.544D+00 0.471D+00
 Coeff-En:   0.000D+00 0.566D+00 0.434D+00
 Coeff:     -0.310D-02 0.562D+00 0.441D+00
 Gap=     0.233 Goal=   None    Shift=    0.000
 RMSDP=1.15D-04 MaxDP=6.83D-03 DE= 2.06D-04 OVMax= 1.29D-02

 Cycle   4  Pass 0  IDiag  1:
 RMSU=  4.51D-05    CP:  9.99D-01  1.04D+00  4.89D-01
 CoulSu:  requested number of processors reduced to:  11 ShMem   1 Linda.
 CalDSu:  requested number of processors reduced to:  18 ShMem   1 Linda.
 E= -323.300954033893     Delta-E=       -0.000766572447 Rises=F Damp=F
 DIIS: error= 2.56D-04 at cycle   4 NSaved=   4.
 NSaved= 4 IEnMin= 4 EnMin= -323.300954033893     IErMin= 4 ErrMin= 2.56D-04
 ErrMax= 2.56D-04  0.00D+00 EMaxC= 1.00D-01 BMatC= 2.43D-05 BMatP= 6.55D-04
 IDIUse=3 WtCom= 9.97D-01 WtEn= 2.56D-03
 Coeff-Com: -0.112D-01 0.276D+00 0.242D+00 0.493D+00
 Coeff-En:   0.000D+00 0.000D+00 0.000D+00 0.100D+01
 Coeff:     -0.112D-01 0.275D+00 0.241D+00 0.495D+00
 Gap=     0.233 Goal=   None    Shift=    0.000
 RMSDP=2.42D-05 MaxDP=1.76D-03 DE=-7.67D-04 OVMax= 3.22D-03

 Cycle   5  Pass 0  IDiag  1:
 RMSU=  1.40D-05    CP:  9.99D-01  1.04D+00  4.90D-01  5.70D-01
 CoulSu:  requested number of processors reduced to:  11 ShMem   1 Linda.
 CalDSu:  requested number of processors reduced to:  18 ShMem   1 Linda.
 E= -323.300978032961     Delta-E=       -0.000023999069 Rises=F Damp=F
 DIIS: error= 7.83D-05 at cycle   5 NSaved=   5.
 NSaved= 5 IEnMin= 5 EnMin= -323.300978032961     IErMin= 5 ErrMin= 7.83D-05
 ErrMax= 7.83D-05  0.00D+00 EMaxC= 1.00D-01 BMatC= 2.21D-06 BMatP= 2.43D-05
 IDIUse=1 WtCom= 1.00D+00 WtEn= 0.00D+00
 Coeff-Com: -0.352D-02 0.447D-01 0.388D-01 0.242D+00 0.678D+00
 Coeff:     -0.352D-02 0.447D-01 0.388D-01 0.242D+00 0.678D+00
 Gap=     0.233 Goal=   None    Shift=    0.000
 RMSDP=5.79D-06 MaxDP=3.50D-04 DE=-2.40D-05 OVMax= 4.86D-04

 Initial convergence to 1.0D-05 achieved.  Increase integral accuracy.
 Cycle   6  Pass 1  IDiag  1:
 CoulSu:  requested number of processors reduced to:  11 ShMem   1 Linda.
 CalDSu:  requested number of processors reduced to:  18 ShMem   1 Linda.
 E= -323.300906818408     Delta-E=        0.000071214554 Rises=F Damp=F
 DIIS: error= 2.32D-05 at cycle   1 NSaved=   1.
 NSaved= 1 IEnMin= 1 EnMin= -323.300906818408     IErMin= 1 ErrMin= 2.32D-05
 ErrMax= 2.32D-05  0.00D+00 EMaxC= 1.00D-01 BMatC= 3.73D-07 BMatP= 3.73D-07
 IDIUse=1 WtCom= 1.00D+00 WtEn= 0.00D+00
 Coeff-Com:  0.100D+01
 Coeff:      0.100D+01
 Gap=     0.233 Goal=   None    Shift=    0.000
 RMSDP=5.79D-06 MaxDP=3.50D-04 DE= 7.12D-05 OVMax= 2.78D-04

 Cycle   7  Pass 1  IDiag  1:
 RMSU=  7.07D-06    CP:  1.00D+00
 CoulSu:  requested number of processors reduced to:  11 ShMem   1 Linda.
 CalDSu:  requested number of processors reduced to:  18 ShMem   1 Linda.
 E= -323.300906793527     Delta-E=        0.000000024881 Rises=F Damp=F
 DIIS: error= 2.86D-05 at cycle   2 NSaved=   2.
 NSaved= 2 IEnMin= 1 EnMin= -323.300906818408     IErMin= 1 ErrMin= 2.32D-05
 ErrMax= 2.86D-05  0.00D+00 EMaxC= 1.00D-01 BMatC= 3.74D-07 BMatP= 3.73D-07
 IDIUse=1 WtCom= 1.00D+00 WtEn= 0.00D+00
 Coeff-Com:  0.501D+00 0.499D+00
 Coeff:      0.501D+00 0.499D+00
 Gap=     0.233 Goal=   None    Shift=    0.000
 RMSDP=2.71D-06 MaxDP=1.06D-04 DE= 2.49D-08 OVMax= 1.88D-04

 Cycle   8  Pass 1  IDiag  1:
 RMSU=  2.18D-06    CP:  1.00D+00  7.74D-01
 CoulSu:  requested number of processors reduced to:  11 ShMem   1 Linda.
 CalDSu:  requested number of processors reduced to:  18 ShMem   1 Linda.
 E= -323.300907120667     Delta-E=       -0.000000327140 Rises=F Damp=F
 DIIS: error= 7.44D-06 at cycle   3 NSaved=   3.
 NSaved= 3 IEnMin= 3 EnMin= -323.300907120667     IErMin= 3 ErrMin= 7.44D-06
 ErrMax= 7.44D-06  0.00D+00 EMaxC= 1.00D-01 BMatC= 2.25D-08 BMatP= 3.73D-07
 IDIUse=1 WtCom= 1.00D+00 WtEn= 0.00D+00
 Coeff-Com:  0.188D-01 0.196D+00 0.785D+00
 Coeff:      0.188D-01 0.196D+00 0.785D+00
 Gap=     0.233 Goal=   None    Shift=    0.000
 RMSDP=6.19D-07 MaxDP=2.86D-05 DE=-3.27D-07 OVMax= 4.35D-05

 Cycle   9  Pass 1  IDiag  1:
 RMSU=  3.82D-07    CP:  1.00D+00  8.30D-01  8.68D-01
 CoulSu:  requested number of processors reduced to:  11 ShMem   1 Linda.
 CalDSu:  requested number of processors reduced to:  18 ShMem   1 Linda.
 E= -323.300907138170     Delta-E=       -0.000000017503 Rises=F Damp=F
 DIIS: error= 2.61D-06 at cycle   4 NSaved=   4.
 NSaved= 4 IEnMin= 4 EnMin= -323.300907138170     IErMin= 4 ErrMin= 2.61D-06
 ErrMax= 2.61D-06  0.00D+00 EMaxC= 1.00D-01 BMatC= 2.41D-09 BMatP= 2.25D-08
 IDIUse=1 WtCom= 1.00D+00 WtEn= 0.00D+00
 Coeff-Com: -0.803D-02 0.868D-01 0.416D+00 0.505D+00
 Coeff:     -0.803D-02 0.868D-01 0.416D+00 0.505D+00
 Gap=     0.233 Goal=   None    Shift=    0.000
 RMSDP=2.24D-07 MaxDP=1.66D-05 DE=-1.75D-08 OVMax= 2.83D-05

 Cycle  10  Pass 1  IDiag  1:
 RMSU=  1.12D-07    CP:  1.00D+00  8.30D-01  8.67D-01  4.92D-01
 CoulSu:  requested number of processors reduced to:  11 ShMem   1 Linda.
 CalDSu:  requested number of processors reduced to:  18 ShMem   1 Linda.
[...]
 .0196006809\H,0,1.656422483,-1.4797579652,0.1114092822\H,0,-0.77414742
 82,0.2234307432,-2.0278977932\H,0,-0.1026231223,-1.3785685104,-1.69165
 02267\H,0,-1.8193560891,-1.0446904969,-1.3596096749\H,0,-1.3669542261,
 -1.8333843806,0.8463411361\H,0,-0.4872546324,-0.995334738,1.937768489\
 H,0,-1.3924782802,1.6767431821,-0.0456717007\H,0,-2.3509533376,0.49096
 43559,0.5078558196\\Version=ES64L-G09RevE.01\State=1-A\MP2/GTBas1=-322
 .1980586\MP4/GTBas1=-322.2945711\CCSD(T)/G3Bas1=-322.2957912\MP2/GTBas
 2=-322.2272751\MP4/GTBas2=-322.3249456\MP2/GTBas3=-322.4763272\MP4/GTB
 as3=-322.5881965\HF/GTLargeXP=-321.3131068\MP2/GTLargeXP=-322.9425491\
 HF/GFHFB1=-321.3378714\HF/GFHFB2=-321.343188\G4=-323.0760679\FreqCoord
 =2.404905147,3.1448436602,0.8120439083,1.8239212624,0.7530109002,0.243
 5490657,3.5984609783,-1.0703976419,-0.4774141184,-0.8832798353,-0.2837
 323184,0.1743028854,-1.5241507783,-1.1784107736,-2.5271271669,-0.93886
 09231,-2.5020928866,1.8429030824,-2.6646136322,1.6476994214,1.09005970
 26,0.9758654258,4.5089614241,1.3166099065,4.3531106947,3.785734374,0.8
 15190527,5.3972162936,-0.6032640182,-0.0370399189,3.1301848532,-2.7963
 372973,0.2105330321,-1.4629266257,0.4222229143,-3.8321714547,-0.193929
 596,-2.6051169401,-3.1967556411,-3.4380847466,-1.9741789327,-2.5692899
 331,-2.5831691235,-3.4645943756,1.5993529622,-0.9207778123,-1.88091006
 54,3.6618517532,-2.6314025956,3.1685854093,-0.0863070063,-4.4426579592
 ,0.9277881736,0.9597084141\PG=C01 [X(C4H11N3)]\NImag=0\\0.65324803,0.0
 3670594,0.78046628,-0.04128181,0.18160266,0.13496339,-0.13801034,-0.09
 629474,-0.01611017,0.54354981,-0.10243917,-0.46880152,-0.09717070,0.04
 853716,0.83362213,-0.01831031,-0.09661394,-0.07663438,-0.01594334,0.14
 850212,0.22679639,0.00881064,0.00834047,0.00086714,-0.19275579,0.07850
 244,0.05442273,0.70758579,0.03791669,-0.04623900,-0.02027503,0.0732707
 9,-0.19858257,-0.05481588,0.06949866,0.67410874,0.00783671,-0.02271345
 ,0.00638579,0.01816147,-0.01672741,-0.06057560,0.01800365,-0.06313003,
 0.14232100,-0.00274318,-0.00914942,-0.00238695,-0.15389421,-0.02655737
 ,-0.00801058,-0.03165311,-0.00066962,0.00134588,0.51583123,-0.02643323
 ,-0.00758388,-0.00119776,-0.03060332,-0.08830919,-0.00848724,0.0227975
 6,0.00716728,0.00093181,0.01216294,0.48041722,-0.00790571,-0.00356438,
 0.00536864,-0.00079595,-0.00390140,-0.07445760,0.01083896,0.00202987,-
 0.00058968,-0.00882070,-0.00091751,0.47292975,-0.00309080,0.00137276,0
 .00059075,-0.01063338,-0.01333632,-0.02971631,-0.00268182,-0.00045081,
 -0.00023654,-0.08270222,-0.00875807,-0.03017795,0.56871236,-0.00058734
 ,-0.00025092,0.00031304,-0.00971989,-0.00448105,-0.01261942,-0.0005681
 2,-0.00044365,-0.00184673,-0.00762867,-0.07926857,-0.02621163,-0.01763
 909,0.57029110,0.00209536,0.00159671,-0.00052336,-0.01159821,-0.004769
 28,-0.00251614,-0.00001727,-0.00074788,-0.00067217,-0.01423024,-0.0182
 4755,-0.14488024,-0.03133838,-0.03937959,0.46856337,-0.00293768,0.0001
 4236,0.00061021,-0.00698371,-0.02756762,0.01952910,-0.00345310,-0.0028
 1636,0.00283481,-0.07671165,-0.03837400,0.01130191,0.00188019,0.005924
 57,-0.00793864,0.43011982,-0.00240229,0.00193016,0.00079630,-0.0115326
 5,-0.02686927,0.01453305,-0.00042633,-0.00003327,0.00157760,0.00651807
 ,-0.13905807,0.03019654,-0.00092684,0.00492705,-0.00019490,0.20947255,
 0.41309233,-0.00067232,-0.00025443,0.00008215,0.00553342,0.00309315,0.
 00019086,0.00200158,0.00094144,0.00209360,-0.02330887,0.05596893,-0.12
 509788,0.00052866,0.03263688,-0.03670966,0.04954236,0.05598937,0.59706
 913,-0.00283196,-0.00102467,0.00012773,-0.02979198,0.02396114,0.014314
 71,-0.00622575,-0.00285301,0.00022752,-0.12949094,0.04479952,0.0558673
 9,-0.00183134,0.00469090,0.00324716,0.00247620,0.00317877,-0.00198450,
 0.58502816,-0.00189410,-0.00115624,0.00045800,-0.00047880,0.00771086,0
 .00208087,-0.00411747,0.00076872,0.00026366,0.02152117,-0.13034315,-0.
 03733454,0.01731714,-0.01811789,-0.01338355,0.02932081,-0.04838599,0.0
 0227342,0.06439192,0.55671960,0.00000326,-0.00021911,0.00010939,0.0026
 1784,-0.00373992,0.00014223,0.00038221,0.00096886,0.00167765,0.0173290
 8,-0.00542098,-0.08650183,0.02741161,-0.03082082,-0.01463589,-0.013961
 46,0.02276104,0.00642655,-0.03482899,-0.15288111,0.28305218,-0.2007079
 4,0.14271861,0.05436574,0.00749330,-0.00469438,-0.00178450,0.00041605,
 -0.00311328,-0.00022669,-0.00021656,0.00081888,-0.00036503,-0.00012104
 ,0.00016095,-0.00002645,0.00005536,0.00038814,0.00018087,-0.00358042,-
 0.00173032,-0.00108354,0.21148554,0.13551960,-0.18162744,-0.05734415,0
 .02415269,-0.01554020,-0.00594443,-0.00299111,-0.00346996,-0.00203036,
 0.00273214,-0.00060587,0.00131542,0.00005840,0.00018629,0.00000645,-0.
 00077230,0.00020663,-0.00013408,0.00030304,0.00074876,0.00006247,-0.14
 972899,0.19204840,0.05391807,-0.05854555,-0.04280581,0.00447736,-0.002
 78696,-0.00273605,-0.00213803,-0.00220855,0.00978897,-0.00021444,0.001
 02516,-0.00613420,-0.00107946,-0.00058397,0.00041464,0.00080877,0.0010
 4098,0.00024862,0.00070569,-0.00010090,0.00047828,-0.05650390,0.062320
 56,0.04126158,-0.30840530,-0.08373424,0.00110642,-0.00698509,0.0013949
 4,0.00120924,0.00168280,0.00129616,-0.00028733,0.00129136,0.00031661,0
 .00095631,0.00002116,-0.00004575,0.00004952,-0.00017111,-0.00073378,-0
 .00009755,-0.00030085,-0.00062688,-0.00026783,-0.01433759,-0.00827930,
 -0.00111815,0.32644889,-0.07900165,-0.07947481,-0.00677984,-0.03172830
 ,-0.00719594,-0.00028101,-0.00120336,0.00226438,0.00188292,0.00207289,
 -0.00326995,-0.00423989,-0.00123683,-0.00027576,0.00051758,-0.00027070
 ,-0.00012514,0.00005135,0.00109830,0.00055531,0.00035376,0.01791604,0.
 00786801,0.00083523,0.09184787,0.08039088,0.00220434,-0.00545239,-0.02
 940451,-0.00699794,-0.00378653,0.00281984,-0.00007314,0.00190049,-0.00
 576362,0.00240578,-0.00299557,0.00972336,0.00186688,0.00068486,-0.0003
 6542,-0.00213721,-0.00167799,-0.00045604,0.00005907,0.00039864,-0.0000
 9609,0.00584891,0.00274146,0.00060024,-0.00171109,0.00811172,0.0218003
 6,0.00326933,-0.00274598,-0.00003527,-0.02673119,-0.00707060,-0.007983
 74,-0.38878802,-0.09007760,-0.07617441,-0.00052547,0.00419235,0.001090
 22,0.00053671,0.00012287,0.00021791,0.00035468,0.00028985,-0.00012214,
 -0.00098799,-0.00073572,0.00008572,0.00023050,-0.00069533,0.00110876,0
 .00030589,0.00122481,-0.00089703,0.41834589,0.00154928,0.00061374,-0.0
 0004601,0.02755741,0.01011866,0.00727905,-0.09146490,-0.09059535,-0.01
 712459,0.00178078,-0.00467367,-0.00123320,-0.00019293,-0.00026966,-0.0
 0035047,-0.00126628,0.00043141,0.00063271,0.00150194,0.00080493,-0.000
 18846,-0.00056538,-0.00007776,0.00026953,-0.00108862,-0.00074235,-0.00
 043411,0.09385944,0.08773452,0.00031237,0.00293295,-0.00020473,0.01786
 576,-0.00316043,-0.00282203,-0.12191536,-0.02539299,-0.03341990,0.0016
 5366,-0.00172833,0.00113821,-0.00020724,-0.00027030,-0.00008833,0.0005
 2663,-0.00049534,-0.00025941,0.00027994,0.00015819,0.00015769,0.000017
 17,0.00044497,-0.00085206,-0.00021312,0.00003718,0.00034474,0.08730589
 ,0.02363539,0.03640184,-0.00445065,0.00395667,0.00182706,0.01248258,0.
 02236783,-0.01152656,-0.08814599,-0.07755567,0.03089849,-0.00111535,0.
 00511369,-0.00185506,-0.00073057,-0.00025259,0.00012945,-0.00047460,-0
 .00058787,-0.00029819,0.00002242,-0.00157188,0.00019839,0.00073027,0.0
 0072259,0.00157520,0.00004727,0.00014172,-0.00040225,-0.00551580,-0.03
 177751,0.01418712,0.08487397,0.00381713,0.00137077,0.00037774,-0.00078
 035,-0.03312780,0.00799519,-0.08234132,-0.34782922,0.11796603,-0.00005
 286,-0.00034528,-0.00025582,-0.00007407,-0.00002466,0.00031036,-0.0021
 7324,-0.00085701,-0.00015701,-0.00038325,-0.00067513,0.00023309,-0.000
 40133,-0.00035079,-0.00138909,-0.00004695,0.00001972,0.00075404,0.0014
 6348,-0.00369911,0.00340891,0.08108067,0.38491203,0.00231685,0.0008474
 2,0.00086741,0.00028282,-0.01867005,-0.00335417,0.03741226,0.16096805,
 -0.06203359,-0.00032961,0.00007886,0.00205244,-0.00069247,0.00098687,0
 .00042483,-0.00045223,-0.00083595,-0.00251743,-0.00027388,0.00028041,-
 0.00104599,0.00035586,-0.00143135,0.00111465,0.00006181,0.00027453,-0.
 00036873,-0.00452280,-0.01265124,-0.00092350,-0.03436822,-0.12923928,0
 .06734467,0.00004660,-0.00033934,0.00013869,0.00060579,0.00092938,-0.0
 0018759,-0.00013569,-0.00015264,0.00017137,-0.00181363,0.00672431,-0.0
 0426215,-0.04619084,-0.00748194,0.00575369,-0.00023124,-0.00082094,-0.
 00214312,-0.00053460,0.00008879,0.00038958,0.00001276,0.00003431,-0.00
 002664,-0.00001737,-0.00000056,0.00001323,-0.00008233,-0.00007822,-0.0
 0006029,0.00029595,0.00003334,0.00024610,0.04618172,0.00021165,0.00015
 931,-0.00004571,0.00010678,0.00060336,0.00020247,0.00026401,0.00001248
 ,-0.00011011,0.00093651,0.00563841,-0.00738567,-0.00642103,-0.21031141
 ,0.13164620,-0.00050070,0.00071857,-0.00210478,-0.00070737,0.00136541,
 0.00013352,-0.00001367,-0.00000584,0.00001320,0.00002200,0.00003084,0.
 00000147,-0.00000013,0.00008879,0.00010508,-0.00016457,-0.00004599,-0.
 00022475,0.00768514,0.22634150,-0.00011714,-0.00062800,0.00051532,0.00
 117562,0.00126817,0.00091911,-0.00023628,-0.00040303,-0.00007113,0.001
 11250,0.02505378,-0.01750518,0.00562155,0.12808563,-0.14915635,-0.0017
 9412,-0.00268093,-0.00692459,-0.00039398,0.00062606,0.00289650,0.00002
 040,-0.00001144,-0.00006481,-0.00001316,-0.00006153,-0.00008044,-0.000
 04440,0.00002499,-0.00003319,0.00034183,0.00000286,-0.00006577,-0.0049
 5702,-0.14143116,0.16409293,-0.00010217,0.00016284,0.00003024,0.000791
 71,-0.00034832,0.00037244,-0.00193248,-0.00028637,-0.00092345,0.004262
 03,-0.00499137,-0.00124701,-0.16122655,0.12315995,0.05627155,0.0002791
 8,-0.00053137,-0.00014409,0.00146572,-0.00115247,-0.00149960,-0.000004
 29,-0.00000237,0.00007101,0.00001597,0.00001886,-0.00014608,-0.0001304
 1,0.00000443,-0.00005592,0.00002051,-0.00003536,-0.00062722,0.00107149
 ,-0.00231279,-0.00090398,0.17284231,-0.00026976,0.00054735,0.00002403,
 0.00161114,-0.00145392,-0.00082603,0.00029318,0.00105863,0.00148587,0.
 00607861,-0.00771699,-0.00013511,0.12044512,-0.17646905,-0.05982731,-0
 .00022047,0.00070730,0.00120753,-0.00013330,-0.00053019,-0.00405340,0.
 00004945,0.00013431,0.00001415,-0.00008404,-0.00001285,-0.00001320,-0.
 00009145,0.00015383,0.00044295,-0.00002256,0.00027486,-0.00052813,0.01
 605606,-0.01638772,-0.00856409,-0.13414568,0.18912027,-0.00012858,0.00
 014499,0.00018040,0.00137260,-0.00043512,0.00016327,-0.00018526,0.0006
 4405,0.00025488,0.02053498,-0.01881470,-0.00489730,0.05392858,-0.05784
 855,-0.07432467,-0.00030307,0.00074858,0.00191023,0.00034972,-0.005166
 71,-0.00790992,0.00010074,0.00017625,-0.00002829,-0.00007977,0.0000341
 1,-0.00002070,-0.00012440,0.00029794,0.00043903,-0.00078189,-0.0001138
 2,-0.00133316,-0.01395454,0.01387520,0.00703743,-0.05975068,0.06545939
 ,0.07871287,-0.00038467,0.00014260,-0.00011007,0.00057399,0.00034849,-
 0.00155185,-0.00028070,-0.00073646,-0.00069265,-0.00988379,-0.00255222
 ,0.00196609,-0.26500406,-0.08997694,-0.00145846,0.00075880,0.00022420,
 0.00067440,0.00189091,0.00059763,0.00030959,0.00005264,-0.00008177,-0.
 00005182,0.00003314,-0.00019328,0.00009501,0.00009879,-0.00003939,-0.0
 0020831,-0.00005179,-0.00009098,0.00040175,-0.00055252,0.00057600,0.00
 005332,-0.01738746,-0.00921167,-0.00048084,0.28884599,-0.00056844,0.00
 044959,-0.00018768,0.00085553,-0.00087003,-0.00267114,0.00066419,0.000
 56627,0.00058970,-0.01033744,-0.00542691,-0.00022307,-0.08955224,-0.08
 381757,-0.00023291,0.00102563,0.00029936,0.00084372,0.00018736,0.00052
 984,0.00123698,-0.00004776,-0.00000140,-0.00016528,-0.00001021,-0.0001
 8943,0.00031792,-0.00005978,0.00005177,0.00027505,-0.00016708,-0.00004
 060,-0.00037279,-0.02334541,-0.00899510,-0.00125983,0.02026393,0.00990
 397,0.00072494,0.10060639,0.08736986,-0.00134714,-0.00002747,0.0002987
 8,0.00087811,-0.00184901,-0.00555929,-0.00008127,0.00021178,0.00076233
 ,-0.03007892,-0.01232086,-0.00364280,-0.00077206,-0.00033845,-0.046342
 62,-0.00002910,-0.00144047,0.00241199,-0.00071974,0.00235842,0.0022810
 2,-0.00005486,0.00005696,-0.00036464,-0.00005591,-0.00044424,0.0005493
 6,0.00000330,0.00002707,0.00007283,-0.00015827,-0.00007997,-0.00016494
 ,0.01927522,0.00643191,0.00028507,0.00866625,0.00506058,-0.00065990,0.
 00277469,0.00202227,0.05064918,-0.00052074,0.00013226,0.00032186,0.000
 41114,-0.00134295,0.00163716,-0.00019238,-0.00107754,0.00069226,-0.005
 34716,0.00653608,-0.00149082,0.00114325,0.00115996,-0.00016099,-0.3128
 7500,-0.19439125,-0.05695514,0.00151897,0.00114035,-0.00069582,0.00005
 431,-0.00007193,0.00006868,-0.00000768,-0.00013366,-0.00025934,0.00013
 057,0.00001510,0.00004611,0.00072781,-0.00056588,-0.00099426,0.0001087
 8,0.00024771,-0.00028278,-0.00028331,-0.00010032,0.00033787,0.00025842
 ,0.00007914,0.00041558,0.31864926,-0.00086898,0.00032521,0.00034759,0.
 00214397,-0.00418320,0.00291310,0.00091192,0.00083426,-0.00081754,-0.0
 2902710,-0.02018823,-0.00158073,0.00004775,0.00132772,-0.00152415,-0.1
 4724902,-0.11386953,-0.01711918,-0.00057244,0.00138003,-0.00062147,0.0
 0001984,-0.00014845,0.00022097,-0.00006238,-0.00006740,-0.00048737,-0.
 00006742,0.00011567,-0.00019145,-0.00096155,0.00041543,0.00089948,0.00
 037450,-0.00011637,-0.00054266,0.00037805,0.00000500,-0.00018283,0.000
 56258,0.00060953,0.00078876,0.18412742,0.14165039,0.00137860,0.0000618
 4,0.00014719,-0.00065398,0.00453026,-0.00276460,0.00036434,0.00020449,
 -0.00020864,0.02270766,0.01121279,0.00271972,0.00233183,0.00057589,0.0
 0107337,-0.04242819,-0.01509147,-0.06523281,0.00004743,-0.00078939,-0.
 00033364,-0.00005514,0.00008015,-0.00022484,0.00015873,0.00019995,0.00
 053430,0.00000445,-0.00002726,-0.00001617,-0.00027672,0.00015565,0.000
 22258,-0.00042123,-0.00051712,0.00020143,0.00026439,-0.00008481,-0.000
 29761,-0.00130389,0.00013903,-0.00060716,0.05329903,0.01927601,0.06867
 137,-0.00026097,-0.00023965,-0.00068545,0.00108209,0.00044250,0.001044
 37,-0.00136217,0.00014421,-0.00084630,-0.00176627,0.00581881,-0.002216
 43,0.00016232,-0.00006181,-0.00017366,-0.03230596,-0.01427553,0.027602
 79,-0.00023500,-0.00242415,-0.00010169,0.00011410,0.00011651,0.0000885
 4,-0.00008739,-0.00001272,0.00000012,-0.00023661,-0.00023466,0.0002627
 6,0.00087245,0.00035432,0.00117577,0.00092101,-0.00000965,0.00003829,0
 .00003093,-0.00016762,-0.00027672,0.00038317,0.00012320,0.00029536,-0.
 00345922,-0.01131590,-0.03516591,0.03624929,-0.00008275,-0.00031044,-0
 .00056876,0.00051024,0.00172081,0.00025404,0.00057517,-0.00042751,-0.0
 0000252,0.00185426,0.00713157,0.03512321,-0.00026121,-0.00476035,0.003
 07053,-0.02842347,-0.09016662,-0.13273325,-0.00038772,0.00252210,-0.00
 071441,-0.00006161,-0.00012948,0.00003167,0.00006727,-0.00008017,-0.00
 001493,0.00002707,0.00013492,0.00000642,-0.00018695,-0.00016173,-0.000
 51519,0.00038956,0.00074637,0.00178298,-0.00016837,-0.00006266,-0.0000
 2886,0.00023737,-0.00005433,-0.00004125,0.00433257,-0.00740566,-0.0198
 6817,0.02173492,0.09132603,0.00014319,0.00012461,0.00020241,-0.0002044
 4,-0.00032363,0.00019751,0.00014125,-0.00008688,0.00018613,0.00212498,
 -0.00933309,-0.02721136,0.00108687,0.00562300,-0.00200180,-0.01639606,
 -0.10540378,-0.37400433,-0.00074123,-0.00264699,0.00295882,0.00003755,
 0.00004873,0.00004564,-0.00005853,0.00004381,-0.00004977,0.00003365,-0
 .00000844,-0.00007125,0.00026511,0.00005857,-0.00038071,-0.00046260,-0
 .00037689,-0.00130379,0.00003359,-0.00008326,0.00040577,-0.00006143,-0
 .00007575,0.00042471,0.00446421,-0.00189539,-0.00458415,0.00922348,0.1
 1470519,0.40483254,-0.00123869,-0.00047040,0.00050732,-0.00040164,0.00
 236357,0.00065680,0.00058251,-0.00155877,-0.00074883,0.00460158,0.0157
 1388,-0.01861180,-0.00004890,0.00004396,-0.00009638,-0.00324045,0.0071
 0415,-0.00004139,-0.05804126,0.00533075,0.01048027,-0.00159458,-0.0011
 2647,-0.00164477,0.00045325,-0.00052279,0.00009495,-0.00009183,-0.0000
 4014,0.00007329,0.00058670,0.00022643,0.00002279,0.00031721,0.00001772
 ,0.00029951,-0.00008547,0.00003738,0.00005414,-0.00005226,-0.00028946,
 0.00003484,-0.00038121,0.00029465,0.00009242,0.00035492,-0.00040888,0.
 00063391,0.05979906,-0.00085132,0.00013849,-0.00008684,0.00029979,0.00
 044345,0.00038412,-0.00015811,-0.00018406,-0.00049697,-0.00133964,-0.0
 2197279,0.01918667,-0.00161877,0.00109478,0.00094211,0.00499457,-0.005
 56014,-0.00091616,-0.00627253,-0.26125852,0.16724184,-0.00139839,0.000
 16155,-0.00035243,0.00002349,-0.00005905,-0.00008506,-0.00006711,0.000
 11127,-0.00004874,-0.00025418,-0.00001126,0.00028219,0.00015713,0.0002
 3588,-0.00126715,0.00006178,0.00085178,0.00041183,0.00005051,-0.000220
 75,-0.00017878,0.00019860,0.00041649,0.00007627,-0.00018108,-0.0000173
 1,-0.00066003,0.00542849,0.29795941,-0.00010275,0.00095602,0.00035417,
 -0.00014762,0.00151821,0.00082106,-0.00000052,-0.00107953,-0.00062531,
 0.00120158,-0.01532419,0.00103548,-0.00010934,-0.00074405,0.00095830,-
 0.00025644,0.00007113,0.00181692,0.01906531,0.21775522,-0.17140309,-0.
 00099955,-0.00095609,-0.00034569,0.00051853,-0.00057491,-0.00010063,-0
 .00008460,0.00000728,0.00006178,0.00038972,0.00002818,0.00008650,0.000
 27033,-0.00017261,-0.00044386,0.00010696,0.00031599,-0.00001624,0.0000
 0471,-0.00010023,-0.00010082,-0.00012212,-0.00012603,-0.00003795,0.000
 66646,-0.00052046,0.00071219,-0.01588118,-0.19572173,0.16959236,0.0003
 1048,0.00032391,0.00011654,-0.00080306,0.00450929,0.00182821,-0.001470
 78,-0.00077839,-0.00003596,-0.02812268,-0.01328244,-0.00427229,0.00180
 550,-0.00130102,-0.00072595,0.00346028,-0.00054689,-0.00029676,-0.3585
 5030,-0.12497675,-0.00676863,-0.00008241,0.00011028,-0.00004485,0.0000
 1264,-0.00001663,0.00003578,-0.00018269,0.00047966,0.00012952,-0.00017
 519,-0.00002976,-0.00001532,-0.00000308,0.00006240,0.00007985,0.000372
 27,-0.00012408,-0.00061288,0.00070139,0.00057244,0.00095392,0.00006419
 ,0.00126413,-0.00034381,-0.00045669,0.00025253,-0.00026349,-0.00151895
 ,0.00092674,-0.00451948,0.38463908,-0.00032125,-0.00055663,-0.00021687
 ,0.00209256,-0.00480457,-0.00188492,0.00142314,0.00102383,0.00030212,0
 .02910474,0.00840807,-0.00086874,0.00122704,0.00066360,0.00056764,-0.0
 0124633,0.00261224,-0.00021960,-0.13177858,-0.11263846,0.00566810,-0.0
 0031681,0.00060325,0.00036129,-0.00025619,0.00036373,0.00003655,0.0004
 3125,-0.00030163,-0.00015952,0.00011924,0.00017578,-0.00014910,-0.0002
 5348,-0.00007849,0.00000536,-0.00007537,-0.00012392,0.00007330,-0.0004
 6305,-0.00016406,-0.00023725,-0.00028568,-0.00110091,-0.00013411,0.000
 18829,-0.00000552,0.00029021,-0.03214407,-0.01212921,-0.00533221,0.132
 55456,0.11805289,-0.00034299,-0.00024848,0.00009776,0.00008665,-0.0015
 9148,-0.00063041,0.00021301,0.00027078,0.00048929,0.01696421,0.0005164
 6,-0.00404955,0.00096301,0.00175732,0.00078213,0.00054272,0.00010624,-
 0.00104791,-0.05534936,-0.01434970,-0.01825386,0.00017242,0.00059849,-
 0.00039625,-0.00015814,0.00003928,0.00033374,0.00013890,-0.00011017,0.
 00007445,-0.00014521,-0.00005564,0.00007492,0.00021699,-0.00004026,-0.
 00029868,-0.00051841,0.00010486,0.00038391,-0.00036023,-0.00086094,-0.
 00029309,-0.00032150,0.00064287,0.00073759,-0.00093179,0.00003374,-0.0
 0035857,0.02407412,0.01128887,-0.00236518,0.01475561,0.00189775,0.0247
 1969\\-0.00000058,-0.00000401,-0.00000728,-0.00000783,-0.00001906,-0.0
 0000993,-0.00000943,-0.00000726,-0.00000661,0.00003665,0.00001065,-0.0
 0000179,-0.00001232,0.00000051,-0.00001382,-0.00001129,-0.00001129,0.0
 0001347,-0.00000934,0.00001257,0.00000203,0.00001477,-0.00000051,0.000
 00267,0.00001059,-0.00000707,-0.00000990,-0.00000840,-0.00000646,-0.00
 001182,-0.00000499,0.00000428,-0.00000703,-0.00000783,0.00000215,0.000
 00167,-0.00001216,0.00000406,0.00000245,-0.00000495,0.00000859,0.00001
 021,0.00000188,0.00000775,0.00000751,0.00000541,-0.00000258,0.00000404
 ,0.00000952,-0.00000049,0.00001283,0.00001030,0.00000818,0.00001129\\\
 @
 Job cpu time:       0 days  5 hours 23 minutes 40.1 seconds.
 File lengths (MBytes):  RWF=  25111 Int=      0 D2E=      0 Chk=     54 Scr=      1
 Normal termination of Gaussian 09 at Tue Aug 23 10:32:12 2022.
