 Entering Gaussian System, Link 0=g09
 Input=G4.Frag_853.gjf
 Output=G4.Frag_853.log
 Initial command:
 /public/home/users/caep010/software/Gaussian09/g09/l1.exe "/public/home/users/caep010/.cache/gau_scr/Gau-42340.inp" -scrdir="/public/home/users/caep010/.cache/gau_scr/"
 Entering Link 1 = /public/home/users/caep010/software/Gaussian09/g09/l1.exe PID=     42341.
  
 Copyright (c) 1988,1990,1992,1993,1995,1998,2003,2009,2015,
            Gaussian, Inc.  All Rights Reserved.
  
 This is part of the Gaussian(R) 09 program.  It is based on
 the Gaussian(R) 03 system (copyright 2003, Gaussian, Inc.),
 the Gaussian(R) 98 system (copyright 1998, Gaussian, Inc.),
 the Gaussian(R) 94 system (copyright 1995, Gaussian, Inc.),
 the Gaussian 92(TM) system (copyright 1992, Gaussian, Inc.),
 the Gaussian 90(TM) system (copyright 1990, Gaussian, Inc.),
 the Gaussian 88(TM) system (copyright 1988, Gaussian, Inc.),
 the Gaussian 86(TM) system (copyright 1986, Carnegie Mellon
 University), and the Gaussian 82(TM) system (copyright 1983,
 Carnegie Mellon University). Gaussian is a federally registered
 trademark of Gaussian, Inc.
  
 This software contains proprietary and confidential information,
 including trade secrets, belonging to Gaussian, Inc.
  
 This software is provided under written license and may be
 used, copied, transmitted, or stored only in accord with that
 written license.
  
 The following legend is applicable only to US Government
 contracts under FAR:
  
                    RESTRICTED RIGHTS LEGEND
  
 Use, reproduction and disclosure by the US Government is
 subject to restrictions as set forth in subparagraphs (a)
 and (c) of the Commercial Computer Software - Restricted
 Rights clause in FAR 52.227-19.
  
 Gaussian, Inc.
 340 Quinnipiac St., Bldg. 40, Wallingford CT 06492
  
  
 ---------------------------------------------------------------
 Warning -- This program may not be used in any manner that
 competes with the business of Gaussian, Inc. or will provide
 assistance to any competitor of Gaussian, Inc.  The licensee
 of this program is prohibited from giving any competitor of
 Gaussian, Inc. access to this program.  By using this program,
 the user acknowledges that Gaussian, Inc. is engaged in the
 business of creating and licensing software in the field of
 computational chemistry and represents and warrants to the
 licensee that it is not a competitor of Gaussian, Inc. and that
 it will not use this program in any manner prohibited above.
 ---------------------------------------------------------------
  

 Cite this work as:
 Gaussian 09, Revision E.01,
 M. J. Frisch, G. W. Trucks, H. B. Schlegel, G. E. Scuseria, 
 M. A. Robb, J. R. Cheeseman, G. Scalmani, V. Barone, B. Mennucci, 
 G. A. Petersson, H. Nakatsuji, M. Caricato, X. Li, H. P. Hratchian, 
 A. F. Izmaylov, J. Bloino, G. Zheng, J. L. Sonnenberg, M. Hada, 
 M. Ehara, K. Toyota, R. Fukuda, J. Hasegawa, M. Ishida, T. Nakajima, 
 Y. Honda, O. Kitao, H. Nakai, T. Vreven, J. A. Montgomery, Jr., 
 J. E. Peralta, F. Ogliaro, M. Bearpark, J. J. Heyd, E. Brothers, 
 K. N. Kudin, V. N. Staroverov, T. Keith, R. Kobayashi, J. Normand, 
 K. Raghavachari, A. Rendell, J. C. Burant, S. S. Iyengar, J. Tomasi, 
 M. Cossi, N. Rega, J. M. Millam, M. Klene, J. E. Knox, J. B. Cross, 
 V. Bakken, C. Adamo, J. Jaramillo, R. Gomperts, R. E. Stratmann, 
 O. Yazyev, A. J. Austin, R. Cammi, C. Pomelli, J. W. Ochterski, 
 R. L. Martin, K. Morokuma, V. G. Zakrzewski, G. A. Voth, 
 P. Salvador, J. J. Dannenberg, S. Dapprich, A. D. Daniels, 
 O. Farkas, J. B. Foresman, J. V. Ortiz, J. Cioslowski, 
 and D. J. Fox, Gaussian, Inc., Wallingford CT, 2013.
 
 ******************************************
 Gaussian 09:  ES64L-G09RevE.01 30-Nov-2015
                21-Aug-2022 
 ******************************************
 %nproc=32
 Will use up to   32 processors via shared memory.
 %mem=180MB
 %chk=G4.Frag_853.chk
 -----
 #P G4
 -----
 1/14=-1,18=20,19=15,26=3,38=1/1,3;
 2/9=110,12=2,17=6,18=5,40=1/2;
 3/5=35,7=104,11=2,16=1,25=1,30=1,71=1,74=-5/1,2,3;
 4//1;
 5/5=2,38=5/2;
 6/7=2,8=2,9=2,10=2,28=1/1;
 7//1,2,3,16;
 1/14=-1,18=20,19=15,26=3/3(2);
 2/9=110/2;
 99//99;
 2/9=110/2;
 3/5=35,7=104,11=2,16=1,25=1,30=1,71=1,74=-5/1,2,3;
 4/5=5,16=3,69=1/1;
 5/5=2,38=5/2;
 7//1,2,3,16;
 1/14=-1,18=20,19=15,26=3/3(-5);
 2/9=110/2;
 6/7=2,8=2,9=2,10=2,19=2,28=1/1;
 99/9=1/99;
 Leave Link    1 at Sun Aug 21 13:29:22 2022, MaxMem=    23592960 cpu:         4.1
 (Enter /public/home/users/caep010/software/Gaussian09/g09/l101.exe)
 --------
 Frag_853
 --------
 Symbolic Z-matrix:
 Charge =  0 Multiplicity = 1
 N                     1.8297   -0.5233    0.3825 
 C                     0.8017    0.3785   -0.1318 
 C                    -0.6055   -0.2287    0.0588 
 N                    -1.6371    0.7124   -0.3978 
 O                    -0.6928   -1.4077   -0.6999 
 O                    -0.8165   -0.5433    1.4155 
 H                     1.9109   -1.3367   -0.2701 
 H                     2.7452   -0.0197    0.3394 
 H                     0.985     0.5815   -1.2112 
 H                     0.8653    1.3468    0.4125 
 H                    -1.5345    1.6191    0.1142 
 H                    -1.4872    0.9134   -1.4137 
 H                    -1.591    -1.7961   -0.5302 
 H                    -0.7733    0.3037    1.932 
 
 NAtoms=     14 NQM=       14 NQMF=       0 NMMI=      0 NMMIF=      0
                NMic=       0 NMicF=      0.
                    Isotopes and Nuclear Properties:
 (Nuclear quadrupole moments (NQMom) in fm**2, nuclear magnetic moments (NMagM)
  in nuclear magnetons)

  Atom         1           2           3           4           5           6           7           8           9          10
 IAtWgt=          14          12          12          14          16          16           1           1           1           1
 AtmWgt=  14.0030740  12.0000000  12.0000000  14.0030740  15.9949146  15.9949146   1.0078250   1.0078250   1.0078250   1.0078250
 NucSpn=           2           0           0           2           0           0           1           1           1           1
 AtZEff=   0.0000000   0.0000000   0.0000000   0.0000000   0.0000000   0.0000000   0.0000000   0.0000000   0.0000000   0.0000000
 NQMom=    2.0440000   0.0000000   0.0000000   2.0440000   0.0000000   0.0000000   0.0000000   0.0000000   0.0000000   0.0000000
 NMagM=    0.4037610   0.0000000   0.0000000   0.4037610   0.0000000   0.0000000   2.7928460   2.7928460   2.7928460   2.7928460
 AtZNuc=   7.0000000   6.0000000   6.0000000   7.0000000   8.0000000   8.0000000   1.0000000   1.0000000   1.0000000   1.0000000

  Atom        11          12          13          14
 IAtWgt=           1           1           1           1
 AtmWgt=   1.0078250   1.0078250   1.0078250   1.0078250
 NucSpn=           1           1           1           1
 AtZEff=   0.0000000   0.0000000   0.0000000   0.0000000
 NQMom=    0.0000000   0.0000000   0.0000000   0.0000000
 NMagM=    2.7928460   2.7928460   2.7928460   2.7928460
 AtZNuc=   1.0000000   1.0000000   1.0000000   1.0000000
 Leave Link  101 at Sun Aug 21 13:29:22 2022, MaxMem=    23592960 cpu:         3.2
 (Enter /public/home/users/caep010/software/Gaussian09/g09/l103.exe)

 GradGradGradGradGradGradGradGradGradGradGradGradGradGradGradGradGradGrad
 Berny optimization.
 Initialization pass.
                           ----------------------------
                           !    Initial Parameters    !
                           ! (Angstroms and Degrees)  !
 --------------------------                            --------------------------
 ! Name  Definition              Value          Derivative Info.                !
 --------------------------------------------------------------------------------
 ! R1    R(1,2)                  1.461          estimate D2E/DX2                !
 ! R2    R(1,7)                  1.046          estimate D2E/DX2                !
 ! R3    R(1,8)                  1.0458         estimate D2E/DX2                !
 ! R4    R(2,3)                  1.5444         estimate D2E/DX2                !
 ! R5    R(2,9)                  1.1135         estimate D2E/DX2                !
 ! R6    R(2,10)                 1.1126         estimate D2E/DX2                !
 ! R7    R(3,4)                  1.4691         estimate D2E/DX2                !
 ! R8    R(3,5)                  1.4047         estimate D2E/DX2                !
 ! R9    R(3,6)                  1.4086         estimate D2E/DX2                !
 ! R10   R(4,11)                 1.0463         estimate D2E/DX2                !
 ! R11   R(4,12)                 1.0464         estimate D2E/DX2                !
 ! R12   R(5,13)                 0.9932         estimate D2E/DX2                !
 ! R13   R(6,14)                 0.993          estimate D2E/DX2                !
 ! A1    A(2,1,7)              108.3601         estimate D2E/DX2                !
 ! A2    A(2,1,8)              107.7119         estimate D2E/DX2                !
 ! A3    A(7,1,8)              106.3084         estimate D2E/DX2                !
 ! A4    A(1,2,3)              110.7929         estimate D2E/DX2                !
 ! A5    A(1,2,9)              109.7511         estimate D2E/DX2                !
 ! A6    A(1,2,10)             108.9507         estimate D2E/DX2                !
 ! A7    A(3,2,9)              109.9558         estimate D2E/DX2                !
 ! A8    A(3,2,10)             109.5039         estimate D2E/DX2                !
 ! A9    A(9,2,10)             107.8274         estimate D2E/DX2                !
 ! A10   A(2,3,4)              110.4622         estimate D2E/DX2                !
 ! A11   A(2,3,5)              108.6598         estimate D2E/DX2                !
 ! A12   A(2,3,6)              110.0696         estimate D2E/DX2                !
 ! A13   A(4,3,5)              109.0348         estimate D2E/DX2                !
 ! A14   A(4,3,6)              109.7084         estimate D2E/DX2                !
 ! A15   A(5,3,6)              108.8712         estimate D2E/DX2                !
 ! A16   A(3,4,11)             109.5219         estimate D2E/DX2                !
 ! A17   A(3,4,12)             108.917          estimate D2E/DX2                !
 ! A18   A(11,4,12)            107.132          estimate D2E/DX2                !
 ! A19   A(3,5,13)             106.9862         estimate D2E/DX2                !
 ! A20   A(3,6,14)             107.6954         estimate D2E/DX2                !
 ! D1    D(7,1,2,3)             72.296          estimate D2E/DX2                !
 ! D2    D(7,1,2,9)            -49.3207         estimate D2E/DX2                !
 ! D3    D(7,1,2,10)          -167.1745         estimate D2E/DX2                !
 ! D4    D(8,1,2,3)           -173.0849         estimate D2E/DX2                !
 ! D5    D(8,1,2,9)             65.2984         estimate D2E/DX2                !
 ! D6    D(8,1,2,10)           -52.5554         estimate D2E/DX2                !
 ! D7    D(1,2,3,4)            177.12           estimate D2E/DX2                !
 ! D8    D(1,2,3,5)            -63.3139         estimate D2E/DX2                !
 ! D9    D(1,2,3,6)             55.8188         estimate D2E/DX2                !
 ! D10   D(9,2,3,4)            -61.3837         estimate D2E/DX2                !
 ! D11   D(9,2,3,5)             58.1825         estimate D2E/DX2                !
 ! D12   D(9,2,3,6)            177.3152         estimate D2E/DX2                !
 ! D13   D(10,2,3,4)            56.9199         estimate D2E/DX2                !
 ! D14   D(10,2,3,5)           176.486          estimate D2E/DX2                !
 ! D15   D(10,2,3,6)           -64.3813         estimate D2E/DX2                !
 ! D16   D(2,3,4,11)           -56.5708         estimate D2E/DX2                !
 ! D17   D(2,3,4,12)            60.2943         estimate D2E/DX2                !
 ! D18   D(5,3,4,11)          -175.9103         estimate D2E/DX2                !
 ! D19   D(5,3,4,12)           -59.0451         estimate D2E/DX2                !
 ! D20   D(6,3,4,11)            64.9443         estimate D2E/DX2                !
 ! D21   D(6,3,4,12)          -178.1905         estimate D2E/DX2                !
 ! D22   D(2,3,5,13)           177.7086         estimate D2E/DX2                !
 ! D23   D(4,3,5,13)           -61.838          estimate D2E/DX2                !
 ! D24   D(6,3,5,13)            57.8272         estimate D2E/DX2                !
 ! D25   D(2,3,6,14)            62.3615         estimate D2E/DX2                !
 ! D26   D(4,3,6,14)           -59.389          estimate D2E/DX2                !
 ! D27   D(5,3,6,14)          -178.635          estimate D2E/DX2                !
 --------------------------------------------------------------------------------
 Trust Radius=3.00D-01 FncErr=1.00D-07 GrdErr=1.00D-06
 Number of steps in this run=     70 maximum allowed number of steps=    100.
 GradGradGradGradGradGradGradGradGradGradGradGradGradGradGradGradGradGrad

 Leave Link  103 at Sun Aug 21 13:29:22 2022, MaxMem=    23592960 cpu:         0.7
 (Enter /public/home/users/caep010/software/Gaussian09/g09/l202.exe)
                          Input orientation:                          
 ---------------------------------------------------------------------
 Center     Atomic      Atomic             Coordinates (Angstroms)
 Number     Number       Type             X           Y           Z
 ---------------------------------------------------------------------
      1          7           0        1.829700   -0.523300    0.382500
      2          6           0        0.801700    0.378500   -0.131800
      3          6           0       -0.605500   -0.228700    0.058800
      4          7           0       -1.637100    0.712400   -0.397800
      5          8           0       -0.692800   -1.407700   -0.699900
      6          8           0       -0.816500   -0.543300    1.415500
      7          1           0        1.910900   -1.336700   -0.270100
      8          1           0        2.745200   -0.019700    0.339400
      9          1           0        0.985000    0.581500   -1.211200
     10          1           0        0.865300    1.346800    0.412500
     11          1           0       -1.534500    1.619100    0.114200
     12          1           0       -1.487200    0.913400   -1.413700
     13          1           0       -1.591000   -1.796100   -0.530200
     14          1           0       -0.773300    0.303700    1.932000
 ---------------------------------------------------------------------
                    Distance matrix (angstroms):
                    1          2          3          4          5
     1  N    0.000000
     2  C    1.461004   0.000000
     3  C    2.474221   1.544420   0.000000
     4  N    3.762250   2.475882   1.469133   0.000000
     5  O    2.883879   2.397244   1.404738   2.340468   0.000000
     6  O    2.840751   2.421244   1.408591   2.353343   2.288538
     7  H    1.045992   2.047282   2.769135   4.099198   2.639891
     8  H    1.045758   2.039065   3.368918   4.503775   3.850524
     9  H    2.115179   1.113513   2.190665   2.748484   2.652048
    10  H    2.104339   1.112615   2.184160   2.705745   3.354457
    11  H    3.997462   2.656583   2.068931   1.046315   3.245418
    12  H    4.036368   2.677396   2.061563   1.046386   2.555012
    13  H    3.762211   3.257702   1.942903   2.512415   0.993185
    14  H    3.140141   2.597208   1.954606   2.518165   3.140425
                    6          7          8          9         10
     6  O    0.000000
     7  H    3.302944   0.000000
     8  H    3.757373   1.673928   0.000000
     9  H    3.377888   2.328616   2.421592   0.000000
    10  H    2.721569   2.959796   2.325229   1.799004   0.000000
    11  H    2.623905   4.555790   4.588269   3.030046   2.433551
    12  H    3.252105   4.232949   4.675173   2.502586   3.009501
    13  H    2.440309   3.541469   4.765966   3.571067   4.098770
    14  H    0.992999   3.839933   3.875668   3.612270   2.466161
                   11         12         13         14
    11  H    0.000000
    12  H    1.683665   0.000000
    13  H    3.475922   2.851795   0.000000
    14  H    2.369409   3.474924   3.337697   0.000000
 Stoichiometry    C2H8N2O2
 Framework group  C1[X(C2H8N2O2)]
 Deg. of freedom    36
 Full point group                 C1      NOp   1
 Largest Abelian subgroup         C1      NOp   1
 Largest concise Abelian subgroup C1      NOp   1
                         Standard orientation:                         
 ---------------------------------------------------------------------
 Center     Atomic      Atomic             Coordinates (Angstroms)
 Number     Number       Type             X           Y           Z
 ---------------------------------------------------------------------
      1          7           0       -2.036935    0.059838    0.090514
      2          6           0       -0.869630   -0.694021   -0.360735
      3          6           0        0.436047    0.040502    0.014655
      4          7           0        1.605394   -0.755924   -0.381180
      5          8           0        0.469749    1.271248   -0.661670
      6          8           0        0.473203    0.281817    1.401924
      7          1           0       -2.140490    0.903184   -0.519522
      8          1           0       -2.882655   -0.531286   -0.079609
      9          1           0       -0.919630   -0.840667   -1.463416
     10          1           0       -0.881342   -1.698605    0.117372
     11          1           0        1.551627   -1.701194    0.064184
     12          1           0        1.581788   -0.901479   -1.417124
     13          1           0        1.298205    1.737631   -0.374332
     14          1           0        0.471173   -0.598397    1.861560
 ---------------------------------------------------------------------
 Rotational constants (GHZ):      4.9105194      2.7414902      2.7051007
 Leave Link  202 at Sun Aug 21 13:29:22 2022, MaxMem=    23592960 cpu:         1.1
 (Enter /public/home/users/caep010/software/Gaussian09/g09/l301.exe)
 Standard basis: GTBas3 (6D, 7F)
 Ernie: Thresh=  0.10000D-02 Tol=  0.10000D-05 Strict=F.
 There are   226 symmetry adapted cartesian basis functions of A   symmetry.
 There are   208 symmetry adapted basis functions of A   symmetry.
   208 basis functions,   320 primitive gaussians,   226 cartesian basis functions
    25 alpha electrons       25 beta electrons
       nuclear repulsion energy       272.6117215400 Hartrees.
 IExCor=  402 DFT=T Ex+Corr=B3LYP ExCW=0 ScaHFX=  0.200000
 ScaDFX=  0.800000  0.720000  1.000000  0.810000 ScalE2=  1.000000  1.000000
 IRadAn=      0 IRanWt=     -1 IRanGd=            0 ICorTp=0 IEmpDi=  4
 NAtoms=   14 NActive=   14 NUniq=   14 SFac= 1.00D+00 NAtFMM=   60 NAOKFM=F Big=F
 Integral buffers will be    131072 words long.
 Raffenetti 2 integral format.
 Two-electron integral symmetry is turned on.
 Leave Link  301 at Sun Aug 21 13:29:23 2022, MaxMem=    23592960 cpu:         2.3
 (Enter /public/home/users/caep010/software/Gaussian09/g09/l302.exe)
 NPDir=0 NMtPBC=     1 NCelOv=     1 NCel=       1 NClECP=     1 NCelD=      1
         NCelK=      1 NCelE2=     1 NClLst=     1 CellRange=     0.0.
 One-electron integrals computed using PRISM.
 PrsmSu:  requested number of processors reduced to:   3 ShMem   1 Linda.
 PrsmSu:  requested number of processors reduced to:  11 ShMem   1 Linda.
 NBasis=   208 RedAO= T EigKep=  4.03D-04  NBF=   208
 NBsUse=   208 1.00D-06 EigRej= -1.00D+00 NBFU=   208
 Precomputing XC quadrature grid using
 IXCGrd= 4 IRadAn=           0 IRanWt=          -1 IRanGd=           0 AccXCQ= 0.00D+00.
 Generated NRdTot=       0 NPtTot=           0 NUsed=           0 NTot=          32
 NSgBfM=   226   226   226   226   226 MxSgAt=    14 MxSgA2=    14.
 Leave Link  302 at Sun Aug 21 13:29:23 2022, MaxMem=    23592960 cpu:         4.4
 (Enter /public/home/users/caep010/software/Gaussian09/g09/l303.exe)
 DipDrv:  MaxL=1.
 Leave Link  303 at Sun Aug 21 13:29:23 2022, MaxMem=    23592960 cpu:         0.7
 (Enter /public/home/users/caep010/software/Gaussian09/g09/l401.exe)
 ExpMin= 1.61D-01 ExpMax= 5.48D+03 ExpMxC= 8.25D+02 IAcc=1 IRadAn=         1 AccDes= 0.00D+00
 Harris functional with IExCor=  402 and IRadAn=       1 diagonalized for initial guess.
 HarFok:  IExCor=  402 AccDes= 0.00D+00 IRadAn=         1 IDoV= 1 UseB2=F ITyADJ=14
 ICtDFT=  3500011 ScaDFX=  1.000000  1.000000  1.000000  1.000000
 CalDSu:  requested number of processors reduced to:  19 ShMem   1 Linda.
 FoFCou: FMM=F IPFlag=           0 FMFlag=      100000 FMFlg1=           0
         NFxFlg=           0 DoJE=T BraDBF=F KetDBF=T FulRan=T
         wScrn=  0.000000 ICntrl=     500 IOpCl=  0 I1Cent=   200000004 NGrid=           0
         NMat0=    1 NMatS0=      1 NMatT0=    0 NMatD0=    1 NMtDS0=    0 NMtDT0=    0
 Petite list used in FoFCou.
 CoulSu:  requested number of processors reduced to:  11 ShMem   1 Linda.
 CoulSu:  requested number of processors reduced to:  11 ShMem   1 Linda.
 CoulSu:  requested number of processors reduced to:  12 ShMem   1 Linda.
 CoulSu:  requested number of processors reduced to:  12 ShMem   1 Linda.
 Harris En= -341.012138426445    
 JPrj=0 DoOrth=F DoCkMO=F.
 Leave Link  401 at Sun Aug 21 13:29:23 2022, MaxMem=    23592960 cpu:         4.9
 (Enter /public/home/users/caep010/software/Gaussian09/g09/l502.exe)
 Closed shell SCF:
 Using DIIS extrapolation, IDIIS=  1040.
 Integral symmetry usage will be decided dynamically.
 IVT=      180662 IEndB=      180662 NGot=    23592960 MDV=    23480241
 LenX=    23480241 LenY=    23428724
 Requested convergence on RMS density matrix=1.00D-08 within 128 cycles.
 Requested convergence on MAX density matrix=1.00D-06.
 Requested convergence on             energy=1.00D-06.
 No special actions if energy rises.
 Fock matrices will be formed incrementally for  20 cycles.
 Integral accuracy reduced to 1.0D-05 until final iterations.

 Cycle   1  Pass 0  IDiag  1:
 FoFJK:  IHMeth= 1 ICntrl=       0 DoSepK=F KAlg= 0 I1Cent=   0 FoldK=F
 IRaf= 980000000 NMat=   1 IRICut=       1 DoRegI=T DoRafI=F ISym2E= 0.
 FoFCou: FMM=F IPFlag=           0 FMFlag=      100000 FMFlg1=           0
         NFxFlg=           0 DoJE=F BraDBF=F KetDBF=F FulRan=T
         wScrn=  0.000000 ICntrl=       0 IOpCl=  0 I1Cent=           0 NGrid=           0
         NMat0=    1 NMatS0=      1 NMatT0=    0 NMatD0=    1 NMtDS0=    0 NMtDT0=    0
 Symmetry not used in FoFCou.
 CoulSu:  requested number of processors reduced to:  11 ShMem   1 Linda.
 CalDSu:  requested number of processors reduced to:  19 ShMem   1 Linda.
 E= -340.760441450547    
 DIIS: error= 2.29D-02 at cycle   1 NSaved=   1.
 NSaved= 1 IEnMin= 1 EnMin= -340.760441450547     IErMin= 1 ErrMin= 2.29D-02
 ErrMax= 2.29D-02  0.00D+00 EMaxC= 1.00D-01 BMatC= 2.78D-01 BMatP= 2.78D-01
 IDIUse=3 WtCom= 7.71D-01 WtEn= 2.29D-01
 Coeff-Com:  0.100D+01
 Coeff-En:   0.100D+01
 Coeff:      0.100D+01
 Gap=     0.185 Goal=   None    Shift=    0.000
 GapD=    0.185 DampG=1.000 DampE=0.500 DampFc=0.5000 IDamp=-1.
 Damping current iteration by 5.00D-01
 RMSDP=5.71D-03 MaxDP=1.66D-01              OVMax= 1.66D-01

 Cycle   2  Pass 0  IDiag  1:
 RMSU=  2.83D-03    CP:  9.80D-01
 CoulSu:  requested number of processors reduced to:  11 ShMem   1 Linda.
 CalDSu:  requested number of processors reduced to:  20 ShMem   1 Linda.
 E= -340.841590388649     Delta-E=       -0.081148938102 Rises=F Damp=T
 DIIS: error= 8.69D-03 at cycle   2 NSaved=   2.
 NSaved= 2 IEnMin= 2 EnMin= -340.841590388649     IErMin= 2 ErrMin= 8.69D-03
 ErrMax= 8.69D-03  0.00D+00 EMaxC= 1.00D-01 BMatC= 2.02D-02 BMatP= 2.78D-01
 IDIUse=3 WtCom= 9.13D-01 WtEn= 8.69D-02
 Coeff-Com:  0.161D+00 0.839D+00
 Coeff-En:   0.268D+00 0.732D+00
 Coeff:      0.170D+00 0.830D+00
 Gap=     0.270 Goal=   None    Shift=    0.000
 RMSDP=9.94D-04 MaxDP=4.80D-02 DE=-8.11D-02 OVMax= 1.05D-01

 Cycle   3  Pass 0  IDiag  1:
 RMSU=  7.96D-04    CP:  9.78D-01  7.91D-01
 CoulSu:  requested number of processors reduced to:  11 ShMem   1 Linda.
 CalDSu:  requested number of processors reduced to:  19 ShMem   1 Linda.
 E= -340.981811469461     Delta-E=       -0.140221080813 Rises=F Damp=F
 DIIS: error= 2.04D-03 at cycle   3 NSaved=   3.
 NSaved= 3 IEnMin= 3 EnMin= -340.981811469461     IErMin= 3 ErrMin= 2.04D-03
 ErrMax= 2.04D-03  0.00D+00 EMaxC= 1.00D-01 BMatC= 2.38D-03 BMatP= 2.02D-02
 IDIUse=3 WtCom= 9.80D-01 WtEn= 2.04D-02
 Coeff-Com:  0.299D-01 0.227D+00 0.743D+00
 Coeff-En:   0.000D+00 0.000D+00 0.100D+01
 Coeff:      0.293D-01 0.222D+00 0.749D+00
 Gap=     0.273 Goal=   None    Shift=    0.000
 RMSDP=3.70D-04 MaxDP=1.14D-02 DE=-1.40D-01 OVMax= 1.53D-02

 Cycle   4  Pass 0  IDiag  1:
 RMSU=  2.98D-04    CP:  9.79D-01  7.69D-01  7.35D-01
 CoulSu:  requested number of processors reduced to:  11 ShMem   1 Linda.
 CalDSu:  requested number of processors reduced to:  19 ShMem   1 Linda.
 E= -340.982625092795     Delta-E=       -0.000813623333 Rises=F Damp=F
 DIIS: error= 1.86D-03 at cycle   4 NSaved=   4.
 NSaved= 4 IEnMin= 4 EnMin= -340.982625092795     IErMin= 4 ErrMin= 1.86D-03
 ErrMax= 1.86D-03  0.00D+00 EMaxC= 1.00D-01 BMatC= 1.46D-03 BMatP= 2.38D-03
 IDIUse=3 WtCom= 9.81D-01 WtEn= 1.86D-02
 Coeff-Com:  0.189D-02 0.357D-01 0.439D+00 0.523D+00
 Coeff-En:   0.000D+00 0.000D+00 0.385D+00 0.615D+00
 Coeff:      0.186D-02 0.350D-01 0.438D+00 0.525D+00
 Gap=     0.273 Goal=   None    Shift=    0.000
 RMSDP=1.73D-04 MaxDP=5.86D-03 DE=-8.14D-04 OVMax= 7.07D-03

 Cycle   5  Pass 0  IDiag  1:
 RMSU=  5.44D-05    CP:  9.78D-01  7.84D-01  8.34D-01  5.36D-01
 CoulSu:  requested number of processors reduced to:  11 ShMem   1 Linda.
 CalDSu:  requested number of processors reduced to:  19 ShMem   1 Linda.
 E= -340.983816711083     Delta-E=       -0.001191618288 Rises=F Damp=F
 DIIS: error= 3.02D-04 at cycle   5 NSaved=   5.
 NSaved= 5 IEnMin= 5 EnMin= -340.983816711083     IErMin= 5 ErrMin= 3.02D-04
 ErrMax= 3.02D-04  0.00D+00 EMaxC= 1.00D-01 BMatC= 2.55D-05 BMatP= 1.46D-03
 IDIUse=3 WtCom= 9.97D-01 WtEn= 3.02D-03
 Coeff-Com: -0.210D-03 0.171D-02 0.134D+00 0.204D+00 0.661D+00
 Coeff-En:   0.000D+00 0.000D+00 0.000D+00 0.000D+00 0.100D+01
 Coeff:     -0.210D-03 0.171D-02 0.133D+00 0.203D+00 0.662D+00
 Gap=     0.273 Goal=   None    Shift=    0.000
 RMSDP=2.82D-05 MaxDP=1.12D-03 DE=-1.19D-03 OVMax= 1.13D-03

 Cycle   6  Pass 0  IDiag  1:
 RMSU=  1.67D-05    CP:  9.78D-01  7.81D-01  8.40D-01  5.72D-01  6.69D-01
 CoulSu:  requested number of processors reduced to:  11 ShMem   1 Linda.
 CalDSu:  requested number of processors reduced to:  19 ShMem   1 Linda.
 E= -340.983833810295     Delta-E=       -0.000017099212 Rises=F Damp=F
 DIIS: error= 1.00D-04 at cycle   6 NSaved=   6.
 NSaved= 6 IEnMin= 6 EnMin= -340.983833810295     IErMin= 6 ErrMin= 1.00D-04
 ErrMax= 1.00D-04  0.00D+00 EMaxC= 1.00D-01 BMatC= 3.47D-06 BMatP= 2.55D-05
 IDIUse=1 WtCom= 1.00D+00 WtEn= 0.00D+00
 Coeff-Com: -0.185D-03-0.775D-03 0.544D-01 0.891D-01 0.364D+00 0.494D+00
 Coeff:     -0.185D-03-0.775D-03 0.544D-01 0.891D-01 0.364D+00 0.494D+00
 Gap=     0.273 Goal=   None    Shift=    0.000
 RMSDP=8.33D-06 MaxDP=3.20D-04 DE=-1.71D-05 OVMax= 3.42D-04

 Initial convergence to 1.0D-05 achieved.  Increase integral accuracy.
 Cycle   7  Pass 1  IDiag  1:
 CoulSu:  requested number of processors reduced to:  11 ShMem   1 Linda.
 CalDSu:  requested number of processors reduced to:  19 ShMem   1 Linda.
 E= -340.983923805107     Delta-E=       -0.000089994812 Rises=F Damp=F
 DIIS: error= 1.31D-05 at cycle   1 NSaved=   1.
 NSaved= 1 IEnMin= 1 EnMin= -340.983923805107     IErMin= 1 ErrMin= 1.31D-05
 ErrMax= 1.31D-05  0.00D+00 EMaxC= 1.00D-01 BMatC= 1.38D-07 BMatP= 1.38D-07
 IDIUse=1 WtCom= 1.00D+00 WtEn= 0.00D+00
 Coeff-Com:  0.100D+01
 Coeff:      0.100D+01
 Gap=     0.273 Goal=   None    Shift=    0.000
 RMSDP=8.33D-06 MaxDP=3.20D-04 DE=-9.00D-05 OVMax= 9.47D-05

 Cycle   8  Pass 1  IDiag  1:
 RMSU=  6.98D-06    CP:  1.00D+00
 CoulSu:  requested number of processors reduced to:  11 ShMem   1 Linda.
 CalDSu:  requested number of processors reduced to:  19 ShMem   1 Linda.
 E= -340.983923872961     Delta-E=       -0.000000067854 Rises=F Damp=F
 DIIS: error= 9.35D-06 at cycle   2 NSaved=   2.
 NSaved= 2 IEnMin= 2 EnMin= -340.983923872961     IErMin= 2 ErrMin= 9.35D-06
 ErrMax= 9.35D-06  0.00D+00 EMaxC= 1.00D-01 BMatC= 4.99D-08 BMatP= 1.38D-07
 IDIUse=1 WtCom= 1.00D+00 WtEn= 0.00D+00
 Coeff-Com:  0.328D+00 0.672D+00
 Coeff:      0.328D+00 0.672D+00
 Gap=     0.273 Goal=   None    Shift=    0.000
 RMSDP=1.46D-06 MaxDP=5.34D-05 DE=-6.79D-08 OVMax= 5.89D-05

 Cycle   9  Pass 1  IDiag  1:
 RMSU=  1.46D-06    CP:  1.00D+00  9.79D-01
 CoulSu:  requested number of processors reduced to:  11 ShMem   1 Linda.
 CalDSu:  requested number of processors reduced to:  19 ShMem   1 Linda.
 E= -340.983923897886     Delta-E=       -0.000000024925 Rises=F Damp=F
 DIIS: error= 6.77D-06 at cycle   3 NSaved=   3.
 NSaved= 3 IEnMin= 3 EnMin= -340.983923897886     IErMin= 3 ErrMin= 6.77D-06
 ErrMax= 6.77D-06  0.00D+00 EMaxC= 1.00D-01 BMatC= 1.99D-08 BMatP= 4.99D-08
 IDIUse=1 WtCom= 1.00D+00 WtEn= 0.00D+00
 Coeff-Com:  0.512D-02 0.385D+00 0.610D+00
 Coeff:      0.512D-02 0.385D+00 0.610D+00
 Gap=     0.273 Goal=   None    Shift=    0.000
 RMSDP=6.51D-07 MaxDP=2.62D-05 DE=-2.49D-08 OVMax= 2.69D-05

 Cycle  10  Pass 1  IDiag  1:
 RMSU=  2.11D-07    CP:  1.00D+00  1.01D+00  6.04D-01
 CoulSu:  requested number of processors reduced to:  11 ShMem   1 Linda.
 CalDSu:  requested number of processors reduced to:  19 ShMem   1 Linda.
 E= -340.983923913720     Delta-E=       -0.000000015834 Rises=F Damp=F
 DIIS: error= 1.05D-06 at cycle   4 NSaved=   4.
 NSaved= 4 IEnMin= 4 EnMin= -340.983923913720     IErMin= 4 ErrMin= 1.05D-06
 ErrMax= 1.05D-06  0.00D+00 EMaxC= 1.00D-01 BMatC= 4.95D-10 BMatP= 1.99D-08
 IDIUse=1 WtCom= 1.00D+00 WtEn= 0.00D+00
 Coeff-Com: -0.914D-02 0.148D+00 0.276D+00 0.585D+00
 Coeff:     -0.914D-02 0.148D+00 0.276D+00 0.585D+00
 Gap=     0.273 Goal=   None    Shift=    0.000
 RMSDP=1.08D-07 MaxDP=3.48D-06 DE=-1.58D-08 OVMax= 3.73D-06

 Cycle  11  Pass 1  IDiag  1:
 RMSU=  6.09D-08    CP:  1.00D+00  1.01D+00  6.34D-01  6.42D-01
 CoulSu:  requested number of processors reduced to:  11 ShMem   1 Linda.
 CalDSu:  requested number of processors reduced to:  19 ShMem   1 Linda.
 E= -340.983923914064     Delta-E=       -0.000000000344 Rises=F Damp=F
 DIIS: error= 2.80D-07 at cycle   5 NSaved=   5.
 NSaved= 5 IEnMin= 5 EnMin= -340.983923914064     IErMin= 5 ErrMin= 2.80D-07
 ErrMax= 2.80D-07  0.00D+00 EMaxC= 1.00D-01 BMatC= 4.07D-11 BMatP= 4.95D-10
 IDIUse=1 WtCom= 1.00D+00 WtEn= 0.00D+00
 Coeff-Com: -0.497D-02 0.627D-01 0.122D+00 0.315D+00 0.504D+00
 Coeff:     -0.497D-02 0.627D-01 0.122D+00 0.315D+00 0.504D+00
 Gap=     0.273 Goal=   None    Shift=    0.000
 RMSDP=2.81D-08 MaxDP=1.01D-06 DE=-3.44D-10 OVMax= 1.16D-06

 Cycle  12  Pass 1  IDiag  1:
 RMSU=  1.94D-08    CP:  1.00D+00  1.01D+00  6.35D-01  6.74D-01  6.91D-01
 CoulSu:  requested number of processors reduced to:  11 ShMem   1 Linda.
 CalDSu:  requested number of processors reduced to:  19 ShMem   1 Linda.
 E= -340.983923914104     Delta-E=       -0.000000000040 Rises=F Damp=F
 DIIS: error= 4.62D-08 at cycle   6 NSaved=   6.
 NSaved= 6 IEnMin= 6 EnMin= -340.983923914104     IErMin= 6 ErrMin= 4.62D-08
 ErrMax= 4.62D-08  0.00D+00 EMaxC= 1.00D-01 BMatC= 1.17D-12 BMatP= 4.07D-11
 IDIUse=1 WtCom= 1.00D+00 WtEn= 0.00D+00
 Coeff-Com: -0.750D-03 0.623D-02 0.144D-01 0.459D-01 0.171D+00 0.763D+00
 Coeff:     -0.750D-03 0.623D-02 0.144D-01 0.459D-01 0.171D+00 0.763D+00
 Gap=     0.273 Goal=   None    Shift=    0.000
 RMSDP=5.98D-09 MaxDP=2.14D-07 DE=-3.98D-11 OVMax= 2.39D-07

 SCF Done:  E(RB3LYP) =  -340.983923914     A.U. after   12 cycles
            NFock= 12  Conv=0.60D-08     -V/T= 2.0075
 KE= 3.384421324133D+02 PE=-1.344668549637D+03 EE= 3.926307717698D+02
 Leave Link  502 at Sun Aug 21 13:29:31 2022, MaxMem=    23592960 cpu:       121.5
 (Enter /public/home/users/caep010/software/Gaussian09/g09/l601.exe)
 Copying SCF densities to generalized density rwf, IOpCl= 0 IROHF=0.

 **********************************************************************

            Population analysis using the SCF density.

 **********************************************************************

 Orbital symmetries:
       Occupied  (A) (A) (A) (A) (A) (A) (A) (A) (A) (A) (A) (A)
                 (A) (A) (A) (A) (A) (A) (A) (A) (A) (A) (A) (A)
                 (A)
       Virtual   (A) (A) (A) (A) (A) (A) (A) (A) (A) (A) (A) (A)
                 (A) (A) (A) (A) (A) (A) (A) (A) (A) (A) (A) (A)
                 (A) (A) (A) (A) (A) (A) (A) (A) (A) (A) (A) (A)
                 (A) (A) (A) (A) (A) (A) (A) (A) (A) (A) (A) (A)
                 (A) (A) (A) (A) (A) (A) (A) (A) (A) (A) (A) (A)
                 (A) (A) (A) (A) (A) (A) (A) (A) (A) (A) (A) (A)
                 (A) (A) (A) (A) (A) (A) (A) (A) (A) (A) (A) (A)
                 (A) (A) (A) (A) (A) (A) (A) (A) (A) (A) (A) (A)
                 (A) (A) (A) (A) (A) (A) (A) (A) (A) (A) (A) (A)
                 (A) (A) (A) (A) (A) (A) (A) (A) (A) (A) (A) (A)
                 (A) (A) (A) (A) (A) (A) (A) (A) (A) (A) (A) (A)
                 (A) (A) (A) (A) (A) (A) (A) (A) (A) (A) (A) (A)
                 (A) (A) (A) (A) (A) (A) (A) (A) (A) (A) (A) (A)
                 (A) (A) (A) (A) (A) (A) (A) (A) (A) (A) (A) (A)
                 (A) (A) (A) (A) (A) (A) (A) (A) (A) (A) (A) (A)
                 (A) (A) (A)
 The electronic state is 1-A.
 Alpha  occ. eigenvalues --  -19.14431 -19.13774 -14.31838 -14.30505 -10.30420
 Alpha  occ. eigenvalues --  -10.20746  -1.06089  -0.98660  -0.87011  -0.85775
 Alpha  occ. eigenvalues --   -0.68297  -0.59800  -0.53191  -0.50117  -0.48293
 Alpha  occ. eigenvalues --   -0.45750  -0.44304  -0.42125  -0.37477  -0.35694
 Alpha  occ. eigenvalues --   -0.35155  -0.29686  -0.27874  -0.25151  -0.22796
 Alpha virt. eigenvalues --    0.04469   0.08635   0.10305   0.11067   0.12733
 Alpha virt. eigenvalues --    0.15190   0.16809   0.19270   0.22752   0.24658
 Alpha virt. eigenvalues --    0.25151   0.27849   0.28611   0.47832   0.49147
 Alpha virt. eigenvalues --    0.49954   0.52069   0.54214   0.55595   0.59182
 Alpha virt. eigenvalues --    0.60094   0.63084   0.63887   0.64913   0.69615
 Alpha virt. eigenvalues --    0.70812   0.72989   0.74753   0.75296   0.77629
 Alpha virt. eigenvalues --    0.78641   0.81786   0.82584   0.84533   0.86597
 Alpha virt. eigenvalues --    0.87598   0.88402   0.90494   0.90801   0.92680
 Alpha virt. eigenvalues --    0.94881   0.96028   0.96795   1.03493   1.07194
 Alpha virt. eigenvalues --    1.09503   1.15141   1.19284   1.28074   1.30084
 Alpha virt. eigenvalues --    1.32674   1.34764   1.39075   1.46266   1.48364
 Alpha virt. eigenvalues --    1.48761   1.50713   1.53487   1.54568   1.55716
 Alpha virt. eigenvalues --    1.60472   1.62149   1.69241   1.71000   1.76972
 Alpha virt. eigenvalues --    1.81953   1.85005   1.87565   1.90199   1.94376
 Alpha virt. eigenvalues --    1.96986   2.06789   2.08171   2.17753   2.18951
 Alpha virt. eigenvalues --    2.21889   2.23166   2.26934   2.36753   2.43716
 Alpha virt. eigenvalues --    2.50168   2.52779   2.54333   2.58977   2.60312
 Alpha virt. eigenvalues --    2.64082   2.65715   2.76241   2.78284   2.79769
 Alpha virt. eigenvalues --    2.81617   2.87316   2.89334   2.91744   2.92765
 Alpha virt. eigenvalues --    2.93525   2.95883   2.99324   3.02697   3.08588
 Alpha virt. eigenvalues --    3.10759   3.17368   3.20065   3.26714   3.33165
 Alpha virt. eigenvalues --    3.40170   3.42364   3.45344   3.49388   3.57941
 Alpha virt. eigenvalues --    3.66559   3.72380   3.86982   3.89970   3.94332
 Alpha virt. eigenvalues --    3.99275   4.04747   4.08834   4.12747   4.15653
 Alpha virt. eigenvalues --    4.18694   4.20921   4.21729   4.24283   4.26532
 Alpha virt. eigenvalues --    4.31684   4.33585   4.35679   4.37004   4.38773
 Alpha virt. eigenvalues --    4.40213   4.41165   4.44450   4.46862   4.49464
 Alpha virt. eigenvalues --    4.54638   4.57589   4.61299   4.64550   4.66431
 Alpha virt. eigenvalues --    4.68812   4.69357   4.73389   4.73570   4.76523
 Alpha virt. eigenvalues --    4.77852   4.80648   4.82848   4.84288   4.91131
 Alpha virt. eigenvalues --    4.93451   4.97829   4.99234   5.07068   5.15043
 Alpha virt. eigenvalues --    5.22228   5.29675   5.31661   5.32420   5.39486
 Alpha virt. eigenvalues --    5.43706   5.45325   5.47567   5.50219   5.63070
 Alpha virt. eigenvalues --    5.69072   5.72171   5.95250   5.98467   6.03546
 Alpha virt. eigenvalues --    6.06537   6.16115   6.17671   7.11266   7.18534
 Alpha virt. eigenvalues --    8.85077  10.86964  11.40181  11.53922  12.08246
 Alpha virt. eigenvalues --   13.05185  13.32025  13.56364
          Condensed to atoms (all electrons):
               1          2          3          4          5          6
     1  N    6.591213   0.345073  -0.030555   0.004445  -0.003585  -0.002277
     2  C    0.345073   5.046632   0.351471  -0.090189  -0.040509  -0.046331
     3  C   -0.030555   0.351471   4.470681   0.338659   0.354301   0.330790
     4  N    0.004445  -0.090189   0.338659   6.745067  -0.053830  -0.049134
     5  O   -0.003585  -0.040509   0.354301  -0.053830   7.902527  -0.046661
     6  O   -0.002277  -0.046331   0.330790  -0.049134  -0.046661   7.929974
     7  H    0.334173  -0.050192  -0.002204   0.000062   0.008421   0.000253
     8  H    0.321408  -0.037114   0.004202  -0.000212   0.000149   0.000040
     9  H   -0.039516   0.346384  -0.030950   0.006049  -0.002162   0.003464
    10  H   -0.021156   0.339777  -0.011819  -0.000404   0.002110  -0.002507
    11  H    0.000121  -0.000388  -0.043576   0.313350   0.004678   0.002962
    12  H    0.000071   0.002279  -0.046559   0.320193   0.004281   0.004619
    13  H   -0.000209   0.008921  -0.049894   0.000076   0.298909   0.000825
    14  H    0.001116  -0.000432  -0.043811  -0.000180   0.004676   0.290346
               7          8          9         10         11         12
     1  N    0.334173   0.321408  -0.039516  -0.021156   0.000121   0.000071
     2  C   -0.050192  -0.037114   0.346384   0.339777  -0.000388   0.002279
     3  C   -0.002204   0.004202  -0.030950  -0.011819  -0.043576  -0.046559
     4  N    0.000062  -0.000212   0.006049  -0.000404   0.313350   0.320193
     5  O    0.008421   0.000149  -0.002162   0.002110   0.004678   0.004281
     6  O    0.000253   0.000040   0.003464  -0.002507   0.002962   0.004619
     7  H    0.503273  -0.028869  -0.007278   0.006384  -0.000014  -0.000034
     8  H   -0.028869   0.532584  -0.004341  -0.006285  -0.000019  -0.000017
     9  H   -0.007278  -0.004341   0.685832  -0.042561   0.000508   0.003965
    10  H    0.006384  -0.006285  -0.042561   0.648162   0.003662   0.000252
    11  H   -0.000014  -0.000019   0.000508   0.003662   0.525214  -0.022609
    12  H   -0.000034  -0.000017   0.003965   0.000252  -0.022609   0.502671
    13  H   -0.000264   0.000020  -0.000512  -0.000256  -0.000321  -0.000517
    14  H   -0.000061  -0.000066   0.000047   0.001311   0.001397  -0.000267
              13         14
     1  N   -0.000209   0.001116
     2  C    0.008921  -0.000432
     3  C   -0.049894  -0.043811
     4  N    0.000076  -0.000180
     5  O    0.298909   0.004676
     6  O    0.000825   0.290346
     7  H   -0.000264  -0.000061
     8  H    0.000020  -0.000066
     9  H   -0.000512   0.000047
    10  H   -0.000256   0.001311
    11  H   -0.000321   0.001397
    12  H   -0.000517  -0.000267
    13  H    0.445549  -0.000277
    14  H   -0.000277   0.460073
 Mulliken charges:
               1
     1  N   -0.500322
     2  C   -0.175383
     3  C    0.409265
     4  N   -0.533951
     5  O   -0.433304
     6  O   -0.416364
     7  H    0.236352
     8  H    0.218519
     9  H    0.081072
    10  H    0.083330
    11  H    0.215036
    12  H    0.231673
    13  H    0.297951
    14  H    0.286129
 Sum of Mulliken charges =  -0.00000
 Mulliken charges with hydrogens summed into heavy atoms:
               1
     1  N   -0.045452
     2  C   -0.010981
     3  C    0.409265
     4  N   -0.087242
     5  O   -0.135354
     6  O   -0.130236
 Electronic spatial extent (au):  <R**2>=            573.8206
 Charge=             -0.0000 electrons
 Dipole moment (field-independent basis, Debye):
    X=             -0.1724    Y=             -2.4953    Z=             -1.1605  Tot=              2.7574
 Quadrupole moment (field-independent basis, Debye-Ang):
   XX=            -35.9177   YY=            -31.8593   ZZ=            -36.1691
   XY=              1.3941   XZ=              1.9435   YZ=             -2.4639
 Traceless Quadrupole moment (field-independent basis, Debye-Ang):
   XX=             -1.2690   YY=              2.7894   ZZ=             -1.5204
   XY=              1.3941   XZ=              1.9435   YZ=             -2.4639
 Octapole moment (field-independent basis, Debye-Ang**2):
  XXX=            -14.6745  YYY=              4.5227  ZZZ=              3.3889  XYY=              7.5400
  XXY=              2.9825  XXZ=             -7.6238  XZZ=              5.1234  YZZ=             -6.5149
  YYZ=              2.4310  XYZ=              0.7068
 Hexadecapole moment (field-independent basis, Debye-Ang**3):
 XXXX=           -363.4584 YYYY=           -146.4538 ZZZZ=           -134.2896 XXXY=             16.2383
 XXXZ=             11.6436 YYYX=              3.9881 YYYZ=             -6.3649 ZZZX=             -0.0522
 ZZZY=             -8.5796 XXYY=            -70.2076 XXZZ=            -88.0556 YYZZ=            -50.9516
 XXYZ=             -5.2606 YYXZ=             -0.0931 ZZXY=             -5.6374
 N-N= 2.726117215400D+02 E-N=-1.344668558017D+03  KE= 3.384421324133D+02
 PrsmSu:  requested number of processors reduced to:  11 ShMem   1 Linda.
 No NMR shielding tensors so no spin-rotation constants.
 Leave Link  601 at Sun Aug 21 13:29:31 2022, MaxMem=    23592960 cpu:         3.2
 (Enter /public/home/users/caep010/software/Gaussian09/g09/l701.exe)
 Compute integral first derivatives.
 ... and contract with generalized density number  0.
 PrsmSu:  requested number of processors reduced to:   3 ShMem   1 Linda.
 PrsmSu:  requested number of processors reduced to:   6 ShMem   1 Linda.
 Leave Link  701 at Sun Aug 21 13:29:32 2022, MaxMem=    23592960 cpu:         2.4
 (Enter /public/home/users/caep010/software/Gaussian09/g09/l702.exe)
 L702 exits ... SP integral derivatives will be done elsewhere.
 Leave Link  702 at Sun Aug 21 13:29:32 2022, MaxMem=    23592960 cpu:         0.8
 (Enter /public/home/users/caep010/software/Gaussian09/g09/l703.exe)
 Compute integral first derivatives, UseDBF=F ICtDFT=           0.
 Integral derivatives from FoFJK, PRISM(SPDF).
 Calling FoFJK, ICntrl=      2127 FMM=F ISym2X=0 I1Cent= 0 IOpClX= 0 NMat=1 NMatS=1 NMatT=0.
 FoFJK:  IHMeth= 1 ICntrl=    2127 DoSepK=F KAlg= 0 I1Cent=   0 FoldK=F
 IRaf=         0 NMat=   1 IRICut=       1 DoRegI=T DoRafI=F ISym2E= 0.
 FoFCou: FMM=F IPFlag=           0 FMFlag=      100000 FMFlg1=         800
         NFxFlg=           0 DoJE=F BraDBF=F KetDBF=F FulRan=T
         wScrn=  0.000000 ICntrl=    2127 IOpCl=  0 I1Cent=           0 NGrid=           0
         NMat0=    1 NMatS0=      1 NMatT0=    0 NMatD0=    1 NMtDS0=    0 NMtDT0=    0
 Symmetry not used in FoFCou.
 CoulSu:  requested number of processors reduced to:   6 ShMem   1 Linda.
 CalDSu:  requested number of processors reduced to:  17 ShMem   1 Linda.
 Leave Link  703 at Sun Aug 21 13:29:36 2022, MaxMem=    23592960 cpu:        28.9
 (Enter /public/home/users/caep010/software/Gaussian09/g09/l716.exe)
 Dipole        =-6.78134026D-02-9.81727543D-01-4.56586959D-01
 ***** Axes restored to original set *****
 -------------------------------------------------------------------
 Center     Atomic                   Forces (Hartrees/Bohr)
 Number     Number              X              Y              Z
 -------------------------------------------------------------------
      1        7           0.025012818   -0.003971514   -0.008306650
      2        6           0.010999335   -0.006950737   -0.009704644
      3        6           0.002269768    0.009349965   -0.004427709
      4        7          -0.001567866    0.015261135   -0.008150671
      5        8          -0.016986790    0.000304180    0.011025831
      6        8          -0.004381912    0.020603045    0.008719148
      7        1          -0.001838752    0.017755113    0.015127381
      8        1          -0.017853402   -0.013852324    0.000008930
      9        1          -0.009792170    0.004380373    0.005420305
     10        1          -0.003081994   -0.009355970   -0.004097845
     11        1          -0.002436650   -0.018233764   -0.013074591
     12        1          -0.001709745   -0.003152936    0.022829344
     13        1           0.021932199    0.012158910   -0.002450569
     14        1          -0.000564836   -0.024295475   -0.012918259
 -------------------------------------------------------------------
 Cartesian Forces:  Max     0.025012818 RMS     0.012021699
 Leave Link  716 at Sun Aug 21 13:29:36 2022, MaxMem=    23592960 cpu:         1.0
 (Enter /public/home/users/caep010/software/Gaussian09/g09/l103.exe)

 GradGradGradGradGradGradGradGradGradGradGradGradGradGradGradGradGradGrad
 Berny optimization.
 FormGI is forming the generalized inverse of G from B-inverse, IUseBI=4.
 Internal  Forces:  Max     0.027463007 RMS     0.008665058
 Search for a local minimum.
 Step number   1 out of a maximum of   70
 All quantities printed in internal units (Hartrees-Bohrs-Radians)
 RMS Force = .86651D-02 SwitMx=.10000D-02 MixMth= 1
 Mixed Optimization -- RFO/linear search
 Second derivative matrix not updated -- first step.
 ITU=  0
     Eigenvalues ---    0.00230   0.00777   0.00885   0.01578   0.01629
     Eigenvalues ---    0.04322   0.04462   0.04844   0.05435   0.06179
     Eigenvalues ---    0.07036   0.09158   0.09431   0.12654   0.16000
     Eigenvalues ---    0.16000   0.16000   0.16000   0.16000   0.16000
     Eigenvalues ---    0.17920   0.18966   0.21947   0.28131   0.32231
     Eigenvalues ---    0.32325   0.35844   0.36839   0.40381   0.40391
     Eigenvalues ---    0.40437   0.40470   0.44226   0.44844   0.48907
     Eigenvalues ---    0.48941
 RFO step:  Lambda=-1.42202119D-02 EMin= 2.30000000D-03
 Linear search not attempted -- first point.
 Iteration  1 RMS(Cart)=  0.04941970 RMS(Int)=  0.00151727
 Iteration  2 RMS(Cart)=  0.00187386 RMS(Int)=  0.00070811
 Iteration  3 RMS(Cart)=  0.00000226 RMS(Int)=  0.00070810
 Iteration  4 RMS(Cart)=  0.00000000 RMS(Int)=  0.00070810
 ITry= 1 IFail=0 DXMaxC= 1.47D-01 DCOld= 1.00D+10 DXMaxT= 3.00D-01 DXLimC= 3.00D+00 Rises=F
 Variable       Old X    -DE/DX   Delta X   Delta X   Delta X     New X
                                 (Linear)    (Quad)   (Total)
    R1        2.76090   0.00620   0.00000   0.01619   0.01619   2.77709
    R2        1.97664  -0.02339   0.00000  -0.05587  -0.05587   1.92077
    R3        1.97620  -0.02230   0.00000  -0.05324  -0.05324   1.92296
    R4        2.91853  -0.00139   0.00000  -0.00471  -0.00471   2.91382
    R5        2.10424  -0.00607   0.00000  -0.01803  -0.01803   2.08621
    R6        2.10254  -0.01033   0.00000  -0.03060  -0.03060   2.07194
    R7        2.77626  -0.00041   0.00000  -0.00110  -0.00110   2.77516
    R8        2.65457  -0.01540   0.00000  -0.03329  -0.03329   2.62127
    R9        2.66185  -0.00248   0.00000  -0.00543  -0.00543   2.65642
   R10        1.97725  -0.02244   0.00000  -0.05366  -0.05366   1.92359
   R11        1.97738  -0.02301   0.00000  -0.05505  -0.05505   1.92233
   R12        1.87685  -0.02501   0.00000  -0.04968  -0.04968   1.82716
   R13        1.87650  -0.02746   0.00000  -0.05453  -0.05453   1.82197
    A1        1.89124   0.00003   0.00000   0.00050   0.00047   1.89171
    A2        1.87993   0.00487   0.00000   0.02826   0.02823   1.90816
    A3        1.85543  -0.00205   0.00000  -0.01104  -0.01111   1.84433
    A4        1.93370   0.00425   0.00000   0.02348   0.02339   1.95709
    A5        1.91552   0.00691   0.00000   0.07849   0.07894   1.99446
    A6        1.90155  -0.00189   0.00000  -0.01004  -0.00968   1.89187
    A7        1.91909  -0.00750   0.00000  -0.04734  -0.04908   1.87001
    A8        1.91120  -0.00218   0.00000  -0.03150  -0.03204   1.87916
    A9        1.88194   0.00034   0.00000  -0.01405  -0.01588   1.86606
   A10        1.92793   0.00837   0.00000   0.05989   0.05905   1.98698
   A11        1.89647  -0.00658   0.00000  -0.04195  -0.04105   1.85542
   A12        1.92108   0.00457   0.00000   0.04047   0.03921   1.96029
   A13        1.90302  -0.00088   0.00000  -0.01885  -0.01836   1.88466
   A14        1.91477  -0.00462   0.00000  -0.00894  -0.01163   1.90314
   A15        1.90016  -0.00104   0.00000  -0.03280  -0.03263   1.86753
   A16        1.91152   0.00258   0.00000   0.01038   0.01038   1.92190
   A17        1.90096  -0.00172   0.00000  -0.01435  -0.01435   1.88661
   A18        1.86981  -0.00161   0.00000  -0.01873  -0.01874   1.85107
   A19        1.86726  -0.00578   0.00000  -0.03315  -0.03315   1.83411
   A20        1.87964   0.00279   0.00000   0.01599   0.01599   1.89563
    D1        1.26180  -0.00115   0.00000  -0.02471  -0.02403   1.23777
    D2       -0.86081   0.00086   0.00000  -0.03307  -0.03377  -0.89457
    D3       -2.91775  -0.00243   0.00000  -0.05554  -0.05558  -2.97332
    D4       -3.02090  -0.00104   0.00000  -0.02290  -0.02218  -3.04308
    D5        1.13967   0.00097   0.00000  -0.03125  -0.03191   1.10776
    D6       -0.91726  -0.00231   0.00000  -0.05373  -0.05373  -0.97099
    D7        3.09133  -0.00144   0.00000  -0.00311  -0.00183   3.08949
    D8       -1.10504  -0.00158   0.00000  -0.01629  -0.01605  -1.12109
    D9        0.97422  -0.00414   0.00000  -0.05778  -0.05840   0.91582
   D10       -1.07135   0.00503   0.00000   0.07933   0.07939  -0.99196
   D11        1.01548   0.00488   0.00000   0.06615   0.06517   1.08065
   D12        3.09473   0.00233   0.00000   0.02466   0.02282   3.11755
   D13        0.99344  -0.00036   0.00000   0.01488   0.01648   1.00992
   D14        3.08026  -0.00051   0.00000   0.00170   0.00226   3.08253
   D15       -1.12367  -0.00306   0.00000  -0.03979  -0.04009  -1.16375
   D16       -0.98735  -0.00324   0.00000  -0.02848  -0.02839  -1.01574
   D17        1.05233  -0.00470   0.00000  -0.05333  -0.05324   0.99910
   D18       -3.07021   0.00031   0.00000  -0.00154  -0.00136  -3.07157
   D19       -1.03053  -0.00115   0.00000  -0.02639  -0.02620  -1.05673
   D20        1.13349   0.00486   0.00000   0.05507   0.05479   1.18828
   D21       -3.11001   0.00339   0.00000   0.03022   0.02994  -3.08007
   D22        3.10160  -0.00149   0.00000  -0.00858  -0.00833   3.09327
   D23       -1.07928   0.00420   0.00000   0.02777   0.02800  -1.05128
   D24        1.00928  -0.00254   0.00000  -0.01359  -0.01407   0.99520
   D25        1.08841   0.00490   0.00000   0.02948   0.02937   1.11778
   D26       -1.03653  -0.00547   0.00000  -0.06551  -0.06495  -1.10148
   D27       -3.11777  -0.00103   0.00000  -0.01755  -0.01800  -3.13577
         Item               Value     Threshold  Converged?
 Maximum Force            0.027463     0.000450     NO 
 RMS     Force            0.008665     0.000300     NO 
 Maximum Displacement     0.147140     0.001800     NO 
 RMS     Displacement     0.048606     0.001200     NO 
 Predicted change in Energy=-7.695426D-03
 Lowest energy point so far.  Saving SCF results.
 GradGradGradGradGradGradGradGradGradGradGradGradGradGradGradGradGradGrad

 Leave Link  103 at Sun Aug 21 13:29:36 2022, MaxMem=    23592960 cpu:         2.6
 (Enter /public/home/users/caep010/software/Gaussian09/g09/l202.exe)
                          Input orientation:                          
 ---------------------------------------------------------------------
 Center     Atomic      Atomic             Coordinates (Angstroms)
 Number     Number       Type             X           Y           Z
 ---------------------------------------------------------------------
      1          7           0        1.861457   -0.525155    0.387836
      2          6           0        0.827378    0.370925   -0.148232
      3          6           0       -0.593224   -0.191478    0.059452
      4          7           0       -1.660356    0.706479   -0.400492
      5          8           0       -0.663408   -1.358012   -0.687790
      6          8           0       -0.836793   -0.545426    1.397896
      7          1           0        1.913801   -1.346987   -0.207964
      8          1           0        2.770206   -0.073361    0.313426
      9          1           0        0.934484    0.595367   -1.223830
     10          1           0        0.887928    1.327147    0.384797
     11          1           0       -1.597460    1.600752    0.081675
     12          1           0       -1.502639    0.906134   -1.385413
     13          1           0       -1.542903   -1.718237   -0.509997
     14          1           0       -0.798571    0.251752    1.938838
 ---------------------------------------------------------------------
                    Distance matrix (angstroms):
                    1          2          3          4          5
     1  N    0.000000
     2  C    1.469574   0.000000
     3  C    2.498927   1.541928   0.000000
     4  N    3.813338   2.522906   1.468552   0.000000
     5  O    2.868025   2.345803   1.387119   2.310534   0.000000
     6  O    2.881178   2.449424   1.405716   2.340881   2.245094
     7  H    1.016428   2.033496   2.773425   4.126547   2.621519
     8  H    1.017585   2.045752   3.375073   4.554966   3.800325
     9  H    2.170787   1.103973   2.144722   2.724596   2.579978
    10  H    2.092555   1.096424   2.146132   2.737820   3.281336
    11  H    4.071526   2.728584   2.054525   1.017922   3.196688
    12  H    4.063267   2.691848   2.029636   1.017254   2.513432
    13  H    3.717421   3.180205   1.886042   2.430027   0.966893
    14  H    3.175679   2.648353   1.941832   2.534150   3.083632
                    6          7          8          9         10
     6  O    0.000000
     7  H    3.284366   0.000000
     8  H    3.795967   1.620926   0.000000
     9  H    3.363373   2.400788   2.486007   0.000000
    10  H    2.739994   2.924854   2.347230   1.767866   0.000000
    11  H    2.630045   4.593693   4.683255   3.020908   2.518710
    12  H    3.208923   4.258521   4.701348   2.462164   3.004281
    13  H    2.348219   3.489678   4.688982   3.464068   3.997994
    14  H    0.964143   3.810733   3.934950   3.622709   2.532942
                   11         12         13         14
    11  H    0.000000
    12  H    1.625987   0.000000
    13  H    3.371756   2.766820   0.000000
    14  H    2.430449   3.460430   3.229811   0.000000
 Stoichiometry    C2H8N2O2
 Framework group  C1[X(C2H8N2O2)]
 Deg. of freedom    36
 Full point group                 C1      NOp   1
 RotChk:  IX=3 Diff= 4.59D-01
 Largest Abelian subgroup         C1      NOp   1
 Largest concise Abelian subgroup C1      NOp   1
                         Standard orientation:                         
 ---------------------------------------------------------------------
 Center     Atomic      Atomic             Coordinates (Angstroms)
 Number     Number       Type             X           Y           Z
 ---------------------------------------------------------------------
      1          7           0       -2.064386    0.066090    0.092688
      2          6           0       -0.880365   -0.775665   -0.129100
      3          6           0        0.432626    0.021477    0.005659
      4          7           0        1.642416   -0.798111   -0.140395
      5          8           0        0.425170    0.959859   -1.015850
      6          8           0        0.503644    0.732341    1.216307
      7          1           0       -2.163692    0.694921   -0.699673
      8          1           0       -2.898193   -0.517186    0.086902
      9          1           0       -0.857438   -1.276621   -1.112601
     10          1           0       -0.869807   -1.565308    0.631491
     11          1           0        1.647625   -1.541618    0.554828
     12          1           0        1.603767   -1.259903   -1.045967
     13          1           0        1.231931    1.477273   -0.888166
     14          1           0        0.515528    0.100115    1.944126
 ---------------------------------------------------------------------
 Rotational constants (GHZ):      5.0865731      2.7118417      2.6816425
 Leave Link  202 at Sun Aug 21 13:29:36 2022, MaxMem=    23592960 cpu:         0.2
 (Enter /public/home/users/caep010/software/Gaussian09/g09/l301.exe)
 Standard basis: GTBas3 (6D, 7F)
 Ernie: Thresh=  0.10000D-02 Tol=  0.10000D-05 Strict=F.
 There are   226 symmetry adapted cartesian basis functions of A   symmetry.
 There are   208 symmetry adapted basis functions of A   symmetry.
   208 basis functions,   320 primitive gaussians,   226 cartesian basis functions
    25 alpha electrons       25 beta electrons
       nuclear repulsion energy       274.0610735627 Hartrees.
 IExCor=  402 DFT=T Ex+Corr=B3LYP ExCW=0 ScaHFX=  0.200000
 ScaDFX=  0.800000  0.720000  1.000000  0.810000 ScalE2=  1.000000  1.000000
 IRadAn=      0 IRanWt=     -1 IRanGd=            0 ICorTp=0 IEmpDi=  4
 NAtoms=   14 NActive=   14 NUniq=   14 SFac= 1.00D+00 NAtFMM=   60 NAOKFM=F Big=F
 Integral buffers will be    131072 words long.
 Raffenetti 2 integral format.
 Two-electron integral symmetry is turned on.
 Leave Link  301 at Sun Aug 21 13:29:36 2022, MaxMem=    23592960 cpu:         1.7
 (Enter /public/home/users/caep010/software/Gaussian09/g09/l302.exe)
 NPDir=0 NMtPBC=     1 NCelOv=     1 NCel=       1 NClECP=     1 NCelD=      1
         NCelK=      1 NCelE2=     1 NClLst=     1 CellRange=     0.0.
 One-electron integrals computed using PRISM.
 PrsmSu:  requested number of processors reduced to:   3 ShMem   1 Linda.
 PrsmSu:  requested number of processors reduced to:  11 ShMem   1 Linda.
 NBasis=   208 RedAO= T EigKep=  4.07D-04  NBF=   208
 NBsUse=   208 1.00D-06 EigRej= -1.00D+00 NBFU=   208
 Precomputing XC quadrature grid using
 IXCGrd= 4 IRadAn=           0 IRanWt=          -1 IRanGd=           0 AccXCQ= 0.00D+00.
 Generated NRdTot=       0 NPtTot=           0 NUsed=           0 NTot=          32
 NSgBfM=   226   226   226   226   226 MxSgAt=    14 MxSgA2=    14.
 Leave Link  302 at Sun Aug 21 13:29:36 2022, MaxMem=    23592960 cpu:         4.5
 (Enter /public/home/users/caep010/software/Gaussian09/g09/l303.exe)
 DipDrv:  MaxL=1.
 Leave Link  303 at Sun Aug 21 13:29:36 2022, MaxMem=    23592960 cpu:         0.7
 (Enter /public/home/users/caep010/software/Gaussian09/g09/l401.exe)
 Initial guess from the checkpoint file:  "G4.Frag_853.chk"
 B after Tr=    -0.000000    0.000000    0.000000
         Rot=    0.986480    0.163599   -0.005834   -0.007654 Ang=  18.86 deg.
 Guess basis will be translated and rotated to current coordinates.
 JPrj=2 DoOrth=T DoCkMO=T.
 Generating alternative initial guess.
 ExpMin= 1.61D-01 ExpMax= 5.48D+03 ExpMxC= 8.25D+02 IAcc=1 IRadAn=         1 AccDes= 0.00D+00
 Harris functional with IExCor=  402 and IRadAn=       1 diagonalized for initial guess.
 HarFok:  IExCor=  402 AccDes= 0.00D+00 IRadAn=         1 IDoV= 1 UseB2=F ITyADJ=14
 ICtDFT=  3500011 ScaDFX=  1.000000  1.000000  1.000000  1.000000
 CalDSu:  requested number of processors reduced to:  19 ShMem   1 Linda.
 FoFCou: FMM=F IPFlag=           0 FMFlag=      100000 FMFlg1=           0
         NFxFlg=           0 DoJE=T BraDBF=F KetDBF=T FulRan=T
         wScrn=  0.000000 ICntrl=     500 IOpCl=  0 I1Cent=   200000004 NGrid=           0
         NMat0=    1 NMatS0=      1 NMatT0=    0 NMatD0=    1 NMtDS0=    0 NMtDT0=    0
 Petite list used in FoFCou.
 CoulSu:  requested number of processors reduced to:  11 ShMem   1 Linda.
 CoulSu:  requested number of processors reduced to:  11 ShMem   1 Linda.
 CoulSu:  requested number of processors reduced to:  12 ShMem   1 Linda.
 CoulSu:  requested number of processors reduced to:  12 ShMem   1 Linda.
 Harris En= -341.025187858553    
 Leave Link  401 at Sun Aug 21 13:29:37 2022, MaxMem=    23592960 cpu:         8.9
 (Enter /public/home/users/caep010/software/Gaussian09/g09/l502.exe)
 Closed shell SCF:
 Using DIIS extrapolation, IDIIS=  1040.
 Integral symmetry usage will be decided dynamically.
 IVT=      180662 IEndB=      180662 NGot=    23592960 MDV=    23480241
 LenX=    23480241 LenY=    23428724
 Requested convergence on RMS density matrix=1.00D-08 within 128 cycles.
 Requested convergence on MAX density matrix=1.00D-06.
 Requested convergence on             energy=1.00D-06.
 No special actions if energy rises.
 Fock matrices will be formed incrementally for  20 cycles.
 Integral accuracy reduced to 1.0D-05 until final iterations.

 Cycle   1  Pass 0  IDiag  1:
 FoFJK:  IHMeth= 1 ICntrl=       0 DoSepK=F KAlg= 0 I1Cent=   0 FoldK=F
 IRaf= 980000000 NMat=   1 IRICut=       1 DoRegI=T DoRafI=F ISym2E= 0.
 FoFCou: FMM=F IPFlag=           0 FMFlag=      100000 FMFlg1=           0
         NFxFlg=           0 DoJE=F BraDBF=F KetDBF=F FulRan=T
         wScrn=  0.000000 ICntrl=       0 IOpCl=  0 I1Cent=           0 NGrid=           0
         NMat0=    1 NMatS0=      1 NMatT0=    0 NMatD0=    1 NMtDS0=    0 NMtDT0=    0
 Symmetry not used in FoFCou.
 CoulSu:  requested number of processors reduced to:  11 ShMem   1 Linda.
 CalDSu:  requested number of processors reduced to:  19 ShMem   1 Linda.
 E= -340.987182458942    
 DIIS: error= 1.93D-03 at cycle   1 NSaved=   1.
 NSaved= 1 IEnMin= 1 EnMin= -340.987182458942     IErMin= 1 ErrMin= 1.93D-03
 ErrMax= 1.93D-03  0.00D+00 EMaxC= 1.00D-01 BMatC= 3.40D-03 BMatP= 3.40D-03
 IDIUse=3 WtCom= 9.81D-01 WtEn= 1.93D-02
 Coeff-Com:  0.100D+01
 Coeff-En:   0.100D+01
 Coeff:      0.100D+01
 Gap=     0.914 Goal=   None    Shift=    0.000
 GapD=    0.914 DampG=2.000 DampE=1.000 DampFc=2.0000 IDamp=-1.
 RMSDP=4.71D-04 MaxDP=1.30D-02              OVMax= 1.73D-02

 Cycle   2  Pass 0  IDiag  1:
 RMSU=  4.70D-04    CP:  9.98D-01
 CoulSu:  requested number of processors reduced to:  11 ShMem   1 Linda.
 CalDSu:  requested number of processors reduced to:  19 ShMem   1 Linda.
 E= -340.990797588003     Delta-E=       -0.003615129060 Rises=F Damp=F
 DIIS: error= 1.19D-03 at cycle   2 NSaved=   2.
 NSaved= 2 IEnMin= 2 EnMin= -340.990797588003     IErMin= 2 ErrMin= 1.19D-03
 ErrMax= 1.19D-03  0.00D+00 EMaxC= 1.00D-01 BMatC= 2.75D-04 BMatP= 3.40D-03
 IDIUse=3 WtCom= 9.88D-01 WtEn= 1.19D-02
 Coeff-Com:  0.933D-01 0.907D+00
 Coeff-En:   0.000D+00 0.100D+01
 Coeff:      0.922D-01 0.908D+00
 Gap=     0.283 Goal=   None    Shift=    0.000
 RMSDP=1.55D-04 MaxDP=5.79D-03 DE=-3.62D-03 OVMax= 6.75D-03

 Cycle   3  Pass 0  IDiag  1:
 RMSU=  1.54D-04    CP:  9.98D-01  9.68D-01
 CoulSu:  requested number of processors reduced to:  11 ShMem   1 Linda.
 CalDSu:  requested number of processors reduced to:  19 ShMem   1 Linda.
 E= -340.990801592400     Delta-E=       -0.000004004398 Rises=F Damp=F
 DIIS: error= 1.18D-03 at cycle   3 NSaved=   3.
 NSaved= 3 IEnMin= 3 EnMin= -340.990801592400     IErMin= 3 ErrMin= 1.18D-03
 ErrMax= 1.18D-03  0.00D+00 EMaxC= 1.00D-01 BMatC= 2.90D-04 BMatP= 2.75D-04
 IDIUse=3 WtCom= 9.88D-01 WtEn= 1.18D-02
 Coeff-Com: -0.115D-01 0.510D+00 0.502D+00
 Coeff-En:   0.000D+00 0.496D+00 0.504D+00
 Coeff:     -0.114D-01 0.510D+00 0.502D+00
 Gap=     0.287 Goal=   None    Shift=    0.000
 RMSDP=8.33D-05 MaxDP=3.60D-03 DE=-4.00D-06 OVMax= 3.71D-03

 Cycle   4  Pass 0  IDiag  1:
 RMSU=  2.53D-05    CP:  9.98D-01  1.03D+00  5.21D-01
 CoulSu:  requested number of processors reduced to:  11 ShMem   1 Linda.
 CalDSu:  requested number of processors reduced to:  19 ShMem   1 Linda.
 E= -340.991043818118     Delta-E=       -0.000242225717 Rises=F Damp=F
 DIIS: error= 8.58D-05 at cycle   4 NSaved=   4.
 NSaved= 4 IEnMin= 4 EnMin= -340.991043818118     IErMin= 4 ErrMin= 8.58D-05
 ErrMax= 8.58D-05  0.00D+00 EMaxC= 1.00D-01 BMatC= 3.83D-06 BMatP= 2.75D-04
 IDIUse=1 WtCom= 1.00D+00 WtEn= 0.00D+00
 Coeff-Com: -0.883D-02 0.137D+00 0.176D+00 0.696D+00
 Coeff:     -0.883D-02 0.137D+00 0.176D+00 0.696D+00
 Gap=     0.286 Goal=   None    Shift=    0.000
 RMSDP=1.05D-05 MaxDP=3.55D-04 DE=-2.42D-04 OVMax= 4.45D-04

 Cycle   5  Pass 0  IDiag  1:
 RMSU=  8.23D-06    CP:  9.98D-01  1.03D+00  5.45D-01  7.91D-01
 CoulSu:  requested number of processors reduced to:  11 ShMem   1 Linda.
 CalDSu:  requested number of processors reduced to:  19 ShMem   1 Linda.
 E= -340.991046495098     Delta-E=       -0.000002676980 Rises=F Damp=F
 DIIS: error= 3.79D-05 at cycle   5 NSaved=   5.
 NSaved= 5 IEnMin= 5 EnMin= -340.991046495098     IErMin= 5 ErrMin= 3.79D-05
 ErrMax= 3.79D-05  0.00D+00 EMaxC= 1.00D-01 BMatC= 6.20D-07 BMatP= 3.83D-06
 IDIUse=1 WtCom= 1.00D+00 WtEn= 0.00D+00
 Coeff-Com: -0.374D-02 0.337D-01 0.531D-01 0.345D+00 0.572D+00
 Coeff:     -0.374D-02 0.337D-01 0.531D-01 0.345D+00 0.572D+00
 Gap=     0.286 Goal=   None    Shift=    0.000
 RMSDP=3.96D-06 MaxDP=1.42D-04 DE=-2.68D-06 OVMax= 1.58D-04

 Initial convergence to 1.0D-05 achieved.  Increase integral accuracy.
 Cycle   6  Pass 1  IDiag  1:
 CoulSu:  requested number of processors reduced to:  11 ShMem   1 Linda.
 CalDSu:  requested number of processors reduced to:  19 ShMem   1 Linda.
 E= -340.990972966341     Delta-E=        0.000073528757 Rises=F Damp=F
 DIIS: error= 1.63D-05 at cycle   1 NSaved=   1.
 NSaved= 1 IEnMin= 1 EnMin= -340.990972966341     IErMin= 1 ErrMin= 1.63D-05
 ErrMax= 1.63D-05  0.00D+00 EMaxC= 1.00D-01 BMatC= 1.96D-07 BMatP= 1.96D-07
 IDIUse=1 WtCom= 1.00D+00 WtEn= 0.00D+00
 Coeff-Com:  0.100D+01
 Coeff:      0.100D+01
 Gap=     0.286 Goal=   None    Shift=    0.000
 RMSDP=3.96D-06 MaxDP=1.42D-04 DE= 7.35D-05 OVMax= 8.52D-05

 Cycle   7  Pass 1  IDiag  1:
 RMSU=  8.04D-06    CP:  1.00D+00
 CoulSu:  requested number of processors reduced to:  11 ShMem   1 Linda.
 CalDSu:  requested number of processors reduced to:  19 ShMem   1 Linda.
 E= -340.990973067527     Delta-E=       -0.000000101187 Rises=F Damp=F
 DIIS: error= 1.11D-05 at cycle   2 NSaved=   2.
 NSaved= 2 IEnMin= 2 EnMin= -340.990973067527     IErMin= 2 ErrMin= 1.11D-05
 ErrMax= 1.11D-05  0.00D+00 EMaxC= 1.00D-01 BMatC= 6.92D-08 BMatP= 1.96D-07
 IDIUse=1 WtCom= 1.00D+00 WtEn= 0.00D+00
 Coeff-Com:  0.318D+00 0.682D+00
 Coeff:      0.318D+00 0.682D+00
 Gap=     0.286 Goal=   None    Shift=    0.000
 RMSDP=1.75D-06 MaxDP=6.05D-05 DE=-1.01D-07 OVMax= 6.99D-05

 Cycle   8  Pass 1  IDiag  1:
 RMSU=  1.69D-06    CP:  1.00D+00  9.41D-01
 CoulSu:  requested number of processors reduced to:  11 ShMem   1 Linda.
 CalDSu:  requested number of processors reduced to:  19 ShMem   1 Linda.
 E= -340.990973095237     Delta-E=       -0.000000027710 Rises=F Damp=F
 DIIS: error= 9.60D-06 at cycle   3 NSaved=   3.
 NSaved= 3 IEnMin= 3 EnMin= -340.990973095237     IErMin= 3 ErrMin= 9.60D-06
 ErrMax= 9.60D-06  0.00D+00 EMaxC= 1.00D-01 BMatC= 3.52D-08 BMatP= 6.92D-08
 IDIUse=1 WtCom= 1.00D+00 WtEn= 0.00D+00
 Coeff-Com: -0.686D-02 0.415D+00 0.592D+00
 Coeff:     -0.686D-02 0.415D+00 0.592D+00
 Gap=     0.286 Goal=   None    Shift=    0.000
 RMSDP=7.82D-07 MaxDP=2.70D-05 DE=-2.77D-08 OVMax= 3.11D-05

 Cycle   9  Pass 1  IDiag  1:
 RMSU=  2.47D-07    CP:  1.00D+00  9.90D-01  6.27D-01
 CoulSu:  requested number of processors reduced to:  11 ShMem   1 Linda.
 CalDSu:  requested number of processors reduced to:  19 ShMem   1 Linda.
 E= -340.990973120605     Delta-E=       -0.000000025368 Rises=F Damp=F
 DIIS: error= 1.25D-06 at cycle   4 NSaved=   4.
 NSaved= 4 IEnMin= 4 EnMin= -340.990973120605     IErMin= 4 ErrMin= 1.25D-06
 ErrMax= 1.25D-06  0.00D+00 EMaxC= 1.00D-01 BMatC= 7.31D-10 BMatP= 3.52D-08
 IDIUse=1 WtCom= 1.00D+00 WtEn= 0.00D+00
 Coeff-Com: -0.116D-01 0.185D+00 0.286D+00 0.540D+00
 Coeff:     -0.116D-01 0.185D+00 0.286D+00 0.540D+00
 Gap=     0.286 Goal=   None    Shift=    0.000
 RMSDP=1.39D-07 MaxDP=4.76D-06 DE=-2.54D-08 OVMax= 4.92D-06

 Cycle  10  Pass 1  IDiag  1:
 RMSU=  7.47D-08    CP:  1.00D+00  9.91D-01  6.22D-01  5.27D-01
 CoulSu:  requested number of processors reduced to:  11 ShMem   1 Linda.
 CalDSu:  requested number of processors reduced to:  19 ShMem   1 Linda.
 E= -340.990973121143     Delta-E=       -0.000000000538 Rises=F Damp=F
 DIIS: error= 2.94D-07 at cycle   5 NSaved=   5.
 NSaved= 5 IEnMin= 5 EnMin= -340.990973121143     IErMin= 5 ErrMin= 2.94D-07
 ErrMax= 2.94D-07  0.00D+00 EMaxC= 1.00D-01 BMatC= 3.39D-11 BMatP= 7.31D-10
 IDIUse=1 WtCom= 1.00D+00 WtEn= 0.00D+00
 Coeff-Com: -0.446D-02 0.567D-01 0.894D-01 0.242D+00 0.617D+00
 Coeff:     -0.446D-02 0.567D-01 0.894D-01 0.242D+00 0.617D+00
 Gap=     0.286 Goal=   None    Shift=    0.000
 RMSDP=3.02D-08 MaxDP=9.16D-07 DE=-5.38D-10 OVMax= 1.02D-06

 Cycle  11  Pass 1  IDiag  1:
 RMSU=  1.66D-08    CP:  1.00D+00  9.91D-01  6.27D-01  5.86D-01  7.55D-01
 CoulSu:  requested number of processors reduced to:  11 ShMem   1 Linda.
 CalDSu:  requested number of processors reduced to:  19 ShMem   1 Linda.
 E= -340.990973121179     Delta-E=       -0.000000000035 Rises=F Damp=F
 DIIS: error= 3.16D-08 at cycle   6 NSaved=   6.
 NSaved= 6 IEnMin= 6 EnMin= -340.990973121179     IErMin= 6 ErrMin= 3.16D-08
 ErrMax= 3.16D-08  0.00D+00 EMaxC= 1.00D-01 BMatC= 6.99D-13 BMatP= 3.39D-11
 IDIUse=1 WtCom= 1.00D+00 WtEn= 0.00D+00
 Coeff-Com: -0.237D-03-0.211D-04-0.221D-03 0.174D-01 0.144D+00 0.839D+00
 Coeff:     -0.237D-03-0.211D-04-0.221D-03 0.174D-01 0.144D+00 0.839D+00
 Gap=     0.286 Goal=   None    Shift=    0.000
 RMSDP=4.47D-09 MaxDP=1.45D-07 DE=-3.55D-11 OVMax= 1.66D-07

 SCF Done:  E(RB3LYP) =  -340.990973121     A.U. after   11 cycles
            NFock= 11  Conv=0.45D-08     -V/T= 2.0066
 KE= 3.387637298833D+02 PE=-1.347732112855D+03 EE= 3.939163362882D+02
 Leave Link  502 at Sun Aug 21 13:29:44 2022, MaxMem=    23592960 cpu:       121.0
 (Enter /public/home/users/caep010/software/Gaussian09/g09/l701.exe)
 Compute integral first derivatives.
 ... and contract with generalized density number  0.
 PrsmSu:  requested number of processors reduced to:   3 ShMem   1 Linda.
 PrsmSu:  requested number of processors reduced to:   6 ShMem   1 Linda.
 Leave Link  701 at Sun Aug 21 13:29:44 2022, MaxMem=    23592960 cpu:         1.9
 (Enter /public/home/users/caep010/software/Gaussian09/g09/l702.exe)
 L702 exits ... SP integral derivatives will be done elsewhere.
 Leave Link  702 at Sun Aug 21 13:29:44 2022, MaxMem=    23592960 cpu:         0.5
 (Enter /public/home/users/caep010/software/Gaussian09/g09/l703.exe)
 Compute integral first derivatives, UseDBF=F ICtDFT=           0.
 Integral derivatives from FoFJK, PRISM(SPDF).
 Calling FoFJK, ICntrl=      2127 FMM=F ISym2X=0 I1Cent= 0 IOpClX= 0 NMat=1 NMatS=1 NMatT=0.
 FoFJK:  IHMeth= 1 ICntrl=    2127 DoSepK=F KAlg= 0 I1Cent=   0 FoldK=F
 IRaf=         0 NMat=   1 IRICut=       1 DoRegI=T DoRafI=F ISym2E= 0.
 FoFCou: FMM=F IPFlag=           0 FMFlag=      100000 FMFlg1=         800
         NFxFlg=           0 DoJE=F BraDBF=F KetDBF=F FulRan=T
         wScrn=  0.000000 ICntrl=    2127 IOpCl=  0 I1Cent=           0 NGrid=           0
         NMat0=    1 NMatS0=      1 NMatT0=    0 NMatD0=    1 NMtDS0=    0 NMtDT0=    0
 Symmetry not used in FoFCou.
 CoulSu:  requested number of processors reduced to:   6 ShMem   1 Linda.
 CalDSu:  requested number of processors reduced to:  17 ShMem   1 Linda.
 Leave Link  703 at Sun Aug 21 13:29:48 2022, MaxMem=    23592960 cpu:        26.5
 (Enter /public/home/users/caep010/software/Gaussian09/g09/l716.exe)
 Dipole        =-7.07869758D-02-1.07728855D+00-9.55053884D-02
 ***** Axes restored to original set *****
 -------------------------------------------------------------------
 Center     Atomic                   Forces (Hartrees/Bohr)
 Number     Number              X              Y              Z
 -------------------------------------------------------------------
      1        7          -0.001519734    0.003459366   -0.004096428
      2        6           0.003715339   -0.000910375    0.002073469
      3        6           0.001306377   -0.000519420   -0.000279957
      4        7           0.003242684    0.000673823    0.000245219
      5        8          -0.002232717   -0.003445678   -0.001441626
      6        8          -0.000980404    0.003691376    0.001316364
      7        1          -0.001857499   -0.000948282    0.001868469
      8        1          -0.001714109    0.000194123    0.000045693
      9        1          -0.000763747    0.000319271    0.000497153
     10        1           0.000491764    0.000510583    0.000514984
     11        1          -0.001111514    0.000141467    0.000331553
     12        1          -0.000383857   -0.000067147   -0.000363579
     13        1           0.001144637   -0.001020691   -0.001257875
     14        1           0.000662781   -0.002078415    0.000546559
 -------------------------------------------------------------------
 Cartesian Forces:  Max     0.004096428 RMS     0.001700769
 Leave Link  716 at Sun Aug 21 13:29:48 2022, MaxMem=    23592960 cpu:         0.6
 (Enter /public/home/users/caep010/software/Gaussian09/g09/l103.exe)

 GradGradGradGradGradGradGradGradGradGradGradGradGradGradGradGradGradGrad
 Berny optimization.
 Using GEDIIS/GDIIS optimizer.
 FormGI is forming the generalized inverse of G from B-inverse, IUseBI=4.
 Internal  Forces:  Max     0.006026482 RMS     0.001424994
 Search for a local minimum.
 Step number   2 out of a maximum of   70
 All quantities printed in internal units (Hartrees-Bohrs-Radians)
 RMS Force = .14250D-02 SwitMx=.10000D-02 MixMth= 1
 Mixed Optimization -- RFO/linear search
 Update second derivatives using D2CorX and points    1    2
 DE= -7.05D-03 DEPred=-7.70D-03 R= 9.16D-01
 TightC=F SS=  1.41D+00  RLast= 2.87D-01 DXNew= 5.0454D-01 8.6039D-01
 Trust test= 9.16D-01 RLast= 2.87D-01 DXMaxT set to 5.05D-01
 ITU=  1  0
 Use linear search instead of GDIIS.
     Eigenvalues ---    0.00230   0.00777   0.00878   0.01574   0.01629
     Eigenvalues ---    0.04220   0.04575   0.04696   0.05557   0.05768
     Eigenvalues ---    0.07280   0.09223   0.10242   0.12554   0.15836
     Eigenvalues ---    0.16000   0.16000   0.16000   0.16000   0.16365
     Eigenvalues ---    0.18203   0.19283   0.22133   0.28114   0.32153
     Eigenvalues ---    0.32379   0.35803   0.36373   0.39901   0.40387
     Eigenvalues ---    0.40432   0.40666   0.44249   0.46302   0.48525
     Eigenvalues ---    0.48936
 RFO step:  Lambda=-9.33804172D-04 EMin= 2.30179055D-03
 Quartic linear search produced a step of -0.02104.
 Iteration  1 RMS(Cart)=  0.03062210 RMS(Int)=  0.00106305
 Iteration  2 RMS(Cart)=  0.00101512 RMS(Int)=  0.00004089
 Iteration  3 RMS(Cart)=  0.00000082 RMS(Int)=  0.00004089
 ITry= 1 IFail=0 DXMaxC= 1.18D-01 DCOld= 1.00D+10 DXMaxT= 5.05D-01 DXLimC= 3.00D+00 Rises=F
 Variable       Old X    -DE/DX   Delta X   Delta X   Delta X     New X
                                 (Linear)    (Quad)   (Total)
    R1        2.77709  -0.00603  -0.00034  -0.01476  -0.01510   2.76199
    R2        1.92077  -0.00043   0.00118  -0.00511  -0.00394   1.91684
    R3        1.92296  -0.00145   0.00112  -0.00738  -0.00626   1.91670
    R4        2.91382  -0.00068   0.00010  -0.00271  -0.00261   2.91121
    R5        2.08621  -0.00050   0.00038  -0.00282  -0.00244   2.08377
    R6        2.07194   0.00072   0.00064  -0.00006   0.00058   2.07252
    R7        2.77516  -0.00088   0.00002  -0.00247  -0.00245   2.77271
    R8        2.62127   0.00527   0.00070   0.00903   0.00973   2.63100
    R9        2.65642   0.00142   0.00011   0.00274   0.00285   2.65927
   R10        1.92359   0.00021   0.00113  -0.00341  -0.00228   1.92131
   R11        1.92233   0.00028   0.00116  -0.00334  -0.00219   1.92015
   R12        1.82716  -0.00089   0.00105  -0.00541  -0.00436   1.82280
   R13        1.82197  -0.00139   0.00115  -0.00674  -0.00560   1.81637
    A1        1.89171   0.00073  -0.00001   0.00917   0.00913   1.90083
    A2        1.90816  -0.00115  -0.00059  -0.00026  -0.00089   1.90727
    A3        1.84433   0.00120   0.00023   0.01685   0.01701   1.86133
    A4        1.95709  -0.00220  -0.00049  -0.00900  -0.00951   1.94758
    A5        1.99446   0.00142  -0.00166   0.01086   0.00908   2.00354
    A6        1.89187   0.00007   0.00020   0.00159   0.00180   1.89367
    A7        1.87001  -0.00058   0.00103  -0.01419  -0.01310   1.85691
    A8        1.87916   0.00176   0.00067   0.01163   0.01236   1.89152
    A9        1.86606  -0.00033   0.00033  -0.00015   0.00024   1.86630
   A10        1.98698  -0.00140  -0.00124  -0.00671  -0.00794   1.97904
   A11        1.85542   0.00026   0.00086  -0.00061   0.00023   1.85564
   A12        1.96029   0.00031  -0.00083   0.00321   0.00240   1.96269
   A13        1.88466   0.00047   0.00039   0.00173   0.00210   1.88676
   A14        1.90314   0.00023   0.00024  -0.00176  -0.00147   1.90167
   A15        1.86753   0.00024   0.00069   0.00492   0.00560   1.87313
   A16        1.92190   0.00140  -0.00022   0.01251   0.01224   1.93413
   A17        1.88661   0.00046   0.00030   0.00509   0.00534   1.89195
   A18        1.85107  -0.00016   0.00039   0.00481   0.00510   1.85616
   A19        1.83411   0.00324   0.00070   0.01722   0.01792   1.85203
   A20        1.89563   0.00264  -0.00034   0.01721   0.01688   1.91251
    D1        1.23777  -0.00212   0.00051  -0.09958  -0.09914   1.13864
    D2       -0.89457  -0.00069   0.00071  -0.08181  -0.08107  -0.97564
    D3       -2.97332  -0.00122   0.00117  -0.08959  -0.08845  -3.06178
    D4       -3.04308  -0.00091   0.00047  -0.07483  -0.07438  -3.11746
    D5        1.10776   0.00052   0.00067  -0.05706  -0.05631   1.05144
    D6       -0.97099  -0.00001   0.00113  -0.06484  -0.06370  -1.03469
    D7        3.08949  -0.00014   0.00004   0.01026   0.01022   3.09971
    D8       -1.12109  -0.00019   0.00034   0.00812   0.00841  -1.11268
    D9        0.91582   0.00042   0.00123   0.01539   0.01659   0.93241
   D10       -0.99196  -0.00024  -0.00167   0.00765   0.00603  -0.98593
   D11        1.08065  -0.00030  -0.00137   0.00551   0.00421   1.08486
   D12        3.11755   0.00032  -0.00048   0.01279   0.01240   3.12995
   D13        1.00992  -0.00005  -0.00035   0.00614   0.00575   1.01567
   D14        3.08253  -0.00011  -0.00005   0.00400   0.00394   3.08646
   D15       -1.16375   0.00051   0.00084   0.01128   0.01212  -1.15163
   D16       -1.01574  -0.00048   0.00060  -0.02542  -0.02486  -1.04060
   D17        0.99910   0.00035   0.00112  -0.01011  -0.00897   0.99012
   D18       -3.07157  -0.00028   0.00003  -0.02179  -0.02179  -3.09337
   D19       -1.05673   0.00055   0.00055  -0.00648  -0.00591  -1.06264
   D20        1.18828  -0.00093  -0.00115  -0.02761  -0.02878   1.15950
   D21       -3.08007  -0.00011  -0.00063  -0.01231  -0.01289  -3.09296
   D22        3.09327   0.00064   0.00018   0.00548   0.00565   3.09892
   D23       -1.05128  -0.00061  -0.00059  -0.00189  -0.00249  -1.05377
   D24        0.99520   0.00002   0.00030  -0.00049  -0.00018   0.99502
   D25        1.11778  -0.00127  -0.00062  -0.03994  -0.04056   1.07722
   D26       -1.10148   0.00016   0.00137  -0.03216  -0.03080  -1.13228
   D27       -3.13577  -0.00064   0.00038  -0.03593  -0.03554   3.11188
         Item               Value     Threshold  Converged?
 Maximum Force            0.006026     0.000450     NO 
 RMS     Force            0.001425     0.000300     NO 
 Maximum Displacement     0.118340     0.001800     NO 
 RMS     Displacement     0.030716     0.001200     NO 
 Predicted change in Energy=-4.899883D-04
 Lowest energy point so far.  Saving SCF results.
 GradGradGradGradGradGradGradGradGradGradGradGradGradGradGradGradGradGrad

[...]
     2  C    0.264399   4.892312   0.421164  -0.077975  -0.072896  -0.008938
     3  C   -0.074931   0.421164   4.351667   0.316994   0.269258   0.272053
     4  N    0.012301  -0.077975   0.316994   6.790415  -0.042741  -0.061083
     5  O    0.002214  -0.072896   0.269258  -0.042741   8.205314  -0.040376
     6  O   -0.010991  -0.008938   0.272053  -0.061083  -0.040376   8.175992
     7  H    0.387654  -0.035638  -0.000012  -0.001330  -0.001686  -0.000385
     8  H    0.385561  -0.030875   0.012471  -0.001584  -0.000905  -0.001569
     9  H   -0.041733   0.434812  -0.039072  -0.001538  -0.003955   0.004678
    10  H   -0.023613   0.406374  -0.012554  -0.002196   0.005722  -0.009341
    11  H   -0.000070   0.001641  -0.026260   0.400664   0.003207  -0.003604
    12  H   -0.000066   0.005465  -0.038231   0.394571  -0.003391   0.005765
    13  H   -0.002018   0.010450  -0.017303   0.000624   0.302702   0.001578
    14  H    0.000065  -0.008755  -0.014722   0.005077   0.001311   0.293909
               7          8          9         10         11         12
     1  N    0.387654   0.385561  -0.041733  -0.023613  -0.000070  -0.000066
     2  C   -0.035638  -0.030875   0.434812   0.406374   0.001641   0.005465
     3  C   -0.000012   0.012471  -0.039072  -0.012554  -0.026260  -0.038231
     4  N   -0.001330  -0.001584  -0.001538  -0.002196   0.400664   0.394571
     5  O   -0.001686  -0.000905  -0.003955   0.005722   0.003207  -0.003391
     6  O   -0.000385  -0.001569   0.004678  -0.009341  -0.003604   0.005765
     7  H    0.360464  -0.025440  -0.005382   0.005725   0.000008   0.000002
     8  H   -0.025440   0.373746  -0.002804  -0.006820   0.000032  -0.000024
     9  H   -0.005382  -0.002804   0.532031  -0.036565   0.000734   0.001498
    10  H    0.005725  -0.006820  -0.036565   0.507473  -0.000381  -0.000488
    11  H    0.000008   0.000032   0.000734  -0.000381   0.348473  -0.030959
    12  H    0.000002  -0.000024   0.001498  -0.000488  -0.030959   0.371659
    13  H    0.000071   0.000088  -0.000524  -0.000366   0.000295  -0.000064
    14  H    0.000190   0.000463   0.000013   0.001008  -0.000242  -0.000458
              13         14
     1  N   -0.002018   0.000065
     2  C    0.010450  -0.008755
     3  C   -0.017303  -0.014722
     4  N    0.000624   0.005077
     5  O    0.302702   0.001311
     6  O    0.001578   0.293909
     7  H    0.000071   0.000190
     8  H    0.000088   0.000463
     9  H   -0.000524   0.000013
    10  H   -0.000366   0.001008
    11  H    0.000295  -0.000242
    12  H   -0.000064  -0.000458
    13  H    0.319988  -0.000478
    14  H   -0.000478   0.316453
 Mulliken charges:
               1
     1  N   -0.733825
     2  C   -0.201541
     3  C    0.579478
     4  N   -0.732200
     5  O   -0.623778
     6  O   -0.617688
     7  H    0.315760
     8  H    0.297661
     9  H    0.157805
    10  H    0.166023
    11  H    0.306461
    12  H    0.294721
    13  H    0.384956
    14  H    0.406167
 Sum of Mulliken charges =  -0.00000
 Mulliken charges with hydrogens summed into heavy atoms:
               1
     1  N   -0.120404
     2  C    0.122287
     3  C    0.579478
     4  N   -0.131018
     5  O   -0.238822
     6  O   -0.211521
 Electronic spatial extent (au):  <R**2>=            562.7403
 Charge=             -0.0000 electrons
 Dipole moment (field-independent basis, Debye):
    X=             -1.6829    Y=             -1.6908    Z=             -1.6443  Tot=              2.8974
 Quadrupole moment (field-independent basis, Debye-Ang):
   XX=            -34.4802   YY=            -33.1409   ZZ=            -39.4497
   XY=              0.1008   XZ=             -0.8061   YZ=              1.2282
 Traceless Quadrupole moment (field-independent basis, Debye-Ang):
   XX=              1.2101   YY=              2.5493   ZZ=             -3.7594
   XY=              0.1008   XZ=             -0.8061   YZ=              1.2282
 Octapole moment (field-independent basis, Debye-Ang**2):
  XXX=            -17.8620  YYY=              3.4976  ZZZ=             -2.1341  XYY=              6.6855
  XXY=             -0.4289  XXZ=             -6.3843  XZZ=             -0.6511  YZZ=             -1.7356
  YYZ=              1.9515  XYZ=              0.2901
 Hexadecapole moment (field-independent basis, Debye-Ang**3):
 XXXX=           -362.6858 YYYY=           -142.7346 ZZZZ=           -152.3320 XXXY=              7.3023
 XXXZ=              8.3092 YYYX=              3.4251 YYYZ=             -4.9279 ZZZX=            -10.8225
 ZZZY=              4.6524 XXYY=            -66.2660 XXZZ=            -89.4457 YYZZ=            -53.0916
 XXYZ=             -3.3532 YYXZ=             -0.3754 ZZXY=             -6.0347
 N-N= 2.760883686126D+02 E-N=-1.351037901551D+03  KE= 3.387571412740D+02
 PrsmSu:  requested number of processors reduced to:   1 ShMem   1 Linda.
 No NMR shielding tensors so no spin-rotation constants.
 Leave Link  601 at Sun Aug 21 18:25:59 2022, MaxMem=    23592960 cpu:        15.5
 (Enter /public/home/users/caep010/software/Gaussian09/g09/l9999.exe)
 1\1\GINC-B1168\SP\RHF\GFHFB2\C2H8N2O2\ROOT\21-Aug-2022\0\\#P Geom=AllC
 heck Guess=TCheck SCRF=Check HF/GFHFB2 SCF=Tight\\Frag_853\\0,1\N,0,1.
 7212046315,-0.4244758758,0.5324578737\C,0,0.7917125046,0.430466996,-0.
 2108552664\C,0,-0.6378409193,-0.0980014817,0.020618054\N,0,-1.71230809
 14,0.7326448163,-0.4769028387\O,0,-0.6747264902,-1.335117404,-0.661315
 4163\O,0,-0.8662260653,-0.2413811985,1.3910229225\H,0,1.7829871791,-1.
 328193178,0.0744390618\H,0,2.6523060836,-0.0242645306,0.5550654142\H,0
 ,0.9806250478,0.481605019,-1.2937724389\H,0,0.8505831901,1.444269242,0
 .1968505962\H,0,-1.7850495294,1.5764755449,0.0815619924\H,0,-1.5333566
 037,0.9921077639,-1.4414103714\H,0,-1.5631611581,-1.6829539237,-0.5145
 948768\H,0,-0.0068497793,-0.5232817898,1.7470352936\\Version=ES64L-G09
 RevE.01\State=1-A\HF=-339.1846411\RMSD=2.613e-09\Dipole=0.8603883,0.54
 55586,-0.511368\Quadrupole=0.6389958,1.7880524,-2.4270482,0.4340385,1.
 1061361,-1.0703917\PG=C01 [X(C2H8N2O2)]\\@


 IF OTHER PEOPLE ARE GOING TO TALK, CONVERSATION IS SIMPLY IMPOSSIBLE.

                                               -- WHISTLER'S PRINCIPLE
 Diagonal vibrational polarizability:
        0.0000000       0.0000000       0.0000000

 Temperature=              298.150000 Pressure=                      1.000000
 E(ZPE)=                     0.118420 E(Thermal)=                    0.125476
 E(CCSD(T))=              -340.022447 E(Empiric)=                   -0.131993
 DE(Plus)=                  -0.035938 DE(2DF)=                      -0.293612
 E(Delta-G3XP)=             -0.416388 DE(HF)=                       -0.034677
 G4(0 K)=                 -340.816635 G4 Energy=                  -340.809580
 G4 Enthalpy=             -340.808636 G4 Free Energy=             -340.846660
 1\1\GINC-B1168\Mixed\G4\G4\C2H8N2O2\ROOT\21-Aug-2022\0\\#P Geom=AllChe
 ck Guess=TCheck SCRF=Check HF/GFHFB2 SCF=Tight\\Frag_853\\0,1\N,0,1.72
 12046315,-0.4244758758,0.5324578737\C,0,0.7917125046,0.430466996,-0.21
 08552664\C,0,-0.6378409193,-0.0980014817,0.020618054\N,0,-1.7123080914
 ,0.7326448163,-0.4769028387\O,0,-0.6747264902,-1.335117404,-0.66131541
 63\O,0,-0.8662260653,-0.2413811985,1.3910229225\H,0,1.7829871791,-1.32
 8193178,0.0744390618\H,0,2.6523060836,-0.0242645306,0.5550654142\H,0,0
 .9806250478,0.481605019,-1.2937724389\H,0,0.8505831901,1.444269242,0.1
 968505962\H,0,-1.7850495294,1.5764755449,0.0815619924\H,0,-1.533356603
 7,0.9921077639,-1.4414103714\H,0,-1.5631611581,-1.6829539237,-0.514594
 8768\H,0,-0.0068497793,-0.5232817898,1.7470352936\\Version=ES64L-G09Re
 vE.01\State=1-A\MP2/GTBas1=-339.9527709\MP4/GTBas1=-340.0227525\CCSD(T
 )/G3Bas1=-340.0224471\MP2/GTBas2=-339.9866394\MP4/GTBas2=-340.0586903\
 MP2/GTBas3=-340.2296463\MP4/GTBas3=-340.3163647\HF/GTLargeXP=-339.1514
 432\MP2/GTLargeXP=-340.6799032\HF/GFHFB1=-339.1785699\HF/GFHFB2=-339.1
 846411\G4=-340.8166355\FreqCoord=3.2526053721,-0.8021431552,1.00619955
 87,1.4961198097,0.8134647317,-0.3984587072,-1.2053446537,-0.185195961,
 0.0389624755,-3.2357933479,1.3844980555,-0.9012157571,-1.2750482811,-2
 .5230062488,-1.2497050242,-1.6369300325,-0.4561443588,2.628652368,3.36
 93574669,-2.5099213579,0.1406694405,5.0121321186,-0.0458533176,1.04892
 16186,1.8531127794,0.9101015901,-2.4448755879,1.6073692826,2.729273329
 5,0.371993716,-3.3732547443,2.979107035,0.1541298286,-2.897624045,1.87
 4811968,-2.7238708471,-2.9539464904,-3.1803220101,-0.9724433865,-0.012
 9442069,-0.9888592731,3.3014182493\PG=C01 [X(C2H8N2O2)]\NImag=0\\0.603
 90103,0.04922326,0.61289040,0.08246653,0.11522786,0.23795054,-0.131024
 91,0.03019784,-0.03308487,0.44785074,0.04559502,-0.13895706,0.02058472
 ,0.01215172,0.58488326,-0.06942594,0.04631387,-0.10344721,-0.01152287,
 0.04699890,0.57972502,-0.03357546,0.00023500,-0.00401234,-0.14310676,-
 0.02790657,0.01216409,0.56025821,0.02175343,0.00605561,0.00269979,-0.0
 4232718,-0.08360582,0.00596410,-0.00145420,0.50562345,-0.01371925,-0.0
 0523303,-0.00520942,0.01790484,0.00724492,-0.07116844,0.02279909,-0.03
 332971,0.51226661,-0.00928815,-0.00324108,-0.00051064,-0.02523721,0.02
 698125,-0.01680116,-0.15909666,0.03724231,-0.02541444,0.24722253,-0.00
 103010,0.00198576,-0.00040012,0.00175317,0.00304860,-0.00046950,0.0845
 9981,-0.11649836,0.02181966,-0.14141352,0.54320133,-0.00041776,0.00009
 917,0.00186170,-0.00219585,0.00086911,0.00232745,-0.03742578,0.0110816
 6,-0.10987995,-0.02363311,0.04856731,0.70398867,-0.00023441,-0.0004912
 9,-0.00048703,-0.00898882,-0.03928908,-0.01568527,-0.10435263,-0.03342
 100,-0.00511118,-0.00179448,0.03778711,0.01473892,0.54216848,-0.000392
 51,0.00078009,-0.00021817,-0.01068504,-0.03063082,-0.01336556,0.007099
 48,-0.16406777,-0.03841009,0.01797280,-0.04762979,-0.02324991,0.152268
 15,0.33365897,-0.00120865,-0.00066497,0.00202121,-0.00253045,-0.002949
 67,0.00150922,0.01407016,-0.03179242,-0.08734731,0.00459379,-0.0008940
 0,0.00934290,-0.08923248,0.08136535,0.15157563,-0.00847001,-0.00041651
 ,0.00387505,-0.01058015,-0.00420252,0.03575699,-0.11454555,0.00397159,
 0.01086551,0.00522462,0.01093832,-0.04182627,0.01271559,0.00228111,0.0
 0169934,0.50382267,0.00357880,0.00376157,-0.00116234,-0.00363038,0.000
 47666,0.01965581,-0.00151984,-0.08249507,0.02635233,0.00067347,-0.0024
 7827,0.03072970,0.00664119,0.00355059,-0.04577405,-0.12721382,0.121010
 00,-0.00420583,0.00023858,0.00421580,0.01185825,0.00568826,-0.03348071
 ,0.04933588,0.02699571,-0.19578841,-0.00833489,0.01430507,-0.03987895,
 0.00594303,-0.03013961,-0.05142703,0.09177450,-0.07638969,0.41130439,-
 0.05809048,0.03187826,0.00142874,-0.00088246,0.02235609,0.01393219,0.0
 0064218,0.00564209,0.00201461,-0.00037044,-0.00132451,-0.00043479,0.00
 061269,-0.00146721,-0.00035106,-0.00119587,-0.00135772,-0.00078927,0.0
 5808845,0.01447704,-0.33539035,-0.14439073,0.00431369,-0.02337068,-0.0
 1160382,0.00048395,-0.00008649,0.00003274,0.00000615,0.00003641,0.0000
 0459,-0.00099686,-0.00045599,-0.00016139,-0.00071233,-0.00024215,-0.00
 013255,-0.02339758,0.37048877,-0.00415884,-0.19119195,-0.11104467,-0.0
 0364389,0.02519192,0.00480717,0.00022001,-0.00111133,0.00136883,0.0003
 1746,-0.00018965,-0.00018378,-0.00057274,0.00044584,-0.00113842,0.0010
 3430,0.00102248,-0.00038543,0.00468390,0.16261820,0.11098920,-0.367420
 15,-0.14039885,-0.02784611,-0.02067776,-0.01106893,0.00512150,-0.00046
 773,0.00436286,-0.00234076,-0.00244732,0.00000171,-0.00024432,0.000336
 42,-0.00010074,0.00008795,0.00027083,0.00012114,-0.00032274,0.00209788
 ,0.00337450,0.00442583,0.38598266,-0.13648127,-0.12163306,-0.01202877,
 0.02543820,0.01028805,0.00134387,0.00149011,-0.00455070,0.00287435,0.0
 0215675,0.00028145,-0.00004545,-0.00085627,0.00063580,-0.00025938,0.00
 003526,0.00033454,0.00016435,-0.03539921,-0.01282336,0.00232264,0.1442
 0412,0.12710317,0.01784756,0.00738014,-0.01384951,-0.02192109,-0.00596
 725,-0.00626047,0.00080298,0.00238189,-0.00415620,-0.00072490,-0.00013
 711,0.00041205,-0.00016981,0.00012510,0.00055502,0.00319021,-0.0012698
 1,0.00119408,-0.01760716,-0.00876253,-0.00428149,0.02119559,0.00605881
 ,0.02289007,0.00070495,0.00723300,-0.02875268,-0.06078689,-0.00217938,
 0.04687701,-0.00245337,0.00226920,0.03034779,0.00137979,-0.00036233,-0
 .00075268,0.00120625,0.00076020,-0.00116887,-0.00632172,-0.00496113,0.
 00518393,0.00071413,-0.00168635,0.00087005,0.00116002,-0.00010297,-0.0
 0059695,0.06498879,0.00209497,-0.00351873,0.02505770,-0.00142788,-0.05
 131928,-0.00138389,-0.00325717,-0.00046178,0.01243470,0.00001690,-0.00
 039226,-0.00066611,0.00018123,0.00047941,-0.00038697,-0.00233838,0.000
 17522,0.00110707,-0.00054452,0.00159252,0.00076785,-0.00065952,-0.0001
 1319,-0.00052610,-0.00221725,0.05141667,-0.00551072,0.00894474,-0.0167
 5287,0.05056584,0.00142251,-0.27884710,-0.00134079,-0.00201133,-0.0099
 2938,0.00087322,-0.00032887,0.00135240,-0.00089456,-0.00043744,0.00174
 506,0.00219346,0.00109504,0.00141645,-0.00092484,-0.00049641,0.0015301
 8,-0.00014104,0.00037003,0.00020944,-0.04775050,-0.00814847,0.30913446
 ,-0.00064336,0.02679847,0.00632049,-0.04993627,-0.01779194,-0.00513039
 ,0.00039022,-0.02727632,-0.01332952,0.00255878,0.00070818,0.00052087,-
 0.00720723,-0.00428874,0.00073720,0.00134216,0.00227981,-0.00021703,-0
 .00307284,0.00319042,-0.00314457,0.00095644,-0.00013682,0.00106137,0.0
 0120024,0.00651737,0.00352575,0.05597672,0.00111783,-0.02162809,-0.004
 64696,-0.01583741,-0.26559406,-0.09047522,0.00235054,-0.01224795,-0.00
 650499,0.00100271,0.00174715,0.00044177,-0.00312630,-0.00019623,0.0006
 6617,0.00030481,0.00203265,0.00080104,0.00301256,-0.00058616,0.0026003
 5,0.00013955,0.00060431,-0.00019834,-0.00060095,0.00173072,-0.00001380
 ,0.01211758,0.29511619,0.00028916,0.02005759,0.00671694,-0.00656680,-0
 .09798586,-0.09174759,0.00192277,0.00473465,-0.00014164,-0.00068885,0.
 00061400,-0.00031887,-0.00005864,0.00012600,0.00080945,-0.00002494,-0.
 00004135,0.00063356,-0.00259421,0.00301047,-0.00090270,0.00065468,-0.0
 0060443,0.00092088,-0.00291156,-0.02787556,-0.01085785,0.01041878,0.09
 785346,0.09412535,0.00020437,-0.00078239,-0.00014295,-0.00006777,0.000
 91488,0.00006399,-0.00719896,0.02643161,0.01661478,-0.01984527,0.01026
 659,-0.01108293,-0.00045689,0.00390884,-0.00096975,0.00068905,-0.00198
 529,0.00155568,0.00025944,-0.00004507,0.00007587,0.00002639,0.00002642
 ,-0.00000852,0.00016326,-0.00000582,-0.00019096,-0.00098760,-0.0007268
 0,-0.00024046,0.03211630,-0.00032409,-0.00001301,0.00015709,-0.0003919
 1,0.00067898,-0.00021421,-0.00858617,-0.01974353,-0.01700661,0.0515543
 5,-0.30974028,-0.17927213,0.00645253,-0.00651237,0.00149583,-0.0015656
 0,0.00258296,0.00068572,-0.00029596,0.00000272,-0.00003246,-0.00006663
 ,0.00009311,0.00003748,-0.00010588,0.00007766,0.00005657,0.00024058,0.
 00047754,-0.00004677,-0.04293969,0.32150899,-0.00014663,0.00011714,-0.
 00014566,-0.00000470,0.00028899,-0.00054065,0.00016651,0.00862604,0.00
 915262,0.01229788,-0.16367297,-0.17272476,-0.00238361,0.00468852,0.001
 39989,0.00000166,0.00017064,-0.00106215,-0.00000230,0.00005825,0.00001
 690,-0.00007664,0.00007766,-0.00004876,0.00006932,-0.00010126,0.000036
 53,0.00009180,0.00010665,0.00029960,-0.01108306,0.18412809,0.18141844,
 0.00098652,-0.00047776,0.00117071,0.00031376,-0.00029901,-0.00128479,0
 .00121782,0.00797977,-0.03093726,-0.03873184,-0.00158149,0.09884014,-0
 .00039409,-0.00167277,-0.00021027,-0.00407739,0.00338614,-0.00358689,0
 .00014449,0.00008955,-0.00008465,0.00016740,-0.00017013,-0.00011160,-0
 .00058234,0.00016883,0.00085736,-0.00024374,-0.00010809,-0.00000281,-0
 .00417186,-0.00490281,0.00114809,0.04438700,0.00035971,-0.00012779,-0.
 00022283,-0.00025088,0.00019372,0.00021295,-0.01273172,-0.00250474,0.0
 2130192,0.00699812,-0.07773471,0.10571787,-0.00038972,-0.00008210,-0.0
 0373150,0.00508681,-0.00162807,0.00305312,0.00013168,-0.00001057,0.000
 08999,0.00007811,-0.00004096,-0.00010628,0.00047580,0.00035752,-0.0002
 9696,-0.00014281,-0.00003719,-0.00031245,0.00438075,0.00861147,-0.0338
 8926,-0.00344615,0.07320811,0.00031609,0.00010275,0.00031211,0.0006044
 2,-0.00115388,0.00121411,0.00727245,0.00286259,-0.01461732,0.05513580,
 0.08023819,-0.38714337,-0.00011411,-0.00052560,0.00134652,-0.00424543,
 0.00191827,-0.00096957,0.00004643,-0.00000681,-0.00001356,0.00014924,-
 0.00013663,0.00020992,-0.00061103,-0.00016055,0.00024952,-0.00020547,-
 0.00005889,-0.00015618,0.00566568,0.01032087,-0.01784529,-0.06507848,-
 0.09428363,0.41789708,0.00047949,0.00004533,-0.00004144,0.00132937,-0.
 00102452,-0.00114414,-0.00558676,-0.00570081,-0.00007932,0.00083222,0.
 00124233,0.00113978,-0.43253579,-0.16728553,0.06976154,0.00056963,0.00
 306994,0.00178643,0.00023719,-0.00012186,0.00030500,0.00011314,0.00005
 207,-0.00008555,0.00030361,0.00030595,0.00000140,0.00000379,-0.0000565
 9,-0.00001431,-0.00053344,0.00068274,-0.00001393,0.00004176,-0.0000156
 5,-0.00011107,0.43555354,0.00107947,0.00013226,0.00021536,0.00099251,-
 0.00687650,-0.00408759,-0.04647162,-0.02417714,0.00330697,0.00004969,0
 .00398842,0.00186553,-0.12539999,-0.08770412,0.00383708,0.00248569,0.0
 0200166,0.00124092,-0.00085232,0.00033055,-0.00027713,0.00005635,0.000
 26415,0.00008078,0.00031168,0.00019650,0.00007336,-0.00187480,-0.00060
 761,0.00001970,0.00069177,0.00130098,-0.00042135,-0.00013180,-0.000237
 08,0.00008608,0.16922206,0.11104032,0.00032297,0.00024708,-0.00025398,
 0.00043162,-0.00305466,-0.00068513,-0.02232643,-0.01524689,0.00393775,
 0.00058176,0.00007408,-0.00173560,0.09208514,0.02076283,-0.03172082,0.
 00149515,0.00302983,0.00093059,0.00008811,-0.00005298,-0.00011678,0.00
 003549,-0.00006708,-0.00008344,-0.00010984,-0.00005873,0.00024433,-0.0
 0076081,-0.00030847,0.00052922,-0.00029711,-0.00047119,0.00006689,0.00
 066168,0.00106729,-0.00005224,-0.07132008,-0.00600629,0.02903569,0.002
 47055,0.00019672,-0.00038346,0.00179514,-0.00423702,0.00707878,0.00787
 544,0.00052664,-0.00961487,-0.00040657,-0.00158528,0.00277377,-0.00107
 510,0.00160195,0.00472155,-0.37944386,0.12091770,-0.14998105,0.0008156
 2,0.00102474,-0.00032771,-0.00009822,-0.00025626,-0.00287213,-0.001676
 71,0.00116530,-0.00126362,-0.00033729,0.00041057,-0.00018283,-0.000197
 04,0.00024854,-0.00006440,0.00094251,-0.00053405,0.00117548,-0.0008077
 7,-0.00015868,-0.00088765,0.37014328,-0.00105155,-0.00433759,-0.000872
 61,-0.00029644,0.00078495,0.00111027,0.00566840,-0.00123971,0.00511685
 ,0.00000010,0.00018456,0.00385688,0.00064030,-0.00182567,-0.00075008,0
 .11134556,-0.04908230,0.05238200,0.00161836,0.00051478,-0.00225675,-0.
 00004369,-0.00044328,0.00090323,0.00116635,-0.00022096,-0.00022897,-0.
 00034097,-0.00081126,0.00045055,-0.00013581,0.00067479,-0.00017713,0.0
 0116572,0.00003239,0.00079723,-0.00041546,0.00034762,0.00008518,-0.119
 32089,0.05542168,-0.00244869,-0.00163898,-0.00237499,0.00010553,0.0028
 2199,-0.00340567,-0.04364860,0.01814526,-0.02848774,0.00230808,0.00047
 391,-0.00741989,0.00194234,-0.00116726,0.00132868,-0.10578954,0.040663
 14,-0.09670262,0.00050965,-0.00011702,-0.00064544,-0.00069866,-0.00006
 998,0.00228842,-0.00069397,-0.00005968,0.00046883,0.00011152,-0.000262
 77,0.00008983,0.00003974,0.00016170,-0.00002360,-0.00138124,0.00139977
 ,-0.00043172,-0.00018430,0.00006658,-0.00009649,0.14982814,-0.06041665
 ,0.13541239\\-0.00007409,0.00007530,-0.00000536,0.00006355,-0.00009038
 ,0.00002453,-0.00004327,0.00005146,-0.00004840,0.00006461,0.00001240,0
 .00000317,0.00001755,-0.00003131,0.00000348,0.00000294,-0.00000157,0.0
 0003939,0.00000407,-0.00000045,-0.00000619,0.00001045,0.00000386,0.000
 00355,-0.00000362,0.00001932,-0.00001661,-0.00001249,0.00000455,0.0000
 0350,-0.00001465,-0.00002523,-0.00000373,-0.00001449,-0.00002054,0.000
 01458,0.00000097,0.00000583,-0.00000521,-0.00000153,-0.00000325,-0.000
 00671\\\@
 Job cpu time:       0 days  2 hours 51 minutes 34.6 seconds.
 File lengths (MBytes):  RWF=  12763 Int=      0 D2E=      0 Chk=     37 Scr=      1
 Normal termination of Gaussian 09 at Sun Aug 21 18:26:00 2022.
