 Entering Gaussian System, Link 0=g09
 Input=G4.Frag_538.gjf
 Output=G4.Frag_538.log
 Initial command:
 /public/home/users/caep010/software/Gaussian09/g09/l1.exe "/public/home/users/caep010/.cache/gau_scr/Gau-150477.inp" -scrdir="/public/home/users/caep010/.cache/gau_scr/"
 Entering Link 1 = /public/home/users/caep010/software/Gaussian09/g09/l1.exe PID=    150478.
  
 Copyright (c) 1988,1990,1992,1993,1995,1998,2003,2009,2015,
            Gaussian, Inc.  All Rights Reserved.
  
 This is part of the Gaussian(R) 09 program.  It is based on
 the Gaussian(R) 03 system (copyright 2003, Gaussian, Inc.),
 the Gaussian(R) 98 system (copyright 1998, Gaussian, Inc.),
 the Gaussian(R) 94 system (copyright 1995, Gaussian, Inc.),
 the Gaussian 92(TM) system (copyright 1992, Gaussian, Inc.),
 the Gaussian 90(TM) system (copyright 1990, Gaussian, Inc.),
 the Gaussian 88(TM) system (copyright 1988, Gaussian, Inc.),
 the Gaussian 86(TM) system (copyright 1986, Carnegie Mellon
 University), and the Gaussian 82(TM) system (copyright 1983,
 Carnegie Mellon University). Gaussian is a federally registered
 trademark of Gaussian, Inc.
  
 This software contains proprietary and confidential information,
 including trade secrets, belonging to Gaussian, Inc.
  
 This software is provided under written license and may be
 used, copied, transmitted, or stored only in accord with that
 written license.
  
 The following legend is applicable only to US Government
 contracts under FAR:
  
                    RESTRICTED RIGHTS LEGEND
  
 Use, reproduction and disclosure by the US Government is
 subject to restrictions as set forth in subparagraphs (a)
 and (c) of the Commercial Computer Software - Restricted
 Rights clause in FAR 52.227-19.
  
 Gaussian, Inc.
 340 Quinnipiac St., Bldg. 40, Wallingford CT 06492
  
  
 ---------------------------------------------------------------
 Warning -- This program may not be used in any manner that
 competes with the business of Gaussian, Inc. or will provide
 assistance to any competitor of Gaussian, Inc.  The licensee
 of this program is prohibited from giving any competitor of
 Gaussian, Inc. access to this program.  By using this program,
 the user acknowledges that Gaussian, Inc. is engaged in the
 business of creating and licensing software in the field of
 computational chemistry and represents and warrants to the
 licensee that it is not a competitor of Gaussian, Inc. and that
 it will not use this program in any manner prohibited above.
 ---------------------------------------------------------------
  

 Cite this work as:
 Gaussian 09, Revision E.01,
 M. J. Frisch, G. W. Trucks, H. B. Schlegel, G. E. Scuseria, 
 M. A. Robb, J. R. Cheeseman, G. Scalmani, V. Barone, B. Mennucci, 
 G. A. Petersson, H. Nakatsuji, M. Caricato, X. Li, H. P. Hratchian, 
 A. F. Izmaylov, J. Bloino, G. Zheng, J. L. Sonnenberg, M. Hada, 
 M. Ehara, K. Toyota, R. Fukuda, J. Hasegawa, M. Ishida, T. Nakajima, 
 Y. Honda, O. Kitao, H. Nakai, T. Vreven, J. A. Montgomery, Jr., 
 J. E. Peralta, F. Ogliaro, M. Bearpark, J. J. Heyd, E. Brothers, 
 K. N. Kudin, V. N. Staroverov, T. Keith, R. Kobayashi, J. Normand, 
 K. Raghavachari, A. Rendell, J. C. Burant, S. S. Iyengar, J. Tomasi, 
 M. Cossi, N. Rega, J. M. Millam, M. Klene, J. E. Knox, J. B. Cross, 
 V. Bakken, C. Adamo, J. Jaramillo, R. Gomperts, R. E. Stratmann, 
 O. Yazyev, A. J. Austin, R. Cammi, C. Pomelli, J. W. Ochterski, 
 R. L. Martin, K. Morokuma, V. G. Zakrzewski, G. A. Voth, 
 P. Salvador, J. J. Dannenberg, S. Dapprich, A. D. Daniels, 
 O. Farkas, J. B. Foresman, J. V. Ortiz, J. Cioslowski, 
 and D. J. Fox, Gaussian, Inc., Wallingford CT, 2013.
 
 ******************************************
 Gaussian 09:  ES64L-G09RevE.01 30-Nov-2015
                26-Aug-2022 
 ******************************************
 %nproc=32
 Will use up to   32 processors via shared memory.
 %mem=180GB
 %chk=G4.Frag_538.chk
 -----
 #P G4
 -----
 1/14=-1,18=20,19=15,26=3,38=1/1,3;
 2/9=110,12=2,17=6,18=5,40=1/2;
 3/5=35,7=104,11=2,16=1,25=1,30=1,71=1,74=-5/1,2,3;
 4//1;
 5/5=2,38=5/2;
 6/7=2,8=2,9=2,10=2,28=1/1;
 7//1,2,3,16;
 1/14=-1,18=20,19=15,26=3/3(2);
 2/9=110/2;
 99//99;
 2/9=110/2;
 3/5=35,7=104,11=2,16=1,25=1,30=1,71=1,74=-5/1,2,3;
 4/5=5,16=3,69=1/1;
 5/5=2,38=5/2;
 7//1,2,3,16;
 1/14=-1,18=20,19=15,26=3/3(-5);
 2/9=110/2;
 6/7=2,8=2,9=2,10=2,19=2,28=1/1;
 99/9=1/99;
 Leave Link    1 at Fri Aug 26 13:56:10 2022, MaxMem= 24159191040 cpu:         1.7
 (Enter /public/home/users/caep010/software/Gaussian09/g09/l101.exe)
 --------
 Frag_538
 --------
 Symbolic Z-matrix:
 Charge =  0 Multiplicity = 1
 C                    -0.7024   -0.0913    1.6497 
 C                    -0.2657    0.017     0.1747 
 C                    -0.8336    1.3223   -0.4194 
 C                    -0.832    -1.1909   -0.6003 
 C                     1.285     0.0295    0.1146 
 N                     1.777     0.1665   -1.2565 
 H                    -1.8109   -0.0986    1.7335 
 H                    -0.3167    0.7694    2.238 
 H                    -0.3134   -1.0274    2.1057 
 H                    -0.43      2.206     0.1205 
 H                    -0.5679    1.4179   -1.4939 
 H                    -1.942     1.3396   -0.3376 
 H                    -0.3924   -2.1391   -0.2224 
 H                    -1.936    -1.2474   -0.4835 
 H                    -0.6127   -1.1083   -1.6859 
 H                     1.6954   -0.9023    0.5667 
 H                     1.6664    0.8829    0.7197 
 H                     2.7887    0.4267   -1.2085 
 H                     1.7433   -0.7726   -1.7151 
 
 NAtoms=     19 NQM=       19 NQMF=       0 NMMI=      0 NMMIF=      0
                NMic=       0 NMicF=      0.
                    Isotopes and Nuclear Properties:
 (Nuclear quadrupole moments (NQMom) in fm**2, nuclear magnetic moments (NMagM)
  in nuclear magnetons)

  Atom         1           2           3           4           5           6           7           8           9          10
 IAtWgt=          12          12          12          12          12          14           1           1           1           1
 AtmWgt=  12.0000000  12.0000000  12.0000000  12.0000000  12.0000000  14.0030740   1.0078250   1.0078250   1.0078250   1.0078250
 NucSpn=           0           0           0           0           0           2           1           1           1           1
 AtZEff=   0.0000000   0.0000000   0.0000000   0.0000000   0.0000000   0.0000000   0.0000000   0.0000000   0.0000000   0.0000000
 NQMom=    0.0000000   0.0000000   0.0000000   0.0000000   0.0000000   2.0440000   0.0000000   0.0000000   0.0000000   0.0000000
 NMagM=    0.0000000   0.0000000   0.0000000   0.0000000   0.0000000   0.4037610   2.7928460   2.7928460   2.7928460   2.7928460
 AtZNuc=   6.0000000   6.0000000   6.0000000   6.0000000   6.0000000   7.0000000   1.0000000   1.0000000   1.0000000   1.0000000

  Atom        11          12          13          14          15          16          17          18          19
 IAtWgt=           1           1           1           1           1           1           1           1           1
 AtmWgt=   1.0078250   1.0078250   1.0078250   1.0078250   1.0078250   1.0078250   1.0078250   1.0078250   1.0078250
 NucSpn=           1           1           1           1           1           1           1           1           1
 AtZEff=   0.0000000   0.0000000   0.0000000   0.0000000   0.0000000   0.0000000   0.0000000   0.0000000   0.0000000
 NQMom=    0.0000000   0.0000000   0.0000000   0.0000000   0.0000000   0.0000000   0.0000000   0.0000000   0.0000000
 NMagM=    2.7928460   2.7928460   2.7928460   2.7928460   2.7928460   2.7928460   2.7928460   2.7928460   2.7928460
 AtZNuc=   1.0000000   1.0000000   1.0000000   1.0000000   1.0000000   1.0000000   1.0000000   1.0000000   1.0000000
 Leave Link  101 at Fri Aug 26 13:56:10 2022, MaxMem= 24159191040 cpu:        10.4
 (Enter /public/home/users/caep010/software/Gaussian09/g09/l103.exe)

 GradGradGradGradGradGradGradGradGradGradGradGradGradGradGradGradGradGrad
 Berny optimization.
 Initialization pass.
                           ----------------------------
                           !    Initial Parameters    !
                           ! (Angstroms and Degrees)  !
 --------------------------                            --------------------------
 ! Name  Definition              Value          Derivative Info.                !
 --------------------------------------------------------------------------------
 ! R1    R(1,2)                  1.5421         estimate D2E/DX2                !
 ! R2    R(1,7)                  1.1117         estimate D2E/DX2                !
 ! R3    R(1,8)                  1.1116         estimate D2E/DX2                !
 ! R4    R(1,9)                  1.1115         estimate D2E/DX2                !
 ! R5    R(2,3)                  1.5425         estimate D2E/DX2                !
 ! R6    R(2,4)                  1.5428         estimate D2E/DX2                !
 ! R7    R(2,5)                  1.5519         estimate D2E/DX2                !
 ! R8    R(3,10)                 1.1114         estimate D2E/DX2                !
 ! R9    R(3,11)                 1.111          estimate D2E/DX2                !
 ! R10   R(3,12)                 1.1115         estimate D2E/DX2                !
 ! R11   R(4,13)                 1.1114         estimate D2E/DX2                !
 ! R12   R(4,14)                 1.1116         estimate D2E/DX2                !
 ! R13   R(4,15)                 1.1106         estimate D2E/DX2                !
 ! R14   R(5,6)                  1.4631         estimate D2E/DX2                !
 ! R15   R(5,16)                 1.114          estimate D2E/DX2                !
 ! R16   R(5,17)                 1.1135         estimate D2E/DX2                !
 ! R17   R(6,18)                 1.0457         estimate D2E/DX2                !
 ! R18   R(6,19)                 1.0456         estimate D2E/DX2                !
 ! A1    A(2,1,7)              110.7895         estimate D2E/DX2                !
 ! A2    A(2,1,8)              110.7059         estimate D2E/DX2                !
 ! A3    A(2,1,9)              110.6359         estimate D2E/DX2                !
 ! A4    A(7,1,8)              108.1298         estimate D2E/DX2                !
 ! A5    A(7,1,9)              108.2102         estimate D2E/DX2                !
 ! A6    A(8,1,9)              108.2721         estimate D2E/DX2                !
 ! A7    A(1,2,3)              108.8788         estimate D2E/DX2                !
 ! A8    A(1,2,4)              108.756          estimate D2E/DX2                !
 ! A9    A(1,2,5)              108.6975         estimate D2E/DX2                !
 ! A10   A(3,2,4)              109.5063         estimate D2E/DX2                !
 ! A11   A(3,2,5)              110.2521         estimate D2E/DX2                !
 ! A12   A(4,2,5)              110.7087         estimate D2E/DX2                !
 ! A13   A(2,3,10)             110.6121         estimate D2E/DX2                !
 ! A14   A(2,3,11)             110.933          estimate D2E/DX2                !
 ! A15   A(2,3,12)             110.6069         estimate D2E/DX2                !
 ! A16   A(10,3,11)            108.3336         estimate D2E/DX2                !
 ! A17   A(10,3,12)            108.2992         estimate D2E/DX2                !
 ! A18   A(11,3,12)            107.9577         estimate D2E/DX2                !
 ! A19   A(2,4,13)             110.608          estimate D2E/DX2                !
 ! A20   A(2,4,14)             110.5825         estimate D2E/DX2                !
 ! A21   A(2,4,15)             111.119          estimate D2E/DX2                !
 ! A22   A(13,4,14)            108.2854         estimate D2E/DX2                !
 ! A23   A(13,4,15)            108.5254         estimate D2E/DX2                !
 ! A24   A(14,4,15)            107.6138         estimate D2E/DX2                !
 ! A25   A(2,5,6)              111.9037         estimate D2E/DX2                !
 ! A26   A(2,5,16)             110.2214         estimate D2E/DX2                !
 ! A27   A(2,5,17)             109.1099         estimate D2E/DX2                !
 ! A28   A(6,5,16)             109.5566         estimate D2E/DX2                !
 ! A29   A(6,5,17)             108.8019         estimate D2E/DX2                !
 ! A30   A(16,5,17)            107.117          estimate D2E/DX2                !
 ! A31   A(5,6,18)             107.7948         estimate D2E/DX2                !
 ! A32   A(5,6,19)             108.4251         estimate D2E/DX2                !
 ! A33   A(18,6,19)            105.949          estimate D2E/DX2                !
 ! D1    D(7,1,2,3)             59.6199         estimate D2E/DX2                !
 ! D2    D(7,1,2,4)            -59.6422         estimate D2E/DX2                !
 ! D3    D(7,1,2,5)            179.7487         estimate D2E/DX2                !
 ! D4    D(8,1,2,3)            -60.3358         estimate D2E/DX2                !
 ! D5    D(8,1,2,4)           -179.598          estimate D2E/DX2                !
 ! D6    D(8,1,2,5)             59.7929         estimate D2E/DX2                !
 ! D7    D(9,1,2,3)            179.6306         estimate D2E/DX2                !
 ! D8    D(9,1,2,4)             60.3684         estimate D2E/DX2                !
 ! D9    D(9,1,2,5)            -60.2406         estimate D2E/DX2                !
 ! D10   D(1,2,3,10)            61.7003         estimate D2E/DX2                !
 ! D11   D(1,2,3,11)          -178.0558         estimate D2E/DX2                !
 ! D12   D(1,2,3,12)           -58.2871         estimate D2E/DX2                !
 ! D13   D(4,2,3,10)          -179.5066         estimate D2E/DX2                !
 ! D14   D(4,2,3,11)           -59.2626         estimate D2E/DX2                !
 ! D15   D(4,2,3,12)            60.5061         estimate D2E/DX2                !
 ! D16   D(5,2,3,10)           -57.4626         estimate D2E/DX2                !
 ! D17   D(5,2,3,11)            62.7814         estimate D2E/DX2                !
 ! D18   D(5,2,3,12)          -177.4499         estimate D2E/DX2                !
 ! D19   D(1,2,4,13)           -64.1593         estimate D2E/DX2                !
 ! D20   D(1,2,4,14)            55.7922         estimate D2E/DX2                !
 ! D21   D(1,2,4,15)           175.2348         estimate D2E/DX2                !
 ! D22   D(3,2,4,13)           176.9715         estimate D2E/DX2                !
 ! D23   D(3,2,4,14)           -63.077          estimate D2E/DX2                !
 ! D24   D(3,2,4,15)            56.3656         estimate D2E/DX2                !
 ! D25   D(5,2,4,13)            55.2014         estimate D2E/DX2                !
 ! D26   D(5,2,4,14)           175.1529         estimate D2E/DX2                !
 ! D27   D(5,2,4,15)           -65.4045         estimate D2E/DX2                !
 ! D28   D(1,2,5,6)           -178.4896         estimate D2E/DX2                !
 ! D29   D(1,2,5,16)            59.3302         estimate D2E/DX2                !
 ! D30   D(1,2,5,17)           -58.0294         estimate D2E/DX2                !
 ! D31   D(3,2,5,6)            -59.2165         estimate D2E/DX2                !
 ! D32   D(3,2,5,16)           178.6034         estimate D2E/DX2                !
 ! D33   D(3,2,5,17)            61.2437         estimate D2E/DX2                !
 ! D34   D(4,2,5,6)             62.1144         estimate D2E/DX2                !
 ! D35   D(4,2,5,16)           -60.0657         estimate D2E/DX2                !
 ! D36   D(4,2,5,17)          -177.4254         estimate D2E/DX2                !
 ! D37   D(2,5,6,18)           164.9007         estimate D2E/DX2                !
 ! D38   D(2,5,6,19)           -80.8247         estimate D2E/DX2                !
 ! D39   D(16,5,6,18)          -72.5396         estimate D2E/DX2                !
 ! D40   D(16,5,6,19)           41.7349         estimate D2E/DX2                !
 ! D41   D(17,5,6,18)           44.2613         estimate D2E/DX2                !
 ! D42   D(17,5,6,19)          158.5358         estimate D2E/DX2                !
 --------------------------------------------------------------------------------
 Trust Radius=3.00D-01 FncErr=1.00D-07 GrdErr=1.00D-06
 Number of steps in this run=    103 maximum allowed number of steps=    114.
 GradGradGradGradGradGradGradGradGradGradGradGradGradGradGradGradGradGrad

 Leave Link  103 at Fri Aug 26 13:56:10 2022, MaxMem= 24159191040 cpu:         0.4
 (Enter /public/home/users/caep010/software/Gaussian09/g09/l202.exe)
                          Input orientation:                          
 ---------------------------------------------------------------------
 Center     Atomic      Atomic             Coordinates (Angstroms)
 Number     Number       Type             X           Y           Z
 ---------------------------------------------------------------------
      1          6           0       -0.702400   -0.091300    1.649700
      2          6           0       -0.265700    0.017000    0.174700
      3          6           0       -0.833600    1.322300   -0.419400
      4          6           0       -0.832000   -1.190900   -0.600300
      5          6           0        1.285000    0.029500    0.114600
      6          7           0        1.777000    0.166500   -1.256500
      7          1           0       -1.810900   -0.098600    1.733500
      8          1           0       -0.316700    0.769400    2.238000
      9          1           0       -0.313400   -1.027400    2.105700
     10          1           0       -0.430000    2.206000    0.120500
     11          1           0       -0.567900    1.417900   -1.493900
     12          1           0       -1.942000    1.339600   -0.337600
     13          1           0       -0.392400   -2.139100   -0.222400
     14          1           0       -1.936000   -1.247400   -0.483500
     15          1           0       -0.612700   -1.108300   -1.685900
     16          1           0        1.695400   -0.902300    0.566700
     17          1           0        1.666400    0.882900    0.719700
     18          1           0        2.788700    0.426700   -1.208500
     19          1           0        1.743300   -0.772600   -1.715100
 ---------------------------------------------------------------------
                    Distance matrix (angstroms):
                    1          2          3          4          5
     1  C    0.000000
     2  C    1.542096   0.000000
     3  C    2.509313   1.542489   0.000000
     4  C    2.507671   1.542836   2.519703   0.000000
     5  C    2.514137   1.551915   2.538691   2.546006   0.000000
     6  N    3.828823   2.498661   2.975205   3.013306   1.463130
     7  H    1.111687   2.197923   2.758451   2.756445   3.495975
     8  H    1.111605   2.196796   2.763089   3.487730   2.760747
     9  H    1.111549   2.195861   3.488241   2.760093   2.763404
    10  H    2.773129   2.195826   1.111445   3.495724   2.770995
    11  H    3.489699   2.199562   1.110984   2.770218   2.819249
    12  H    2.744712   2.195838   1.111549   2.775706   3.512033
    13  H    2.791835   2.196021   3.494962   1.111368   2.762257
    14  H    2.721925   2.195868   2.796918   1.111598   3.516111
    15  H    3.488347   2.201940   2.749661   1.110605   2.852657
    16  H    2.753190   2.201066   3.509570   2.798737   1.114035
    17  H    2.724918   2.186280   2.782197   3.505003   1.113510
    18  H    4.541521   3.377937   3.813900   4.011983   2.041929
    19  H    4.215151   2.868953   3.564808   2.837239   2.049684
                    6          7          8          9         10
     6  N    0.000000
     7  H    4.677970   0.000000
     8  H    4.118082   1.800161   0.000000
     9  H    4.135161   1.801030   1.801667   0.000000
    10  H    3.305531   3.133662   2.561340   3.795983   0.000000
    11  H    2.668505   3.776365   3.796147   4.359058   1.801778
    12  H    4.006433   2.524888   3.098458   3.771570   1.801846
    13  H    3.330383   3.162488   3.810337   2.581117   4.358771
    14  H    4.047593   2.500096   3.754488   3.063525   3.815603
    15  H    2.742292   3.761313   4.360088   3.804255   3.779027
    16  H    2.114959   3.781732   3.104250   2.533663   3.791827
    17  H    2.104953   3.752699   2.500161   3.080560   2.550397
    18  H    1.045727   5.485219   4.651808   4.766692   3.910522
    19  H    1.045638   4.997945   4.716817   4.346660   4.118825
                   11         12         13         14         15
    11  H    0.000000
    12  H    1.797585   0.000000
    13  H    3.781503   3.809972   0.000000
    14  H    3.161713   2.591118   1.801667   0.000000
    15  H    2.533882   3.094700   1.803583   1.793387   0.000000
    16  H    3.840824   4.367442   2.551717   3.795929   3.231713
    17  H    3.190352   3.787745   3.776069   4.354670   3.866017
    18  H    3.511509   4.896057   4.204179   5.064684   3.762135
    19  H    3.192000   4.465460   2.942225   3.908903   2.379975
                   16         17         18         19
    16  H    0.000000
    17  H    1.791979   0.000000
    18  H    2.472424   2.277198   0.000000
    19  H    2.285985   2.945309   1.669678   0.000000
 Stoichiometry    C5H13N
 Framework group  C1[X(C5H13N)]
 Deg. of freedom    51
 Full point group                 C1      NOp   1
 Largest Abelian subgroup         C1      NOp   1
 Largest concise Abelian subgroup C1      NOp   1
                         Standard orientation:                         
 ---------------------------------------------------------------------
 Center     Atomic      Atomic             Coordinates (Angstroms)
 Number     Number       Type             X           Y           Z
 ---------------------------------------------------------------------
      1          6           0       -1.601432   -0.651992   -0.743946
      2          6           0       -0.416001   -0.002715   -0.001481
      3          6           0       -0.518759   -0.345454    1.498933
      4          6           0       -0.492401    1.527034   -0.186889
      5          6           0        0.906409   -0.561579   -0.590837
      6          7           0        2.080946   -0.016077    0.090073
      7          1           0       -2.569376   -0.278295   -0.344843
      8          1           0       -1.581836   -1.757062   -0.625188
      9          1           0       -1.559552   -0.417360   -1.829641
     10          1           0       -0.456714   -1.444217    1.654437
     11          1           0        0.301733    0.135626    2.073077
     12          1           0       -1.484770    0.012147    1.916647
     13          1           0       -0.365455    1.798172   -1.257173
     14          1           0       -1.476412    1.913639    0.156491
     15          1           0        0.295307    2.041485    0.403280
     16          1           0        0.968368   -0.335702   -1.679972
     17          1           0        0.912881   -1.670041   -0.485128
     18          1           0        2.902833   -0.610233   -0.164928
     19          1           0        2.279473    0.932618   -0.302258
 ---------------------------------------------------------------------
 Rotational constants (GHZ):      4.3164891      2.5330496      2.5184953
 Leave Link  202 at Fri Aug 26 13:56:10 2022, MaxMem= 24159191040 cpu:         0.9
 (Enter /public/home/users/caep010/software/Gaussian09/g09/l301.exe)
 Standard basis: GTBas3 (6D, 7F)
 Ernie: Thresh=  0.10000D-02 Tol=  0.10000D-05 Strict=F.
 There are   251 symmetry adapted cartesian basis functions of A   symmetry.
 There are   233 symmetry adapted basis functions of A   symmetry.
   233 basis functions,   355 primitive gaussians,   251 cartesian basis functions
    25 alpha electrons       25 beta electrons
       nuclear repulsion energy       265.7797303274 Hartrees.
 IExCor=  402 DFT=T Ex+Corr=B3LYP ExCW=0 ScaHFX=  0.200000
 ScaDFX=  0.800000  0.720000  1.000000  0.810000 ScalE2=  1.000000  1.000000
 IRadAn=      0 IRanWt=     -1 IRanGd=            0 ICorTp=0 IEmpDi=  4
 NAtoms=   19 NActive=   19 NUniq=   19 SFac= 1.00D+00 NAtFMM=   60 NAOKFM=F Big=F
 Integral buffers will be    131072 words long.
 Raffenetti 2 integral format.
 Two-electron integral symmetry is turned on.
 Leave Link  301 at Fri Aug 26 13:56:11 2022, MaxMem= 24159191040 cpu:         2.0
 (Enter /public/home/users/caep010/software/Gaussian09/g09/l302.exe)
 NPDir=0 NMtPBC=     1 NCelOv=     1 NCel=       1 NClECP=     1 NCelD=      1
         NCelK=      1 NCelE2=     1 NClLst=     1 CellRange=     0.0.
 One-electron integrals computed using PRISM.
 NBasis=   233 RedAO= T EigKep=  5.10D-04  NBF=   233
 NBsUse=   233 1.00D-06 EigRej= -1.00D+00 NBFU=   233
 Precomputing XC quadrature grid using
 IXCGrd= 4 IRadAn=           0 IRanWt=          -1 IRanGd=           0 AccXCQ= 0.00D+00.
 Generated NRdTot=       0 NPtTot=           0 NUsed=           0 NTot=          32
 NSgBfM=   251   251   251   251   251 MxSgAt=    19 MxSgA2=    19.
 Leave Link  302 at Fri Aug 26 13:56:11 2022, MaxMem= 24159191040 cpu:        16.1
 (Enter /public/home/users/caep010/software/Gaussian09/g09/l303.exe)
 DipDrv:  MaxL=1.
 Leave Link  303 at Fri Aug 26 13:56:11 2022, MaxMem= 24159191040 cpu:         1.1
 (Enter /public/home/users/caep010/software/Gaussian09/g09/l401.exe)
 ExpMin= 1.61D-01 ExpMax= 4.17D+03 ExpMxC= 6.27D+02 IAcc=1 IRadAn=         1 AccDes= 0.00D+00
 Harris functional with IExCor=  402 and IRadAn=       1 diagonalized for initial guess.
 HarFok:  IExCor=  402 AccDes= 0.00D+00 IRadAn=         1 IDoV= 1 UseB2=F ITyADJ=14
 ICtDFT=  3500011 ScaDFX=  1.000000  1.000000  1.000000  1.000000
 FoFCou: FMM=F IPFlag=           0 FMFlag=      100000 FMFlg1=           0
         NFxFlg=           0 DoJE=T BraDBF=F KetDBF=T FulRan=T
         wScrn=  0.000000 ICntrl=     500 IOpCl=  0 I1Cent=   200000004 NGrid=           0
         NMat0=    1 NMatS0=      1 NMatT0=    0 NMatD0=    1 NMtDS0=    0 NMtDT0=    0
 Petite list used in FoFCou.
 Harris En= -253.186968697362    
 JPrj=0 DoOrth=F DoCkMO=F.
 Leave Link  401 at Fri Aug 26 13:56:12 2022, MaxMem= 24159191040 cpu:        15.3
 (Enter /public/home/users/caep010/software/Gaussian09/g09/l502.exe)
 Closed shell SCF:
 Using DIIS extrapolation, IDIIS=  1040.
 Integral symmetry usage will be decided dynamically.
 Keep R1 ints in memory in canonical form, NReq=379813506.
 IVT=      217437 IEndB=      217437 NGot= 24159191040 MDV= 23787378913
 LenX= 23787378913 LenY= 23787315471
 Requested convergence on RMS density matrix=1.00D-08 within 128 cycles.
 Requested convergence on MAX density matrix=1.00D-06.
 Requested convergence on             energy=1.00D-06.
 No special actions if energy rises.
 FoFCou: FMM=F IPFlag=           0 FMFlag=           0 FMFlg1=           0
         NFxFlg=           0 DoJE=F BraDBF=F KetDBF=F FulRan=T
         wScrn=  0.000000 ICntrl=     600 IOpCl=  0 I1Cent=           0 NGrid=           0
         NMat0=    1 NMatS0=  27261 NMatT0=    0 NMatD0=    1 NMtDS0=    0 NMtDT0=    0
 Symmetry not used in FoFCou.
 Integral accuracy reduced to 1.0D-05 until final iterations.

 Cycle   1  Pass 0  IDiag  1:
 E= -252.866840252241    
 DIIS: error= 2.48D-02 at cycle   1 NSaved=   1.
 NSaved= 1 IEnMin= 1 EnMin= -252.866840252241     IErMin= 1 ErrMin= 2.48D-02
 ErrMax= 2.48D-02  0.00D+00 EMaxC= 1.00D-01 BMatC= 2.49D-01 BMatP= 2.49D-01
 IDIUse=3 WtCom= 7.52D-01 WtEn= 2.48D-01
 Coeff-Com:  0.100D+01
 Coeff-En:   0.100D+01
 Coeff:      0.100D+01
 Gap=     0.222 Goal=   None    Shift=    0.000
 GapD=    0.222 DampG=1.000 DampE=0.500 DampFc=0.5000 IDamp=-1.
 Damping current iteration by 5.00D-01
 RMSDP=5.51D-03 MaxDP=1.64D-01              OVMax= 1.81D-01

 Cycle   2  Pass 0  IDiag  1:
 E= -252.974322542972     Delta-E=       -0.107482290731 Rises=F Damp=T
 DIIS: error= 9.98D-03 at cycle   2 NSaved=   2.
 NSaved= 2 IEnMin= 2 EnMin= -252.974322542972     IErMin= 2 ErrMin= 9.98D-03
 ErrMax= 9.98D-03  0.00D+00 EMaxC= 1.00D-01 BMatC= 1.45D-02 BMatP= 2.49D-01
 IDIUse=3 WtCom= 9.00D-01 WtEn= 9.98D-02
 Coeff-Com:  0.120D+00 0.880D+00
 Coeff-En:   0.205D+00 0.795D+00
 Coeff:      0.128D+00 0.872D+00
 Gap=     0.302 Goal=   None    Shift=    0.000
 RMSDP=1.12D-03 MaxDP=4.97D-02 DE=-1.07D-01 OVMax= 1.07D-01

 Cycle   3  Pass 0  IDiag  1:
 E= -253.130560897310     Delta-E=       -0.156238354339 Rises=F Damp=F
 DIIS: error= 3.63D-03 at cycle   3 NSaved=   3.
 NSaved= 3 IEnMin= 3 EnMin= -253.130560897310     IErMin= 3 ErrMin= 3.63D-03
 ErrMax= 3.63D-03  0.00D+00 EMaxC= 1.00D-01 BMatC= 2.73D-03 BMatP= 1.45D-02
 IDIUse=3 WtCom= 9.64D-01 WtEn= 3.63D-02
 Coeff-Com:  0.192D-01 0.266D+00 0.715D+00
 Coeff-En:   0.000D+00 0.000D+00 0.100D+01
 Coeff:      0.185D-01 0.256D+00 0.725D+00
 Gap=     0.293 Goal=   None    Shift=    0.000
 RMSDP=3.49D-04 MaxDP=1.32D-02 DE=-1.56D-01 OVMax= 1.57D-02

 Cycle   4  Pass 0  IDiag  1:
 E= -253.132154351125     Delta-E=       -0.001593453815 Rises=F Damp=F
 DIIS: error= 2.01D-03 at cycle   4 NSaved=   4.
 NSaved= 4 IEnMin= 4 EnMin= -253.132154351125     IErMin= 4 ErrMin= 2.01D-03
 ErrMax= 2.01D-03  0.00D+00 EMaxC= 1.00D-01 BMatC= 1.05D-03 BMatP= 2.73D-03
 IDIUse=3 WtCom= 9.80D-01 WtEn= 2.01D-02
 Coeff-Com: -0.172D-02 0.389D-01 0.388D+00 0.575D+00
 Coeff-En:   0.000D+00 0.000D+00 0.275D+00 0.725D+00
 Coeff:     -0.169D-02 0.381D-01 0.386D+00 0.578D+00
 Gap=     0.298 Goal=   None    Shift=    0.000
 RMSDP=1.45D-04 MaxDP=6.22D-03 DE=-1.59D-03 OVMax= 7.33D-03

 Cycle   5  Pass 0  IDiag  1:
 E= -253.133092120812     Delta-E=       -0.000937769687 Rises=F Damp=F
 DIIS: error= 2.33D-04 at cycle   5 NSaved=   5.
 NSaved= 5 IEnMin= 5 EnMin= -253.133092120812     IErMin= 5 ErrMin= 2.33D-04
 ErrMax= 2.33D-04  0.00D+00 EMaxC= 1.00D-01 BMatC= 1.53D-05 BMatP= 1.05D-03
 IDIUse=3 WtCom= 9.98D-01 WtEn= 2.33D-03
 Coeff-Com: -0.781D-03 0.771D-03 0.973D-01 0.195D+00 0.707D+00
 Coeff-En:   0.000D+00 0.000D+00 0.000D+00 0.000D+00 0.100D+01
 Coeff:     -0.780D-03 0.769D-03 0.971D-01 0.195D+00 0.708D+00
 Gap=     0.298 Goal=   None    Shift=    0.000
 RMSDP=1.66D-05 MaxDP=6.00D-04 DE=-9.38D-04 OVMax= 8.22D-04

 Cycle   6  Pass 0  IDiag  1:
 E= -253.133105091313     Delta-E=       -0.000012970501 Rises=F Damp=F
 DIIS: error= 6.16D-05 at cycle   6 NSaved=   6.
 NSaved= 6 IEnMin= 6 EnMin= -253.133105091313     IErMin= 6 ErrMin= 6.16D-05
 ErrMax= 6.16D-05  0.00D+00 EMaxC= 1.00D-01 BMatC= 7.84D-07 BMatP= 1.53D-05
 IDIUse=1 WtCom= 1.00D+00 WtEn= 0.00D+00
 Coeff-Com: -0.221D-03-0.709D-03 0.351D-01 0.745D-01 0.314D+00 0.577D+00
 Coeff:     -0.221D-03-0.709D-03 0.351D-01 0.745D-01 0.314D+00 0.577D+00
 Gap=     0.298 Goal=   None    Shift=    0.000
 RMSDP=5.05D-06 MaxDP=2.59D-04 DE=-1.30D-05 OVMax= 2.25D-04

 Initial convergence to 1.0D-05 achieved.  Increase integral accuracy.
 Cycle   7  Pass 1  IDiag  1:
 E= -253.133139930865     Delta-E=       -0.000034839552 Rises=F Damp=F
 DIIS: error= 2.15D-05 at cycle   1 NSaved=   1.
 NSaved= 1 IEnMin= 1 EnMin= -253.133139930865     IErMin= 1 ErrMin= 2.15D-05
 ErrMax= 2.15D-05  0.00D+00 EMaxC= 1.00D-01 BMatC= 1.75D-07 BMatP= 1.75D-07
 IDIUse=1 WtCom= 1.00D+00 WtEn= 0.00D+00
 Coeff-Com:  0.100D+01
 Coeff:      0.100D+01
 Gap=     0.298 Goal=   None    Shift=    0.000
 RMSDP=5.05D-06 MaxDP=2.59D-04 DE=-3.48D-05 OVMax= 1.31D-04

 Cycle   8  Pass 1  IDiag  1:
 E= -253.133139920509     Delta-E=        0.000000010356 Rises=F Damp=F
 DIIS: error= 3.24D-05 at cycle   2 NSaved=   2.
 NSaved= 2 IEnMin= 1 EnMin= -253.133139930865     IErMin= 1 ErrMin= 2.15D-05
 ErrMax= 3.24D-05  0.00D+00 EMaxC= 1.00D-01 BMatC= 1.83D-07 BMatP= 1.75D-07
 IDIUse=1 WtCom= 1.00D+00 WtEn= 0.00D+00
 Coeff-Com:  0.507D+00 0.493D+00
 Coeff:      0.507D+00 0.493D+00
 Gap=     0.298 Goal=   None    Shift=    0.000
 RMSDP=2.35D-06 MaxDP=1.28D-04 DE= 1.04D-08 OVMax= 9.32D-05

 Cycle   9  Pass 1  IDiag  1:
 E= -253.133140085120     Delta-E=       -0.000000164611 Rises=F Damp=F
 DIIS: error= 6.36D-06 at cycle   3 NSaved=   3.
 NSaved= 3 IEnMin= 3 EnMin= -253.133140085120     IErMin= 3 ErrMin= 6.36D-06
 ErrMax= 6.36D-06  0.00D+00 EMaxC= 1.00D-01 BMatC= 8.74D-09 BMatP= 1.75D-07
 IDIUse=1 WtCom= 1.00D+00 WtEn= 0.00D+00
 Coeff-Com: -0.598D-02 0.173D+00 0.833D+00
 Coeff:     -0.598D-02 0.173D+00 0.833D+00
 Gap=     0.298 Goal=   None    Shift=    0.000
 RMSDP=4.30D-07 MaxDP=2.01D-05 DE=-1.65D-07 OVMax= 2.10D-05

 Cycle  10  Pass 1  IDiag  1:
 E= -253.133140092814     Delta-E=       -0.000000007694 Rises=F Damp=F
 DIIS: error= 1.21D-06 at cycle   4 NSaved=   4.
 NSaved= 4 IEnMin= 4 EnMin= -253.133140092814     IErMin= 4 ErrMin= 1.21D-06
 ErrMax= 1.21D-06  0.00D+00 EMaxC= 1.00D-01 BMatC= 3.85D-10 BMatP= 8.74D-09
 IDIUse=1 WtCom= 1.00D+00 WtEn= 0.00D+00
 Coeff-Com: -0.118D-01 0.738D-01 0.395D+00 0.543D+00
 Coeff:     -0.118D-01 0.738D-01 0.395D+00 0.543D+00
 Gap=     0.298 Goal=   None    Shift=    0.000
 RMSDP=8.41D-08 MaxDP=4.35D-06 DE=-7.69D-09 OVMax= 4.08D-06

 Cycle  11  Pass 1  IDiag  1:
 E= -253.133140093137     Delta-E=       -0.000000000324 Rises=F Damp=F
 DIIS: error= 2.78D-07 at cycle   5 NSaved=   5.
 NSaved= 5 IEnMin= 5 EnMin= -253.133140093137     IErMin= 5 ErrMin= 2.78D-07
 ErrMax= 2.78D-07  0.00D+00 EMaxC= 1.00D-01 BMatC= 2.17D-11 BMatP= 3.85D-10
 IDIUse=1 WtCom= 1.00D+00 WtEn= 0.00D+00
 Coeff-Com: -0.515D-02 0.247D-01 0.137D+00 0.258D+00 0.585D+00
 Coeff:     -0.515D-02 0.247D-01 0.137D+00 0.258D+00 0.585D+00
 Gap=     0.298 Goal=   None    Shift=    0.000
 RMSDP=2.09D-08 MaxDP=8.13D-07 DE=-3.24D-10 OVMax= 8.47D-07

 Cycle  12  Pass 1  IDiag  1:
 E= -253.133140093160     Delta-E=       -0.000000000022 Rises=F Damp=F
 DIIS: error= 3.90D-08 at cycle   6 NSaved=   6.
 NSaved= 6 IEnMin= 6 EnMin= -253.133140093160     IErMin= 6 ErrMin= 3.90D-08
 ErrMax= 3.90D-08  0.00D+00 EMaxC= 1.00D-01 BMatC= 5.69D-13 BMatP= 2.17D-11
 IDIUse=1 WtCom= 1.00D+00 WtEn= 0.00D+00
 Coeff-Com: -0.506D-03 0.107D-02 0.688D-02 0.271D-01 0.163D+00 0.802D+00
 Coeff:     -0.506D-03 0.107D-02 0.688D-02 0.271D-01 0.163D+00 0.802D+00
 Gap=     0.298 Goal=   None    Shift=    0.000
 RMSDP=4.86D-09 MaxDP=1.35D-07 DE=-2.23D-11 OVMax= 2.00D-07

 SCF Done:  E(RB3LYP) =  -253.133140093     A.U. after   12 cycles
            NFock= 12  Conv=0.49D-08     -V/T= 2.0101
 KE= 2.506077424925D+02 PE=-1.117442184637D+03 EE= 3.479215717236D+02
 Leave Link  502 at Fri Aug 26 13:56:22 2022, MaxMem= 24159191040 cpu:       108.8
 (Enter /public/home/users/caep010/software/Gaussian09/g09/l601.exe)
 Copying SCF densities to generalized density rwf, IOpCl= 0 IROHF=0.

 **********************************************************************

            Population analysis using the SCF density.

 **********************************************************************

 Orbital symmetries:
       Occupied  (A) (A) (A) (A) (A) (A) (A) (A) (A) (A) (A) (A)
                 (A) (A) (A) (A) (A) (A) (A) (A) (A) (A) (A) (A)
                 (A)
       Virtual   (A) (A) (A) (A) (A) (A) (A) (A) (A) (A) (A) (A)
                 (A) (A) (A) (A) (A) (A) (A) (A) (A) (A) (A) (A)
                 (A) (A) (A) (A) (A) (A) (A) (A) (A) (A) (A) (A)
                 (A) (A) (A) (A) (A) (A) (A) (A) (A) (A) (A) (A)
                 (A) (A) (A) (A) (A) (A) (A) (A) (A) (A) (A) (A)
                 (A) (A) (A) (A) (A) (A) (A) (A) (A) (A) (A) (A)
                 (A) (A) (A) (A) (A) (A) (A) (A) (A) (A) (A) (A)
                 (A) (A) (A) (A) (A) (A) (A) (A) (A) (A) (A) (A)
                 (A) (A) (A) (A) (A) (A) (A) (A) (A) (A) (A) (A)
                 (A) (A) (A) (A) (A) (A) (A) (A) (A) (A) (A) (A)
                 (A) (A) (A) (A) (A) (A) (A) (A) (A) (A) (A) (A)
                 (A) (A) (A) (A) (A) (A) (A) (A) (A) (A) (A) (A)
                 (A) (A) (A) (A) (A) (A) (A) (A) (A) (A) (A) (A)
                 (A) (A) (A) (A) (A) (A) (A) (A) (A) (A) (A) (A)
                 (A) (A) (A) (A) (A) (A) (A) (A) (A) (A) (A) (A)
                 (A) (A) (A) (A) (A) (A) (A) (A) (A) (A) (A) (A)
                 (A) (A) (A) (A) (A) (A) (A) (A) (A) (A) (A) (A)
                 (A) (A) (A) (A)
 The electronic state is 1-A.
 Alpha  occ. eigenvalues --  -14.30915 -10.20022 -10.18692 -10.17125 -10.17037
 Alpha  occ. eigenvalues --  -10.16249  -0.87323  -0.79349  -0.67360  -0.66750
 Alpha  occ. eigenvalues --   -0.64268  -0.52136  -0.47819  -0.45025  -0.43826
 Alpha  occ. eigenvalues --   -0.42120  -0.40398  -0.38086  -0.36572  -0.35444
 Alpha  occ. eigenvalues --   -0.35099  -0.31680  -0.31199  -0.30985  -0.23148
 Alpha virt. eigenvalues --    0.06636   0.09911   0.12072   0.13508   0.13935
 Alpha virt. eigenvalues --    0.15366   0.16044   0.16698   0.18533   0.19061
 Alpha virt. eigenvalues --    0.19877   0.21611   0.22047   0.22468   0.24351
 Alpha virt. eigenvalues --    0.25249   0.25828   0.27119   0.45285   0.46367
 Alpha virt. eigenvalues --    0.47235   0.47336   0.48367   0.53003   0.55370
 Alpha virt. eigenvalues --    0.57250   0.58340   0.61678   0.63444   0.65787
 Alpha virt. eigenvalues --    0.66618   0.67120   0.69801   0.71830   0.72287
 Alpha virt. eigenvalues --    0.72855   0.73667   0.73942   0.75039   0.75756
 Alpha virt. eigenvalues --    0.76000   0.77397   0.80217   0.81336   0.82514
 Alpha virt. eigenvalues --    0.84289   0.86500   0.88740   0.89377   0.89635
 Alpha virt. eigenvalues --    0.91634   0.92740   1.03865   1.11887   1.12124
 Alpha virt. eigenvalues --    1.12683   1.25722   1.28590   1.30488   1.33389
 Alpha virt. eigenvalues --    1.37016   1.39470   1.40112   1.41125   1.41649
 Alpha virt. eigenvalues --    1.43812   1.44736   1.48494   1.50460   1.55871
 Alpha virt. eigenvalues --    1.56918   1.63190   1.63755   1.64220   1.70653
 Alpha virt. eigenvalues --    1.75323   1.80353   1.81370   1.83009   1.84720
 Alpha virt. eigenvalues --    1.86188   1.89577   1.92030   1.94353   1.95819
 Alpha virt. eigenvalues --    1.96685   1.98180   2.06747   2.18933   2.23291
 Alpha virt. eigenvalues --    2.28052   2.28872   2.29513   2.30132   2.30998
 Alpha virt. eigenvalues --    2.31551   2.37590   2.39640   2.45622   2.48013
 Alpha virt. eigenvalues --    2.49344   2.53375   2.63722   2.68180   2.68524
 Alpha virt. eigenvalues --    2.70708   2.75982   2.77781   2.81079   2.82854
 Alpha virt. eigenvalues --    2.84196   2.85599   2.87955   2.88264   2.90008
 Alpha virt. eigenvalues --    2.91074   2.92540   2.93377   2.95006   2.96758
 Alpha virt. eigenvalues --    2.97922   2.98956   2.99660   3.00907   3.04869
 Alpha virt. eigenvalues --    3.09029   3.10928   3.13944   3.20704   3.34213
 Alpha virt. eigenvalues --    3.37210   3.38280   3.40628   3.42482   3.43849
 Alpha virt. eigenvalues --    3.46824   3.49107   3.56251   3.59288   3.60807
 Alpha virt. eigenvalues --    3.63401   3.64168   3.64500   3.67544   3.69863
 Alpha virt. eigenvalues --    3.75871   3.77244   3.81547   3.81928   3.93743
 Alpha virt. eigenvalues --    3.98868   4.02870   4.05817   4.11807   4.18195
 Alpha virt. eigenvalues --    4.21084   4.22414   4.23282   4.26089   4.28698
 Alpha virt. eigenvalues --    4.33108   4.38626   4.40805   4.44986   4.45651
 Alpha virt. eigenvalues --    4.46753   4.49063   4.52558   4.55460   4.57628
 Alpha virt. eigenvalues --    4.62279   4.65805   4.68072   4.68705   4.69346
 Alpha virt. eigenvalues --    4.71966   4.73252   4.74237   4.75753   4.77203
 Alpha virt. eigenvalues --    4.79468   4.80558   4.81372   4.86708   4.88338
 Alpha virt. eigenvalues --    4.91446   4.91891   4.93911   4.95134   4.97698
 Alpha virt. eigenvalues --    5.11955   5.14584   5.17863   5.35998   5.46874
 Alpha virt. eigenvalues --    5.47969   5.49130   5.57763   5.61621   5.66096
 Alpha virt. eigenvalues --    5.73061   9.90102  11.32748  11.49776  11.93572
 Alpha virt. eigenvalues --   11.96208  12.49821  12.80391
          Condensed to atoms (all electrons):
               1          2          3          4          5          6
     1  C    5.093347   0.383125  -0.049172  -0.051329  -0.044385   0.002399
     2  C    0.383125   4.387163   0.403590   0.408991   0.393024  -0.043146
     3  C   -0.049172   0.403590   5.059388  -0.053602  -0.042598  -0.006932
     4  C   -0.051329   0.408991  -0.053602   5.080377  -0.045494  -0.006211
     5  C   -0.044385   0.393024  -0.042598  -0.045494   4.910678   0.384603
     6  N    0.002399  -0.043146  -0.006932  -0.006211   0.384603   6.569074
     7  H    0.363596  -0.015755  -0.004818  -0.005010   0.004305  -0.000082
     8  H    0.361771  -0.019438  -0.004711   0.005543  -0.005276   0.000088
     9  H    0.360358  -0.020460   0.005746  -0.005051  -0.004626   0.000056
    10  H   -0.004140  -0.021418   0.361283   0.005255  -0.004890   0.000322
    11  H    0.005473  -0.018814   0.363720  -0.005235  -0.003886   0.011819
    12  H   -0.006249  -0.021974   0.363447  -0.004638   0.004832   0.000265
    13  H   -0.003719  -0.021044   0.005377   0.358422  -0.005043  -0.000285
    14  H   -0.007128  -0.019492  -0.003561   0.367553   0.004641   0.000046
    15  H    0.005550  -0.019336  -0.005638   0.360962  -0.003421   0.003973
    16  H   -0.000121  -0.044655   0.006724  -0.009968   0.368481  -0.044545
    17  H   -0.004539  -0.017566  -0.007814   0.005716   0.348556  -0.021647
    18  H   -0.000272   0.005431   0.000270   0.000236  -0.044243   0.331668
    19  H   -0.000172  -0.000524   0.000111   0.004307  -0.051204   0.331525
               7          8          9         10         11         12
     1  C    0.363596   0.361771   0.360358  -0.004140   0.005473  -0.006249
     2  C   -0.015755  -0.019438  -0.020460  -0.021418  -0.018814  -0.021974
     3  C   -0.004818  -0.004711   0.005746   0.361283   0.363720   0.363447
     4  C   -0.005010   0.005543  -0.005051   0.005255  -0.005235  -0.004638
     5  C    0.004305  -0.005276  -0.004626  -0.004890  -0.003886   0.004832
     6  N   -0.000082   0.000088   0.000056   0.000322   0.011819   0.000265
     7  H    0.604307  -0.030942  -0.031325  -0.000021  -0.000059   0.004144
     8  H   -0.030942   0.611273  -0.031093   0.003951  -0.000059   0.000005
     9  H   -0.031325  -0.031093   0.614775  -0.000070  -0.000190  -0.000018
    10  H   -0.000021   0.003951  -0.000070   0.616436  -0.028516  -0.031453
    11  H   -0.000059  -0.000059  -0.000190  -0.028516   0.576978  -0.031614
    12  H    0.004144   0.000005  -0.000018  -0.031453  -0.031614   0.621372
    13  H   -0.000071  -0.000093   0.003863  -0.000208  -0.000008  -0.000068
    14  H    0.004492  -0.000023   0.000009  -0.000081  -0.000178   0.003429
    15  H   -0.000060  -0.000204  -0.000055  -0.000026   0.004523   0.000016
    16  H   -0.000135  -0.000139   0.005256  -0.000041   0.000244  -0.000150
    17  H   -0.000139   0.004702  -0.000175   0.004369  -0.000012  -0.000079
    18  H    0.000003  -0.000003  -0.000003  -0.000059  -0.000366   0.000003
    19  H    0.000003   0.000001  -0.000010  -0.000000  -0.000468  -0.000022
              13         14         15         16         17         18
     1  C   -0.003719  -0.007128   0.005550  -0.000121  -0.004539  -0.000272
     2  C   -0.021044  -0.019492  -0.019336  -0.044655  -0.017566   0.005431
     3  C    0.005377  -0.003561  -0.005638   0.006724  -0.007814   0.000270
     4  C    0.358422   0.367553   0.360962  -0.009968   0.005716   0.000236
     5  C   -0.005043   0.004641  -0.003421   0.368481   0.348556  -0.044243
     6  N   -0.000285   0.000046   0.003973  -0.044545  -0.021647   0.331668
     7  H   -0.000071   0.004492  -0.000060  -0.000135  -0.000139   0.000003
     8  H   -0.000093  -0.000023  -0.000204  -0.000139   0.004702  -0.000003
     9  H    0.003863   0.000009  -0.000055   0.005256  -0.000175  -0.000003
    10  H   -0.000208  -0.000081  -0.000026  -0.000041   0.004369  -0.000059
    11  H   -0.000008  -0.000178   0.004523   0.000244  -0.000012  -0.000366
    12  H   -0.000068   0.003429   0.000016  -0.000150  -0.000079   0.000003
    13  H    0.618642  -0.030426  -0.031691   0.005119  -0.000056  -0.000038
    14  H   -0.030426   0.602040  -0.030773  -0.000086  -0.000171   0.000002
    15  H   -0.031691  -0.030773   0.601491   0.000560  -0.000052  -0.000173
    16  H    0.005119  -0.000086   0.000560   0.695282  -0.042581  -0.001405
    17  H   -0.000056  -0.000171  -0.000052  -0.042581   0.639331  -0.007899
    18  H   -0.000038   0.000002  -0.000173  -0.001405  -0.007899   0.521428
    19  H    0.000561  -0.000121   0.000360  -0.010319   0.006266  -0.029147
              19
     1  C   -0.000172
     2  C   -0.000524
     3  C    0.000111
     4  C    0.004307
     5  C   -0.051204
     6  N    0.331525
     7  H    0.000003
     8  H    0.000001
     9  H   -0.000010
    10  H   -0.000000
    11  H   -0.000468
    12  H   -0.000022
    13  H    0.000561
    14  H   -0.000121
    15  H    0.000360
    16  H   -0.010319
    17  H    0.006266
    18  H   -0.029147
    19  H    0.523438
 Mulliken charges:
               1
     1  C   -0.404393
     2  C    0.302298
     3  C   -0.390811
     4  C   -0.410824
     5  C   -0.164054
     6  N   -0.512990
     7  H    0.107566
     8  H    0.104649
     9  H    0.103011
    10  H    0.099306
    11  H    0.126647
    12  H    0.098750
    13  H    0.100768
    14  H    0.109829
    15  H    0.113995
    16  H    0.072479
    17  H    0.093790
    18  H    0.224567
    19  H    0.225416
 Sum of Mulliken charges =  -0.00000
 Mulliken charges with hydrogens summed into heavy atoms:
               1
     1  C   -0.089166
     2  C    0.302298
     3  C   -0.066108
     4  C   -0.086231
     5  C    0.002215
     6  N   -0.063007
 Electronic spatial extent (au):  <R**2>=            678.7303
 Charge=             -0.0000 electrons
 Dipole moment (field-independent basis, Debye):
    X=              0.5312    Y=              0.0175    Z=             -1.1475  Tot=              1.2646
 Quadrupole moment (field-independent basis, Debye-Ang):
   XX=            -38.3248   YY=            -39.6025   ZZ=            -42.2419
   XY=             -0.3632   XZ=             -2.9249   YZ=             -0.1054
 Traceless Quadrupole moment (field-independent basis, Debye-Ang):
   XX=              1.7316   YY=              0.4539   ZZ=             -2.1855
   XY=             -0.3632   XZ=             -2.9249   YZ=             -0.1054
 Octapole moment (field-independent basis, Debye-Ang**2):
  XXX=             17.0079  YYY=             -2.7574  ZZZ=             -2.5570  XYY=              5.8990
  XXY=              0.4725  XXZ=             -4.8035  XZZ=              0.7841  YZZ=              1.5992
  YYZ=              0.3886  XYZ=             -0.3368
 Hexadecapole moment (field-independent basis, Debye-Ang**3):
 XXXX=           -402.5417 YYYY=           -236.7149 ZZZZ=           -236.8704 XXXY=            -10.5380
 XXXZ=            -19.6085 YYYX=              2.0062 YYYZ=             -0.0577 ZZZX=             -0.1661
 ZZZY=             -0.4334 XXYY=           -106.1541 XXZZ=           -119.4282 YYZZ=            -79.6700
 XXYZ=             -0.0549 YYXZ=             -1.7507 ZZXY=             -0.1778
 N-N= 2.657797303274D+02 E-N=-1.117442195639D+03  KE= 2.506077424925D+02
 No NMR shielding tensors so no spin-rotation constants.
 Leave Link  601 at Fri Aug 26 13:56:23 2022, MaxMem= 24159191040 cpu:        13.6
 (Enter /public/home/users/caep010/software/Gaussian09/g09/l701.exe)
 Compute integral first derivatives.
 ... and contract with generalized density number  0.
 Leave Link  701 at Fri Aug 26 13:56:23 2022, MaxMem= 24159191040 cpu:        14.0
 (Enter /public/home/users/caep010/software/Gaussian09/g09/l702.exe)
 L702 exits ... SP integral derivatives will be done elsewhere.
 Leave Link  702 at Fri Aug 26 13:56:23 2022, MaxMem= 24159191040 cpu:         0.5
 (Enter /public/home/users/caep010/software/Gaussian09/g09/l703.exe)
 Compute integral first derivatives, UseDBF=F ICtDFT=           0.
 Integral derivatives from FoFJK, PRISM(SPDF).
 Calling FoFJK, ICntrl=      2127 FMM=F ISym2X=0 I1Cent= 0 IOpClX= 0 NMat=1 NMatS=1 NMatT=0.
 FoFJK:  IHMeth= 1 ICntrl=    2127 DoSepK=F KAlg= 0 I1Cent=   0 FoldK=F
 IRaf=         0 NMat=   1 IRICut=       1 DoRegI=T DoRafI=F ISym2E= 0.
 FoFCou: FMM=F IPFlag=           0 FMFlag=      100000 FMFlg1=         800
         NFxFlg=           0 DoJE=F BraDBF=F KetDBF=F FulRan=T
         wScrn=  0.000000 ICntrl=    2127 IOpCl=  0 I1Cent=           0 NGrid=           0
         NMat0=    1 NMatS0=      1 NMatT0=    0 NMatD0=    1 NMtDS0=    0 NMtDT0=    0
 Symmetry not used in FoFCou.
 Leave Link  703 at Fri Aug 26 13:56:25 2022, MaxMem= 24159191040 cpu:        57.1
 (Enter /public/home/users/caep010/software/Gaussian09/g09/l716.exe)
 Dipole        = 2.08988188D-01 6.89541912D-03-4.51457546D-01
 ***** Axes restored to original set *****
 -------------------------------------------------------------------
 Center     Atomic                   Forces (Hartrees/Bohr)
 Number     Number              X              Y              Z
 -------------------------------------------------------------------
      1        6           0.000593711   -0.001197061    0.005999129
      2        6          -0.002759392    0.001318915    0.003014297
      3        6          -0.001592191    0.005271397   -0.005941609
      4        6          -0.000446243   -0.004144613   -0.004297405
      5        6           0.001298505   -0.003798831    0.005936401
      6        7           0.022491043   -0.008728723   -0.011574470
      7        1           0.010583914   -0.000053071   -0.000016282
      8        1          -0.003968888   -0.008047118   -0.003959648
      9        1          -0.004042557    0.008498276   -0.002256408
     10        1          -0.004461877   -0.006977254   -0.005323247
     11        1          -0.001350115   -0.000012548    0.011683278
     12        1           0.009866479    0.000361925    0.000083459
     13        1          -0.005037653    0.006794112   -0.003774736
     14        1           0.010354463   -0.000319872   -0.001409634
     15        1          -0.002196001   -0.001684879    0.009431810
     16        1          -0.006621659    0.006332559    0.004551171
     17        1          -0.004041470   -0.007312967   -0.006473855
     18        1          -0.021524528   -0.007576321   -0.004338018
     19        1           0.002854458    0.021276075    0.008665768
 -------------------------------------------------------------------
 Cartesian Forces:  Max     0.022491043 RMS     0.007425870
 Leave Link  716 at Fri Aug 26 13:56:25 2022, MaxMem= 24159191040 cpu:         0.7
 (Enter /public/home/users/caep010/software/Gaussian09/g09/l103.exe)

 GradGradGradGradGradGradGradGradGradGradGradGradGradGradGradGradGradGrad
 Berny optimization.
 FormGI is forming the generalized inverse of G from B-inverse, IUseBI=4.
 Internal  Forces:  Max     0.023007462 RMS     0.005108512
 Search for a local minimum.
 Step number   1 out of a maximum of  103
 All quantities printed in internal units (Hartrees-Bohrs-Radians)
 RMS Force = .51085D-02 SwitMx=.10000D-02 MixMth= 1
 Mixed Optimization -- RFO/linear search
 Second derivative matrix not updated -- first step.
 ITU=  0
     Eigenvalues ---    0.00230   0.00230   0.00230   0.00230   0.00857
     Eigenvalues ---    0.04172   0.04480   0.04817   0.04827   0.04912
     Eigenvalues ---    0.05398   0.05442   0.05467   0.05481   0.05490
     Eigenvalues ---    0.05501   0.05507   0.09334   0.12785   0.14308
     Eigenvalues ---    0.14454   0.16000   0.16000   0.16000   0.16000
     Eigenvalues ---    0.16000   0.16000   0.16000   0.16000   0.16000
     Eigenvalues ---    0.16000   0.16000   0.21944   0.27489   0.28269
     Eigenvalues ---    0.28300   0.28334   0.32177   0.32231   0.32422
     Eigenvalues ---    0.32431   0.32431   0.32437   0.32437   0.32447
     Eigenvalues ---    0.32456   0.32496   0.32536   0.36575   0.40474
     Eigenvalues ---    0.40487
 RFO step:  Lambda=-8.13446430D-03 EMin= 2.30000000D-03
 Linear search not attempted -- first point.
 Iteration  1 RMS(Cart)=  0.02767575 RMS(Int)=  0.00067395
 Iteration  2 RMS(Cart)=  0.00067316 RMS(Int)=  0.00020754
 Iteration  3 RMS(Cart)=  0.00000018 RMS(Int)=  0.00020754
 ITry= 1 IFail=0 DXMaxC= 1.16D-01 DCOld= 1.00D+10 DXMaxT= 3.00D-01 DXLimC= 3.00D+00 Rises=F
 Variable       Old X    -DE/DX   Delta X   Delta X   Delta X     New X
                                 (Linear)    (Quad)   (Total)
    R1        2.91414  -0.00107   0.00000  -0.00366  -0.00366   2.91048
    R2        2.10078  -0.01055   0.00000  -0.03174  -0.03174   2.06905
    R3        2.10063  -0.00971   0.00000  -0.02921  -0.02921   2.07142
    R4        2.10052  -0.00950   0.00000  -0.02856  -0.02856   2.07196
    R5        2.91488  -0.00225   0.00000  -0.00772  -0.00772   2.90717
    R6        2.91554  -0.00146   0.00000  -0.00501  -0.00501   2.91053
    R7        2.93269  -0.00540   0.00000  -0.01909  -0.01909   2.91360
    R8        2.10033  -0.00975   0.00000  -0.02932  -0.02932   2.07101
    R9        2.09946  -0.01162   0.00000  -0.03490  -0.03490   2.06456
   R10        2.10052  -0.00983   0.00000  -0.02956  -0.02956   2.07096
   R11        2.10018  -0.00908   0.00000  -0.02728  -0.02728   2.07290
   R12        2.10062  -0.01042   0.00000  -0.03134  -0.03134   2.06928
   R13        2.09874  -0.00977   0.00000  -0.02930  -0.02930   2.06944
   R14        2.76491   0.00852   0.00000   0.02280   0.02280   2.78771
   R15        2.10522  -0.00589   0.00000  -0.01784  -0.01784   2.08738
   R16        2.10423  -0.01050   0.00000  -0.03179  -0.03179   2.07244
   R17        1.97614  -0.02290   0.00000  -0.05547  -0.05547   1.92067
   R18        1.97597  -0.02301   0.00000  -0.05571  -0.05571   1.92026
    A1        1.93364   0.00034   0.00000   0.00133   0.00132   1.93496
    A2        1.93218   0.00150   0.00000   0.00898   0.00894   1.94112
    A3        1.93096   0.00225   0.00000   0.01398   0.01393   1.94489
    A4        1.88722  -0.00111   0.00000  -0.00781  -0.00781   1.87941
    A5        1.88862  -0.00137   0.00000  -0.00832  -0.00834   1.88029
    A6        1.88970  -0.00178   0.00000  -0.00925  -0.00933   1.88037
    A7        1.90029   0.00073   0.00000   0.01301   0.01291   1.91321
    A8        1.89815   0.00065   0.00000   0.00977   0.00962   1.90778
    A9        1.89713  -0.00056   0.00000  -0.00770  -0.00763   1.88949
   A10        1.91125   0.00024   0.00000   0.00563   0.00544   1.91668
   A11        1.92426  -0.00031   0.00000  -0.00742  -0.00738   1.91689
   A12        1.93223  -0.00071   0.00000  -0.01271  -0.01268   1.91956
   A13        1.93055   0.00153   0.00000   0.00640   0.00640   1.93694
   A14        1.93615   0.00003   0.00000   0.00139   0.00138   1.93753
   A15        1.93045   0.00000   0.00000   0.00153   0.00152   1.93197
   A16        1.89078  -0.00119   0.00000  -0.00998  -0.00997   1.88080
   A17        1.89018  -0.00110   0.00000  -0.00888  -0.00887   1.88130
   A18        1.88422   0.00065   0.00000   0.00912   0.00909   1.89331
   A19        1.93047   0.00210   0.00000   0.01266   0.01262   1.94310
   A20        1.93003   0.00058   0.00000   0.00228   0.00228   1.93231
   A21        1.93939   0.00091   0.00000   0.00639   0.00635   1.94575
   A22        1.88994  -0.00163   0.00000  -0.01151  -0.01152   1.87842
   A23        1.89413  -0.00132   0.00000  -0.00569  -0.00576   1.88836
   A24        1.87821  -0.00082   0.00000  -0.00521  -0.00522   1.87300
   A25        1.95309   0.00190   0.00000   0.01255   0.01232   1.96541
   A26        1.92373  -0.00551   0.00000  -0.03286  -0.03395   1.88977
   A27        1.90433  -0.00024   0.00000  -0.01785  -0.01817   1.88616
   A28        1.91212   0.00606   0.00000   0.06905   0.06931   1.98143
   A29        1.89895  -0.00223   0.00000  -0.01974  -0.01954   1.87941
   A30        1.86954  -0.00007   0.00000  -0.01264  -0.01320   1.85634
   A31        1.88137   0.00492   0.00000   0.02881   0.02870   1.91007
   A32        1.89238   0.00287   0.00000   0.01664   0.01653   1.90890
   A33        1.84916  -0.00350   0.00000  -0.02181  -0.02207   1.82709
    D1        1.04056   0.00043   0.00000   0.01085   0.01088   1.05145
    D2       -1.04095  -0.00066   0.00000  -0.00919  -0.00923  -1.05019
    D3        3.13721   0.00015   0.00000   0.00498   0.00498  -3.14100
    D4       -1.05306   0.00062   0.00000   0.01388   0.01394  -1.03912
    D5       -3.13458  -0.00046   0.00000  -0.00616  -0.00618  -3.14075
    D6        1.04358   0.00035   0.00000   0.00802   0.00804   1.05162
    D7        3.13515   0.00041   0.00000   0.01045   0.01048  -3.13756
    D8        1.05363  -0.00068   0.00000  -0.00958  -0.00964   1.04399
    D9       -1.05140   0.00013   0.00000   0.00459   0.00458  -1.04682
   D10        1.07687  -0.00081   0.00000  -0.03296  -0.03298   1.04389
   D11       -3.10766  -0.00128   0.00000  -0.04035  -0.04038   3.13515
   D12       -1.01730  -0.00044   0.00000  -0.02701  -0.02703  -1.04433
   D13       -3.13298   0.00054   0.00000  -0.01012  -0.01010   3.14010
   D14       -1.03433   0.00008   0.00000  -0.01751  -0.01750  -1.05183
   D15        1.05603   0.00092   0.00000  -0.00418  -0.00415   1.05188
   D16       -1.00291  -0.00039   0.00000  -0.02709  -0.02709  -1.03000
   D17        1.09574  -0.00085   0.00000  -0.03448  -0.03449   1.06125
   D18       -3.09709  -0.00001   0.00000  -0.02115  -0.02114  -3.11823
   D19       -1.11979   0.00107   0.00000   0.02979   0.02983  -1.08997
   D20        0.97376   0.00077   0.00000   0.02510   0.02512   0.99888
   D21        3.05842   0.00072   0.00000   0.02422   0.02422   3.08265
   D22        3.08874  -0.00033   0.00000   0.00497   0.00498   3.09371
   D23       -1.10090  -0.00063   0.00000   0.00029   0.00028  -1.10062
   D24        0.98377  -0.00068   0.00000  -0.00059  -0.00062   0.98314
   D25        0.96345   0.00036   0.00000   0.01879   0.01879   0.98224
   D26        3.05699   0.00006   0.00000   0.01410   0.01409   3.07109
   D27       -1.14152   0.00001   0.00000   0.01322   0.01319  -1.12833
   D28       -3.11523   0.00187   0.00000   0.00171   0.00152  -3.11371
   D29        1.03551  -0.00329   0.00000  -0.07200  -0.07153   0.96398
   D30       -1.01280   0.00014   0.00000  -0.02698  -0.02722  -1.04002
   D31       -1.03352   0.00223   0.00000   0.00846   0.00824  -1.02528
   D32        3.11722  -0.00293   0.00000  -0.06525  -0.06481   3.05241
   D33        1.06890   0.00049   0.00000  -0.02023  -0.02049   1.04841
   D34        1.08410   0.00185   0.00000   0.00217   0.00197   1.08607
   D35       -1.04834  -0.00330   0.00000  -0.07153  -0.07108  -1.11943
   D36       -3.09666   0.00012   0.00000  -0.02651  -0.02677  -3.12342
   D37        2.87806   0.00055   0.00000  -0.00191  -0.00243   2.87563
   D38       -1.41066   0.00041   0.00000  -0.00431  -0.00470  -1.41536
   D39       -1.26606  -0.00092   0.00000   0.01336   0.01385  -1.25221
   D40        0.72841  -0.00105   0.00000   0.01095   0.01158   0.73999
   D41        0.77251   0.00113   0.00000   0.02567   0.02549   0.79800
   D42        2.76697   0.00100   0.00000   0.02326   0.02323   2.79020
         Item               Value     Threshold  Converged?
 Maximum Force            0.023007     0.000450     NO 
 RMS     Force            0.005109     0.000300     NO 
 Maximum Displacement     0.116142     0.001800     NO 
 RMS     Displacement     0.027618     0.001200     NO 
 Predicted change in Energy=-4.281196D-03
 Lowest energy point so far.  Saving SCF results.
 GradGradGradGradGradGradGradGradGradGradGradGradGradGradGradGradGradGrad

 Leave Link  103 at Fri Aug 26 13:56:26 2022, MaxMem= 24159191040 cpu:         2.7
 (Enter /public/home/users/caep010/software/Gaussian09/g09/l202.exe)
                          Input orientation:                          
 ---------------------------------------------------------------------
 Center     Atomic      Atomic             Coordinates (Angstroms)
 Number     Number       Type             X           Y           Z
 ---------------------------------------------------------------------
      1          6           0       -0.691110   -0.095576    1.654732
      2          6           0       -0.271411    0.015637    0.177040
      3          6           0       -0.824206    1.321228   -0.420074
      4          6           0       -0.826726   -1.191199   -0.602281
      5          6           0        1.268997    0.021591    0.111481
      6          7           0        1.777481    0.163413   -1.266026
      7          1           0       -1.781749   -0.104128    1.750776
      8          1           0       -0.311999    0.750461    2.239568
      9          1           0       -0.308397   -1.015794    2.111785
     10          1           0       -0.441703    2.193476    0.122088
     11          1           0       -0.533817    1.426493   -1.468020
     12          1           0       -1.918205    1.342287   -0.358984
     13          1           0       -0.410024   -2.134166   -0.227539
     14          1           0       -1.915858   -1.247753   -0.504046
     15          1           0       -0.599251   -1.117595   -1.670965
     16          1           0        1.641187   -0.880985    0.628159
     17          1           0        1.630764    0.880080    0.690137
     18          1           0        2.762271    0.413364   -1.239013
     19          1           0        1.753854   -0.740933   -1.728820
 ---------------------------------------------------------------------
                    Distance matrix (angstroms):
                    1          2          3          4          5
     1  C    0.000000
     2  C    1.540160   0.000000
     3  C    2.515923   1.538406   0.000000
     4  C    2.512547   1.540185   2.519026   0.000000
     5  C    2.497473   1.541813   2.520536   2.524355   0.000000
     6  N    3.832995   2.510425   2.970681   3.009555   1.475193
     7  H    1.094893   2.184516   2.767872   2.762368   3.465566
     8  H    1.096147   2.189894   2.768000   3.480100   2.749464
     9  H    1.096434   2.192819   3.483969   2.768680   2.750555
    10  H    2.766037   2.185177   1.095931   3.482668   2.764723
    11  H    3.477502   2.183024   1.092518   2.772654   2.778257
    12  H    2.761932   2.181571   1.095906   2.769309   3.481929
    13  H    2.788871   2.191929   3.485450   1.096931   2.753422
    14  H    2.736392   2.182714   2.792564   1.095015   3.483303
    15  H    3.480405   2.192445   2.750125   1.095101   2.822270
    16  H    2.666520   2.159970   3.467953   2.775034   1.104593
    17  H    2.696934   2.151464   2.730212   3.464073   1.096687
    18  H    4.534162   3.371441   3.789155   3.982580   2.051143
    19  H    4.224069   2.882082   3.551297   2.851529   2.050180
                    6          7          8          9         10
     6  N    0.000000
     7  H    4.673413   0.000000
     8  H    4.123074   1.769012   0.000000
     9  H    4.141379   1.769811   1.770875   0.000000
    10  H    3.312521   3.118867   2.565703   3.778370   0.000000
    11  H    2.641642   3.776345   3.775239   4.339422   1.767821
    12  H    3.983788   2.561606   3.111692   3.775808   1.770879
    13  H    3.338039   3.149034   3.797012   2.594903   4.341858
    14  H    4.026506   2.531815   3.754016   3.079010   3.795686
    15  H    2.730167   3.759485   4.343318   3.795280   3.768694
    16  H    2.167321   3.685142   3.012174   2.453609   3.747913
    17  H    2.088471   3.706598   2.488346   3.061987   2.518493
    18  H    1.016374   5.463951   4.654599   4.764382   3.909840
    19  H    1.016159   5.001360   4.715942   4.367914   4.105738
                   11         12         13         14         15
    11  H    0.000000
    12  H    1.775833   0.000000
    13  H    3.772587   3.791782   0.000000
    14  H    3.160835   2.594100   1.769101   0.000000
    15  H    2.553009   3.084146   1.775584   1.764113   0.000000
    16  H    3.801193   4.311225   2.551499   3.750863   3.218931
    17  H    3.105095   3.729540   3.754015   4.304912   3.812935
    18  H    3.455875   4.852237   4.192427   5.018403   3.718904
    19  H    3.162150   4.438499   2.979481   3.901758   2.383762
                   16         17         18         19
    16  H    0.000000
    17  H    1.762187   0.000000
    18  H    2.533476   2.284678   0.000000
    19  H    2.363823   2.914479   1.609104   0.000000
 Stoichiometry    C5H13N
 Framework group  C1[X(C5H13N)]
 Deg. of freedom    51
 Full point group                 C1      NOp   1
 RotChk:  IX=0 Diff= 4.32D-02
 Largest Abelian subgroup         C1      NOp   1
 Largest concise Abelian subgroup C1      NOp   1
                         Standard orientation:                         
 ---------------------------------------------------------------------
 Center     Atomic      Atomic             Coordinates (Angstroms)
 Number     Number       Type             X           Y           Z
 ---------------------------------------------------------------------
      1          6           0       -1.613192   -0.622992   -0.746354
      2          6           0       -0.422948    0.001509    0.005583
      3          6           0       -0.493671   -0.381729    1.493810
      4          6           0       -0.474634    1.533728   -0.142086
      5          6           0        0.879495   -0.543858   -0.613613
      6          7           0        2.086569   -0.033246    0.063472
      7          1           0       -2.563766   -0.262703   -0.339671
      8          1           0       -1.607259   -1.715774   -0.660736
      9          1           0       -1.589640   -0.371395   -1.813271
     10          1           0       -0.459776   -1.469745    1.620839
     11          1           0        0.345337    0.044884    2.048485
     12          1           0       -1.426114   -0.021087    1.942694
     13          1           0       -0.377025    1.836951   -1.191747
     14          1           0       -1.426801    1.926718    0.229390
     15          1           0        0.323485    2.018892    0.429637
     16          1           0        0.861014   -0.335798   -1.698277
     17          1           0        0.875118   -1.635472   -0.508339
     18          1           0        2.888059   -0.599275   -0.201557
     19          1           0        2.301083    0.896579   -0.285795
 ---------------------------------------------------------------------
 Rotational constants (GHZ):      4.3357897      2.5431592      2.5303398
 Leave Link  202 at Fri Aug 26 13:56:26 2022, MaxMem= 24159191040 cpu:         0.6
 (Enter /public/home/users/caep010/software/Gaussian09/g09/l301.exe)
 Standard basis: GTBas3 (6D, 7F)
 Ernie: Thresh=  0.10000D-02 Tol=  0.10000D-05 Strict=F.
 There are   251 symmetry adapted cartesian basis functions of A   symmetry.
 There are   233 symmetry adapted basis functions of A   symmetry.
   233 basis functions,   355 primitive gaussians,   251 cartesian basis functions
    25 alpha electrons       25 beta electrons
       nuclear repulsion energy       266.9282896507 Hartrees.
 IExCor=  402 DFT=T Ex+Corr=B3LYP ExCW=0 ScaHFX=  0.200000
 ScaDFX=  0.800000  0.720000  1.000000  0.810000 ScalE2=  1.000000  1.000000
 IRadAn=      0 IRanWt=     -1 IRanGd=            0 ICorTp=0 IEmpDi=  4
 NAtoms=   19 NActive=   19 NUniq=   19 SFac= 1.00D+00 NAtFMM=   60 NAOKFM=F Big=F
 Integral buffers will be    131072 words long.
 Raffenetti 2 integral format.
 Two-electron integral symmetry is turned on.
 Leave Link  301 at Fri Aug 26 13:56:26 2022, MaxMem= 24159191040 cpu:         1.6
 (Enter /public/home/users/caep010/software/Gaussian09/g09/l302.exe)
 NPDir=0 NMtPBC=     1 NCelOv=     1 NCel=       1 NClECP=     1 NCelD=      1
         NCelK=      1 NCelE2=     1 NClLst=     1 CellRange=     0.0.
 One-electron integrals computed using PRISM.
 NBasis=   233 RedAO= T EigKep=  5.12D-04  NBF=   233
 NBsUse=   233 1.00D-06 EigRej= -1.00D+00 NBFU=   233
 Precomputing XC quadrature grid using
 IXCGrd= 4 IRadAn=           0 IRanWt=          -1 IRanGd=           0 AccXCQ= 0.00D+00.
 Generated NRdTot=       0 NPtTot=           0 NUsed=           0 NTot=          32
 NSgBfM=   251   251   251   251   251 MxSgAt=    19 MxSgA2=    19.
 Leave Link  302 at Fri Aug 26 13:56:26 2022, MaxMem= 24159191040 cpu:        15.1
 (Enter /public/home/users/caep010/software/Gaussian09/g09/l303.exe)
 DipDrv:  MaxL=1.
 Leave Link  303 at Fri Aug 26 13:56:26 2022, MaxMem= 24159191040 cpu:         0.8
 (Enter /public/home/users/caep010/software/Gaussian09/g09/l401.exe)
 Initial guess from the checkpoint file:  "G4.Frag_538.chk"
 B after Tr=     0.000000   -0.000000   -0.000000
         Rot=    0.999884   -0.012865   -0.006883    0.004469 Ang=  -1.75 deg.
 Guess basis will be translated and rotated to current coordinates.
 JPrj=2 DoOrth=T DoCkMO=T.
 Generating alternative initial guess.
 ExpMin= 1.61D-01 ExpMax= 4.17D+03 ExpMxC= 6.27D+02 IAcc=1 IRadAn=         1 AccDes= 0.00D+00
 Harris functional with IExCor=  402 and IRadAn=       1 diagonalized for initial guess.
 HarFok:  IExCor=  402 AccDes= 0.00D+00 IRadAn=         1 IDoV= 1 UseB2=F ITyADJ=14
 ICtDFT=  3500011 ScaDFX=  1.000000  1.000000  1.000000  1.000000
 FoFCou: FMM=F IPFlag=           0 FMFlag=      100000 FMFlg1=           0
         NFxFlg=           0 DoJE=T BraDBF=F KetDBF=T FulRan=T
         wScrn=  0.000000 ICntrl=     500 IOpCl=  0 I1Cent=   200000004 NGrid=           0
         NMat0=    1 NMatS0=      1 NMatT0=    0 NMatD0=    1 NMtDS0=    0 NMtDT0=    0
 Petite list used in FoFCou.
 Harris En= -253.205799192205    
 Leave Link  401 at Fri Aug 26 13:56:27 2022, MaxMem= 24159191040 cpu:        18.2
 (Enter /public/home/users/caep010/software/Gaussian09/g09/l502.exe)
 Closed shell SCF:
 Using DIIS extrapolation, IDIIS=  1040.
 Integral symmetry usage will be decided dynamically.
 Keep R1 ints in memory in canonical form, NReq=379813506.
 IVT=      217437 IEndB=      217437 NGot= 24159191040 MDV= 23787378913
 LenX= 23787378913 LenY= 23787315471
 Requested convergence on RMS density matrix=1.00D-08 within 128 cycles.
 Requested convergence on MAX density matrix=1.00D-06.
 Requested convergence on             energy=1.00D-06.
 No special actions if energy rises.
 FoFCou: FMM=F IPFlag=           0 FMFlag=           0 FMFlg1=           0
         NFxFlg=           0 DoJE=F BraDBF=F KetDBF=F FulRan=T
         wScrn=  0.000000 ICntrl=     600 IOpCl=  0 I1Cent=           0 NGrid=           0
         NMat0=    1 NMatS0=  27261 NMatT0=    0 NMatD0=    1 NMtDS0=    0 NMtDT0=    0
 Symmetry not used in FoFCou.
 Integral accuracy reduced to 1.0D-05 until final iterations.

 Cycle   1  Pass 0  IDiag  1:
 E= -253.135748129297    
 DIIS: error= 1.51D-03 at cycle   1 NSaved=   1.
 NSaved= 1 IEnMin= 1 EnMin= -253.135748129297     IErMin= 1 ErrMin= 1.51D-03
 ErrMax= 1.51D-03  0.00D+00 EMaxC= 1.00D-01 BMatC= 1.20D-03 BMatP= 1.20D-03
 IDIUse=3 WtCom= 9.85D-01 WtEn= 1.51D-02
 Coeff-Com:  0.100D+01
 Coeff-En:   0.100D+01
 Coeff:      0.100D+01
 Gap=     1.148 Goal=   None    Shift=    0.000
 GapD=    1.148 DampG=2.000 DampE=1.000 DampFc=2.0000 IDamp=-1.
 RMSDP=2.21D-04 MaxDP=1.10D-02              OVMax= 9.66D-03

 Cycle   2  Pass 0  IDiag  1:
 E= -253.136895145975     Delta-E=       -0.001147016678 Rises=F Damp=F
 DIIS: error= 1.17D-03 at cycle   2 NSaved=   2.
 NSaved= 2 IEnMin= 2 EnMin= -253.136895145975     IErMin= 2 ErrMin= 1.17D-03
 ErrMax= 1.17D-03  0.00D+00 EMaxC= 1.00D-01 BMatC= 2.73D-04 BMatP= 1.20D-03
 IDIUse=3 WtCom= 9.88D-01 WtEn= 1.17D-02
 Coeff-Com:  0.248D+00 0.752D+00
 Coeff-En:   0.000D+00 0.100D+01
 Coeff:      0.245D+00 0.755D+00
 Gap=     0.304 Goal=   None    Shift=    0.000
 RMSDP=1.16D-04 MaxDP=5.75D-03 DE=-1.15D-03 OVMax= 5.62D-03

 Cycle   3  Pass 0  IDiag  1:
 E= -253.137022644866     Delta-E=       -0.000127498891 Rises=F Damp=F
 DIIS: error= 8.34D-04 at cycle   3 NSaved=   3.
 NSaved= 3 IEnMin= 3 EnMin= -253.137022644866     IErMin= 3 ErrMin= 8.34D-04
 ErrMax= 8.34D-04  0.00D+00 EMaxC= 1.00D-01 BMatC= 1.44D-04 BMatP= 2.73D-04
 IDIUse=3 WtCom= 9.92D-01 WtEn= 8.34D-03
 Coeff-Com:  0.780D-02 0.418D+00 0.574D+00
 Coeff-En:   0.000D+00 0.340D+00 0.660D+00
 Coeff:      0.773D-02 0.418D+00 0.575D+00
 Gap=     0.306 Goal=   None    Shift=    0.000
 RMSDP=5.13D-05 MaxDP=2.64D-03 DE=-1.27D-04 OVMax= 2.65D-03

 Cycle   4  Pass 0  IDiag  1:
 E= -253.137148819769     Delta-E=       -0.000126174903 Rises=F Damp=F
 DIIS: error= 1.02D-04 at cycle   4 NSaved=   4.
 NSaved= 4 IEnMin= 4 EnMin= -253.137148819769     IErMin= 4 ErrMin= 1.02D-04
 ErrMax= 1.02D-04  0.00D+00 EMaxC= 1.00D-01 BMatC= 2.75D-06 BMatP= 1.44D-04
 IDIUse=3 WtCom= 9.99D-01 WtEn= 1.02D-03
 Coeff-Com: -0.662D-02 0.136D+00 0.224D+00 0.647D+00
 Coeff-En:   0.000D+00 0.000D+00 0.000D+00 0.100D+01
 Coeff:     -0.661D-02 0.136D+00 0.224D+00 0.647D+00
 Gap=     0.306 Goal=   None    Shift=    0.000
 RMSDP=8.50D-06 MaxDP=3.85D-04 DE=-1.26D-04 OVMax= 4.01D-04

 Initial convergence to 1.0D-05 achieved.  Increase integral accuracy.
 Cycle   5  Pass 1  IDiag  1:
 E= -253.137182436918     Delta-E=       -0.000033617149 Rises=F Damp=F
 DIIS: error= 4.08D-05 at cycle   1 NSaved=   1.
 NSaved= 1 IEnMin= 1 EnMin= -253.137182436918     IErMin= 1 ErrMin= 4.08D-05
 ErrMax= 4.08D-05  0.00D+00 EMaxC= 1.00D-01 BMatC= 4.67D-07 BMatP= 4.67D-07
 IDIUse=1 WtCom= 1.00D+00 WtEn= 0.00D+00
 Coeff-Com:  0.100D+01
 Coeff:      0.100D+01
 Gap=     0.306 Goal=   None    Shift=    0.000
 RMSDP=8.50D-06 MaxDP=3.85D-04 DE=-3.36D-05 OVMax= 2.74D-04

 Cycle   6  Pass 1  IDiag  1:
 E= -253.137182215467     Delta-E=        0.000000221451 Rises=F Damp=F
 DIIS: error= 5.97D-05 at cycle   2 NSaved=   2.
 NSaved= 2 IEnMin= 1 EnMin= -253.137182436918     IErMin= 1 ErrMin= 4.08D-05
 ErrMax= 5.97D-05  0.00D+00 EMaxC= 1.00D-01 BMatC= 7.18D-07 BMatP= 4.67D-07
 IDIUse=1 WtCom= 1.00D+00 WtEn= 0.00D+00
 Coeff-Com:  0.556D+00 0.444D+00
 Coeff:      0.556D+00 0.444D+00
 Gap=     0.306 Goal=   None    Shift=    0.000
 RMSDP=3.56D-06 MaxDP=1.68D-04 DE= 2.21D-07 OVMax= 1.69D-04

 Cycle   7  Pass 1  IDiag  1:
 E= -253.137182859056     Delta-E=       -0.000000643589 Rises=F Damp=F
 DIIS: error= 5.96D-06 at cycle   3 NSaved=   3.
 NSaved= 3 IEnMin= 3 EnMin= -253.137182859056     IErMin= 3 ErrMin= 5.96D-06
 ErrMax= 5.96D-06  0.00D+00 EMaxC= 1.00D-01 BMatC= 5.79D-09 BMatP= 4.67D-07
 IDIUse=1 WtCom= 1.00D+00 WtEn= 0.00D+00
 Coeff-Com:  0.879D-01 0.112D+00 0.800D+00
 Coeff:      0.879D-01 0.112D+00 0.800D+00
 Gap=     0.306 Goal=   None    Shift=    0.000
 RMSDP=5.19D-07 MaxDP=2.46D-05 DE=-6.44D-07 OVMax= 2.66D-05

 Cycle   8  Pass 1  IDiag  1:
 E= -253.137182861773     Delta-E=       -0.000000002718 Rises=F Damp=F
 DIIS: error= 2.77D-06 at cycle   4 NSaved=   4.
 NSaved= 4 IEnMin= 4 EnMin= -253.137182861773     IErMin= 4 ErrMin= 2.77D-06
 ErrMax= 2.77D-06  0.00D+00 EMaxC= 1.00D-01 BMatC= 2.51D-09 BMatP= 5.79D-09
 IDIUse=1 WtCom= 1.00D+00 WtEn= 0.00D+00
 Coeff-Com: -0.126D-01 0.139D-01 0.445D+00 0.553D+00
 Coeff:     -0.126D-01 0.139D-01 0.445D+00 0.553D+00
 Gap=     0.306 Goal=   None    Shift=    0.000
 RMSDP=1.99D-07 MaxDP=8.57D-06 DE=-2.72D-09 OVMax= 8.74D-06

 Cycle   9  Pass 1  IDiag  1:
 E= -253.137182863984     Delta-E=       -0.000000002210 Rises=F Damp=F
 DIIS: error= 1.45D-07 at cycle   5 NSaved=   5.
 NSaved= 5 IEnMin= 5 EnMin= -253.137182863984     IErMin= 5 ErrMin= 1.45D-07
 ErrMax= 1.45D-07  0.00D+00 EMaxC= 1.00D-01 BMatC= 9.83D-12 BMatP= 2.51D-09
 IDIUse=1 WtCom= 1.00D+00 WtEn= 0.00D+00
 Coeff-Com: -0.494D-02 0.200D-02 0.111D+00 0.158D+00 0.734D+00
 Coeff:     -0.494D-02 0.200D-02 0.111D+00 0.158D+00 0.734D+00
 Gap=     0.306 Goal=   None    Shift=    0.000
 RMSDP=1.68D-08 MaxDP=5.97D-07 DE=-2.21D-09 OVMax= 7.13D-07

 Cycle  10  Pass 1  IDiag  1:
 E= -253.137182863996     Delta-E=       -0.000000000012 Rises=F Damp=F
 DIIS: error= 3.72D-08 at cycle   6 NSaved=   6.
 NSaved= 6 IEnMin= 6 EnMin= -253.137182863996     IErMin= 6 ErrMin= 3.72D-08
 ErrMax= 3.72D-08  0.00D+00 EMaxC= 1.00D-01 BMatC= 6.72D-13 BMatP= 9.83D-12
 IDIUse=1 WtCom= 1.00D+00 WtEn= 0.00D+00
 Coeff-Com: -0.928D-03-0.706D-04 0.127D-01 0.215D-01 0.225D+00 0.742D+00
 Coeff:     -0.928D-03-0.706D-04 0.127D-01 0.215D-01 0.225D+00 0.742D+00
 Gap=     0.306 Goal=   None    Shift=    0.000
 RMSDP=5.45D-09 MaxDP=1.71D-07 DE=-1.24D-11 OVMax= 2.42D-07

 SCF Done:  E(RB3LYP) =  -253.137182864     A.U. after   10 cycles
            NFock= 10  Conv=0.54D-08     -V/T= 2.0089
 KE= 2.509023843052D+02 PE=-1.119954203419D+03 EE= 3.489863465994D+02
 Leave Link  502 at Fri Aug 26 13:56:36 2022, MaxMem= 24159191040 cpu:        94.2
 (Enter /public/home/users/caep010/software/Gaussian09/g09/l701.exe)
 Compute integral first derivatives.
 ... and contract with generalized density number  0.
 Leave Link  701 at Fri Aug 26 13:56:36 2022, MaxMem= 24159191040 cpu:        14.0
 (Enter /public/home/users/caep010/software/Gaussian09/g09/l702.exe)
 L702 exits ... SP integral derivatives will be done elsewhere.
 Leave Link  702 at Fri Aug 26 13:56:37 2022, MaxMem= 24159191040 cpu:         0.5
 (Enter /public/home/users/caep010/software/Gaussian09/g09/l703.exe)
 Compute integral first derivatives, UseDBF=F ICtDFT=           0.
 Integral derivatives from FoFJK, PRISM(SPDF).
 Calling FoFJK, ICntrl=      2127 FMM=F ISym2X=0 I1Cent= 0 IOpClX= 0 NMat=1 NMatS=1 NMatT=0.
 FoFJK:  IHMeth= 1 ICntrl=    2127 DoSepK=F KAlg= 0 I1Cent=   0 FoldK=F
 IRaf=         0 NMat=   1 IRICut=       1 DoRegI=T DoRafI=F ISym2E= 0.
 FoFCou: FMM=F IPFlag=           0 FMFlag=      100000 FMFlg1=         800
         NFxFlg=           0 DoJE=F BraDBF=F KetDBF=F FulRan=T
         wScrn=  0.000000 ICntrl=    2127 IOpCl=  0 I1Cent=           0 NGrid=           0
         NMat0=    1 NMatS0=      1 NMatT0=    0 NMatD0=    1 NMtDS0=    0 NMtDT0=    0
 Symmetry not used in FoFCou.
 Leave Link  703 at Fri Aug 26 13:56:38 2022, MaxMem= 24159191040 cpu:        57.6
 (Enter /public/home/users/caep010/software/Gaussian09/g09/l716.exe)
 Dipole        = 2.01054647D-01 1.78683396D-02-4.47250789D-01
 ***** Axes restored to original set *****
 -------------------------------------------------------------------
 Center     Atomic                   Forces (Hartrees/Bohr)
 Number     Number              X              Y              Z
 -------------------------------------------------------------------
      1        6           0.000995555   -0.000276595   -0.000681614
      2        6          -0.001398643    0.000336554   -0.000183748
      3        6          -0.001381325   -0.000363912   -0.000257646
      4        6          -0.000172993    0.000328396   -0.000125060
      5        6           0.001546671    0.000876221   -0.001421331
      6        7           0.001606100   -0.002832373    0.003101029
      7        1          -0.000122320   -0.000046493    0.000075214
      8        1          -0.000046999   -0.000010080   -0.000104623
      9        1          -0.000121838    0.000127644   -0.000084433
     10        1          -0.000192882   -0.000019114    0.000288306
     11        1           0.000653680   -0.000173821    0.000438444
     12        1           0.000039429    0.000190317    0.000033327
     13        1          -0.000237193    0.000116369    0.000130457
     14        1          -0.000256592   -0.000253648   -0.000160259
     15        1           0.000203220    0.000122697    0.000284834
     16        1           0.000548315    0.000230325   -0.000783005
     17        1           0.000601450    0.000382352   -0.000681223
     18        1          -0.000910106    0.000913120    0.000641753
     19        1          -0.001353528    0.000352043   -0.000510422
 -------------------------------------------------------------------
 Cartesian Forces:  Max     0.003101029 RMS     0.000824910
 Leave Link  716 at Fri Aug 26 13:56:39 2022, MaxMem= 24159191040 cpu:         0.5
 (Enter /public/home/users/caep010/software/Gaussian09/g09/l103.exe)

 GradGradGradGradGradGradGradGradGradGradGradGradGradGradGradGradGradGrad
 Berny optimization.
 Using GEDIIS/GDIIS optimizer.
[...]
 ,0.03134513,-0.01991218,-0.01118820,0.02998600,-0.08988330,-0.02053240
 ,0.03773776,0.55949069,0.00334511,0.00611781,0.00304985,-0.08776526,-0
 .02615101,-0.01767737,0.00462096,0.00868872,0.00623825,0.55396852,0.00
 053693,-0.00035130,-0.00502150,-0.02443771,-0.13181697,-0.03732754,-0.
 00814840,-0.03436880,-0.01466160,-0.03286178,0.49420236,-0.01192068,-0
 .02891656,-0.02688230,-0.01514813,-0.03579380,-0.09996764,0.00434753,0
 .00722663,0.00672535,-0.02141818,-0.04755253,0.54187332,-0.01338527,-0
 .00071479,0.00988257,-0.15623157,-0.00044466,-0.00780913,-0.02137441,0
 .00869582,-0.00418995,-0.01998704,-0.00827537,-0.00443221,0.46236543,-
 0.00234080,0.00019912,0.00077186,0.00040815,-0.07626530,-0.00136778,0.
 03156395,-0.00250922,-0.00006351,-0.02993749,-0.00314167,0.00010235,0.
 01466923,0.59862273,0.03571159,0.00060776,-0.00792167,-0.00507758,-0.0
 0026787,-0.07312625,-0.01501132,0.00015375,0.00176523,-0.01874677,-0.0
 0081381,0.00194449,0.02903821,0.01944443,0.50514495,-0.00708208,0.0000
 5552,-0.00128354,-0.01195479,-0.00316698,0.03583677,-0.00001217,0.0006
 6834,-0.00018974,0.00008708,0.00019055,-0.00070932,-0.09397262,-0.0247
 4023,0.05891213,0.55366609,-0.00169434,0.00008905,-0.00030357,-0.00234
 743,0.00030924,0.00506871,0.00118850,-0.00057220,0.00066058,0.00009470
 ,0.00011873,0.00100027,-0.01340827,-0.08330931,-0.01664953,0.14529748,
 0.47744593,0.00082653,0.00041576,0.00129118,0.00936861,-0.00039528,-0.
 00603415,0.00016197,0.00097695,-0.00070555,-0.00002351,-0.00065113,-0.
 00040677,0.01868534,0.01487838,-0.19226428,-0.07565397,0.17096193,0.39
 392102,-0.30532400,0.00142497,0.02140474,-0.00990490,0.00004051,-0.000
 02338,0.00043955,0.00025959,-0.00081519,0.00035883,-0.00013242,-0.0008
 0201,0.00118353,-0.00010324,0.00238015,-0.00052859,-0.00018364,0.00000
 020,0.33292145,0.00144312,-0.04614995,-0.00027984,-0.00296909,-0.00164
 053,0.00029374,-0.00086694,0.00023393,-0.00018821,0.00095623,0.0000355
 3,-0.00000448,0.00038669,-0.00061924,0.00049340,-0.00012624,0.00063321
 ,0.00009419,-0.00142803,0.04620585,0.02012989,-0.00019323,-0.04729130,
 0.03277895,-0.00039387,-0.00329683,0.00076525,-0.00080384,0.00155473,0
 .00110447,0.00071346,0.00163992,-0.00126684,0.00039997,-0.00609672,0.0
 0235534,0.00064259,-0.00012820,-0.02456984,-0.00022822,0.05285134,-0.0
 8141408,-0.07238210,-0.04985626,0.00201099,0.00718365,0.00444787,-0.00
 018648,-0.00014485,-0.00036386,-0.00042823,0.00000979,0.00137961,0.000
 66727,0.00092777,0.00064806,0.00014588,0.00002022,-0.00030854,-0.01099
 473,-0.02548353,-0.01705329,0.08502627,-0.07238693,-0.19897799,-0.1045
 3525,0.00147028,0.00060297,0.00153504,0.00026570,0.00082525,0.00059933
 ,0.00046918,0.00091347,0.00002225,-0.00044667,-0.00013130,0.00022948,0
 .00041751,0.00032200,0.00002928,0.00068332,0.00027986,0.00108158,0.080
 40065,0.21493524,-0.04939432,-0.10322540,-0.11811518,-0.01223629,-0.02
 492752,-0.01641262,-0.00028535,-0.00183304,0.00123287,0.00267882,0.002
 17105,-0.00627685,-0.00159810,-0.00102901,0.00052346,0.00004293,0.0005
 6419,0.00034403,0.00079689,0.00253242,0.00101022,0.05363185,0.11541657
 ,0.13083309,-0.07767459,0.07624545,-0.03501521,0.00185358,-0.00775058,
 0.00258177,-0.00028590,-0.00029203,0.00104777,-0.00001107,0.00012869,-
 0.00026544,0.00064488,-0.00132001,0.00071062,0.00003765,0.00018292,-0.
 00040928,-0.01036802,0.02822643,-0.01257216,0.00390583,-0.01084454,0.0
 0551873,0.08128225,0.07596059,-0.23441425,0.08590674,0.00062602,-0.003
 55697,0.00052084,-0.00103224,0.00091118,0.00121837,-0.00018686,0.00068
 849,-0.00065601,0.00085311,-0.00058343,-0.00006781,-0.00035760,0.00045
 877,-0.00037906,-0.00056724,0.00026957,-0.00082793,0.00924067,-0.02018
 833,0.00979266,-0.08458428,0.25461949,-0.03472473,0.08493511,-0.086161
 53,-0.01197383,0.02715692,-0.01183970,0.00299391,-0.00094100,-0.006354
 98,-0.00038296,0.00157110,0.00148669,-0.00176914,0.00090905,0.00035248
 ,0.00001011,-0.00056129,0.00039139,0.00060530,-0.00260828,0.00037957,0
 .00693140,-0.01447565,0.00677897,0.03753019,-0.09571173,0.09495548,0.0
 0012149,-0.00030471,0.00028449,0.00200643,0.00916776,0.00715238,-0.068
 63312,-0.05852609,-0.04162245,-0.00072146,0.00176615,-0.00073681,0.001
 17097,0.00084845,0.00079423,-0.00031050,-0.00033865,-0.00009052,-0.000
 06258,-0.00014431,-0.00013579,0.00024825,-0.00014655,0.00008239,-0.000
 10710,0.00005161,0.00022470,0.07090843,-0.00053374,0.00080691,-0.00176
 325,-0.00909529,-0.02261878,-0.01604033,-0.05753909,-0.20196235,-0.110
 85778,0.00348144,-0.00412798,0.00369395,-0.00172982,0.00032870,-0.0007
 7881,0.00035506,0.00020111,0.00003727,-0.00003043,-0.00005094,0.000126
 24,0.00022779,0.00034336,0.00117714,0.00021366,0.00052330,0.00003602,0
 .06291549,0.22386854,0.00039038,0.00080236,0.00111081,0.00414421,0.010
 10766,0.00580679,-0.04179524,-0.11263304,-0.12645184,-0.00076034,0.002
 26805,-0.00064015,0.00019415,-0.00038923,0.00017361,0.00059307,0.00032
 322,0.00007649,0.00005912,-0.00002335,-0.00006205,-0.00018162,-0.00003
 654,0.00010019,0.00007464,-0.00016343,0.00023381,0.04702208,0.12205621
 ,0.13448989,-0.00123432,0.00213646,-0.00073205,0.00427848,0.00068342,-
 0.01199196,-0.07682002,-0.01310258,0.08600220,-0.00017689,-0.00043421,
 0.00025801,0.00046487,-0.00039019,-0.00102664,-0.00144287,0.00080731,-
 0.00007359,0.00028490,0.00013253,-0.00017216,-0.00002976,0.00006860,0.
 00031331,0.00048335,0.00051723,-0.00085201,0.00308462,0.00163568,-0.01
 052759,0.08021547,0.00261177,-0.00500067,0.00104107,-0.01047924,-0.003
 56320,0.02639209,-0.01228294,-0.05166108,0.02957759,-0.00041272,0.0015
 9174,0.00113035,-0.00087266,0.00080875,0.00052240,-0.00010264,-0.00071
 518,-0.00060387,0.00003739,-0.00006415,-0.00034578,0.00023741,0.000191
 66,0.00017850,-0.00014981,-0.00008121,0.00203413,0.00939747,0.00351172
 ,-0.02372583,0.01242332,0.05625221,-0.00160590,0.00303858,0.00010660,0
 .00282903,0.00146216,-0.01266095,0.08322860,0.03140344,-0.27980805,-0.
 00009522,-0.00072558,0.00041000,0.00126519,0.00033960,-0.00136351,0.00
 125340,-0.00150872,0.00071202,0.00006990,-0.00013174,0.00017708,0.0000
 2605,-0.00007158,0.00038891,0.00042484,0.00027040,-0.00082401,0.005979
 45,0.00243570,-0.01539761,-0.09229494,-0.03573358,0.30479067,0.0001506
 1,-0.00056002,0.00058978,-0.01280378,-0.00105715,0.00043559,-0.3053207
 0,-0.00745905,-0.00264699,0.00032359,-0.00107069,0.00013337,0.00079178
 ,0.00242381,-0.00105304,0.00004539,0.00014614,-0.00022730,0.00057334,0
 .00023708,-0.00068657,0.00001950,0.00003951,0.00005712,0.00034797,0.00
 010807,-0.00005483,-0.00863679,-0.00017392,0.00042627,-0.00973391,-0.0
 0051248,-0.00105788,0.33393702,0.00025250,0.00083661,-0.00118823,0.028
 61284,-0.00040757,-0.00021862,-0.00906381,-0.04615645,-0.00017284,0.00
 107015,0.00161212,0.00000523,0.00083252,-0.00528009,0.00277396,-0.0003
 8010,0.00053514,-0.00012298,-0.00039663,0.00010740,0.00029061,-0.00010
 620,-0.00003340,0.00010995,-0.00017895,0.00001931,-0.00027434,-0.02535
 077,-0.00052106,0.00077196,-0.00363160,-0.00125700,-0.00078731,0.00682
 001,0.05044003,-0.00111401,-0.00062751,0.00073365,-0.01331503,-0.00063
 929,-0.00152480,-0.00231422,-0.00008403,-0.04666414,0.00032188,-0.0006
 2016,0.00019079,-0.00018140,0.00264058,-0.00213525,0.00076673,-0.00079
 047,0.00061356,0.00034982,0.00034920,-0.00017459,-0.00005362,0.0000466
 2,-0.00001755,0.00029994,-0.00011660,0.00012132,-0.01864840,-0.0000163
 3,-0.00063461,0.03026556,0.00106053,0.00245644,0.00380796,-0.00147386,
 0.04643659,-0.00006379,0.00029404,0.00026962,0.00353398,-0.01029002,0.
 00478203,-0.00078726,-0.00180454,-0.00119631,-0.08515633,0.08480940,-0
 .03451890,0.00098154,-0.00103526,0.00098679,-0.00001414,0.00000538,-0.
 00026543,-0.00000313,0.00010101,-0.00011284,-0.00005148,-0.00009228,0.
 00021819,0.00026306,0.00013071,0.00018682,0.00077260,-0.00064083,0.000
 10339,-0.00005592,0.00018883,-0.00016082,0.00043239,-0.00026015,-0.000
 01358,0.08911669,0.00034059,0.00052855,0.00158237,0.01070903,-0.022440
 76,0.01023627,-0.00306585,-0.00311478,-0.00447452,0.08423881,-0.231652
 89,0.07634085,0.00162366,0.00024115,0.00090748,-0.00042506,0.00014458,
 -0.00005823,-0.00005242,0.00000507,-0.00006771,-0.00026739,0.00038157,
 -0.00005677,-0.00010704,0.00050842,-0.00099504,0.00058032,-0.00179135,
 0.00064468,-0.00002717,0.00026975,0.00001382,0.00000392,0.00039273,-0.
 00011005,-0.09234060,0.25607487,0.00052889,-0.00066485,0.00134720,0.00
 756823,-0.01365454,0.00503418,-0.00117422,-0.00248091,-0.00160734,-0.0
 3488657,0.07716909,-0.07949814,0.00034427,0.00033922,0.00074144,0.0002
 0752,0.00017567,-0.00000877,0.00001818,-0.00004368,-0.00008967,-0.0000
 3105,0.00024394,0.00019135,-0.00016825,0.00008359,-0.00025734,0.000145
 19,-0.00098240,0.00073770,-0.00012655,-0.00028385,0.00017450,-0.000055
 70,0.00007457,-0.00019422,0.03928162,-0.08339227,0.08284694,0.00041309
 ,0.00070897,0.00086049,-0.01294954,-0.00003624,0.00094913,0.00015755,0
 .00084032,0.00015271,-0.30428151,-0.01090985,0.02402135,0.00103185,-0.
 00259589,-0.00148579,0.00024738,-0.00003808,-0.00010958,0.00061824,-0.
 00017988,-0.00078918,0.00041999,-0.00002028,0.00000197,-0.00006748,-0.
 00004168,-0.00003577,0.00039034,-0.00003038,-0.00008246,-0.00002440,0.
 00007588,-0.00002945,0.00062304,-0.00038763,0.00021424,-0.01163914,-0.
 00065619,0.00157701,0.33202852,-0.00018435,0.00081410,0.00121613,-0.02
 624360,-0.00229995,0.00266848,-0.00124994,0.00146192,0.00016649,-0.009
 77668,-0.04659712,0.00131373,-0.00043380,-0.00456303,-0.00293980,0.000
 43773,0.00013914,-0.00008357,0.00041936,0.00014975,-0.00036450,0.00016
 390,-0.00004198,0.00032709,0.00017163,-0.00001145,-0.00011743,0.000338
 32,0.00030285,-0.00002738,0.00000007,-0.00006405,-0.00000693,0.0005585
 7,-0.00032802,-0.00005707,0.02775366,0.00140986,-0.00350779,0.01329404
 ,0.05024315,-0.00131043,0.00043188,0.00109206,-0.01777004,-0.00061455,
 0.00009229,0.00028313,0.00074125,0.00002620,0.02491077,0.00152557,-0.0
 4766939,-0.00036586,-0.00344854,-0.00276569,0.00069290,0.00001425,0.00
 027087,0.00038409,-0.00033020,-0.00021760,0.00025486,0.00017649,0.0001
 9420,-0.00006966,0.00003184,-0.00010116,-0.00002898,0.00016186,-0.0001
 2923,0.00013887,-0.00003782,0.00002297,0.00014687,0.00007434,0.0002935
 9,-0.01211874,-0.00073584,0.00040924,-0.02555420,0.00100946,0.05009889
 ,-0.00095612,-0.00170777,-0.00083160,0.00256352,0.00221169,-0.01184021
 ,0.00013535,0.00040441,0.00023584,-0.05958441,-0.00417791,0.05663158,0
 .00051369,0.00064913,-0.00082140,-0.00047980,0.00026658,0.00034087,0.0
 0037422,-0.00013995,-0.00029763,0.00063348,-0.00027158,-0.00069539,-0.
 00007968,-0.00014014,0.00027479,-0.00014241,0.00011925,-0.00011693,0.0
 0033046,-0.00014779,0.00012579,-0.00009898,-0.00002900,0.00020520,0.00
 245093,0.00060649,-0.01361646,-0.00658022,-0.00317872,0.03204912,0.062
 65916,-0.00249158,-0.00456135,-0.00198836,0.00765290,0.00248958,-0.024
 94097,0.00042576,0.00162562,-0.00077684,-0.00428234,-0.04907421,0.0228
 7008,0.00071499,0.00075747,0.00004377,-0.00034726,0.00046882,0.0006220
 9,-0.00002915,-0.00009000,0.00026399,0.00019483,0.00025766,-0.00195344
 ,-0.00020681,0.00020143,-0.00017136,-0.00008588,0.00030353,0.00023655,
 -0.00027955,-0.00052068,0.00027940,0.00006179,-0.00008517,0.00004301,-
 0.00742509,-0.00176189,0.02651175,0.00009884,-0.00095246,0.00069243,0.
 00607656,0.05101649,-0.00223011,-0.00376747,-0.00055388,0.00363846,0.0
 0214083,-0.01633115,0.00006707,0.00114245,0.00053896,0.05575167,0.0210
 3219,-0.29314818,0.00130905,0.00017659,-0.00149825,0.00113646,0.000104
 79,0.00075014,0.00003508,0.00008034,0.00028415,0.00039866,-0.00008877,
 -0.00120500,-0.00001174,0.00007265,0.00037452,-0.00018686,0.00002552,0
 .00027263,0.00003947,-0.00068889,0.00052976,0.00001904,-0.00011554,-0.
 00002349,0.00258483,0.00051442,-0.00959760,0.00037468,0.00049782,-0.00
 238767,-0.06194604,-0.02189363,0.32074998,0.00075348,0.00115184,-0.001
 68288,-0.01447936,0.02833500,-0.01376693,-0.00675239,-0.00210066,0.000
 96236,0.00151894,0.00159622,0.00030918,-0.07915748,0.06475459,-0.03809
 637,0.00574481,-0.01089991,0.01097416,0.00034577,-0.00042751,-0.000002
 14,-0.00000311,-0.00004234,0.00015937,-0.00024920,-0.00067957,0.000918
 44,0.00015643,-0.00000456,0.00025992,0.00016991,-0.00014919,-0.0001052
 4,-0.00091468,0.00205035,-0.00104605,0.00016579,-0.00099838,0.00000105
 ,0.00029207,-0.00019639,0.00025280,-0.00003744,-0.00009986,-0.00010516
 ,0.08706476,-0.00044066,-0.00006054,0.00017729,-0.00063488,-0.00256227
 ,0.00047992,0.00066080,0.00109610,-0.00033124,-0.00040130,0.00078491,-
 0.00019177,0.06635160,-0.20294067,0.08195548,-0.00176287,0.00402159,0.
 00521260,-0.00008122,0.00032137,-0.00033766,0.00004640,-0.00007701,0.0
 0009257,0.00035324,0.00062004,-0.00066508,-0.00017556,0.00045081,-0.00
 000427,-0.00015707,0.00008184,-0.00008491,0.00034618,0.00005056,0.0003
 3861,0.00039172,0.00056437,0.00022272,0.00011385,0.00021026,-0.0000394
 4,-0.00012552,-0.00004317,-0.00017667,-0.07273546,0.21683090,0.0010211
 5,-0.00061886,0.00045421,-0.00142071,0.00218250,-0.00025736,0.00053132
 ,-0.00059523,0.00028314,0.00009777,0.00073695,-0.00033421,-0.03980547,
 0.08260448,-0.09474065,-0.00340246,0.02604372,-0.03181536,-0.00006260,
 -0.00026346,0.00006562,-0.00008530,-0.00008387,0.00007168,0.00025983,-
 0.00016982,0.00048083,-0.00004254,0.00026088,0.00007990,0.00039599,-0.
 00015886,0.00003196,0.00010916,0.00002004,0.00028444,-0.00021741,-0.00
 052198,0.00006493,0.00008811,-0.00022549,0.00014005,0.00014626,0.00008
 017,0.00015087,0.03758788,-0.09837347,0.11499577,0.00093622,-0.0005908
 4,-0.00153797,-0.01301281,-0.02735588,-0.01550681,0.00151868,-0.001428
 45,-0.00024802,-0.00676843,0.00139208,0.00158664,-0.07449516,-0.068610
 71,-0.04168330,0.00296412,0.01080243,0.00994497,0.00027333,0.00041297,
 -0.00001282,0.00000799,0.00046412,0.00096826,-0.00006405,0.00010393,0.
 00010054,-0.00023461,0.00093233,0.00020039,-0.00008216,0.00014969,-0.0
 0004665,0.00040045,0.00005136,0.00037430,0.00015994,0.00006496,0.00023
 906,-0.00093717,-0.00178905,-0.00128134,0.00018773,0.00017426,-0.00006
 136,0.00424306,0.01002546,0.00497377,0.08388111,0.00017974,-0.00024739
 ,-0.00023866,0.00002433,-0.00178289,-0.00023997,0.00077504,0.00075306,
 0.00044030,-0.00034695,0.00098638,0.00065170,-0.06787595,-0.21975108,-
 0.09846336,0.00137497,0.00277883,0.00033809,0.00003622,0.00028187,0.00
 030602,-0.00027250,0.00042375,0.00062048,-0.00001514,0.00003155,-0.000
 11652,-0.00001759,0.00049576,-0.00011982,-0.00002757,-0.00001223,0.000
 01455,-0.00003701,0.00017003,0.00015672,0.00020535,0.00045393,0.000072
 65,-0.00028515,0.00014056,-0.00027239,-0.00001191,-0.00000051,-0.00004
 649,-0.00884921,-0.02164584,-0.01127296,0.07435035,0.23429262,0.000647
 34,0.00081358,0.00054688,-0.00138054,-0.00059043,-0.00064899,0.0000523
 4,-0.00045080,-0.00011595,0.00052076,0.00062002,0.00051215,-0.03711115
 ,-0.09108085,-0.10264095,-0.00865693,-0.02895877,-0.02364004,-0.000132
 65,0.00010625,0.00000224,0.00023697,-0.00015936,0.00017277,0.00003436,
 0.00006614,0.00004127,-0.00019021,0.00033563,0.00020195,0.00003668,-0.
 00011478,-0.00006572,0.00009859,0.00024063,0.00007704,0.00000368,-0.00
 025598,-0.00005911,0.00004729,-0.00009172,0.00028765,0.00019198,0.0000
 1470,0.00012228,0.00469888,0.01150426,0.00778361,0.03879322,0.10783470
 ,0.12241091,-0.00127431,0.00003274,-0.00030176,0.00062880,0.00012839,0
 .00374539,0.00022816,-0.00037519,0.00014836,0.00047229,0.00036400,-0.0
 0003749,-0.01272956,0.00113009,-0.00697489,-0.40063777,-0.11873567,0.0
 0863249,-0.00002577,-0.00006755,0.00044383,0.00000218,0.00006517,0.000
 05555,0.00003709,-0.00006433,0.00002747,-0.00008090,0.00011900,0.00013
 352,0.00011606,-0.00019498,-0.00000022,0.00001251,0.00003764,0.0000104
 3,-0.00004575,-0.00012117,0.00007857,0.00001707,-0.00001011,0.00009110
 ,0.00008058,0.00010767,0.00015970,0.00074833,-0.00048496,-0.00080345,0
 .00118845,0.00066263,-0.00021383,0.41550499,0.00044532,0.00017974,0.00
 014707,0.00144542,-0.00012438,-0.00133302,0.00018083,0.00033826,-0.000
 19143,-0.00021451,0.00000137,-0.00028459,-0.00120039,-0.00273803,0.004
 40300,-0.07409984,-0.05074481,-0.01985616,0.00008239,0.00006565,-0.000
 19918,-0.00001934,-0.00004099,-0.00002697,-0.00007161,0.00000777,-0.00
 003921,0.00007720,-0.00012502,-0.00023111,-0.00029760,0.00038811,-0.00
 004132,0.00005488,-0.00011766,-0.00003395,0.00005698,0.00008689,-0.000
 14071,0.00004005,0.00010008,0.00021667,-0.00017677,-0.00026129,0.00029
 915,-0.00066274,-0.00008662,-0.00018952,0.00080099,0.00055499,-0.00072
 877,0.11204448,0.06515509,0.00195038,-0.00001285,0.00027410,-0.0007211
 8,0.00059259,-0.00647470,-0.00039152,0.00030734,-0.00004652,-0.0008725
 6,-0.00027689,-0.00061752,0.04005442,0.01076936,-0.00428986,-0.0175682
 9,-0.02763856,-0.04356761,0.00026086,-0.00002432,-0.00064066,-0.000013
 46,-0.00005721,0.00002382,-0.00000121,0.00004106,0.00005387,-0.0000065
 6,-0.00000050,0.00011458,0.00016804,-0.00034686,0.00016277,0.00001419,
 -0.00003064,0.00007539,0.00004259,0.00003590,0.00006830,-0.00005269,-0
 .00001833,0.00027684,0.00026679,0.00018189,0.00059345,0.00005209,0.000
 43073,-0.00019410,-0.00019325,-0.00059650,0.00146308,-0.00428037,0.018
 90711,0.05337262,-0.00050843,-0.00046937,-0.00004551,0.00086726,0.0015
 3521,0.00124306,-0.00054477,-0.00006653,-0.00010024,0.00018531,-0.0003
 4547,0.00132191,0.00151729,0.01369867,0.00079532,-0.04650310,-0.011165
 67,0.01822657,-0.00016146,-0.00006305,0.00009353,0.00002023,-0.0000928
 5,-0.00031593,0.00005141,0.00006201,-0.00001040,0.00006991,-0.00022163
 ,-0.00013697,0.00017212,0.00018267,0.00019408,-0.00014875,0.00005747,0
 .00007026,-0.00005999,-0.00010652,0.00006921,0.00024033,-0.00007465,-0
 .00070526,-0.00197007,-0.00026009,-0.00097289,0.00039030,-0.00128976,0
 .00062870,-0.00016669,0.00013036,0.00232323,-0.00424245,-0.03848572,-0
 .01870824,0.05079155,0.00024335,0.00007180,-0.00007606,-0.00005687,-0.
 00039792,-0.00086259,0.00029084,0.00001123,-0.00001359,-0.00054540,0.0
 0019583,-0.00095764,0.00127476,0.00087445,0.00844608,-0.04328835,-0.35
 232464,-0.17141626,0.00002067,0.00002575,-0.00006254,0.00002286,0.0000
 1420,0.00006953,-0.00000123,-0.00002368,0.00003458,-0.00005265,0.00006
 091,0.00014329,-0.00005710,-0.00015633,-0.00016598,0.00007034,0.000022
 49,-0.00006591,-0.00004829,-0.00030006,0.00025780,0.00000930,-0.000113
 61,0.00040277,-0.00022705,0.00023013,0.00069072,-0.00004222,0.00238338
 ,0.00054477,0.00004999,0.00207664,0.00089556,0.00536215,-0.01263915,-0
 .00226329,0.03697491,0.35998858,-0.00004822,-0.00012178,-0.00003993,-0
 .00016829,-0.00014338,0.00001835,-0.00040515,-0.00000534,-0.00006731,0
 .00018925,-0.00015675,0.00065842,-0.00224396,-0.03599696,-0.02180256,0
 .00565690,-0.12914902,-0.09979997,0.00004134,0.00017628,0.00003275,-0.
 00000833,0.00012764,0.00016164,0.00003026,0.00008811,-0.00011147,0.000
 00421,0.00009298,-0.00008283,0.00017937,0.00010346,0.00015619,-0.00005
 562,0.00002308,0.00008584,0.00014448,0.00039260,-0.00030358,-0.0001478
 5,0.00024082,0.00006590,-0.00030256,-0.00011524,0.00037847,-0.00137136
 ,-0.00020967,0.00245468,0.00339035,0.00093146,-0.00645108,-0.00091438,
 -0.00067705,-0.00064786,-0.00397042,0.16439875,0.12529434\\0.00000149,
 -0.00000644,-0.00001137,-0.00001227,-0.00000111,0.00001997,0.00000552,
 0.00001338,-0.00000574,0.00000095,0.00000052,-0.00000314,0.00002924,0.
 00002357,-0.00006041,-0.00002032,-0.00000756,0.00004347,0.00000026,-0.
 00000324,-0.00000008,-0.00000049,0.00000090,0.00000308,0.00000179,-0.0
 0000227,0.00000125,-0.00000660,-0.00000597,0.00000323,-0.00000351,-0.0
 0000595,0.00000105,-0.00000608,-0.00000241,-0.00000040,0.00000461,-0.0
 0000234,-0.00000155,0.00000029,-0.00000099,-0.00000080,0.00000589,-0.0
 0000322,-0.00000331,-0.00000217,-0.00000677,0.00000833,-0.00000237,-0.
 00000228,0.00001278,-0.00000332,0.00001025,-0.00000514,0.00000709,0.00
 000193,-0.00000123\\\@
 Job cpu time:       0 days  5 hours 51 minutes  4.2 seconds.
 File lengths (MBytes):  RWF=   7883 Int=      0 D2E=      0 Chk=     49 Scr=      1
 Normal termination of Gaussian 09 at Fri Aug 26 14:25:54 2022.
