 Entering Gaussian System, Link 0=g09
 Input=G4.Frag_967.gjf
 Output=G4.Frag_967.log
 Initial command:
 /public/home/users/caep010/software/Gaussian09/g09/l1.exe "/public/home/users/caep010/.cache/gau_scr/Gau-14286.inp" -scrdir="/public/home/users/caep010/.cache/gau_scr/"
 Entering Link 1 = /public/home/users/caep010/software/Gaussian09/g09/l1.exe PID=     14287.
  
 Copyright (c) 1988,1990,1992,1993,1995,1998,2003,2009,2015,
            Gaussian, Inc.  All Rights Reserved.
  
 This is part of the Gaussian(R) 09 program.  It is based on
 the Gaussian(R) 03 system (copyright 2003, Gaussian, Inc.),
 the Gaussian(R) 98 system (copyright 1998, Gaussian, Inc.),
 the Gaussian(R) 94 system (copyright 1995, Gaussian, Inc.),
 the Gaussian 92(TM) system (copyright 1992, Gaussian, Inc.),
 the Gaussian 90(TM) system (copyright 1990, Gaussian, Inc.),
 the Gaussian 88(TM) system (copyright 1988, Gaussian, Inc.),
 the Gaussian 86(TM) system (copyright 1986, Carnegie Mellon
 University), and the Gaussian 82(TM) system (copyright 1983,
 Carnegie Mellon University). Gaussian is a federally registered
 trademark of Gaussian, Inc.
  
 This software contains proprietary and confidential information,
 including trade secrets, belonging to Gaussian, Inc.
  
 This software is provided under written license and may be
 used, copied, transmitted, or stored only in accord with that
 written license.
  
 The following legend is applicable only to US Government
 contracts under FAR:
  
                    RESTRICTED RIGHTS LEGEND
  
 Use, reproduction and disclosure by the US Government is
 subject to restrictions as set forth in subparagraphs (a)
 and (c) of the Commercial Computer Software - Restricted
 Rights clause in FAR 52.227-19.
  
 Gaussian, Inc.
 340 Quinnipiac St., Bldg. 40, Wallingford CT 06492
  
  
 ---------------------------------------------------------------
 Warning -- This program may not be used in any manner that
 competes with the business of Gaussian, Inc. or will provide
 assistance to any competitor of Gaussian, Inc.  The licensee
 of this program is prohibited from giving any competitor of
 Gaussian, Inc. access to this program.  By using this program,
 the user acknowledges that Gaussian, Inc. is engaged in the
 business of creating and licensing software in the field of
 computational chemistry and represents and warrants to the
 licensee that it is not a competitor of Gaussian, Inc. and that
 it will not use this program in any manner prohibited above.
 ---------------------------------------------------------------
  

 Cite this work as:
 Gaussian 09, Revision E.01,
 M. J. Frisch, G. W. Trucks, H. B. Schlegel, G. E. Scuseria, 
 M. A. Robb, J. R. Cheeseman, G. Scalmani, V. Barone, B. Mennucci, 
 G. A. Petersson, H. Nakatsuji, M. Caricato, X. Li, H. P. Hratchian, 
 A. F. Izmaylov, J. Bloino, G. Zheng, J. L. Sonnenberg, M. Hada, 
 M. Ehara, K. Toyota, R. Fukuda, J. Hasegawa, M. Ishida, T. Nakajima, 
 Y. Honda, O. Kitao, H. Nakai, T. Vreven, J. A. Montgomery, Jr., 
 J. E. Peralta, F. Ogliaro, M. Bearpark, J. J. Heyd, E. Brothers, 
 K. N. Kudin, V. N. Staroverov, T. Keith, R. Kobayashi, J. Normand, 
 K. Raghavachari, A. Rendell, J. C. Burant, S. S. Iyengar, J. Tomasi, 
 M. Cossi, N. Rega, J. M. Millam, M. Klene, J. E. Knox, J. B. Cross, 
 V. Bakken, C. Adamo, J. Jaramillo, R. Gomperts, R. E. Stratmann, 
 O. Yazyev, A. J. Austin, R. Cammi, C. Pomelli, J. W. Ochterski, 
 R. L. Martin, K. Morokuma, V. G. Zakrzewski, G. A. Voth, 
 P. Salvador, J. J. Dannenberg, S. Dapprich, A. D. Daniels, 
 O. Farkas, J. B. Foresman, J. V. Ortiz, J. Cioslowski, 
 and D. J. Fox, Gaussian, Inc., Wallingford CT, 2013.
 
 ******************************************
 Gaussian 09:  ES64L-G09RevE.01 30-Nov-2015
                26-Aug-2022 
 ******************************************
 %nproc=32
 Will use up to   32 processors via shared memory.
 %mem=180GB
 %chk=G4.Frag_967.chk
 -----
 #P G4
 -----
 1/14=-1,18=20,19=15,26=3,38=1/1,3;
 2/9=110,12=2,17=6,18=5,40=1/2;
 3/5=35,7=104,11=2,16=1,25=1,30=1,71=1,74=-5/1,2,3;
 4//1;
 5/5=2,38=5/2;
 6/7=2,8=2,9=2,10=2,28=1/1;
 7//1,2,3,16;
 1/14=-1,18=20,19=15,26=3/3(2);
 2/9=110/2;
 99//99;
 2/9=110/2;
 3/5=35,7=104,11=2,16=1,25=1,30=1,71=1,74=-5/1,2,3;
 4/5=5,16=3,69=1/1;
 5/5=2,38=5/2;
 7//1,2,3,16;
 1/14=-1,18=20,19=15,26=3/3(-5);
 2/9=110/2;
 6/7=2,8=2,9=2,10=2,19=2,28=1/1;
 99/9=1/99;
 Leave Link    1 at Fri Aug 26 15:18:05 2022, MaxMem= 24159191040 cpu:         2.3
 (Enter /public/home/users/caep010/software/Gaussian09/g09/l101.exe)
 --------
 Frag_967
 --------
 Symbolic Z-matrix:
 Charge =  0 Multiplicity = 1
 C                    -1.1249   -0.3027   -0.2918 
 C                     0.0206    0.6041    0.1459 
 O                     1.2105    0.2557   -0.5196 
 O                     1.7167   -0.7788    0.1275 
 H                    -2.0671    0.0228    0.1973 
 H                    -0.9161   -1.3538   -0.0006 
 H                    -1.2536   -0.2475   -1.3936 
 H                     0.1409    0.5674    1.2537 
 H                    -0.2356    1.6509   -0.1219 
 H                     2.5086   -0.4181    0.6032 
 
 NAtoms=     10 NQM=       10 NQMF=       0 NMMI=      0 NMMIF=      0
                NMic=       0 NMicF=      0.
                    Isotopes and Nuclear Properties:
 (Nuclear quadrupole moments (NQMom) in fm**2, nuclear magnetic moments (NMagM)
  in nuclear magnetons)

  Atom         1           2           3           4           5           6           7           8           9          10
 IAtWgt=          12          12          16          16           1           1           1           1           1           1
 AtmWgt=  12.0000000  12.0000000  15.9949146  15.9949146   1.0078250   1.0078250   1.0078250   1.0078250   1.0078250   1.0078250
 NucSpn=           0           0           0           0           1           1           1           1           1           1
 AtZEff=   0.0000000   0.0000000   0.0000000   0.0000000   0.0000000   0.0000000   0.0000000   0.0000000   0.0000000   0.0000000
 NQMom=    0.0000000   0.0000000   0.0000000   0.0000000   0.0000000   0.0000000   0.0000000   0.0000000   0.0000000   0.0000000
 NMagM=    0.0000000   0.0000000   0.0000000   0.0000000   2.7928460   2.7928460   2.7928460   2.7928460   2.7928460   2.7928460
 AtZNuc=   6.0000000   6.0000000   8.0000000   8.0000000   1.0000000   1.0000000   1.0000000   1.0000000   1.0000000   1.0000000
 Leave Link  101 at Fri Aug 26 15:18:05 2022, MaxMem= 24159191040 cpu:         9.9
 (Enter /public/home/users/caep010/software/Gaussian09/g09/l103.exe)

 GradGradGradGradGradGradGradGradGradGradGradGradGradGradGradGradGradGrad
 Berny optimization.
 Initialization pass.
                           ----------------------------
                           !    Initial Parameters    !
                           ! (Angstroms and Degrees)  !
 --------------------------                            --------------------------
 ! Name  Definition              Value          Derivative Info.                !
 --------------------------------------------------------------------------------
 ! R1    R(1,2)                  1.5251         estimate D2E/DX2                !
 ! R2    R(1,5)                  1.1104         estimate D2E/DX2                !
 ! R3    R(1,6)                  1.1105         estimate D2E/DX2                !
 ! R4    R(1,7)                  1.1107         estimate D2E/DX2                !
 ! R5    R(2,3)                  1.4072         estimate D2E/DX2                !
 ! R6    R(2,8)                  1.1149         estimate D2E/DX2                !
 ! R7    R(2,9)                  1.1105         estimate D2E/DX2                !
 ! R8    R(3,4)                  1.321          estimate D2E/DX2                !
 ! R9    R(4,10)                 0.9917         estimate D2E/DX2                !
 ! A1    A(2,1,5)              109.6709         estimate D2E/DX2                !
 ! A2    A(2,1,6)              110.2606         estimate D2E/DX2                !
 ! A3    A(2,1,7)              110.0099         estimate D2E/DX2                !
 ! A4    A(5,1,6)              108.7542         estimate D2E/DX2                !
 ! A5    A(5,1,7)              108.9095         estimate D2E/DX2                !
 ! A6    A(6,1,7)              109.2057         estimate D2E/DX2                !
 ! A7    A(1,2,3)              110.6204         estimate D2E/DX2                !
 ! A8    A(1,2,8)              110.2813         estimate D2E/DX2                !
 ! A9    A(1,2,9)              108.5411         estimate D2E/DX2                !
 ! A10   A(3,2,8)              111.748          estimate D2E/DX2                !
 ! A11   A(3,2,9)              108.3264         estimate D2E/DX2                !
 ! A12   A(8,2,9)              107.1901         estimate D2E/DX2                !
 ! A13   A(2,3,4)              106.6329         estimate D2E/DX2                !
 ! A14   A(3,4,10)             104.8398         estimate D2E/DX2                !
 ! D1    D(5,1,2,3)           -176.7342         estimate D2E/DX2                !
 ! D2    D(5,1,2,8)             59.1336         estimate D2E/DX2                !
 ! D3    D(5,1,2,9)            -58.013          estimate D2E/DX2                !
 ! D4    D(6,1,2,3)             63.5361         estimate D2E/DX2                !
 ! D5    D(6,1,2,8)            -60.5962         estimate D2E/DX2                !
 ! D6    D(6,1,2,9)           -177.7427         estimate D2E/DX2                !
 ! D7    D(7,1,2,3)            -56.9687         estimate D2E/DX2                !
 ! D8    D(7,1,2,8)            178.8991         estimate D2E/DX2                !
 ! D9    D(7,1,2,9)             61.7525         estimate D2E/DX2                !
 ! D10   D(1,2,3,4)            -81.1459         estimate D2E/DX2                !
 ! D11   D(8,2,3,4)             42.1418         estimate D2E/DX2                !
 ! D12   D(9,2,3,4)            160.0026         estimate D2E/DX2                !
 ! D13   D(2,3,4,10)          -107.9216         estimate D2E/DX2                !
 --------------------------------------------------------------------------------
 Trust Radius=3.00D-01 FncErr=1.00D-07 GrdErr=1.00D-06
 Number of steps in this run=     46 maximum allowed number of steps=    100.
 GradGradGradGradGradGradGradGradGradGradGradGradGradGradGradGradGradGrad

 Leave Link  103 at Fri Aug 26 15:18:06 2022, MaxMem= 24159191040 cpu:         0.5
 (Enter /public/home/users/caep010/software/Gaussian09/g09/l202.exe)
                          Input orientation:                          
 ---------------------------------------------------------------------
 Center     Atomic      Atomic             Coordinates (Angstroms)
 Number     Number       Type             X           Y           Z
 ---------------------------------------------------------------------
      1          6           0       -1.124900   -0.302700   -0.291800
      2          6           0        0.020600    0.604100    0.145900
      3          8           0        1.210500    0.255700   -0.519600
      4          8           0        1.716700   -0.778800    0.127500
      5          1           0       -2.067100    0.022800    0.197300
      6          1           0       -0.916100   -1.353800   -0.000600
      7          1           0       -1.253600   -0.247500   -1.393600
      8          1           0        0.140900    0.567400    1.253700
      9          1           0       -0.235600    1.650900   -0.121900
     10          1           0        2.508600   -0.418100    0.603200
 ---------------------------------------------------------------------
                    Distance matrix (angstroms):
                    1          2          3          4          5
     1  C    0.000000
     2  C    1.525135   0.000000
     3  O    2.412011   1.407173   0.000000
     4  O    2.911559   2.188494   1.321048   0.000000
     5  H    1.110365   2.167728   3.363161   3.868408   0.000000
     6  H    1.110498   2.175372   2.717035   2.697901   1.805268
     7  H    1.110664   2.172296   2.662494   3.379158   1.807154
     8  H    2.178966   1.114917   2.094229   2.358755   2.507555
     9  H    2.153201   1.110471   2.048403   3.126838   2.471233
    10  H    3.743884   2.728399   1.843841   0.991716   4.614778
                    6          7          8          9         10
     6  H    0.000000
     7  H    1.810595   0.000000
     8  H    2.526168   3.101111   0.000000
     9  H    3.083183   2.501493   1.791089   0.000000
    10  H    3.601205   4.262683   2.645820   3.512430   0.000000
 Stoichiometry    C2H6O2
 Framework group  C1[X(C2H6O2)]
 Deg. of freedom    24
 Full point group                 C1      NOp   1
 Largest Abelian subgroup         C1      NOp   1
 Largest concise Abelian subgroup C1      NOp   1
                         Standard orientation:                         
 ---------------------------------------------------------------------
 Center     Atomic      Atomic             Coordinates (Angstroms)
 Number     Number       Type             X           Y           Z
 ---------------------------------------------------------------------
      1          6           0       -1.528847   -0.447726   -0.071648
      2          6           0       -0.485275    0.606726    0.282084
      3          8           0        0.686801    0.416870   -0.473116
      4          8           0        1.374407   -0.536831    0.129229
      5          1           0       -2.466440   -0.248432    0.488808
      6          1           0       -1.159791   -1.459731    0.198262
      7          1           0       -1.746714   -0.416603   -1.160289
      8          1           0       -0.277731    0.592846    1.377425
      9          1           0       -0.898822    1.608261    0.039076
     10          1           0        2.144568   -0.070659    0.545205
 ---------------------------------------------------------------------
 Rotational constants (GHZ):     17.9224188      5.4318143      4.8558557
 Leave Link  202 at Fri Aug 26 15:18:06 2022, MaxMem= 24159191040 cpu:         0.5
 (Enter /public/home/users/caep010/software/Gaussian09/g09/l301.exe)
 Standard basis: GTBas3 (6D, 7F)
 Ernie: Thresh=  0.10000D-02 Tol=  0.10000D-05 Strict=F.
 There are   154 symmetry adapted cartesian basis functions of A   symmetry.
 There are   142 symmetry adapted basis functions of A   symmetry.
   142 basis functions,   218 primitive gaussians,   154 cartesian basis functions
    17 alpha electrons       17 beta electrons
       nuclear repulsion energy       135.8766814688 Hartrees.
 IExCor=  402 DFT=T Ex+Corr=B3LYP ExCW=0 ScaHFX=  0.200000
 ScaDFX=  0.800000  0.720000  1.000000  0.810000 ScalE2=  1.000000  1.000000
 IRadAn=      0 IRanWt=     -1 IRanGd=            0 ICorTp=0 IEmpDi=  4
 NAtoms=   10 NActive=   10 NUniq=   10 SFac= 1.00D+00 NAtFMM=   60 NAOKFM=F Big=F
 Integral buffers will be    131072 words long.
 Raffenetti 2 integral format.
 Two-electron integral symmetry is turned on.
 Leave Link  301 at Fri Aug 26 15:18:06 2022, MaxMem= 24159191040 cpu:         2.3
 (Enter /public/home/users/caep010/software/Gaussian09/g09/l302.exe)
 NPDir=0 NMtPBC=     1 NCelOv=     1 NCel=       1 NClECP=     1 NCelD=      1
         NCelK=      1 NCelE2=     1 NClLst=     1 CellRange=     0.0.
 One-electron integrals computed using PRISM.
 NBasis=   142 RedAO= T EigKep=  1.17D-03  NBF=   142
 NBsUse=   142 1.00D-06 EigRej= -1.00D+00 NBFU=   142
 Precomputing XC quadrature grid using
 IXCGrd= 4 IRadAn=           0 IRanWt=          -1 IRanGd=           0 AccXCQ= 0.00D+00.
 Generated NRdTot=       0 NPtTot=           0 NUsed=           0 NTot=          32
 NSgBfM=   154   154   154   154   154 MxSgAt=    10 MxSgA2=    10.
 Leave Link  302 at Fri Aug 26 15:18:06 2022, MaxMem= 24159191040 cpu:        16.5
 (Enter /public/home/users/caep010/software/Gaussian09/g09/l303.exe)
 DipDrv:  MaxL=1.
 Leave Link  303 at Fri Aug 26 15:18:07 2022, MaxMem= 24159191040 cpu:         0.7
 (Enter /public/home/users/caep010/software/Gaussian09/g09/l401.exe)
 ExpMin= 1.61D-01 ExpMax= 5.48D+03 ExpMxC= 8.25D+02 IAcc=1 IRadAn=         1 AccDes= 0.00D+00
 Harris functional with IExCor=  402 and IRadAn=       1 diagonalized for initial guess.
 HarFok:  IExCor=  402 AccDes= 0.00D+00 IRadAn=         1 IDoV= 1 UseB2=F ITyADJ=14
 ICtDFT=  3500011 ScaDFX=  1.000000  1.000000  1.000000  1.000000
 FoFCou: FMM=F IPFlag=           0 FMFlag=      100000 FMFlg1=           0
         NFxFlg=           0 DoJE=T BraDBF=F KetDBF=T FulRan=T
         wScrn=  0.000000 ICntrl=     500 IOpCl=  0 I1Cent=   200000004 NGrid=           0
         NMat0=    1 NMatS0=      1 NMatT0=    0 NMatD0=    1 NMtDS0=    0 NMtDT0=    0
 Petite list used in FoFCou.
 Harris En= -230.206487678421    
 JPrj=0 DoOrth=F DoCkMO=F.
 Leave Link  401 at Fri Aug 26 15:18:07 2022, MaxMem= 24159191040 cpu:        12.8
 (Enter /public/home/users/caep010/software/Gaussian09/g09/l502.exe)
 Closed shell SCF:
 Using DIIS extrapolation, IDIIS=  1040.
 Integral symmetry usage will be decided dynamically.
 Keep R1 ints in memory in canonical form, NReq=53641671.
 IVT=       95754 IEndB=       95754 NGot= 24159191040 MDV= 24107548506
 LenX= 24107548506 LenY= 24107524349
 Requested convergence on RMS density matrix=1.00D-08 within 128 cycles.
 Requested convergence on MAX density matrix=1.00D-06.
 Requested convergence on             energy=1.00D-06.
 No special actions if energy rises.
 FoFCou: FMM=F IPFlag=           0 FMFlag=           0 FMFlg1=           0
         NFxFlg=           0 DoJE=F BraDBF=F KetDBF=F FulRan=T
         wScrn=  0.000000 ICntrl=     600 IOpCl=  0 I1Cent=           0 NGrid=           0
         NMat0=    1 NMatS0=  10153 NMatT0=    0 NMatD0=    1 NMtDS0=    0 NMtDT0=    0
 Symmetry not used in FoFCou.
 Integral accuracy reduced to 1.0D-05 until final iterations.

 Cycle   1  Pass 0  IDiag  1:
 E= -230.064021049063    
 DIIS: error= 2.44D-02 at cycle   1 NSaved=   1.
 NSaved= 1 IEnMin= 1 EnMin= -230.064021049063     IErMin= 1 ErrMin= 2.44D-02
 ErrMax= 2.44D-02  0.00D+00 EMaxC= 1.00D-01 BMatC= 1.18D-01 BMatP= 1.18D-01
 IDIUse=3 WtCom= 7.56D-01 WtEn= 2.44D-01
 Coeff-Com:  0.100D+01
 Coeff-En:   0.100D+01
 Coeff:      0.100D+01
 Gap=     0.343 Goal=   None    Shift=    0.000
 GapD=    0.343 DampG=1.000 DampE=0.500 DampFc=0.5000 IDamp=-1.
 Damping current iteration by 5.00D-01
 RMSDP=5.07D-03 MaxDP=1.30D-01              OVMax= 1.57D-01

 Cycle   2  Pass 0  IDiag  1:
 E= -230.114968769462     Delta-E=       -0.050947720399 Rises=F Damp=T
 DIIS: error= 6.74D-03 at cycle   2 NSaved=   2.
 NSaved= 2 IEnMin= 2 EnMin= -230.114968769462     IErMin= 2 ErrMin= 6.74D-03
 ErrMax= 6.74D-03  0.00D+00 EMaxC= 1.00D-01 BMatC= 7.73D-03 BMatP= 1.18D-01
 IDIUse=3 WtCom= 9.33D-01 WtEn= 6.74D-02
 Coeff-Com:  0.497D-01 0.950D+00
 Coeff-En:   0.944D-01 0.906D+00
 Coeff:      0.527D-01 0.947D+00
 Gap=     0.319 Goal=   None    Shift=    0.000
 RMSDP=7.29D-04 MaxDP=2.03D-02 DE=-5.09D-02 OVMax= 8.67D-02

 Cycle   3  Pass 0  IDiag  1:
 E= -230.175022378620     Delta-E=       -0.060053609158 Rises=F Damp=F
 DIIS: error= 2.06D-03 at cycle   3 NSaved=   3.
 NSaved= 3 IEnMin= 3 EnMin= -230.175022378620     IErMin= 3 ErrMin= 2.06D-03
 ErrMax= 2.06D-03  0.00D+00 EMaxC= 1.00D-01 BMatC= 2.32D-03 BMatP= 7.73D-03
 IDIUse=3 WtCom= 9.79D-01 WtEn= 2.06D-02
 Coeff-Com: -0.214D-01 0.329D+00 0.692D+00
 Coeff-En:   0.000D+00 0.000D+00 0.100D+01
 Coeff:     -0.210D-01 0.323D+00 0.698D+00
 Gap=     0.321 Goal=   None    Shift=    0.000
 RMSDP=2.98D-04 MaxDP=1.08D-02 DE=-6.01D-02 OVMax= 1.21D-02

 Cycle   4  Pass 0  IDiag  1:
 E= -230.176036434017     Delta-E=       -0.001014055397 Rises=F Damp=F
 DIIS: error= 1.35D-03 at cycle   4 NSaved=   4.
 NSaved= 4 IEnMin= 4 EnMin= -230.176036434017     IErMin= 4 ErrMin= 1.35D-03
 ErrMax= 1.35D-03  0.00D+00 EMaxC= 1.00D-01 BMatC= 8.82D-04 BMatP= 2.32D-03
 IDIUse=3 WtCom= 9.87D-01 WtEn= 1.35D-02
 Coeff-Com: -0.132D-01 0.108D+00 0.411D+00 0.494D+00
 Coeff-En:   0.000D+00 0.000D+00 0.263D+00 0.737D+00
 Coeff:     -0.131D-01 0.106D+00 0.409D+00 0.497D+00
 Gap=     0.316 Goal=   None    Shift=    0.000
 RMSDP=1.52D-04 MaxDP=5.78D-03 DE=-1.01D-03 OVMax= 5.49D-03

 Cycle   5  Pass 0  IDiag  1:
 E= -230.176601599096     Delta-E=       -0.000565165079 Rises=F Damp=F
 DIIS: error= 2.73D-04 at cycle   5 NSaved=   5.
 NSaved= 5 IEnMin= 5 EnMin= -230.176601599096     IErMin= 5 ErrMin= 2.73D-04
 ErrMax= 2.73D-04  0.00D+00 EMaxC= 1.00D-01 BMatC= 4.17D-05 BMatP= 8.82D-04
 IDIUse=3 WtCom= 9.97D-01 WtEn= 2.73D-03
 Coeff-Com: -0.249D-02 0.650D-02 0.101D+00 0.232D+00 0.663D+00
 Coeff-En:   0.000D+00 0.000D+00 0.000D+00 0.000D+00 0.100D+01
 Coeff:     -0.249D-02 0.649D-02 0.101D+00 0.231D+00 0.664D+00
 Gap=     0.317 Goal=   None    Shift=    0.000
 RMSDP=3.24D-05 MaxDP=9.04D-04 DE=-5.65D-04 OVMax= 1.03D-03

 Cycle   6  Pass 0  IDiag  1:
 E= -230.176632015665     Delta-E=       -0.000030416569 Rises=F Damp=F
 DIIS: error= 4.14D-05 at cycle   6 NSaved=   6.
 NSaved= 6 IEnMin= 6 EnMin= -230.176632015665     IErMin= 6 ErrMin= 4.14D-05
 ErrMax= 4.14D-05  0.00D+00 EMaxC= 1.00D-01 BMatC= 3.59D-07 BMatP= 4.17D-05
 IDIUse=1 WtCom= 1.00D+00 WtEn= 0.00D+00
 Coeff-Com: -0.574D-03 0.622D-03 0.289D-01 0.730D-01 0.233D+00 0.665D+00
 Coeff:     -0.574D-03 0.622D-03 0.289D-01 0.730D-01 0.233D+00 0.665D+00
 Gap=     0.317 Goal=   None    Shift=    0.000
 RMSDP=5.02D-06 MaxDP=1.35D-04 DE=-3.04D-05 OVMax= 1.57D-04

 Initial convergence to 1.0D-05 achieved.  Increase integral accuracy.
 Cycle   7  Pass 1  IDiag  1:
 E= -230.176625712151     Delta-E=        0.000006303514 Rises=F Damp=F
 DIIS: error= 1.12D-05 at cycle   1 NSaved=   1.
 NSaved= 1 IEnMin= 1 EnMin= -230.176625712151     IErMin= 1 ErrMin= 1.12D-05
 ErrMax= 1.12D-05  0.00D+00 EMaxC= 1.00D-01 BMatC= 7.42D-08 BMatP= 7.42D-08
 IDIUse=1 WtCom= 1.00D+00 WtEn= 0.00D+00
 Coeff-Com:  0.100D+01
 Coeff:      0.100D+01
 Gap=     0.317 Goal=   None    Shift=    0.000
 RMSDP=5.02D-06 MaxDP=1.35D-04 DE= 6.30D-06 OVMax= 1.08D-04

 Cycle   8  Pass 1  IDiag  1:
 E= -230.176625706478     Delta-E=        0.000000005673 Rises=F Damp=F
 DIIS: error= 1.83D-05 at cycle   2 NSaved=   2.
 NSaved= 2 IEnMin= 1 EnMin= -230.176625712151     IErMin= 1 ErrMin= 1.12D-05
 ErrMax= 1.83D-05  0.00D+00 EMaxC= 1.00D-01 BMatC= 8.22D-08 BMatP= 7.42D-08
 IDIUse=1 WtCom= 1.00D+00 WtEn= 0.00D+00
 Coeff-Com:  0.514D+00 0.486D+00
 Coeff:      0.514D+00 0.486D+00
 Gap=     0.317 Goal=   None    Shift=    0.000
 RMSDP=2.05D-06 MaxDP=5.40D-05 DE= 5.67D-09 OVMax= 6.54D-05

 Cycle   9  Pass 1  IDiag  1:
 E= -230.176625771267     Delta-E=       -0.000000064790 Rises=F Damp=F
 DIIS: error= 2.42D-06 at cycle   3 NSaved=   3.
 NSaved= 3 IEnMin= 3 EnMin= -230.176625771267     IErMin= 3 ErrMin= 2.42D-06
 ErrMax= 2.42D-06  0.00D+00 EMaxC= 1.00D-01 BMatC= 1.73D-09 BMatP= 7.42D-08
 IDIUse=1 WtCom= 1.00D+00 WtEn= 0.00D+00
 Coeff-Com:  0.147D-02 0.119D+00 0.879D+00
 Coeff:      0.147D-02 0.119D+00 0.879D+00
 Gap=     0.317 Goal=   None    Shift=    0.000
 RMSDP=2.98D-07 MaxDP=7.64D-06 DE=-6.48D-08 OVMax= 1.01D-05

 Cycle  10  Pass 1  IDiag  1:
 E= -230.176625772339     Delta-E=       -0.000000001072 Rises=F Damp=F
 DIIS: error= 1.11D-06 at cycle   4 NSaved=   4.
 NSaved= 4 IEnMin= 4 EnMin= -230.176625772339     IErMin= 4 ErrMin= 1.11D-06
 ErrMax= 1.11D-06  0.00D+00 EMaxC= 1.00D-01 BMatC= 3.08D-10 BMatP= 1.73D-09
 IDIUse=1 WtCom= 1.00D+00 WtEn= 0.00D+00
 Coeff-Com: -0.127D-01 0.519D-01 0.479D+00 0.482D+00
 Coeff:     -0.127D-01 0.519D-01 0.479D+00 0.482D+00
 Gap=     0.317 Goal=   None    Shift=    0.000
 RMSDP=1.04D-07 MaxDP=3.80D-06 DE=-1.07D-09 OVMax= 3.17D-06

 Cycle  11  Pass 1  IDiag  1:
 E= -230.176625772596     Delta-E=       -0.000000000258 Rises=F Damp=F
 DIIS: error= 9.11D-08 at cycle   5 NSaved=   5.
 NSaved= 5 IEnMin= 5 EnMin= -230.176625772596     IErMin= 5 ErrMin= 9.11D-08
 ErrMax= 9.11D-08  0.00D+00 EMaxC= 1.00D-01 BMatC= 3.75D-12 BMatP= 3.08D-10
 IDIUse=1 WtCom= 1.00D+00 WtEn= 0.00D+00
 Coeff-Com: -0.447D-02 0.141D-01 0.137D+00 0.176D+00 0.678D+00
 Coeff:     -0.447D-02 0.141D-01 0.137D+00 0.176D+00 0.678D+00
 Gap=     0.317 Goal=   None    Shift=    0.000
 RMSDP=1.15D-08 MaxDP=4.39D-07 DE=-2.58D-10 OVMax= 3.87D-07

 Cycle  12  Pass 1  IDiag  1:
 E= -230.176625772599     Delta-E=       -0.000000000003 Rises=F Damp=F
 DIIS: error= 3.92D-08 at cycle   6 NSaved=   6.
 NSaved= 6 IEnMin= 6 EnMin= -230.176625772599     IErMin= 6 ErrMin= 3.92D-08
 ErrMax= 3.92D-08  0.00D+00 EMaxC= 1.00D-01 BMatC= 7.80D-13 BMatP= 3.75D-12
 IDIUse=1 WtCom= 1.00D+00 WtEn= 0.00D+00
 Coeff-Com: -0.158D-02 0.405D-02 0.413D-01 0.624D-01 0.371D+00 0.523D+00
 Coeff:     -0.158D-02 0.405D-02 0.413D-01 0.624D-01 0.371D+00 0.523D+00
 Gap=     0.317 Goal=   None    Shift=    0.000
 RMSDP=5.04D-09 MaxDP=1.85D-07 DE=-2.84D-12 OVMax= 1.76D-07

 SCF Done:  E(RB3LYP) =  -230.176625773     A.U. after   12 cycles
            NFock= 12  Conv=0.50D-08     -V/T= 2.0059
 KE= 2.288365384043D+02 PE=-8.119190488651D+02 EE= 2.170292032194D+02
 Leave Link  502 at Fri Aug 26 15:18:10 2022, MaxMem= 24159191040 cpu:        42.9
 (Enter /public/home/users/caep010/software/Gaussian09/g09/l601.exe)
 Copying SCF densities to generalized density rwf, IOpCl= 0 IROHF=0.

 **********************************************************************

            Population analysis using the SCF density.

 **********************************************************************

 Orbital symmetries:
       Occupied  (A) (A) (A) (A) (A) (A) (A) (A) (A) (A) (A) (A)
                 (A) (A) (A) (A) (A)
       Virtual   (A) (A) (A) (A) (A) (A) (A) (A) (A) (A) (A) (A)
                 (A) (A) (A) (A) (A) (A) (A) (A) (A) (A) (A) (A)
                 (A) (A) (A) (A) (A) (A) (A) (A) (A) (A) (A) (A)
                 (A) (A) (A) (A) (A) (A) (A) (A) (A) (A) (A) (A)
                 (A) (A) (A) (A) (A) (A) (A) (A) (A) (A) (A) (A)
                 (A) (A) (A) (A) (A) (A) (A) (A) (A) (A) (A) (A)
                 (A) (A) (A) (A) (A) (A) (A) (A) (A) (A) (A) (A)
                 (A) (A) (A) (A) (A) (A) (A) (A) (A) (A) (A) (A)
                 (A) (A) (A) (A) (A) (A) (A) (A) (A) (A) (A) (A)
                 (A) (A) (A) (A) (A) (A) (A) (A) (A) (A) (A) (A)
                 (A) (A) (A) (A) (A)
 The electronic state is 1-A.
 Alpha  occ. eigenvalues --  -19.18570 -19.18451 -10.22909 -10.17546  -1.17194
 Alpha  occ. eigenvalues --   -0.88925  -0.73266  -0.61870  -0.53359  -0.49227
 Alpha  occ. eigenvalues --   -0.47068  -0.40672  -0.39164  -0.37244  -0.33785
 Alpha  occ. eigenvalues --   -0.27833  -0.24756
 Alpha virt. eigenvalues --    0.06927   0.10879   0.12430   0.14620   0.15926
 Alpha virt. eigenvalues --    0.16608   0.18916   0.22495   0.23166   0.45858
 Alpha virt. eigenvalues --    0.49139   0.51167   0.52545   0.56682   0.59820
 Alpha virt. eigenvalues --    0.62850   0.65840   0.70534   0.72909   0.74109
 Alpha virt. eigenvalues --    0.74696   0.76028   0.77745   0.83824   0.85767
 Alpha virt. eigenvalues --    0.87847   0.89480   0.90761   0.93167   0.96422
 Alpha virt. eigenvalues --    1.00773   1.06759   1.09247   1.19027   1.22526
 Alpha virt. eigenvalues --    1.25813   1.36907   1.43232   1.48697   1.49741
 Alpha virt. eigenvalues --    1.56182   1.59615   1.61201   1.66182   1.71674
 Alpha virt. eigenvalues --    1.74423   1.82360   1.85948   1.92527   1.94360
 Alpha virt. eigenvalues --    1.96558   2.16373   2.19834   2.27752   2.33140
 Alpha virt. eigenvalues --    2.41352   2.45018   2.51526   2.61086   2.65606
 Alpha virt. eigenvalues --    2.70319   2.75290   2.76734   2.80069   2.86255
 Alpha virt. eigenvalues --    2.89261   2.91329   2.92665   2.98811   3.07204
 Alpha virt. eigenvalues --    3.20809   3.29645   3.35616   3.42281   3.51975
 Alpha virt. eigenvalues --    3.55967   3.59287   3.61437   3.72821   3.80406
 Alpha virt. eigenvalues --    3.87273   3.91961   4.00103   4.01871   4.11388
 Alpha virt. eigenvalues --    4.17927   4.28927   4.33076   4.39419   4.41663
 Alpha virt. eigenvalues --    4.42961   4.45564   4.51079   4.56995   4.59039
 Alpha virt. eigenvalues --    4.62360   4.66082   4.67768   4.71901   4.75557
 Alpha virt. eigenvalues --    4.77090   4.81054   4.86804   4.94052   4.97285
 Alpha virt. eigenvalues --    5.12131   5.17471   5.34099   5.36999   5.48708
 Alpha virt. eigenvalues --    5.58910   5.62562   5.71272   5.83121   5.90724
 Alpha virt. eigenvalues --    5.97969   6.07887   6.46350   6.58755   6.77113
 Alpha virt. eigenvalues --    7.44004  11.12490  11.88570  13.05507  13.37913
          Condensed to atoms (all electrons):
               1          2          3          4          5          6
     1  C    5.009796   0.404537  -0.056878   0.000397   0.353139   0.378227
     2  C    0.404537   4.710778   0.378355  -0.096396  -0.019299  -0.026873
     3  O   -0.056878   0.378355   7.808125   0.134754   0.003156  -0.003171
     4  O    0.000397  -0.096396   0.134754   7.950702  -0.000120   0.005584
     5  H    0.353139  -0.019299   0.003156  -0.000120   0.610159  -0.028789
     6  H    0.378227  -0.026873  -0.003171   0.005584  -0.028789   0.570697
     7  H    0.375173  -0.028559   0.001360   0.000197  -0.027271  -0.028922
     8  H   -0.048698   0.348052  -0.028345   0.011009   0.002142  -0.003752
     9  H   -0.045804   0.360812  -0.018386   0.004381  -0.000371   0.005161
    10  H   -0.000464  -0.005246  -0.065128   0.302292   0.000021  -0.000237
               7          8          9         10
     1  C    0.375173  -0.048698  -0.045804  -0.000464
     2  C   -0.028559   0.348052   0.360812  -0.005246
     3  O    0.001360  -0.028345  -0.018386  -0.065128
     4  O    0.000197   0.011009   0.004381   0.302292
     5  H   -0.027271   0.002142  -0.000371   0.000021
     6  H   -0.028922  -0.003752   0.005161  -0.000237
     7  H    0.582769   0.005423  -0.003745   0.000038
     8  H    0.005423   0.649389  -0.032571   0.005507
     9  H   -0.003745  -0.032571   0.627510  -0.000296
    10  H    0.000038   0.005507  -0.000296   0.459288
 Mulliken charges:
               1
     1  C   -0.369424
     2  C   -0.026160
     3  O   -0.153843
     4  O   -0.312799
     5  H    0.107235
     6  H    0.132076
     7  H    0.123536
     8  H    0.091844
     9  H    0.103310
    10  H    0.304225
 Sum of Mulliken charges =  -0.00000
 Mulliken charges with hydrogens summed into heavy atoms:
               1
     1  C   -0.006577
     2  C    0.168994
     3  O   -0.153843
     4  O   -0.008573
 Electronic spatial extent (au):  <R**2>=            299.0739
 Charge=             -0.0000 electrons
 Dipole moment (field-independent basis, Debye):
    X=              0.0205    Y=              0.8382    Z=              1.3541  Tot=              1.5926
 Quadrupole moment (field-independent basis, Debye-Ang):
   XX=            -20.9300   YY=            -25.3814   ZZ=            -24.7449
   XY=              0.3409   XZ=              2.2059   YZ=              0.4646
 Traceless Quadrupole moment (field-independent basis, Debye-Ang):
   XX=              2.7554   YY=             -1.6960   ZZ=             -1.0595
   XY=              0.3409   XZ=              2.2059   YZ=              0.4646
 Octapole moment (field-independent basis, Debye-Ang**2):
  XXX=             22.1618  YYY=              0.4219  ZZZ=             -0.6340  XYY=              1.6438
  XXY=              2.1161  XXZ=              4.4791  XZZ=              3.4433  YZZ=             -0.1092
  YYZ=             -0.2077  XYZ=              0.3510
 Hexadecapole moment (field-independent basis, Debye-Ang**3):
 XXXX=           -211.8484 YYYY=            -75.9491 ZZZZ=            -47.7005 XXXY=             -2.0757
 XXXZ=              8.7263 YYYX=             -3.0909 YYYZ=             -2.2151 ZZZX=              2.3242
 ZZZY=             -0.4564 XXYY=            -55.9303 XXZZ=            -45.5230 YYZZ=            -21.8105
 XXYZ=             -0.4940 YYXZ=              0.5617 ZZXY=             -0.8819
 N-N= 1.358766814688D+02 E-N=-8.119190482338D+02  KE= 2.288365384043D+02
 No NMR shielding tensors so no spin-rotation constants.
 Leave Link  601 at Fri Aug 26 15:18:10 2022, MaxMem= 24159191040 cpu:        13.1
 (Enter /public/home/users/caep010/software/Gaussian09/g09/l701.exe)
 Compute integral first derivatives.
 ... and contract with generalized density number  0.
 Leave Link  701 at Fri Aug 26 15:18:11 2022, MaxMem= 24159191040 cpu:        14.5
 (Enter /public/home/users/caep010/software/Gaussian09/g09/l702.exe)
 L702 exits ... SP integral derivatives will be done elsewhere.
 Leave Link  702 at Fri Aug 26 15:18:11 2022, MaxMem= 24159191040 cpu:         0.6
 (Enter /public/home/users/caep010/software/Gaussian09/g09/l703.exe)
 Compute integral first derivatives, UseDBF=F ICtDFT=           0.
 Integral derivatives from FoFJK, PRISM(SPDF).
 Calling FoFJK, ICntrl=      2127 FMM=F ISym2X=0 I1Cent= 0 IOpClX= 0 NMat=1 NMatS=1 NMatT=0.
 FoFJK:  IHMeth= 1 ICntrl=    2127 DoSepK=F KAlg= 0 I1Cent=   0 FoldK=F
 IRaf=         0 NMat=   1 IRICut=       1 DoRegI=T DoRafI=F ISym2E= 0.
 FoFCou: FMM=F IPFlag=           0 FMFlag=      100000 FMFlg1=         800
         NFxFlg=           0 DoJE=F BraDBF=F KetDBF=F FulRan=T
         wScrn=  0.000000 ICntrl=    2127 IOpCl=  0 I1Cent=           0 NGrid=           0
         NMat0=    1 NMatS0=      1 NMatT0=    0 NMatD0=    1 NMtDS0=    0 NMtDT0=    0
 Symmetry not used in FoFCou.
 Leave Link  703 at Fri Aug 26 15:18:12 2022, MaxMem= 24159191040 cpu:        26.9
 (Enter /public/home/users/caep010/software/Gaussian09/g09/l716.exe)
 Dipole        = 8.08094445D-03 3.29773431D-01 5.32734819D-01
 ***** Axes restored to original set *****
 -------------------------------------------------------------------
 Center     Atomic                   Forces (Hartrees/Bohr)
 Number     Number              X              Y              Z
 -------------------------------------------------------------------
      1        6          -0.007712276   -0.005918523    0.001114380
      2        6          -0.024776293    0.012540632    0.005562577
      3        8          -0.025649953    0.071995737   -0.036232034
      4        8           0.056979661   -0.069158687    0.047503005
      5        1           0.006818732   -0.004355507   -0.004894162
      6        1          -0.003018552    0.009701695   -0.003895922
      7        1           0.000671840   -0.001354283    0.010752082
      8        1           0.004258421    0.000001602   -0.010913230
      9        1           0.007850348   -0.006918164   -0.000751203
     10        1          -0.015421928   -0.006534501   -0.008245494
 -------------------------------------------------------------------
 Cartesian Forces:  Max     0.071995737 RMS     0.025337433
 Leave Link  716 at Fri Aug 26 15:18:12 2022, MaxMem= 24159191040 cpu:         0.9
 (Enter /public/home/users/caep010/software/Gaussian09/g09/l103.exe)

 GradGradGradGradGradGradGradGradGradGradGradGradGradGradGradGradGradGrad
 Berny optimization.
 FormGI is forming the generalized inverse of G from B-inverse, IUseBI=4.
 Internal  Forces:  Max     0.094437056 RMS     0.017229494
 Search for a local minimum.
 Step number   1 out of a maximum of   46
 All quantities printed in internal units (Hartrees-Bohrs-Radians)
 RMS Force = .17229D-01 SwitMx=.10000D-02 MixMth= 1
 Mixed Optimization -- RFO/linear search
 Second derivative matrix not updated -- first step.
 ITU=  0
     Eigenvalues ---    0.00433   0.01597   0.02339   0.05039   0.05718
     Eigenvalues ---    0.05791   0.06002   0.11448   0.13870   0.16000
     Eigenvalues ---    0.16000   0.16000   0.16000   0.22006   0.25000
     Eigenvalues ---    0.29877   0.32085   0.32530   0.32547   0.32550
     Eigenvalues ---    0.32561   0.44452   0.49175   0.61671
 RFO step:  Lambda=-2.02743310D-02 EMin= 4.33455186D-03
 Linear search not attempted -- first point.
 Iteration  1 RMS(Cart)=  0.05084047 RMS(Int)=  0.00238716
 Iteration  2 RMS(Cart)=  0.00345995 RMS(Int)=  0.00044755
 Iteration  3 RMS(Cart)=  0.00001644 RMS(Int)=  0.00044734
 Iteration  4 RMS(Cart)=  0.00000000 RMS(Int)=  0.00044734
 ITry= 1 IFail=0 DXMaxC= 1.91D-01 DCOld= 1.00D+10 DXMaxT= 3.00D-01 DXLimC= 3.00D+00 Rises=F
 Variable       Old X    -DE/DX   Delta X   Delta X   Delta X     New X
                                 (Linear)    (Quad)   (Total)
    R1        2.88209   0.00269   0.00000   0.00844   0.00844   2.89053
    R2        2.09829  -0.00922   0.00000  -0.02665  -0.02665   2.07164
    R3        2.09854  -0.01077   0.00000  -0.03116  -0.03116   2.06738
    R4        2.09885  -0.01081   0.00000  -0.03129  -0.03129   2.06756
    R5        2.65917   0.01294   0.00000   0.02783   0.02783   2.68700
    R6        2.10689  -0.01039   0.00000  -0.03045  -0.03045   2.07644
    R7        2.09849  -0.00815   0.00000  -0.02357  -0.02357   2.07491
    R8        2.49642   0.09444   0.00000   0.14826   0.14826   2.64467
    R9        1.87407  -0.01865   0.00000  -0.03642  -0.03642   1.83765
    A1        1.91412   0.00274   0.00000   0.01669   0.01662   1.93074
    A2        1.92441   0.00137   0.00000   0.00709   0.00704   1.93145
    A3        1.92004   0.00053   0.00000   0.00198   0.00196   1.92199
    A4        1.89812  -0.00176   0.00000  -0.00785  -0.00795   1.89017
    A5        1.90083  -0.00149   0.00000  -0.00726  -0.00730   1.89353
    A6        1.90600  -0.00147   0.00000  -0.01104  -0.01103   1.89497
    A7        1.93069   0.01030   0.00000   0.04074   0.04078   1.97147
    A8        1.92477  -0.00017   0.00000   0.00934   0.00955   1.93432
    A9        1.89440   0.00351   0.00000   0.03646   0.03648   1.93087
   A10        1.95037  -0.00699   0.00000  -0.04743  -0.04776   1.90261
   A11        1.89065  -0.00759   0.00000  -0.04614  -0.04712   1.84354
   A12        1.87082   0.00075   0.00000   0.00721   0.00578   1.87660
   A13        1.86110   0.02119   0.00000   0.07840   0.07840   1.93950
   A14        1.82980  -0.00010   0.00000  -0.00054  -0.00054   1.82926
    D1       -3.08459  -0.00030   0.00000  -0.00865  -0.00882  -3.09341
    D2        1.03208   0.00152   0.00000   0.01680   0.01686   1.04894
    D3       -1.01252  -0.00135   0.00000  -0.01861  -0.01847  -1.03099
    D4        1.10891  -0.00071   0.00000  -0.01387  -0.01408   1.09483
    D5       -1.05760   0.00112   0.00000   0.01158   0.01160  -1.04600
    D6       -3.10220  -0.00175   0.00000  -0.02383  -0.02373  -3.12592
    D7       -0.99429  -0.00009   0.00000  -0.00596  -0.00613  -1.00042
    D8        3.12238   0.00173   0.00000   0.01949   0.01956  -3.14125
    D9        1.07778  -0.00114   0.00000  -0.01592  -0.01577   1.06201
   D10       -1.41626   0.00319   0.00000   0.06755   0.06740  -1.34886
   D11        0.73551   0.00546   0.00000   0.07535   0.07404   0.80955
   D12        2.79257  -0.00247   0.00000   0.02752   0.02898   2.82156
   D13       -1.88359   0.00165   0.00000   0.03784   0.03784  -1.84575
         Item               Value     Threshold  Converged?
 Maximum Force            0.094437     0.000450     NO 
 RMS     Force            0.017229     0.000300     NO 
 Maximum Displacement     0.190715     0.001800     NO 
 RMS     Displacement     0.052756     0.001200     NO 
 Predicted change in Energy=-1.070689D-02
 Lowest energy point so far.  Saving SCF results.
 GradGradGradGradGradGradGradGradGradGradGradGradGradGradGradGradGradGrad

 Leave Link  103 at Fri Aug 26 15:18:12 2022, MaxMem= 24159191040 cpu:         1.5
 (Enter /public/home/users/caep010/software/Gaussian09/g09/l202.exe)
                          Input orientation:                          
 ---------------------------------------------------------------------
 Center     Atomic      Atomic             Coordinates (Angstroms)
 Number     Number       Type             X           Y           Z
 ---------------------------------------------------------------------
      1          6           0       -1.153933   -0.302338   -0.288483
      2          6           0       -0.012812    0.620017    0.143702
      3          8           0        1.222421    0.307195   -0.487284
      4          8           0        1.817622   -0.816023    0.098139
      5          1           0       -2.096025    0.002386    0.182048
      6          1           0       -0.944678   -1.336655    0.000057
      7          1           0       -1.279607   -0.262141   -1.374605
      8          1           0        0.123812    0.588265    1.233519
      9          1           0       -0.230651    1.660279   -0.131973
     10          1           0        2.553850   -0.460986    0.624981
 ---------------------------------------------------------------------
                    Distance matrix (angstroms):
                    1          2          3          4          5
     1  C    0.000000
     2  C    1.529601   0.000000
     3  O    2.461322   1.421900   0.000000
     4  O    3.040310   2.326966   1.399502   0.000000
     5  H    1.096264   2.173181   3.398969   3.999183   0.000000
     6  H    1.094008   2.171997   2.763342   2.812646   1.775317
     7  H    1.094108   2.165232   2.715073   3.473987   1.777549
     8  H    2.177681   1.098806   2.060850   2.475904   2.525177
     9  H    2.174582   1.097996   2.017052   3.221870   2.515320
    10  H    3.821942   2.826296   1.897350   0.972443   4.693851
                    6          7          8          9         10
     6  H    0.000000
     7  H    1.776641   0.000000
     8  H    2.523572   3.081410   0.000000
     9  H    3.083646   2.517963   1.771842   0.000000
    10  H    3.660194   4.328195   2.715940   3.581367   0.000000
 Stoichiometry    C2H6O2
 Framework group  C1[X(C2H6O2)]
 Deg. of freedom    24
 Full point group                 C1      NOp   1
 RotChk:  IX=0 Diff= 1.83D-02
 Largest Abelian subgroup         C1      NOp   1
 Largest concise Abelian subgroup C1      NOp   1
                         Standard orientation:                         
 ---------------------------------------------------------------------
 Center     Atomic      Atomic             Coordinates (Angstroms)
 Number     Number       Type             X           Y           Z
 ---------------------------------------------------------------------
      1          6           0       -1.565334   -0.475255   -0.070639
      2          6           0       -0.541543    0.606858    0.276585
      3          8           0        0.678143    0.467038   -0.440783
      4          8           0        1.469068   -0.551590    0.102760
      5          1           0       -2.505868   -0.303302    0.465662
      6          1           0       -1.189164   -1.465082    0.204304
      7          1           0       -1.771994   -0.467040   -1.145021
      8          1           0       -0.325032    0.608621    1.353847
      9          1           0       -0.926133    1.601493    0.015077
     10          1           0        2.181770   -0.087887    0.574648
 ---------------------------------------------------------------------
 Rotational constants (GHZ):     17.5117854      5.0992560      4.5055119
 Leave Link  202 at Fri Aug 26 15:18:12 2022, MaxMem= 24159191040 cpu:         0.2
 (Enter /public/home/users/caep010/software/Gaussian09/g09/l301.exe)
 Standard basis: GTBas3 (6D, 7F)
 Ernie: Thresh=  0.10000D-02 Tol=  0.10000D-05 Strict=F.
 There are   154 symmetry adapted cartesian basis functions of A   symmetry.
 There are   142 symmetry adapted basis functions of A   symmetry.
   142 basis functions,   218 primitive gaussians,   154 cartesian basis functions
    17 alpha electrons       17 beta electrons
       nuclear repulsion energy       132.8292183631 Hartrees.
 IExCor=  402 DFT=T Ex+Corr=B3LYP ExCW=0 ScaHFX=  0.200000
 ScaDFX=  0.800000  0.720000  1.000000  0.810000 ScalE2=  1.000000  1.000000
 IRadAn=      0 IRanWt=     -1 IRanGd=            0 ICorTp=0 IEmpDi=  4
 NAtoms=   10 NActive=   10 NUniq=   10 SFac= 1.00D+00 NAtFMM=   60 NAOKFM=F Big=F
 Integral buffers will be    131072 words long.
 Raffenetti 2 integral format.
 Two-electron integral symmetry is turned on.
 Leave Link  301 at Fri Aug 26 15:18:12 2022, MaxMem= 24159191040 cpu:         1.7
 (Enter /public/home/users/caep010/software/Gaussian09/g09/l302.exe)
 NPDir=0 NMtPBC=     1 NCelOv=     1 NCel=       1 NClECP=     1 NCelD=      1
         NCelK=      1 NCelE2=     1 NClLst=     1 CellRange=     0.0.
 One-electron integrals computed using PRISM.
 NBasis=   142 RedAO= T EigKep=  1.21D-03  NBF=   142
 NBsUse=   142 1.00D-06 EigRej= -1.00D+00 NBFU=   142
 Precomputing XC quadrature grid using
 IXCGrd= 4 IRadAn=           0 IRanWt=          -1 IRanGd=           0 AccXCQ= 0.00D+00.
 Generated NRdTot=       0 NPtTot=           0 NUsed=           0 NTot=          32
 NSgBfM=   154   154   154   154   154 MxSgAt=    10 MxSgA2=    10.
 Leave Link  302 at Fri Aug 26 15:18:13 2022, MaxMem= 24159191040 cpu:        14.1
 (Enter /public/home/users/caep010/software/Gaussian09/g09/l303.exe)
 DipDrv:  MaxL=1.
 Leave Link  303 at Fri Aug 26 15:18:13 2022, MaxMem= 24159191040 cpu:         0.6
 (Enter /public/home/users/caep010/software/Gaussian09/g09/l401.exe)
 Initial guess from the checkpoint file:  "G4.Frag_967.chk"
 B after Tr=     0.000000    0.000000   -0.000000
         Rot=    0.999934   -0.007578   -0.000011   -0.008587 Ang=  -1.31 deg.
 Guess basis will be translated and rotated to current coordinates.
 JPrj=2 DoOrth=T DoCkMO=T.
 Generating alternative initial guess.
 ExpMin= 1.61D-01 ExpMax= 5.48D+03 ExpMxC= 8.25D+02 IAcc=1 IRadAn=         1 AccDes= 0.00D+00
 Harris functional with IExCor=  402 and IRadAn=       1 diagonalized for initial guess.
 HarFok:  IExCor=  402 AccDes= 0.00D+00 IRadAn=         1 IDoV= 1 UseB2=F ITyADJ=14
 ICtDFT=  3500011 ScaDFX=  1.000000  1.000000  1.000000  1.000000
 FoFCou: FMM=F IPFlag=           0 FMFlag=      100000 FMFlg1=           0
         NFxFlg=           0 DoJE=T BraDBF=F KetDBF=T FulRan=T
         wScrn=  0.000000 ICntrl=     500 IOpCl=  0 I1Cent=   200000004 NGrid=           0
         NMat0=    1 NMatS0=      1 NMatT0=    0 NMatD0=    1 NMtDS0=    0 NMtDT0=    0
 Petite list used in FoFCou.
 Harris En= -230.223155998015    
 Leave Link  401 at Fri Aug 26 15:18:13 2022, MaxMem= 24159191040 cpu:        13.7
 (Enter /public/home/users/caep010/software/Gaussian09/g09/l502.exe)
 Closed shell SCF:
 Using DIIS extrapolation, IDIIS=  1040.
 Integral symmetry usage will be decided dynamically.
 Keep R1 ints in memory in canonical form, NReq=53641325.
 IVT=       95754 IEndB=       95754 NGot= 24159191040 MDV= 24107548506
 LenX= 24107548506 LenY= 24107524349
 Requested convergence on RMS density matrix=1.00D-08 within 128 cycles.
 Requested convergence on MAX density matrix=1.00D-06.
 Requested convergence on             energy=1.00D-06.
 No special actions if energy rises.
 FoFCou: FMM=F IPFlag=           0 FMFlag=           0 FMFlg1=           0
         NFxFlg=           0 DoJE=F BraDBF=F KetDBF=F FulRan=T
         wScrn=  0.000000 ICntrl=     600 IOpCl=  0 I1Cent=           0 NGrid=           0
         NMat0=    1 NMatS0=  10153 NMatT0=    0 NMatD0=    1 NMtDS0=    0 NMtDT0=    0
 Symmetry not used in FoFCou.
 Integral accuracy reduced to 1.0D-05 until final iterations.

 Cycle   1  Pass 0  IDiag  1:
 E= -230.179447679663    
 DIIS: error= 3.90D-03 at cycle   1 NSaved=   1.
 NSaved= 1 IEnMin= 1 EnMin= -230.179447679663     IErMin= 1 ErrMin= 3.90D-03
 ErrMax= 3.90D-03  0.00D+00 EMaxC= 1.00D-01 BMatC= 6.15D-03 BMatP= 6.15D-03
 IDIUse=3 WtCom= 9.61D-01 WtEn= 3.90D-02
 Coeff-Com:  0.100D+01
 Coeff-En:   0.100D+01
 Coeff:      0.100D+01
 Gap=     1.178 Goal=   None    Shift=    0.000
 GapD=    1.178 DampG=2.000 DampE=1.000 DampFc=2.0000 IDamp=-1.
 RMSDP=9.05D-04 MaxDP=1.90D-02              OVMax= 3.38D-02

 Cycle   2  Pass 0  IDiag  1:
 E= -230.187038086305     Delta-E=       -0.007590406642 Rises=F Damp=F
 DIIS: error= 8.61D-04 at cycle   2 NSaved=   2.
 NSaved= 2 IEnMin= 2 EnMin= -230.187038086305     IErMin= 2 ErrMin= 8.61D-04
 ErrMax= 8.61D-04  0.00D+00 EMaxC= 1.00D-01 BMatC= 2.28D-04 BMatP= 6.15D-03
 IDIUse=3 WtCom= 9.91D-01 WtEn= 8.61D-03
 Coeff-Com:  0.921D-02 0.991D+00
 Coeff-En:   0.000D+00 0.100D+01
 Coeff:      0.913D-02 0.991D+00
 Gap=     0.310 Goal=   None    Shift=    0.000
 RMSDP=1.88D-04 MaxDP=4.00D-03 DE=-7.59D-03 OVMax= 5.84D-03

 Cycle   3  Pass 0  IDiag  1:
 E= -230.187035975442     Delta-E=        0.000002110863 Rises=F Damp=F
 DIIS: error= 9.28D-04 at cycle   3 NSaved=   3.
 NSaved= 3 IEnMin= 2 EnMin= -230.187038086305     IErMin= 2 ErrMin= 8.61D-04
 ErrMax= 9.28D-04  0.00D+00 EMaxC= 1.00D-01 BMatC= 2.79D-04 BMatP= 2.28D-04
 IDIUse=3 WtCom= 2.47D-01 WtEn= 7.53D-01
 Coeff-Com: -0.317D-01 0.542D+00 0.489D+00
 Coeff-En:   0.000D+00 0.503D+00 0.497D+00
 Coeff:     -0.784D-02 0.512D+00 0.495D+00
 Gap=     0.310 Goal=   None    Shift=    0.000
 RMSDP=1.10D-04 MaxDP=3.02D-03 DE= 2.11D-06 OVMax= 3.60D-03

 Cycle   4  Pass 0  IDiag  1:
 E= -230.187258883343     Delta-E=       -0.000222907901 Rises=F Damp=F
 DIIS: error= 2.14D-04 at cycle   4 NSaved=   4.
 NSaved= 4 IEnMin= 4 EnMin= -230.187258883343     IErMin= 4 ErrMin= 2.14D-04
 ErrMax= 2.14D-04  0.00D+00 EMaxC= 1.00D-01 BMatC= 1.24D-05 BMatP= 2.28D-04
 IDIUse=3 WtCom= 9.98D-01 WtEn= 2.14D-03
 Coeff-Com: -0.925D-02 0.985D-01 0.211D+00 0.700D+00
 Coeff-En:   0.000D+00 0.000D+00 0.000D+00 0.100D+01
 Coeff:     -0.923D-02 0.983D-01 0.211D+00 0.700D+00
 Gap=     0.310 Goal=   None    Shift=    0.000
 RMSDP=2.37D-05 MaxDP=8.14D-04 DE=-2.23D-04 OVMax= 8.56D-04

 Cycle   5  Pass 0  IDiag  1:
 E= -230.187267117068     Delta-E=       -0.000008233726 Rises=F Damp=F
 DIIS: error= 6.73D-05 at cycle   5 NSaved=   5.
 NSaved= 5 IEnMin= 5 EnMin= -230.187267117068     IErMin= 5 ErrMin= 6.73D-05
 ErrMax= 6.73D-05  0.00D+00 EMaxC= 1.00D-01 BMatC= 2.43D-06 BMatP= 1.24D-05
 IDIUse=1 WtCom= 1.00D+00 WtEn= 0.00D+00
 Coeff-Com: -0.293D-02 0.139D-01 0.875D-01 0.427D+00 0.475D+00
 Coeff:     -0.293D-02 0.139D-01 0.875D-01 0.427D+00 0.475D+00
 Gap=     0.310 Goal=   None    Shift=    0.000
 RMSDP=8.55D-06 MaxDP=3.01D-04 DE=-8.23D-06 OVMax= 3.77D-04

 Initial convergence to 1.0D-05 achieved.  Increase integral accuracy.
 Cycle   6  Pass 1  IDiag  1:
 E= -230.187298542636     Delta-E=       -0.000031425567 Rises=F Damp=F
 DIIS: error= 2.04D-05 at cycle   1 NSaved=   1.
 NSaved= 1 IEnMin= 1 EnMin= -230.187298542636     IErMin= 1 ErrMin= 2.04D-05
 ErrMax= 2.04D-05  0.00D+00 EMaxC= 1.00D-01 BMatC= 1.98D-07 BMatP= 1.98D-07
 IDIUse=1 WtCom= 1.00D+00 WtEn= 0.00D+00
 Coeff-Com:  0.100D+01
 Coeff:      0.100D+01
 Gap=     0.310 Goal=   None    Shift=    0.000
 RMSDP=8.55D-06 MaxDP=3.01D-04 DE=-3.14D-05 OVMax= 1.87D-04

 Cycle   7  Pass 1  IDiag  1:
 E= -230.187298361837     Delta-E=        0.000000180799 Rises=F Damp=F
 DIIS: error= 3.47D-05 at cycle   2 NSaved=   2.
 NSaved= 2 IEnMin= 1 EnMin= -230.187298542636     IErMin= 1 ErrMin= 2.04D-05
 ErrMax= 3.47D-05  0.00D+00 EMaxC= 1.00D-01 BMatC= 4.65D-07 BMatP= 1.98D-07
 IDIUse=1 WtCom= 1.00D+00 WtEn= 0.00D+00
 Coeff-Com:  0.613D+00 0.387D+00
 Coeff:      0.613D+00 0.387D+00
 Gap=     0.310 Goal=   None    Shift=    0.000
 RMSDP=3.22D-06 MaxDP=1.47D-04 DE= 1.81D-07 OVMax= 1.41D-04

 Cycle   8  Pass 1  IDiag  1:
 E= -230.187298679748     Delta-E=       -0.000000317912 Rises=F Damp=F
 DIIS: error= 4.92D-06 at cycle   3 NSaved=   3.
 NSaved= 3 IEnMin= 3 EnMin= -230.187298679748     IErMin= 3 ErrMin= 4.92D-06
 ErrMax= 4.92D-06  0.00D+00 EMaxC= 1.00D-01 BMatC= 1.04D-08 BMatP= 1.98D-07
 IDIUse=1 WtCom= 1.00D+00 WtEn= 0.00D+00
 Coeff-Com:  0.123D+00 0.158D+00 0.719D+00
 Coeff:      0.123D+00 0.158D+00 0.719D+00
 Gap=     0.310 Goal=   None    Shift=    0.000
 RMSDP=6.46D-07 MaxDP=2.28D-05 DE=-3.18D-07 OVMax= 2.28D-05

 Cycle   9  Pass 1  IDiag  1:
 E= -230.187298685963     Delta-E=       -0.000000006215 Rises=F Damp=F
 DIIS: error= 2.83D-06 at cycle   4 NSaved=   4.
 NSaved= 4 IEnMin= 4 EnMin= -230.187298685963     IErMin= 4 ErrMin= 2.83D-06
 ErrMax= 2.83D-06  0.00D+00 EMaxC= 1.00D-01 BMatC= 1.93D-09 BMatP= 1.04D-08
 IDIUse=1 WtCom= 1.00D+00 WtEn= 0.00D+00
 Coeff-Com:  0.118D-01 0.523D-01 0.393D+00 0.543D+00
 Coeff:      0.118D-01 0.523D-01 0.393D+00 0.543D+00
 Gap=     0.310 Goal=   None    Shift=    0.000
 RMSDP=2.78D-07 MaxDP=9.47D-06 DE=-6.21D-09 OVMax= 1.02D-05

 Cycle  10  Pass 1  IDiag  1:
 E= -230.187298687357     Delta-E=       -0.000000001395 Rises=F Damp=F
 DIIS: error= 4.95D-07 at cycle   5 NSaved=   5.
 NSaved= 5 IEnMin= 5 EnMin= -230.187298687357     IErMin= 5 ErrMin= 4.95D-07
 ErrMax= 4.95D-07  0.00D+00 EMaxC= 1.00D-01 BMatC= 8.82D-11 BMatP= 1.93D-09
 IDIUse=1 WtCom= 1.00D+00 WtEn= 0.00D+00
 Coeff-Com: -0.105D-01 0.515D-02 0.988D-01 0.233D+00 0.674D+00
 Coeff:     -0.105D-01 0.515D-02 0.988D-01 0.233D+00 0.674D+00
 Gap=     0.310 Goal=   None    Shift=    0.000
 RMSDP=5.41D-08 MaxDP=1.25D-06 DE=-1.39D-09 OVMax= 1.93D-06

 Cycle  11  Pass 1  IDiag  1:
 E= -230.187298687425     Delta-E=       -0.000000000068 Rises=F Damp=F
 DIIS: error= 5.15D-08 at cycle   6 NSaved=   6.
 NSaved= 6 IEnMin= 6 EnMin= -230.187298687425     IErMin= 6 ErrMin= 5.15D-08
 ErrMax= 5.15D-08  0.00D+00 EMaxC= 1.00D-01 BMatC= 8.22D-13 BMatP= 8.82D-11
 IDIUse=1 WtCom= 1.00D+00 WtEn= 0.00D+00
 Coeff-Com: -0.155D-02-0.784D-03-0.760D-03 0.270D-02 0.480D-01 0.952D+00
 Coeff:     -0.155D-02-0.784D-03-0.760D-03 0.270D-02 0.480D-01 0.952D+00
 Gap=     0.310 Goal=   None    Shift=    0.000
 RMSDP=1.15D-08 MaxDP=2.19D-07 DE=-6.80D-11 OVMax= 5.72D-07

 Cycle  12  Pass 1  IDiag  1:
 E= -230.187298687430     Delta-E=       -0.000000000004 Rises=F Damp=F
 DIIS: error= 4.60D-08 at cycle   7 NSaved=   7.
 NSaved= 7 IEnMin= 7 EnMin= -230.187298687430     IErMin= 7 ErrMin= 4.60D-08
 ErrMax= 4.60D-08  0.00D+00 EMaxC= 1.00D-01 BMatC= 3.67D-13 BMatP= 8.22D-13
 IDIUse=1 WtCom= 1.00D+00 WtEn= 0.00D+00
 Coeff-Com:  0.360D-03-0.780D-03-0.983D-02-0.217D-01-0.463D-01 0.447D+00
 Coeff-Com:  0.632D+00
 Coeff:      0.360D-03-0.780D-03-0.983D-02-0.217D-01-0.463D-01 0.447D+00
 Coeff:      0.632D+00
 Gap=     0.310 Goal=   None    Shift=    0.000
 RMSDP=4.79D-09 MaxDP=1.35D-07 DE=-4.43D-12 OVMax= 1.68D-07

 SCF Done:  E(RB3LYP) =  -230.187298687     A.U. after   12 cycles
            NFock= 12  Conv=0.48D-08     -V/T= 2.0063
 KE= 2.287354654578D+02 PE=-8.058450225301D+02 EE= 2.140930400217D+02
 Leave Link  502 at Fri Aug 26 15:18:15 2022, MaxMem= 24159191040 cpu:        41.4
 (Enter /public/home/users/caep010/software/Gaussian09/g09/l701.exe)
 Compute integral first derivatives.
 ... and contract with generalized density number  0.
 Leave Link  701 at Fri Aug 26 15:18:16 2022, MaxMem= 24159191040 cpu:        14.0
 (Enter /public/home/users/caep010/software/Gaussian09/g09/l702.exe)
 L702 exits ... SP integral derivatives will be done elsewhere.
 Leave Link  702 at Fri Aug 26 15:18:16 2022, MaxMem= 24159191040 cpu:         0.6
 (Enter /public/home/users/caep010/software/Gaussian09/g09/l703.exe)
 Compute integral first derivatives, UseDBF=F ICtDFT=           0.
 Integral derivatives from FoFJK, PRISM(SPDF).
 Calling FoFJK, ICntrl=      2127 FMM=F ISym2X=0 I1Cent= 0 IOpClX= 0 NMat=1 NMatS=1 NMatT=0.
 FoFJK:  IHMeth= 1 ICntrl=    2127 DoSepK=F KAlg= 0 I1Cent=   0 FoldK=F
 IRaf=         0 NMat=   1 IRICut=       1 DoRegI=T DoRafI=F ISym2E= 0.
 FoFCou: FMM=F IPFlag=           0 FMFlag=      100000 FMFlg1=         800
         NFxFlg=           0 DoJE=F BraDBF=F KetDBF=F FulRan=T
         wScrn=  0.000000 ICntrl=    2127 IOpCl=  0 I1Cent=           0 NGrid=           0
         NMat0=    1 NMatS0=      1 NMatT0=    0 NMatD0=    1 NMtDS0=    0 NMtDT0=    0
 Symmetry not used in FoFCou.
 Leave Link  703 at Fri Aug 26 15:18:17 2022, MaxMem= 24159191040 cpu:        22.1
 (Enter /public/home/users/caep010/software/Gaussian09/g09/l716.exe)
 Dipole        =-9.63028963D-02 3.17763570D-01 5.76358582D-01
 ***** Axes restored to original set *****
 -------------------------------------------------------------------
 Center     Atomic                   Forces (Hartrees/Bohr)
 Number     Number              X              Y              Z
 -------------------------------------------------------------------
      1        6           0.001949198    0.000540354    0.000613159
      2        6          -0.004493537   -0.007720673    0.007622216
      3        8          -0.001244118    0.027654345   -0.015078366
      4        8           0.003944680   -0.024837293    0.012725674
      5        1           0.000898002    0.000126541   -0.000110274
      6        1           0.000301321    0.000591508   -0.000261151
      7        1          -0.000189572   -0.000310490    0.000192133
      8        1          -0.000229600    0.000377210    0.000108376
      9        1           0.003808499   -0.001491173   -0.002574917
     10        1          -0.004744872    0.005069671   -0.003236849
 -------------------------------------------------------------------
 Cartesian Forces:  Max     0.027654345 RMS     0.008193898
 Leave Link  716 at Fri Aug 26 15:18:17 2022, MaxMem= 24159191040 cpu:         0.6
 (Enter /public/home/users/caep010/software/Gaussian09/g09/l103.exe)

 GradGradGradGradGradGradGradGradGradGradGradGradGradGradGradGradGradGrad
 Berny optimization.
 Using GEDIIS/GDIIS optimizer.
 FormGI is forming the generalized inverse of G from B-inverse, IUseBI=4.
 Internal  Forces:  Max     0.019493515 RMS     0.005120414
 Search for a local minimum.
 Step number   2 out of a maximum of   46
 All quantities printed in internal units (Hartrees-Bohrs-Radians)
 RMS Force = .51204D-02 SwitMx=.10000D-02 MixMth= 1
 Mixed Optimization -- RFO/linear search
 Update second derivatives using D2CorX and points    1    2
 DE= -1.07D-02 DEPred=-1.07D-02 R= 9.97D-01
 TightC=F SS=  1.41D+00  RLast= 2.39D-01 DXNew= 5.0454D-01 7.1745D-01
 Trust test= 9.97D-01 RLast= 2.39D-01 DXMaxT set to 5.05D-01
 ITU=  1  0
 Use linear search instead of GDIIS.
     Eigenvalues ---    0.00434   0.01590   0.02332   0.04835   0.05640
     Eigenvalues ---    0.05643   0.05690   0.11633   0.13935   0.15620
     Eigenvalues ---    0.16000   0.16000   0.16122   0.21842   0.27688
     Eigenvalues ---    0.29878   0.32182   0.32524   0.32543   0.32558
     Eigenvalues ---    0.34280   0.44897   0.48674   0.53235
 RFO step:  Lambda=-4.66011012D-03 EMin= 4.33536716D-03
 Quartic linear search produced a step of  0.15085.
 Iteration  1 RMS(Cart)=  0.06399203 RMS(Int)=  0.00312407
 Iteration  2 RMS(Cart)=  0.00408154 RMS(Int)=  0.00017667
 Iteration  3 RMS(Cart)=  0.00000930 RMS(Int)=  0.00017654
 Iteration  4 RMS(Cart)=  0.00000000 RMS(Int)=  0.00017654
 ITry= 1 IFail=0 DXMaxC= 2.65D-01 DCOld= 1.00D+10 DXMaxT= 5.05D-01 DXLimC= 3.00D+00 Rises=F
 Variable       Old X    -DE/DX   Delta X   Delta X   Delta X     New X
                                 (Linear)    (Quad)   (Total)
    R1        2.89053  -0.00290   0.00127  -0.01031  -0.00903   2.88149
    R2        2.07164  -0.00078  -0.00402  -0.00468  -0.00870   2.06294
    R3        2.06738  -0.00057  -0.00470  -0.00427  -0.00897   2.05840
    R4        2.06756  -0.00018  -0.00472  -0.00293  -0.00765   2.05991
    R5        2.68700  -0.00103   0.00420  -0.00072   0.00348   2.69048
    R6        2.07644   0.00007  -0.00459  -0.00201  -0.00660   2.06984
    R7        2.07491  -0.00152  -0.00356  -0.00701  -0.01057   2.06435
    R8        2.64467   0.01949   0.02236   0.04546   0.06782   2.71250
    R9        1.83765  -0.00350  -0.00549  -0.01050  -0.01600   1.82166
    A1        1.93074  -0.00067   0.00251  -0.00290  -0.00041   1.93033
    A2        1.93145  -0.00048   0.00106  -0.00323  -0.00217   1.92928
    A3        1.92199   0.00071   0.00030   0.00547   0.00576   1.92775
    A4        1.89017   0.00051  -0.00120   0.00214   0.00093   1.89110
    A5        1.89353   0.00008  -0.00110   0.00089  -0.00022   1.89330
    A6        1.89497  -0.00013  -0.00166  -0.00235  -0.00401   1.89096
    A7        1.97147   0.00022   0.00615   0.00045   0.00666   1.97813
    A8        1.93432  -0.00059   0.00144   0.00745   0.00866   1.94298
    A9        1.93087   0.00263   0.00550   0.02109   0.02635   1.95723
   A10        1.90261   0.00099  -0.00720   0.00718  -0.00014   1.90247
   A11        1.84354  -0.00370  -0.00711  -0.05142  -0.05856   1.78497
   A12        1.87660   0.00033   0.00087   0.01347   0.01352   1.89013
   A13        1.93950  -0.01847   0.01183  -0.07677  -0.06494   1.87456
   A14        1.82926  -0.01245  -0.00008  -0.08655  -0.08663   1.74263
    D1       -3.09341   0.00113  -0.00133   0.01184   0.01055  -3.08286
    D2        1.04894   0.00012   0.00254  -0.00342  -0.00075   1.04819
    D3       -1.03099  -0.00162  -0.00279  -0.03866  -0.04160  -1.07259
    D4        1.09483   0.00125  -0.00212   0.01316   0.01107   1.10590
    D5       -1.04600   0.00023   0.00175  -0.00210  -0.00023  -1.04623
    D6       -3.12592  -0.00150  -0.00358  -0.03734  -0.04108   3.11618
    D7       -1.00042   0.00126  -0.00092   0.01462   0.01374  -0.98668
    D8       -3.14125   0.00024   0.00295  -0.00064   0.00244  -3.13881
    D9        1.06201  -0.00149  -0.00238  -0.03588  -0.03841   1.02360
   D10       -1.34886   0.00156   0.01017   0.08531   0.09555  -1.25331
   D11        0.80955   0.00169   0.01117   0.10053   0.11137   0.92092
   D12        2.82156   0.00065   0.00437   0.09315   0.09778   2.91933
   D13       -1.84575   0.00139   0.00571   0.06738   0.07309  -1.77266
         Item               Value     Threshold  Converged?
 Maximum Force            0.019494     0.000450     NO 
 RMS     Force            0.005120     0.000300     NO 
 Maximum Displacement     0.265475     0.001800     NO 
 RMS     Displacement     0.065777     0.001200     NO 
 Predicted change in Energy=-2.343651D-03
 Lowest energy point so far.  Saving SCF results.
 GradGradGradGradGradGradGradGradGradGradGradGradGradGradGradGradGradGrad

 Leave Link  103 at Fri Aug 26 15:18:17 2022, MaxMem= 24159191040 cpu:         1.5
 (Enter /public/home/users/caep010/software/Gaussian09/g09/l202.exe)
                          Input orientation:                          
 ---------------------------------------------------------------------
 Center     Atomic      Atomic             Coordinates (Angstroms)
 Number     Number       Type             X           Y           Z
 ---------------------------------------------------------------------
      1          6           0       -1.122997   -0.311487   -0.278306
      2          6           0       -0.006893    0.636003    0.147902
      3          8           0        1.233306    0.374533   -0.500618
      4          8           0        1.755514   -0.845116    0.047200
      5          1           0       -2.064886   -0.034942    0.199284
      6          1           0       -0.883217   -1.335884    0.003832
      7          1           0       -1.260331   -0.276514   -1.359113
      8          1           0        0.145225    0.610035    1.232287
      9          1           0       -0.209088    1.668689   -0.145397
     10          1           0        2.413367   -0.485317    0.653030
 ---------------------------------------------------------------------
                    Distance matrix (angstroms):
                    1          2          3          4          5
     1  C    0.000000
     2  C    1.524821   0.000000
     3  O    2.464186   1.423741   0.000000
     4  O    2.945597   2.304329   1.435392   0.000000
     5  H    1.091661   2.165212   3.396411   3.908321   0.000000
     6  H    1.089260   2.162647   2.767611   2.684332   1.768331
     7  H    1.090059   2.162149   2.716451   3.375848   1.770386
     8  H    2.177035   1.095311   2.059695   2.472838   2.523427
     9  H    2.184946   1.092405   1.970158   3.196243   2.542666
    10  H    3.661075   2.714805   1.860857   0.963979   4.523657
                    6          7          8          9         10
     6  H    0.000000
     7  H    1.766946   0.000000
     8  H    2.520595   3.078459   0.000000
     9  H    3.082885   2.522307   1.773217   0.000000
    10  H    3.465889   4.193850   2.584531   3.486330   0.000000
 Stoichiometry    C2H6O2
 Framework group  C1[X(C2H6O2)]
 Deg. of freedom    24
 Full point group                 C1      NOp   1
 RotChk:  IX=0 Diff= 3.17D-02
 Largest Abelian subgroup         C1      NOp   1
 Largest concise Abelian subgroup C1      NOp   1
                         Standard orientation:                         
 ---------------------------------------------------------------------
 Center     Atomic      Atomic             Coordinates (Angstroms)
 Number     Number       Type             X           Y           Z
 ---------------------------------------------------------------------
      1          6           0       -1.525078   -0.484755   -0.084872
      2          6           0       -0.534741    0.612035    0.291110
      3          8           0        0.693347    0.532713   -0.424814
      4          8           0        1.413487   -0.600699    0.082261
      5          1           0       -2.469733   -0.347317    0.444714
      6          1           0       -1.126305   -1.464824    0.173839
      7          1           0       -1.724041   -0.467293   -1.156477
      8          1           0       -0.322265    0.605596    1.365595
      9          1           0       -0.898160    1.605724    0.019345
     10          1           0        2.044751   -0.151682    0.655972
 ---------------------------------------------------------------------
 Rotational constants (GHZ):     16.2933202      5.3677712      4.6186003
 Leave Link  202 at Fri Aug 26 15:18:17 2022, MaxMem= 24159191040 cpu:         0.2
 (Enter /public/home/users/caep010/software/Gaussian09/g09/l301.exe)
 Standard basis: GTBas3 (6D, 7F)
 Ernie: Thresh=  0.10000D-02 Tol=  0.10000D-05 Strict=F.
 There are   154 symmetry adapted cartesian basis functions of A   symmetry.
 There are   142 symmetry adapted basis functions of A   symmetry.
   142 basis functions,   218 primitive gaussians,   154 cartesian basis functions
    17 alpha electrons       17 beta electrons
       nuclear repulsion energy       133.0610197293 Hartrees.
 IExCor=  402 DFT=T Ex+Corr=B3LYP ExCW=0 ScaHFX=  0.200000
 ScaDFX=  0.800000  0.720000  1.000000  0.810000 ScalE2=  1.000000  1.000000
 IRadAn=      0 IRanWt=     -1 IRanGd=            0 ICorTp=0 IEmpDi=  4
 NAtoms=   10 NActive=   10 NUniq=   10 SFac= 1.00D+00 NAtFMM=   60 NAOKFM=F Big=F
 Integral buffers will be    131072 words long.
 Raffenetti 2 integral format.
 Two-electron integral symmetry is turned on.
 Leave Link  301 at Fri Aug 26 15:18:17 2022, MaxMem= 24159191040 cpu:         1.6
 (Enter /public/home/users/caep010/software/Gaussian09/g09/l302.exe)
 NPDir=0 NMtPBC=     1 NCelOv=     1 NCel=       1 NClECP=     1 NCelD=      1
         NCelK=      1 NCelE2=     1 NClLst=     1 CellRange=     0.0.
 One-electron integrals computed using PRISM.
 NBasis=   142 RedAO= T EigKep=  1.21D-03  NBF=   142
 NBsUse=   142 1.00D-06 EigRej= -1.00D+00 NBFU=   142
 Precomputing XC quadrature grid using
 IXCGrd= 4 IRadAn=           0 IRanWt=          -1 IRanGd=           0 AccXCQ= 0.00D+00.
 Generated NRdTot=       0 NPtTot=           0 NUsed=           0 NTot=          32
 NSgBfM=   154   154   154   154   154 MxSgAt=    10 MxSgA2=    10.
 Leave Link  302 at Fri Aug 26 15:18:18 2022, MaxMem= 24159191040 cpu:        13.8
 (Enter /public/home/users/caep010/software/Gaussian09/g09/l303.exe)
 DipDrv:  MaxL=1.
 Leave Link  303 at Fri Aug 26 15:18:18 2022, MaxMem= 24159191040 cpu:         0.6
 (Enter /public/home/users/caep010/software/Gaussian09/g09/l401.exe)
 Initial guess from the checkpoint file:  "G4.Frag_967.chk"
 B after Tr=    -0.000000    0.000000    0.000000
         Rot=    0.999862   -0.016028    0.003570    0.002459 Ang=  -1.90 deg.
 Guess basis will be translated and rotated to current coordinates.
 JPrj=2 DoOrth=T DoCkMO=T.
 Generating alternative initial guess.
 ExpMin= 1.61D-01 ExpMax= 5.48D+03 ExpMxC= 8.25D+02 IAcc=1 IRadAn=         1 AccDes= 0.00D+00
 Harris functional with IExCor=  402 and IRadAn=       1 diagonalized for initial guess.
 HarFok:  IExCor=  402 AccDes= 0.00D+00 IRadAn=         1 IDoV= 1 UseB2=F ITyADJ=14
 ICtDFT=  3500011 ScaDFX=  1.000000  1.000000  1.000000  1.000000
 FoFCou: FMM=F IPFlag=           0 FMFlag=      100000 FMFlg1=           0
         NFxFlg=           0 DoJE=T BraDBF=F KetDBF=T FulRan=T
         wScrn=  0.000000 ICntrl=     500 IOpCl=  0 I1Cent=   200000004 NGrid=           0
         NMat0=    1 NMatS0=      1 NMatT0=    0 NMatD0=    1 NMtDS0=    0 NMtDT0=    0
 Petite list used in FoFCou.
 Harris En= -230.225805787068    
 Leave Link  401 at Fri Aug 26 15:18:18 2022, MaxMem= 24159191040 cpu:        14.1
 (Enter /public/home/users/caep010/software/Gaussian09/g09/l502.exe)
 Closed shell SCF:
 Using DIIS extrapolation, IDIIS=  1040.
 Integral symmetry usage will be decided dynamically.
 Keep R1 ints in memory in canonical form, NReq=53641538.
 IVT=       95754 IEndB=       95754 NGot= 24159191040 MDV= 24107548506
 LenX= 24107548506 LenY= 24107524349
 Requested convergence on RMS density matrix=1.00D-08 within 128 cycles.
 Requested convergence on MAX density matrix=1.00D-06.
 Requested convergence on             energy=1.00D-06.
 No special actions if energy rises.
 FoFCou: FMM=F IPFlag=           0 FMFlag=           0 FMFlg1=           0
         NFxFlg=           0 DoJE=F BraDBF=F KetDBF=F FulRan=T
         wScrn=  0.000000 ICntrl=     600 IOpCl=  0 I1Cent=           0 NGrid=           0
         NMat0=    1 NMatS0=  10153 NMatT0=    0 NMatD0=    1 NMtDS0=    0 NMtDT0=    0
 Symmetry not used in FoFCou.
 Integral accuracy reduced to 1.0D-05 until final iterations.

 Cycle   1  Pass 0  IDiag  1:
 E= -230.183284710625    
 DIIS: error= 3.69D-03 at cycle   1 NSaved=   1.
 NSaved= 1 IEnMin= 1 EnMin= -230.183284710625     IErMin= 1 ErrMin= 3.69D-03
 ErrMax= 3.69D-03  0.00D+00 EMaxC= 1.00D-01 BMatC= 4.18D-03 BMatP= 4.18D-03
 IDIUse=3 WtCom= 9.63D-01 WtEn= 3.69D-02
 Coeff-Com:  0.100D+01
 Coeff-En:   0.100D+01
 Coeff:      0.100D+01
 Gap=     1.169 Goal=   None    Shift=    0.000
 GapD=    1.169 DampG=2.000 DampE=1.000 DampFc=2.0000 IDamp=-1.
 RMSDP=7.87D-04 MaxDP=1.94D-02              OVMax= 2.92D-02

 Cycle   2  Pass 0  IDiag  1:
 E= -230.189376538456     Delta-E=       -0.006091827831 Rises=F Damp=F
 DIIS: error= 6.15D-04 at cycle   2 NSaved=   2.
 NSaved= 2 IEnMin= 2 EnMin= -230.189376538456     IErMin= 2 ErrMin= 6.15D-04
 ErrMax= 6.15D-04  0.00D+00 EMaxC= 1.00D-01 BMatC= 1.42D-04 BMatP= 4.18D-03
 IDIUse=3 WtCom= 9.94D-01 WtEn= 6.15D-03
 Coeff-Com: -0.159D-01 0.102D+01
 Coeff-En:   0.000D+00 0.100D+01
 Coeff:     -0.158D-01 0.102D+01
 Gap=     0.306 Goal=   None    Shift=    0.000
 RMSDP=1.41D-04 MaxDP=5.04D-03 DE=-6.09D-03 OVMax= 5.52D-03

 Cycle   3  Pass 0  IDiag  1:
 E= -230.189424030405     Delta-E=       -0.000047491949 Rises=F Damp=F
 DIIS: error= 6.23D-04 at cycle   3 NSaved=   3.
 NSaved= 3 IEnMin= 3 EnMin= -230.189424030405     IErMin= 2 ErrMin= 6.15D-04
 ErrMax= 6.23D-04  0.00D+00 EMaxC= 1.00D-01 BMatC= 1.42D-04 BMatP= 1.42D-04
 IDIUse=3 WtCom= 9.94D-01 WtEn= 6.23D-03
 Coeff-Com: -0.370D-01 0.525D+00 0.513D+00
 Coeff-En:   0.000D+00 0.361D+00 0.639D+00
 Coeff:     -0.368D-01 0.523D+00 0.513D+00
 Gap=     0.308 Goal=   None    Shift=    0.000
 RMSDP=7.43D-05 MaxDP=2.97D-03 DE=-4.75D-05 OVMax= 2.68D-03

 Cycle   4  Pass 0  IDiag  1:
 E= -230.189522265829     Delta-E=       -0.000098235424 Rises=F Damp=F
 DIIS: error= 2.05D-04 at cycle   4 NSaved=   4.
 NSaved= 4 IEnMin= 4 EnMin= -230.189522265829     IErMin= 4 ErrMin= 2.05D-04
 ErrMax= 2.05D-04  0.00D+00 EMaxC= 1.00D-01 BMatC= 1.65D-05 BMatP= 1.42D-04
 IDIUse=3 WtCom= 9.98D-01 WtEn= 2.05D-03
 Coeff-Com: -0.148D-01 0.163D+00 0.283D+00 0.568D+00
 Coeff-En:   0.000D+00 0.000D+00 0.432D-01 0.957D+00
 Coeff:     -0.147D-01 0.163D+00 0.283D+00 0.569D+00
 Gap=     0.307 Goal=   None    Shift=    0.000
 RMSDP=2.27D-05 MaxDP=1.04D-03 DE=-9.82D-05 OVMax= 1.04D-03

 Cycle   5  Pass 0  IDiag  1:
 E= -230.189532744046     Delta-E=       -0.000010478217 Rises=F Damp=F
 DIIS: error= 9.79D-05 at cycle   5 NSaved=   5.
 NSaved= 5 IEnMin= 5 EnMin= -230.189532744046     IErMin= 5 ErrMin= 9.79D-05
 ErrMax= 9.79D-05  0.00D+00 EMaxC= 1.00D-01 BMatC= 2.65D-06 BMatP= 1.65D-05
 IDIUse=1 WtCom= 1.00D+00 WtEn= 0.00D+00
 Coeff-Com: -0.398D-02 0.342D-01 0.113D+00 0.349D+00 0.509D+00
 Coeff:     -0.398D-02 0.342D-01 0.113D+00 0.349D+00 0.509D+00
 Gap=     0.307 Goal=   None    Shift=    0.000
 RMSDP=9.24D-06 MaxDP=3.83D-04 DE=-1.05D-05 OVMax= 3.23D-04

 Initial convergence to 1.0D-05 achieved.  Increase integral accuracy.
 Cycle   6  Pass 1  IDiag  1:
 E= -230.189564016612     Delta-E=       -0.000031272566 Rises=F Damp=F
 DIIS: error= 2.34D-05 at cycle   1 NSaved=   1.
 NSaved= 1 IEnMin= 1 EnMin= -230.189564016612     IErMin= 1 ErrMin= 2.34D-05
 ErrMax= 2.34D-05  0.00D+00 EMaxC= 1.00D-01 BMatC= 2.07D-07 BMatP= 2.07D-07
 IDIUse=1 WtCom= 1.00D+00 WtEn= 0.00D+00
 Coeff-Com:  0.100D+01
 Coeff:      0.100D+01
 Gap=     0.307 Goal=   None    Shift=    0.000
 RMSDP=9.24D-06 MaxDP=3.83D-04 DE=-3.13D-05 OVMax= 2.05D-04

 Cycle   7  Pass 1  IDiag  1:
 E= -230.189563886108     Delta-E=        0.000000130504 Rises=F Damp=F
 DIIS: error= 3.90D-05 at cycle   2 NSaved=   2.
 NSaved= 2 IEnMin= 1 EnMin= -230.189564016612     IErMin= 1 ErrMin= 2.34D-05
 ErrMax= 3.90D-05  0.00D+00 EMaxC= 1.00D-01 BMatC= 4.26D-07 BMatP= 2.07D-07
 IDIUse=1 WtCom= 1.00D+00 WtEn= 0.00D+00
 Coeff-Com:  0.599D+00 0.401D+00
 Coeff:      0.599D+00 0.401D+00
 Gap=     0.307 Goal=   None    Shift=    0.000
 RMSDP=3.33D-06 MaxDP=1.33D-04 DE= 1.31D-07 OVMax= 1.13D-04

 Cycle   8  Pass 1  IDiag  1:
 E= -230.189564178216     Delta-E=       -0.000000292107 Rises=F Damp=F
 DIIS: error= 6.78D-06 at cycle   3 NSaved=   3.
 NSaved= 3 IEnMin= 3 EnMin= -230.189564178216     IErMin= 3 ErrMin= 6.78D-06
 ErrMax= 6.78D-06  0.00D+00 EMaxC= 1.00D-01 BMatC= 1.80D-08 BMatP= 2.07D-07
 IDIUse=1 WtCom= 1.00D+00 WtEn= 0.00D+00
 Coeff-Com:  0.161D+00 0.190D+00 0.649D+00
 Coeff:      0.161D+00 0.190D+00 0.649D+00
 Gap=     0.307 Goal=   None    Shift=    0.000
 RMSDP=8.30D-07 MaxDP=3.52D-05 DE=-2.92D-07 OVMax= 3.64D-05

 Cycle   9  Pass 1  IDiag  1:
 E= -230.189564188041     Delta-E=       -0.000000009826 Rises=F Damp=F
 DIIS: error= 3.33D-06 at cycle   4 NSaved=   4.
 NSaved= 4 IEnMin= 4 EnMin= -230.189564188041     IErMin= 4 ErrMin= 3.33D-06
 ErrMax= 3.33D-06  0.00D+00 EMaxC= 1.00D-01 BMatC= 4.32D-09 BMatP= 1.80D-08
 IDIUse=1 WtCom= 1.00D+00 WtEn= 0.00D+00
 Coeff-Com:  0.110D-01 0.525D-01 0.380D+00 0.556D+00
 Coeff:      0.110D-01 0.525D-01 0.380D+00 0.556D+00
 Gap=     0.307 Goal=   None    Shift=    0.000
 RMSDP=3.85D-07 MaxDP=1.44D-05 DE=-9.83D-09 OVMax= 1.42D-05

 Cycle  10  Pass 1  IDiag  1:
 E= -230.189564191267     Delta-E=       -0.000000003226 Rises=F Damp=F
 DIIS: error= 5.97D-07 at cycle   5 NSaved=   5.
 NSaved= 5 IEnMin= 5 EnMin= -230.189564191267     IErMin= 5 ErrMin= 5.97D-07
 ErrMax= 5.97D-07  0.00D+00 EMaxC= 1.00D-01 BMatC= 1.97D-10 BMatP= 4.32D-09
 IDIUse=1 WtCom= 1.00D+00 WtEn= 0.00D+00
 Coeff-Com: -0.147D-01 0.213D-02 0.102D+00 0.248D+00 0.663D+00
 Coeff:     -0.147D-01 0.213D-02 0.102D+00 0.248D+00 0.663D+00
 Gap=     0.307 Goal=   None    Shift=    0.000
 RMSDP=7.72D-08 MaxDP=2.79D-06 DE=-3.23D-09 OVMax= 3.40D-06

 Cycle  11  Pass 1  IDiag  1:
 E= -230.189564191425     Delta-E=       -0.000000000158 Rises=F Damp=F
 DIIS: error= 8.30D-08 at cycle   6 NSaved=   6.
 NSaved= 6 IEnMin= 6 EnMin= -230.189564191425     IErMin= 6 ErrMin= 8.30D-08
 ErrMax= 8.30D-08  0.00D+00 EMaxC= 1.00D-01 BMatC= 1.36D-12 BMatP= 1.97D-10
 IDIUse=1 WtCom= 1.00D+00 WtEn= 0.00D+00
 Coeff-Com: -0.964D-03-0.119D-02-0.996D-02-0.147D-01-0.454D-02 0.103D+01
 Coeff:     -0.964D-03-0.119D-02-0.996D-02-0.147D-01-0.454D-02 0.103D+01
 Gap=     0.307 Goal=   None    Shift=    0.000
 RMSDP=1.95D-08 MaxDP=5.93D-07 DE=-1.58D-10 OVMax= 1.53D-06

 Cycle  12  Pass 1  IDiag  1:
 E= -230.189564191428     Delta-E=       -0.000000000003 Rises=F Damp=F
 DIIS: error= 5.61D-08 at cycle   7 NSaved=   7.
 NSaved= 7 IEnMin= 7 EnMin= -230.189564191428     IErMin= 7 ErrMin= 5.61D-08
 ErrMax= 5.61D-08  0.00D+00 EMaxC= 1.00D-01 BMatC= 3.34D-13 BMatP= 1.36D-12
 IDIUse=1 WtCom= 1.00D+00 WtEn= 0.00D+00
 Coeff-Com:  0.595D-03-0.569D-03-0.925D-02-0.214D-01-0.465D-01 0.358D+00
 Coeff-Com:  0.720D+00
 Coeff:      0.595D-03-0.569D-03-0.925D-02-0.214D-01-0.465D-01 0.358D+00
 Coeff:      0.720D+00
 Gap=     0.307 Goal=   None    Shift=    0.000
 RMSDP=4.84D-09 MaxDP=9.86D-08 DE=-2.96D-12 OVMax= 2.26D-07

 SCF Done:  E(RB3LYP) =  -230.189564191     A.U. after   12 cycles
            NFock= 12  Conv=0.48D-08     -V/T= 2.0063
 KE= 2.287536686864D+02 PE=-8.063205131874D+02 EE= 2.143162605803D+02
 Leave Link  502 at Fri Aug 26 15:18:20 2022, MaxMem= 24159191040 cpu:        41.9
 (Enter /public/home/users/caep010/software/Gaussian09/g09/l701.exe)
 Compute integral first derivatives.
 ... and contract with generalized density number  0.
 Leave Link  701 at Fri Aug 26 15:18:21 2022, MaxMem= 24159191040 cpu:        13.8
 (Enter /public/home/users/caep010/software/Gaussian09/g09/l702.exe)
 L702 exits ... SP integral derivatives will be done elsewhere.
 Leave Link  702 at Fri Aug 26 15:18:21 2022, MaxMem= 24159191040 cpu:         0.5
 (Enter /public/home/users/caep010/software/Gaussian09/g09/l703.exe)
 Compute integral first derivatives, UseDBF=F ICtDFT=           0.
 Integral derivatives from FoFJK, PRISM(SPDF).
 Calling FoFJK, ICntrl=      2127 FMM=F ISym2X=0 I1Cent= 0 IOpClX= 0 NMat=1 NMatS=1 NMatT=0.
 FoFJK:  IHMeth= 1 ICntrl=    2127 DoSepK=F KAlg= 0 I1Cent=   0 FoldK=F
 IRaf=         0 NMat=   1 IRICut=       1 DoRegI=T DoRafI=F ISym2E= 0.
 FoFCou: FMM=F IPFlag=           0 FMFlag=      100000 FMFlg1=         800
         NFxFlg=           0 DoJE=F BraDBF=F KetDBF=F FulRan=T
         wScrn=  0.000000 ICntrl=    2127 IOpCl=  0 I1Cent=           0 NGrid=           0
         NMat0=    1 NMatS0=      1 NMatT0=    0 NMatD0=    1 NMtDS0=    0 NMtDT0=    0
 Symmetry not used in FoFCou.
 Leave Link  703 at Fri Aug 26 15:18:22 2022, MaxMem= 24159191040 cpu:        27.5
 (Enter /public/home/users/caep010/software/Gaussian09/g09/l716.exe)
 Dipole        =-1.61800924D-01 2.72592052D-01 6.24901969D-01
 ***** Axes restored to original set *****
 -------------------------------------------------------------------
 Center     Atomic                   Forces (Hartrees/Bohr)
 Number     Number              X              Y              Z
 -------------------------------------------------------------------
      1        6           0.002238914    0.001977882    0.000488450
      2        6           0.001139795   -0.002373420   -0.002016356
      3        8          -0.002409476    0.003698211   -0.002036992
      4        8          -0.000261315   -0.004959502   -0.000526931
      5        1          -0.001607775    0.000878753    0.001238001
      6        1           0.001007417   -0.001901287    0.000883516
      7        1          -0.000293187    0.000377668   -0.002426283
      8        1          -0.000651578    0.000587606    0.002335862
      9        1          -0.002847457    0.002320689   -0.000689320
     10        1           0.003684662   -0.000606600    0.002750053
 -------------------------------------------------------------------
 Cartesian Forces:  Max     0.004959502 RMS     0.002056320
 Leave Link  716 at Fri Aug 26 15:18:22 2022, MaxMem= 24159191040 cpu:         0.5
 (Enter /public/home/users/caep010/software/Gaussian09/g09/l103.exe)

 GradGradGradGradGradGradGradGradGradGradGradGradGradGradGradGradGradGrad
 Berny optimization.
 Using GEDIIS/GDIIS optimizer.
 FormGI is forming the generalized inverse of G from B-inverse, IUseBI=4.
 Internal  Forces:  Max     0.006817765 RMS     0.001943008
 Search for a local minimum.
 Step number   3 out of a maximum of   46
 All quantities printed in internal units (Hartrees-Bohrs-Radians)
 RMS Force = .19430D-02 SwitMx=.10000D-02 MixMth= 1
[...]
 Alpha virt. eigenvalues --    0.64408   0.65679   0.68544   0.69226   0.71941
 Alpha virt. eigenvalues --    0.73374   0.75355   0.78214   0.79212   0.81877
 Alpha virt. eigenvalues --    0.83635   0.84064   0.87500   0.90619   0.92824
 Alpha virt. eigenvalues --    0.94631   0.96533   0.98284   0.99998   1.00867
 Alpha virt. eigenvalues --    1.04776   1.05720   1.07105   1.09978   1.11779
 Alpha virt. eigenvalues --    1.12426   1.14627   1.16614   1.17938   1.20650
 Alpha virt. eigenvalues --    1.21448   1.24583   1.27348   1.29887   1.32184
 Alpha virt. eigenvalues --    1.34203   1.34593   1.36651   1.38916   1.41088
 Alpha virt. eigenvalues --    1.42318   1.43645   1.44773   1.45598   1.49934
 Alpha virt. eigenvalues --    1.52139   1.53427   1.54895   1.56736   1.58031
 Alpha virt. eigenvalues --    1.59202   1.61359   1.63733   1.65675   1.67556
 Alpha virt. eigenvalues --    1.68839   1.70874   1.75701   1.77072   1.78689
 Alpha virt. eigenvalues --    1.82045   1.83699   1.86075   1.88572   1.92575
 Alpha virt. eigenvalues --    1.94902   1.99595   2.03069   2.05998   2.07892
 Alpha virt. eigenvalues --    2.10944   2.11530   2.15492   2.18834   2.19778
 Alpha virt. eigenvalues --    2.21492   2.23014   2.25022   2.29014   2.32709
 Alpha virt. eigenvalues --    2.34683   2.36848   2.40886   2.45829   2.47835
 Alpha virt. eigenvalues --    2.48894   2.50327   2.52495   2.55351   2.58657
 Alpha virt. eigenvalues --    2.61813   2.64344   2.67778   2.70016   2.72745
 Alpha virt. eigenvalues --    2.73501   2.77652   2.78962   2.79659   2.80710
 Alpha virt. eigenvalues --    2.81392   2.84011   2.85880   2.87515   2.89147
 Alpha virt. eigenvalues --    2.90914   2.93590   2.94613   2.97115   2.99004
 Alpha virt. eigenvalues --    3.00935   3.01946   3.03438   3.04420   3.07971
 Alpha virt. eigenvalues --    3.09136   3.11510   3.13350   3.13915   3.17109
 Alpha virt. eigenvalues --    3.22601   3.22726   3.25537   3.26428   3.28836
 Alpha virt. eigenvalues --    3.30598   3.33223   3.36364   3.37332   3.38301
 Alpha virt. eigenvalues --    3.39217   3.41900   3.44642   3.46139   3.48991
 Alpha virt. eigenvalues --    3.50404   3.53005   3.55159   3.59241   3.61405
 Alpha virt. eigenvalues --    3.62931   3.64379   3.64565   3.66553   3.72396
 Alpha virt. eigenvalues --    3.73582   3.77400   3.79924   3.81987   3.86472
 Alpha virt. eigenvalues --    3.88580   3.88981   3.91688   3.95962   3.99687
 Alpha virt. eigenvalues --    4.01591   4.02793   4.04524   4.07040   4.13323
 Alpha virt. eigenvalues --    4.13812   4.14930   4.20078   4.21637   4.24984
 Alpha virt. eigenvalues --    4.27855   4.28685   4.32085   4.36256   4.38447
 Alpha virt. eigenvalues --    4.43578   4.50722   4.52714   4.55532   4.57257
 Alpha virt. eigenvalues --    4.59291   4.62562   4.64283   4.73322   4.77624
 Alpha virt. eigenvalues --    4.80110   4.84844   4.87585   4.92188   4.94917
 Alpha virt. eigenvalues --    4.99158   5.05641   5.07285   5.13251   5.13808
 Alpha virt. eigenvalues --    5.18673   5.23315   5.28027   5.31047   5.34123
 Alpha virt. eigenvalues --    5.34295   5.40690   5.44890   5.46974   5.52610
 Alpha virt. eigenvalues --    5.57016   5.61269   5.63890   5.68291   5.73120
 Alpha virt. eigenvalues --    5.88359   5.91999   5.93742   5.96670   6.02377
 Alpha virt. eigenvalues --    6.05459   6.07371   6.09603   6.18889   6.21307
 Alpha virt. eigenvalues --    6.25668   6.28918   6.30570   6.31529   6.35009
 Alpha virt. eigenvalues --    6.44747   6.51619   6.56279   6.70217   6.76136
 Alpha virt. eigenvalues --    6.82098   6.84788   6.90839   7.01678   7.07769
 Alpha virt. eigenvalues --    7.13698   7.20737   7.25205   7.35075   7.37808
 Alpha virt. eigenvalues --    7.39143   7.44505   7.49970   7.56161   7.57404
 Alpha virt. eigenvalues --    7.67127   7.68539   7.71746   7.73337   7.76580
 Alpha virt. eigenvalues --    7.81278   7.84026   7.86125   7.91771   7.94741
 Alpha virt. eigenvalues --    7.97396   7.98946   8.00910   8.04331   8.06404
 Alpha virt. eigenvalues --    8.08230   8.09963   8.11718   8.15699   8.17455
 Alpha virt. eigenvalues --    8.20635   8.21821   8.27753   8.30472   8.32506
 Alpha virt. eigenvalues --    8.38454   8.43111   8.46898   8.48757   8.50530
 Alpha virt. eigenvalues --    8.55095   8.56840   8.60043   8.63830   8.69712
 Alpha virt. eigenvalues --    8.72426   8.79140   8.81492   8.84578   8.86170
 Alpha virt. eigenvalues --    8.87313   8.89939   8.92731   8.97984   8.99323
 Alpha virt. eigenvalues --    9.00266   9.05623   9.06572   9.08350   9.10028
 Alpha virt. eigenvalues --    9.11832   9.20440   9.21750   9.22058   9.26213
 Alpha virt. eigenvalues --    9.35658   9.38104   9.41604   9.44407   9.47115
 Alpha virt. eigenvalues --    9.49059   9.50977   9.52215   9.56777   9.61999
 Alpha virt. eigenvalues --    9.62889   9.67192   9.69456   9.73427   9.76973
 Alpha virt. eigenvalues --    9.84264   9.87747   9.91916   9.95826  10.03837
 Alpha virt. eigenvalues --   10.08559  10.17377  10.20533  10.22265  10.25777
 Alpha virt. eigenvalues --   10.36356  10.42564  10.50277  10.52578  10.57140
 Alpha virt. eigenvalues --   10.61430  10.61671  10.64875  10.68319  10.70727
 Alpha virt. eigenvalues --   10.83827  10.85137  10.86250  10.90247  10.93391
 Alpha virt. eigenvalues --   10.96811  10.99843  11.04413  11.08079  11.15102
 Alpha virt. eigenvalues --   11.18215  11.21984  11.22680  11.24161  11.25992
 Alpha virt. eigenvalues --   11.27643  11.30576  11.35947  11.39749  11.42578
 Alpha virt. eigenvalues --   11.48630  11.58001  11.62580  11.71570  11.83381
 Alpha virt. eigenvalues --   11.84222  11.88635  11.93431  12.02300  12.04379
 Alpha virt. eigenvalues --   12.05793  12.09249  12.17868  12.20362  12.24675
 Alpha virt. eigenvalues --   12.29057  12.31404  12.40089  12.58518  12.79248
 Alpha virt. eigenvalues --   12.84372  12.86478  12.89634  13.11026  13.22346
 Alpha virt. eigenvalues --   13.25970  13.28365  13.32843  13.43491  13.46769
 Alpha virt. eigenvalues --   13.84846  13.86537  13.98432  14.08479  14.17433
 Alpha virt. eigenvalues --   14.19463  14.27368  14.37531  14.42082  14.49505
 Alpha virt. eigenvalues --   14.58652  14.60171  14.83127  14.98702  15.03757
 Alpha virt. eigenvalues --   15.17894  15.22069  15.34563  15.44757  15.55959
 Alpha virt. eigenvalues --   15.60231  15.82139  15.87526  15.93481  16.03050
 Alpha virt. eigenvalues --   16.38413  16.44701  16.51629  16.76609  17.21751
 Alpha virt. eigenvalues --   17.43180  17.53602  17.63881  17.71201  18.10223
 Alpha virt. eigenvalues --   18.29867  18.54372  18.56989  18.64269  18.69373
 Alpha virt. eigenvalues --   18.86705  18.91785  18.98252  19.04456  19.09337
 Alpha virt. eigenvalues --   19.13227  19.23451  19.23882  19.28859  19.32277
 Alpha virt. eigenvalues --   19.33782  19.43123  19.47352  19.51316  19.58218
 Alpha virt. eigenvalues --   19.60600  19.63702  19.67465  19.68924  19.78567
 Alpha virt. eigenvalues --   19.94658  20.06835  20.30238  20.37249  20.62108
 Alpha virt. eigenvalues --   20.96192  21.36007  22.23871  22.28276  22.38110
 Alpha virt. eigenvalues --   22.52995  22.87725  22.88967  23.15636  23.29133
 Alpha virt. eigenvalues --   23.58911  23.77854  24.90916  40.14243  40.52181
 Alpha virt. eigenvalues --   62.36218  63.41294
          Condensed to atoms (all electrons):
               1          2          3          4          5          6
     1  C    4.990134   0.400941  -0.030479  -0.018962   0.414297   0.411135
     2  C    0.400941   4.771533   0.213009  -0.032745  -0.033109  -0.023685
     3  O   -0.030479   0.213009   8.106248   0.034731   0.004774  -0.001221
     4  O   -0.018962  -0.032745   0.034731   8.147193  -0.000724  -0.004767
     5  H    0.414297  -0.033109   0.004774  -0.000724   0.494416  -0.020550
     6  H    0.411135  -0.023685  -0.001221  -0.004767  -0.020550   0.462594
     7  H    0.410531  -0.029913  -0.001845   0.001554  -0.020391  -0.018370
     8  H   -0.039978   0.410345  -0.037577   0.000016  -0.001383  -0.004234
     9  H   -0.040280   0.426814  -0.039214   0.006991  -0.002288   0.005370
    10  H    0.000088   0.000949  -0.028013   0.287220   0.000077  -0.000067
               7          8          9         10
     1  C    0.410531  -0.039978  -0.040280   0.000088
     2  C   -0.029913   0.410345   0.426814   0.000949
     3  O   -0.001845  -0.037577  -0.039214  -0.028013
     4  O    0.001554   0.000016   0.006991   0.287220
     5  H   -0.020391  -0.001383  -0.002288   0.000077
     6  H   -0.018370  -0.004234   0.005370  -0.000067
     7  H    0.482212   0.006265  -0.004270  -0.000003
     8  H    0.006265   0.545033  -0.025615   0.003263
     9  H   -0.004270  -0.025615   0.497354  -0.000173
    10  H   -0.000003   0.003263  -0.000173   0.346256
 Mulliken charges:
               1
     1  C   -0.497428
     2  C   -0.104139
     3  O   -0.220413
     4  O   -0.420505
     5  H    0.164881
     6  H    0.193797
     7  H    0.174229
     8  H    0.143865
     9  H    0.175310
    10  H    0.390403
 Sum of Mulliken charges =  -0.00000
 Mulliken charges with hydrogens summed into heavy atoms:
               1
     1  C    0.035479
     2  C    0.215036
     3  O   -0.220413
     4  O   -0.030102
 Electronic spatial extent (au):  <R**2>=            306.5939
 Charge=             -0.0000 electrons
 Dipole moment (field-independent basis, Debye):
    X=             -0.5358    Y=              0.7264    Z=              1.6903  Tot=              1.9162
 Quadrupole moment (field-independent basis, Debye-Ang):
   XX=            -21.5011   YY=            -26.0055   ZZ=            -24.8767
   XY=             -0.0842   XZ=              2.8621   YZ=              0.3963
 Traceless Quadrupole moment (field-independent basis, Debye-Ang):
   XX=              2.6267   YY=             -1.8778   ZZ=             -0.7489
   XY=             -0.0842   XZ=              2.8621   YZ=              0.3963
 Octapole moment (field-independent basis, Debye-Ang**2):
  XXX=             19.7446  YYY=              1.2603  ZZZ=              0.2770  XYY=              0.6007
  XXY=              1.2712  XXZ=              6.0021  XZZ=              3.5775  YZZ=              0.0068
  YYZ=             -0.0582  XYZ=              0.0689
 Hexadecapole moment (field-independent basis, Debye-Ang**3):
 XXXX=           -214.8248 YYYY=            -89.0977 ZZZZ=            -46.7286 XXXY=             -2.8596
 XXXZ=             11.1599 YYYX=             -4.0563 YYYZ=             -2.5100 ZZZX=              3.2161
 ZZZY=              0.1143 XXYY=            -59.1089 XXZZ=            -45.4058 YYZZ=            -24.0686
 XXYZ=             -1.3408 YYXZ=              1.2812 ZZXY=             -0.8810
 N-N= 1.329161466194D+02 E-N=-8.055192849652D+02  KE= 2.286406667371D+02
 No NMR shielding tensors so no spin-rotation constants.
 Leave Link  601 at Fri Aug 26 15:23:43 2022, MaxMem= 24159191040 cpu:        21.8
 (Enter /public/home/users/caep010/software/Gaussian09/g09/l9999.exe)
 1\1\GINC-B1168\SP\RHF\GFHFB2\C2H6O2\ROOT\26-Aug-2022\0\\#P Geom=AllChe
 ck Guess=TCheck SCRF=Check HF/GFHFB2 SCF=Tight\\Frag_967\\0,1\C,0,-1.1
 059460486,-0.3134737301,-0.2759970298\C,0,-0.0157751266,0.6572096353,0
 .1570655032\O,0,1.2408548659,0.408939627,-0.460221087\O,0,1.7210885056
 ,-0.8626347085,0.0358928696\H,0,-2.0587620062,-0.0450793661,0.19204996
 31\H,0,-0.8493010392,-1.3323924836,0.0222514891\H,0,-1.2323238051,-0.2
 896916091,-1.362144122\H,0,0.1014253404,0.6609500978,1.2500741415\H,0,
 -0.2453187399,1.6805292187,-0.164784253\H,0,2.4440580539,-0.5643566814
 ,0.6059125252\\Version=ES64L-G09RevE.01\State=1-A\HF=-228.9494159\RMSD
 =3.189e-09\Dipole=-0.1993083,0.3098608,0.6577365\Quadrupole=1.6249061,
 -1.2982813,-0.3266248,-0.5784805,2.2581514,-0.0700154\PG=C01 [X(C2H6O2
 )]\\@


 You can't act like a skunk without someone's getting wind of it.
 -- Lorene Workman
 Diagonal vibrational polarizability:
        0.0000000       0.0000000       0.0000000

 Temperature=              298.150000 Pressure=                      1.000000
 E(ZPE)=                     0.081944 E(Thermal)=                    0.087363
 E(CCSD(T))=              -229.514673 E(Empiric)=                   -0.090311
 DE(Plus)=                  -0.018233 DE(2DF)=                      -0.196157
 E(Delta-G3XP)=             -0.281522 DE(HF)=                       -0.025793
 G4(0 K)=                 -230.044745 G4 Energy=                  -230.039326
 G4 Enthalpy=             -230.038382 G4 Free Energy=             -230.072395
 1\1\GINC-B1168\Mixed\G4\G4\C2H6O2\ROOT\26-Aug-2022\0\\#P Geom=AllCheck
  Guess=TCheck SCRF=Check HF/GFHFB2 SCF=Tight\\Frag_967\\0,1\C,0,-1.105
 9460486,-0.3134737301,-0.2759970298\C,0,-0.0157751266,0.6572096353,0.1
 570655032\O,0,1.2408548659,0.408939627,-0.460221087\O,0,1.7210885056,-
 0.8626347085,0.0358928696\H,0,-2.0587620062,-0.0450793661,0.1920499631
 \H,0,-0.8493010392,-1.3323924836,0.0222514891\H,0,-1.2323238051,-0.289
 6916091,-1.362144122\H,0,0.1014253404,0.6609500978,1.2500741415\H,0,-0
 .2453187399,1.6805292187,-0.164784253\H,0,2.4440580539,-0.5643566814,0
 .6059125252\\Version=ES64L-G09RevE.01\State=1-A\MP2/GTBas1=-229.460513
 7\MP4/GTBas1=-229.5139702\CCSD(T)/G3Bas1=-229.5146734\MP2/GTBas2=-229.
 4771804\MP4/GTBas2=-229.5322032\MP2/GTBas3=-229.6441308\MP4/GTBas3=-22
 9.710127\HF/GTLargeXP=-228.9246565\MP2/GTLargeXP=-229.9423192\HF/GFHFB
 1=-228.9451728\HF/GFHFB2=-228.9494159\G4=-230.0447446\FreqCoord=-2.089
 9351496,-0.5923794998,-0.5215587997,-0.0298106689,1.2419462226,0.29681
 0786,2.3448758671,0.7727838999,-0.8696918151,3.252385926,-1.6301433518
 ,0.0678276937,-3.8904963645,-0.0851876562,0.362921834,-1.6049463685,-2
 .5178568955,0.0420492204,-2.3287544987,-0.5474378042,-2.5740793441,0.1
 916661163,1.2490146723,2.3622977733,-0.4635852338,3.1757399817,-0.3113
 971091,4.6186003747,-1.0664795691,1.1450087331\PG=C01 [X(C2H6O2)]\NIma
 g=0\\0.51690329,-0.04819398,0.53505103,-0.02123173,-0.01726170,0.56886
 240,-0.12049564,-0.05466140,-0.03127166,0.43172767,-0.04815362,-0.1374
 5279,-0.02875486,-0.00945538,0.57389571,-0.02891509,-0.02518013,-0.095
 85532,0.03082120,-0.05280919,0.57301190,-0.04504666,0.00734643,0.01966
 186,-0.17021007,-0.01902692,0.07896059,0.32176780,-0.01707861,0.008841
 04,0.01209330,0.01657166,-0.06873816,-0.00139290,-0.08108922,0.2608077
 1,0.00199704,0.00148284,0.00675489,0.05725670,0.01876779,-0.11204501,-
 0.07300456,-0.09209182,0.18837289,0.00013465,-0.00131875,-0.00074985,-
 0.01249941,0.04695301,-0.01901915,-0.07617402,0.04847574,-0.01532351,0
 .37115623,-0.00282470,0.00338851,-0.00091600,0.01522999,-0.02927388,0.
 00294710,0.03810241,-0.17945606,0.04475994,0.05417236,0.29790901,-0.00
 120972,0.00046792,0.00103002,0.00079318,-0.01052921,0.00337228,-0.0314
 8814,0.08809904,-0.06143184,0.24770606,0.03962654,0.21921147,-0.244406
 73,0.05599102,0.09684282,-0.01738369,0.01015884,0.01200205,-0.00578303
 ,-0.00394026,-0.00155882,0.00082672,-0.00062479,0.00013104,0.26695369,
 0.05740722,-0.06284023,-0.02955964,-0.01686556,0.00677000,0.01125846,-
 0.00637345,-0.00341593,-0.00043479,0.00067985,-0.00007423,-0.00030484,
 -0.06124752,0.06490088,0.09814289,-0.02900476,-0.09527182,-0.00800757,
 0.00402461,0.00287940,-0.00261344,-0.00121098,0.00099608,0.00003073,-0
 .00015795,0.00004432,-0.10782797,0.03200891,0.09938162,-0.06161867,0.0
 6302616,-0.01835141,0.00612204,-0.02556559,0.00741648,0.00220782,0.001
 09091,0.00018629,-0.00155642,0.00084694,-0.00009792,-0.00614320,0.0260
 5435,-0.00902426,0.06527521,0.06022882,-0.27917476,0.06964224,0.005023
 50,-0.02223280,0.00619052,0.00110679,0.00011203,0.00011315,0.00097727,
 0.00145071,-0.00013551,0.00112318,-0.00591766,0.00182369,-0.06521502,0
 .30528603,-0.01859728,0.07005720,-0.06979425,0.00382643,-0.01054219,0.
 00260917,0.00055051,0.00077672,-0.00016687,-0.00032650,0.00049142,-0.0
 0030155,0.00277484,-0.01419728,0.00343015,0.02127342,-0.07526017,0.070
 72720,-0.04940202,0.00175609,-0.02733138,-0.00400546,0.00011854,-0.026
 37556,0.00294942,0.00138008,0.00089773,-0.00045440,0.00010603,0.000228
 55,0.00436254,-0.00159761,0.02837578,-0.00160828,-0.00014178,-0.008146
 70,0.05049920,0.00079036,-0.04833999,0.01040555,-0.00187017,-0.0005400
 9,-0.02540472,0.00159265,0.00121406,0.00174405,0.00033937,-0.00011880,
 0.00013050,-0.00131686,-0.00094601,-0.00808627,0.00212301,0.00057810,0
 .03036957,0.00147941,0.04958553,-0.02912366,0.00864926,-0.30927653,-0.
 00017776,-0.00005261,-0.01084060,-0.00014513,0.00065954,0.00211965,-0.
 00033216,0.00003153,-0.00009579,-0.00200091,0.00093028,-0.01191393,-0.
 00018743,-0.00041191,-0.00768831,0.03296082,-0.00778310,0.33599125,-0.
 00185985,-0.00023616,-0.02449716,-0.05327572,0.00250340,-0.04094424,-0
 .01156905,0.00347693,0.04309878,0.00337987,-0.00349275,-0.00111505,0.0
 0070687,0.00080624,0.00063182,0.00069016,0.00004932,0.00083518,-0.0031
 9090,-0.00411994,-0.00105893,0.06505879,-0.00497633,0.00047810,-0.0222
 6529,-0.00257493,-0.05273566,0.00699927,0.00730192,0.00024023,-0.00782
 502,-0.00268782,0.00177840,-0.00168834,0.00022669,0.00067871,0.0004993
 0,0.00102805,0.00080590,-0.00004896,-0.00356896,-0.00223016,-0.0016214
 6,0.00198592,0.04953059,-0.00266873,0.00111711,-0.00900720,-0.03643580
 ,0.00259987,-0.28778785,0.01351972,-0.00001969,-0.02018123,-0.00064062
 ,0.00067564,0.00478326,-0.00089524,-0.00026187,0.00010875,0.00035972,-
 0.00014570,0.00051256,-0.00138951,-0.00115223,0.00102334,0.02979649,-0
 .00192974,0.31902254,0.00576162,-0.02368517,0.00678025,-0.05644125,0.0
 4186277,-0.01146576,-0.01212898,0.03112597,-0.01000457,-0.00762337,0.0
 0468749,0.00257128,0.00075538,0.00095907,0.00033771,-0.00363444,-0.003
 42016,-0.00202824,0.00078628,0.00089135,-0.00003568,0.00049565,0.00284
 934,-0.00202184,0.07192226,0.00296015,-0.01920097,0.00661615,0.0485854
 5,-0.26674232,0.07228271,0.00798467,-0.01142364,0.00257187,0.00068050,
 0.00312724,-0.00213081,-0.00034405,0.00051481,0.00018487,-0.00346423,-
 0.00126919,-0.00140838,0.00050397,0.00090126,-0.00038221,-0.00082652,0
 .00081438,0.00021487,-0.05620191,0.29349133,0.00102521,-0.01044295,0.0
 0327637,-0.01729918,0.07722119,-0.07725439,0.00431380,-0.01295078,0.00
 431280,0.00297930,-0.00259177,0.00129829,0.00031745,0.00049960,0.00024
 464,-0.00143575,-0.00166347,0.00058483,0.00083805,-0.00008165,0.000712
 18,-0.00668093,0.02832038,-0.00777238,0.01548840,-0.07762750,0.0749139
 9,0.00003001,-0.00002425,0.00014827,-0.00353846,0.00060495,-0.00248051
 ,-0.00601322,-0.00001319,-0.00354507,-0.27718987,-0.10620299,-0.217519
 28,0.00011144,0.00017739,-0.00004568,0.00026579,0.00026806,-0.00016166
 ,0.00006362,0.00009082,0.00010084,-0.00043582,0.00041612,0.00037581,0.
 00010685,0.00012197,0.00045365,0.28659965,-0.00015932,-0.00074994,0.00
 000026,0.00001683,-0.00295002,0.00510887,0.04305471,-0.00818126,0.0309
 1199,-0.14827155,-0.09873091,-0.11353530,-0.00002625,0.00032965,-0.000
 08142,0.00007541,0.00036164,-0.00023792,-0.00003578,-0.00010391,-0.000
 01932,-0.00014644,0.00063950,-0.00109827,0.00093125,-0.00021292,-0.000
 68306,0.10456114,0.10959817,0.00058109,0.00011521,-0.00071856,0.000494
 45,0.00007458,0.00191043,-0.00975521,0.00603758,-0.00873136,-0.2143243
 0,-0.08486645,-0.16791044,0.00021475,0.00006118,0.00010081,-0.00013913
 ,-0.00015284,0.00008709,-0.00005778,-0.00014171,-0.00003124,-0.0000659
 6,-0.00044015,-0.00070178,0.00037845,-0.00032156,-0.00031632,0.2226736
 4,0.07963417,0.17631139\\-0.00001335,-0.00000928,0.00000125,0.00004227
 ,-0.00000577,-0.00001800,-0.00001936,-0.00001632,0.00002860,0.00000120
 ,0.00005368,-0.00000872,0.00000995,-0.00000539,-0.00000070,0.00000233,
 0.00000663,-0.00000549,-0.00000084,-0.00000451,0.00000815,-0.00001161,
 -0.00000572,0.00000445,0.00000072,-0.00001268,0.00000414,-0.00001130,-
 0.00000064,-0.00001368\\\@
 Job cpu time:       0 days  0 hours 23 minutes 31.0 seconds.
 File lengths (MBytes):  RWF=   1037 Int=      0 D2E=      0 Chk=     18 Scr=      1
 Normal termination of Gaussian 09 at Fri Aug 26 15:23:43 2022.
