 Entering Gaussian System, Link 0=g09
 Input=G4.Frag_826.gjf
 Output=G4.Frag_826.log
 Initial command:
 /public/home/users/caep010/software/Gaussian09/g09/l1.exe "/public/home/users/caep010/.cache/gau_scr/Gau-191421.inp" -scrdir="/public/home/users/caep010/.cache/gau_scr/"
 Entering Link 1 = /public/home/users/caep010/software/Gaussian09/g09/l1.exe PID=    191422.
  
 Copyright (c) 1988,1990,1992,1993,1995,1998,2003,2009,2015,
            Gaussian, Inc.  All Rights Reserved.
  
 This is part of the Gaussian(R) 09 program.  It is based on
 the Gaussian(R) 03 system (copyright 2003, Gaussian, Inc.),
 the Gaussian(R) 98 system (copyright 1998, Gaussian, Inc.),
 the Gaussian(R) 94 system (copyright 1995, Gaussian, Inc.),
 the Gaussian 92(TM) system (copyright 1992, Gaussian, Inc.),
 the Gaussian 90(TM) system (copyright 1990, Gaussian, Inc.),
 the Gaussian 88(TM) system (copyright 1988, Gaussian, Inc.),
 the Gaussian 86(TM) system (copyright 1986, Carnegie Mellon
 University), and the Gaussian 82(TM) system (copyright 1983,
 Carnegie Mellon University). Gaussian is a federally registered
 trademark of Gaussian, Inc.
  
 This software contains proprietary and confidential information,
 including trade secrets, belonging to Gaussian, Inc.
  
 This software is provided under written license and may be
 used, copied, transmitted, or stored only in accord with that
 written license.
  
 The following legend is applicable only to US Government
 contracts under FAR:
  
                    RESTRICTED RIGHTS LEGEND
  
 Use, reproduction and disclosure by the US Government is
 subject to restrictions as set forth in subparagraphs (a)
 and (c) of the Commercial Computer Software - Restricted
 Rights clause in FAR 52.227-19.
  
 Gaussian, Inc.
 340 Quinnipiac St., Bldg. 40, Wallingford CT 06492
  
  
 ---------------------------------------------------------------
 Warning -- This program may not be used in any manner that
 competes with the business of Gaussian, Inc. or will provide
 assistance to any competitor of Gaussian, Inc.  The licensee
 of this program is prohibited from giving any competitor of
 Gaussian, Inc. access to this program.  By using this program,
 the user acknowledges that Gaussian, Inc. is engaged in the
 business of creating and licensing software in the field of
 computational chemistry and represents and warrants to the
 licensee that it is not a competitor of Gaussian, Inc. and that
 it will not use this program in any manner prohibited above.
 ---------------------------------------------------------------
  

 Cite this work as:
 Gaussian 09, Revision E.01,
 M. J. Frisch, G. W. Trucks, H. B. Schlegel, G. E. Scuseria, 
 M. A. Robb, J. R. Cheeseman, G. Scalmani, V. Barone, B. Mennucci, 
 G. A. Petersson, H. Nakatsuji, M. Caricato, X. Li, H. P. Hratchian, 
 A. F. Izmaylov, J. Bloino, G. Zheng, J. L. Sonnenberg, M. Hada, 
 M. Ehara, K. Toyota, R. Fukuda, J. Hasegawa, M. Ishida, T. Nakajima, 
 Y. Honda, O. Kitao, H. Nakai, T. Vreven, J. A. Montgomery, Jr., 
 J. E. Peralta, F. Ogliaro, M. Bearpark, J. J. Heyd, E. Brothers, 
 K. N. Kudin, V. N. Staroverov, T. Keith, R. Kobayashi, J. Normand, 
 K. Raghavachari, A. Rendell, J. C. Burant, S. S. Iyengar, J. Tomasi, 
 M. Cossi, N. Rega, J. M. Millam, M. Klene, J. E. Knox, J. B. Cross, 
 V. Bakken, C. Adamo, J. Jaramillo, R. Gomperts, R. E. Stratmann, 
 O. Yazyev, A. J. Austin, R. Cammi, C. Pomelli, J. W. Ochterski, 
 R. L. Martin, K. Morokuma, V. G. Zakrzewski, G. A. Voth, 
 P. Salvador, J. J. Dannenberg, S. Dapprich, A. D. Daniels, 
 O. Farkas, J. B. Foresman, J. V. Ortiz, J. Cioslowski, 
 and D. J. Fox, Gaussian, Inc., Wallingford CT, 2013.
 
 ******************************************
 Gaussian 09:  ES64L-G09RevE.01 30-Nov-2015
                30-Aug-2022 
 ******************************************
 %nproc=32
 Will use up to   32 processors via shared memory.
 %mem=180GB
 %chk=G4.Frag_826.chk
 -----
 #P G4
 -----
 1/14=-1,18=20,19=15,26=3,38=1/1,3;
 2/9=110,12=2,17=6,18=5,40=1/2;
 3/5=35,7=104,11=2,16=1,25=1,30=1,71=1,74=-5/1,2,3;
 4//1;
 5/5=2,38=5/2;
 6/7=2,8=2,9=2,10=2,28=1/1;
 7//1,2,3,16;
 1/14=-1,18=20,19=15,26=3/3(2);
 2/9=110/2;
 99//99;
 2/9=110/2;
 3/5=35,7=104,11=2,16=1,25=1,30=1,71=1,74=-5/1,2,3;
 4/5=5,16=3,69=1/1;
 5/5=2,38=5/2;
 7//1,2,3,16;
 1/14=-1,18=20,19=15,26=3/3(-5);
 2/9=110/2;
 6/7=2,8=2,9=2,10=2,19=2,28=1/1;
 99/9=1/99;
 Leave Link    1 at Tue Aug 30 12:28:59 2022, MaxMem= 24159191040 cpu:         2.8
 (Enter /public/home/users/caep010/software/Gaussian09/g09/l101.exe)
 --------
 Frag_826
 --------
 Symbolic Z-matrix:
 Charge =  0 Multiplicity = 1
 N                     1.16916  -0.78377  -0.46451 
 C                     0.16847  -0.22421   0.04611 
 O                     0.02429   1.129     0.17258 
 O                    -0.84361  -0.97938   0.51427 
 H                     1.83536  -0.08368  -0.85569 
 H                    -0.80311   1.38432   0.23366 
 H                    -1.55057  -0.44238   1.26218 
 
 Add virtual bond connecting atoms H7         and O4         Dist= 2.19D+00.
 NAtoms=      7 NQM=        7 NQMF=       0 NMMI=      0 NMMIF=      0
                NMic=       0 NMicF=      0.
                    Isotopes and Nuclear Properties:
 (Nuclear quadrupole moments (NQMom) in fm**2, nuclear magnetic moments (NMagM)
  in nuclear magnetons)

  Atom         1           2           3           4           5           6           7
 IAtWgt=          14          12          16          16           1           1           1
 AtmWgt=  14.0030740  12.0000000  15.9949146  15.9949146   1.0078250   1.0078250   1.0078250
 NucSpn=           2           0           0           0           1           1           1
 AtZEff=   0.0000000   0.0000000   0.0000000   0.0000000   0.0000000   0.0000000   0.0000000
 NQMom=    2.0440000   0.0000000   0.0000000   0.0000000   0.0000000   0.0000000   0.0000000
 NMagM=    0.4037610   0.0000000   0.0000000   0.0000000   2.7928460   2.7928460   2.7928460
 AtZNuc=   7.0000000   6.0000000   8.0000000   8.0000000   1.0000000   1.0000000   1.0000000
 Leave Link  101 at Tue Aug 30 12:28:59 2022, MaxMem= 24159191040 cpu:        21.3
 (Enter /public/home/users/caep010/software/Gaussian09/g09/l103.exe)

 GradGradGradGradGradGradGradGradGradGradGradGradGradGradGradGradGradGrad
 Berny optimization.
 Initialization pass.
                           ----------------------------
                           !    Initial Parameters    !
                           ! (Angstroms and Degrees)  !
 --------------------------                            --------------------------
 ! Name  Definition              Value          Derivative Info.                !
 --------------------------------------------------------------------------------
 ! R1    R(1,2)                  1.2551         estimate D2E/DX2                !
 ! R2    R(1,5)                  1.0426         estimate D2E/DX2                !
 ! R3    R(2,3)                  1.3667         estimate D2E/DX2                !
 ! R4    R(2,4)                  1.3468         estimate D2E/DX2                !
 ! R5    R(3,6)                  0.868          estimate D2E/DX2                !
 ! R6    R(4,7)                  1.1608         estimate D2E/DX2                !
 ! A1    A(2,1,5)              111.2685         estimate D2E/DX2                !
 ! A2    A(1,2,3)              124.2768         estimate D2E/DX2                !
 ! A3    A(1,2,4)              119.3802         estimate D2E/DX2                !
 ! A4    A(3,2,4)              116.3424         estimate D2E/DX2                !
 ! A5    A(2,3,6)              113.4708         estimate D2E/DX2                !
 ! A6    A(2,4,7)              114.9762         estimate D2E/DX2                !
 ! D1    D(5,1,2,3)             -5.084          estimate D2E/DX2                !
 ! D2    D(5,1,2,4)            175.2079         estimate D2E/DX2                !
 ! D3    D(1,2,3,6)            156.5632         estimate D2E/DX2                !
 ! D4    D(4,2,3,6)            -23.7206         estimate D2E/DX2                !
 ! D5    D(1,2,4,7)            160.9836         estimate D2E/DX2                !
 ! D6    D(3,2,4,7)            -18.7472         estimate D2E/DX2                !
 --------------------------------------------------------------------------------
 Trust Radius=3.00D-01 FncErr=1.00D-07 GrdErr=1.00D-06
 Number of steps in this run=     28 maximum allowed number of steps=    100.
 GradGradGradGradGradGradGradGradGradGradGradGradGradGradGradGradGradGrad

 Leave Link  103 at Tue Aug 30 12:29:00 2022, MaxMem= 24159191040 cpu:         0.4
 (Enter /public/home/users/caep010/software/Gaussian09/g09/l202.exe)
                          Input orientation:                          
 ---------------------------------------------------------------------
 Center     Atomic      Atomic             Coordinates (Angstroms)
 Number     Number       Type             X           Y           Z
 ---------------------------------------------------------------------
      1          7           0        1.169163   -0.783773   -0.464510
      2          6           0        0.168474   -0.224206    0.046106
      3          8           0        0.024291    1.129001    0.172581
      4          8           0       -0.843609   -0.979377    0.514269
      5          1           0        1.835358   -0.083684   -0.855686
      6          1           0       -0.803109    1.384316    0.233657
      7          1           0       -1.550568   -0.442377    1.262183
 ---------------------------------------------------------------------
                    Distance matrix (angstroms):
                    1          2          3          4          5
     1  N    0.000000
     2  C    1.255079   0.000000
     3  O    2.318474   1.366731   0.000000
     4  O    2.246669   1.346763   2.305485   0.000000
     5  H    1.042573   1.900389   2.409959   3.139412   0.000000
     6  H    3.012956   1.888516   0.868048   2.380636   3.209860
     7  H    3.239592   2.116967   2.477225   1.160834   4.009804
                    6          7
     6  H    0.000000
     7  H    2.225616   0.000000
 Stoichiometry    CH3NO2
 Framework group  C1[X(CH3NO2)]
 Deg. of freedom    15
 Full point group                 C1      NOp   1
 Largest Abelian subgroup         C1      NOp   1
 Largest concise Abelian subgroup C1      NOp   1
                         Standard orientation:                         
 ---------------------------------------------------------------------
 Center     Atomic      Atomic             Coordinates (Angstroms)
 Number     Number       Type             X           Y           Z
 ---------------------------------------------------------------------
      1          7           0       -1.274090   -0.559172   -0.012582
      2          6           0       -0.119203   -0.067927   -0.000922
      3          8           0        0.147614    1.272133   -0.032601
      4          8           0        0.947641   -0.888887    0.039592
      5          1           0       -2.002265    0.185338    0.036672
      6          1           0        0.924442    1.477827    0.295629
      7          1           0        1.949630   -0.407370   -0.294616
 ---------------------------------------------------------------------
 Rotational constants (GHZ):     11.1054638     10.8466148      5.5125516
 Leave Link  202 at Tue Aug 30 12:29:00 2022, MaxMem= 24159191040 cpu:         0.4
 (Enter /public/home/users/caep010/software/Gaussian09/g09/l301.exe)
 Standard basis: GTBas3 (6D, 7F)
 Ernie: Thresh=  0.10000D-02 Tol=  0.10000D-05 Strict=F.
 There are   139 symmetry adapted cartesian basis functions of A   symmetry.
 There are   127 symmetry adapted basis functions of A   symmetry.
   127 basis functions,   197 primitive gaussians,   139 cartesian basis functions
    16 alpha electrons       16 beta electrons
       nuclear repulsion energy       122.2437722614 Hartrees.
 IExCor=  402 DFT=T Ex+Corr=B3LYP ExCW=0 ScaHFX=  0.200000
 ScaDFX=  0.800000  0.720000  1.000000  0.810000 ScalE2=  1.000000  1.000000
 IRadAn=      0 IRanWt=     -1 IRanGd=            0 ICorTp=0 IEmpDi=  4
 NAtoms=    7 NActive=    7 NUniq=    7 SFac= 1.00D+00 NAtFMM=   60 NAOKFM=F Big=F
 Integral buffers will be    131072 words long.
 Raffenetti 2 integral format.
 Two-electron integral symmetry is turned on.
 Leave Link  301 at Tue Aug 30 12:29:00 2022, MaxMem= 24159191040 cpu:         7.3
 (Enter /public/home/users/caep010/software/Gaussian09/g09/l302.exe)
 NPDir=0 NMtPBC=     1 NCelOv=     1 NCel=       1 NClECP=     1 NCelD=      1
         NCelK=      1 NCelE2=     1 NClLst=     1 CellRange=     0.0.
 One-electron integrals computed using PRISM.
 NBasis=   127 RedAO= T EigKep=  3.95D-04  NBF=   127
 NBsUse=   127 1.00D-06 EigRej= -1.00D+00 NBFU=   127
 Precomputing XC quadrature grid using
 IXCGrd= 4 IRadAn=           0 IRanWt=          -1 IRanGd=           0 AccXCQ= 0.00D+00.
 Generated NRdTot=       0 NPtTot=           0 NUsed=           0 NTot=          32
 NSgBfM=   139   139   139   139   139 MxSgAt=     7 MxSgA2=     7.
 Leave Link  302 at Tue Aug 30 12:29:01 2022, MaxMem= 24159191040 cpu:        21.6
 (Enter /public/home/users/caep010/software/Gaussian09/g09/l303.exe)
 DipDrv:  MaxL=1.
 Leave Link  303 at Tue Aug 30 12:29:01 2022, MaxMem= 24159191040 cpu:         0.8
 (Enter /public/home/users/caep010/software/Gaussian09/g09/l401.exe)
 ExpMin= 1.61D-01 ExpMax= 5.48D+03 ExpMxC= 8.25D+02 IAcc=1 IRadAn=         1 AccDes= 0.00D+00
 Harris functional with IExCor=  402 and IRadAn=       1 diagonalized for initial guess.
 HarFok:  IExCor=  402 AccDes= 0.00D+00 IRadAn=         1 IDoV= 1 UseB2=F ITyADJ=14
 ICtDFT=  3500011 ScaDFX=  1.000000  1.000000  1.000000  1.000000
 FoFCou: FMM=F IPFlag=           0 FMFlag=      100000 FMFlg1=           0
         NFxFlg=           0 DoJE=T BraDBF=F KetDBF=T FulRan=T
         wScrn=  0.000000 ICntrl=     500 IOpCl=  0 I1Cent=   200000004 NGrid=           0
         NMat0=    1 NMatS0=      1 NMatT0=    0 NMatD0=    1 NMtDS0=    0 NMtDT0=    0
 Petite list used in FoFCou.
 Harris En= -245.118942022813    
 JPrj=0 DoOrth=F DoCkMO=F.
 Leave Link  401 at Tue Aug 30 12:29:02 2022, MaxMem= 24159191040 cpu:        20.4
 (Enter /public/home/users/caep010/software/Gaussian09/g09/l502.exe)
 Closed shell SCF:
 Using DIIS extrapolation, IDIIS=  1040.
 Integral symmetry usage will be decided dynamically.
 Keep R1 ints in memory in canonical form, NReq=35100127.
 IVT=       81969 IEndB=       81969 NGot= 24159191040 MDV= 24126072816
 LenX= 24126072816 LenY= 24126053054
 Requested convergence on RMS density matrix=1.00D-08 within 128 cycles.
 Requested convergence on MAX density matrix=1.00D-06.
 Requested convergence on             energy=1.00D-06.
 No special actions if energy rises.
 FoFCou: FMM=F IPFlag=           0 FMFlag=           0 FMFlg1=           0
         NFxFlg=           0 DoJE=F BraDBF=F KetDBF=F FulRan=T
         wScrn=  0.000000 ICntrl=     600 IOpCl=  0 I1Cent=           0 NGrid=           0
         NMat0=    1 NMatS0=   8128 NMatT0=    0 NMatD0=    1 NMtDS0=    0 NMtDT0=    0
 Symmetry not used in FoFCou.
 Integral accuracy reduced to 1.0D-05 until final iterations.

 Cycle   1  Pass 0  IDiag  1:
 E= -244.907958597867    
 DIIS: error= 2.64D-02 at cycle   1 NSaved=   1.
 NSaved= 1 IEnMin= 1 EnMin= -244.907958597867     IErMin= 1 ErrMin= 2.64D-02
 ErrMax= 2.64D-02  0.00D+00 EMaxC= 1.00D-01 BMatC= 2.17D-01 BMatP= 2.17D-01
 IDIUse=3 WtCom= 7.36D-01 WtEn= 2.64D-01
 Coeff-Com:  0.100D+01
 Coeff-En:   0.100D+01
 Coeff:      0.100D+01
 Gap=     0.182 Goal=   None    Shift=    0.000
 GapD=    0.182 DampG=1.000 DampE=0.500 DampFc=0.5000 IDamp=-1.
 Damping current iteration by 5.00D-01
 RMSDP=8.20D-03 MaxDP=2.20D-01              OVMax= 3.25D-01

 Cycle   2  Pass 0  IDiag  1:
 E= -244.950613099902     Delta-E=       -0.042654502035 Rises=F Damp=T
 DIIS: error= 1.04D-02 at cycle   2 NSaved=   2.
 NSaved= 2 IEnMin= 2 EnMin= -244.950613099902     IErMin= 2 ErrMin= 1.04D-02
 ErrMax= 1.04D-02  0.00D+00 EMaxC= 1.00D-01 BMatC= 2.44D-02 BMatP= 2.17D-01
 IDIUse=3 WtCom= 8.96D-01 WtEn= 1.04D-01
 Coeff-Com:  0.209D+00 0.791D+00
 Coeff-En:   0.371D+00 0.629D+00
 Coeff:      0.226D+00 0.774D+00
 Gap=     0.252 Goal=   None    Shift=    0.000
 RMSDP=2.14D-03 MaxDP=5.68D-02 DE=-4.27D-02 OVMax= 2.39D-01

 Cycle   3  Pass 0  IDiag  1:
 E= -245.066112439497     Delta-E=       -0.115499339595 Rises=F Damp=F
 DIIS: error= 6.54D-03 at cycle   3 NSaved=   3.
 NSaved= 3 IEnMin= 3 EnMin= -245.066112439497     IErMin= 3 ErrMin= 6.54D-03
 ErrMax= 6.54D-03  0.00D+00 EMaxC= 1.00D-01 BMatC= 1.26D-02 BMatP= 2.44D-02
 IDIUse=3 WtCom= 9.35D-01 WtEn= 6.54D-02
 Coeff-Com:  0.967D-01 0.436D+00 0.467D+00
 Coeff-En:   0.000D+00 0.000D+00 0.100D+01
 Coeff:      0.904D-01 0.408D+00 0.502D+00
 Gap=     0.238 Goal=   None    Shift=    0.000
 RMSDP=9.51D-04 MaxDP=3.00D-02 DE=-1.15D-01 OVMax= 5.97D-02

 Cycle   4  Pass 0  IDiag  1:
 E= -245.075289934100     Delta-E=       -0.009177494602 Rises=F Damp=F
 DIIS: error= 2.84D-03 at cycle   4 NSaved=   4.
 NSaved= 4 IEnMin= 4 EnMin= -245.075289934100     IErMin= 4 ErrMin= 2.84D-03
 ErrMax= 2.84D-03  0.00D+00 EMaxC= 1.00D-01 BMatC= 2.01D-03 BMatP= 1.26D-02
 IDIUse=3 WtCom= 9.72D-01 WtEn= 2.84D-02
 Coeff-Com:  0.443D-02 0.488D-01 0.287D+00 0.660D+00
 Coeff-En:   0.000D+00 0.000D+00 0.141D+00 0.859D+00
 Coeff:      0.431D-02 0.474D-01 0.283D+00 0.666D+00
 Gap=     0.243 Goal=   None    Shift=    0.000
 RMSDP=2.97D-04 MaxDP=8.41D-03 DE=-9.18D-03 OVMax= 1.49D-02

 Cycle   5  Pass 0  IDiag  1:
 E= -245.076729380671     Delta-E=       -0.001439446571 Rises=F Damp=F
 DIIS: error= 6.10D-04 at cycle   5 NSaved=   5.
 NSaved= 5 IEnMin= 5 EnMin= -245.076729380671     IErMin= 5 ErrMin= 6.10D-04
 ErrMax= 6.10D-04  0.00D+00 EMaxC= 1.00D-01 BMatC= 1.21D-04 BMatP= 2.01D-03
 IDIUse=3 WtCom= 9.94D-01 WtEn= 6.10D-03
 Coeff-Com: -0.137D-02 0.434D-02 0.130D+00 0.355D+00 0.512D+00
 Coeff-En:   0.000D+00 0.000D+00 0.000D+00 0.000D+00 0.100D+01
 Coeff:     -0.136D-02 0.432D-02 0.130D+00 0.352D+00 0.515D+00
 Gap=     0.241 Goal=   None    Shift=    0.000
 RMSDP=7.98D-05 MaxDP=2.28D-03 DE=-1.44D-03 OVMax= 2.58D-03

 Cycle   6  Pass 0  IDiag  1:
 E= -245.076818365108     Delta-E=       -0.000088984437 Rises=F Damp=F
 DIIS: error= 1.60D-04 at cycle   6 NSaved=   6.
 NSaved= 6 IEnMin= 6 EnMin= -245.076818365108     IErMin= 6 ErrMin= 1.60D-04
 ErrMax= 1.60D-04  0.00D+00 EMaxC= 1.00D-01 BMatC= 8.88D-06 BMatP= 1.21D-04
 IDIUse=3 WtCom= 9.98D-01 WtEn= 1.60D-03
 Coeff-Com: -0.549D-03-0.131D-02 0.444D-01 0.120D+00 0.270D+00 0.568D+00
 Coeff-En:   0.000D+00 0.000D+00 0.000D+00 0.000D+00 0.000D+00 0.100D+01
 Coeff:     -0.548D-03-0.130D-02 0.443D-01 0.120D+00 0.269D+00 0.568D+00
 Gap=     0.241 Goal=   None    Shift=    0.000
 RMSDP=2.02D-05 MaxDP=6.02D-04 DE=-8.90D-05 OVMax= 7.23D-04

 Cycle   7  Pass 0  IDiag  1:
 E= -245.076824407421     Delta-E=       -0.000006042313 Rises=F Damp=F
 DIIS: error= 5.20D-05 at cycle   7 NSaved=   7.
 NSaved= 7 IEnMin= 7 EnMin= -245.076824407421     IErMin= 7 ErrMin= 5.20D-05
 ErrMax= 5.20D-05  0.00D+00 EMaxC= 1.00D-01 BMatC= 9.92D-07 BMatP= 8.88D-06
 IDIUse=1 WtCom= 1.00D+00 WtEn= 0.00D+00
 Coeff-Com: -0.159D-03-0.128D-02 0.148D-01 0.376D-01 0.115D+00 0.324D+00
 Coeff-Com:  0.511D+00
 Coeff:     -0.159D-03-0.128D-02 0.148D-01 0.376D-01 0.115D+00 0.324D+00
 Coeff:      0.511D+00
 Gap=     0.242 Goal=   None    Shift=    0.000
 RMSDP=6.47D-06 MaxDP=1.55D-04 DE=-6.04D-06 OVMax= 2.08D-04

 Initial convergence to 1.0D-05 achieved.  Increase integral accuracy.
 Cycle   8  Pass 1  IDiag  1:
 E= -245.076826768783     Delta-E=       -0.000002361362 Rises=F Damp=F
 DIIS: error= 1.11D-05 at cycle   1 NSaved=   1.
 NSaved= 1 IEnMin= 1 EnMin= -245.076826768783     IErMin= 1 ErrMin= 1.11D-05
 ErrMax= 1.11D-05  0.00D+00 EMaxC= 1.00D-01 BMatC= 4.72D-08 BMatP= 4.72D-08
 IDIUse=1 WtCom= 1.00D+00 WtEn= 0.00D+00
 Coeff-Com:  0.100D+01
 Coeff:      0.100D+01
 Gap=     0.242 Goal=   None    Shift=    0.000
 RMSDP=6.47D-06 MaxDP=1.55D-04 DE=-2.36D-06 OVMax= 8.33D-05

 Cycle   9  Pass 1  IDiag  1:
 E= -245.076826748720     Delta-E=        0.000000020063 Rises=F Damp=F
 DIIS: error= 1.40D-05 at cycle   2 NSaved=   2.
 NSaved= 2 IEnMin= 1 EnMin= -245.076826768783     IErMin= 1 ErrMin= 1.11D-05
 ErrMax= 1.40D-05  0.00D+00 EMaxC= 1.00D-01 BMatC= 7.48D-08 BMatP= 4.72D-08
 IDIUse=1 WtCom= 1.00D+00 WtEn= 0.00D+00
 Coeff-Com:  0.567D+00 0.433D+00
 Coeff:      0.567D+00 0.433D+00
 Gap=     0.242 Goal=   None    Shift=    0.000
 RMSDP=1.88D-06 MaxDP=5.41D-05 DE= 2.01D-08 OVMax= 1.02D-04

 Cycle  10  Pass 1  IDiag  1:
 E= -245.076826803287     Delta-E=       -0.000000054567 Rises=F Damp=F
 DIIS: error= 4.75D-06 at cycle   3 NSaved=   3.
 NSaved= 3 IEnMin= 3 EnMin= -245.076826803287     IErMin= 3 ErrMin= 4.75D-06
 ErrMax= 4.75D-06  0.00D+00 EMaxC= 1.00D-01 BMatC= 5.61D-09 BMatP= 4.72D-08
 IDIUse=1 WtCom= 1.00D+00 WtEn= 0.00D+00
 Coeff-Com:  0.732D-01 0.221D+00 0.706D+00
 Coeff:      0.732D-01 0.221D+00 0.706D+00
 Gap=     0.242 Goal=   None    Shift=    0.000
 RMSDP=6.10D-07 MaxDP=1.83D-05 DE=-5.46D-08 OVMax= 3.29D-05

 Cycle  11  Pass 1  IDiag  1:
 E= -245.076826807263     Delta-E=       -0.000000003976 Rises=F Damp=F
 DIIS: error= 1.48D-06 at cycle   4 NSaved=   4.
 NSaved= 4 IEnMin= 4 EnMin= -245.076826807263     IErMin= 4 ErrMin= 1.48D-06
 ErrMax= 1.48D-06  0.00D+00 EMaxC= 1.00D-01 BMatC= 6.70D-10 BMatP= 5.61D-09
 IDIUse=1 WtCom= 1.00D+00 WtEn= 0.00D+00
 Coeff-Com: -0.162D-02 0.882D-01 0.384D+00 0.530D+00
 Coeff:     -0.162D-02 0.882D-01 0.384D+00 0.530D+00
 Gap=     0.242 Goal=   None    Shift=    0.000
 RMSDP=2.21D-07 MaxDP=6.80D-06 DE=-3.98D-09 OVMax= 1.15D-05

 Cycle  12  Pass 1  IDiag  1:
 E= -245.076826807822     Delta-E=       -0.000000000559 Rises=F Damp=F
 DIIS: error= 4.20D-07 at cycle   5 NSaved=   5.
 NSaved= 5 IEnMin= 5 EnMin= -245.076826807822     IErMin= 5 ErrMin= 4.20D-07
 ErrMax= 4.20D-07  0.00D+00 EMaxC= 1.00D-01 BMatC= 6.94D-11 BMatP= 6.70D-10
 IDIUse=1 WtCom= 1.00D+00 WtEn= 0.00D+00
 Coeff-Com: -0.748D-02 0.335D-01 0.166D+00 0.313D+00 0.495D+00
 Coeff:     -0.748D-02 0.335D-01 0.166D+00 0.313D+00 0.495D+00
 Gap=     0.242 Goal=   None    Shift=    0.000
 RMSDP=5.30D-08 MaxDP=1.43D-06 DE=-5.59D-10 OVMax= 1.79D-06

 Cycle  13  Pass 1  IDiag  1:
 E= -245.076826807870     Delta-E=       -0.000000000048 Rises=F Damp=F
 DIIS: error= 1.03D-07 at cycle   6 NSaved=   6.
 NSaved= 6 IEnMin= 6 EnMin= -245.076826807870     IErMin= 6 ErrMin= 1.03D-07
 ErrMax= 1.03D-07  0.00D+00 EMaxC= 1.00D-01 BMatC= 3.42D-12 BMatP= 6.94D-11
 IDIUse=1 WtCom= 1.00D+00 WtEn= 0.00D+00
 Coeff-Com: -0.367D-02 0.110D-01 0.567D-01 0.130D+00 0.245D+00 0.561D+00
 Coeff:     -0.367D-02 0.110D-01 0.567D-01 0.130D+00 0.245D+00 0.561D+00
 Gap=     0.242 Goal=   None    Shift=    0.000
 RMSDP=1.22D-08 MaxDP=4.82D-07 DE=-4.76D-11 OVMax= 6.19D-07

 Cycle  14  Pass 1  IDiag  1:
 E= -245.076826807876     Delta-E=       -0.000000000006 Rises=F Damp=F
 DIIS: error= 4.22D-08 at cycle   7 NSaved=   7.
 NSaved= 7 IEnMin= 7 EnMin= -245.076826807876     IErMin= 7 ErrMin= 4.22D-08
 ErrMax= 4.22D-08  0.00D+00 EMaxC= 1.00D-01 BMatC= 3.61D-13 BMatP= 3.42D-12
 IDIUse=1 WtCom= 1.00D+00 WtEn= 0.00D+00
 Coeff-Com: -0.553D-03 0.483D-03 0.959D-03 0.156D-01 0.239D-01 0.239D+00
 Coeff-Com:  0.721D+00
 Coeff:     -0.553D-03 0.483D-03 0.959D-03 0.156D-01 0.239D-01 0.239D+00
 Coeff:      0.721D+00
 Gap=     0.242 Goal=   None    Shift=    0.000
 RMSDP=4.55D-09 MaxDP=1.06D-07 DE=-6.42D-12 OVMax= 2.32D-07

 SCF Done:  E(RB3LYP) =  -245.076826808     A.U. after   14 cycles
            NFock= 14  Conv=0.46D-08     -V/T= 2.0061
 KE= 2.435962378291D+02 PE=-8.206519990765D+02 EE= 2.097351621782D+02
 Leave Link  502 at Tue Aug 30 12:29:04 2022, MaxMem= 24159191040 cpu:        51.6
 (Enter /public/home/users/caep010/software/Gaussian09/g09/l601.exe)
 Copying SCF densities to generalized density rwf, IOpCl= 0 IROHF=0.

 **********************************************************************

            Population analysis using the SCF density.

 **********************************************************************

 Orbital symmetries:
       Occupied  (A) (A) (A) (A) (A) (A) (A) (A) (A) (A) (A) (A)
                 (A) (A) (A) (A)
       Virtual   (A) (A) (A) (A) (A) (A) (A) (A) (A) (A) (A) (A)
                 (A) (A) (A) (A) (A) (A) (A) (A) (A) (A) (A) (A)
                 (A) (A) (A) (A) (A) (A) (A) (A) (A) (A) (A) (A)
                 (A) (A) (A) (A) (A) (A) (A) (A) (A) (A) (A) (A)
                 (A) (A) (A) (A) (A) (A) (A) (A) (A) (A) (A) (A)
                 (A) (A) (A) (A) (A) (A) (A) (A) (A) (A) (A) (A)
                 (A) (A) (A) (A) (A) (A) (A) (A) (A) (A) (A) (A)
                 (A) (A) (A) (A) (A) (A) (A) (A) (A) (A) (A) (A)
                 (A) (A) (A) (A) (A) (A) (A) (A) (A) (A) (A) (A)
                 (A) (A) (A)
 The electronic state is 1-A.
 Alpha  occ. eigenvalues --  -19.20015 -19.18129 -14.29213 -10.32332  -1.12058
 Alpha  occ. eigenvalues --   -1.03486  -0.88091  -0.63569  -0.59281  -0.48436
 Alpha  occ. eigenvalues --   -0.45459  -0.44770  -0.35971  -0.34814  -0.27621
 Alpha  occ. eigenvalues --   -0.26132
 Alpha virt. eigenvalues --   -0.01977   0.05525   0.09742   0.13039   0.20136
 Alpha virt. eigenvalues --    0.33261   0.39219   0.42302   0.47254   0.50968
 Alpha virt. eigenvalues --    0.54654   0.57259   0.62295   0.66111   0.71794
 Alpha virt. eigenvalues --    0.72405   0.74987   0.75650   0.80578   0.81308
 Alpha virt. eigenvalues --    0.83846   0.87611   0.91697   0.92924   0.95773
 Alpha virt. eigenvalues --    0.99138   1.05150   1.06775   1.11152   1.14327
 Alpha virt. eigenvalues --    1.23902   1.31192   1.35688   1.38440   1.41495
 Alpha virt. eigenvalues --    1.46927   1.54512   1.60064   1.60420   1.77577
 Alpha virt. eigenvalues --    1.81162   1.90216   2.01816   2.03754   2.11399
 Alpha virt. eigenvalues --    2.26533   2.33940   2.43860   2.50453   2.59048
 Alpha virt. eigenvalues --    2.70626   2.76379   2.84164   2.87563   2.96836
 Alpha virt. eigenvalues --    3.03247   3.07424   3.08714   3.09112   3.20456
 Alpha virt. eigenvalues --    3.21407   3.42032   3.81040   3.83770   3.87311
 Alpha virt. eigenvalues --    3.92995   4.04855   4.06455   4.08815   4.10490
 Alpha virt. eigenvalues --    4.13184   4.17491   4.21337   4.22718   4.30124
 Alpha virt. eigenvalues --    4.31000   4.39949   4.41838   4.45119   4.48860
 Alpha virt. eigenvalues --    4.54195   4.57607   4.59578   4.68688   4.84082
 Alpha virt. eigenvalues --    4.86693   4.95195   5.01161   5.10584   5.12315
 Alpha virt. eigenvalues --    5.18128   5.25630   5.38772   5.40160   5.50320
 Alpha virt. eigenvalues --    5.59729   5.67699   5.73203   5.78823   5.86349
 Alpha virt. eigenvalues --    6.00582   6.09609   6.23252   6.60140   6.72991
 Alpha virt. eigenvalues --    7.21820   9.98961  11.16494  11.88477  13.10053
 Alpha virt. eigenvalues --   13.15192
          Condensed to atoms (all electrons):
               1          2          3          4          5          6
     1  N    6.619426   0.623166  -0.054499  -0.017254   0.331196   0.009933
     2  C    0.623166   4.265686   0.461963   0.331533  -0.062027  -0.061397
     3  O   -0.054499   0.461963   7.704821  -0.061761  -0.006964   0.333999
     4  O   -0.017254   0.331533  -0.061761   7.900703   0.004288   0.010025
     5  H    0.331196  -0.062027  -0.006964   0.004288   0.498149   0.000220
     6  H    0.009933  -0.061397   0.333999   0.010025   0.000220   0.434582
     7  H    0.003742  -0.037937   0.001204   0.247255  -0.000403   0.003660
               7
     1  N    0.003742
     2  C   -0.037937
     3  O    0.001204
     4  O    0.247255
     5  H   -0.000403
     6  H    0.003660
     7  H    0.456748
 Mulliken charges:
               1
     1  N   -0.515710
     2  C    0.479012
     3  O   -0.378763
     4  O   -0.414789
     5  H    0.235542
     6  H    0.268977
     7  H    0.325729
 Sum of Mulliken charges =  -0.00000
 Mulliken charges with hydrogens summed into heavy atoms:
               1
     1  N   -0.280168
     2  C    0.479012
     3  O   -0.109785
     4  O   -0.089059
 Electronic spatial extent (au):  <R**2>=            232.6484
 Charge=             -0.0000 electrons
 Dipole moment (field-independent basis, Debye):
    X=              3.2531    Y=              2.5803    Z=              0.1307  Tot=              4.1542
 Quadrupole moment (field-independent basis, Debye-Ang):
   XX=            -16.3870   YY=            -25.9694   ZZ=            -23.0185
   XY=             -0.3293   XZ=             -0.6911   YZ=              1.1370
 Traceless Quadrupole moment (field-independent basis, Debye-Ang):
   XX=              5.4047   YY=             -4.1778   ZZ=             -1.2269
   XY=             -0.3293   XZ=             -0.6911   YZ=              1.1370
 Octapole moment (field-independent basis, Debye-Ang**2):
  XXX=             13.8103  YYY=              6.9383  ZZZ=              0.2526  XYY=              6.2645
  XXY=              7.5078  XXZ=             -1.4113  XZZ=              2.4276  YZZ=              1.4644
  YYZ=              1.5511  XYZ=              1.5121
 Hexadecapole moment (field-independent basis, Debye-Ang**3):
 XXXX=            -94.3401 YYYY=           -114.9652 ZZZZ=            -19.0669 XXXY=            -10.7909
 XXXZ=             -4.6612 YYYX=              2.6600 YYYZ=              2.4398 ZZZX=             -0.0828
 ZZZY=              0.4807 XXYY=            -41.5624 XXZZ=            -25.6867 YYZZ=            -22.4844
 XXYZ=              1.8024 YYXZ=              1.1620 ZZXY=             -0.6783
 N-N= 1.222437722614D+02 E-N=-8.206520013079D+02  KE= 2.435962378291D+02
 No NMR shielding tensors so no spin-rotation constants.
 Leave Link  601 at Tue Aug 30 12:29:05 2022, MaxMem= 24159191040 cpu:        13.3
 (Enter /public/home/users/caep010/software/Gaussian09/g09/l701.exe)
 Compute integral first derivatives.
 ... and contract with generalized density number  0.
 Leave Link  701 at Tue Aug 30 12:29:06 2022, MaxMem= 24159191040 cpu:        15.1
 (Enter /public/home/users/caep010/software/Gaussian09/g09/l702.exe)
 L702 exits ... SP integral derivatives will be done elsewhere.
 Leave Link  702 at Tue Aug 30 12:29:06 2022, MaxMem= 24159191040 cpu:         0.7
 (Enter /public/home/users/caep010/software/Gaussian09/g09/l703.exe)
 Compute integral first derivatives, UseDBF=F ICtDFT=           0.
 Integral derivatives from FoFJK, PRISM(SPDF).
 Calling FoFJK, ICntrl=      2127 FMM=F ISym2X=0 I1Cent= 0 IOpClX= 0 NMat=1 NMatS=1 NMatT=0.
 FoFJK:  IHMeth= 1 ICntrl=    2127 DoSepK=F KAlg= 0 I1Cent=   0 FoldK=F
 IRaf=         0 NMat=   1 IRICut=       1 DoRegI=T DoRafI=F ISym2E= 0.
 FoFCou: FMM=F IPFlag=           0 FMFlag=      100000 FMFlg1=         800
         NFxFlg=           0 DoJE=F BraDBF=F KetDBF=F FulRan=T
         wScrn=  0.000000 ICntrl=    2127 IOpCl=  0 I1Cent=           0 NGrid=           0
         NMat0=    1 NMatS0=      1 NMatT0=    0 NMatD0=    1 NMtDS0=    0 NMtDT0=    0
 Symmetry not used in FoFCou.
 Leave Link  703 at Tue Aug 30 12:29:08 2022, MaxMem= 24159191040 cpu:        40.9
 (Enter /public/home/users/caep010/software/Gaussian09/g09/l716.exe)
 Dipole        = 1.27986041D+00 1.01515431D+00 5.14225539D-02
 ***** Axes restored to original set *****
 -------------------------------------------------------------------
 Center     Atomic                   Forces (Hartrees/Bohr)
 Number     Number              X              Y              Z
 -------------------------------------------------------------------
      1        7           0.015751516    0.007563052   -0.007225854
      2        6          -0.000409250    0.012747987    0.003380470
      3        8           0.127810503   -0.038019559   -0.009259619
      4        8          -0.068710883    0.035315650    0.062104309
      5        1          -0.015405952   -0.011879412    0.007901617
      6        1          -0.127432915    0.035594934    0.009233705
      7        1           0.068396982   -0.041322652   -0.066134628
 -------------------------------------------------------------------
 Cartesian Forces:  Max     0.127810503 RMS     0.052105896
 Leave Link  716 at Tue Aug 30 12:29:09 2022, MaxMem= 24159191040 cpu:         3.2
 (Enter /public/home/users/caep010/software/Gaussian09/g09/l103.exe)

 GradGradGradGradGradGradGradGradGradGradGradGradGradGradGradGradGradGrad
 Berny optimization.
 FormGI is forming the generalized inverse of G from B-inverse, IUseBI=4.
 Internal  Forces:  Max     0.132585426 RMS     0.040231962
 Search for a local minimum.
 Step number   1 out of a maximum of   28
 All quantities printed in internal units (Hartrees-Bohrs-Radians)
 RMS Force = .40232D-01 SwitMx=.10000D-02 MixMth= 1
 Mixed Optimization -- RFO/linear search
 Second derivative matrix not updated -- first step.
 The second derivative matrix:
                          R1        R2        R3        R4        R5
           R1           0.81388
           R2           0.00000   0.40923
           R3           0.00000   0.00000   0.51610
           R4           0.00000   0.00000   0.00000   0.55716
           R5           0.00000   0.00000   0.00000   0.00000   0.81082
           R6           0.00000   0.00000   0.00000   0.00000   0.00000
           A1           0.00000   0.00000   0.00000   0.00000   0.00000
           A2           0.00000   0.00000   0.00000   0.00000   0.00000
           A3           0.00000   0.00000   0.00000   0.00000   0.00000
           A4           0.00000   0.00000   0.00000   0.00000   0.00000
           A5           0.00000   0.00000   0.00000   0.00000   0.00000
           A6           0.00000   0.00000   0.00000   0.00000   0.00000
           D1           0.00000   0.00000   0.00000   0.00000   0.00000
           D2           0.00000   0.00000   0.00000   0.00000   0.00000
           D3           0.00000   0.00000   0.00000   0.00000   0.00000
           D4           0.00000   0.00000   0.00000   0.00000   0.00000
           D5           0.00000   0.00000   0.00000   0.00000   0.00000
           D6           0.00000   0.00000   0.00000   0.00000   0.00000
                          R6        A1        A2        A3        A4
           R6           0.27760
           A1           0.00000   0.16000
           A2           0.00000   0.00000   0.25000
           A3           0.00000   0.00000   0.00000   0.25000
           A4           0.00000   0.00000   0.00000   0.00000   0.25000
           A5           0.00000   0.00000   0.00000   0.00000   0.00000
           A6           0.00000   0.00000   0.00000   0.00000   0.00000
           D1           0.00000   0.00000   0.00000   0.00000   0.00000
           D2           0.00000   0.00000   0.00000   0.00000   0.00000
           D3           0.00000   0.00000   0.00000   0.00000   0.00000
           D4           0.00000   0.00000   0.00000   0.00000   0.00000
           D5           0.00000   0.00000   0.00000   0.00000   0.00000
           D6           0.00000   0.00000   0.00000   0.00000   0.00000
                          A5        A6        D1        D2        D3
           A5           0.16000
           A6           0.00000   0.16000
           D1           0.00000   0.00000   0.03609
           D2           0.00000   0.00000   0.00000   0.03609
           D3           0.00000   0.00000   0.00000   0.00000   0.02132
           D4           0.00000   0.00000   0.00000   0.00000   0.00000
           D5           0.00000   0.00000   0.00000   0.00000   0.00000
           D6           0.00000   0.00000   0.00000   0.00000   0.00000
                          D4        D5        D6
           D4           0.02132
           D5           0.00000   0.02396
           D6           0.00000   0.00000   0.02396
 ITU=  0
     Eigenvalues ---    0.02132   0.02396   0.02741   0.03609   0.16000
     Eigenvalues ---    0.16000   0.16000   0.25000   0.25000   0.27760
     Eigenvalues ---    0.40923   0.51610   0.55716   0.81082   0.81388
 RFO step:  Lambda=-5.53361509D-02 EMin= 2.13186432D-02
 Linear search not attempted -- first point.
 Maximum step size (   0.300) exceeded in Quadratic search.
    -- Step size scaled by   0.830
 Iteration  1 RMS(Cart)=  0.06732585 RMS(Int)=  0.01538378
 Iteration  2 RMS(Cart)=  0.01276714 RMS(Int)=  0.00003132
 Iteration  3 RMS(Cart)=  0.00005497 RMS(Int)=  0.00000547
 Iteration  4 RMS(Cart)=  0.00000000 RMS(Int)=  0.00000547
 ITry= 1 IFail=0 DXMaxC= 2.26D-01 DCOld= 1.00D+10 DXMaxT= 3.00D-01 DXLimC= 3.00D+00 Rises=F
 Variable       Old X    -DE/DX   Delta X   Delta X   Delta X     New X
                                 (Linear)    (Quad)   (Total)
    R1        2.37175   0.00192   0.00000   0.00184   0.00184   2.37359
    R2        1.97018  -0.02079   0.00000  -0.03713  -0.03713   1.93305
    R3        2.58275  -0.00244   0.00000  -0.00355  -0.00355   2.57920
    R4        2.54501   0.00220   0.00000   0.00298   0.00298   2.54800
    R5        1.64037   0.13259   0.00000   0.12702   0.12702   1.76739
    R6        2.19366  -0.10338   0.00000  -0.25766  -0.25766   1.93600
    A1        1.94200  -0.00563   0.00000  -0.02169  -0.02169   1.92031
    A2        2.16904   0.00296   0.00000   0.00804   0.00804   2.17708
    A3        2.08358  -0.00057   0.00000  -0.00155  -0.00156   2.08202
    A4        2.03056  -0.00238   0.00000  -0.00647  -0.00647   2.02409
    A5        1.98044  -0.00584   0.00000  -0.02251  -0.02251   1.95793
    A6        2.00671  -0.01831   0.00000  -0.07058  -0.07058   1.93614
    D1       -0.08873  -0.00050   0.00000  -0.00430  -0.00429  -0.09302
    D2        3.05795  -0.00102   0.00000  -0.00951  -0.00952   3.04843
    D3        2.73254  -0.00014   0.00000  -0.00127  -0.00128   2.73127
    D4       -0.41400   0.00037   0.00000   0.00381   0.00381  -0.41019
    D5        2.80969  -0.00129   0.00000  -0.01360  -0.01361   2.79609
    D6       -0.32720  -0.00178   0.00000  -0.01844  -0.01843  -0.34563
         Item               Value     Threshold  Converged?
 Maximum Force            0.132585     0.000450     NO 
 RMS     Force            0.040232     0.000300     NO 
 Maximum Displacement     0.225873     0.001800     NO 
 RMS     Displacement     0.074721     0.001200     NO 
 Predicted change in Energy=-2.937458D-02
 Lowest energy point so far.  Saving SCF results.
 GradGradGradGradGradGradGradGradGradGradGradGradGradGradGradGradGradGrad

 Leave Link  103 at Tue Aug 30 12:29:09 2022, MaxMem= 24159191040 cpu:         1.4
 (Enter /public/home/users/caep010/software/Gaussian09/g09/l202.exe)
                          Input orientation:                          
 ---------------------------------------------------------------------
 Center     Atomic      Atomic             Coordinates (Angstroms)
 Number     Number       Type             X           Y           Z
 ---------------------------------------------------------------------
      1          7           0        1.157122   -0.798651   -0.453073
      2          6           0        0.164150   -0.222910    0.057017
      3          8           0        0.030862    1.129242    0.186419
      4          8           0       -0.862292   -0.964444    0.520234
      5          1           0        1.805897   -0.105903   -0.834610
      6          1           0       -0.864699    1.391319    0.249710
      7          1           0       -1.431041   -0.428753    1.182903
 ---------------------------------------------------------------------
                    Distance matrix (angstroms):
                    1          2          3          4          5
     1  N    0.000000
     2  C    1.256051   0.000000
     3  O    2.322538   1.364854   0.000000
     4  O    2.247854   1.348343   2.300583   0.000000
     5  H    1.022926   1.871903   2.391408   3.113186   0.000000
     6  H    3.062292   1.923901   0.935264   2.371247   3.248000
     7  H    3.084126   1.963320   2.357434   1.024486   3.827840
                    6          7
     6  H    0.000000
     7  H    2.122324   0.000000
 Stoichiometry    CH3NO2
 Framework group  C1[X(CH3NO2)]
 Deg. of freedom    15
 Full point group                 C1      NOp   1
 RotChk:  IX=0 Diff= 1.29D-01
 Largest Abelian subgroup         C1      NOp   1
 Largest concise Abelian subgroup C1      NOp   1
                         Standard orientation:                         
 ---------------------------------------------------------------------
 Center     Atomic      Atomic             Coordinates (Angstroms)
 Number     Number       Type             X           Y           Z
 ---------------------------------------------------------------------
      1          7           0       -1.314757   -0.457912   -0.007797
      2          6           0       -0.124666   -0.056255   -0.003543
      3          8           0        0.253833    1.254659   -0.036246
      4          8           0        0.876100   -0.958995    0.035902
      5          1           0       -1.953599    0.338899    0.050097
      6          1           0        1.110103    1.383868    0.317062
      7          1           0        1.755322   -0.545163   -0.288571
 ---------------------------------------------------------------------
 Rotational constants (GHZ):     11.1296119     10.9608277      5.5490485
 Leave Link  202 at Tue Aug 30 12:29:09 2022, MaxMem= 24159191040 cpu:         0.2
 (Enter /public/home/users/caep010/software/Gaussian09/g09/l301.exe)
 Standard basis: GTBas3 (6D, 7F)
 Ernie: Thresh=  0.10000D-02 Tol=  0.10000D-05 Strict=F.
 There are   139 symmetry adapted cartesian basis functions of A   symmetry.
 There are   127 symmetry adapted basis functions of A   symmetry.
   127 basis functions,   197 primitive gaussians,   139 cartesian basis functions
    16 alpha electrons       16 beta electrons
       nuclear repulsion energy       122.7230942142 Hartrees.
 IExCor=  402 DFT=T Ex+Corr=B3LYP ExCW=0 ScaHFX=  0.200000
 ScaDFX=  0.800000  0.720000  1.000000  0.810000 ScalE2=  1.000000  1.000000
 IRadAn=      0 IRanWt=     -1 IRanGd=            0 ICorTp=0 IEmpDi=  4
 NAtoms=    7 NActive=    7 NUniq=    7 SFac= 1.00D+00 NAtFMM=   60 NAOKFM=F Big=F
 Integral buffers will be    131072 words long.
 Raffenetti 2 integral format.
 Two-electron integral symmetry is turned on.
 Leave Link  301 at Tue Aug 30 12:29:09 2022, MaxMem= 24159191040 cpu:         1.6
 (Enter /public/home/users/caep010/software/Gaussian09/g09/l302.exe)
 NPDir=0 NMtPBC=     1 NCelOv=     1 NCel=       1 NClECP=     1 NCelD=      1
         NCelK=      1 NCelE2=     1 NClLst=     1 CellRange=     0.0.
 One-electron integrals computed using PRISM.
 NBasis=   127 RedAO= T EigKep=  3.92D-04  NBF=   127
 NBsUse=   127 1.00D-06 EigRej= -1.00D+00 NBFU=   127
 Precomputing XC quadrature grid using
 IXCGrd= 4 IRadAn=           0 IRanWt=          -1 IRanGd=           0 AccXCQ= 0.00D+00.
 Generated NRdTot=       0 NPtTot=           0 NUsed=           0 NTot=          32
 NSgBfM=   139   139   139   139   139 MxSgAt=     7 MxSgA2=     7.
 Leave Link  302 at Tue Aug 30 12:29:09 2022, MaxMem= 24159191040 cpu:        13.3
 (Enter /public/home/users/caep010/software/Gaussian09/g09/l303.exe)
 DipDrv:  MaxL=1.
 Leave Link  303 at Tue Aug 30 12:29:09 2022, MaxMem= 24159191040 cpu:         0.7
 (Enter /public/home/users/caep010/software/Gaussian09/g09/l401.exe)
 Initial guess from the checkpoint file:  "G4.Frag_826.chk"
 B after Tr=     0.000000    0.000000    0.000000
         Rot=    0.999132   -0.000237   -0.002474    0.041585 Ang=  -4.78 deg.
 Guess basis will be translated and rotated to current coordinates.
 JPrj=2 DoOrth=T DoCkMO=T.
 Generating alternative initial guess.
 ExpMin= 1.61D-01 ExpMax= 5.48D+03 ExpMxC= 8.25D+02 IAcc=1 IRadAn=         1 AccDes= 0.00D+00
 Harris functional with IExCor=  402 and IRadAn=       1 diagonalized for initial guess.
 HarFok:  IExCor=  402 AccDes= 0.00D+00 IRadAn=         1 IDoV= 1 UseB2=F ITyADJ=14
 ICtDFT=  3500011 ScaDFX=  1.000000  1.000000  1.000000  1.000000
 FoFCou: FMM=F IPFlag=           0 FMFlag=      100000 FMFlg1=           0
         NFxFlg=           0 DoJE=T BraDBF=F KetDBF=T FulRan=T
         wScrn=  0.000000 ICntrl=     500 IOpCl=  0 I1Cent=   200000004 NGrid=           0
         NMat0=    1 NMatS0=      1 NMatT0=    0 NMatD0=    1 NMtDS0=    0 NMtDT0=    0
 Petite list used in FoFCou.
 Harris En= -245.145471336760    
 Leave Link  401 at Tue Aug 30 12:29:10 2022, MaxMem= 24159191040 cpu:        13.6
 (Enter /public/home/users/caep010/software/Gaussian09/g09/l502.exe)
 Closed shell SCF:
 Using DIIS extrapolation, IDIIS=  1040.
 Integral symmetry usage will be decided dynamically.
 Keep R1 ints in memory in canonical form, NReq=35100242.
 IVT=       81969 IEndB=       81969 NGot= 24159191040 MDV= 24126072816
 LenX= 24126072816 LenY= 24126053054
 Requested convergence on RMS density matrix=1.00D-08 within 128 cycles.
 Requested convergence on MAX density matrix=1.00D-06.
 Requested convergence on             energy=1.00D-06.
 No special actions if energy rises.
 FoFCou: FMM=F IPFlag=           0 FMFlag=           0 FMFlg1=           0
         NFxFlg=           0 DoJE=F BraDBF=F KetDBF=F FulRan=T
         wScrn=  0.000000 ICntrl=     600 IOpCl=  0 I1Cent=           0 NGrid=           0
         NMat0=    1 NMatS0=   8128 NMatT0=    0 NMatD0=    1 NMtDS0=    0 NMtDT0=    0
 Symmetry not used in FoFCou.
 Integral accuracy reduced to 1.0D-05 until final iterations.

 Cycle   1  Pass 0  IDiag  1:
 E= -245.103271953274    
 DIIS: error= 7.09D-03 at cycle   1 NSaved=   1.
 NSaved= 1 IEnMin= 1 EnMin= -245.103271953274     IErMin= 1 ErrMin= 7.09D-03
 ErrMax= 7.09D-03  0.00D+00 EMaxC= 1.00D-01 BMatC= 6.28D-03 BMatP= 6.28D-03
 IDIUse=3 WtCom= 9.29D-01 WtEn= 7.09D-02
 Coeff-Com:  0.100D+01
 Coeff-En:   0.100D+01
 Coeff:      0.100D+01
 Gap=     0.798 Goal=   None    Shift=    0.000
 GapD=    0.798 DampG=2.000 DampE=1.000 DampFc=2.0000 IDamp=-1.
 RMSDP=7.86D-04 MaxDP=1.80D-02              OVMax= 2.65D-02

 Cycle   2  Pass 0  IDiag  1:
 E= -245.107868091059     Delta-E=       -0.004596137784 Rises=F Damp=F
 DIIS: error= 2.42D-03 at cycle   2 NSaved=   2.
 NSaved= 2 IEnMin= 2 EnMin= -245.107868091059     IErMin= 2 ErrMin= 2.42D-03
 ErrMax= 2.42D-03  0.00D+00 EMaxC= 1.00D-01 BMatC= 1.88D-03 BMatP= 6.28D-03
 IDIUse=3 WtCom= 9.76D-01 WtEn= 2.42D-02
 Coeff-Com:  0.287D+00 0.713D+00
 Coeff-En:   0.000D+00 0.100D+01
 Coeff:      0.280D+00 0.720D+00
 Gap=     0.284 Goal=   None    Shift=    0.000
 RMSDP=4.26D-04 MaxDP=1.48D-02 DE=-4.60D-03 OVMax= 2.00D-02

 Cycle   3  Pass 0  IDiag  1:
 E= -245.108079721519     Delta-E=       -0.000211630460 Rises=F Damp=F
 DIIS: error= 2.16D-03 at cycle   3 NSaved=   3.
 NSaved= 3 IEnMin= 3 EnMin= -245.108079721519     IErMin= 3 ErrMin= 2.16D-03
 ErrMax= 2.16D-03  0.00D+00 EMaxC= 1.00D-01 BMatC= 1.60D-03 BMatP= 1.88D-03
 IDIUse=3 WtCom= 9.78D-01 WtEn= 2.16D-02
 Coeff-Com:  0.206D-01 0.475D+00 0.504D+00
 Coeff-En:   0.000D+00 0.464D+00 0.536D+00
 Coeff:      0.202D-01 0.475D+00 0.505D+00
 Gap=     0.282 Goal=   None    Shift=    0.000
 RMSDP=2.15D-04 MaxDP=7.12D-03 DE=-2.12D-04 OVMax= 9.52D-03

 Cycle   4  Pass 0  IDiag  1:
 E= -245.109198266292     Delta-E=       -0.001118544773 Rises=F Damp=F
 DIIS: error= 2.22D-04 at cycle   4 NSaved=   4.
 NSaved= 4 IEnMin= 4 EnMin= -245.109198266292     IErMin= 4 ErrMin= 2.22D-04
 ErrMax= 2.22D-04  0.00D+00 EMaxC= 1.00D-01 BMatC= 1.22D-05 BMatP= 1.60D-03
 IDIUse=3 WtCom= 9.98D-01 WtEn= 2.22D-03
 Coeff-Com: -0.788D-02 0.111D+00 0.159D+00 0.738D+00
 Coeff-En:   0.000D+00 0.000D+00 0.000D+00 0.100D+01
 Coeff:     -0.787D-02 0.111D+00 0.159D+00 0.738D+00
 Gap=     0.281 Goal=   None    Shift=    0.000
 RMSDP=2.16D-05 MaxDP=3.62D-04 DE=-1.12D-03 OVMax= 6.46D-04

 Cycle   5  Pass 0  IDiag  1:
 E= -245.109207041813     Delta-E=       -0.000008775520 Rises=F Damp=F
 DIIS: error= 2.75D-05 at cycle   5 NSaved=   5.
 NSaved= 5 IEnMin= 5 EnMin= -245.109207041813     IErMin= 5 ErrMin= 2.75D-05
 ErrMax= 2.75D-05  0.00D+00 EMaxC= 1.00D-01 BMatC= 2.16D-07 BMatP= 1.22D-05
 IDIUse=1 WtCom= 1.00D+00 WtEn= 0.00D+00
 Coeff-Com: -0.194D-02 0.996D-02 0.204D-01 0.165D+00 0.807D+00
 Coeff:     -0.194D-02 0.996D-02 0.204D-01 0.165D+00 0.807D+00
 Gap=     0.281 Goal=   None    Shift=    0.000
 RMSDP=4.76D-06 MaxDP=1.77D-04 DE=-8.78D-06 OVMax= 2.92D-04

 Initial convergence to 1.0D-05 achieved.  Increase integral accuracy.
 Cycle   6  Pass 1  IDiag  1:
 E= -245.109197546406     Delta-E=        0.000009495407 Rises=F Damp=F
 DIIS: error= 2.47D-05 at cycle   1 NSaved=   1.
 NSaved= 1 IEnMin= 1 EnMin= -245.109197546406     IErMin= 1 ErrMin= 2.47D-05
 ErrMax= 2.47D-05  0.00D+00 EMaxC= 1.00D-01 BMatC= 1.65D-07 BMatP= 1.65D-07
 IDIUse=1 WtCom= 1.00D+00 WtEn= 0.00D+00
 Coeff-Com:  0.100D+01
 Coeff:      0.100D+01
 Gap=     0.281 Goal=   None    Shift=    0.000
 RMSDP=4.76D-06 MaxDP=1.77D-04 DE= 9.50D-06 OVMax= 4.77D-04

 Cycle   7  Pass 1  IDiag  1:
 E= -245.109197203859     Delta-E=        0.000000342547 Rises=F Damp=F
 DIIS: error= 5.25D-05 at cycle   2 NSaved=   2.
 NSaved= 2 IEnMin= 1 EnMin= -245.109197546406     IErMin= 1 ErrMin= 2.47D-05
 ErrMax= 5.25D-05  0.00D+00 EMaxC= 1.00D-01 BMatC= 5.53D-07 BMatP= 1.65D-07
 IDIUse=1 WtCom= 1.00D+00 WtEn= 0.00D+00
 Coeff-Com:  0.652D+00 0.348D+00
 Coeff:      0.652D+00 0.348D+00
 Gap=     0.281 Goal=   None    Shift=    0.000
 RMSDP=4.99D-06 MaxDP=1.99D-04 DE= 3.43D-07 OVMax= 3.36D-04

 Cycle   8  Pass 1  IDiag  1:
 E= -245.109197680825     Delta-E=       -0.000000476966 Rises=F Damp=F
 DIIS: error= 3.58D-06 at cycle   3 NSaved=   3.
 NSaved= 3 IEnMin= 3 EnMin= -245.109197680825     IErMin= 3 ErrMin= 3.58D-06
 ErrMax= 3.58D-06  0.00D+00 EMaxC= 1.00D-01 BMatC= 2.22D-09 BMatP= 1.65D-07
 IDIUse=1 WtCom= 1.00D+00 WtEn= 0.00D+00
 Coeff-Com:  0.570D-01 0.743D-01 0.869D+00
 Coeff:      0.570D-01 0.743D-01 0.869D+00
 Gap=     0.281 Goal=   None    Shift=    0.000
 RMSDP=4.40D-07 MaxDP=9.72D-06 DE=-4.77D-07 OVMax= 1.71D-05

 Cycle   9  Pass 1  IDiag  1:
 E= -245.109197682096     Delta-E=       -0.000000001271 Rises=F Damp=F
 DIIS: error= 1.60D-06 at cycle   4 NSaved=   4.
 NSaved= 4 IEnMin= 4 EnMin= -245.109197682096     IErMin= 4 ErrMin= 1.60D-06
 ErrMax= 1.60D-06  0.00D+00 EMaxC= 1.00D-01 BMatC= 7.86D-10 BMatP= 2.22D-09
 IDIUse=1 WtCom= 1.00D+00 WtEn= 0.00D+00
 Coeff-Com: -0.329D-02 0.241D-01 0.491D+00 0.489D+00
 Coeff:     -0.329D-02 0.241D-01 0.491D+00 0.489D+00
 Gap=     0.281 Goal=   None    Shift=    0.000
 RMSDP=1.47D-07 MaxDP=5.58D-06 DE=-1.27D-09 OVMax= 5.12D-06

 Cycle  10  Pass 1  IDiag  1:
 E= -245.109197682641     Delta-E=       -0.000000000545 Rises=F Damp=F
 DIIS: error= 3.13D-07 at cycle   5 NSaved=   5.
 NSaved= 5 IEnMin= 5 EnMin= -245.109197682641     IErMin= 5 ErrMin= 3.13D-07
 ErrMax= 3.13D-07  0.00D+00 EMaxC= 1.00D-01 BMatC= 2.31D-11 BMatP= 7.86D-10
 IDIUse=1 WtCom= 1.00D+00 WtEn= 0.00D+00
 Coeff-Com: -0.480D-02 0.701D-02 0.178D+00 0.225D+00 0.595D+00
 Coeff:     -0.480D-02 0.701D-02 0.178D+00 0.225D+00 0.595D+00
 Gap=     0.281 Goal=   None    Shift=    0.000
 RMSDP=3.01D-08 MaxDP=9.42D-07 DE=-5.45D-10 OVMax= 9.16D-07

 Cycle  11  Pass 1  IDiag  1:
 E= -245.109197682656     Delta-E=       -0.000000000015 Rises=F Damp=F
 DIIS: error= 4.92D-08 at cycle   6 NSaved=   6.
 NSaved= 6 IEnMin= 6 EnMin= -245.109197682656     IErMin= 6 ErrMin= 4.92D-08
 ErrMax= 4.92D-08  0.00D+00 EMaxC= 1.00D-01 BMatC= 8.82D-13 BMatP= 2.31D-11
 IDIUse=1 WtCom= 1.00D+00 WtEn= 0.00D+00
 Coeff-Com: -0.191D-02 0.210D-02 0.583D-01 0.771D-01 0.251D+00 0.614D+00
 Coeff:     -0.191D-02 0.210D-02 0.583D-01 0.771D-01 0.251D+00 0.614D+00
 Gap=     0.281 Goal=   None    Shift=    0.000
 RMSDP=7.00D-09 MaxDP=2.61D-07 DE=-1.48D-11 OVMax= 3.41D-07

 SCF Done:  E(RB3LYP) =  -245.109197683     A.U. after   11 cycles
            NFock= 11  Conv=0.70D-08     -V/T= 2.0060
 KE= 2.436372405700D+02 PE=-8.215976421102D+02 EE= 2.101281096434D+02
 Leave Link  502 at Tue Aug 30 12:29:11 2022, MaxMem= 24159191040 cpu:        31.2
 (Enter /public/home/users/caep010/software/Gaussian09/g09/l701.exe)
 Compute integral first derivatives.
 ... and contract with generalized density number  0.
 Leave Link  701 at Tue Aug 30 12:29:12 2022, MaxMem= 24159191040 cpu:        13.7
 (Enter /public/home/users/caep010/software/Gaussian09/g09/l702.exe)
 L702 exits ... SP integral derivatives will be done elsewhere.
 Leave Link  702 at Tue Aug 30 12:29:12 2022, MaxMem= 24159191040 cpu:         0.5
 (Enter /public/home/users/caep010/software/Gaussian09/g09/l703.exe)
 Compute integral first derivatives, UseDBF=F ICtDFT=           0.
 Integral derivatives from FoFJK, PRISM(SPDF).
 Calling FoFJK, ICntrl=      2127 FMM=F ISym2X=0 I1Cent= 0 IOpClX= 0 NMat=1 NMatS=1 NMatT=0.
 FoFJK:  IHMeth= 1 ICntrl=    2127 DoSepK=F KAlg= 0 I1Cent=   0 FoldK=F
 IRaf=         0 NMat=   1 IRICut=       1 DoRegI=T DoRafI=F ISym2E= 0.
 FoFCou: FMM=F IPFlag=           0 FMFlag=      100000 FMFlg1=         800
         NFxFlg=           0 DoJE=F BraDBF=F KetDBF=F FulRan=T
         wScrn=  0.000000 ICntrl=    2127 IOpCl=  0 I1Cent=           0 NGrid=           0
         NMat0=    1 NMatS0=      1 NMatT0=    0 NMatD0=    1 NMtDS0=    0 NMtDT0=    0
 Symmetry not used in FoFCou.
 Leave Link  703 at Tue Aug 30 12:29:13 2022, MaxMem= 24159191040 cpu:        20.8
 (Enter /public/home/users/caep010/software/Gaussian09/g09/l716.exe)
 Dipole        = 1.31975037D+00 9.39466507D-01 5.98807055D-02
 ***** Axes restored to original set *****
 -------------------------------------------------------------------
 Center     Atomic                   Forces (Hartrees/Bohr)
 Number     Number              X              Y              Z
 -------------------------------------------------------------------
      1        7           0.006274947    0.003410610   -0.002585347
      2        6           0.001049806    0.001157467   -0.001321369
      3        8           0.030779130   -0.007292901   -0.001196582
      4        8          -0.033966163    0.023923930    0.033006203
      5        1          -0.003126818   -0.002981834    0.001858316
      6        1          -0.030238850    0.007179125    0.001176600
      7        1           0.029227949   -0.025396396   -0.030937820
 -------------------------------------------------------------------
 Cartesian Forces:  Max     0.033966163 RMS     0.018676633
 Leave Link  716 at Tue Aug 30 12:29:13 2022, MaxMem= 24159191040 cpu:         0.5
 (Enter /public/home/users/caep010/software/Gaussian09/g09/l103.exe)

 GradGradGradGradGradGradGradGradGradGradGradGradGradGradGradGradGradGrad
 Berny optimization.
 Using GEDIIS/GDIIS optimizer.
 FormGI is forming the generalized inverse of G from B-inverse, IUseBI=4.
 Internal  Forces:  Max     0.049513018 RMS     0.013968914
 Search for a local minimum.
 Step number   2 out of a maximum of   28
 All quantities printed in internal units (Hartrees-Bohrs-Radians)
 RMS Force = .13969D-01 SwitMx=.10000D-02 MixMth= 1
 Mixed Optimization -- RFO/linear search
 Update second derivatives using D2CorX and points    1    2
 DE= -3.24D-02 DEPred=-2.94D-02 R= 1.10D+00
 TightC=F SS=  1.41D+00  RLast= 3.01D-01 DXNew= 5.0454D-01 9.0321D-01
 Trust test= 1.10D+00 RLast= 3.01D-01 DXMaxT set to 5.05D-01
 The second derivative matrix:
                          R1        R2        R3        R4        R5
           R1           0.81383
           R2           0.00106   0.41126
           R3           0.00014   0.00043   0.51618
           R4          -0.00001   0.00240   0.00032   0.55737
           R5          -0.00701  -0.00957  -0.00235  -0.01551   0.84921
           R6           0.00448  -0.00268   0.00031   0.00908   0.03221
           A1           0.00028   0.00127   0.00021   0.00070  -0.00729
           A2          -0.00019  -0.00141  -0.00022  -0.00053   0.00850
           A3           0.00012   0.00220   0.00031   0.00045  -0.01379
           A4           0.00007  -0.00078  -0.00010   0.00007   0.00528
           A5           0.00023  -0.00003   0.00003   0.00048   0.00097
           A6           0.00088   0.00365   0.00063   0.00217  -0.02063
           D1           0.00001   0.00011   0.00002   0.00004  -0.00064
           D2           0.00004   0.00055   0.00008   0.00015  -0.00340
           D3          -0.00001  -0.00019  -0.00003  -0.00003   0.00121
           D4          -0.00003  -0.00066  -0.00009  -0.00013   0.00413
           D5           0.00001  -0.00038  -0.00005  -0.00003   0.00246
           D6           0.00003   0.00006   0.00001   0.00007  -0.00031
                          R6        A1        A2        A3        A4
           R6           0.22400
           A1           0.00210   0.16055
           A2          -0.00348  -0.00053   0.25048
           A3           0.00711   0.00072  -0.00059   0.25062
           A4          -0.00363  -0.00018   0.00011  -0.00003   0.24992
           A5          -0.00235   0.00014  -0.00020   0.00039  -0.00018
           A6           0.00518   0.00163  -0.00161   0.00220  -0.00059
           D1           0.00026   0.00004  -0.00004   0.00005  -0.00001
           D2           0.00163   0.00019  -0.00016   0.00018  -0.00002
           D3          -0.00066  -0.00006   0.00005  -0.00005  -0.00000
           D4          -0.00215  -0.00021   0.00018  -0.00018   0.00001
           D5          -0.00147  -0.00011   0.00008  -0.00006  -0.00001
           D6          -0.00006   0.00004  -0.00004   0.00006  -0.00002
                          A5        A6        D1        D2        D3
           A5           0.15990
           A6           0.00036   0.16481
           D1           0.00002   0.00012   0.03609
           D2           0.00009   0.00058   0.00001   0.03614
           D3          -0.00004  -0.00018  -0.00000  -0.00001   0.02132
           D4          -0.00012  -0.00065  -0.00001  -0.00005   0.00001
           D5          -0.00008  -0.00034  -0.00001  -0.00002   0.00000
           D6          -0.00000   0.00011   0.00000   0.00002  -0.00001
                          D4        D5        D6
           D4           0.02137
           D5           0.00002   0.02396
           D6          -0.00002  -0.00001   0.02396
 ITU=  1  0
 Use linear search instead of GDIIS.
     Eigenvalues ---    0.02132   0.02394   0.02744   0.03610   0.15969
     Eigenvalues ---    0.16000   0.16395   0.21981   0.25004   0.25362
     Eigenvalues ---    0.41112   0.51616   0.55692   0.81272   0.85421
 RFO step:  Lambda=-2.25953608D-03 EMin= 2.13184515D-02
 Quartic linear search produced a step of  0.47349.
 Iteration  1 RMS(Cart)=  0.03983479 RMS(Int)=  0.00203905
 Iteration  2 RMS(Cart)=  0.00164787 RMS(Int)=  0.00010571
 Iteration  3 RMS(Cart)=  0.00000580 RMS(Int)=  0.00010552
 Iteration  4 RMS(Cart)=  0.00000000 RMS(Int)=  0.00010552
 ITry= 1 IFail=0 DXMaxC= 1.07D-01 DCOld= 1.00D+10 DXMaxT= 5.05D-01 DXLimC= 3.00D+00 Rises=F
 Variable       Old X    -DE/DX   Delta X   Delta X   Delta X     New X
                                 (Linear)    (Quad)   (Total)
    R1        2.37359   0.00259   0.00087   0.00356   0.00443   2.37802
    R2        1.93305  -0.00470  -0.01758   0.00883  -0.00875   1.92430
    R3        2.57920  -0.00017  -0.00168   0.00185   0.00017   2.57937
    R4        2.54800   0.00513   0.00141   0.01157   0.01298   2.56098
    R5        1.76739   0.03104   0.06014  -0.02084   0.03931   1.80670
    R6        1.93600  -0.04951  -0.12200  -0.06195  -0.18395   1.75205
    A1        1.92031  -0.00051  -0.01027   0.01602   0.00575   1.92607
    A2        2.17708  -0.00122   0.00381  -0.01351  -0.00986   2.16721
    A3        2.08202   0.00367  -0.00074   0.02266   0.02177   2.10379
    A4        2.02409  -0.00245  -0.00306  -0.00915  -0.01236   2.01173
    A5        1.95793  -0.00294  -0.01066  -0.00529  -0.01595   1.94198
    A6        1.93614  -0.00254  -0.03342   0.04417   0.01075   1.94688
    D1       -0.09302  -0.00018  -0.00203  -0.00086  -0.00298  -0.09601
    D2        3.04843   0.00024  -0.00451   0.03556   0.03115   3.07958
    D3        2.73127  -0.00045  -0.00060  -0.02811  -0.02893   2.70234
    D4       -0.41019  -0.00087   0.00180  -0.06345  -0.06144  -0.47163
    D5        2.79609  -0.00169  -0.00644  -0.04961  -0.05616   2.73992
    D6       -0.34563  -0.00130  -0.00873  -0.01632  -0.02494  -0.37057
         Item               Value     Threshold  Converged?
 Maximum Force            0.049513     0.000450     NO 
 RMS     Force            0.013969     0.000300     NO 
 Maximum Displacement     0.107326     0.001800     NO 
 RMS     Displacement     0.039430     0.001200     NO 
 Predicted change in Energy=-6.468076D-03
 Lowest energy point so far.  Saving SCF results.
 GradGradGradGradGradGradGradGradGradGradGradGradGradGradGradGradGradGrad

 Leave Link  103 at Tue Aug 30 12:29:13 2022, MaxMem= 24159191040 cpu:         1.5
 (Enter /public/home/users/caep010/software/Gaussian09/g09/l202.exe)
                          Input orientation:                          
 ---------------------------------------------------------------------
 Center     Atomic      Atomic             Coordinates (Angstroms)
 Number     Number       Type             X           Y           Z
 ---------------------------------------------------------------------
      1          7           0        1.146284   -0.797832   -0.455385
      2          6           0        0.150134   -0.220935    0.052978
      3          8           0        0.039641    1.131633    0.199348
      4          8           0       -0.890911   -0.941891    0.535727
      5          1           0        1.805560   -0.112009   -0.818598
      6          1           0       -0.876462    1.403508    0.229328
      7          1           0       -1.374247   -0.462573    1.165203
 ---------------------------------------------------------------------
                    Distance matrix (angstroms):
                    1          2          3          4          5
     1  N    0.000000
     2  C    1.258395   0.000000
     3  O    2.318657   1.364945   0.000000
     4  O    2.270070   1.355212   2.297517   0.000000
     5  H    1.018294   1.874019   2.387745   3.129514   0.000000
     6  H    3.066957   1.929718   0.956064   2.365372   3.253948
     7  H    3.015257   1.902411   2.339541   0.927145   3.764244
                    6          7
     6  H    0.000000
     7  H    2.146139   0.000000
 Stoichiometry    CH3NO2
 Framework group  C1[X(CH3NO2)]
 Deg. of freedom    15
 Full point group                 C1      NOp   1
 RotChk:  IX=0 Diff= 6.47D-02
 Largest Abelian subgroup         C1      NOp   1
 Largest concise Abelian subgroup C1      NOp   1
                         Standard orientation:                         
 ---------------------------------------------------------------------
 Center     Atomic      Atomic             Coordinates (Angstroms)
 Number     Number       Type             X           Y           Z
 ---------------------------------------------------------------------
      1          7           0       -1.294528   -0.522104   -0.004725
      2          6           0       -0.121731   -0.066059    0.006535
      3          8           0        0.184515    1.263134   -0.043812
      4          8           0        0.942833   -0.904298    0.032172
      5          1           0       -1.970648    0.238276    0.035361
      6          1           0        1.037731    1.437607    0.350700
      7          1           0        1.706210   -0.495483   -0.299076
 ---------------------------------------------------------------------
 Rotational constants (GHZ):     11.2123999     10.8432943      5.5429331
 Leave Link  202 at Tue Aug 30 12:29:13 2022, MaxMem= 24159191040 cpu:         0.3
 (Enter /public/home/users/caep010/software/Gaussian09/g09/l301.exe)
 Standard basis: GTBas3 (6D, 7F)
 Ernie: Thresh=  0.10000D-02 Tol=  0.10000D-05 Strict=F.
 There are   139 symmetry adapted cartesian basis functions of A   symmetry.
 There are   127 symmetry adapted basis functions of A   symmetry.
   127 basis functions,   197 primitive gaussians,   139 cartesian basis functions
    16 alpha electrons       16 beta electrons
       nuclear repulsion energy       122.9407766159 Hartrees.
 IExCor=  402 DFT=T Ex+Corr=B3LYP ExCW=0 ScaHFX=  0.200000
 ScaDFX=  0.800000  0.720000  1.000000  0.810000 ScalE2=  1.000000  1.000000
 IRadAn=      0 IRanWt=     -1 IRanGd=            0 ICorTp=0 IEmpDi=  4
 NAtoms=    7 NActive=    7 NUniq=    7 SFac= 1.00D+00 NAtFMM=   60 NAOKFM=F Big=F
 Integral buffers will be    131072 words long.
 Raffenetti 2 integral format.
 Two-electron integral symmetry is turned on.
 Leave Link  301 at Tue Aug 30 12:29:13 2022, MaxMem= 24159191040 cpu:         1.7
 (Enter /public/home/users/caep010/software/Gaussian09/g09/l302.exe)
 NPDir=0 NMtPBC=     1 NCelOv=     1 NCel=       1 NClECP=     1 NCelD=      1
         NCelK=      1 NCelE2=     1 NClLst=     1 CellRange=     0.0.
 One-electron integrals computed using PRISM.
 NBasis=   127 RedAO= T EigKep=  3.93D-04  NBF=   127
 NBsUse=   127 1.00D-06 EigRej= -1.00D+00 NBFU=   127
 Precomputing XC quadrature grid using
 IXCGrd= 4 IRadAn=           0 IRanWt=          -1 IRanGd=           0 AccXCQ= 0.00D+00.
 Generated NRdTot=       0 NPtTot=           0 NUsed=           0 NTot=          32
 NSgBfM=   139   139   139   139   139 MxSgAt=     7 MxSgA2=     7.
 Leave Link  302 at Tue Aug 30 12:29:14 2022, MaxMem= 24159191040 cpu:        14.1
 (Enter /public/home/users/caep010/software/Gaussian09/g09/l303.exe)
 DipDrv:  MaxL=1.
 Leave Link  303 at Tue Aug 30 12:29:14 2022, MaxMem= 24159191040 cpu:         3.8
 (Enter /public/home/users/caep010/software/Gaussian09/g09/l401.exe)
 Initial guess from the checkpoint file:  "G4.Frag_826.chk"
 B after Tr=    -0.000000   -0.000000    0.000000
         Rot=    0.999646    0.000584   -0.001067   -0.026581 Ang=   3.05 deg.
 Guess basis will be translated and rotated to current coordinates.
 JPrj=2 DoOrth=T DoCkMO=T.
 Generating alternative initial guess.
 ExpMin= 1.61D-01 ExpMax= 5.48D+03 ExpMxC= 8.25D+02 IAcc=1 IRadAn=         1 AccDes= 0.00D+00
 Harris functional with IExCor=  402 and IRadAn=       1 diagonalized for initial guess.
 HarFok:  IExCor=  402 AccDes= 0.00D+00 IRadAn=         1 IDoV= 1 UseB2=F ITyADJ=14
 ICtDFT=  3500011 ScaDFX=  1.000000  1.000000  1.000000  1.000000
 FoFCou: FMM=F IPFlag=           0 FMFlag=      100000 FMFlg1=           0
         NFxFlg=           0 DoJE=T BraDBF=F KetDBF=T FulRan=T
         wScrn=  0.000000 ICntrl=     500 IOpCl=  0 I1Cent=   200000004 NGrid=           0
         NMat0=    1 NMatS0=      1 NMatT0=    0 NMatD0=    1 NMtDS0=    0 NMtDT0=    0
 Petite list used in FoFCou.
 Harris En= -245.148006856930    
 Leave Link  401 at Tue Aug 30 12:29:14 2022, MaxMem= 24159191040 cpu:        14.1
 (Enter /public/home/users/caep010/software/Gaussian09/g09/l502.exe)
 Closed shell SCF:
 Using DIIS extrapolation, IDIIS=  1040.
 Integral symmetry usage will be decided dynamically.
 Keep R1 ints in memory in canonical form, NReq=35100226.
 IVT=       81969 IEndB=       81969 NGot= 24159191040 MDV= 24126072816
 LenX= 24126072816 LenY= 24126053054
 Requested convergence on RMS density matrix=1.00D-08 within 128 cycles.
 Requested convergence on MAX density matrix=1.00D-06.
 Requested convergence on             energy=1.00D-06.
 No special actions if energy rises.
 FoFCou: FMM=F IPFlag=           0 FMFlag=           0 FMFlg1=           0
         NFxFlg=           0 DoJE=F BraDBF=F KetDBF=F FulRan=T
         wScrn=  0.000000 ICntrl=     600 IOpCl=  0 I1Cent=           0 NGrid=           0
         NMat0=    1 NMatS0=   8128 NMatT0=    0 NMatD0=    1 NMtDS0=    0 NMtDT0=    0
 Symmetry not used in FoFCou.
 Integral accuracy reduced to 1.0D-05 until final iterations.

 Cycle   1  Pass 0  IDiag  1:
 E= -245.108374574196    
 DIIS: error= 4.55D-03 at cycle   1 NSaved=   1.
 NSaved= 1 IEnMin= 1 EnMin= -245.108374574196     IErMin= 1 ErrMin= 4.55D-03
 ErrMax= 4.55D-03  0.00D+00 EMaxC= 1.00D-01 BMatC= 3.74D-03 BMatP= 3.74D-03
 IDIUse=3 WtCom= 9.55D-01 WtEn= 4.55D-02
 Coeff-Com:  0.100D+01
 Coeff-En:   0.100D+01
 Coeff:      0.100D+01
 Gap=     0.793 Goal=   None    Shift=    0.000
 GapD=    0.793 DampG=2.000 DampE=1.000 DampFc=2.0000 IDamp=-1.
 RMSDP=6.31D-04 MaxDP=2.11D-02              OVMax= 1.94D-02

 Cycle   2  Pass 0  IDiag  1:
 E= -245.111295328388     Delta-E=       -0.002920754192 Rises=F Damp=F
 DIIS: error= 1.69D-03 at cycle   2 NSaved=   2.
 NSaved= 2 IEnMin= 2 EnMin= -245.111295328388     IErMin= 2 ErrMin= 1.69D-03
 ErrMax= 1.69D-03  0.00D+00 EMaxC= 1.00D-01 BMatC= 9.96D-04 BMatP= 3.74D-03
 IDIUse=3 WtCom= 9.83D-01 WtEn= 1.69D-02
 Coeff-Com:  0.268D+00 0.732D+00
 Coeff-En:   0.000D+00 0.100D+01
 Coeff:      0.264D+00 0.736D+00
 Gap=     0.300 Goal=   None    Shift=    0.000
 RMSDP=3.04D-04 MaxDP=1.21D-02 DE=-2.92D-03 OVMax= 1.38D-02

 Cycle   3  Pass 0  IDiag  1:
 E= -245.111429075498     Delta-E=       -0.000133747110 Rises=F Damp=F
 DIIS: error= 1.67D-03 at cycle   3 NSaved=   3.
 NSaved= 3 IEnMin= 3 EnMin= -245.111429075498     IErMin= 3 ErrMin= 1.67D-03
 ErrMax= 1.67D-03  0.00D+00 EMaxC= 1.00D-01 BMatC= 8.11D-04 BMatP= 9.96D-04
 IDIUse=3 WtCom= 9.83D-01 WtEn= 1.67D-02
 Coeff-Com:  0.175D-01 0.471D+00 0.512D+00
 Coeff-En:   0.000D+00 0.455D+00 0.545D+00
 Coeff:      0.172D-01 0.470D+00 0.513D+00
 Gap=     0.299 Goal=   None    Shift=    0.000
 RMSDP=1.57D-04 MaxDP=5.78D-03 DE=-1.34D-04 OVMax= 6.73D-03

 Cycle   4  Pass 0  IDiag  1:
 E= -245.111989583492     Delta-E=       -0.000560507994 Rises=F Damp=F
 DIIS: error= 1.53D-04 at cycle   4 NSaved=   4.
 NSaved= 4 IEnMin= 4 EnMin= -245.111989583492     IErMin= 4 ErrMin= 1.53D-04
 ErrMax= 1.53D-04  0.00D+00 EMaxC= 1.00D-01 BMatC= 9.24D-06 BMatP= 8.11D-04
 IDIUse=3 WtCom= 9.98D-01 WtEn= 1.53D-03
 Coeff-Com: -0.696D-02 0.126D+00 0.180D+00 0.701D+00
 Coeff-En:   0.000D+00 0.000D+00 0.000D+00 0.100D+01
 Coeff:     -0.695D-02 0.126D+00 0.179D+00 0.702D+00
 Gap=     0.299 Goal=   None    Shift=    0.000
 RMSDP=2.16D-05 MaxDP=5.26D-04 DE=-5.61D-04 OVMax= 5.94D-04

 Cycle   5  Pass 0  IDiag  1:
 E= -245.111995007519     Delta-E=       -0.000005424027 Rises=F Damp=F
 DIIS: error= 7.07D-05 at cycle   5 NSaved=   5.
 NSaved= 5 IEnMin= 5 EnMin= -245.111995007519     IErMin= 5 ErrMin= 7.07D-05
 ErrMax= 7.07D-05  0.00D+00 EMaxC= 1.00D-01 BMatC= 1.58D-06 BMatP= 9.24D-06
 IDIUse=1 WtCom= 1.00D+00 WtEn= 0.00D+00
 Coeff-Com: -0.433D-02 0.416D-01 0.683D-01 0.374D+00 0.521D+00
 Coeff:     -0.433D-02 0.416D-01 0.683D-01 0.374D+00 0.521D+00
 Gap=     0.299 Goal=   None    Shift=    0.000
 RMSDP=7.69D-06 MaxDP=2.84D-04 DE=-5.42D-06 OVMax= 3.64D-04

 Initial convergence to 1.0D-05 achieved.  Increase integral accuracy.
 Cycle   6  Pass 1  IDiag  1:
 E= -245.111975094672     Delta-E=        0.000019912846 Rises=F Damp=F
 DIIS: error= 2.09D-05 at cycle   1 NSaved=   1.
 NSaved= 1 IEnMin= 1 EnMin= -245.111975094672     IErMin= 1 ErrMin= 2.09D-05
 ErrMax= 2.09D-05  0.00D+00 EMaxC= 1.00D-01 BMatC= 1.34D-07 BMatP= 1.34D-07
 IDIUse=1 WtCom= 1.00D+00 WtEn= 0.00D+00
 Coeff-Com:  0.100D+01
 Coeff:      0.100D+01
 Gap=     0.299 Goal=   None    Shift=    0.000
 RMSDP=7.69D-06 MaxDP=2.84D-04 DE= 1.99D-05 OVMax= 3.18D-04

 Cycle   7  Pass 1  IDiag  1:
 E= -245.111974910134     Delta-E=        0.000000184538 Rises=F Damp=F
 DIIS: error= 3.23D-05 at cycle   2 NSaved=   2.
 NSaved= 2 IEnMin= 1 EnMin= -245.111975094672     IErMin= 1 ErrMin= 2.09D-05
 ErrMax= 3.23D-05  0.00D+00 EMaxC= 1.00D-01 BMatC= 3.49D-07 BMatP= 1.34D-07
 IDIUse=1 WtCom= 1.00D+00 WtEn= 0.00D+00
 Coeff-Com:  0.625D+00 0.375D+00
 Coeff:      0.625D+00 0.375D+00
 Gap=     0.299 Goal=   None    Shift=    0.000
 RMSDP=3.84D-06 MaxDP=1.56D-04 DE= 1.85D-07 OVMax= 2.48D-04

 Cycle   8  Pass 1  IDiag  1:
 E= -245.111975201626     Delta-E=       -0.000000291492 Rises=F Damp=F
 DIIS: error= 6.19D-06 at cycle   3 NSaved=   3.
 NSaved= 3 IEnMin= 3 EnMin= -245.111975201626     IErMin= 3 ErrMin= 6.19D-06
 ErrMax= 6.19D-06  0.00D+00 EMaxC= 1.00D-01 BMatC= 6.89D-09 BMatP= 1.34D-07
 IDIUse=1 WtCom= 1.00D+00 WtEn= 0.00D+00
 Coeff-Com:  0.199D+00 0.167D+00 0.634D+00
 Coeff:      0.199D+00 0.167D+00 0.634D+00
 Gap=     0.299 Goal=   None    Shift=    0.000
 RMSDP=7.11D-07 MaxDP=2.30D-05 DE=-2.91D-07 OVMax= 3.87D-05

 Cycle   9  Pass 1  IDiag  1:
 E= -245.111975205983     Delta-E=       -0.000000004357 Rises=F Damp=F
 DIIS: error= 2.50D-06 at cycle   4 NSaved=   4.
 NSaved= 4 IEnMin= 4 EnMin= -245.111975205983     IErMin= 4 ErrMin= 2.50D-06
 ErrMax= 2.50D-06  0.00D+00 EMaxC= 1.00D-01 BMatC= 1.60D-09 BMatP= 6.89D-09
 IDIUse=1 WtCom= 1.00D+00 WtEn= 0.00D+00
 Coeff-Com:  0.269D-01 0.448D-01 0.361D+00 0.567D+00
 Coeff:      0.269D-01 0.448D-01 0.361D+00 0.567D+00
 Gap=     0.299 Goal=   None    Shift=    0.000
 RMSDP=2.54D-07 MaxDP=8.19D-06 DE=-4.36D-09 OVMax= 1.18D-05

 Cycle  10  Pass 1  IDiag  1:
 E= -245.111975207099     Delta-E=       -0.000000001116 Rises=F Damp=F
 DIIS: error= 4.21D-07 at cycle   5 NSaved=   5.
 NSaved= 5 IEnMin= 5 EnMin= -245.111975207099     IErMin= 5 ErrMin= 4.21D-07
 ErrMax= 4.21D-07  0.00D+00 EMaxC= 1.00D-01 BMatC= 7.72D-11 BMatP= 1.60D-09
 IDIUse=1 WtCom= 1.00D+00 WtEn= 0.00D+00
 Coeff-Com: -0.625D-02 0.523D-02 0.947D-01 0.253D+00 0.653D+00
 Coeff:     -0.625D-02 0.523D-02 0.947D-01 0.253D+00 0.653D+00
 Gap=     0.299 Goal=   None    Shift=    0.000
 RMSDP=5.27D-08 MaxDP=1.58D-06 DE=-1.12D-09 OVMax= 1.52D-06

 Cycle  11  Pass 1  IDiag  1:
 E= -245.111975207158     Delta-E=       -0.000000000059 Rises=F Damp=F
 DIIS: error= 1.01D-07 at cycle   6 NSaved=   6.
 NSaved= 6 IEnMin= 6 EnMin= -245.111975207158     IErMin= 6 ErrMin= 1.01D-07
 ErrMax= 1.01D-07  0.00D+00 EMaxC= 1.00D-01 BMatC= 2.80D-12 BMatP= 7.72D-11
 IDIUse=1 WtCom= 1.00D+00 WtEn= 0.00D+00
 Coeff-Com: -0.366D-02 0.218D-02 0.424D-01 0.123D+00 0.334D+00 0.502D+00
 Coeff:     -0.366D-02 0.218D-02 0.424D-01 0.123D+00 0.334D+00 0.502D+00
 Gap=     0.299 Goal=   None    Shift=    0.000
 RMSDP=1.09D-08 MaxDP=3.86D-07 DE=-5.89D-11 OVMax= 5.01D-07

 Cycle  12  Pass 1  IDiag  1:
 E= -245.111975207157     Delta-E=        0.000000000001 Rises=F Damp=F
 DIIS: error= 3.25D-08 at cycle   7 NSaved=   7.
 NSaved= 7 IEnMin= 6 EnMin= -245.111975207158     IErMin= 7 ErrMin= 3.25D-08
 ErrMax= 3.25D-08  0.00D+00 EMaxC= 1.00D-01 BMatC= 2.90D-13 BMatP= 2.80D-12
 IDIUse=1 WtCom= 1.00D+00 WtEn= 0.00D+00
 Coeff-Com: -0.370D-03 0.110D-03-0.338D-04 0.636D-02 0.213D-01 0.240D+00
 Coeff-Com:  0.733D+00
 Coeff:     -0.370D-03 0.110D-03-0.338D-04 0.636D-02 0.213D-01 0.240D+00
 Coeff:      0.733D+00
 Gap=     0.299 Goal=   None    Shift=    0.000
 RMSDP=3.68D-09 MaxDP=1.13D-07 DE= 1.02D-12 OVMax= 1.44D-07

 SCF Done:  E(RB3LYP) =  -245.111975207     A.U. after   12 cycles
            NFock= 12  Conv=0.37D-08     -V/T= 2.0057
 KE= 2.437346431582D+02 PE=-8.220457719741D+02 EE= 2.102583769927D+02
 Leave Link  502 at Tue Aug 30 12:29:16 2022, MaxMem= 24159191040 cpu:        33.5
 (Enter /public/home/users/caep010/software/Gaussian09/g09/l701.exe)
 Compute integral first derivatives.
 ... and contract with generalized density number  0.
 Leave Link  701 at Tue Aug 30 12:29:16 2022, MaxMem= 24159191040 cpu:        13.3
 (Enter /public/home/users/caep010/software/Gaussian09/g09/l702.exe)
 L702 exits ... SP integral derivatives will be done elsewhere.
 Leave Link  702 at Tue Aug 30 12:29:17 2022, MaxMem= 24159191040 cpu:         0.7
 (Enter /public/home/users/caep010/software/Gaussian09/g09/l703.exe)
 Compute integral first derivatives, UseDBF=F ICtDFT=           0.
 Integral derivatives from FoFJK, PRISM(SPDF).
 Calling FoFJK, ICntrl=      2127 FMM=F ISym2X=0 I1Cent= 0 IOpClX= 0 NMat=1 NMatS=1 NMatT=0.
 FoFJK:  IHMeth= 1 ICntrl=    2127 DoSepK=F KAlg= 0 I1Cent=   0 FoldK=F
 IRaf=         0 NMat=   1 IRICut=       1 DoRegI=T DoRafI=F ISym2E= 0.
 FoFCou: FMM=F IPFlag=           0 FMFlag=      100000 FMFlg1=         800
         NFxFlg=           0 DoJE=F BraDBF=F KetDBF=F FulRan=T
         wScrn=  0.000000 ICntrl=    2127 IOpCl=  0 I1Cent=           0 NGrid=           0
         NMat0=    1 NMatS0=      1 NMatT0=    0 NMatD0=    1 NMtDS0=    0 NMtDT0=    0
 Symmetry not used in FoFCou.
 Leave Link  703 at Tue Aug 30 12:29:17 2022, MaxMem= 24159191040 cpu:        19.7
 (Enter /public/home/users/caep010/software/Gaussian09/g09/l716.exe)
 Dipole        = 1.21312688D+00 9.94253677D-01 6.57597504D-02
 ***** Axes restored to original set *****
 -------------------------------------------------------------------
 Center     Atomic                   Forces (Hartrees/Bohr)
 Number     Number              X              Y              Z
 -------------------------------------------------------------------
      1        7          -0.002029470   -0.000428272    0.000996453
      2        6           0.004068961   -0.001371710    0.001686280
      3        8           0.006890294   -0.000923708    0.000260580
      4        8           0.020552823   -0.020834389   -0.030337457
      5        1          -0.001856189   -0.000024298    0.000052325
      6        1          -0.008500167    0.001859353   -0.000265549
      7        1          -0.019126252    0.021723024    0.027607368
 -------------------------------------------------------------------
 Cartesian Forces:  Max     0.030337457 RMS     0.012966853
 Leave Link  716 at Tue Aug 30 12:29:17 2022, MaxMem= 24159191040 cpu:         0.6
 (Enter /public/home/users/caep010/software/Gaussian09/g09/l103.exe)

 GradGradGradGradGradGradGradGradGradGradGradGradGradGradGradGradGradGrad
 Berny optimization.
 Using GEDIIS/GDIIS optimizer.
 FormGI is forming the generalized inverse of G from B-inverse, IUseBI=4.
 Internal  Forces:  Max     0.039948035 RMS     0.009786838
 Search for a local minimum.
 Step number   3 out of a maximum of   28
 All quantities printed in internal units (Hartrees-Bohrs-Radians)
 RMS Force = .97868D-02 SwitMx=.10000D-02 MixMth= 1
 Mixed Optimization -- RFO/linear search
 Update second derivatives using D2CorX and points    1    2    3
 DE= -2.78D-03 DEPred=-6.47D-03 R= 4.29D-01
 Trust test= 4.29D-01 RLast= 2.15D-01 DXMaxT set to 5.05D-01
 The second derivative matrix:
                          R1        R2        R3        R4        R5
           R1           0.81488
           R2           0.00042   0.40946
           R3          -0.00026   0.00062   0.51630
           R4           0.00092   0.00225  -0.00007   0.55797
           R5          -0.00407   0.00438  -0.00323  -0.01633   0.74313
           R6          -0.01296   0.00153   0.00648  -0.00560   0.02840
           A1           0.00053   0.00051   0.00010   0.00102  -0.00228
           A2          -0.00078  -0.00067   0.00002  -0.00110   0.00418
           A3           0.00040   0.00230   0.00015   0.00048  -0.01547
           A4           0.00040  -0.00167  -0.00017   0.00065   0.01159
           A5           0.00014  -0.00074   0.00007   0.00062   0.00641
           A6           0.00062   0.00228   0.00064   0.00212  -0.01069
           D1          -0.00003   0.00007   0.00003   0.00002  -0.00034
           D2           0.00035   0.00024  -0.00004   0.00044  -0.00168
           D3           0.00031  -0.00061  -0.00012   0.00035   0.00393
           D4          -0.00018  -0.00055  -0.00003  -0.00023   0.00365
           D5          -0.00023  -0.00031   0.00005  -0.00020   0.00238
           D6           0.00023  -0.00035  -0.00005   0.00035   0.00250
                          R6        A1        A2        A3        A4
           R6           0.49269
           A1          -0.00392   0.16044
           A2           0.00759  -0.00057   0.25075
           A3           0.00269   0.00085  -0.00077   0.25047
           A4          -0.01058  -0.00028   0.00002   0.00032   0.24965
           A5          -0.00292  -0.00009  -0.00003   0.00055  -0.00053
           A6           0.00455   0.00113  -0.00118   0.00218  -0.00103
           D1           0.00076   0.00002  -0.00000   0.00004  -0.00004
           D2          -0.00384   0.00023  -0.00032   0.00028   0.00004
[...]
 Coeff-Com:  0.104D+01
 Coeff:      0.145D-04-0.582D-03 0.111D-01-0.295D-02-0.123D+00 0.742D-01
 Coeff:      0.104D+01
 Gap=     0.445 Goal=   None    Shift=    0.000
 RMSDP=2.08D-08 MaxDP=7.83D-07 DE=-3.33D-10 OVMax= 2.20D-06

 Cycle   8  Pass 1  IDiag  1:
 E= -243.898505378466     Delta-E=       -0.000000000047 Rises=F Damp=F
 DIIS: error= 1.12D-07 at cycle   8 NSaved=   8.
 NSaved= 8 IEnMin= 8 EnMin= -243.898505378466     IErMin= 8 ErrMin= 1.12D-07
 ErrMax= 1.12D-07  0.00D+00 EMaxC= 1.00D-01 BMatC= 1.71D-12 BMatP= 2.24D-11
 IDIUse=1 WtCom= 1.00D+00 WtEn= 0.00D+00
 Coeff-Com:  0.142D-04-0.429D-03 0.387D-02 0.625D-02-0.211D-01-0.655D-01
 Coeff-Com:  0.311D-01 0.105D+01
 Coeff:      0.142D-04-0.429D-03 0.387D-02 0.625D-02-0.211D-01-0.655D-01
 Coeff:      0.311D-01 0.105D+01
 Gap=     0.445 Goal=   None    Shift=    0.000
 RMSDP=6.65D-09 MaxDP=2.77D-07 DE=-4.70D-11 OVMax= 1.03D-06

 SCF Done:  E(RHF) =  -243.898505378     A.U. after    8 cycles
            NFock=  8  Conv=0.66D-08     -V/T= 2.0014
 KE= 2.435626524080D+02 PE=-8.209583669511D+02 EE= 2.107455441463D+02
 Leave Link  502 at Tue Aug 30 12:33:02 2022, MaxMem= 24159191040 cpu:       886.6
 (Enter /public/home/users/caep010/software/Gaussian09/g09/l601.exe)
 Copying SCF densities to generalized density rwf, IOpCl= 0 IROHF=0.

 **********************************************************************

            Population analysis using the SCF density.

 **********************************************************************

 Orbital symmetries:
       Occupied  (A) (A) (A) (A) (A) (A) (A) (A) (A) (A) (A) (A)
                 (A) (A) (A) (A)
       Virtual   (A) (A) (A) (A) (A) (A) (A) (A) (A) (A) (A) (A)
                 (A) (A) (A) (A) (A) (A) (A) (A) (A) (A) (A) (A)
                 (A) (A) (A) (A) (A) (A) (A) (A) (A) (A) (A) (A)
                 (A) (A) (A) (A) (A) (A) (A) (A) (A) (A) (A) (A)
                 (A) (A) (A) (A) (A) (A) (A) (A) (A) (A) (A) (A)
                 (A) (A) (A) (A) (A) (A) (A) (A) (A) (A) (A) (A)
                 (A) (A) (A) (A) (A) (A) (A) (A) (A) (A) (A) (A)
                 (A) (A) (A) (A) (A) (A) (A) (A) (A) (A) (A) (A)
                 (A) (A) (A) (A) (A) (A) (A) (A) (A) (A) (A) (A)
                 (A) (A) (A) (A) (A) (A) (A) (A) (A) (A) (A) (A)
                 (A) (A) (A) (A) (A) (A) (A) (A) (A) (A) (A) (A)
                 (A) (A) (A) (A) (A) (A) (A) (A) (A) (A) (A) (A)
                 (A) (A) (A) (A) (A) (A) (A) (A) (A) (A) (A) (A)
                 (A) (A) (A) (A) (A) (A) (A) (A) (A) (A) (A) (A)
                 (A) (A) (A) (A) (A) (A) (A) (A) (A) (A) (A) (A)
                 (A) (A) (A) (A) (A) (A) (A) (A) (A) (A) (A) (A)
                 (A) (A) (A) (A) (A) (A) (A) (A) (A) (A) (A) (A)
                 (A) (A) (A) (A) (A) (A) (A) (A) (A) (A) (A) (A)
                 (A) (A) (A) (A) (A) (A) (A) (A) (A) (A) (A) (A)
                 (A) (A) (A) (A) (A) (A) (A) (A) (A) (A) (A) (A)
                 (A) (A) (A) (A) (A) (A) (A) (A) (A) (A) (A) (A)
                 (A) (A) (A) (A) (A) (A) (A) (A) (A) (A) (A) (A)
                 (A) (A) (A) (A) (A) (A) (A) (A) (A) (A) (A) (A)
                 (A) (A) (A) (A) (A) (A) (A) (A) (A) (A) (A) (A)
                 (A) (A) (A) (A) (A) (A) (A) (A) (A) (A) (A) (A)
                 (A) (A) (A) (A) (A) (A) (A) (A) (A) (A) (A) (A)
                 (A) (A) (A) (A) (A) (A) (A) (A) (A) (A) (A) (A)
                 (A) (A) (A) (A) (A) (A) (A) (A) (A) (A) (A) (A)
                 (A) (A) (A) (A) (A) (A) (A) (A) (A) (A) (A) (A)
                 (A) (A) (A) (A) (A) (A) (A) (A) (A) (A) (A) (A)
                 (A) (A) (A) (A) (A) (A) (A) (A) (A) (A) (A) (A)
                 (A) (A) (A) (A) (A) (A) (A) (A) (A) (A) (A) (A)
                 (A) (A) (A) (A) (A) (A) (A) (A) (A) (A) (A) (A)
                 (A) (A) (A) (A) (A) (A) (A) (A) (A) (A) (A) (A)
                 (A) (A) (A) (A) (A) (A) (A) (A) (A) (A) (A) (A)
                 (A) (A) (A) (A) (A) (A) (A) (A) (A) (A) (A) (A)
                 (A) (A) (A) (A)
 The electronic state is 1-A.
 Alpha  occ. eigenvalues --  -20.62376 -20.61803 -15.53737 -11.40424  -1.48696
 Alpha  occ. eigenvalues --   -1.39496  -1.20241  -0.85551  -0.80525  -0.70394
 Alpha  occ. eigenvalues --   -0.67592  -0.65039  -0.56236  -0.55650  -0.45851
 Alpha  occ. eigenvalues --   -0.41620
 Alpha virt. eigenvalues --    0.02908   0.05010   0.05452   0.06210   0.10624
 Alpha virt. eigenvalues --    0.10805   0.12104   0.12994   0.13328   0.14514
 Alpha virt. eigenvalues --    0.14736   0.15689   0.17118   0.19384   0.20634
 Alpha virt. eigenvalues --    0.21635   0.22140   0.24617   0.25763   0.26192
 Alpha virt. eigenvalues --    0.33203   0.35408   0.36316   0.39401   0.42870
 Alpha virt. eigenvalues --    0.44718   0.45496   0.46895   0.47686   0.48823
 Alpha virt. eigenvalues --    0.49797   0.50239   0.53229   0.53854   0.54738
 Alpha virt. eigenvalues --    0.56534   0.57127   0.61274   0.65295   0.67107
 Alpha virt. eigenvalues --    0.68286   0.72929   0.75960   0.78818   0.82598
 Alpha virt. eigenvalues --    0.84935   0.85924   0.89739   0.90406   0.94516
 Alpha virt. eigenvalues --    0.95608   0.97253   0.99114   1.00733   1.05874
 Alpha virt. eigenvalues --    1.07592   1.08640   1.11178   1.13786   1.14890
 Alpha virt. eigenvalues --    1.16581   1.20310   1.22805   1.24715   1.28807
 Alpha virt. eigenvalues --    1.31476   1.33437   1.34493   1.35274   1.37405
 Alpha virt. eigenvalues --    1.43271   1.44342   1.46714   1.50191   1.53388
 Alpha virt. eigenvalues --    1.54952   1.56717   1.58757   1.60929   1.61495
 Alpha virt. eigenvalues --    1.70752   1.71428   1.76731   1.78069   1.79881
 Alpha virt. eigenvalues --    1.82894   1.87411   1.91119   1.94958   1.97506
 Alpha virt. eigenvalues --    2.04404   2.07173   2.11833   2.13538   2.19642
 Alpha virt. eigenvalues --    2.21514   2.22667   2.25584   2.27918   2.30976
 Alpha virt. eigenvalues --    2.31775   2.41160   2.42135   2.44864   2.47762
 Alpha virt. eigenvalues --    2.49346   2.50693   2.56217   2.57424   2.59793
 Alpha virt. eigenvalues --    2.62315   2.65145   2.66945   2.68751   2.70040
 Alpha virt. eigenvalues --    2.72342   2.74455   2.75665   2.78904   2.81929
 Alpha virt. eigenvalues --    2.82458   2.85375   2.86422   2.93247   2.94524
 Alpha virt. eigenvalues --    2.97688   3.02187   3.03769   3.05112   3.06068
 Alpha virt. eigenvalues --    3.11794   3.12231   3.15504   3.23488   3.26202
 Alpha virt. eigenvalues --    3.28455   3.28910   3.31495   3.33255   3.34387
 Alpha virt. eigenvalues --    3.35811   3.36510   3.44191   3.46590   3.48417
 Alpha virt. eigenvalues --    3.51165   3.51906   3.57818   3.64234   3.70062
 Alpha virt. eigenvalues --    3.73716   3.75411   3.77780   3.82807   3.86271
 Alpha virt. eigenvalues --    3.90703   3.94249   3.98011   4.00127   4.02017
 Alpha virt. eigenvalues --    4.07957   4.08459   4.11040   4.14822   4.16792
 Alpha virt. eigenvalues --    4.17533   4.23927   4.26430   4.30468   4.37650
 Alpha virt. eigenvalues --    4.38688   4.41298   4.45317   4.51052   4.58738
 Alpha virt. eigenvalues --    4.60491   4.66852   4.75017   4.77848   4.87130
 Alpha virt. eigenvalues --    4.90264   5.00169   5.07721   5.10148   5.23243
 Alpha virt. eigenvalues --    5.25232   5.30155   5.34163   5.38993   5.46681
 Alpha virt. eigenvalues --    5.50153   5.56444   5.61389   5.71721   5.74944
 Alpha virt. eigenvalues --    5.76754   5.81115   5.82412   5.98838   6.03096
 Alpha virt. eigenvalues --    6.03695   6.14980   6.15095   6.20036   6.20440
 Alpha virt. eigenvalues --    6.28817   6.34626   6.39106   6.42671   6.52071
 Alpha virt. eigenvalues --    6.54597   6.60228   6.63678   6.66645   6.71251
 Alpha virt. eigenvalues --    6.77603   6.83910   6.86002   6.89590   6.90940
 Alpha virt. eigenvalues --    6.98354   7.02355   7.05408   7.09895   7.12232
 Alpha virt. eigenvalues --    7.19919   7.23180   7.25878   7.29851   7.31788
 Alpha virt. eigenvalues --    7.38525   7.43055   7.48180   7.50173   7.52957
 Alpha virt. eigenvalues --    7.56437   7.61779   7.65011   7.68497   7.77140
 Alpha virt. eigenvalues --    7.84024   7.89188   7.90708   7.96647   7.98553
 Alpha virt. eigenvalues --    8.09722   8.15259   8.20172   8.22587   8.23785
 Alpha virt. eigenvalues --    8.28000   8.28926   8.35141   8.47333   8.49023
 Alpha virt. eigenvalues --    8.55803   8.57335   8.62723   8.66000   8.69917
 Alpha virt. eigenvalues --    8.73809   8.75316   8.79661   8.84822   8.92411
 Alpha virt. eigenvalues --    8.97170   9.00137   9.01595   9.03172   9.05357
 Alpha virt. eigenvalues --    9.09207   9.13279   9.17311   9.24077   9.31046
 Alpha virt. eigenvalues --    9.32635   9.40461   9.48961   9.54873   9.57438
 Alpha virt. eigenvalues --    9.62574   9.69051   9.75133   9.80805   9.88527
 Alpha virt. eigenvalues --    9.92600   9.99606  10.04133  10.06063  10.12474
 Alpha virt. eigenvalues --   10.17938  10.20369  10.23174  10.24268  10.25297
 Alpha virt. eigenvalues --   10.29481  10.34601  10.39512  10.43469  10.53057
 Alpha virt. eigenvalues --   10.58856  10.60006  10.65855  10.68246  10.81543
 Alpha virt. eigenvalues --   10.88023  11.10572  11.16874  11.17937  11.30516
 Alpha virt. eigenvalues --   11.38567  11.44070  11.61708  11.70669  11.78382
 Alpha virt. eigenvalues --   11.91311  11.98794  12.11518  12.26374  12.30611
 Alpha virt. eigenvalues --   12.33870  12.48236  12.52761  12.69004  12.77516
 Alpha virt. eigenvalues --   13.00002  13.01621  13.24675  13.36055  13.49345
 Alpha virt. eigenvalues --   13.52123  13.71890  13.75021  13.81102  13.94135
 Alpha virt. eigenvalues --   14.12182  14.27205  14.29894  14.32172  14.36405
 Alpha virt. eigenvalues --   14.44426  14.47817  14.51453  14.53679  14.66224
 Alpha virt. eigenvalues --   14.69693  14.72694  14.74248  14.86826  14.90102
 Alpha virt. eigenvalues --   14.97500  14.98507  15.01223  15.08069  15.12799
 Alpha virt. eigenvalues --   15.17205  15.22750  15.27019  15.29497  15.35597
 Alpha virt. eigenvalues --   15.46025  15.51282  15.58325  15.60869  15.69892
 Alpha virt. eigenvalues --   15.71615  15.75497  15.87513  15.91677  16.02980
 Alpha virt. eigenvalues --   16.13045  16.29491  16.38698  16.47066  16.53727
 Alpha virt. eigenvalues --   16.69719  16.89343  17.45411  17.79112  17.94583
 Alpha virt. eigenvalues --   17.96717  18.07613  18.27141  18.38785  18.46655
 Alpha virt. eigenvalues --   18.54841  18.63447  18.68637  18.73682  18.76626
 Alpha virt. eigenvalues --   18.85548  19.02268  19.05787  19.07482  19.08716
 Alpha virt. eigenvalues --   19.22947  19.28692  19.30017  19.36038  19.38090
 Alpha virt. eigenvalues --   19.40912  19.42268  19.45335  19.53523  19.56311
 Alpha virt. eigenvalues --   19.61372  19.66405  19.71596  19.84120  19.88814
 Alpha virt. eigenvalues --   20.00036  20.02192  20.04326  20.10557  20.16472
 Alpha virt. eigenvalues --   20.19171  20.56892  20.62440  21.05167  21.25469
 Alpha virt. eigenvalues --   22.31130  22.33138  22.41805  22.43991  22.97406
 Alpha virt. eigenvalues --   22.98032  23.17878  23.26462  23.65703  23.80194
 Alpha virt. eigenvalues --   23.98122  24.09511  40.56017  51.46370  63.24547
 Alpha virt. eigenvalues --   63.32413
          Condensed to atoms (all electrons):
               1          2          3          4          5          6
     1  N    6.799245   0.658273  -0.046107  -0.102712   0.313295   0.001082
     2  C    0.658273   4.197200   0.288173   0.305423  -0.011142  -0.014300
     3  O   -0.046107   0.288173   8.110447  -0.077687  -0.020173   0.274670
     4  O   -0.102712   0.305423  -0.077687   8.058848   0.012494   0.009463
     5  H    0.313295  -0.011142  -0.020173   0.012494   0.403661   0.000751
     6  H    0.001082  -0.014300   0.274670   0.009463   0.000751   0.350609
     7  H    0.003172  -0.010203   0.002996   0.279001  -0.000410  -0.002105
               7
     1  N    0.003172
     2  C   -0.010203
     3  O    0.002996
     4  O    0.279001
     5  H   -0.000410
     6  H   -0.002105
     7  H    0.352081
 Mulliken charges:
               1
     1  N   -0.626249
     2  C    0.586577
     3  O   -0.532321
     4  O   -0.484829
     5  H    0.301524
     6  H    0.379830
     7  H    0.375468
 Sum of Mulliken charges =  -0.00000
 Mulliken charges with hydrogens summed into heavy atoms:
               1
     1  N   -0.324725
     2  C    0.586577
     3  O   -0.152491
     4  O   -0.109361
 Electronic spatial extent (au):  <R**2>=            232.7659
 Charge=             -0.0000 electrons
 Dipole moment (field-independent basis, Debye):
    X=              3.2016    Y=              2.5410    Z=              0.0327  Tot=              4.0876
 Quadrupole moment (field-independent basis, Debye-Ang):
   XX=            -18.2476   YY=            -27.2513   ZZ=            -23.2472
   XY=             -0.8793   XZ=             -0.9143   YZ=              1.8764
 Traceless Quadrupole moment (field-independent basis, Debye-Ang):
   XX=              4.6678   YY=             -4.3359   ZZ=             -0.3318
   XY=             -0.8793   XZ=             -0.9143   YZ=              1.8764
 Octapole moment (field-independent basis, Debye-Ang**2):
  XXX=             12.6567  YYY=              5.7239  ZZZ=              0.0270  XYY=              6.2505
  XXY=              8.8047  XXZ=             -1.4763  XZZ=              3.7454  YZZ=              1.3951
  YYZ=              1.7184  XYZ=              2.6332
 Hexadecapole moment (field-independent basis, Debye-Ang**3):
 XXXX=           -106.9901 YYYY=           -123.2239 ZZZZ=            -22.5357 XXXY=            -12.2312
 XXXZ=             -5.1890 YYYX=              1.4093 YYYZ=              3.3844 ZZZX=             -0.6546
 ZZZY=              1.1421 XXYY=            -41.1199 XXZZ=            -26.2091 YYZZ=            -23.7032
 XXYZ=              3.7299 YYXZ=              1.4635 ZZXY=             -1.0799
 N-N= 1.227516650182D+02 E-N=-8.209583677218D+02  KE= 2.435626524080D+02
 No NMR shielding tensors so no spin-rotation constants.
 Leave Link  601 at Tue Aug 30 12:33:03 2022, MaxMem= 24159191040 cpu:        23.0
 (Enter /public/home/users/caep010/software/Gaussian09/g09/l9999.exe)
 1\1\GINC-B1375\SP\RHF\GFHFB2\C1H3N1O2\ROOT\30-Aug-2022\0\\#P Geom=AllC
 heck Guess=TCheck SCRF=Check HF/GFHFB2 SCF=Tight\\Frag_826\\0,1\N,0,1.
 1417420699,-0.8003727633,-0.4511994684\C,0,0.1486023135,-0.216474127,0
 .0501638905\O,0,0.0434271281,1.1352935754,0.2267284731\O,0,-0.93166296
 05,-0.9205345195,0.4697292154\H,0,1.8045720867,-0.1120300159,-0.801745
 6754\H,0,-0.8842565111,1.3970110575,0.1800009397\H,0,-1.3224241265,-0.
 4829932072,1.2349226251\\Version=ES64L-G09RevE.01\State=1-A\HF=-243.89
 85054\RMSD=6.650e-09\Dipole=-0.9768326,1.1662993,0.5213279\Quadrupole=
 2.0944505,-3.1361976,1.0417471,-0.8562464,-2.0768914,-1.1761263\PG=C01
  [X(C1H3N1O2)]\\@


 ACHIEVEMENT--  THE MAN WHO ROWS THE BOAT GENERALLY 
                DOESN'T HAVE TIME TO ROCK IT.

                   -- FROM THE BACK OF A SUGAR PACKET
 Diagonal vibrational polarizability:
        0.0000000       0.0000000       0.0000000

 Temperature=              298.150000 Pressure=                      1.000000
 E(ZPE)=                     0.049795 E(Thermal)=                    0.054049
 E(CCSD(T))=              -244.442239 E(Empiric)=                   -0.083364
 DE(Plus)=                  -0.021532 DE(2DF)=                      -0.192031
 E(Delta-G3XP)=             -0.289843 DE(HF)=                       -0.025717
 G4(0 K)=                 -245.004931 G4 Energy=                  -245.000678
 G4 Enthalpy=             -244.999733 G4 Free Energy=             -245.031205
 1\1\GINC-B1375\Mixed\G4\G4\C1H3N1O2\ROOT\30-Aug-2022\0\\#P Geom=AllChe
 ck Guess=TCheck SCRF=Check HF/GFHFB2 SCF=Tight\\Frag_826\\0,1\N,0,1.14
 17420699,-0.8003727633,-0.4511994684\C,0,0.1486023135,-0.216474127,0.0
 501638905\O,0,0.0434271281,1.1352935754,0.2267284731\O,0,-0.9316629605
 ,-0.9205345195,0.4697292154\H,0,1.8045720867,-0.1120300159,-0.80174567
 54\H,0,-0.8842565111,1.3970110575,0.1800009397\H,0,-1.3224241265,-0.48
 29932072,1.2349226251\\Version=ES64L-G09RevE.01\State=1-A\MP2/GTBas1=-
 244.405\MP4/GTBas1=-244.4438901\CCSD(T)/G3Bas1=-244.4422391\MP2/GTBas2
 =-244.4252683\MP4/GTBas2=-244.4654221\MP2/GTBas3=-244.5863791\MP4/GTBa
 s3=-244.6359214\HF/GTLargeXP=-243.8738706\MP2/GTLargeXP=-244.8964903\H
 F/GFHFB1=-243.8940629\HF/GFHFB2=-243.8985054\G4=-245.0049314\FreqCoord
 =2.1575798265,-1.5124853268,-0.8526434265,0.2808176752,-0.4090768149,0
 .0947960147,0.0820653788,2.145393938,0.4284547206,-1.7605878436,-1.739
 5581377,0.8876595738,3.4101470309,-0.2117060486,-1.5150797548,-1.67100
 26372,2.6399683032,0.3401524796,-2.4990194307,-0.9127248857,2.33366555
 68\PG=C01 [X(C1H3N1O2)]\NImag=0\\0.69419167,-0.03277101,0.43947857,-0.
 32256105,0.01581782,0.22728555,-0.43634518,0.14748791,0.18565834,0.824
 30715,0.20855308,-0.20105926,-0.10717969,-0.13276583,0.61701820,0.1848
 0095,-0.07572543,-0.16454763,-0.29933970,0.09744211,0.35373166,-0.0020
 4569,0.05165529,0.01889805,-0.11538214,0.03265389,0.01211723,0.5855215
 5,0.02835712,-0.04308503,-0.01185707,-0.01575020,-0.25134068,-0.028236
 15,-0.12186042,0.42099574,0.01366930,-0.02379016,0.01940925,0.01100828
 ,-0.02163734,-0.06540693,0.00364975,0.03172107,0.03709384,-0.06394899,
 -0.01584823,0.02912112,-0.20586779,-0.10059538,0.05034540,0.00060025,-
 0.02377277,0.00320456,0.36290803,0.00713382,0.02036782,-0.00286562,-0.
 07025069,-0.15554987,0.00001423,-0.04625761,-0.05680063,0.01431161,0.0
 5252933,0.32124829,0.03502645,0.00783636,-0.00934400,0.07500341,0.0336
 7300,-0.09619942,0.00380923,0.00345394,0.01513548,-0.26442041,0.158080
 72,0.40329329,-0.19341321,-0.14541781,0.08646217,-0.03435559,-0.029904
 69,0.01609034,0.00264979,-0.00297527,-0.00457101,0.00190439,0.00526900
 ,0.00727447,0.22502303,-0.20524037,-0.20717935,0.10802129,0.02911019,-
 0.00356303,-0.01490088,0.00049184,0.00056599,-0.00046950,0.00204439,0.
 00072931,-0.00031046,0.17395991,0.20850383,0.08843499,0.07697239,-0.07
 517610,0.01520014,0.01507058,-0.00965313,-0.00472192,0.00010655,-0.004
 88287,0.00755193,-0.00064964,0.00722173,-0.10513350,-0.09224140,0.0801
 7579,0.00442405,-0.00052811,-0.00062826,-0.00789198,0.00296922,0.00311
 761,-0.47328326,0.13297007,-0.02303764,-0.00133097,-0.00488259,0.00022
 059,0.00022537,0.00000840,-0.00116317,0.47592573,-0.00263241,-0.007259
 16,-0.00280049,0.05463289,-0.01669979,-0.00157019,0.08202136,-0.068307
 14,0.00244905,-0.00373179,0.00559048,-0.00134023,-0.00003141,0.0000975
 7,0.00131790,-0.12973100,0.08945637,0.00196737,-0.00362584,0.00306602,
 0.00504764,-0.00562211,-0.00346909,-0.02918360,0.00762849,-0.00358955,
 0.00088457,-0.00036732,-0.00193591,-0.00103145,0.00041285,-0.00038285,
 0.02163156,-0.00190584,0.00721530,-0.00286265,-0.00457804,0.00304963,-
 0.02446446,0.01908971,0.03286817,0.00193951,0.00303147,-0.00392324,-0.
 09426493,0.05645874,0.14308626,-0.00203377,-0.00037435,-0.00016848,0.0
 0193106,-0.00052765,0.00068392,0.11975524,-0.00340022,-0.00126360,0.00
 086376,-0.01246428,0.01119444,0.02297631,0.00129564,-0.00202826,-0.002
 58473,0.08937445,-0.13558539,-0.20139333,-0.00089973,0.00084568,-0.000
 57638,-0.00080599,-0.00287833,0.00347977,-0.07309987,0.12971547,-0.001
 33801,0.00251486,-0.00069308,0.00742189,-0.01174655,-0.01445546,-0.004
 56874,-0.00281683,0.00224077,0.17331284,-0.16852399,-0.31817116,0.0009
 0898,-0.00051189,0.00269744,-0.00014071,0.00384980,-0.00090392,-0.1755
 9626,0.17723461,0.32928541\\0.00000052,-0.00000579,0.00000460,-0.00001
 740,-0.00000326,-0.00000240,-0.00007259,0.00001038,0.00000271,0.000014
 42,0.00000779,-0.00002474,0.00000574,0.00000074,-0.00000293,0.00007895
 ,-0.00002034,0.00000278,-0.00000963,0.00001048,0.00001998\\\@
 Job cpu time:       0 days  0 hours 16 minutes  6.5 seconds.
 File lengths (MBytes):  RWF=    681 Int=      0 D2E=      0 Chk=     13 Scr=      1
 Normal termination of Gaussian 09 at Tue Aug 30 12:33:03 2022.
