 Entering Gaussian System, Link 0=g09
 Input=G4.Frag_704.gjf
 Output=G4.Frag_704.log
 Initial command:
 /public/home/users/caep010/software/Gaussian09/g09/l1.exe "/public/home/users/caep010/.cache/gau_scr/Gau-215787.inp" -scrdir="/public/home/users/caep010/.cache/gau_scr/"
 Entering Link 1 = /public/home/users/caep010/software/Gaussian09/g09/l1.exe PID=    215788.
  
 Copyright (c) 1988,1990,1992,1993,1995,1998,2003,2009,2015,
            Gaussian, Inc.  All Rights Reserved.
  
 This is part of the Gaussian(R) 09 program.  It is based on
 the Gaussian(R) 03 system (copyright 2003, Gaussian, Inc.),
 the Gaussian(R) 98 system (copyright 1998, Gaussian, Inc.),
 the Gaussian(R) 94 system (copyright 1995, Gaussian, Inc.),
 the Gaussian 92(TM) system (copyright 1992, Gaussian, Inc.),
 the Gaussian 90(TM) system (copyright 1990, Gaussian, Inc.),
 the Gaussian 88(TM) system (copyright 1988, Gaussian, Inc.),
 the Gaussian 86(TM) system (copyright 1986, Carnegie Mellon
 University), and the Gaussian 82(TM) system (copyright 1983,
 Carnegie Mellon University). Gaussian is a federally registered
 trademark of Gaussian, Inc.
  
 This software contains proprietary and confidential information,
 including trade secrets, belonging to Gaussian, Inc.
  
 This software is provided under written license and may be
 used, copied, transmitted, or stored only in accord with that
 written license.
  
 The following legend is applicable only to US Government
 contracts under FAR:
  
                    RESTRICTED RIGHTS LEGEND
  
 Use, reproduction and disclosure by the US Government is
 subject to restrictions as set forth in subparagraphs (a)
 and (c) of the Commercial Computer Software - Restricted
 Rights clause in FAR 52.227-19.
  
 Gaussian, Inc.
 340 Quinnipiac St., Bldg. 40, Wallingford CT 06492
  
  
 ---------------------------------------------------------------
 Warning -- This program may not be used in any manner that
 competes with the business of Gaussian, Inc. or will provide
 assistance to any competitor of Gaussian, Inc.  The licensee
 of this program is prohibited from giving any competitor of
 Gaussian, Inc. access to this program.  By using this program,
 the user acknowledges that Gaussian, Inc. is engaged in the
 business of creating and licensing software in the field of
 computational chemistry and represents and warrants to the
 licensee that it is not a competitor of Gaussian, Inc. and that
 it will not use this program in any manner prohibited above.
 ---------------------------------------------------------------
  

 Cite this work as:
 Gaussian 09, Revision E.01,
 M. J. Frisch, G. W. Trucks, H. B. Schlegel, G. E. Scuseria, 
 M. A. Robb, J. R. Cheeseman, G. Scalmani, V. Barone, B. Mennucci, 
 G. A. Petersson, H. Nakatsuji, M. Caricato, X. Li, H. P. Hratchian, 
 A. F. Izmaylov, J. Bloino, G. Zheng, J. L. Sonnenberg, M. Hada, 
 M. Ehara, K. Toyota, R. Fukuda, J. Hasegawa, M. Ishida, T. Nakajima, 
 Y. Honda, O. Kitao, H. Nakai, T. Vreven, J. A. Montgomery, Jr., 
 J. E. Peralta, F. Ogliaro, M. Bearpark, J. J. Heyd, E. Brothers, 
 K. N. Kudin, V. N. Staroverov, T. Keith, R. Kobayashi, J. Normand, 
 K. Raghavachari, A. Rendell, J. C. Burant, S. S. Iyengar, J. Tomasi, 
 M. Cossi, N. Rega, J. M. Millam, M. Klene, J. E. Knox, J. B. Cross, 
 V. Bakken, C. Adamo, J. Jaramillo, R. Gomperts, R. E. Stratmann, 
 O. Yazyev, A. J. Austin, R. Cammi, C. Pomelli, J. W. Ochterski, 
 R. L. Martin, K. Morokuma, V. G. Zakrzewski, G. A. Voth, 
 P. Salvador, J. J. Dannenberg, S. Dapprich, A. D. Daniels, 
 O. Farkas, J. B. Foresman, J. V. Ortiz, J. Cioslowski, 
 and D. J. Fox, Gaussian, Inc., Wallingford CT, 2013.
 
 ******************************************
 Gaussian 09:  ES64L-G09RevE.01 30-Nov-2015
                22-Aug-2022 
 ******************************************
 %nproc=32
 Will use up to   32 processors via shared memory.
 %mem=180MB
 %chk=G4.Frag_704.chk
 -----
 #P G4
 -----
 1/14=-1,18=20,19=15,26=3,38=1/1,3;
 2/9=110,12=2,17=6,18=5,40=1/2;
 3/5=35,7=104,11=2,16=1,25=1,30=1,71=1,74=-5/1,2,3;
 4//1;
 5/5=2,38=5/2;
 6/7=2,8=2,9=2,10=2,28=1/1;
 7//1,2,3,16;
 1/14=-1,18=20,19=15,26=3/3(2);
 2/9=110/2;
 99//99;
 2/9=110/2;
 3/5=35,7=104,11=2,16=1,25=1,30=1,71=1,74=-5/1,2,3;
 4/5=5,16=3,69=1/1;
 5/5=2,38=5/2;
 7//1,2,3,16;
 1/14=-1,18=20,19=15,26=3/3(-5);
 2/9=110/2;
 6/7=2,8=2,9=2,10=2,19=2,28=1/1;
 99/9=1/99;
 Leave Link    1 at Mon Aug 22 01:42:35 2022, MaxMem=    23592960 cpu:         2.2
 (Enter /public/home/users/caep010/software/Gaussian09/g09/l101.exe)
 --------
 Frag_704
 --------
 Symbolic Z-matrix:
 Charge =  0 Multiplicity = 1
 C                     1.357    -0.2361    0.5046 
 N                     0.202     0.6182    0.2241 
 C                    -0.9688   -0.2018   -0.1036 
 O                    -2.0848    0.6225   -0.2988 
 H                     1.6012   -0.8756   -0.3726 
 H                     2.238     0.4005    0.732 
 H                     1.1583   -0.876     1.3913 
 H                     0.4366    1.1971   -0.6162 
 H                    -0.7809   -0.8151   -1.0166 
 H                    -1.1948   -0.8913    0.7386 
 H                    -1.9639    1.0575   -1.1829 
 
 NAtoms=     11 NQM=       11 NQMF=       0 NMMI=      0 NMMIF=      0
                NMic=       0 NMicF=      0.
                    Isotopes and Nuclear Properties:
 (Nuclear quadrupole moments (NQMom) in fm**2, nuclear magnetic moments (NMagM)
  in nuclear magnetons)

  Atom         1           2           3           4           5           6           7           8           9          10
 IAtWgt=          12          14          12          16           1           1           1           1           1           1
 AtmWgt=  12.0000000  14.0030740  12.0000000  15.9949146   1.0078250   1.0078250   1.0078250   1.0078250   1.0078250   1.0078250
 NucSpn=           0           2           0           0           1           1           1           1           1           1
 AtZEff=   0.0000000   0.0000000   0.0000000   0.0000000   0.0000000   0.0000000   0.0000000   0.0000000   0.0000000   0.0000000
 NQMom=    0.0000000   2.0440000   0.0000000   0.0000000   0.0000000   0.0000000   0.0000000   0.0000000   0.0000000   0.0000000
 NMagM=    0.0000000   0.4037610   0.0000000   0.0000000   2.7928460   2.7928460   2.7928460   2.7928460   2.7928460   2.7928460
 AtZNuc=   6.0000000   7.0000000   6.0000000   8.0000000   1.0000000   1.0000000   1.0000000   1.0000000   1.0000000   1.0000000

  Atom        11
 IAtWgt=           1
 AtmWgt=   1.0078250
 NucSpn=           1
 AtZEff=   0.0000000
 NQMom=    0.0000000
 NMagM=    2.7928460
 AtZNuc=   1.0000000
 Leave Link  101 at Mon Aug 22 01:42:35 2022, MaxMem=    23592960 cpu:         2.2
 (Enter /public/home/users/caep010/software/Gaussian09/g09/l103.exe)

 GradGradGradGradGradGradGradGradGradGradGradGradGradGradGradGradGradGrad
 Berny optimization.
 Initialization pass.
                           ----------------------------
                           !    Initial Parameters    !
                           ! (Angstroms and Degrees)  !
 --------------------------                            --------------------------
 ! Name  Definition              Value          Derivative Info.                !
 --------------------------------------------------------------------------------
 ! R1    R(1,2)                  1.4637         estimate D2E/DX2                !
 ! R2    R(1,5)                  1.1127         estimate D2E/DX2                !
 ! R3    R(1,6)                  1.1105         estimate D2E/DX2                !
 ! R4    R(1,7)                  1.1114         estimate D2E/DX2                !
 ! R5    R(2,3)                  1.4665         estimate D2E/DX2                !
 ! R6    R(2,8)                  1.047          estimate D2E/DX2                !
 ! R7    R(3,4)                  1.4011         estimate D2E/DX2                !
 ! R8    R(3,9)                  1.1158         estimate D2E/DX2                !
 ! R9    R(3,10)                 1.1117         estimate D2E/DX2                !
 ! R10   R(4,11)                 0.9927         estimate D2E/DX2                !
 ! A1    A(2,1,5)              110.9492         estimate D2E/DX2                !
 ! A2    A(2,1,6)              109.3099         estimate D2E/DX2                !
 ! A3    A(2,1,7)              110.3562         estimate D2E/DX2                !
 ! A4    A(5,1,6)              108.4696         estimate D2E/DX2                !
 ! A5    A(5,1,7)              109.7127         estimate D2E/DX2                !
 ! A6    A(6,1,7)              107.9709         estimate D2E/DX2                !
 ! A7    A(1,2,3)              110.2703         estimate D2E/DX2                !
 ! A8    A(1,2,8)              107.4389         estimate D2E/DX2                !
 ! A9    A(3,2,8)              107.9813         estimate D2E/DX2                !
 ! A10   A(2,3,4)              109.7604         estimate D2E/DX2                !
 ! A11   A(2,3,9)              110.839          estimate D2E/DX2                !
 ! A12   A(2,3,10)             109.8666         estimate D2E/DX2                !
 ! A13   A(4,3,9)              110.091          estimate D2E/DX2                !
 ! A14   A(4,3,10)             107.9704         estimate D2E/DX2                !
 ! A15   A(9,3,10)             108.2538         estimate D2E/DX2                !
 ! A16   A(3,4,11)             106.5513         estimate D2E/DX2                !
 ! D1    D(5,1,2,3)             59.3819         estimate D2E/DX2                !
 ! D2    D(5,1,2,8)            -58.0669         estimate D2E/DX2                !
 ! D3    D(6,1,2,3)            178.9589         estimate D2E/DX2                !
 ! D4    D(6,1,2,8)             61.5101         estimate D2E/DX2                !
 ! D5    D(7,1,2,3)            -62.4402         estimate D2E/DX2                !
 ! D6    D(7,1,2,8)           -179.889          estimate D2E/DX2                !
 ! D7    D(1,2,3,4)            176.8106         estimate D2E/DX2                !
 ! D8    D(1,2,3,9)            -61.3664         estimate D2E/DX2                !
 ! D9    D(1,2,3,10)            58.2309         estimate D2E/DX2                !
 ! D10   D(8,2,3,4)            -66.0764         estimate D2E/DX2                !
 ! D11   D(8,2,3,9)             55.7466         estimate D2E/DX2                !
 ! D12   D(8,2,3,10)           175.3438         estimate D2E/DX2                !
 ! D13   D(2,3,4,11)            74.6006         estimate D2E/DX2                !
 ! D14   D(9,3,4,11)           -47.6684         estimate D2E/DX2                !
 ! D15   D(10,3,4,11)         -165.6549         estimate D2E/DX2                !
 --------------------------------------------------------------------------------
 Trust Radius=3.00D-01 FncErr=1.00D-07 GrdErr=1.00D-06
 Number of steps in this run=     51 maximum allowed number of steps=    100.
 GradGradGradGradGradGradGradGradGradGradGradGradGradGradGradGradGradGrad

 Leave Link  103 at Mon Aug 22 01:42:35 2022, MaxMem=    23592960 cpu:         0.5
 (Enter /public/home/users/caep010/software/Gaussian09/g09/l202.exe)
                          Input orientation:                          
 ---------------------------------------------------------------------
 Center     Atomic      Atomic             Coordinates (Angstroms)
 Number     Number       Type             X           Y           Z
 ---------------------------------------------------------------------
      1          6           0        1.357000   -0.236100    0.504600
      2          7           0        0.202000    0.618200    0.224100
      3          6           0       -0.968800   -0.201800   -0.103600
      4          8           0       -2.084800    0.622500   -0.298800
      5          1           0        1.601200   -0.875600   -0.372600
      6          1           0        2.238000    0.400500    0.732000
      7          1           0        1.158300   -0.876000    1.391300
      8          1           0        0.436600    1.197100   -0.616200
      9          1           0       -0.780900   -0.815100   -1.016600
     10          1           0       -1.194800   -0.891300    0.738600
     11          1           0       -1.963900    1.057500   -1.182900
 ---------------------------------------------------------------------
                    Distance matrix (angstroms):
                    1          2          3          4          5
     1  C    0.000000
     2  N    1.463740   0.000000
     3  C    2.404252   1.466479   0.000000
     4  O    3.637119   2.345825   1.401082   0.000000
     5  H    1.112688   2.131959   2.670443   3.979491   0.000000
     6  H    1.110464   2.109657   3.368168   4.449543   1.803909
     7  H    1.111391   2.123558   2.685857   3.952169   1.818654
     8  H    2.038968   1.047027   2.048128   2.605449   2.389920
     9  H    2.686988   2.135364   1.115801   2.069320   2.468359
    10  H    2.644944   2.119988   1.111660   2.039581   3.008759
    11  H    3.943277   2.619877   1.934153   0.992711   4.135626
                    6          7          8          9         10
     6  H    0.000000
     7  H    1.797187   0.000000
     8  H    2.386893   2.974668   0.000000
     9  H    3.694461   3.092279   2.385702   0.000000
    10  H    3.667820   2.441993   2.976300   1.804951   0.000000
    11  H    4.664167   4.484759   2.470433   2.221210   2.842798
                   11
    11  H    0.000000
 Stoichiometry    C2H7NO
 Framework group  C1[X(C2H7NO)]
 Deg. of freedom    27
 Full point group                 C1      NOp   1
 Largest Abelian subgroup         C1      NOp   1
 Largest concise Abelian subgroup C1      NOp   1
                         Standard orientation:                         
 ---------------------------------------------------------------------
 Center     Atomic      Atomic             Coordinates (Angstroms)
 Number     Number       Type             X           Y           Z
 ---------------------------------------------------------------------
      1          6           0        1.801258    0.096324    0.000409
      2          7           0        0.481151   -0.511958   -0.172349
      3          6           0       -0.571306    0.474402    0.092204
      4          8           0       -1.827699   -0.097911   -0.146463
      5          1           0        1.927220    0.486502    1.034802
      6          1           0        2.584975   -0.668215   -0.185064
      7          1           0        1.946019    0.920269   -0.731266
      8          1           0        0.392890   -1.276959    0.537052
      9          1           0       -0.512501    0.845507    1.142840
     10          1           0       -0.454929    1.343509   -0.591093
     11          1           0       -2.009855   -0.707972    0.615193
 ---------------------------------------------------------------------
 Rotational constants (GHZ):     28.6610577      4.1097369      3.8503670
 Leave Link  202 at Mon Aug 22 01:42:35 2022, MaxMem=    23592960 cpu:         0.5
 (Enter /public/home/users/caep010/software/Gaussian09/g09/l301.exe)
 Standard basis: GTBas3 (6D, 7F)
 Ernie: Thresh=  0.10000D-02 Tol=  0.10000D-05 Strict=F.
 There are   159 symmetry adapted cartesian basis functions of A   symmetry.
 There are   147 symmetry adapted basis functions of A   symmetry.
   147 basis functions,   225 primitive gaussians,   159 cartesian basis functions
    17 alpha electrons       17 beta electrons
       nuclear repulsion energy       132.5548860397 Hartrees.
 IExCor=  402 DFT=T Ex+Corr=B3LYP ExCW=0 ScaHFX=  0.200000
 ScaDFX=  0.800000  0.720000  1.000000  0.810000 ScalE2=  1.000000  1.000000
 IRadAn=      0 IRanWt=     -1 IRanGd=            0 ICorTp=0 IEmpDi=  4
 NAtoms=   11 NActive=   11 NUniq=   11 SFac= 1.00D+00 NAtFMM=   60 NAOKFM=F Big=F
 Integral buffers will be    131072 words long.
 Raffenetti 2 integral format.
 Two-electron integral symmetry is turned on.
 Leave Link  301 at Mon Aug 22 01:42:36 2022, MaxMem=    23592960 cpu:         8.3
 (Enter /public/home/users/caep010/software/Gaussian09/g09/l302.exe)
 NPDir=0 NMtPBC=     1 NCelOv=     1 NCel=       1 NClECP=     1 NCelD=      1
         NCelK=      1 NCelE2=     1 NClLst=     1 CellRange=     0.0.
 One-electron integrals computed using PRISM.
 PrsmSu:  requested number of processors reduced to:   3 ShMem   1 Linda.
 PrsmSu:  requested number of processors reduced to:  11 ShMem   1 Linda.
 NBasis=   147 RedAO= T EigKep=  4.96D-04  NBF=   147
 NBsUse=   147 1.00D-06 EigRej= -1.00D+00 NBFU=   147
 Precomputing XC quadrature grid using
 IXCGrd= 4 IRadAn=           0 IRanWt=          -1 IRanGd=           0 AccXCQ= 0.00D+00.
 Generated NRdTot=       0 NPtTot=           0 NUsed=           0 NTot=          32
 NSgBfM=   159   159   159   159   159 MxSgAt=    11 MxSgA2=    11.
 Leave Link  302 at Mon Aug 22 01:42:36 2022, MaxMem=    23592960 cpu:         4.2
 (Enter /public/home/users/caep010/software/Gaussian09/g09/l303.exe)
 DipDrv:  MaxL=1.
 Leave Link  303 at Mon Aug 22 01:42:36 2022, MaxMem=    23592960 cpu:         0.7
 (Enter /public/home/users/caep010/software/Gaussian09/g09/l401.exe)
 ExpMin= 1.61D-01 ExpMax= 5.48D+03 ExpMxC= 8.25D+02 IAcc=1 IRadAn=         1 AccDes= 0.00D+00
 Harris functional with IExCor=  402 and IRadAn=       1 diagonalized for initial guess.
 HarFok:  IExCor=  402 AccDes= 0.00D+00 IRadAn=         1 IDoV= 1 UseB2=F ITyADJ=14
 ICtDFT=  3500011 ScaDFX=  1.000000  1.000000  1.000000  1.000000
 CalDSu:  requested number of processors reduced to:  22 ShMem   1 Linda.
 FoFCou: FMM=F IPFlag=           0 FMFlag=      100000 FMFlg1=           0
         NFxFlg=           0 DoJE=T BraDBF=F KetDBF=T FulRan=T
         wScrn=  0.000000 ICntrl=     500 IOpCl=  0 I1Cent=   200000004 NGrid=           0
         NMat0=    1 NMatS0=      1 NMatT0=    0 NMatD0=    1 NMtDS0=    0 NMtDT0=    0
 Petite list used in FoFCou.
 CoulSu:  requested number of processors reduced to:  11 ShMem   1 Linda.
 CoulSu:  requested number of processors reduced to:  11 ShMem   1 Linda.
 CoulSu:  requested number of processors reduced to:  12 ShMem   1 Linda.
 CoulSu:  requested number of processors reduced to:  12 ShMem   1 Linda.
 Harris En= -210.410212313137    
 JPrj=0 DoOrth=F DoCkMO=F.
 Leave Link  401 at Mon Aug 22 01:42:36 2022, MaxMem=    23592960 cpu:         4.4
 (Enter /public/home/users/caep010/software/Gaussian09/g09/l502.exe)
 Closed shell SCF:
 Using DIIS extrapolation, IDIIS=  1040.
 Integral symmetry usage will be decided dynamically.
 IVT=      100649 IEndB=      100649 NGot=    23592960 MDV=    23534392
 LenX=    23534392 LenY=    23508670
 Requested convergence on RMS density matrix=1.00D-08 within 128 cycles.
 Requested convergence on MAX density matrix=1.00D-06.
 Requested convergence on             energy=1.00D-06.
 No special actions if energy rises.
 Fock matrices will be formed incrementally for  20 cycles.
 Integral accuracy reduced to 1.0D-05 until final iterations.

 Cycle   1  Pass 0  IDiag  1:
 FoFJK:  IHMeth= 1 ICntrl=       0 DoSepK=F KAlg= 0 I1Cent=   0 FoldK=F
 IRaf= 980000000 NMat=   1 IRICut=       1 DoRegI=T DoRafI=F ISym2E= 0.
 FoFCou: FMM=F IPFlag=           0 FMFlag=      100000 FMFlg1=           0
         NFxFlg=           0 DoJE=F BraDBF=F KetDBF=F FulRan=T
         wScrn=  0.000000 ICntrl=       0 IOpCl=  0 I1Cent=           0 NGrid=           0
         NMat0=    1 NMatS0=      1 NMatT0=    0 NMatD0=    1 NMtDS0=    0 NMtDT0=    0
 Symmetry not used in FoFCou.
 CoulSu:  requested number of processors reduced to:  11 ShMem   1 Linda.
 CalDSu:  requested number of processors reduced to:  22 ShMem   1 Linda.
 E= -210.259346799334    
 DIIS: error= 2.26D-02 at cycle   1 NSaved=   1.
 NSaved= 1 IEnMin= 1 EnMin= -210.259346799334     IErMin= 1 ErrMin= 2.26D-02
 ErrMax= 2.26D-02  0.00D+00 EMaxC= 1.00D-01 BMatC= 1.44D-01 BMatP= 1.44D-01
 IDIUse=3 WtCom= 7.74D-01 WtEn= 2.26D-01
 Coeff-Com:  0.100D+01
 Coeff-En:   0.100D+01
 Coeff:      0.100D+01
 Gap=     0.216 Goal=   None    Shift=    0.000
 GapD=    0.216 DampG=1.000 DampE=0.500 DampFc=0.5000 IDamp=-1.
 Damping current iteration by 5.00D-01
 RMSDP=5.75D-03 MaxDP=1.54D-01              OVMax= 1.54D-01

 Cycle   2  Pass 0  IDiag  1:
 RMSU=  2.84D-03    CP:  9.78D-01
 CoulSu:  requested number of processors reduced to:  11 ShMem   1 Linda.
 CalDSu:  requested number of processors reduced to:  22 ShMem   1 Linda.
 E= -210.311343222155     Delta-E=       -0.051996422821 Rises=F Damp=T
 DIIS: error= 7.04D-03 at cycle   2 NSaved=   2.
 NSaved= 2 IEnMin= 2 EnMin= -210.311343222155     IErMin= 2 ErrMin= 7.04D-03
 ErrMax= 7.04D-03  0.00D+00 EMaxC= 1.00D-01 BMatC= 1.07D-02 BMatP= 1.44D-01
 IDIUse=3 WtCom= 9.30D-01 WtEn= 7.04D-02
 Coeff-Com:  0.135D+00 0.865D+00
 Coeff-En:   0.211D+00 0.789D+00
 Coeff:      0.140D+00 0.860D+00
 Gap=     0.282 Goal=   None    Shift=    0.000
 RMSDP=1.04D-03 MaxDP=2.83D-02 DE=-5.20D-02 OVMax= 9.46D-02

 Cycle   3  Pass 0  IDiag  1:
 RMSU=  9.24D-04    CP:  9.76D-01  8.30D-01
 CoulSu:  requested number of processors reduced to:  11 ShMem   1 Linda.
 CalDSu:  requested number of processors reduced to:  22 ShMem   1 Linda.
 E= -210.389164074185     Delta-E=       -0.077820852030 Rises=F Damp=F
 DIIS: error= 2.40D-03 at cycle   3 NSaved=   3.
 NSaved= 3 IEnMin= 3 EnMin= -210.389164074185     IErMin= 3 ErrMin= 2.40D-03
 ErrMax= 2.40D-03  0.00D+00 EMaxC= 1.00D-01 BMatC= 1.93D-03 BMatP= 1.07D-02
 IDIUse=3 WtCom= 9.76D-01 WtEn= 2.40D-02
 Coeff-Com:  0.109D-01 0.262D+00 0.727D+00
 Coeff-En:   0.000D+00 0.000D+00 0.100D+01
 Coeff:      0.107D-01 0.256D+00 0.733D+00
 Gap=     0.285 Goal=   None    Shift=    0.000
 RMSDP=3.58D-04 MaxDP=1.01D-02 DE=-7.78D-02 OVMax= 1.24D-02

 Cycle   4  Pass 0  IDiag  1:
 RMSU=  2.64D-04    CP:  9.77D-01  8.36D-01  7.41D-01
 CoulSu:  requested number of processors reduced to:  11 ShMem   1 Linda.
 CalDSu:  requested number of processors reduced to:  22 ShMem   1 Linda.
 E= -210.390108167064     Delta-E=       -0.000944092879 Rises=F Damp=F
 DIIS: error= 2.10D-03 at cycle   4 NSaved=   4.
 NSaved= 4 IEnMin= 4 EnMin= -210.390108167064     IErMin= 4 ErrMin= 2.10D-03
 ErrMax= 2.10D-03  0.00D+00 EMaxC= 1.00D-01 BMatC= 7.32D-04 BMatP= 1.93D-03
 IDIUse=3 WtCom= 9.79D-01 WtEn= 2.10D-02
 Coeff-Com: -0.291D-02 0.578D-01 0.397D+00 0.549D+00
 Coeff-En:   0.000D+00 0.000D+00 0.283D+00 0.717D+00
 Coeff:     -0.285D-02 0.566D-01 0.394D+00 0.552D+00
 Gap=     0.284 Goal=   None    Shift=    0.000
 RMSDP=1.52D-04 MaxDP=4.77D-03 DE=-9.44D-04 OVMax= 5.39D-03

 Cycle   5  Pass 0  IDiag  1:
 RMSU=  5.42D-05    CP:  9.76D-01  8.46D-01  8.21D-01  5.56D-01
 CoulSu:  requested number of processors reduced to:  11 ShMem   1 Linda.
 CalDSu:  requested number of processors reduced to:  22 ShMem   1 Linda.
 E= -210.390723578893     Delta-E=       -0.000615411829 Rises=F Damp=F
 DIIS: error= 2.32D-04 at cycle   5 NSaved=   5.
 NSaved= 5 IEnMin= 5 EnMin= -210.390723578893     IErMin= 5 ErrMin= 2.32D-04
 ErrMax= 2.32D-04  0.00D+00 EMaxC= 1.00D-01 BMatC= 1.45D-05 BMatP= 7.32D-04
 IDIUse=3 WtCom= 9.98D-01 WtEn= 2.32D-03
 Coeff-Com: -0.104D-02 0.302D-02 0.935D-01 0.194D+00 0.711D+00
 Coeff-En:   0.000D+00 0.000D+00 0.000D+00 0.000D+00 0.100D+01
 Coeff:     -0.104D-02 0.302D-02 0.933D-01 0.193D+00 0.711D+00
 Gap=     0.284 Goal=   None    Shift=    0.000
 RMSDP=2.59D-05 MaxDP=5.50D-04 DE=-6.15D-04 OVMax= 7.94D-04

 Cycle   6  Pass 0  IDiag  1:
 RMSU=  1.38D-05    CP:  9.76D-01  8.43D-01  8.24D-01  5.96D-01  6.97D-01
 CoulSu:  requested number of processors reduced to:  11 ShMem   1 Linda.
 CalDSu:  requested number of processors reduced to:  22 ShMem   1 Linda.
 E= -210.390734614460     Delta-E=       -0.000011035566 Rises=F Damp=F
 DIIS: error= 6.34D-05 at cycle   6 NSaved=   6.
 NSaved= 6 IEnMin= 6 EnMin= -210.390734614460     IErMin= 6 ErrMin= 6.34D-05
 ErrMax= 6.34D-05  0.00D+00 EMaxC= 1.00D-01 BMatC= 1.84D-06 BMatP= 1.45D-05
 IDIUse=1 WtCom= 1.00D+00 WtEn= 0.00D+00
 Coeff-Com: -0.472D-03 0.725D-04 0.440D-01 0.979D-01 0.406D+00 0.452D+00
 Coeff:     -0.472D-03 0.725D-04 0.440D-01 0.979D-01 0.406D+00 0.452D+00
 Gap=     0.284 Goal=   None    Shift=    0.000
 RMSDP=8.67D-06 MaxDP=2.87D-04 DE=-1.10D-05 OVMax= 2.82D-04

 Initial convergence to 1.0D-05 achieved.  Increase integral accuracy.
 Cycle   7  Pass 1  IDiag  1:
 CoulSu:  requested number of processors reduced to:  11 ShMem   1 Linda.
 CalDSu:  requested number of processors reduced to:  22 ShMem   1 Linda.
 E= -210.390726299255     Delta-E=        0.000008315204 Rises=F Damp=F
 DIIS: error= 1.22D-05 at cycle   1 NSaved=   1.
 NSaved= 1 IEnMin= 1 EnMin= -210.390726299255     IErMin= 1 ErrMin= 1.22D-05
 ErrMax= 1.22D-05  0.00D+00 EMaxC= 1.00D-01 BMatC= 7.64D-08 BMatP= 7.64D-08
 IDIUse=1 WtCom= 1.00D+00 WtEn= 0.00D+00
 Coeff-Com:  0.100D+01
 Coeff:      0.100D+01
 Gap=     0.284 Goal=   None    Shift=    0.000
 RMSDP=8.67D-06 MaxDP=2.87D-04 DE= 8.32D-06 OVMax= 1.29D-04

 Cycle   8  Pass 1  IDiag  1:
 RMSU=  4.30D-06    CP:  1.00D+00
 CoulSu:  requested number of processors reduced to:  11 ShMem   1 Linda.
 CalDSu:  requested number of processors reduced to:  22 ShMem   1 Linda.
 E= -210.390726303312     Delta-E=       -0.000000004057 Rises=F Damp=F
 DIIS: error= 1.50D-05 at cycle   2 NSaved=   2.
 NSaved= 2 IEnMin= 2 EnMin= -210.390726303312     IErMin= 1 ErrMin= 1.22D-05
 ErrMax= 1.50D-05  0.00D+00 EMaxC= 1.00D-01 BMatC= 7.56D-08 BMatP= 7.64D-08
 IDIUse=1 WtCom= 1.00D+00 WtEn= 0.00D+00
 Coeff-Com:  0.498D+00 0.502D+00
 Coeff:      0.498D+00 0.502D+00
 Gap=     0.284 Goal=   None    Shift=    0.000
 RMSDP=2.09D-06 MaxDP=7.24D-05 DE=-4.06D-09 OVMax= 7.90D-05

 Cycle   9  Pass 1  IDiag  1:
 RMSU=  1.72D-06    CP:  1.00D+00  7.22D-01
 CoulSu:  requested number of processors reduced to:  11 ShMem   1 Linda.
 CalDSu:  requested number of processors reduced to:  22 ShMem   1 Linda.
 E= -210.390726359195     Delta-E=       -0.000000055883 Rises=F Damp=F
 DIIS: error= 3.62D-06 at cycle   3 NSaved=   3.
 NSaved= 3 IEnMin= 3 EnMin= -210.390726359195     IErMin= 3 ErrMin= 3.62D-06
 ErrMax= 3.62D-06  0.00D+00 EMaxC= 1.00D-01 BMatC= 6.33D-09 BMatP= 7.56D-08
 IDIUse=1 WtCom= 1.00D+00 WtEn= 0.00D+00
 Coeff-Com:  0.199D-01 0.224D+00 0.756D+00
 Coeff:      0.199D-01 0.224D+00 0.756D+00
 Gap=     0.284 Goal=   None    Shift=    0.000
 RMSDP=5.29D-07 MaxDP=1.64D-05 DE=-5.59D-08 OVMax= 1.77D-05

 Cycle  10  Pass 1  IDiag  1:
 RMSU=  2.45D-07    CP:  1.00D+00  7.90D-01  7.88D-01
 CoulSu:  requested number of processors reduced to:  11 ShMem   1 Linda.
 CalDSu:  requested number of processors reduced to:  22 ShMem   1 Linda.
 E= -210.390726364100     Delta-E=       -0.000000004906 Rises=F Damp=F
 DIIS: error= 9.35D-07 at cycle   4 NSaved=   4.
 NSaved= 4 IEnMin= 4 EnMin= -210.390726364100     IErMin= 4 ErrMin= 9.35D-07
 ErrMax= 9.35D-07  0.00D+00 EMaxC= 1.00D-01 BMatC= 2.44D-10 BMatP= 6.33D-09
 IDIUse=1 WtCom= 1.00D+00 WtEn= 0.00D+00
 Coeff-Com: -0.774D-02 0.765D-01 0.321D+00 0.611D+00
 Coeff:     -0.774D-02 0.765D-01 0.321D+00 0.611D+00
 Gap=     0.284 Goal=   None    Shift=    0.000
 RMSDP=1.06D-07 MaxDP=2.73D-06 DE=-4.91D-09 OVMax= 3.48D-06

 Cycle  11  Pass 1  IDiag  1:
 RMSU=  5.86D-08    CP:  1.00D+00  7.95D-01  8.01D-01  6.61D-01
 CoulSu:  requested number of processors reduced to:  11 ShMem   1 Linda.
 CalDSu:  requested number of processors reduced to:  22 ShMem   1 Linda.
 E= -210.390726364302     Delta-E=       -0.000000000201 Rises=F Damp=F
 DIIS: error= 2.51D-07 at cycle   5 NSaved=   5.
 NSaved= 5 IEnMin= 5 EnMin= -210.390726364302     IErMin= 5 ErrMin= 2.51D-07
 ErrMax= 2.51D-07  0.00D+00 EMaxC= 1.00D-01 BMatC= 2.78D-11 BMatP= 2.44D-10
 IDIUse=1 WtCom= 1.00D+00 WtEn= 0.00D+00
 Coeff-Com: -0.536D-02 0.340D-01 0.152D+00 0.341D+00 0.478D+00
 Coeff:     -0.536D-02 0.340D-01 0.152D+00 0.341D+00 0.478D+00
 Gap=     0.284 Goal=   None    Shift=    0.000
 RMSDP=2.77D-08 MaxDP=9.61D-07 DE=-2.01D-10 OVMax= 8.95D-07

 Cycle  12  Pass 1  IDiag  1:
 RMSU=  1.60D-08    CP:  1.00D+00  7.95D-01  8.03D-01  6.88D-01  6.41D-01
 CoulSu:  requested number of processors reduced to:  11 ShMem   1 Linda.
 CalDSu:  requested number of processors reduced to:  22 ShMem   1 Linda.
 E= -210.390726364324     Delta-E=       -0.000000000022 Rises=F Damp=F
 DIIS: error= 2.97D-08 at cycle   6 NSaved=   6.
 NSaved= 6 IEnMin= 6 EnMin= -210.390726364324     IErMin= 6 ErrMin= 2.97D-08
 ErrMax= 2.97D-08  0.00D+00 EMaxC= 1.00D-01 BMatC= 4.34D-13 BMatP= 2.78D-11
 IDIUse=1 WtCom= 1.00D+00 WtEn= 0.00D+00
 Coeff-Com: -0.820D-03 0.272D-02 0.153D-01 0.399D-01 0.133D+00 0.810D+00
 Coeff:     -0.820D-03 0.272D-02 0.153D-01 0.399D-01 0.133D+00 0.810D+00
 Gap=     0.284 Goal=   None    Shift=    0.000
 RMSDP=4.33D-09 MaxDP=1.18D-07 DE=-2.22D-11 OVMax= 1.43D-07

 SCF Done:  E(RB3LYP) =  -210.390726364     A.U. after   12 cycles
            NFock= 12  Conv=0.43D-08     -V/T= 2.0079
 KE= 2.087499100417D+02 PE=-7.566305726431D+02 EE= 2.049350501974D+02
 Leave Link  502 at Mon Aug 22 01:42:40 2022, MaxMem=    23592960 cpu:        67.5
 (Enter /public/home/users/caep010/software/Gaussian09/g09/l601.exe)
 Copying SCF densities to generalized density rwf, IOpCl= 0 IROHF=0.

 **********************************************************************

            Population analysis using the SCF density.

 **********************************************************************

 Orbital symmetries:
       Occupied  (A) (A) (A) (A) (A) (A) (A) (A) (A) (A) (A) (A)
                 (A) (A) (A) (A) (A)
       Virtual   (A) (A) (A) (A) (A) (A) (A) (A) (A) (A) (A) (A)
                 (A) (A) (A) (A) (A) (A) (A) (A) (A) (A) (A) (A)
                 (A) (A) (A) (A) (A) (A) (A) (A) (A) (A) (A) (A)
                 (A) (A) (A) (A) (A) (A) (A) (A) (A) (A) (A) (A)
                 (A) (A) (A) (A) (A) (A) (A) (A) (A) (A) (A) (A)
                 (A) (A) (A) (A) (A) (A) (A) (A) (A) (A) (A) (A)
                 (A) (A) (A) (A) (A) (A) (A) (A) (A) (A) (A) (A)
                 (A) (A) (A) (A) (A) (A) (A) (A) (A) (A) (A) (A)
                 (A) (A) (A) (A) (A) (A) (A) (A) (A) (A) (A) (A)
                 (A) (A) (A) (A) (A) (A) (A) (A) (A) (A) (A) (A)
                 (A) (A) (A) (A) (A) (A) (A) (A) (A) (A)
 The electronic state is 1-A.
 Alpha  occ. eigenvalues --  -19.13835 -14.31531 -10.25110 -10.20571  -1.02255
 Alpha  occ. eigenvalues --   -0.88608  -0.67978  -0.62588  -0.50603  -0.48773
 Alpha  occ. eigenvalues --   -0.44946  -0.41478  -0.39382  -0.37279  -0.33122
 Alpha  occ. eigenvalues --   -0.27819  -0.22620
 Alpha virt. eigenvalues --    0.05783   0.09039   0.11988   0.15470   0.16126
 Alpha virt. eigenvalues --    0.16638   0.18699   0.21057   0.23049   0.26599
 Alpha virt. eigenvalues --    0.42506   0.46487   0.48997   0.54224   0.56253
 Alpha virt. eigenvalues --    0.57741   0.61686   0.63672   0.70475   0.70892
 Alpha virt. eigenvalues --    0.72487   0.73184   0.75016   0.78391   0.80311
 Alpha virt. eigenvalues --    0.82606   0.83485   0.84392   0.87910   0.90741
 Alpha virt. eigenvalues --    0.91135   0.97807   0.99857   1.03596   1.17028
 Alpha virt. eigenvalues --    1.21720   1.27443   1.31073   1.36607   1.37293
 Alpha virt. eigenvalues --    1.42150   1.45957   1.54039   1.55226   1.59687
 Alpha virt. eigenvalues --    1.65728   1.70706   1.72590   1.78783   1.86634
 Alpha virt. eigenvalues --    1.93364   1.97558   2.00958   2.15031   2.24263
 Alpha virt. eigenvalues --    2.26743   2.28073   2.39028   2.40935   2.45484
 Alpha virt. eigenvalues --    2.49222   2.52693   2.55879   2.69227   2.74656
 Alpha virt. eigenvalues --    2.77261   2.81420   2.81934   2.87038   2.89598
 Alpha virt. eigenvalues --    2.92090   2.93752   2.97031   3.00850   3.06028
 Alpha virt. eigenvalues --    3.18847   3.27324   3.30435   3.35833   3.41848
 Alpha virt. eigenvalues --    3.44934   3.46913   3.50030   3.57906   3.64856
 Alpha virt. eigenvalues --    3.75388   3.79143   3.87424   4.01519   4.10758
 Alpha virt. eigenvalues --    4.15837   4.20453   4.22614   4.27596   4.31387
 Alpha virt. eigenvalues --    4.37633   4.42115   4.45799   4.48765   4.51248
 Alpha virt. eigenvalues --    4.52363   4.57200   4.61496   4.62360   4.68716
 Alpha virt. eigenvalues --    4.71719   4.76446   4.82032   4.86247   4.89977
 Alpha virt. eigenvalues --    4.97127   5.01397   5.03447   5.09958   5.12979
 Alpha virt. eigenvalues --    5.28232   5.37439   5.40007   5.44928   5.51270
 Alpha virt. eigenvalues --    5.66465   5.98282   6.02917   6.11283   6.98144
 Alpha virt. eigenvalues --   10.16888  11.42890  11.49873  12.39169  13.25278
          Condensed to atoms (all electrons):
               1          2          3          4          5          6
     1  C    4.936318   0.352537  -0.060142   0.003273   0.369263   0.378363
     2  N    0.352537   6.480308   0.365333  -0.066978  -0.044877  -0.020232
     3  C   -0.060142   0.365333   4.724850   0.384647  -0.006853   0.003807
     4  O    0.003273  -0.066978   0.384647   7.829275  -0.000207  -0.000082
     5  H    0.369263  -0.044877  -0.006853  -0.000207   0.664796  -0.038804
     6  H    0.378363  -0.020232   0.003807  -0.000082  -0.038804   0.587035
     7  H    0.378671  -0.025985  -0.003528   0.000141  -0.041222  -0.027522
     8  H   -0.042853   0.320713  -0.045672   0.005481  -0.007211  -0.002715
     9  H    0.003460  -0.063421   0.367043  -0.040684   0.013960  -0.000382
    10  H   -0.004367  -0.026500   0.353778  -0.008796  -0.001888  -0.000099
    11  H   -0.000427  -0.000117  -0.064613   0.300535   0.000022   0.000001
               7          8          9         10         11
     1  C    0.378671  -0.042853   0.003460  -0.004367  -0.000427
     2  N   -0.025985   0.320713  -0.063421  -0.026500  -0.000117
     3  C   -0.003528  -0.045672   0.367043   0.353778  -0.064613
     4  O    0.000141   0.005481  -0.040684  -0.008796   0.300535
     5  H   -0.041222  -0.007211   0.013960  -0.001888   0.000022
     6  H   -0.027522  -0.002715  -0.000382  -0.000099   0.000001
     7  H    0.581864   0.006128  -0.001549   0.006517   0.000014
     8  H    0.006128   0.560598  -0.008912   0.006921   0.004603
     9  H   -0.001549  -0.008912   0.730325  -0.054994  -0.009472
    10  H    0.006517   0.006921  -0.054994   0.603908   0.007116
    11  H    0.000014   0.004603  -0.009472   0.007116   0.478273
 Mulliken charges:
               1
     1  C   -0.314097
     2  N   -0.270781
     3  C   -0.018650
     4  O   -0.406605
     5  H    0.093020
     6  H    0.120630
     7  H    0.126470
     8  H    0.202918
     9  H    0.064625
    10  H    0.118403
    11  H    0.284065
 Sum of Mulliken charges =  -0.00000
 Mulliken charges with hydrogens summed into heavy atoms:
               1
     1  C    0.026025
     2  N   -0.067862
     3  C    0.164378
     4  O   -0.122540
 Electronic spatial extent (au):  <R**2>=            351.4612
 Charge=             -0.0000 electrons
 Dipole moment (field-independent basis, Debye):
    X=              0.9000    Y=             -0.2215    Z=              2.1677  Tot=              2.3576
 Quadrupole moment (field-independent basis, Debye-Ang):
   XX=            -26.6984   YY=            -24.0698   ZZ=            -25.6530
   XY=              1.3585   XZ=             -2.6110   YZ=             -3.0031
 Traceless Quadrupole moment (field-independent basis, Debye-Ang):
   XX=             -1.2246   YY=              1.4039   ZZ=             -0.1793
   XY=              1.3585   XZ=             -2.6110   YZ=             -3.0031
 Octapole moment (field-independent basis, Debye-Ang**2):
  XXX=             -2.3888  YYY=             -3.5745  ZZZ=              1.0283  XYY=             -3.6458
  XXY=             -5.8577  XXZ=              4.3578  XZZ=             -3.9528  YZZ=             -0.2878
  YYZ=              1.2471  XYZ=              1.3259
 Hexadecapole moment (field-independent basis, Debye-Ang**3):
 XXXX=           -334.0212 YYYY=            -63.3765 ZZZZ=            -43.6085 XXXY=              7.2023
 XXXZ=            -13.8013 YYYX=              1.1421 YYYZ=             -5.2127 ZZZX=             -0.8662
 ZZZY=             -2.8406 XXYY=            -61.3009 XXZZ=            -60.3443 YYZZ=            -17.3494
 XXYZ=             -4.8879 YYXZ=             -1.2961 ZZXY=              1.9397
 N-N= 1.325548860397D+02 E-N=-7.566305758734D+02  KE= 2.087499100417D+02
 PrsmSu:  requested number of processors reduced to:  11 ShMem   1 Linda.
 No NMR shielding tensors so no spin-rotation constants.
 Leave Link  601 at Mon Aug 22 01:42:40 2022, MaxMem=    23592960 cpu:         2.6
 (Enter /public/home/users/caep010/software/Gaussian09/g09/l701.exe)
 Compute integral first derivatives.
 ... and contract with generalized density number  0.
 PrsmSu:  requested number of processors reduced to:   3 ShMem   1 Linda.
 PrsmSu:  requested number of processors reduced to:   6 ShMem   1 Linda.
 Leave Link  701 at Mon Aug 22 01:42:40 2022, MaxMem=    23592960 cpu:         1.9
 (Enter /public/home/users/caep010/software/Gaussian09/g09/l702.exe)
 L702 exits ... SP integral derivatives will be done elsewhere.
 Leave Link  702 at Mon Aug 22 01:42:41 2022, MaxMem=    23592960 cpu:         0.6
 (Enter /public/home/users/caep010/software/Gaussian09/g09/l703.exe)
 Compute integral first derivatives, UseDBF=F ICtDFT=           0.
 Integral derivatives from FoFJK, PRISM(SPDF).
 Calling FoFJK, ICntrl=      2127 FMM=F ISym2X=0 I1Cent= 0 IOpClX= 0 NMat=1 NMatS=1 NMatT=0.
 FoFJK:  IHMeth= 1 ICntrl=    2127 DoSepK=F KAlg= 0 I1Cent=   0 FoldK=F
 IRaf=         0 NMat=   1 IRICut=       1 DoRegI=T DoRafI=F ISym2E= 0.
 FoFCou: FMM=F IPFlag=           0 FMFlag=      100000 FMFlg1=         800
         NFxFlg=           0 DoJE=F BraDBF=F KetDBF=F FulRan=T
         wScrn=  0.000000 ICntrl=    2127 IOpCl=  0 I1Cent=           0 NGrid=           0
         NMat0=    1 NMatS0=      1 NMatT0=    0 NMatD0=    1 NMtDS0=    0 NMtDT0=    0
 Symmetry not used in FoFCou.
 CoulSu:  requested number of processors reduced to:   6 ShMem   1 Linda.
 CalDSu:  requested number of processors reduced to:  19 ShMem   1 Linda.
 Leave Link  703 at Mon Aug 22 01:42:42 2022, MaxMem=    23592960 cpu:        11.2
 (Enter /public/home/users/caep010/software/Gaussian09/g09/l716.exe)
 Dipole        = 3.54099754D-01-8.71416233D-02 8.52841294D-01
 ***** Axes restored to original set *****
 -------------------------------------------------------------------
 Center     Atomic                   Forces (Hartrees/Bohr)
 Number     Number              X              Y              Z
 -------------------------------------------------------------------
      1        6           0.007581045    0.003592729   -0.001190038
      2        7           0.003753597    0.001073225   -0.008355968
      3        6           0.004885391    0.004881851   -0.004402258
      4        8          -0.002506167    0.009526066   -0.025114118
      5        1           0.003045818   -0.001827824    0.008423759
      6        1          -0.007525265   -0.006978955   -0.001915890
      7        1           0.001176505    0.005439288   -0.009218273
      8        1          -0.006393930   -0.011274154    0.018198984
      9        1          -0.001661809   -0.001983828    0.004932044
     10        1           0.003295842    0.008353861   -0.006145739
     11        1          -0.005651027   -0.010802259    0.024787497
 -------------------------------------------------------------------
 Cartesian Forces:  Max     0.025114118 RMS     0.008998134
 Leave Link  716 at Mon Aug 22 01:42:42 2022, MaxMem=    23592960 cpu:         0.6
 (Enter /public/home/users/caep010/software/Gaussian09/g09/l103.exe)

 GradGradGradGradGradGradGradGradGradGradGradGradGradGradGradGradGradGrad
 Berny optimization.
 FormGI is forming the generalized inverse of G from B-inverse, IUseBI=4.
 Internal  Forces:  Max     0.027491879 RMS     0.007358225
 Search for a local minimum.
 Step number   1 out of a maximum of   51
 All quantities printed in internal units (Hartrees-Bohrs-Radians)
 RMS Force = .73582D-02 SwitMx=.10000D-02 MixMth= 1
 Mixed Optimization -- RFO/linear search
 Second derivative matrix not updated -- first step.
 ITU=  0
     Eigenvalues ---    0.00812   0.00849   0.01677   0.03245   0.06449
     Eigenvalues ---    0.07309   0.07440   0.07563   0.10461   0.11604
     Eigenvalues ---    0.13990   0.16000   0.16000   0.16000   0.16000
     Eigenvalues ---    0.22064   0.23638   0.31993   0.32317   0.32425
     Eigenvalues ---    0.32453   0.32551   0.36165   0.36500   0.40291
     Eigenvalues ---    0.45442   0.48993
 RFO step:  Lambda=-7.69450818D-03 EMin= 8.12393862D-03
 Linear search not attempted -- first point.
 Iteration  1 RMS(Cart)=  0.05400696 RMS(Int)=  0.00165994
 Iteration  2 RMS(Cart)=  0.00188151 RMS(Int)=  0.00072807
 Iteration  3 RMS(Cart)=  0.00000255 RMS(Int)=  0.00072806
 Iteration  4 RMS(Cart)=  0.00000000 RMS(Int)=  0.00072806
 ITry= 1 IFail=0 DXMaxC= 1.97D-01 DCOld= 1.00D+10 DXMaxT= 3.00D-01 DXLimC= 3.00D+00 Rises=F
 Variable       Old X    -DE/DX   Delta X   Delta X   Delta X     New X
                                 (Linear)    (Quad)   (Total)
    R1        2.76607   0.00250   0.00000   0.00671   0.00671   2.77278
    R2        2.10267  -0.00492   0.00000  -0.01488  -0.01488   2.08780
    R3        2.09847  -0.01037   0.00000  -0.03111  -0.03111   2.06737
    R4        2.10023  -0.01069   0.00000  -0.03219  -0.03219   2.06804
    R5        2.77124  -0.00295   0.00000  -0.00798  -0.00798   2.76326
    R6        1.97860  -0.02227   0.00000  -0.05424  -0.05424   1.92435
    R7        2.64766   0.00579   0.00000   0.01254   0.01254   2.66020
    R8        2.10856  -0.00323   0.00000  -0.00984  -0.00984   2.09871
    R9        2.10073  -0.01051   0.00000  -0.03166  -0.03166   2.06907
   R10        1.87595  -0.02749   0.00000  -0.05525  -0.05525   1.82071
    A1        1.93643   0.01107   0.00000   0.06974   0.06937   2.00580
    A2        1.90782   0.00075   0.00000   0.00692   0.00622   1.91404
    A3        1.92608  -0.00345   0.00000  -0.02679  -0.02660   1.89948
    A4        1.89315  -0.00343   0.00000  -0.00823  -0.00934   1.88381
    A5        1.91485  -0.00493   0.00000  -0.03388  -0.03344   1.88140
    A6        1.88445  -0.00029   0.00000  -0.00942  -0.00953   1.87492
    A7        1.92458   0.00712   0.00000   0.03168   0.03156   1.95614
    A8        1.87516  -0.00069   0.00000   0.00896   0.00892   1.88408
    A9        1.88463  -0.00269   0.00000  -0.00907  -0.00940   1.87523
   A10        1.91568   0.01201   0.00000   0.05815   0.05684   1.97252
   A11        1.93451   0.00102   0.00000   0.02856   0.02654   1.96105
   A12        1.91753  -0.00714   0.00000  -0.05657  -0.05588   1.86166
   A13        1.92145  -0.00222   0.00000   0.01854   0.01601   1.93746
   A14        1.88444  -0.00406   0.00000  -0.03326  -0.03235   1.85208
   A15        1.88939   0.00001   0.00000  -0.01861  -0.01837   1.87102
   A16        1.85967   0.00494   0.00000   0.02945   0.02945   1.88912
    D1        1.03641  -0.00165   0.00000  -0.03435  -0.03483   1.00158
    D2       -1.01346  -0.00191   0.00000  -0.04596  -0.04666  -1.06012
    D3        3.12342   0.00145   0.00000   0.00314   0.00363   3.12705
    D4        1.07355   0.00118   0.00000  -0.00848  -0.00821   1.06534
    D5       -1.08979  -0.00052   0.00000  -0.02026  -0.01994  -1.10973
    D6       -3.13966  -0.00078   0.00000  -0.03188  -0.03178   3.11175
    D7        3.08593  -0.00317   0.00000  -0.03628  -0.03730   3.04863
    D8       -1.07104   0.00276   0.00000   0.04485   0.04571  -1.02533
    D9        1.01632  -0.00117   0.00000   0.00340   0.00369   1.02001
   D10       -1.15325  -0.00163   0.00000  -0.01324  -0.01435  -1.16760
   D11        0.97296   0.00431   0.00000   0.06788   0.06866   1.04162
   D12        3.06033   0.00038   0.00000   0.02643   0.02663   3.08696
   D13        1.30203   0.00397   0.00000   0.04780   0.04860   1.35063
   D14       -0.83197  -0.00377   0.00000  -0.03842  -0.03910  -0.87107
   D15       -2.89122  -0.00015   0.00000  -0.00692  -0.00704  -2.89826
         Item               Value     Threshold  Converged?
 Maximum Force            0.027492     0.000450     NO 
 RMS     Force            0.007358     0.000300     NO 
 Maximum Displacement     0.196788     0.001800     NO 
 RMS     Displacement     0.053259     0.001200     NO 
 Predicted change in Energy=-4.066452D-03
 Lowest energy point so far.  Saving SCF results.
 GradGradGradGradGradGradGradGradGradGradGradGradGradGradGradGradGradGrad

 Leave Link  103 at Mon Aug 22 01:42:42 2022, MaxMem=    23592960 cpu:         3.9
 (Enter /public/home/users/caep010/software/Gaussian09/g09/l202.exe)
                          Input orientation:                          
 ---------------------------------------------------------------------
 Center     Atomic      Atomic             Coordinates (Angstroms)
 Number     Number       Type             X           Y           Z
 ---------------------------------------------------------------------
      1          6           0        1.377828   -0.243892    0.499642
      2          7           0        0.218470    0.608831    0.213825
      3          6           0       -0.965011   -0.173342   -0.140804
      4          8           0       -2.118782    0.616769   -0.302663
      5          1           0        1.670387   -0.922540   -0.321614
      6          1           0        2.242237    0.380112    0.745118
      7          1           0        1.156771   -0.857827    1.378185
      8          1           0        0.449022    1.193815   -0.587190
      9          1           0       -0.795261   -0.816954   -1.029828
     10          1           0       -1.167725   -0.837450    0.705769
     11          1           0       -2.068036    1.052378   -1.160541
 ---------------------------------------------------------------------
                    Distance matrix (angstroms):
                    1          2          3          4          5
     1  C    0.000000
     2  N    1.467289   0.000000
     3  C    2.429824   1.462253   0.000000
     4  O    3.689270   2.393652   1.407715   0.000000
     5  H    1.104814   2.177120   2.745781   4.089943   0.000000
     6  H    1.094003   2.104808   3.373072   4.491363   1.778153
     7  H    1.094359   2.094571   2.697741   3.965972   1.776881
     8  H    2.027532   1.018325   2.016897   2.647179   2.457889
     9  H    2.718455   2.146435   1.110592   2.082315   2.567516
    10  H    2.621954   2.062832   1.094905   2.009029   3.019543
    11  H    4.038626   2.704390   1.938793   0.963476   4.310441
                    6          7          8          9         10
     6  H    0.000000
     7  H    1.763946   0.000000
     8  H    2.377557   2.927942   0.000000
     9  H    3.716153   3.100101   2.405694   0.000000
    10  H    3.621029   2.419885   2.900285   1.775232   0.000000
    11  H    4.760455   4.526963   2.585405   2.265269   2.804483
                   11
    11  H    0.000000
 Stoichiometry    C2H7NO
 Framework group  C1[X(C2H7NO)]
 Deg. of freedom    27
 Full point group                 C1      NOp   1
 RotChk:  IX=0 Diff= 6.08D-02
 Largest Abelian subgroup         C1      NOp   1
 Largest concise Abelian subgroup C1      NOp   1
                         Standard orientation:                         
 ---------------------------------------------------------------------
 Center     Atomic      Atomic             Coordinates (Angstroms)
 Number     Number       Type             X           Y           Z
 ---------------------------------------------------------------------
      1          6           0        1.823978    0.098467   -0.005278
      2          7           0        0.497875   -0.513930   -0.144416
      3          6           0       -0.578747    0.445993    0.095620
      4          8           0       -1.857734   -0.088892   -0.148823
      5          1           0        2.019373    0.568053    0.975499
      6          1           0        2.597650   -0.655508   -0.177898
      7          1           0        1.939770    0.868774   -0.773939
      8          1           0        0.415460   -1.246913    0.557672
      9          1           0       -0.523322    0.898508    1.108326
     10          1           0       -0.444519    1.255982   -0.628755
     11          1           0       -2.099052   -0.647014    0.598540
 ---------------------------------------------------------------------
 Rotational constants (GHZ):     30.0495988      3.9889765      3.7577187
 Leave Link  202 at Mon Aug 22 01:42:42 2022, MaxMem=    23592960 cpu:         0.2
 (Enter /public/home/users/caep010/software/Gaussian09/g09/l301.exe)
 Standard basis: GTBas3 (6D, 7F)
 Ernie: Thresh=  0.10000D-02 Tol=  0.10000D-05 Strict=F.
 There are   159 symmetry adapted cartesian basis functions of A   symmetry.
 There are   147 symmetry adapted basis functions of A   symmetry.
   147 basis functions,   225 primitive gaussians,   159 cartesian basis functions
    17 alpha electrons       17 beta electrons
       nuclear repulsion energy       132.3381989333 Hartrees.
 IExCor=  402 DFT=T Ex+Corr=B3LYP ExCW=0 ScaHFX=  0.200000
 ScaDFX=  0.800000  0.720000  1.000000  0.810000 ScalE2=  1.000000  1.000000
 IRadAn=      0 IRanWt=     -1 IRanGd=            0 ICorTp=0 IEmpDi=  4
 NAtoms=   11 NActive=   11 NUniq=   11 SFac= 1.00D+00 NAtFMM=   60 NAOKFM=F Big=F
 Integral buffers will be    131072 words long.
 Raffenetti 2 integral format.
 Two-electron integral symmetry is turned on.
 Leave Link  301 at Mon Aug 22 01:42:42 2022, MaxMem=    23592960 cpu:         1.6
 (Enter /public/home/users/caep010/software/Gaussian09/g09/l302.exe)
 NPDir=0 NMtPBC=     1 NCelOv=     1 NCel=       1 NClECP=     1 NCelD=      1
         NCelK=      1 NCelE2=     1 NClLst=     1 CellRange=     0.0.
 One-electron integrals computed using PRISM.
 PrsmSu:  requested number of processors reduced to:   3 ShMem   1 Linda.
 PrsmSu:  requested number of processors reduced to:  11 ShMem   1 Linda.
 NBasis=   147 RedAO= T EigKep=  4.96D-04  NBF=   147
 NBsUse=   147 1.00D-06 EigRej= -1.00D+00 NBFU=   147
 Precomputing XC quadrature grid using
 IXCGrd= 4 IRadAn=           0 IRanWt=          -1 IRanGd=           0 AccXCQ= 0.00D+00.
 Generated NRdTot=       0 NPtTot=           0 NUsed=           0 NTot=          32
 NSgBfM=   159   159   159   159   159 MxSgAt=    11 MxSgA2=    11.
 Leave Link  302 at Mon Aug 22 01:42:43 2022, MaxMem=    23592960 cpu:         3.9
 (Enter /public/home/users/caep010/software/Gaussian09/g09/l303.exe)
 DipDrv:  MaxL=1.
 Leave Link  303 at Mon Aug 22 01:42:43 2022, MaxMem=    23592960 cpu:         0.6
 (Enter /public/home/users/caep010/software/Gaussian09/g09/l401.exe)
 Initial guess from the checkpoint file:  "G4.Frag_704.chk"
 B after Tr=     0.000000   -0.000000    0.000000
         Rot=    0.999816    0.019186   -0.000636    0.000326 Ang=   2.20 deg.
 Guess basis will be translated and rotated to current coordinates.
 JPrj=2 DoOrth=T DoCkMO=T.
 Generating alternative initial guess.
 ExpMin= 1.61D-01 ExpMax= 5.48D+03 ExpMxC= 8.25D+02 IAcc=1 IRadAn=         1 AccDes= 0.00D+00
 Harris functional with IExCor=  402 and IRadAn=       1 diagonalized for initial guess.
 HarFok:  IExCor=  402 AccDes= 0.00D+00 IRadAn=         1 IDoV= 1 UseB2=F ITyADJ=14
 ICtDFT=  3500011 ScaDFX=  1.000000  1.000000  1.000000  1.000000
 CalDSu:  requested number of processors reduced to:  22 ShMem   1 Linda.
 FoFCou: FMM=F IPFlag=           0 FMFlag=      100000 FMFlg1=           0
         NFxFlg=           0 DoJE=T BraDBF=F KetDBF=T FulRan=T
         wScrn=  0.000000 ICntrl=     500 IOpCl=  0 I1Cent=   200000004 NGrid=           0
         NMat0=    1 NMatS0=      1 NMatT0=    0 NMatD0=    1 NMtDS0=    0 NMtDT0=    0
 Petite list used in FoFCou.
 CoulSu:  requested number of processors reduced to:  11 ShMem   1 Linda.
 CoulSu:  requested number of processors reduced to:  11 ShMem   1 Linda.
 CoulSu:  requested number of processors reduced to:  12 ShMem   1 Linda.
 CoulSu:  requested number of processors reduced to:  12 ShMem   1 Linda.
 Harris En= -210.418339855565    
 Leave Link  401 at Mon Aug 22 01:42:43 2022, MaxMem=    23592960 cpu:         5.9
 (Enter /public/home/users/caep010/software/Gaussian09/g09/l502.exe)
 Closed shell SCF:
 Using DIIS extrapolation, IDIIS=  1040.
 Integral symmetry usage will be decided dynamically.
 IVT=      100649 IEndB=      100649 NGot=    23592960 MDV=    23534392
 LenX=    23534392 LenY=    23508670
 Requested convergence on RMS density matrix=1.00D-08 within 128 cycles.
 Requested convergence on MAX density matrix=1.00D-06.
 Requested convergence on             energy=1.00D-06.
 No special actions if energy rises.
 Fock matrices will be formed incrementally for  20 cycles.
 Integral accuracy reduced to 1.0D-05 until final iterations.

 Cycle   1  Pass 0  IDiag  1:
 FoFJK:  IHMeth= 1 ICntrl=       0 DoSepK=F KAlg= 0 I1Cent=   0 FoldK=F
 IRaf= 980000000 NMat=   1 IRICut=       1 DoRegI=T DoRafI=F ISym2E= 0.
 FoFCou: FMM=F IPFlag=           0 FMFlag=      100000 FMFlg1=           0
         NFxFlg=           0 DoJE=F BraDBF=F KetDBF=F FulRan=T
         wScrn=  0.000000 ICntrl=       0 IOpCl=  0 I1Cent=           0 NGrid=           0
         NMat0=    1 NMatS0=      1 NMatT0=    0 NMatD0=    1 NMtDS0=    0 NMtDT0=    0
 Symmetry not used in FoFCou.
 CoulSu:  requested number of processors reduced to:  11 ShMem   1 Linda.
 CalDSu:  requested number of processors reduced to:  22 ShMem   1 Linda.
 E= -210.391760262051    
 DIIS: error= 2.10D-03 at cycle   1 NSaved=   1.
 NSaved= 1 IEnMin= 1 EnMin= -210.391760262051     IErMin= 1 ErrMin= 2.10D-03
 ErrMax= 2.10D-03  0.00D+00 EMaxC= 1.00D-01 BMatC= 2.09D-03 BMatP= 2.09D-03
 IDIUse=3 WtCom= 9.79D-01 WtEn= 2.10D-02
 Coeff-Com:  0.100D+01
 Coeff-En:   0.100D+01
 Coeff:      0.100D+01
 Gap=     1.095 Goal=   None    Shift=    0.000
 GapD=    1.095 DampG=2.000 DampE=1.000 DampFc=2.0000 IDamp=-1.
 RMSDP=4.79D-04 MaxDP=1.25D-02              OVMax= 1.39D-02

 Cycle   2  Pass 0  IDiag  1:
 RMSU=  4.79D-04    CP:  9.99D-01
 CoulSu:  requested number of processors reduced to:  11 ShMem   1 Linda.
 CalDSu:  requested number of processors reduced to:  22 ShMem   1 Linda.
 E= -210.394134258258     Delta-E=       -0.002373996208 Rises=F Damp=F
 DIIS: error= 6.18D-04 at cycle   2 NSaved=   2.
 NSaved= 2 IEnMin= 2 EnMin= -210.394134258258     IErMin= 2 ErrMin= 6.18D-04
 ErrMax= 6.18D-04  0.00D+00 EMaxC= 1.00D-01 BMatC= 1.12D-04 BMatP= 2.09D-03
 IDIUse=3 WtCom= 9.94D-01 WtEn= 6.18D-03
 Coeff-Com:  0.508D-01 0.949D+00
 Coeff-En:   0.000D+00 0.100D+01
 Coeff:      0.505D-01 0.949D+00
 Gap=     0.293 Goal=   None    Shift=    0.000
 RMSDP=1.49D-04 MaxDP=3.81D-03 DE=-2.37D-03 OVMax= 5.08D-03

 Cycle   3  Pass 0  IDiag  1:
 RMSU=  1.49D-04    CP:  9.99D-01  1.00D+00
 CoulSu:  requested number of processors reduced to:  11 ShMem   1 Linda.
 CalDSu:  requested number of processors reduced to:  22 ShMem   1 Linda.
 E= -210.394133025596     Delta-E=        0.000001232663 Rises=F Damp=F
 DIIS: error= 6.04D-04 at cycle   3 NSaved=   3.
 NSaved= 3 IEnMin= 2 EnMin= -210.394134258258     IErMin= 3 ErrMin= 6.04D-04
 ErrMax= 6.04D-04  0.00D+00 EMaxC= 1.00D-01 BMatC= 1.28D-04 BMatP= 1.12D-04
 IDIUse=3 WtCom= 2.89D-01 WtEn= 7.11D-01
 Coeff-Com: -0.160D-01 0.523D+00 0.493D+00
 Coeff-En:   0.000D+00 0.503D+00 0.497D+00
 Coeff:     -0.464D-02 0.509D+00 0.496D+00
 Gap=     0.295 Goal=   None    Shift=    0.000
 RMSDP=8.08D-05 MaxDP=2.60D-03 DE= 1.23D-06 OVMax= 2.93D-03

 Cycle   4  Pass 0  IDiag  1:
 RMSU=  2.31D-05    CP:  9.99D-01  1.05D+00  4.99D-01
 CoulSu:  requested number of processors reduced to:  11 ShMem   1 Linda.
 CalDSu:  requested number of processors reduced to:  22 ShMem   1 Linda.
 E= -210.394243477485     Delta-E=       -0.000110451890 Rises=F Damp=F
 DIIS: error= 9.19D-05 at cycle   4 NSaved=   4.
 NSaved= 4 IEnMin= 4 EnMin= -210.394243477485     IErMin= 4 ErrMin= 9.19D-05
 ErrMax= 9.19D-05  0.00D+00 EMaxC= 1.00D-01 BMatC= 2.84D-06 BMatP= 1.12D-04
 IDIUse=1 WtCom= 1.00D+00 WtEn= 0.00D+00
 Coeff-Com: -0.912D-02 0.125D+00 0.189D+00 0.695D+00
 Coeff:     -0.912D-02 0.125D+00 0.189D+00 0.695D+00
 Gap=     0.295 Goal=   None    Shift=    0.000
 RMSDP=1.20D-05 MaxDP=3.57D-04 DE=-1.10D-04 OVMax= 4.36D-04

 Cycle   5  Pass 0  IDiag  1:
 RMSU=  7.87D-06    CP:  9.99D-01  1.05D+00  5.40D-01  7.19D-01
 CoulSu:  requested number of processors reduced to:  11 ShMem   1 Linda.
 CalDSu:  requested number of processors reduced to:  22 ShMem   1 Linda.
 E= -210.394245489195     Delta-E=       -0.000002011709 Rises=F Damp=F
 DIIS: error= 4.16D-05 at cycle   5 NSaved=   5.
 NSaved= 5 IEnMin= 5 EnMin= -210.394245489195     IErMin= 5 ErrMin= 4.16D-05
 ErrMax= 4.16D-05  0.00D+00 EMaxC= 1.00D-01 BMatC= 3.90D-07 BMatP= 2.84D-06
 IDIUse=1 WtCom= 1.00D+00 WtEn= 0.00D+00
 Coeff-Com: -0.379D-02 0.267D-01 0.613D-01 0.355D+00 0.561D+00
 Coeff:     -0.379D-02 0.267D-01 0.613D-01 0.355D+00 0.561D+00
 Gap=     0.295 Goal=   None    Shift=    0.000
 RMSDP=3.59D-06 MaxDP=1.13D-04 DE=-2.01D-06 OVMax= 1.28D-04

 Initial convergence to 1.0D-05 achieved.  Increase integral accuracy.
 Cycle   6  Pass 1  IDiag  1:
 CoulSu:  requested number of processors reduced to:  11 ShMem   1 Linda.
 CalDSu:  requested number of processors reduced to:  22 ShMem   1 Linda.
 E= -210.394238269970     Delta-E=        0.000007219225 Rises=F Damp=F
 DIIS: error= 1.25D-05 at cycle   1 NSaved=   1.
 NSaved= 1 IEnMin= 1 EnMin= -210.394238269970     IErMin= 1 ErrMin= 1.25D-05
 ErrMax= 1.25D-05  0.00D+00 EMaxC= 1.00D-01 BMatC= 3.88D-08 BMatP= 3.88D-08
 IDIUse=1 WtCom= 1.00D+00 WtEn= 0.00D+00
 Coeff-Com:  0.100D+01
 Coeff:      0.100D+01
 Gap=     0.295 Goal=   None    Shift=    0.000
 RMSDP=3.59D-06 MaxDP=1.13D-04 DE= 7.22D-06 OVMax= 4.71D-05

 Cycle   7  Pass 1  IDiag  1:
 RMSU=  2.94D-06    CP:  1.00D+00
 CoulSu:  requested number of processors reduced to:  11 ShMem   1 Linda.
 CalDSu:  requested number of processors reduced to:  22 ShMem   1 Linda.
 E= -210.394238296076     Delta-E=       -0.000000026106 Rises=F Damp=F
 DIIS: error= 6.64D-06 at cycle   2 NSaved=   2.
 NSaved= 2 IEnMin= 2 EnMin= -210.394238296076     IErMin= 2 ErrMin= 6.64D-06
 ErrMax= 6.64D-06  0.00D+00 EMaxC= 1.00D-01 BMatC= 8.25D-09 BMatP= 3.88D-08
 IDIUse=1 WtCom= 1.00D+00 WtEn= 0.00D+00
 Coeff-Com:  0.240D+00 0.760D+00
 Coeff:      0.240D+00 0.760D+00
 Gap=     0.295 Goal=   None    Shift=    0.000
 RMSDP=8.35D-07 MaxDP=2.61D-05 DE=-2.61D-08 OVMax= 2.87D-05

 Cycle   8  Pass 1  IDiag  1:
 RMSU=  8.32D-07    CP:  1.00D+00  9.78D-01
 CoulSu:  requested number of processors reduced to:  11 ShMem   1 Linda.
 CalDSu:  requested number of processors reduced to:  22 ShMem   1 Linda.
 E= -210.394238299630     Delta-E=       -0.000000003554 Rises=F Damp=F
 DIIS: error= 4.62D-06 at cycle   3 NSaved=   3.
 NSaved= 3 IEnMin= 3 EnMin= -210.394238299630     IErMin= 3 ErrMin= 4.62D-06
 ErrMax= 4.62D-06  0.00D+00 EMaxC= 1.00D-01 BMatC= 4.33D-09 BMatP= 8.25D-09
 IDIUse=1 WtCom= 1.00D+00 WtEn= 0.00D+00
 Coeff-Com: -0.102D-01 0.418D+00 0.592D+00
 Coeff:     -0.102D-01 0.418D+00 0.592D+00
 Gap=     0.295 Goal=   None    Shift=    0.000
 RMSDP=3.72D-07 MaxDP=1.20D-05 DE=-3.55D-09 OVMax= 1.25D-05

 Cycle   9  Pass 1  IDiag  1:
 RMSU=  1.38D-07    CP:  1.00D+00  1.01D+00  6.02D-01
 CoulSu:  requested number of processors reduced to:  11 ShMem   1 Linda.
 CalDSu:  requested number of processors reduced to:  22 ShMem   1 Linda.
 E= -210.394238303197     Delta-E=       -0.000000003568 Rises=F Damp=F
 DIIS: error= 5.56D-07 at cycle   4 NSaved=   4.
 NSaved= 4 IEnMin= 4 EnMin= -210.394238303197     IErMin= 4 ErrMin= 5.56D-07
 ErrMax= 5.56D-07  0.00D+00 EMaxC= 1.00D-01 BMatC= 1.14D-10 BMatP= 4.33D-09
 IDIUse=1 WtCom= 1.00D+00 WtEn= 0.00D+00
 Coeff-Com: -0.105D-01 0.192D+00 0.299D+00 0.520D+00
 Coeff:     -0.105D-01 0.192D+00 0.299D+00 0.520D+00
 Gap=     0.295 Goal=   None    Shift=    0.000
 RMSDP=8.45D-08 MaxDP=2.55D-06 DE=-3.57D-09 OVMax= 2.98D-06

 Cycle  10  Pass 1  IDiag  1:
 RMSU=  4.69D-08    CP:  1.00D+00  1.01D+00  6.20D-01  5.00D-01
 CoulSu:  requested number of processors reduced to:  11 ShMem   1 Linda.
 CalDSu:  requested number of processors reduced to:  22 ShMem   1 Linda.
 E= -210.394238303297     Delta-E=       -0.000000000099 Rises=F Damp=F
 DIIS: error= 1.53D-07 at cycle   5 NSaved=   5.
 NSaved= 5 IEnMin= 5 EnMin= -210.394238303297     IErMin= 5 ErrMin= 1.53D-07
 ErrMax= 1.53D-07  0.00D+00 EMaxC= 1.00D-01 BMatC= 6.36D-12 BMatP= 1.14D-10
 IDIUse=1 WtCom= 1.00D+00 WtEn= 0.00D+00
 Coeff-Com: -0.349D-02 0.468D-01 0.782D-01 0.238D+00 0.641D+00
 Coeff:     -0.349D-02 0.468D-01 0.782D-01 0.238D+00 0.641D+00
 Gap=     0.295 Goal=   None    Shift=    0.000
 RMSDP=1.78D-08 MaxDP=4.34D-07 DE=-9.93D-11 OVMax= 5.09D-07

 Cycle  11  Pass 1  IDiag  1:
 RMSU=  1.06D-08    CP:  1.00D+00  1.01D+00  6.21D-01  5.74D-01  7.89D-01
 CoulSu:  requested number of processors reduced to:  11 ShMem   1 Linda.
 CalDSu:  requested number of processors reduced to:  22 ShMem   1 Linda.
 E= -210.394238303300     Delta-E=       -0.000000000003 Rises=F Damp=F
 DIIS: error= 3.05D-08 at cycle   6 NSaved=   6.
 NSaved= 6 IEnMin= 6 EnMin= -210.394238303300     IErMin= 6 ErrMin= 3.05D-08
 ErrMax= 3.05D-08  0.00D+00 EMaxC= 1.00D-01 BMatC= 2.69D-13 BMatP= 6.36D-12
 IDIUse=1 WtCom= 1.00D+00 WtEn= 0.00D+00
 Coeff-Com: -0.726D-03 0.691D-02 0.127D-01 0.629D-01 0.243D+00 0.675D+00
 Coeff:     -0.726D-03 0.691D-02 0.127D-01 0.629D-01 0.243D+00 0.675D+00
 Gap=     0.295 Goal=   None    Shift=    0.000
 RMSDP=4.09D-09 MaxDP=1.22D-07 DE=-3.47D-12 OVMax= 1.39D-07

 SCF Done:  E(RB3LYP) =  -210.394238303     A.U. after   11 cycles
            NFock= 11  Conv=0.41D-08     -V/T= 2.0072
 KE= 2.088802425444D+02 PE=-7.562661193344D+02 EE= 2.046534395535D+02
 Leave Link  502 at Mon Aug 22 01:42:46 2022, MaxMem=    23592960 cpu:        52.7
 (Enter /public/home/users/caep010/software/Gaussian09/g09/l701.exe)
 Compute integral first derivatives.
 ... and contract with generalized density number  0.
 PrsmSu:  requested number of processors reduced to:   3 ShMem   1 Linda.
 PrsmSu:  requested number of processors reduced to:   6 ShMem   1 Linda.
 Leave Link  701 at Mon Aug 22 01:42:46 2022, MaxMem=    23592960 cpu:         2.4
 (Enter /public/home/users/caep010/software/Gaussian09/g09/l702.exe)
 L702 exits ... SP integral derivatives will be done elsewhere.
 Leave Link  702 at Mon Aug 22 01:42:47 2022, MaxMem=    23592960 cpu:         0.5
 (Enter /public/home/users/caep010/software/Gaussian09/g09/l703.exe)
 Compute integral first derivatives, UseDBF=F ICtDFT=           0.
 Integral derivatives from FoFJK, PRISM(SPDF).
 Calling FoFJK, ICntrl=      2127 FMM=F ISym2X=0 I1Cent= 0 IOpClX= 0 NMat=1 NMatS=1 NMatT=0.
 FoFJK:  IHMeth= 1 ICntrl=    2127 DoSepK=F KAlg= 0 I1Cent=   0 FoldK=F
 IRaf=         0 NMat=   1 IRICut=       1 DoRegI=T DoRafI=F ISym2E= 0.
 FoFCou: FMM=F IPFlag=           0 FMFlag=      100000 FMFlg1=         800
         NFxFlg=           0 DoJE=F BraDBF=F KetDBF=F FulRan=T
         wScrn=  0.000000 ICntrl=    2127 IOpCl=  0 I1Cent=           0 NGrid=           0
         NMat0=    1 NMatS0=      1 NMatT0=    0 NMatD0=    1 NMtDS0=    0 NMtDT0=    0
 Symmetry not used in FoFCou.
 CoulSu:  requested number of processors reduced to:   6 ShMem   1 Linda.
 CalDSu:  requested number of processors reduced to:  19 ShMem   1 Linda.
 Leave Link  703 at Mon Aug 22 01:42:48 2022, MaxMem=    23592960 cpu:        11.3
 (Enter /public/home/users/caep010/software/Gaussian09/g09/l716.exe)
 Dipole        = 3.43121755D-01-8.15617574D-02 8.54235434D-01
 ***** Axes restored to original set *****
 -------------------------------------------------------------------
 Center     Atomic                   Forces (Hartrees/Bohr)
 Number     Number              X              Y              Z
 -------------------------------------------------------------------
      1        6          -0.002692881    0.002064343    0.000758625
      2        7           0.000618924   -0.001497317   -0.005701298
      3        6           0.001283532   -0.001812362    0.003822380
      4        8           0.003789025    0.000398503   -0.001955926
      5        1          -0.000948920   -0.000120056    0.000066369
      6        1          -0.000738264    0.000498208   -0.000514290
      7        1           0.000117947   -0.001007040    0.000434962
      8        1           0.000442559    0.001835945    0.001719261
      9        1          -0.000773272    0.001152813   -0.000152954
     10        1          -0.000768860   -0.001175815    0.000242918
     11        1          -0.000329790   -0.000337222    0.001279953
 -------------------------------------------------------------------
 Cartesian Forces:  Max     0.005701298 RMS     0.001746536
 Leave Link  716 at Mon Aug 22 01:42:48 2022, MaxMem=    23592960 cpu:         0.6
 (Enter /public/home/users/caep010/software/Gaussian09/g09/l103.exe)

 GradGradGradGradGradGradGradGradGradGradGradGradGradGradGradGradGradGrad
 Berny optimization.
 Using GEDIIS/GDIIS optimizer.
 FormGI is forming the generalized inverse of G from B-inverse, IUseBI=4.
 Internal  Forces:  Max     0.004054252 RMS     0.001402533
 Search for a local minimum.
 Step number   2 out of a maximum of   51
 All quantities printed in internal units (Hartrees-Bohrs-Radians)
 RMS Force = .14025D-02 SwitMx=.10000D-02 MixMth= 1
 Mixed Optimization -- RFO/linear search
 Update second derivatives using D2CorX and points    1    2
 DE= -3.51D-03 DEPred=-4.07D-03 R= 8.64D-01
 TightC=F SS=  1.41D+00  RLast= 2.12D-01 DXNew= 5.0454D-01 6.3718D-01
 Trust test= 8.64D-01 RLast= 2.12D-01 DXMaxT set to 5.05D-01
 ITU=  1  0
 Use linear search instead of GDIIS.
     Eigenvalues ---    0.00814   0.00848   0.01678   0.03021   0.06429
     Eigenvalues ---    0.06941   0.07571   0.07694   0.10792   0.11948
     Eigenvalues ---    0.14264   0.15729   0.16000   0.16000   0.16373
     Eigenvalues ---    0.22942   0.24747   0.31660   0.32169   0.32386
     Eigenvalues ---    0.32440   0.32675   0.35973   0.36764   0.40074
     Eigenvalues ---    0.45891   0.47738
 RFO step:  Lambda=-4.00303309D-04 EMin= 8.14331160D-03
 Quartic linear search produced a step of -0.08104.
 Iteration  1 RMS(Cart)=  0.01384761 RMS(Int)=  0.00014620
 Iteration  2 RMS(Cart)=  0.00016255 RMS(Int)=  0.00005815
 Iteration  3 RMS(Cart)=  0.00000001 RMS(Int)=  0.00005815
 ITry= 1 IFail=0 DXMaxC= 3.03D-02 DCOld= 1.00D+10 DXMaxT= 5.05D-01 DXLimC= 3.00D+00 Rises=F
 Variable       Old X    -DE/DX   Delta X   Delta X   Delta X     New X
                                 (Linear)    (Quad)   (Total)
    R1        2.77278  -0.00405  -0.00054  -0.00928  -0.00982   2.76295
    R2        2.08780  -0.00023   0.00121  -0.00266  -0.00146   2.08634
    R3        2.06737  -0.00042   0.00252  -0.00538  -0.00286   2.06450
    R4        2.06804   0.00089   0.00261  -0.00183   0.00078   2.06881
    R5        2.76326  -0.00243   0.00065  -0.00724  -0.00660   2.75666
    R6        1.92435  -0.00020   0.00440  -0.00777  -0.00338   1.92098
    R7        2.66020  -0.00272  -0.00102  -0.00381  -0.00482   2.65537
    R8        2.09871  -0.00066   0.00080  -0.00323  -0.00244   2.09628
    R9        2.06907   0.00104   0.00257  -0.00135   0.00122   2.07029
   R10        1.82071  -0.00130   0.00448  -0.00988  -0.00541   1.81530
    A1        2.00580  -0.00097  -0.00562   0.00285  -0.00275   2.00306
    A2        1.91404  -0.00106  -0.00050  -0.00464  -0.00509   1.90894
    A3        1.89948   0.00107   0.00216   0.00286   0.00500   1.90449
    A4        1.88381   0.00093   0.00076   0.00303   0.00387   1.88769
    A5        1.88140  -0.00032   0.00271  -0.00761  -0.00493   1.87647
    A6        1.87492   0.00046   0.00077   0.00361   0.00439   1.87931
    A7        1.95614  -0.00246  -0.00256  -0.00003  -0.00269   1.95345
    A8        1.88408   0.00084  -0.00072   0.01644   0.01553   1.89961
    A9        1.87523   0.00182   0.00076   0.02214   0.02277   1.89800
   A10        1.97252  -0.00388  -0.00461  -0.01019  -0.01474   1.95778
   A11        1.96105   0.00110  -0.00215   0.00436   0.00223   1.96327
   A12        1.86166   0.00213   0.00453   0.00954   0.01402   1.87567
   A13        1.93746   0.00020  -0.00130  -0.00738  -0.00856   1.92890
   A14        1.85208   0.00104   0.00262   0.00349   0.00611   1.85819
   A15        1.87102  -0.00031   0.00149   0.00164   0.00307   1.87408
   A16        1.88912   0.00065  -0.00239   0.00778   0.00540   1.89451
    D1        1.00158   0.00048   0.00282  -0.00777  -0.00490   0.99669
    D2       -1.06012  -0.00084   0.00378  -0.04533  -0.04151  -1.10163
    D3        3.12705   0.00019  -0.00029  -0.00535  -0.00566   3.12139
    D4        1.06534  -0.00113   0.00067  -0.04290  -0.04227   1.02307
    D5       -1.10973   0.00076   0.00162  -0.00199  -0.00038  -1.11011
    D6        3.11175  -0.00057   0.00258  -0.03954  -0.03700   3.07475
    D7        3.04863   0.00045   0.00302  -0.00824  -0.00521   3.04342
    D8       -1.02533  -0.00157  -0.00370  -0.02312  -0.02694  -1.05228
    D9        1.02001  -0.00003  -0.00030  -0.01287  -0.01318   1.00682
   D10       -1.16760   0.00120   0.00116   0.02584   0.02710  -1.14051
   D11        1.04162  -0.00082  -0.00556   0.01096   0.00536   1.04698
   D12        3.08696   0.00072  -0.00216   0.02121   0.01912   3.10608
   D13        1.35063  -0.00095  -0.00394  -0.00926  -0.01318   1.33744
   D14       -0.87107   0.00053   0.00317  -0.00084   0.00230  -0.86877
   D15       -2.89826   0.00020   0.00057  -0.00100  -0.00041  -2.89867
         Item               Value     Threshold  Converged?
 Maximum Force            0.004054     0.000450     NO 
 RMS     Force            0.001403     0.000300     NO 
 Maximum Displacement     0.030258     0.001800     NO 
 RMS     Displacement     0.013880     0.001200     NO 
 Predicted change in Energy=-2.307263D-04
 Lowest energy point so far.  Saving SCF results.
 GradGradGradGradGradGradGradGradGradGradGradGradGradGradGradGradGradGrad

 Leave Link  103 at Mon Aug 22 01:42:48 2022, MaxMem=    23592960 cpu:         1.8
 (Enter /public/home/users/caep010/software/Gaussian09/g09/l202.exe)
                          Input orientation:                          
 ---------------------------------------------------------------------
 Center     Atomic      Atomic             Coordinates (Angstroms)
 Number     Number       Type             X           Y           Z
 ---------------------------------------------------------------------
      1          6           0        1.372489   -0.242490    0.499330
      2          7           0        0.217682    0.604215    0.203992
      3          6           0       -0.961263   -0.183108   -0.139807
      4          8           0       -2.104925    0.617234   -0.300973
      5          1           0        1.659329   -0.933210   -0.312790
      6          1           0        2.234366    0.387804    0.730472
      7          1           0        1.156067   -0.847729    1.385539
      8          1           0        0.446367    1.209481   -0.580039
      9          1           0       -0.801318   -0.817572   -1.035590
     10          1           0       -1.166870   -0.852464    0.702760
     11          1           0       -2.052024    1.057738   -1.152994
 ---------------------------------------------------------------------
                    Distance matrix (angstroms):
                    1          2          3          4          5
     1  C    0.000000
     2  N    1.462092   0.000000
     3  C    2.420418   1.458762   0.000000
     4  O    3.670425   2.376902   1.405163   0.000000
     5  H    1.104043   2.170043   2.731315   4.071072   0.000000
     6  H    1.092487   2.095478   3.360859   4.466091   1.778804
     7  H    1.094770   2.093983   2.692860   3.952786   1.773388
     8  H    2.032476   1.016537   2.028430   2.633956   2.476656
     9  H    2.722524   2.143922   1.109303   2.073095   2.567216
    10  H    2.619503   2.070669   1.095551   2.011825   3.004208
    11  H    4.018464   2.683031   1.938041   0.960615   4.294643
                    6          7          8          9         10
     6  H    0.000000
     7  H    1.765895   0.000000
     8  H    2.364219   2.932454   0.000000
     9  H    3.713123   3.113540   2.423466   0.000000
    10  H    3.620420   2.421208   2.915429   1.776712   0.000000
    11  H    4.729629   4.512960   2.567734   2.257175   2.806456
                   11
    11  H    0.000000
 Stoichiometry    C2H7NO
 Framework group  C1[X(C2H7NO)]
 Deg. of freedom    27
 Full point group                 C1      NOp   1
 RotChk:  IX=0 Diff= 5.13D-03
 Largest Abelian subgroup         C1      NOp   1
 Largest concise Abelian subgroup C1      NOp   1
                         Standard orientation:                         
 ---------------------------------------------------------------------
 Center     Atomic      Atomic             Coordinates (Angstroms)
 Number     Number       Type             X           Y           Z
 ---------------------------------------------------------------------
      1          6           0        1.816223    0.096334   -0.007533
      2          7           0        0.492948   -0.511627   -0.138066
      3          6           0       -0.575430    0.453497    0.096645
      4          8           0       -1.846573   -0.091932   -0.150713
      5          1           0        2.010429    0.576592    0.967427
      6          1           0        2.582550   -0.665023   -0.170646
      7          1           0        1.937392    0.861101   -0.781465
      8          1           0        0.408806   -1.263659    0.540695
      9          1           0       -0.532811    0.894668    1.113555
     10          1           0       -0.443414    1.271105   -0.620518
     11          1           0       -2.085759   -0.656928    0.588443
 ---------------------------------------------------------------------
 Rotational constants (GHZ):     29.8717544      4.0313336      3.7899485
 Leave Link  202 at Mon Aug 22 01:42:48 2022, MaxMem=    23592960 cpu:         0.7
 (Enter /public/home/users/caep010/software/Gaussian09/g09/l301.exe)
 Standard basis: GTBas3 (6D, 7F)
 Ernie: Thresh=  0.10000D-02 Tol=  0.10000D-05 Strict=F.
 There are   159 symmetry adapted cartesian basis functions of A   symmetry.
 There are   147 symmetry adapted basis functions of A   symmetry.
   147 basis functions,   225 primitive gaussians,   159 cartesian basis functions
    17 alpha electrons       17 beta electrons
       nuclear repulsion energy       132.6915552873 Hartrees.
 IExCor=  402 DFT=T Ex+Corr=B3LYP ExCW=0 ScaHFX=  0.200000
 ScaDFX=  0.800000  0.720000  1.000000  0.810000 ScalE2=  1.000000  1.000000
 IRadAn=      0 IRanWt=     -1 IRanGd=            0 ICorTp=0 IEmpDi=  4
 NAtoms=   11 NActive=   11 NUniq=   11 SFac= 1.00D+00 NAtFMM=   60 NAOKFM=F Big=F
 Integral buffers will be    131072 words long.
 Raffenetti 2 integral format.
 Two-electron integral symmetry is turned on.
 Leave Link  301 at Mon Aug 22 01:42:48 2022, MaxMem=    23592960 cpu:         1.6
 (Enter /public/home/users/caep010/software/Gaussian09/g09/l302.exe)
 NPDir=0 NMtPBC=     1 NCelOv=     1 NCel=       1 NClECP=     1 NCelD=      1
         NCelK=      1 NCelE2=     1 NClLst=     1 CellRange=     0.0.
 One-electron integrals computed using PRISM.
 PrsmSu:  requested number of processors reduced to:   3 ShMem   1 Linda.
 PrsmSu:  requested number of processors reduced to:  11 ShMem   1 Linda.
 NBasis=   147 RedAO= T EigKep=  4.91D-04  NBF=   147
 NBsUse=   147 1.00D-06 EigRej= -1.00D+00 NBFU=   147
 Precomputing XC quadrature grid using
 IXCGrd= 4 IRadAn=           0 IRanWt=          -1 IRanGd=           0 AccXCQ= 0.00D+00.
 Generated NRdTot=       0 NPtTot=           0 NUsed=           0 NTot=          32
 NSgBfM=   159   159   159   159   159 MxSgAt=    11 MxSgA2=    11.
 Leave Link  302 at Mon Aug 22 01:42:49 2022, MaxMem=    23592960 cpu:         3.6
 (Enter /public/home/users/caep010/software/Gaussian09/g09/l303.exe)
 DipDrv:  MaxL=1.
 Leave Link  303 at Mon Aug 22 01:42:49 2022, MaxMem=    23592960 cpu:         0.6
 (Enter /public/home/users/caep010/software/Gaussian09/g09/l401.exe)
 Initial guess from the checkpoint file:  "G4.Frag_704.chk"
 B after Tr=    -0.000000   -0.000000   -0.000000
         Rot=    1.000000   -0.000533    0.000234    0.000118 Ang=  -0.07 deg.
 Guess basis will be translated and rotated to current coordinates.
 JPrj=2 DoOrth=T DoCkMO=T.
 Generating alternative initial guess.
 ExpMin= 1.61D-01 ExpMax= 5.48D+03 ExpMxC= 8.25D+02 IAcc=1 IRadAn=         1 AccDes= 0.00D+00
 Harris functional with IExCor=  402 and IRadAn=       1 diagonalized for initial guess.
 HarFok:  IExCor=  402 AccDes= 0.00D+00 IRadAn=         1 IDoV= 1 UseB2=F ITyADJ=14
 ICtDFT=  3500011 ScaDFX=  1.000000  1.000000  1.000000  1.000000
 CalDSu:  requested number of processors reduced to:  22 ShMem   1 Linda.
 FoFCou: FMM=F IPFlag=           0 FMFlag=      100000 FMFlg1=           0
         NFxFlg=           0 DoJE=T BraDBF=F KetDBF=T FulRan=T
         wScrn=  0.000000 ICntrl=     500 IOpCl=  0 I1Cent=   200000004 NGrid=           0
         NMat0=    1 NMatS0=      1 NMatT0=    0 NMatD0=    1 NMtDS0=    0 NMtDT0=    0
 Petite list used in FoFCou.
 CoulSu:  requested number of processors reduced to:  11 ShMem   1 Linda.
 CoulSu:  requested number of processors reduced to:  11 ShMem   1 Linda.
 CoulSu:  requested number of processors reduced to:  12 ShMem   1 Linda.
 CoulSu:  requested number of processors reduced to:  12 ShMem   1 Linda.
 Harris En= -210.419403022482    
 Leave Link  401 at Mon Aug 22 01:42:49 2022, MaxMem=    23592960 cpu:         6.0
 (Enter /public/home/users/caep010/software/Gaussian09/g09/l502.exe)
 Closed shell SCF:
 Using DIIS extrapolation, IDIIS=  1040.
 Integral symmetry usage will be decided dynamically.
 IVT=      100649 IEndB=      100649 NGot=    23592960 MDV=    23534392
 LenX=    23534392 LenY=    23508670
 Requested convergence on RMS density matrix=1.00D-08 within 128 cycles.
 Requested convergence on MAX density matrix=1.00D-06.
 Requested convergence on             energy=1.00D-06.
 No special actions if energy rises.
 Fock matrices will be formed incrementally for  20 cycles.
 Integral accuracy reduced to 1.0D-05 until final iterations.

 Cycle   1  Pass 0  IDiag  1:
 FoFJK:  IHMeth= 1 ICntrl=       0 DoSepK=F KAlg= 0 I1Cent=   0 FoldK=F
 IRaf= 980000000 NMat=   1 IRICut=       1 DoRegI=T DoRafI=F ISym2E= 0.
 FoFCou: FMM=F IPFlag=           0 FMFlag=      100000 FMFlg1=           0
         NFxFlg=           0 DoJE=F BraDBF=F KetDBF=F FulRan=T
         wScrn=  0.000000 ICntrl=       0 IOpCl=  0 I1Cent=           0 NGrid=           0
         NMat0=    1 NMatS0=      1 NMatT0=    0 NMatD0=    1 NMtDS0=    0 NMtDT0=    0
 Symmetry not used in FoFCou.
 CoulSu:  requested number of processors reduced to:  11 ShMem   1 Linda.
 CalDSu:  requested number of processors reduced to:  22 ShMem   1 Linda.
 E= -210.394286873928    
 DIIS: error= 6.73D-04 at cycle   1 NSaved=   1.
 NSaved= 1 IEnMin= 1 EnMin= -210.394286873928     IErMin= 1 ErrMin= 6.73D-04
 ErrMax= 6.73D-04  0.00D+00 EMaxC= 1.00D-01 BMatC= 1.64D-04 BMatP= 1.64D-04
 IDIUse=3 WtCom= 9.93D-01 WtEn= 6.73D-03
 Coeff-Com:  0.100D+01
 Coeff-En:   0.100D+01
 Coeff:      0.100D+01
 Gap=     1.086 Goal=   None    Shift=    0.000
 RMSDP=1.55D-04 MaxDP=5.28D-03              OVMax= 5.43D-03

 Cycle   2  Pass 0  IDiag  1:
 RMSU=  1.55D-04    CP:  9.99D-01
 CoulSu:  requested number of processors reduced to:  11 ShMem   1 Linda.
 CalDSu:  requested number of processors reduced to:  22 ShMem   1 Linda.
 E= -210.394491526160     Delta-E=       -0.000204652232 Rises=F Damp=F
 DIIS: error= 7.34D-05 at cycle   2 NSaved=   2.
 NSaved= 2 IEnMin= 2 EnMin= -210.394491526160     IErMin= 2 ErrMin= 7.34D-05
[...]
 Alpha virt. eigenvalues --    3.15254   3.16186   3.18806   3.19317   3.23696
 Alpha virt. eigenvalues --    3.26074   3.28651   3.29681   3.31412   3.32847
 Alpha virt. eigenvalues --    3.33046   3.35731   3.38056   3.40129   3.41468
 Alpha virt. eigenvalues --    3.42780   3.44074   3.46421   3.49630   3.52689
 Alpha virt. eigenvalues --    3.53732   3.54007   3.57219   3.58304   3.60216
 Alpha virt. eigenvalues --    3.62769   3.64927   3.68240   3.70748   3.72421
 Alpha virt. eigenvalues --    3.76404   3.78689   3.85385   3.86156   3.89158
 Alpha virt. eigenvalues --    3.91654   3.94550   3.96264   3.99366   4.00498
 Alpha virt. eigenvalues --    4.04242   4.06993   4.10535   4.11855   4.12888
 Alpha virt. eigenvalues --    4.15434   4.18168   4.22625   4.24029   4.28072
 Alpha virt. eigenvalues --    4.29450   4.29883   4.34087   4.37414   4.40120
 Alpha virt. eigenvalues --    4.45199   4.46167   4.51328   4.54225   4.56856
 Alpha virt. eigenvalues --    4.59887   4.62815   4.70207   4.70720   4.76682
 Alpha virt. eigenvalues --    4.81418   4.86072   4.87977   4.89345   4.93457
 Alpha virt. eigenvalues --    4.95702   4.99009   5.02541   5.03472   5.07758
 Alpha virt. eigenvalues --    5.10421   5.10794   5.18067   5.19918   5.23244
 Alpha virt. eigenvalues --    5.26215   5.30500   5.35539   5.40863   5.42014
 Alpha virt. eigenvalues --    5.44820   5.48175   5.50901   5.51005   5.57902
 Alpha virt. eigenvalues --    5.62399   5.65695   5.69561   5.74883   5.77955
 Alpha virt. eigenvalues --    5.90644   5.93708   5.99558   6.01730   6.04894
 Alpha virt. eigenvalues --    6.08945   6.12389   6.15863   6.20789   6.25774
 Alpha virt. eigenvalues --    6.30585   6.35601   6.36012   6.43210   6.44787
 Alpha virt. eigenvalues --    6.55798   6.56770   6.63153   6.72401   6.77751
 Alpha virt. eigenvalues --    6.80614   6.88790   6.90809   6.94251   6.97684
 Alpha virt. eigenvalues --    6.99998   7.09681   7.14084   7.15218   7.21129
 Alpha virt. eigenvalues --    7.32661   7.36106   7.41640   7.47904   7.51897
 Alpha virt. eigenvalues --    7.57819   7.61432   7.63331   7.70385   7.74638
 Alpha virt. eigenvalues --    7.74949   7.84623   7.85522   7.86565   7.88391
 Alpha virt. eigenvalues --    7.90290   7.93889   7.98331   7.98942   8.00238
 Alpha virt. eigenvalues --    8.03610   8.09081   8.15416   8.22129   8.30236
 Alpha virt. eigenvalues --    8.32071   8.35506   8.36116   8.40858   8.44597
 Alpha virt. eigenvalues --    8.49831   8.51564   8.52913   8.54649   8.56194
 Alpha virt. eigenvalues --    8.58538   8.61861   8.64358   8.65975   8.69483
 Alpha virt. eigenvalues --    8.73486   8.74450   8.76132   8.80769   8.84057
 Alpha virt. eigenvalues --    8.87991   8.89319   8.91483   8.91982   8.93142
 Alpha virt. eigenvalues --    8.94946   8.96971   8.97538   9.03438   9.05077
 Alpha virt. eigenvalues --    9.08111   9.10514   9.16986   9.19401   9.21764
 Alpha virt. eigenvalues --    9.28715   9.33609   9.34336   9.38674   9.39427
 Alpha virt. eigenvalues --    9.41837   9.44179   9.46104   9.48982   9.51106
 Alpha virt. eigenvalues --    9.55683   9.56675   9.59580   9.60608   9.66321
 Alpha virt. eigenvalues --    9.72076   9.73512   9.79746   9.82917   9.85046
 Alpha virt. eigenvalues --    9.92116   9.95568  10.00353  10.03021  10.08386
 Alpha virt. eigenvalues --   10.13142  10.18709  10.25525  10.28176  10.29348
 Alpha virt. eigenvalues --   10.40101  10.43040  10.47165  10.51142  10.54679
 Alpha virt. eigenvalues --   10.57032  10.69058  10.72206  10.75064  10.77618
 Alpha virt. eigenvalues --   10.80353  10.82373  10.84012  10.96211  10.99280
 Alpha virt. eigenvalues --   11.02793  11.04991  11.07548  11.10058  11.11750
 Alpha virt. eigenvalues --   11.12663  11.17046  11.26028  11.29093  11.30835
 Alpha virt. eigenvalues --   11.33987  11.35353  11.37512  11.41471  11.43995
 Alpha virt. eigenvalues --   11.46135  11.53725  11.58799  11.60659  11.63496
 Alpha virt. eigenvalues --   11.70592  11.79182  11.79935  11.83259  11.91639
 Alpha virt. eigenvalues --   11.95000  11.97871  12.02037  12.07702  12.08664
 Alpha virt. eigenvalues --   12.13287  12.15646  12.19016  12.26344  12.36485
 Alpha virt. eigenvalues --   12.39675  12.45201  12.47902  12.60158  12.66848
 Alpha virt. eigenvalues --   12.76239  12.80053  12.84547  12.92584  12.96357
 Alpha virt. eigenvalues --   13.04616  13.19738  13.23362  13.26794  13.31474
 Alpha virt. eigenvalues --   13.38295  13.44945  13.67261  13.90366  14.01495
 Alpha virt. eigenvalues --   14.05309  14.05922  14.35936  14.38448  14.49191
 Alpha virt. eigenvalues --   14.69351  14.84262  14.88905  14.91900  14.98149
 Alpha virt. eigenvalues --   15.02466  15.05029  15.06886  15.20805  15.29850
 Alpha virt. eigenvalues --   15.37142  15.44436  15.46453  15.53562  15.58913
 Alpha virt. eigenvalues --   15.70607  15.78991  15.88900  15.94654  16.02481
 Alpha virt. eigenvalues --   16.13731  16.20143  16.38207  16.39308  16.43135
 Alpha virt. eigenvalues --   16.51069  16.64914  16.79735  17.27963  17.46663
 Alpha virt. eigenvalues --   17.51979  17.56634  17.83381  17.96813  18.57862
 Alpha virt. eigenvalues --   18.60275  18.73904  18.79046  18.86109  18.91698
 Alpha virt. eigenvalues --   19.10059  19.11943  19.32018  19.38462  19.44062
 Alpha virt. eigenvalues --   19.51002  19.59429  19.65452  19.66979  19.78419
 Alpha virt. eigenvalues --   19.90996  19.95767  20.05892  20.10619  20.27015
 Alpha virt. eigenvalues --   21.04531  22.42695  22.45003  22.95006  23.16868
 Alpha virt. eigenvalues --   23.67306  23.92850  40.24671  40.39429  50.97467
 Alpha virt. eigenvalues --   63.18096
          Condensed to atoms (all electrons):
               1          2          3          4          5          6
     1  C    4.940382   0.319587  -0.055628   0.007581   0.423902   0.416427
     2  N    0.319587   6.567507   0.356002  -0.028338  -0.052799  -0.038916
     3  C   -0.055628   0.356002   4.667828   0.236899  -0.009329   0.009135
     4  O    0.007581  -0.028338   0.236899   8.131144  -0.000557  -0.000496
     5  H    0.423902  -0.052799  -0.009329  -0.000557   0.565886  -0.029488
     6  H    0.416427  -0.038916   0.009135  -0.000496  -0.029488   0.493924
     7  H    0.414402  -0.040341   0.002162  -0.000034  -0.038413  -0.018757
     8  H   -0.030439   0.363399  -0.020766  -0.000116  -0.008976  -0.002749
     9  H    0.011272  -0.065391   0.405859  -0.045525   0.015390  -0.001067
    10  H    0.001804  -0.051898   0.424713  -0.037371  -0.003716   0.000086
    11  H    0.000292  -0.008006  -0.008140   0.287880   0.000154  -0.000008
               7          8          9         10         11
     1  C    0.414402  -0.030439   0.011272   0.001804   0.000292
     2  N   -0.040341   0.363399  -0.065391  -0.051898  -0.008006
     3  C    0.002162  -0.020766   0.405859   0.424713  -0.008140
     4  O   -0.000034  -0.000116  -0.045525  -0.037371   0.287880
     5  H   -0.038413  -0.008976   0.015390  -0.003716   0.000154
     6  H   -0.018757  -0.002749  -0.001067   0.000086  -0.000008
     7  H    0.506322   0.007447  -0.004022   0.004980  -0.000065
     8  H    0.007447   0.451086  -0.015366   0.009607   0.003833
     9  H   -0.004022  -0.015366   0.664377  -0.059678  -0.010334
    10  H    0.004980   0.009607  -0.059678   0.547139   0.008731
    11  H   -0.000065   0.003833  -0.010334   0.008731   0.374778
 Mulliken charges:
               1
     1  C   -0.449581
     2  N   -0.320807
     3  C   -0.008735
     4  O   -0.551066
     5  H    0.137945
     6  H    0.171910
     7  H    0.166320
     8  H    0.243039
     9  H    0.104484
    10  H    0.155604
    11  H    0.350886
 Sum of Mulliken charges =  -0.00000
 Mulliken charges with hydrogens summed into heavy atoms:
               1
     1  C    0.026595
     2  N   -0.077768
     3  C    0.251353
     4  O   -0.200180
 Electronic spatial extent (au):  <R**2>=            356.3280
 Charge=             -0.0000 electrons
 Dipole moment (field-independent basis, Debye):
    X=              1.1724    Y=             -0.0461    Z=              2.4834  Tot=              2.7466
 Quadrupole moment (field-independent basis, Debye-Ang):
   XX=            -27.0150   YY=            -24.6427   ZZ=            -26.0057
   XY=              1.3402   XZ=             -3.0823   YZ=             -3.0376
 Traceless Quadrupole moment (field-independent basis, Debye-Ang):
   XX=             -1.1272   YY=              1.2451   ZZ=             -0.1179
   XY=              1.3402   XZ=             -3.0823   YZ=             -3.0376
 Octapole moment (field-independent basis, Debye-Ang**2):
  XXX=             -0.4858  YYY=             -3.3573  ZZZ=              1.8026  XYY=             -3.1320
  XXY=             -6.1568  XXZ=              6.1435  XZZ=             -3.8352  YZZ=              0.2776
  YYZ=              1.9648  XYZ=              1.4909
 Hexadecapole moment (field-independent basis, Debye-Ang**3):
 XXXX=           -346.0693 YYYY=            -64.2135 ZZZZ=            -44.5019 XXXY=              8.9151
 XXXZ=            -17.0338 YYYX=              0.2816 YYYZ=             -5.8807 ZZZX=             -1.8553
 ZZZY=             -3.4292 XXYY=            -63.9266 XXZZ=            -62.9551 YYZZ=            -17.4868
 XXYZ=             -5.2200 YYXZ=             -1.2768 ZZXY=              2.0624
 N-N= 1.327362538116D+02 E-N=-7.566542396120D+02  KE= 2.089213905023D+02
 PrsmSu:  requested number of processors reduced to:   1 ShMem   1 Linda.
 No NMR shielding tensors so no spin-rotation constants.
 Leave Link  601 at Mon Aug 22 02:46:04 2022, MaxMem=    23592960 cpu:         5.5
 (Enter /public/home/users/caep010/software/Gaussian09/g09/l9999.exe)
 1\1\GINC-B1814\SP\RHF\GFHFB2\C2H7N1O1\ROOT\22-Aug-2022\0\\#P Geom=AllC
 heck Guess=TCheck SCRF=Check HF/GFHFB2 SCF=Tight\\Frag_704\\0,1\C,0,1.
 3727869331,-0.2437773042,0.5018933689\N,0,0.2165547704,0.5954239571,0.
 2093381761\C,0,-0.9607774592,-0.182224421,-0.1438190951\O,0,-2.1021923
 729,0.6232385374,-0.3014399768\H,0,1.6453391593,-0.9497570581,-0.30401
 33428\H,0,2.2408757582,0.3886427259,0.7060835879\H,0,1.1730930474,-0.8
 356218228,1.402566171\H,0,0.4423453139,1.2243559158,-0.5565448406\H,0,
 -0.8018475082,-0.8112426869,-1.0448447423\H,0,-1.1700354988,-0.8596694
 736,0.6925619418\H,0,-2.0562421432,1.0505316303,-1.1618812481\\Version
 =ES64L-G09RevE.01\State=1-A\HF=-209.1981044\RMSD=3.438e-09\Dipole=0.65
 39632,-0.2494749,-0.8232794\Quadrupole=-1.8621809,0.2001908,1.6619901,
 0.3435649,1.2925216,-2.6840625\PG=C01 [X(C2H7N1O1)]\\@


 THERE IS NO SCIENCE WITHOUT FANCY, NOR ART WITHOUT FACTS.
     -- VLADIMIR NABAKOV
 Diagonal vibrational polarizability:
        0.0000000       0.0000000       0.0000000

 Temperature=              298.150000 Pressure=                      1.000000
 E(ZPE)=                     0.095649 E(Thermal)=                    0.101250
 E(CCSD(T))=              -209.746456 E(Empiric)=                   -0.090311
 DE(Plus)=                  -0.019643 DE(2DF)=                      -0.193668
 E(Delta-G3XP)=             -0.270127 DE(HF)=                       -0.021845
 G4(0 K)=                 -210.246403 G4 Energy=                  -210.240801
 G4 Enthalpy=             -210.239857 G4 Free Energy=             -210.274440
 1\1\GINC-B1814\Mixed\G4\G4\C2H7N1O1\ROOT\22-Aug-2022\0\\#P Geom=AllChe
 ck Guess=TCheck SCRF=Check HF/GFHFB2 SCF=Tight\\Frag_704\\0,1\C,0,1.37
 27869331,-0.2437773042,0.5018933689\N,0,0.2165547704,0.5954239571,0.20
 93381761\C,0,-0.9607774592,-0.182224421,-0.1438190951\O,0,-2.102192372
 9,0.6232385374,-0.3014399768\H,0,1.6453391593,-0.9497570581,-0.3040133
 428\H,0,2.2408757582,0.3886427259,0.7060835879\H,0,1.1730930474,-0.835
 6218228,1.402566171\H,0,0.4423453139,1.2243559158,-0.5565448406\H,0,-0
 .8018475082,-0.8112426869,-1.0448447423\H,0,-1.1700354988,-0.859669473
 6,0.6925619418\H,0,-2.0562421432,1.0505316303,-1.1618812481\\Version=E
 S64L-G09RevE.01\State=1-A\MP2/GTBas1=-209.6905614\MP4/GTBas1=-209.7454
 338\CCSD(T)/G3Bas1=-209.7464565\MP2/GTBas2=-209.7090076\MP4/GTBas2=-20
 9.765077\MP2/GTBas3=-209.8727299\MP4/GTBas3=-209.9391016\HF/GTLargeXP=
 -209.1771989\MP2/GTLargeXP=-210.1613035\HF/GFHFB1=-209.1942475\HF/GFHF
 B2=-209.1981044\G4=-210.2464027\FreqCoord=2.5941913424,-0.4606723423,0
 .9484410151,0.4092292087,1.1251882118,0.3955918221,-1.8156062726,-0.34
 43542504,-0.2717787024,-3.9725678634,1.1777501512,-0.5696390017,3.1092
 404067,-1.7947807326,-0.5745019586,4.2346414807,0.7344283156,1.3343046
 081,2.216824588,-1.5790963957,2.6504659465,0.8359114994,2.3136973701,-
 1.0517173295,-1.5152721908,-1.5330265055,-1.9744704144,-2.2110466584,-
 1.6245398699,1.3087524,-3.8857345136,1.9852170752,-2.1956373578\PG=C01
  [X(C2H7N1O1)]\NImag=0\\0.52766797,0.06444790,0.53635354,-0.00573615,-
 0.01109042,0.54863035,-0.16841658,0.05750723,-0.00026489,0.48958785,0.
 04532428,-0.13238429,0.01964712,0.05291366,0.47219397,-0.03801004,0.04
 496172,-0.07439959,0.02338143,-0.21654483,0.40196087,-0.03794341,-0.00
 676986,-0.01717669,-0.13950173,-0.04823352,-0.00467829,0.46168556,0.02
 092993,0.01042732,-0.00058358,-0.07603660,-0.14351696,0.00522802,-0.00
 826796,0.55210898,-0.00346148,-0.00868631,-0.00685060,-0.04795866,-0.0
 0915218,-0.08987085,-0.03117703,-0.05677710,0.60799348,-0.00458693,-0.
 00745924,0.00178482,-0.04798138,0.02534249,-0.01756769,-0.16767076,0.0
 7151537,0.02011920,0.27420397,-0.00192103,0.00090018,-0.00079562,-0.00
 402235,0.01795487,0.00253216,0.08996886,-0.13552090,0.00427981,-0.1288
 7859,0.24986487,-0.00223407,-0.00103781,0.00147138,-0.01156990,0.00890
 103,0.00193262,-0.01926313,0.03010448,-0.09630033,-0.01632450,-0.22002
 735,0.50592281,-0.06035600,0.02714365,0.03498196,-0.01681732,0.0239263
 3,0.01680762,0.00460412,0.00530894,0.00432202,-0.00068739,-0.00106422,
 -0.00113374,0.06697999,0.02612814,-0.13610134,-0.10559849,0.01778309,-
 0.01731250,-0.01117193,-0.00443458,-0.00100861,0.00038787,0.00060294,0
 .00027423,0.00047879,-0.04142628,0.15280581,0.03393129,-0.10433429,-0.
 18282152,0.00017050,0.00307609,0.01222726,-0.00017602,0.00156169,0.002
 29325,0.00000230,-0.00005333,-0.00015758,-0.04140231,0.11912397,0.1930
 9642,-0.20586627,-0.12062127,-0.03736835,-0.02825911,-0.01409979,-0.00
 392767,0.00004008,0.00528063,-0.00108798,-0.00218796,-0.00013583,-0.00
 074375,0.00646567,0.00335551,0.00116614,0.23285960,-0.12940209,-0.1451
 0439,-0.02962890,0.02270615,0.01385194,0.00428457,0.00149113,-0.002734
 39,0.00112082,0.00179255,0.00009699,0.00028026,-0.01476594,-0.01146541
 ,-0.00249617,0.13047009,0.15313771,-0.03687672,-0.02869484,-0.05618792
 ,-0.00782872,-0.00292103,-0.00179759,-0.00028737,0.00173006,-0.0005647
 9,-0.00079080,-0.00009230,0.00045814,-0.01916750,-0.01597841,-0.004597
 98,0.04318668,0.03112034,0.05579178,-0.06046130,-0.03168122,0.04847984
 ,0.00364105,0.02027454,-0.02485322,0.00181918,0.00189428,-0.00215202,0
 .00012496,-0.00025376,0.00048204,-0.00079819,-0.00395374,0.00434505,-0
 .00406270,-0.01182621,0.02149489,0.06456902,-0.02701073,-0.11703631,0.
 10798027,-0.00009939,-0.01731778,0.01803128,-0.00158418,-0.00029296,-0
 .00059824,0.00037564,0.00030248,-0.00033812,0.00387604,0.01109737,-0.0
 1686618,-0.00366532,-0.00954267,0.01564115,0.02339752,0.13221699,0.043
 87903,0.11136592,-0.22322848,-0.00339175,0.00701956,-0.00321105,0.0017
 3333,0.00116021,-0.00026816,-0.00034599,-0.00041249,0.00045592,0.00687
 457,0.01219412,-0.02090123,-0.00080667,-0.00435875,0.00609836,-0.04588
 917,-0.12575685,0.24073336,0.00418411,0.02362950,-0.02636541,-0.075485
 13,-0.06196488,0.05799587,-0.00779853,-0.02280227,0.02888888,0.0028164
 3,0.00303077,-0.00098762,0.00045137,0.00005331,0.00033035,0.00081107,-
 0.00085109,-0.00011943,-0.00467445,0.00410968,-0.00141783,0.08559193,-
 0.00096168,-0.01584901,0.01834947,-0.04877303,-0.16227801,0.16136312,-
 0.00847147,-0.01732050,0.01855829,0.00051077,0.00077199,-0.00183080,-0
 .00132029,0.00040511,0.00015833,-0.00016760,0.00108563,-0.00044024,0.0
 0305481,-0.00034463,-0.00054416,0.05812224,0.19202583,0.00716807,-0.00
 142953,-0.00875228,0.05630064,0.20736553,-0.25156547,-0.00677946,-0.01
 166530,0.00288996,0.00201220,-0.00178273,0.00093308,0.00013504,-0.0004
 3030,0.00178875,-0.00039154,-0.00012413,0.00000427,-0.00301901,0.00182
 458,0.00040802,-0.05434414,-0.19444571,0.25113204,0.00544783,-0.004541
 36,-0.00019716,-0.00834016,-0.02241491,-0.02812100,-0.05139609,0.01419
 953,0.02460505,-0.01759688,0.02893583,0.02110946,0.00028772,0.00191488
 ,0.00187134,0.00002941,0.00025583,0.00046878,-0.00032313,0.00026213,0.
 00002253,0.00085026,0.00118282,-0.00020832,0.06801625,0.00173371,-0.00
 121458,0.00085714,-0.00916400,-0.01383375,-0.02194887,0.01412148,-0.10
 972423,-0.08363677,0.01849201,-0.01755801,-0.01580567,-0.00146521,0.00
 103059,-0.00007528,-0.00046923,0.00035402,0.00016273,-0.00032493,0.000
 29982,-0.00016251,0.00069267,0.00121978,-0.00007758,-0.02015634,0.1272
 4346,0.00176753,-0.00100472,0.00114434,-0.00768759,-0.01099338,-0.0045
 9687,0.03039621,-0.08717956,-0.20557474,-0.00037410,0.00225520,0.00875
 052,-0.00154164,0.00115058,-0.00028333,-0.00034828,0.00025470,0.000406
 83,0.00026841,0.00013626,-0.00025007,-0.00095434,0.00044994,0.00178662
 ,-0.02632299,0.10823479,0.21706126,0.00146248,-0.00183709,0.00162444,-
 0.00927268,-0.02185696,0.01982719,-0.05960800,-0.03350641,0.04414560,-
 0.00190966,0.02328296,-0.02815429,-0.00024519,0.00012528,-0.00013600,0
 .00021134,0.00014668,-0.00019188,-0.00000227,0.00068479,-0.00087994,-0
 .00511464,-0.00264686,-0.00127439,0.00224313,-0.00303936,0.00426814,0.
 07532506,0.00124454,0.00017775,0.00048606,-0.01170609,-0.01819819,0.01
 541874,-0.02806593,-0.13561229,0.10667204,0.00545866,-0.01459571,0.020
 08102,-0.00032749,0.00033911,-0.00003059,0.00017785,0.00023940,-0.0004
 1147,-0.00054720,0.00065920,-0.00038745,-0.00390077,-0.00058409,0.0000
 8235,0.00267291,0.01112445,-0.01288126,0.03275246,0.15927307,-0.000337
 04,-0.00028967,0.00082184,-0.00178308,-0.00517836,0.00897068,0.0415848
 6,0.11762489,-0.20835935,-0.00610020,0.00489602,-0.00178982,0.00002002
 ,0.00002357,-0.00057487,0.00020931,-0.00040210,0.00033410,0.00070038,0
 .00007706,0.00013360,-0.00197504,-0.00196159,0.00146540,0.00594532,0.0
 1402953,-0.02097619,-0.03835328,-0.12882665,0.21724680,-0.00113191,0.0
 0018176,0.00023758,0.00084519,0.00078876,-0.00085421,-0.00423041,0.021
 48458,-0.03624359,-0.03452441,-0.00894265,0.05881952,0.00011522,-0.000
 14855,-0.00010262,-0.00004112,-0.00001711,0.00011207,0.00016785,-0.000
 34617,0.00022190,-0.00163242,-0.00052971,0.00040091,0.00078167,-0.0004
 2079,0.00052863,-0.00308955,0.00224105,0.00008876,0.04273989,-0.000512
 96,-0.00016887,0.00037696,-0.00110867,0.00084070,-0.00215399,0.0002460
 3,-0.01680546,0.02783176,0.01224740,-0.10249099,0.17919417,0.00011447,
 -0.00006435,-0.00006423,-0.00012505,0.00008116,-0.00011598,-0.00003408
 ,-0.00004150,-0.00011759,-0.00011916,0.00086790,0.00068281,-0.00231132
 ,0.00105844,-0.00042257,0.00589450,-0.00282271,0.00000730,-0.01429116,
 0.11954568,-0.00009040,0.00023995,0.00017247,0.00063203,-0.00121955,0.
 00034999,0.00582360,-0.00120382,-0.00538788,0.01758477,0.20920063,-0.4
 2167675,0.00010397,-0.00017977,-0.00006918,0.00011209,-0.00005064,0.00
 005479,0.00014281,-0.00013119,0.00002972,-0.00105130,0.00034335,-0.000
 09040,0.00082699,-0.00157751,0.00253163,-0.00087559,-0.00020279,0.0027
 2780,-0.02320896,-0.20521865,0.42135781\\0.00002869,-0.00003463,0.0000
 0880,-0.00001720,0.00004575,0.00000363,-0.00002185,-0.00002119,-0.0000
 2042,0.00001887,-0.00000045,-0.00000840,-0.00000873,0.00000055,0.00000
 861,-0.00001042,-0.00000240,0.00000261,-0.00000891,0.00000249,0.000001
 74,0.00001373,-0.00000657,0.00000749,0.00000300,0.00001075,-0.00000049
 ,-0.00000468,0.00000799,-0.00000706,0.00000750,-0.00000228,0.00000349\
 \\@
 Job cpu time:       0 days  0 hours 53 minutes  3.3 seconds.
 File lengths (MBytes):  RWF=   3194 Int=      0 D2E=      0 Chk=     20 Scr=      1
 Normal termination of Gaussian 09 at Mon Aug 22 02:46:04 2022.
