 Entering Gaussian System, Link 0=g09
 Input=G4.Frag_854.gjf
 Output=G4.Frag_854.log
 Initial command:
 /public/home/users/caep010/software/Gaussian09/g09/l1.exe "/public/home/users/caep010/.cache/gau_scr/Gau-83316.inp" -scrdir="/public/home/users/caep010/.cache/gau_scr/"
 Entering Link 1 = /public/home/users/caep010/software/Gaussian09/g09/l1.exe PID=     83317.
  
 Copyright (c) 1988,1990,1992,1993,1995,1998,2003,2009,2015,
            Gaussian, Inc.  All Rights Reserved.
  
 This is part of the Gaussian(R) 09 program.  It is based on
 the Gaussian(R) 03 system (copyright 2003, Gaussian, Inc.),
 the Gaussian(R) 98 system (copyright 1998, Gaussian, Inc.),
 the Gaussian(R) 94 system (copyright 1995, Gaussian, Inc.),
 the Gaussian 92(TM) system (copyright 1992, Gaussian, Inc.),
 the Gaussian 90(TM) system (copyright 1990, Gaussian, Inc.),
 the Gaussian 88(TM) system (copyright 1988, Gaussian, Inc.),
 the Gaussian 86(TM) system (copyright 1986, Carnegie Mellon
 University), and the Gaussian 82(TM) system (copyright 1983,
 Carnegie Mellon University). Gaussian is a federally registered
 trademark of Gaussian, Inc.
  
 This software contains proprietary and confidential information,
 including trade secrets, belonging to Gaussian, Inc.
  
 This software is provided under written license and may be
 used, copied, transmitted, or stored only in accord with that
 written license.
  
 The following legend is applicable only to US Government
 contracts under FAR:
  
                    RESTRICTED RIGHTS LEGEND
  
 Use, reproduction and disclosure by the US Government is
 subject to restrictions as set forth in subparagraphs (a)
 and (c) of the Commercial Computer Software - Restricted
 Rights clause in FAR 52.227-19.
  
 Gaussian, Inc.
 340 Quinnipiac St., Bldg. 40, Wallingford CT 06492
  
  
 ---------------------------------------------------------------
 Warning -- This program may not be used in any manner that
 competes with the business of Gaussian, Inc. or will provide
 assistance to any competitor of Gaussian, Inc.  The licensee
 of this program is prohibited from giving any competitor of
 Gaussian, Inc. access to this program.  By using this program,
 the user acknowledges that Gaussian, Inc. is engaged in the
 business of creating and licensing software in the field of
 computational chemistry and represents and warrants to the
 licensee that it is not a competitor of Gaussian, Inc. and that
 it will not use this program in any manner prohibited above.
 ---------------------------------------------------------------
  

 Cite this work as:
 Gaussian 09, Revision E.01,
 M. J. Frisch, G. W. Trucks, H. B. Schlegel, G. E. Scuseria, 
 M. A. Robb, J. R. Cheeseman, G. Scalmani, V. Barone, B. Mennucci, 
 G. A. Petersson, H. Nakatsuji, M. Caricato, X. Li, H. P. Hratchian, 
 A. F. Izmaylov, J. Bloino, G. Zheng, J. L. Sonnenberg, M. Hada, 
 M. Ehara, K. Toyota, R. Fukuda, J. Hasegawa, M. Ishida, T. Nakajima, 
 Y. Honda, O. Kitao, H. Nakai, T. Vreven, J. A. Montgomery, Jr., 
 J. E. Peralta, F. Ogliaro, M. Bearpark, J. J. Heyd, E. Brothers, 
 K. N. Kudin, V. N. Staroverov, T. Keith, R. Kobayashi, J. Normand, 
 K. Raghavachari, A. Rendell, J. C. Burant, S. S. Iyengar, J. Tomasi, 
 M. Cossi, N. Rega, J. M. Millam, M. Klene, J. E. Knox, J. B. Cross, 
 V. Bakken, C. Adamo, J. Jaramillo, R. Gomperts, R. E. Stratmann, 
 O. Yazyev, A. J. Austin, R. Cammi, C. Pomelli, J. W. Ochterski, 
 R. L. Martin, K. Morokuma, V. G. Zakrzewski, G. A. Voth, 
 P. Salvador, J. J. Dannenberg, S. Dapprich, A. D. Daniels, 
 O. Farkas, J. B. Foresman, J. V. Ortiz, J. Cioslowski, 
 and D. J. Fox, Gaussian, Inc., Wallingford CT, 2013.
 
 ******************************************
 Gaussian 09:  ES64L-G09RevE.01 30-Nov-2015
                26-Aug-2022 
 ******************************************
 %nproc=32
 Will use up to   32 processors via shared memory.
 %mem=180GB
 %chk=G4.Frag_854.chk
 -----
 #P G4
 -----
 1/14=-1,18=20,19=15,26=3,38=1/1,3;
 2/9=110,12=2,17=6,18=5,40=1/2;
 3/5=35,7=104,11=2,16=1,25=1,30=1,71=1,74=-5/1,2,3;
 4//1;
 5/5=2,38=5/2;
 6/7=2,8=2,9=2,10=2,28=1/1;
 7//1,2,3,16;
 1/14=-1,18=20,19=15,26=3/3(2);
 2/9=110/2;
 99//99;
 2/9=110/2;
 3/5=35,7=104,11=2,16=1,25=1,30=1,71=1,74=-5/1,2,3;
 4/5=5,16=3,69=1/1;
 5/5=2,38=5/2;
 7//1,2,3,16;
 1/14=-1,18=20,19=15,26=3/3(-5);
 2/9=110/2;
 6/7=2,8=2,9=2,10=2,19=2,28=1/1;
 99/9=1/99;
 Leave Link    1 at Fri Aug 26 08:04:23 2022, MaxMem= 24159191040 cpu:         2.3
 (Enter /public/home/users/caep010/software/Gaussian09/g09/l101.exe)
 --------
 Frag_854
 --------
 Symbolic Z-matrix:
 Charge =  0 Multiplicity = 1
 C                     1.9476   -0.2944    0.0379 
 N                     0.56     -0.6603    0.3413 
 C                    -0.4099    0.2906   -0.2463 
 C                    -1.8407   -0.1385    0.1207 
 O                    -0.2882    0.3032   -1.6478 
 O                    -0.1801    1.5968    0.2282 
 H                     2.6298   -1.0466    0.4871 
 H                     2.1226   -0.2922   -1.0588 
 H                     2.2013    0.7013    0.462 
 H                     0.454    -0.6612    1.3834 
 H                    -1.9818   -0.1276    1.2227 
 H                    -2.0426   -1.1664   -0.2496 
 H                    -2.5756    0.557    -0.3378 
 H                    -0.3587   -0.6365   -1.9624 
 H                    -0.2378    1.5747    1.2194 
 
 NAtoms=     15 NQM=       15 NQMF=       0 NMMI=      0 NMMIF=      0
                NMic=       0 NMicF=      0.
                    Isotopes and Nuclear Properties:
 (Nuclear quadrupole moments (NQMom) in fm**2, nuclear magnetic moments (NMagM)
  in nuclear magnetons)

  Atom         1           2           3           4           5           6           7           8           9          10
 IAtWgt=          12          14          12          12          16          16           1           1           1           1
 AtmWgt=  12.0000000  14.0030740  12.0000000  12.0000000  15.9949146  15.9949146   1.0078250   1.0078250   1.0078250   1.0078250
 NucSpn=           0           2           0           0           0           0           1           1           1           1
 AtZEff=   0.0000000   0.0000000   0.0000000   0.0000000   0.0000000   0.0000000   0.0000000   0.0000000   0.0000000   0.0000000
 NQMom=    0.0000000   2.0440000   0.0000000   0.0000000   0.0000000   0.0000000   0.0000000   0.0000000   0.0000000   0.0000000
 NMagM=    0.0000000   0.4037610   0.0000000   0.0000000   0.0000000   0.0000000   2.7928460   2.7928460   2.7928460   2.7928460
 AtZNuc=   6.0000000   7.0000000   6.0000000   6.0000000   8.0000000   8.0000000   1.0000000   1.0000000   1.0000000   1.0000000

  Atom        11          12          13          14          15
 IAtWgt=           1           1           1           1           1
 AtmWgt=   1.0078250   1.0078250   1.0078250   1.0078250   1.0078250
 NucSpn=           1           1           1           1           1
 AtZEff=   0.0000000   0.0000000   0.0000000   0.0000000   0.0000000
 NQMom=    0.0000000   0.0000000   0.0000000   0.0000000   0.0000000
 NMagM=    2.7928460   2.7928460   2.7928460   2.7928460   2.7928460
 AtZNuc=   1.0000000   1.0000000   1.0000000   1.0000000   1.0000000
 Leave Link  101 at Fri Aug 26 08:04:23 2022, MaxMem= 24159191040 cpu:        11.0
 (Enter /public/home/users/caep010/software/Gaussian09/g09/l103.exe)

 GradGradGradGradGradGradGradGradGradGradGradGradGradGradGradGradGradGrad
 Berny optimization.
 Initialization pass.
                           ----------------------------
                           !    Initial Parameters    !
                           ! (Angstroms and Degrees)  !
 --------------------------                            --------------------------
 ! Name  Definition              Value          Derivative Info.                !
 --------------------------------------------------------------------------------
 ! R1    R(1,2)                  1.4668         estimate D2E/DX2                !
 ! R2    R(1,7)                  1.1104         estimate D2E/DX2                !
 ! R3    R(1,8)                  1.1106         estimate D2E/DX2                !
 ! R4    R(1,9)                  1.1116         estimate D2E/DX2                !
 ! R5    R(2,3)                  1.4799         estimate D2E/DX2                !
 ! R6    R(2,10)                 1.0475         estimate D2E/DX2                !
 ! R7    R(3,4)                  1.5382         estimate D2E/DX2                !
 ! R8    R(3,5)                  1.4068         estimate D2E/DX2                !
 ! R9    R(3,6)                  1.4086         estimate D2E/DX2                !
 ! R10   R(4,11)                 1.111          estimate D2E/DX2                !
 ! R11   R(4,12)                 1.1111         estimate D2E/DX2                !
 ! R12   R(4,13)                 1.1109         estimate D2E/DX2                !
 ! R13   R(5,14)                 0.9935         estimate D2E/DX2                !
 ! R14   R(6,15)                 0.9931         estimate D2E/DX2                !
 ! A1    A(2,1,7)              109.1808         estimate D2E/DX2                !
 ! A2    A(2,1,8)              110.7219         estimate D2E/DX2                !
 ! A3    A(2,1,9)              111.1278         estimate D2E/DX2                !
 ! A4    A(7,1,8)              107.699          estimate D2E/DX2                !
 ! A5    A(7,1,9)              108.1935         estimate D2E/DX2                !
 ! A6    A(8,1,9)              109.8171         estimate D2E/DX2                !
 ! A7    A(1,2,3)              112.1842         estimate D2E/DX2                !
 ! A8    A(1,2,10)             107.562          estimate D2E/DX2                !
 ! A9    A(3,2,10)             109.2226         estimate D2E/DX2                !
 ! A10   A(2,3,4)              109.6115         estimate D2E/DX2                !
 ! A11   A(2,3,5)              110.1575         estimate D2E/DX2                !
 ! A12   A(2,3,6)              110.8032         estimate D2E/DX2                !
 ! A13   A(4,3,5)              108.7026         estimate D2E/DX2                !
 ! A14   A(4,3,6)              109.2729         estimate D2E/DX2                !
 ! A15   A(5,3,6)              108.2502         estimate D2E/DX2                !
 ! A16   A(3,4,11)             110.6124         estimate D2E/DX2                !
 ! A17   A(3,4,12)             110.3404         estimate D2E/DX2                !
 ! A18   A(3,4,13)             110.0133         estimate D2E/DX2                !
 ! A19   A(11,4,12)            108.4555         estimate D2E/DX2                !
 ! A20   A(11,4,13)            108.6159         estimate D2E/DX2                !
 ! A21   A(12,4,13)            108.7506         estimate D2E/DX2                !
 ! A22   A(3,5,14)             107.5092         estimate D2E/DX2                !
 ! A23   A(3,6,15)             107.8241         estimate D2E/DX2                !
 ! D1    D(7,1,2,3)           -179.1195         estimate D2E/DX2                !
 ! D2    D(7,1,2,10)            60.7483         estimate D2E/DX2                !
 ! D3    D(8,1,2,3)            -60.7115         estimate D2E/DX2                !
 ! D4    D(8,1,2,10)           179.1563         estimate D2E/DX2                !
 ! D5    D(9,1,2,3)             61.6172         estimate D2E/DX2                !
 ! D6    D(9,1,2,10)           -58.515          estimate D2E/DX2                !
 ! D7    D(1,2,3,4)           -179.3471         estimate D2E/DX2                !
 ! D8    D(1,2,3,5)             61.088          estimate D2E/DX2                !
 ! D9    D(1,2,3,6)            -58.6698         estimate D2E/DX2                !
 ! D10   D(10,2,3,4)           -60.1851         estimate D2E/DX2                !
 ! D11   D(10,2,3,5)          -179.75           estimate D2E/DX2                !
 ! D12   D(10,2,3,6)            60.4923         estimate D2E/DX2                !
 ! D13   D(2,3,4,11)            61.3717         estimate D2E/DX2                !
 ! D14   D(2,3,4,12)           -58.6379         estimate D2E/DX2                !
 ! D15   D(2,3,4,13)          -178.6303         estimate D2E/DX2                !
 ! D16   D(5,3,4,11)          -178.1747         estimate D2E/DX2                !
 ! D17   D(5,3,4,12)            61.8156         estimate D2E/DX2                !
 ! D18   D(5,3,4,13)           -58.1767         estimate D2E/DX2                !
 ! D19   D(6,3,4,11)           -60.2295         estimate D2E/DX2                !
 ! D20   D(6,3,4,12)           179.7609         estimate D2E/DX2                !
 ! D21   D(6,3,4,13)            59.7685         estimate D2E/DX2                !
 ! D22   D(2,3,5,14)            52.9667         estimate D2E/DX2                !
 ! D23   D(4,3,5,14)           -67.1486         estimate D2E/DX2                !
 ! D24   D(6,3,5,14)           174.2601         estimate D2E/DX2                !
 ! D25   D(2,3,6,15)           -57.267          estimate D2E/DX2                !
 ! D26   D(4,3,6,15)            63.6111         estimate D2E/DX2                !
 ! D27   D(5,3,6,15)          -178.1605         estimate D2E/DX2                !
 --------------------------------------------------------------------------------
 Trust Radius=3.00D-01 FncErr=1.00D-07 GrdErr=1.00D-06
 Number of steps in this run=     74 maximum allowed number of steps=    100.
 GradGradGradGradGradGradGradGradGradGradGradGradGradGradGradGradGradGrad

 Leave Link  103 at Fri Aug 26 08:04:23 2022, MaxMem= 24159191040 cpu:         0.4
 (Enter /public/home/users/caep010/software/Gaussian09/g09/l202.exe)
                          Input orientation:                          
 ---------------------------------------------------------------------
 Center     Atomic      Atomic             Coordinates (Angstroms)
 Number     Number       Type             X           Y           Z
 ---------------------------------------------------------------------
      1          6           0        1.947600   -0.294400    0.037900
      2          7           0        0.560000   -0.660300    0.341300
      3          6           0       -0.409900    0.290600   -0.246300
      4          6           0       -1.840700   -0.138500    0.120700
      5          8           0       -0.288200    0.303200   -1.647800
      6          8           0       -0.180100    1.596800    0.228200
      7          1           0        2.629800   -1.046600    0.487100
      8          1           0        2.122600   -0.292200   -1.058800
      9          1           0        2.201300    0.701300    0.462000
     10          1           0        0.454000   -0.661200    1.383400
     11          1           0       -1.981800   -0.127600    1.222700
     12          1           0       -2.042600   -1.166400   -0.249600
     13          1           0       -2.575600    0.557000   -0.337800
     14          1           0       -0.358700   -0.636500   -1.962400
     15          1           0       -0.237800    1.574700    1.219400
 ---------------------------------------------------------------------
                    Distance matrix (angstroms):
                    1          2          3          4          5
     1  C    0.000000
     2  N    1.466754   0.000000
     3  C    2.445568   1.479929   0.000000
     4  C    3.792411   2.466637   1.538182   0.000000
     5  O    2.863130   2.367339   1.406830   2.394357   0.000000
     6  O    2.853061   2.378033   1.408587   2.404249   2.281329
     7  H    1.110397   2.110582   3.400846   4.576490   3.859337
     8  H    1.110577   2.130140   2.722750   4.137945   2.552132
     9  H    1.111595   2.135975   2.736554   4.142404   3.287453
    10  H    2.043466   1.047478   2.075613   2.670819   3.266359
    11  H    4.107525   2.742514   2.191739   1.111050   3.360601
    12  H    4.094476   2.716400   2.188280   1.111064   2.681904
    13  H    4.617940   3.431470   2.183941   1.110865   2.648153
    14  H    3.072011   2.480244   1.951188   2.604541   0.993468
    15  H    3.108931   2.530369   1.956223   2.590653   3.136891
                    6          7          8          9         10
     6  O    0.000000
     7  H    3.866540   0.000000
     8  H    3.244552   1.793371   0.000000
     9  H    2.554926   1.799832   1.818260   0.000000
    10  H    2.614409   2.384532   2.980726   2.399675   0.000000
    11  H    2.684904   4.759467   4.698769   4.331751   2.498735
    12  H    3.366374   4.731638   4.332196   4.690988   3.025711
    13  H    2.672070   5.508918   4.828464   4.845542   3.691208
    14  H    3.133410   3.885790   2.663059   3.771077   3.443177
    15  H    0.993124   3.953556   3.774520   2.699202   2.346217
                   11         12         13         14         15
    11  H    0.000000
    12  H    1.802906   0.000000
    13  H    1.804560   1.806094   0.000000
    14  H    3.610858   2.459674   2.996400   0.000000
    15  H    2.437083   3.595677   2.987623   3.876580   0.000000
 Stoichiometry    C3H9NO2
 Framework group  C1[X(C3H9NO2)]
 Deg. of freedom    39
 Full point group                 C1      NOp   1
 Largest Abelian subgroup         C1      NOp   1
 Largest concise Abelian subgroup C1      NOp   1
                         Standard orientation:                         
 ---------------------------------------------------------------------
 Center     Atomic      Atomic             Coordinates (Angstroms)
 Number     Number       Type             X           Y           Z
 ---------------------------------------------------------------------
      1          6           0        2.037784    0.008953   -0.113163
      2          7           0        0.767950   -0.187937   -0.820358
      3          6           0       -0.401527    0.026955    0.060742
      4          6           0       -1.697074   -0.209886   -0.733907
      5          8           0       -0.405776    1.346900    0.547465
      6          8           0       -0.365301   -0.849488    1.162855
      7          1           0        2.878160   -0.148309   -0.821696
      8          1           0        2.114023    1.046255    0.276161
      9          1           0        2.147798   -0.716128    0.722179
     10          1           0        0.754410   -1.172577   -1.177444
     11          1           0       -1.741924   -1.255746   -1.106192
     12          1           0       -1.745964    0.476402   -1.606307
     13          1           0       -2.579938   -0.026232   -0.085181
     14          1           0       -0.336544    1.954421   -0.235544
     15          1           0       -0.332153   -1.777956    0.811936
 ---------------------------------------------------------------------
 Rotational constants (GHZ):      4.9103831      2.8057923      2.7453900
 Leave Link  202 at Fri Aug 26 08:04:23 2022, MaxMem= 24159191040 cpu:         1.0
 (Enter /public/home/users/caep010/software/Gaussian09/g09/l301.exe)
 Standard basis: GTBas3 (6D, 7F)
 Ernie: Thresh=  0.10000D-02 Tol=  0.10000D-05 Strict=F.
 There are   231 symmetry adapted cartesian basis functions of A   symmetry.
 There are   213 symmetry adapted basis functions of A   symmetry.
   213 basis functions,   327 primitive gaussians,   231 cartesian basis functions
    25 alpha electrons       25 beta electrons
       nuclear repulsion energy       273.5563204089 Hartrees.
 IExCor=  402 DFT=T Ex+Corr=B3LYP ExCW=0 ScaHFX=  0.200000
 ScaDFX=  0.800000  0.720000  1.000000  0.810000 ScalE2=  1.000000  1.000000
 IRadAn=      0 IRanWt=     -1 IRanGd=            0 ICorTp=0 IEmpDi=  4
 NAtoms=   15 NActive=   15 NUniq=   15 SFac= 1.00D+00 NAtFMM=   60 NAOKFM=F Big=F
 Integral buffers will be    131072 words long.
 Raffenetti 2 integral format.
 Two-electron integral symmetry is turned on.
 Leave Link  301 at Fri Aug 26 08:04:23 2022, MaxMem= 24159191040 cpu:         2.2
 (Enter /public/home/users/caep010/software/Gaussian09/g09/l302.exe)
 NPDir=0 NMtPBC=     1 NCelOv=     1 NCel=       1 NClECP=     1 NCelD=      1
         NCelK=      1 NCelE2=     1 NClLst=     1 CellRange=     0.0.
 One-electron integrals computed using PRISM.
 NBasis=   213 RedAO= T EigKep=  4.31D-04  NBF=   213
 NBsUse=   213 1.00D-06 EigRej= -1.00D+00 NBFU=   213
 Precomputing XC quadrature grid using
 IXCGrd= 4 IRadAn=           0 IRanWt=          -1 IRanGd=           0 AccXCQ= 0.00D+00.
 Generated NRdTot=       0 NPtTot=           0 NUsed=           0 NTot=          32
 NSgBfM=   231   231   231   231   231 MxSgAt=    15 MxSgA2=    15.
 Leave Link  302 at Fri Aug 26 08:04:24 2022, MaxMem= 24159191040 cpu:        14.1
 (Enter /public/home/users/caep010/software/Gaussian09/g09/l303.exe)
 DipDrv:  MaxL=1.
 Leave Link  303 at Fri Aug 26 08:04:24 2022, MaxMem= 24159191040 cpu:         1.0
 (Enter /public/home/users/caep010/software/Gaussian09/g09/l401.exe)
 ExpMin= 1.61D-01 ExpMax= 5.48D+03 ExpMxC= 8.25D+02 IAcc=1 IRadAn=         1 AccDes= 0.00D+00
 Harris functional with IExCor=  402 and IRadAn=       1 diagonalized for initial guess.
 HarFok:  IExCor=  402 AccDes= 0.00D+00 IRadAn=         1 IDoV= 1 UseB2=F ITyADJ=14
 ICtDFT=  3500011 ScaDFX=  1.000000  1.000000  1.000000  1.000000
 FoFCou: FMM=F IPFlag=           0 FMFlag=      100000 FMFlg1=           0
         NFxFlg=           0 DoJE=T BraDBF=F KetDBF=T FulRan=T
         wScrn=  0.000000 ICntrl=     500 IOpCl=  0 I1Cent=   200000004 NGrid=           0
         NMat0=    1 NMatS0=      1 NMatT0=    0 NMatD0=    1 NMtDS0=    0 NMtDT0=    0
 Petite list used in FoFCou.
 Harris En= -324.987937435801    
 JPrj=0 DoOrth=F DoCkMO=F.
 Leave Link  401 at Fri Aug 26 08:04:25 2022, MaxMem= 24159191040 cpu:        14.0
 (Enter /public/home/users/caep010/software/Gaussian09/g09/l502.exe)
 Closed shell SCF:
 Using DIIS extrapolation, IDIIS=  1040.
 Integral symmetry usage will be decided dynamically.
 Keep R1 ints in memory in canonical form, NReq=266157421.
 IVT=      187717 IEndB=      187717 NGot= 24159191040 MDV= 23899277088
 LenX= 23899277088 LenY= 23899223286
 Requested convergence on RMS density matrix=1.00D-08 within 128 cycles.
 Requested convergence on MAX density matrix=1.00D-06.
 Requested convergence on             energy=1.00D-06.
 No special actions if energy rises.
 FoFCou: FMM=F IPFlag=           0 FMFlag=           0 FMFlg1=           0
         NFxFlg=           0 DoJE=F BraDBF=F KetDBF=F FulRan=T
         wScrn=  0.000000 ICntrl=     600 IOpCl=  0 I1Cent=           0 NGrid=           0
         NMat0=    1 NMatS0=  22791 NMatT0=    0 NMatD0=    1 NMtDS0=    0 NMtDT0=    0
 Symmetry not used in FoFCou.
 Integral accuracy reduced to 1.0D-05 until final iterations.

 Cycle   1  Pass 0  IDiag  1:
 E= -324.717066168342    
 DIIS: error= 2.53D-02 at cycle   1 NSaved=   1.
 NSaved= 1 IEnMin= 1 EnMin= -324.717066168342     IErMin= 1 ErrMin= 2.53D-02
 ErrMax= 2.53D-02  0.00D+00 EMaxC= 1.00D-01 BMatC= 2.66D-01 BMatP= 2.66D-01
 IDIUse=3 WtCom= 7.47D-01 WtEn= 2.53D-01
 Coeff-Com:  0.100D+01
 Coeff-En:   0.100D+01
 Coeff:      0.100D+01
 Gap=     0.195 Goal=   None    Shift=    0.000
 GapD=    0.195 DampG=1.000 DampE=0.500 DampFc=0.5000 IDamp=-1.
 Damping current iteration by 5.00D-01
 RMSDP=4.84D-03 MaxDP=1.44D-01              OVMax= 1.65D-01

 Cycle   2  Pass 0  IDiag  1:
 E= -324.808357806149     Delta-E=       -0.091291637807 Rises=F Damp=T
 DIIS: error= 7.55D-03 at cycle   2 NSaved=   2.
 NSaved= 2 IEnMin= 2 EnMin= -324.808357806149     IErMin= 2 ErrMin= 7.55D-03
 ErrMax= 7.55D-03  0.00D+00 EMaxC= 1.00D-01 BMatC= 1.69D-02 BMatP= 2.66D-01
 IDIUse=3 WtCom= 9.25D-01 WtEn= 7.55D-02
 Coeff-Com:  0.135D+00 0.865D+00
 Coeff-En:   0.212D+00 0.788D+00
 Coeff:      0.141D+00 0.859D+00
 Gap=     0.268 Goal=   None    Shift=    0.000
 RMSDP=8.80D-04 MaxDP=3.86D-02 DE=-9.13D-02 OVMax= 1.01D-01

 Cycle   3  Pass 0  IDiag  1:
 E= -324.940721479558     Delta-E=       -0.132363673408 Rises=F Damp=F
 DIIS: error= 2.78D-03 at cycle   3 NSaved=   3.
 NSaved= 3 IEnMin= 3 EnMin= -324.940721479558     IErMin= 3 ErrMin= 2.78D-03
 ErrMax= 2.78D-03  0.00D+00 EMaxC= 1.00D-01 BMatC= 4.54D-03 BMatP= 1.69D-02
 IDIUse=3 WtCom= 9.72D-01 WtEn= 2.78D-02
 Coeff-Com:  0.294D-01 0.322D+00 0.648D+00
 Coeff-En:   0.000D+00 0.000D+00 0.100D+01
 Coeff:      0.286D-01 0.314D+00 0.658D+00
 Gap=     0.273 Goal=   None    Shift=    0.000
 RMSDP=3.94D-04 MaxDP=1.42D-02 DE=-1.32D-01 OVMax= 1.72D-02

 Cycle   4  Pass 0  IDiag  1:
 E= -324.943202249524     Delta-E=       -0.002480769966 Rises=F Damp=F
 DIIS: error= 1.69D-03 at cycle   4 NSaved=   4.
 NSaved= 4 IEnMin= 4 EnMin= -324.943202249524     IErMin= 4 ErrMin= 1.69D-03
 ErrMax= 1.69D-03  0.00D+00 EMaxC= 1.00D-01 BMatC= 1.50D-03 BMatP= 4.54D-03
 IDIUse=3 WtCom= 9.83D-01 WtEn= 1.69D-02
 Coeff-Com: -0.452D-03 0.436D-01 0.370D+00 0.587D+00
 Coeff-En:   0.000D+00 0.000D+00 0.265D+00 0.735D+00
 Coeff:     -0.444D-03 0.429D-01 0.369D+00 0.589D+00
 Gap=     0.268 Goal=   None    Shift=    0.000
 RMSDP=1.59D-04 MaxDP=5.46D-03 DE=-2.48D-03 OVMax= 6.87D-03

 Cycle   5  Pass 0  IDiag  1:
 E= -324.944435237304     Delta-E=       -0.001232987780 Rises=F Damp=F
 DIIS: error= 3.06D-04 at cycle   5 NSaved=   5.
 NSaved= 5 IEnMin= 5 EnMin= -324.944435237304     IErMin= 5 ErrMin= 3.06D-04
 ErrMax= 3.06D-04  0.00D+00 EMaxC= 1.00D-01 BMatC= 3.82D-05 BMatP= 1.50D-03
 IDIUse=3 WtCom= 9.97D-01 WtEn= 3.06D-03
 Coeff-Com: -0.849D-03 0.646D-02 0.135D+00 0.256D+00 0.603D+00
 Coeff-En:   0.000D+00 0.000D+00 0.000D+00 0.000D+00 0.100D+01
 Coeff:     -0.846D-03 0.644D-02 0.135D+00 0.255D+00 0.604D+00
 Gap=     0.270 Goal=   None    Shift=    0.000
 RMSDP=3.36D-05 MaxDP=1.58D-03 DE=-1.23D-03 OVMax= 1.85D-03

 Cycle   6  Pass 0  IDiag  1:
 E= -324.944461157025     Delta-E=       -0.000025919721 Rises=F Damp=F
 DIIS: error= 1.38D-04 at cycle   6 NSaved=   6.
 NSaved= 6 IEnMin= 6 EnMin= -324.944461157025     IErMin= 6 ErrMin= 1.38D-04
 ErrMax= 1.38D-04  0.00D+00 EMaxC= 1.00D-01 BMatC= 6.73D-06 BMatP= 3.82D-05
 IDIUse=3 WtCom= 9.99D-01 WtEn= 1.38D-03
 Coeff-Com: -0.373D-03-0.385D-03 0.458D-01 0.959D-01 0.346D+00 0.513D+00
 Coeff-En:   0.000D+00 0.000D+00 0.000D+00 0.000D+00 0.106D+00 0.894D+00
 Coeff:     -0.372D-03-0.384D-03 0.458D-01 0.957D-01 0.346D+00 0.513D+00
 Gap=     0.269 Goal=   None    Shift=    0.000
 RMSDP=1.05D-05 MaxDP=5.30D-04 DE=-2.59D-05 OVMax= 5.62D-04

 Cycle   7  Pass 0  IDiag  1:
 E= -324.944466633970     Delta-E=       -0.000005476945 Rises=F Damp=F
 DIIS: error= 5.57D-06 at cycle   7 NSaved=   7.
 NSaved= 7 IEnMin= 7 EnMin= -324.944466633970     IErMin= 7 ErrMin= 5.57D-06
 ErrMax= 5.57D-06  0.00D+00 EMaxC= 1.00D-01 BMatC= 2.94D-08 BMatP= 6.73D-06
 IDIUse=1 WtCom= 1.00D+00 WtEn= 0.00D+00
 Coeff-Com: -0.847D-05-0.374D-03 0.435D-02 0.993D-02 0.484D-01 0.103D+00
 Coeff-Com:  0.834D+00
 Coeff:     -0.847D-05-0.374D-03 0.435D-02 0.993D-02 0.484D-01 0.103D+00
 Coeff:      0.834D+00
 Gap=     0.269 Goal=   None    Shift=    0.000
 RMSDP=9.80D-07 MaxDP=2.86D-05 DE=-5.48D-06 OVMax= 4.72D-05

 Initial convergence to 1.0D-05 achieved.  Increase integral accuracy.
 Cycle   8  Pass 1  IDiag  1:
 E= -324.944585956518     Delta-E=       -0.000119322548 Rises=F Damp=F
 DIIS: error= 2.02D-05 at cycle   1 NSaved=   1.
 NSaved= 1 IEnMin= 1 EnMin= -324.944585956518     IErMin= 1 ErrMin= 2.02D-05
 ErrMax= 2.02D-05  0.00D+00 EMaxC= 1.00D-01 BMatC= 1.74D-07 BMatP= 1.74D-07
 IDIUse=1 WtCom= 1.00D+00 WtEn= 0.00D+00
 Coeff-Com:  0.100D+01
 Coeff:      0.100D+01
 Gap=     0.269 Goal=   None    Shift=    0.000
 RMSDP=9.80D-07 MaxDP=2.86D-05 DE=-1.19D-04 OVMax= 7.33D-05

 Cycle   9  Pass 1  IDiag  1:
 E= -324.944586082338     Delta-E=       -0.000000125820 Rises=F Damp=F
 DIIS: error= 8.14D-06 at cycle   2 NSaved=   2.
 NSaved= 2 IEnMin= 2 EnMin= -324.944586082338     IErMin= 2 ErrMin= 8.14D-06
 ErrMax= 8.14D-06  0.00D+00 EMaxC= 1.00D-01 BMatC= 1.82D-08 BMatP= 1.74D-07
 IDIUse=1 WtCom= 1.00D+00 WtEn= 0.00D+00
 Coeff-Com:  0.116D+00 0.884D+00
 Coeff:      0.116D+00 0.884D+00
 Gap=     0.269 Goal=   None    Shift=    0.000
 RMSDP=1.19D-06 MaxDP=3.60D-05 DE=-1.26D-07 OVMax= 4.42D-05

 Cycle  10  Pass 1  IDiag  1:
 E= -324.944586076698     Delta-E=        0.000000005640 Rises=F Damp=F
 DIIS: error= 9.51D-06 at cycle   3 NSaved=   3.
 NSaved= 3 IEnMin= 2 EnMin= -324.944586082338     IErMin= 2 ErrMin= 8.14D-06
 ErrMax= 9.51D-06  0.00D+00 EMaxC= 1.00D-01 BMatC= 2.68D-08 BMatP= 1.82D-08
 IDIUse=1 WtCom= 1.00D+00 WtEn= 0.00D+00
 Coeff-Com: -0.205D-01 0.556D+00 0.465D+00
 Coeff:     -0.205D-01 0.556D+00 0.465D+00
 Gap=     0.269 Goal=   None    Shift=    0.000
 RMSDP=6.16D-07 MaxDP=2.23D-05 DE= 5.64D-09 OVMax= 2.43D-05

 Cycle  11  Pass 1  IDiag  1:
 E= -324.944586096391     Delta-E=       -0.000000019693 Rises=F Damp=F
 DIIS: error= 5.63D-07 at cycle   4 NSaved=   4.
 NSaved= 4 IEnMin= 4 EnMin= -324.944586096391     IErMin= 4 ErrMin= 5.63D-07
 ErrMax= 5.63D-07  0.00D+00 EMaxC= 1.00D-01 BMatC= 1.49D-10 BMatP= 1.82D-08
 IDIUse=1 WtCom= 1.00D+00 WtEn= 0.00D+00
 Coeff-Com: -0.936D-02 0.195D+00 0.176D+00 0.638D+00
 Coeff:     -0.936D-02 0.195D+00 0.176D+00 0.638D+00
 Gap=     0.269 Goal=   None    Shift=    0.000
 RMSDP=5.32D-08 MaxDP=1.92D-06 DE=-1.97D-08 OVMax= 2.26D-06

 Cycle  12  Pass 1  IDiag  1:
 E= -324.944586096501     Delta-E=       -0.000000000110 Rises=F Damp=F
 DIIS: error= 2.10D-07 at cycle   5 NSaved=   5.
 NSaved= 5 IEnMin= 5 EnMin= -324.944586096501     IErMin= 5 ErrMin= 2.10D-07
 ErrMax= 2.10D-07  0.00D+00 EMaxC= 1.00D-01 BMatC= 1.63D-11 BMatP= 1.49D-10
 IDIUse=1 WtCom= 1.00D+00 WtEn= 0.00D+00
 Coeff-Com: -0.312D-02 0.514D-01 0.486D-01 0.281D+00 0.622D+00
 Coeff:     -0.312D-02 0.514D-01 0.486D-01 0.281D+00 0.622D+00
 Gap=     0.269 Goal=   None    Shift=    0.000
 RMSDP=2.05D-08 MaxDP=8.33D-07 DE=-1.10D-10 OVMax= 8.69D-07

 Cycle  13  Pass 1  IDiag  1:
 E= -324.944586096511     Delta-E=       -0.000000000011 Rises=F Damp=F
 DIIS: error= 6.59D-08 at cycle   6 NSaved=   6.
 NSaved= 6 IEnMin= 6 EnMin= -324.944586096511     IErMin= 6 ErrMin= 6.59D-08
 ErrMax= 6.59D-08  0.00D+00 EMaxC= 1.00D-01 BMatC= 2.29D-12 BMatP= 1.63D-11
 IDIUse=1 WtCom= 1.00D+00 WtEn= 0.00D+00
 Coeff-Com: -0.291D-03 0.154D-02 0.220D-02 0.508D-01 0.306D+00 0.640D+00
 Coeff:     -0.291D-03 0.154D-02 0.220D-02 0.508D-01 0.306D+00 0.640D+00
 Gap=     0.269 Goal=   None    Shift=    0.000
 RMSDP=6.40D-09 MaxDP=2.38D-07 DE=-1.06D-11 OVMax= 2.73D-07

 SCF Done:  E(RB3LYP) =  -324.944586097     A.U. after   13 cycles
            NFock= 13  Conv=0.64D-08     -V/T= 2.0078
 KE= 3.224202215334D+02 PE=-1.307569964083D+03 EE= 3.866488360446D+02
 Leave Link  502 at Fri Aug 26 08:04:33 2022, MaxMem= 24159191040 cpu:        98.8
 (Enter /public/home/users/caep010/software/Gaussian09/g09/l601.exe)
 Copying SCF densities to generalized density rwf, IOpCl= 0 IROHF=0.

 **********************************************************************

            Population analysis using the SCF density.

 **********************************************************************

 Orbital symmetries:
       Occupied  (A) (A) (A) (A) (A) (A) (A) (A) (A) (A) (A) (A)
                 (A) (A) (A) (A) (A) (A) (A) (A) (A) (A) (A) (A)
                 (A)
       Virtual   (A) (A) (A) (A) (A) (A) (A) (A) (A) (A) (A) (A)
                 (A) (A) (A) (A) (A) (A) (A) (A) (A) (A) (A) (A)
                 (A) (A) (A) (A) (A) (A) (A) (A) (A) (A) (A) (A)
                 (A) (A) (A) (A) (A) (A) (A) (A) (A) (A) (A) (A)
                 (A) (A) (A) (A) (A) (A) (A) (A) (A) (A) (A) (A)
                 (A) (A) (A) (A) (A) (A) (A) (A) (A) (A) (A) (A)
                 (A) (A) (A) (A) (A) (A) (A) (A) (A) (A) (A) (A)
                 (A) (A) (A) (A) (A) (A) (A) (A) (A) (A) (A) (A)
                 (A) (A) (A) (A) (A) (A) (A) (A) (A) (A) (A) (A)
                 (A) (A) (A) (A) (A) (A) (A) (A) (A) (A) (A) (A)
                 (A) (A) (A) (A) (A) (A) (A) (A) (A) (A) (A) (A)
                 (A) (A) (A) (A) (A) (A) (A) (A) (A) (A) (A) (A)
                 (A) (A) (A) (A) (A) (A) (A) (A) (A) (A) (A) (A)
                 (A) (A) (A) (A) (A) (A) (A) (A) (A) (A) (A) (A)
                 (A) (A) (A) (A) (A) (A) (A) (A) (A) (A) (A) (A)
                 (A) (A) (A) (A) (A) (A) (A) (A)
 The electronic state is 1-A.
 Alpha  occ. eigenvalues --  -19.14529 -19.14199 -14.31829 -10.30729 -10.19722
 Alpha  occ. eigenvalues --  -10.18035  -1.06196  -0.99383  -0.87820  -0.73094
 Alpha  occ. eigenvalues --   -0.65188  -0.61429  -0.51840  -0.48566  -0.47438
 Alpha  occ. eigenvalues --   -0.43814  -0.41902  -0.40909  -0.37919  -0.36864
 Alpha  occ. eigenvalues --   -0.36653  -0.33776  -0.29773  -0.26968  -0.23099
 Alpha virt. eigenvalues --    0.03834   0.09322   0.11858   0.12634   0.14770
 Alpha virt. eigenvalues --    0.15658   0.16031   0.17586   0.19035   0.21369
 Alpha virt. eigenvalues --    0.23586   0.25847   0.26851   0.27756   0.44470
 Alpha virt. eigenvalues --    0.45649   0.49655   0.50292   0.51669   0.52740
 Alpha virt. eigenvalues --    0.53340   0.56931   0.60059   0.62180   0.66831
 Alpha virt. eigenvalues --    0.69225   0.70234   0.72290   0.72469   0.72829
 Alpha virt. eigenvalues --    0.74834   0.75332   0.77079   0.77897   0.81646
 Alpha virt. eigenvalues --    0.84335   0.85270   0.86360   0.87437   0.89426
 Alpha virt. eigenvalues --    0.92889   0.93652   0.96891   0.99403   1.00749
 Alpha virt. eigenvalues --    1.02584   1.06489   1.10668   1.16888   1.26868
 Alpha virt. eigenvalues --    1.27514   1.28646   1.30183   1.38793   1.39922
 Alpha virt. eigenvalues --    1.41161   1.46875   1.48705   1.49461   1.50435
 Alpha virt. eigenvalues --    1.54297   1.57243   1.57960   1.62939   1.63957
 Alpha virt. eigenvalues --    1.71033   1.75852   1.77814   1.81257   1.85052
 Alpha virt. eigenvalues --    1.88207   1.90759   1.93225   1.95492   1.98111
 Alpha virt. eigenvalues --    2.01981   2.06015   2.10129   2.22280   2.27747
 Alpha virt. eigenvalues --    2.34168   2.35075   2.38146   2.41629   2.47596
 Alpha virt. eigenvalues --    2.51552   2.52629   2.55840   2.59622   2.63683
 Alpha virt. eigenvalues --    2.70956   2.73922   2.79039   2.79265   2.82497
 Alpha virt. eigenvalues --    2.82899   2.84796   2.87317   2.88665   2.89875
 Alpha virt. eigenvalues --    2.92753   2.95592   2.98252   3.02053   3.05384
 Alpha virt. eigenvalues --    3.10512   3.17500   3.20904   3.25999   3.27285
 Alpha virt. eigenvalues --    3.30321   3.36997   3.41937   3.43961   3.47595
 Alpha virt. eigenvalues --    3.52455   3.53944   3.64589   3.65174   3.78640
 Alpha virt. eigenvalues --    3.82154   3.84897   3.90531   3.96596   3.98729
 Alpha virt. eigenvalues --    4.06387   4.09972   4.11876   4.16588   4.17907
 Alpha virt. eigenvalues --    4.24688   4.27843   4.29772   4.33595   4.34774
 Alpha virt. eigenvalues --    4.39523   4.43215   4.43886   4.45693   4.48419
 Alpha virt. eigenvalues --    4.53515   4.56136   4.59545   4.63669   4.65418
 Alpha virt. eigenvalues --    4.67459   4.70138   4.70984   4.73582   4.75481
 Alpha virt. eigenvalues --    4.76647   4.79510   4.80187   4.85471   4.86251
 Alpha virt. eigenvalues --    4.88598   4.90677   4.92256   5.05880   5.09613
 Alpha virt. eigenvalues --    5.18634   5.23089   5.30230   5.33158   5.39312
 Alpha virt. eigenvalues --    5.41087   5.41948   5.42562   5.46118   5.57530
 Alpha virt. eigenvalues --    5.61951   5.64321   5.80086   5.97132   6.00148
 Alpha virt. eigenvalues --    6.01531   6.05619   6.10058   6.21953   7.12380
 Alpha virt. eigenvalues --    7.15162  10.49848  11.40651  11.45127  11.90658
 Alpha virt. eigenvalues --   13.28634  13.41146  13.60733
          Condensed to atoms (all electrons):
               1          2          3          4          5          6
     1  C    4.942817   0.360321  -0.057049   0.006487  -0.003483  -0.002699
     2  N    0.360321   6.573091   0.365220  -0.059320  -0.053017  -0.086047
     3  C   -0.057049   0.365220   4.363248   0.371088   0.333565   0.352821
     4  C    0.006487  -0.059320   0.371088   5.174244  -0.054755  -0.055055
     5  O   -0.003483  -0.053017   0.333565  -0.054755   7.904553  -0.025003
     6  O   -0.002699  -0.086047   0.352821  -0.055055  -0.025003   7.916326
     7  H    0.374794  -0.024375   0.002204  -0.000184   0.000326   0.000206
     8  H    0.375409  -0.025786  -0.004191   0.000548   0.012501  -0.000572
     9  H    0.366614  -0.047824   0.003556   0.000533  -0.001020   0.014831
    10  H   -0.046298   0.316420  -0.026264  -0.002462   0.003947  -0.000496
    11  H   -0.000219  -0.000250  -0.012869   0.336979   0.003622  -0.000003
    12  H   -0.000198   0.002315  -0.011379   0.343761  -0.000346   0.003403
    13  H   -0.000227   0.003064  -0.010377   0.361511  -0.000385   0.000685
    14  H    0.000900   0.001568  -0.053878  -0.001575   0.306357   0.003999
    15  H    0.001008   0.002183  -0.054350  -0.002366   0.004255   0.302101
               7          8          9         10         11         12
     1  C    0.374794   0.375409   0.366614  -0.046298  -0.000219  -0.000198
     2  N   -0.024375  -0.025786  -0.047824   0.316420  -0.000250   0.002315
     3  C    0.002204  -0.004191   0.003556  -0.026264  -0.012869  -0.011379
     4  C   -0.000184   0.000548   0.000533  -0.002462   0.336979   0.343761
     5  O    0.000326   0.012501  -0.001020   0.003947   0.003622  -0.000346
     6  O    0.000206  -0.000572   0.014831  -0.000496  -0.000003   0.003403
     7  H    0.611314  -0.028974  -0.040381  -0.002445  -0.000007  -0.000012
     8  H   -0.028974   0.566906  -0.034156   0.005735  -0.000022  -0.000029
     9  H   -0.040381  -0.034156   0.637771  -0.004624  -0.000025  -0.000007
    10  H   -0.002445   0.005735  -0.004624   0.545778   0.002326   0.000043
    11  H   -0.000007  -0.000022  -0.000025   0.002326   0.628717  -0.025702
    12  H   -0.000012  -0.000029  -0.000007   0.000043  -0.025702   0.599753
    13  H    0.000002  -0.000005   0.000010  -0.000270  -0.027553  -0.027194
    14  H   -0.000109  -0.000019   0.000172  -0.000107  -0.000094   0.002423
    15  H   -0.000043   0.000070  -0.001097   0.003749   0.002358  -0.000158
              13         14         15
     1  C   -0.000227   0.000900   0.001008
     2  N    0.003064   0.001568   0.002183
     3  C   -0.010377  -0.053878  -0.054350
     4  C    0.361511  -0.001575  -0.002366
     5  O   -0.000385   0.306357   0.004255
     6  O    0.000685   0.003999   0.302101
     7  H    0.000002  -0.000109  -0.000043
     8  H   -0.000005  -0.000019   0.000070
     9  H    0.000010   0.000172  -0.001097
    10  H   -0.000270  -0.000107   0.003749
    11  H   -0.027553  -0.000094   0.002358
    12  H   -0.027194   0.002423  -0.000158
    13  H    0.565226   0.000057  -0.000068
    14  H    0.000057   0.438225  -0.000377
    15  H   -0.000068  -0.000377   0.455541
 Mulliken charges:
               1
     1  C   -0.318176
     2  N   -0.327563
     3  C    0.438656
     4  C   -0.419433
     5  O   -0.431117
     6  O   -0.424497
     7  H    0.107684
     8  H    0.132584
     9  H    0.105645
    10  H    0.204969
    11  H    0.092742
    12  H    0.113329
    13  H    0.135523
    14  H    0.302460
    15  H    0.287194
 Sum of Mulliken charges =  -0.00000
 Mulliken charges with hydrogens summed into heavy atoms:
               1
     1  C    0.027737
     2  N   -0.122594
     3  C    0.438656
     4  C   -0.077840
     5  O   -0.128657
     6  O   -0.137303
 Electronic spatial extent (au):  <R**2>=            586.8965
 Charge=             -0.0000 electrons
 Dipole moment (field-independent basis, Debye):
    X=              0.1188    Y=             -1.3675    Z=             -1.9869  Tot=              2.4150
 Quadrupole moment (field-independent basis, Debye-Ang):
   XX=            -36.5884   YY=            -30.5868   ZZ=            -42.0468
   XY=             -0.2916   XZ=              1.2860   YZ=             -1.0926
 Traceless Quadrupole moment (field-independent basis, Debye-Ang):
   XX=             -0.1810   YY=              5.8205   ZZ=             -5.6395
   XY=             -0.2916   XZ=              1.2860   YZ=             -1.0926
 Octapole moment (field-independent basis, Debye-Ang**2):
  XXX=             -0.2062  YYY=             -1.5239  ZZZ=              3.5331  XYY=             -0.6941
  XXY=              0.6403  XXZ=              1.0855  XZZ=             -0.1787  YZZ=             -0.9066
  YYZ=             -2.2169  XYZ=              2.3955
 Hexadecapole moment (field-independent basis, Debye-Ang**3):
 XXXX=           -421.2118 YYYY=           -120.4704 ZZZZ=           -168.0307 XXXY=             -2.4818
 XXXZ=            -11.5016 YYYX=             -0.4134 YYYZ=            -12.8194 ZZZX=             -1.2725
 ZZZY=              1.1900 XXYY=            -98.0176 XXZZ=            -98.7008 YYZZ=            -50.8317
 XXYZ=              0.4525 YYXZ=              0.0347 ZZXY=             -3.6005
 N-N= 2.735563204089D+02 E-N=-1.307569967108D+03  KE= 3.224202215334D+02
 No NMR shielding tensors so no spin-rotation constants.
 Leave Link  601 at Fri Aug 26 08:04:34 2022, MaxMem= 24159191040 cpu:        13.4
 (Enter /public/home/users/caep010/software/Gaussian09/g09/l701.exe)
 Compute integral first derivatives.
 ... and contract with generalized density number  0.
 Leave Link  701 at Fri Aug 26 08:04:34 2022, MaxMem= 24159191040 cpu:        14.0
 (Enter /public/home/users/caep010/software/Gaussian09/g09/l702.exe)
 L702 exits ... SP integral derivatives will be done elsewhere.
 Leave Link  702 at Fri Aug 26 08:04:34 2022, MaxMem= 24159191040 cpu:         0.5
 (Enter /public/home/users/caep010/software/Gaussian09/g09/l703.exe)
 Compute integral first derivatives, UseDBF=F ICtDFT=           0.
 Integral derivatives from FoFJK, PRISM(SPDF).
 Calling FoFJK, ICntrl=      2127 FMM=F ISym2X=0 I1Cent= 0 IOpClX= 0 NMat=1 NMatS=1 NMatT=0.
 FoFJK:  IHMeth= 1 ICntrl=    2127 DoSepK=F KAlg= 0 I1Cent=   0 FoldK=F
 IRaf=         0 NMat=   1 IRICut=       1 DoRegI=T DoRafI=F ISym2E= 0.
 FoFCou: FMM=F IPFlag=           0 FMFlag=      100000 FMFlg1=         800
         NFxFlg=           0 DoJE=F BraDBF=F KetDBF=F FulRan=T
         wScrn=  0.000000 ICntrl=    2127 IOpCl=  0 I1Cent=           0 NGrid=           0
         NMat0=    1 NMatS0=      1 NMatT0=    0 NMatD0=    1 NMtDS0=    0 NMtDT0=    0
 Symmetry not used in FoFCou.
 Leave Link  703 at Fri Aug 26 08:04:36 2022, MaxMem= 24159191040 cpu:        50.2
 (Enter /public/home/users/caep010/software/Gaussian09/g09/l716.exe)
 Dipole        = 4.67205181D-02-5.38029244D-01-7.81723826D-01
 ***** Axes restored to original set *****
 -------------------------------------------------------------------
 Center     Atomic                   Forces (Hartrees/Bohr)
 Number     Number              X              Y              Z
 -------------------------------------------------------------------
      1        6           0.011111369    0.000066041    0.003627011
      2        7          -0.004568547   -0.000911086    0.007883998
      3        6          -0.008966036   -0.020824338    0.017258806
      4        6          -0.007863633   -0.005138356    0.003371577
      5        8           0.006626214   -0.010735555   -0.002086475
      6        8           0.000726981    0.011353989    0.009687757
      7        1          -0.006730116    0.006034239   -0.003983448
      8        1          -0.003922519    0.001917164    0.012086067
      9        1           0.002335910   -0.006119600   -0.007910455
     10        1          -0.001717526   -0.001382609   -0.024219074
     11        1          -0.000455683   -0.001425686   -0.009006721
     12        1           0.001529906    0.009441479    0.005066242
     13        1           0.009585738   -0.006188260    0.004897029
     14        1           0.002059380    0.025617632    0.013382943
     15        1           0.000248561   -0.001705055   -0.030055257
 -------------------------------------------------------------------
 Cartesian Forces:  Max     0.030055257 RMS     0.010087380
 Leave Link  716 at Fri Aug 26 08:04:36 2022, MaxMem= 24159191040 cpu:         0.7
 (Enter /public/home/users/caep010/software/Gaussian09/g09/l103.exe)

 GradGradGradGradGradGradGradGradGradGradGradGradGradGradGradGradGradGrad
 Berny optimization.
 FormGI is forming the generalized inverse of G from B-inverse, IUseBI=4.
 Internal  Forces:  Max     0.029977089 RMS     0.008319203
 Search for a local minimum.
 Step number   1 out of a maximum of   74
 All quantities printed in internal units (Hartrees-Bohrs-Radians)
 RMS Force = .83192D-02 SwitMx=.10000D-02 MixMth= 1
 Mixed Optimization -- RFO/linear search
 Second derivative matrix not updated -- first step.
 ITU=  0
     Eigenvalues ---    0.00261   0.00634   0.00809   0.01578   0.01601
     Eigenvalues ---    0.02874   0.05555   0.05601   0.06253   0.07103
     Eigenvalues ---    0.07226   0.07544   0.09193   0.10826   0.16000
     Eigenvalues ---    0.16000   0.16000   0.16000   0.16000   0.16000
     Eigenvalues ---    0.16000   0.16000   0.17758   0.19032   0.23516
     Eigenvalues ---    0.28681   0.32432   0.32488   0.32489   0.32509
     Eigenvalues ---    0.32539   0.32558   0.34578   0.36132   0.40228
     Eigenvalues ---    0.44227   0.44507   0.48855   0.48918
 RFO step:  Lambda=-1.64814614D-02 EMin= 2.60870261D-03
 Linear search not attempted -- first point.
 Iteration  1 RMS(Cart)=  0.06422462 RMS(Int)=  0.00181531
 Iteration  2 RMS(Cart)=  0.00238693 RMS(Int)=  0.00072449
 Iteration  3 RMS(Cart)=  0.00000272 RMS(Int)=  0.00072448
 Iteration  4 RMS(Cart)=  0.00000000 RMS(Int)=  0.00072448
 ITry= 1 IFail=0 DXMaxC= 2.04D-01 DCOld= 1.00D+10 DXMaxT= 3.00D-01 DXLimC= 3.00D+00 Rises=F
 Variable       Old X    -DE/DX   Delta X   Delta X   Delta X     New X
                                 (Linear)    (Quad)   (Total)
    R1        2.77176   0.00232   0.00000   0.00614   0.00614   2.77790
    R2        2.09835  -0.00983   0.00000  -0.02874  -0.02874   2.06961
    R3        2.09869  -0.01255   0.00000  -0.03671  -0.03671   2.06198
    R4        2.10061  -0.00797   0.00000  -0.02339  -0.02339   2.07722
    R5        2.79666  -0.00699   0.00000  -0.01930  -0.01930   2.77736
    R6        1.97945  -0.02392   0.00000  -0.05712  -0.05712   1.92233
    R7        2.90674  -0.00065   0.00000  -0.00214  -0.00214   2.90460
    R8        2.65852  -0.01037   0.00000  -0.02247  -0.02247   2.63606
    R9        2.66184   0.00225   0.00000   0.00490   0.00490   2.66675
   R10        2.09958  -0.00889   0.00000  -0.02604  -0.02604   2.07354
   R11        2.09961  -0.01071   0.00000  -0.03137  -0.03137   2.06824
   R12        2.09923  -0.01223   0.00000  -0.03582  -0.03582   2.06341
   R13        1.87738  -0.02861   0.00000  -0.05665  -0.05665   1.82073
   R14        1.87673  -0.02998   0.00000  -0.05928  -0.05928   1.81745
    A1        1.90556  -0.00143   0.00000  -0.00429  -0.00471   1.90086
    A2        1.93246  -0.00433   0.00000  -0.03060  -0.03047   1.90199
    A3        1.93955   0.00899   0.00000   0.05313   0.05306   1.99260
    A4        1.87970   0.00170   0.00000   0.00497   0.00475   1.88445
    A5        1.88833  -0.00094   0.00000   0.00665   0.00609   1.89443
    A6        1.91667  -0.00412   0.00000  -0.03034  -0.02993   1.88674
    A7        1.95798   0.00636   0.00000   0.02836   0.02821   1.98620
    A8        1.87731   0.00083   0.00000   0.02067   0.02073   1.89804
    A9        1.90629  -0.00379   0.00000  -0.01706  -0.01754   1.88875
   A10        1.91308  -0.00799   0.00000  -0.00677  -0.00830   1.90478
   A11        1.92261  -0.00278   0.00000  -0.02978  -0.02891   1.89370
   A12        1.93388   0.01137   0.00000   0.07270   0.07080   2.00468
   A13        1.89722   0.01132   0.00000   0.04945   0.04998   1.94720
   A14        1.90717   0.00301   0.00000   0.03217   0.03137   1.93855
   A15        1.88932  -0.01485   0.00000  -0.11849  -0.11748   1.77184
   A16        1.93055   0.00294   0.00000   0.01618   0.01617   1.94672
   A17        1.92580   0.00144   0.00000   0.00893   0.00891   1.93471
   A18        1.92009  -0.00346   0.00000  -0.01993  -0.01987   1.90023
   A19        1.89291  -0.00218   0.00000  -0.01177  -0.01186   1.88105
   A20        1.89570   0.00006   0.00000  -0.00119  -0.00111   1.89460
   A21        1.89806   0.00119   0.00000   0.00768   0.00773   1.90578
   A22        1.87639  -0.00850   0.00000  -0.04817  -0.04817   1.82822
   A23        1.88189  -0.00490   0.00000  -0.02777  -0.02777   1.85411
    D1       -3.12622   0.00129   0.00000   0.01513   0.01545  -3.11078
    D2        1.06026   0.00159   0.00000   0.00560   0.00553   1.06579
    D3       -1.05961  -0.00012   0.00000   0.00022   0.00066  -1.05895
    D4        3.12687   0.00019   0.00000  -0.00932  -0.00926   3.11761
    D5        1.07542  -0.00217   0.00000  -0.02304  -0.02322   1.05220
    D6       -1.02128  -0.00187   0.00000  -0.03257  -0.03314  -1.05442
    D7       -3.13020   0.00012   0.00000   0.00886   0.00856  -3.12164
    D8        1.06619  -0.00712   0.00000  -0.02941  -0.02978   1.03640
    D9       -1.02398   0.00592   0.00000   0.09104   0.09208  -0.93190
   D10       -1.05043   0.00264   0.00000   0.04116   0.04061  -1.00982
   D11       -3.13723  -0.00459   0.00000   0.00289   0.00227  -3.13496
   D12        1.05579   0.00845   0.00000   0.12334   0.12413   1.17992
   D13        1.07114   0.00414   0.00000   0.03777   0.03751   1.10865
   D14       -1.02343   0.00403   0.00000   0.03623   0.03589  -0.98754
   D15       -3.11769   0.00385   0.00000   0.03375   0.03343  -3.08425
   D16       -3.10974   0.00287   0.00000   0.02763   0.02764  -3.08209
   D17        1.07889   0.00276   0.00000   0.02609   0.02602   1.10491
   D18       -1.01538   0.00258   0.00000   0.02361   0.02357  -0.99180
   D19       -1.05120  -0.00676   0.00000  -0.06809  -0.06771  -1.11891
   D20        3.13742  -0.00688   0.00000  -0.06963  -0.06933   3.06809
   D21        1.04316  -0.00706   0.00000  -0.07211  -0.07178   0.97138
   D22        0.92444  -0.00277   0.00000  -0.00731  -0.00958   0.91486
   D23       -1.17196   0.00167   0.00000  -0.01172  -0.01215  -1.18411
   D24        3.04141   0.00013   0.00000  -0.01089  -0.00819   3.03322
   D25       -0.99950  -0.00234   0.00000  -0.06093  -0.06310  -1.06259
   D26        1.11022  -0.00311   0.00000  -0.00224  -0.00076   1.10947
   D27       -3.10949   0.00364   0.00000   0.00714   0.00783  -3.10166
         Item               Value     Threshold  Converged?
 Maximum Force            0.029977     0.000450     NO 
 RMS     Force            0.008319     0.000300     NO 
 Maximum Displacement     0.203861     0.001800     NO 
 RMS     Displacement     0.064700     0.001200     NO 
 Predicted change in Energy=-9.151903D-03
 Lowest energy point so far.  Saving SCF results.
 GradGradGradGradGradGradGradGradGradGradGradGradGradGradGradGradGradGrad

 Leave Link  103 at Fri Aug 26 08:04:36 2022, MaxMem= 24159191040 cpu:         2.6
 (Enter /public/home/users/caep010/software/Gaussian09/g09/l202.exe)
                          Input orientation:                          
 ---------------------------------------------------------------------
 Center     Atomic      Atomic             Coordinates (Angstroms)
 Number     Number       Type             X           Y           Z
 ---------------------------------------------------------------------
      1          6           0        1.949962   -0.309300    0.047563
      2          7           0        0.550453   -0.664853    0.323000
      3          6           0       -0.422911    0.291855   -0.222290
      4          6           0       -1.842178   -0.165671    0.150367
      5          8           0       -0.251916    0.357652   -1.605146
      6          8           0       -0.208152    1.635312    0.152458
      7          1           0        2.601505   -1.087345    0.459358
      8          1           0        2.102469   -0.279320   -1.032463
      9          1           0        2.258017    0.660622    0.463051
     10          1           0        0.417802   -0.714205    1.330358
     11          1           0       -1.995121   -0.159589    1.236911
     12          1           0       -2.030299   -1.182598   -0.207859
     13          1           0       -2.563926    0.514910   -0.305881
     14          1           0       -0.290499   -0.558493   -1.900947
     15          1           0       -0.275306    1.660924    1.111521
 ---------------------------------------------------------------------
                    Distance matrix (angstroms):
                    1          2          3          4          5
     1  C    0.000000
     2  N    1.470002   0.000000
     3  C    2.462667   1.469717   0.000000
     4  C    3.796251   2.450239   1.537051   0.000000
     5  O    2.832761   2.325308   1.394941   2.425826   0.000000
     6  O    2.906884   2.428028   1.411181   2.431786   2.173362
     7  H    1.095189   2.098549   3.393218   4.548767   3.806863
     8  H    1.091152   2.096346   2.712962   4.119739   2.505360
     9  H    1.099217   2.166165   2.791604   4.194298   3.266342
    10  H    2.038878   1.017253   2.032159   2.607831   3.196026
    11  H    4.123183   2.751449   2.192012   1.097272   3.373958
    12  H    4.082936   2.685173   2.181265   1.094467   2.736317
    13  H    4.602110   3.389201   2.154225   1.091911   2.656729
    14  H    2.979673   2.380011   1.886403   2.601905   0.963488
    15  H    3.156835   2.590923   1.917078   2.591400   3.013195
                    6          7          8          9         10
     6  O    0.000000
     7  H    3.924439   0.000000
     8  H    3.226271   1.768466   0.000000
     9  H    2.669921   1.781400   1.773203   0.000000
    10  H    2.701758   2.380427   2.934306   2.455354   0.000000
    11  H    2.755171   4.753345   4.685578   4.400090   2.477606
    12  H    3.375006   4.680583   4.309949   4.715637   2.928942
    13  H    2.648592   5.462095   4.788942   4.885040   3.616449
    14  H    3.005999   3.770201   2.560957   3.683702   3.311687
    15  H    0.961753   4.031668   3.743666   2.799794   2.483853
                   11         12         13         14         15
    11  H    0.000000
    12  H    1.770634   0.000000
    13  H    1.777271   1.782105   0.000000
    14  H    3.593190   2.506583   2.977398   0.000000
    15  H    2.507539   3.592545   2.925774   3.741792   0.000000
 Stoichiometry    C3H9NO2
 Framework group  C1[X(C3H9NO2)]
 Deg. of freedom    39
 Full point group                 C1      NOp   1
 RotChk:  IX=3 Diff= 1.55D+00
 Largest Abelian subgroup         C1      NOp   1
 Largest concise Abelian subgroup C1      NOp   1
                         Standard orientation:                         
 ---------------------------------------------------------------------
 Center     Atomic      Atomic             Coordinates (Angstroms)
 Number     Number       Type             X           Y           Z
 ---------------------------------------------------------------------
      1          6           0        2.046690   -0.130830   -0.007044
      2          7           0        0.761817   -0.828568   -0.159264
      3          6           0       -0.409733    0.044228    0.001247
      4          6           0       -1.688181   -0.795627   -0.149549
      5          8           0       -0.343808    1.054565   -0.958301
      6          8           0       -0.432519    0.792653    1.197397
      7          1           0        2.860260   -0.845088   -0.172508
      8          1           0        2.120845    0.646425   -0.769269
      9          1           0        2.189418    0.340022    0.975913
     10          1           0        0.706145   -1.567067    0.538104
     11          1           0       -1.769247   -1.551550    0.641663
     12          1           0       -1.700762   -1.316614   -1.111979
     13          1           0       -2.554705   -0.134091   -0.088104
     14          1           0       -0.225215    0.591173   -1.794670
     15          1           0       -0.441503    0.152401    1.915007
 ---------------------------------------------------------------------
 Rotational constants (GHZ):      4.9556175      2.8212201      2.7439572
 Leave Link  202 at Fri Aug 26 08:04:36 2022, MaxMem= 24159191040 cpu:         0.2
 (Enter /public/home/users/caep010/software/Gaussian09/g09/l301.exe)
 Standard basis: GTBas3 (6D, 7F)
 Ernie: Thresh=  0.10000D-02 Tol=  0.10000D-05 Strict=F.
 There are   231 symmetry adapted cartesian basis functions of A   symmetry.
 There are   213 symmetry adapted basis functions of A   symmetry.
   213 basis functions,   327 primitive gaussians,   231 cartesian basis functions
    25 alpha electrons       25 beta electrons
       nuclear repulsion energy       275.0443546712 Hartrees.
 IExCor=  402 DFT=T Ex+Corr=B3LYP ExCW=0 ScaHFX=  0.200000
 ScaDFX=  0.800000  0.720000  1.000000  0.810000 ScalE2=  1.000000  1.000000
 IRadAn=      0 IRanWt=     -1 IRanGd=            0 ICorTp=0 IEmpDi=  4
 NAtoms=   15 NActive=   15 NUniq=   15 SFac= 1.00D+00 NAtFMM=   60 NAOKFM=F Big=F
 Integral buffers will be    131072 words long.
 Raffenetti 2 integral format.
 Two-electron integral symmetry is turned on.
 Leave Link  301 at Fri Aug 26 08:04:36 2022, MaxMem= 24159191040 cpu:         1.7
 (Enter /public/home/users/caep010/software/Gaussian09/g09/l302.exe)
 NPDir=0 NMtPBC=     1 NCelOv=     1 NCel=       1 NClECP=     1 NCelD=      1
         NCelK=      1 NCelE2=     1 NClLst=     1 CellRange=     0.0.
 One-electron integrals computed using PRISM.
 NBasis=   213 RedAO= T EigKep=  4.12D-04  NBF=   213
 NBsUse=   213 1.00D-06 EigRej= -1.00D+00 NBFU=   213
 Precomputing XC quadrature grid using
 IXCGrd= 4 IRadAn=           0 IRanWt=          -1 IRanGd=           0 AccXCQ= 0.00D+00.
 Generated NRdTot=       0 NPtTot=           0 NUsed=           0 NTot=          32
 NSgBfM=   231   231   231   231   231 MxSgAt=    15 MxSgA2=    15.
 Leave Link  302 at Fri Aug 26 08:04:37 2022, MaxMem= 24159191040 cpu:        14.6
 (Enter /public/home/users/caep010/software/Gaussian09/g09/l303.exe)
 DipDrv:  MaxL=1.
 Leave Link  303 at Fri Aug 26 08:04:37 2022, MaxMem= 24159191040 cpu:         0.8
 (Enter /public/home/users/caep010/software/Gaussian09/g09/l401.exe)
 Initial guess from the checkpoint file:  "G4.Frag_854.chk"
 B after Tr=     0.000000   -0.000000   -0.000000
         Rot=    0.836579    0.547649    0.011059    0.009720 Ang=  66.44 deg.
 Guess basis will be translated and rotated to current coordinates.
 JPrj=2 DoOrth=T DoCkMO=T.
 Generating alternative initial guess.
 ExpMin= 1.61D-01 ExpMax= 5.48D+03 ExpMxC= 8.25D+02 IAcc=1 IRadAn=         1 AccDes= 0.00D+00
 Harris functional with IExCor=  402 and IRadAn=       1 diagonalized for initial guess.
 HarFok:  IExCor=  402 AccDes= 0.00D+00 IRadAn=         1 IDoV= 1 UseB2=F ITyADJ=14
 ICtDFT=  3500011 ScaDFX=  1.000000  1.000000  1.000000  1.000000
 FoFCou: FMM=F IPFlag=           0 FMFlag=      100000 FMFlg1=           0
         NFxFlg=           0 DoJE=T BraDBF=F KetDBF=T FulRan=T
         wScrn=  0.000000 ICntrl=     500 IOpCl=  0 I1Cent=   200000004 NGrid=           0
         NMat0=    1 NMatS0=      1 NMatT0=    0 NMatD0=    1 NMtDS0=    0 NMtDT0=    0
 Petite list used in FoFCou.
 Harris En= -325.002147513328    
 Leave Link  401 at Fri Aug 26 08:04:38 2022, MaxMem= 24159191040 cpu:        15.9
 (Enter /public/home/users/caep010/software/Gaussian09/g09/l502.exe)
 Closed shell SCF:
 Using DIIS extrapolation, IDIIS=  1040.
 Integral symmetry usage will be decided dynamically.
 Keep R1 ints in memory in canonical form, NReq=266157421.
 IVT=      187717 IEndB=      187717 NGot= 24159191040 MDV= 23899277088
 LenX= 23899277088 LenY= 23899223286
 Requested convergence on RMS density matrix=1.00D-08 within 128 cycles.
 Requested convergence on MAX density matrix=1.00D-06.
 Requested convergence on             energy=1.00D-06.
 No special actions if energy rises.
 FoFCou: FMM=F IPFlag=           0 FMFlag=           0 FMFlg1=           0
         NFxFlg=           0 DoJE=F BraDBF=F KetDBF=F FulRan=T
         wScrn=  0.000000 ICntrl=     600 IOpCl=  0 I1Cent=           0 NGrid=           0
         NMat0=    1 NMatS0=  22791 NMatT0=    0 NMatD0=    1 NMtDS0=    0 NMtDT0=    0
 Symmetry not used in FoFCou.
 Integral accuracy reduced to 1.0D-05 until final iterations.

 Cycle   1  Pass 0  IDiag  1:
 E= -324.946894424803    
 DIIS: error= 2.07D-03 at cycle   1 NSaved=   1.
 NSaved= 1 IEnMin= 1 EnMin= -324.946894424803     IErMin= 1 ErrMin= 2.07D-03
 ErrMax= 2.07D-03  0.00D+00 EMaxC= 1.00D-01 BMatC= 4.34D-03 BMatP= 4.34D-03
 IDIUse=3 WtCom= 9.79D-01 WtEn= 2.07D-02
 Coeff-Com:  0.100D+01
 Coeff-En:   0.100D+01
 Coeff:      0.100D+01
 Gap=     0.909 Goal=   None    Shift=    0.000
 GapD=    0.909 DampG=2.000 DampE=1.000 DampFc=2.0000 IDamp=-1.
 RMSDP=5.10D-04 MaxDP=1.30D-02              OVMax= 1.87D-02

 Cycle   2  Pass 0  IDiag  1:
 E= -324.952049210017     Delta-E=       -0.005154785214 Rises=F Damp=F
 DIIS: error= 8.86D-04 at cycle   2 NSaved=   2.
 NSaved= 2 IEnMin= 2 EnMin= -324.952049210017     IErMin= 2 ErrMin= 8.86D-04
 ErrMax= 8.86D-04  0.00D+00 EMaxC= 1.00D-01 BMatC= 3.21D-04 BMatP= 4.34D-03
 IDIUse=3 WtCom= 9.91D-01 WtEn= 8.86D-03
 Coeff-Com:  0.707D-01 0.929D+00
 Coeff-En:   0.000D+00 0.100D+01
 Coeff:      0.701D-01 0.930D+00
 Gap=     0.285 Goal=   None    Shift=    0.000
 RMSDP=1.57D-04 MaxDP=4.72D-03 DE=-5.15D-03 OVMax= 6.04D-03

 Cycle   3  Pass 0  IDiag  1:
 E= -324.952014261754     Delta-E=        0.000034948263 Rises=F Damp=F
 DIIS: error= 8.64D-04 at cycle   3 NSaved=   3.
 NSaved= 3 IEnMin= 2 EnMin= -324.952049210017     IErMin= 3 ErrMin= 8.64D-04
 ErrMax= 8.64D-04  0.00D+00 EMaxC= 1.00D-01 BMatC= 3.78D-04 BMatP= 3.21D-04
 IDIUse=3 WtCom= 2.54D-01 WtEn= 7.46D-01
 Coeff-Com: -0.207D-01 0.529D+00 0.492D+00
 Coeff-En:   0.000D+00 0.526D+00 0.474D+00
 Coeff:     -0.525D-02 0.527D+00 0.478D+00
 Gap=     0.288 Goal=   None    Shift=    0.000
 RMSDP=8.84D-05 MaxDP=3.02D-03 DE= 3.49D-05 OVMax= 3.57D-03

 Cycle   4  Pass 0  IDiag  1:
 E= -324.952347082242     Delta-E=       -0.000332820488 Rises=F Damp=F
 DIIS: error= 1.69D-04 at cycle   4 NSaved=   4.
 NSaved= 4 IEnMin= 4 EnMin= -324.952347082242     IErMin= 4 ErrMin= 1.69D-04
 ErrMax= 1.69D-04  0.00D+00 EMaxC= 1.00D-01 BMatC= 1.05D-05 BMatP= 3.21D-04
 IDIUse=3 WtCom= 9.98D-01 WtEn= 1.69D-03
 Coeff-Com: -0.120D-01 0.199D+00 0.229D+00 0.584D+00
 Coeff-En:   0.000D+00 0.000D+00 0.000D+00 0.100D+01
 Coeff:     -0.120D-01 0.199D+00 0.229D+00 0.584D+00
 Gap=     0.288 Goal=   None    Shift=    0.000
 RMSDP=1.57D-05 MaxDP=5.82D-04 DE=-3.33D-04 OVMax= 6.87D-04

 Cycle   5  Pass 0  IDiag  1:
 E= -324.952353947131     Delta-E=       -0.000006864889 Rises=F Damp=F
 DIIS: error= 6.00D-05 at cycle   5 NSaved=   5.
 NSaved= 5 IEnMin= 5 EnMin= -324.952353947131     IErMin= 5 ErrMin= 6.00D-05
 ErrMax= 6.00D-05  0.00D+00 EMaxC= 1.00D-01 BMatC= 1.42D-06 BMatP= 1.05D-05
 IDIUse=1 WtCom= 1.00D+00 WtEn= 0.00D+00
 Coeff-Com: -0.373D-02 0.279D-01 0.516D-01 0.301D+00 0.624D+00
 Coeff:     -0.373D-02 0.279D-01 0.516D-01 0.301D+00 0.624D+00
 Gap=     0.288 Goal=   None    Shift=    0.000
 RMSDP=5.28D-06 MaxDP=1.70D-04 DE=-6.86D-06 OVMax= 1.87D-04

 Initial convergence to 1.0D-05 achieved.  Increase integral accuracy.
 Cycle   6  Pass 1  IDiag  1:
 E= -324.952332667020     Delta-E=        0.000021280110 Rises=F Damp=F
 DIIS: error= 1.58D-05 at cycle   1 NSaved=   1.
 NSaved= 1 IEnMin= 1 EnMin= -324.952332667020     IErMin= 1 ErrMin= 1.58D-05
 ErrMax= 1.58D-05  0.00D+00 EMaxC= 1.00D-01 BMatC= 1.59D-07 BMatP= 1.59D-07
 IDIUse=1 WtCom= 1.00D+00 WtEn= 0.00D+00
 Coeff-Com:  0.100D+01
 Coeff:      0.100D+01
 Gap=     0.288 Goal=   None    Shift=    0.000
 RMSDP=5.28D-06 MaxDP=1.70D-04 DE= 2.13D-05 OVMax= 7.65D-05

 Cycle   7  Pass 1  IDiag  1:
 E= -324.952332763439     Delta-E=       -0.000000096419 Rises=F Damp=F
 DIIS: error= 9.05D-06 at cycle   2 NSaved=   2.
 NSaved= 2 IEnMin= 2 EnMin= -324.952332763439     IErMin= 2 ErrMin= 9.05D-06
 ErrMax= 9.05D-06  0.00D+00 EMaxC= 1.00D-01 BMatC= 2.83D-08 BMatP= 1.59D-07
 IDIUse=1 WtCom= 1.00D+00 WtEn= 0.00D+00
 Coeff-Com:  0.202D+00 0.798D+00
 Coeff:      0.202D+00 0.798D+00
 Gap=     0.288 Goal=   None    Shift=    0.000
 RMSDP=1.52D-06 MaxDP=5.16D-05 DE=-9.64D-08 OVMax= 5.01D-05

 Cycle   8  Pass 1  IDiag  1:
 E= -324.952332769753     Delta-E=       -0.000000006314 Rises=F Damp=F
 DIIS: error= 6.95D-06 at cycle   3 NSaved=   3.
 NSaved= 3 IEnMin= 3 EnMin= -324.952332769753     IErMin= 3 ErrMin= 6.95D-06
 ErrMax= 6.95D-06  0.00D+00 EMaxC= 1.00D-01 BMatC= 2.20D-08 BMatP= 2.83D-08
 IDIUse=1 WtCom= 1.00D+00 WtEn= 0.00D+00
 Coeff-Com: -0.136D-01 0.470D+00 0.544D+00
 Coeff:     -0.136D-01 0.470D+00 0.544D+00
 Gap=     0.288 Goal=   None    Shift=    0.000
 RMSDP=6.69D-07 MaxDP=2.47D-05 DE=-6.31D-09 OVMax= 2.62D-05

 Cycle   9  Pass 1  IDiag  1:
 E= -324.952332787598     Delta-E=       -0.000000017845 Rises=F Damp=F
 DIIS: error= 8.48D-07 at cycle   4 NSaved=   4.
 NSaved= 4 IEnMin= 4 EnMin= -324.952332787598     IErMin= 4 ErrMin= 8.48D-07
 ErrMax= 8.48D-07  0.00D+00 EMaxC= 1.00D-01 BMatC= 3.98D-10 BMatP= 2.20D-08
 IDIUse=1 WtCom= 1.00D+00 WtEn= 0.00D+00
 Coeff-Com: -0.111D-01 0.219D+00 0.272D+00 0.521D+00
 Coeff:     -0.111D-01 0.219D+00 0.272D+00 0.521D+00
 Gap=     0.288 Goal=   None    Shift=    0.000
 RMSDP=9.50D-08 MaxDP=3.42D-06 DE=-1.78D-08 OVMax= 4.20D-06

 Cycle  10  Pass 1  IDiag  1:
 E= -324.952332787891     Delta-E=       -0.000000000292 Rises=F Damp=F
 DIIS: error= 2.26D-07 at cycle   5 NSaved=   5.
 NSaved= 5 IEnMin= 5 EnMin= -324.952332787891     IErMin= 5 ErrMin= 2.26D-07
 ErrMax= 2.26D-07  0.00D+00 EMaxC= 1.00D-01 BMatC= 3.43D-11 BMatP= 3.98D-10
 IDIUse=1 WtCom= 1.00D+00 WtEn= 0.00D+00
 Coeff-Com: -0.449D-02 0.659D-01 0.861D-01 0.266D+00 0.587D+00
 Coeff:     -0.449D-02 0.659D-01 0.861D-01 0.266D+00 0.587D+00
 Gap=     0.288 Goal=   None    Shift=    0.000
 RMSDP=2.48D-08 MaxDP=8.62D-07 DE=-2.92D-10 OVMax= 1.16D-06

 Cycle  11  Pass 1  IDiag  1:
 E= -324.952332787909     Delta-E=       -0.000000000019 Rises=F Damp=F
 DIIS: error= 4.37D-08 at cycle   6 NSaved=   6.
 NSaved= 6 IEnMin= 6 EnMin= -324.952332787909     IErMin= 6 ErrMin= 4.37D-08
 ErrMax= 4.37D-08  0.00D+00 EMaxC= 1.00D-01 BMatC= 1.19D-12 BMatP= 3.43D-11
 IDIUse=1 WtCom= 1.00D+00 WtEn= 0.00D+00
 Coeff-Com: -0.522D-03 0.299D-02 0.559D-02 0.408D-01 0.197D+00 0.754D+00
 Coeff:     -0.522D-03 0.299D-02 0.559D-02 0.408D-01 0.197D+00 0.754D+00
 Gap=     0.288 Goal=   None    Shift=    0.000
 RMSDP=5.31D-09 MaxDP=1.87D-07 DE=-1.88D-11 OVMax= 2.50D-07

 SCF Done:  E(RB3LYP) =  -324.952332788     A.U. after   11 cycles
            NFock= 11  Conv=0.53D-08     -V/T= 2.0068
 KE= 3.227415695941D+02 PE=-1.310753134032D+03 EE= 3.880148769784D+02
 Leave Link  502 at Fri Aug 26 08:04:45 2022, MaxMem= 24159191040 cpu:        80.5
 (Enter /public/home/users/caep010/software/Gaussian09/g09/l701.exe)
 Compute integral first derivatives.
 ... and contract with generalized density number  0.
 Leave Link  701 at Fri Aug 26 08:04:45 2022, MaxMem= 24159191040 cpu:        14.7
 (Enter /public/home/users/caep010/software/Gaussian09/g09/l702.exe)
 L702 exits ... SP integral derivatives will be done elsewhere.
 Leave Link  702 at Fri Aug 26 08:04:45 2022, MaxMem= 24159191040 cpu:         0.5
 (Enter /public/home/users/caep010/software/Gaussian09/g09/l703.exe)
 Compute integral first derivatives, UseDBF=F ICtDFT=           0.
 Integral derivatives from FoFJK, PRISM(SPDF).
 Calling FoFJK, ICntrl=      2127 FMM=F ISym2X=0 I1Cent= 0 IOpClX= 0 NMat=1 NMatS=1 NMatT=0.
 FoFJK:  IHMeth= 1 ICntrl=    2127 DoSepK=F KAlg= 0 I1Cent=   0 FoldK=F
 IRaf=         0 NMat=   1 IRICut=       1 DoRegI=T DoRafI=F ISym2E= 0.
 FoFCou: FMM=F IPFlag=           0 FMFlag=      100000 FMFlg1=         800
         NFxFlg=           0 DoJE=F BraDBF=F KetDBF=F FulRan=T
         wScrn=  0.000000 ICntrl=    2127 IOpCl=  0 I1Cent=           0 NGrid=           0
         NMat0=    1 NMatS0=      1 NMatT0=    0 NMatD0=    1 NMtDS0=    0 NMtDT0=    0
 Symmetry not used in FoFCou.
 Leave Link  703 at Fri Aug 26 08:04:47 2022, MaxMem= 24159191040 cpu:        50.7
 (Enter /public/home/users/caep010/software/Gaussian09/g09/l716.exe)
 Dipole        = 5.67167012D-02-9.99015979D-01 2.04562841D-01
 ***** Axes restored to original set *****
 -------------------------------------------------------------------
 Center     Atomic                   Forces (Hartrees/Bohr)
 Number     Number              X              Y              Z
 -------------------------------------------------------------------
      1        6           0.001368670   -0.002013692    0.001372243
      2        7          -0.000992392    0.008431876    0.000824800
      3        6           0.002190718   -0.004515966    0.000807327
      4        6           0.000393019    0.000660155    0.000944146
      5        8          -0.002302435   -0.005045160   -0.005231327
      6        8           0.001039654    0.000190190    0.005195040
      7        1          -0.001131923    0.000291977    0.000060076
      8        1          -0.000060737    0.000975423    0.000024145
      9        1          -0.000806692    0.000063645   -0.000856886
     10        1          -0.001271556   -0.003379060   -0.000967604
     11        1           0.000309455   -0.000079014   -0.000488485
     12        1           0.000829593    0.000597942    0.000425906
     13        1           0.000458793    0.000288981    0.000250776
     14        1           0.000497332    0.000440358   -0.003285218
     15        1          -0.000521497    0.003092344    0.000925062
 -------------------------------------------------------------------
 Cartesian Forces:  Max     0.008431876 RMS     0.002288433
 Leave Link  716 at Fri Aug 26 08:04:47 2022, MaxMem= 24159191040 cpu:         0.6
 (Enter /public/home/users/caep010/software/Gaussian09/g09/l103.exe)

 GradGradGradGradGradGradGradGradGradGradGradGradGradGradGradGradGradGrad
 Berny optimization.
 Using GEDIIS/GDIIS optimizer.
 FormGI is forming the generalized inverse of G from B-inverse, IUseBI=4.
 Internal  Forces:  Max     0.008000946 RMS     0.001898005
 Search for a local minimum.
 Step number   2 out of a maximum of   74
 All quantities printed in internal units (Hartrees-Bohrs-Radians)
 RMS Force = .18980D-02 SwitMx=.10000D-02 MixMth= 1
 Mixed Optimization -- RFO/linear search
 Update second derivatives using D2CorX and points    1    2
 DE= -7.75D-03 DEPred=-9.15D-03 R= 8.46D-01
 TightC=F SS=  1.41D+00  RLast= 3.21D-01 DXNew= 5.0454D-01 9.6409D-01
 Trust test= 8.46D-01 RLast= 3.21D-01 DXMaxT set to 5.05D-01
 ITU=  1  0
 Use linear search instead of GDIIS.
     Eigenvalues ---    0.00261   0.00624   0.00809   0.01575   0.01602
     Eigenvalues ---    0.02691   0.05451   0.05663   0.05982   0.06959
     Eigenvalues ---    0.07451   0.07706   0.10191   0.11145   0.15664
     Eigenvalues ---    0.16000   0.16000   0.16000   0.16000   0.16000
     Eigenvalues ---    0.16000   0.16616   0.18138   0.20426   0.23361
     Eigenvalues ---    0.28644   0.31455   0.32441   0.32489   0.32506
     Eigenvalues ---    0.32529   0.32563   0.34438   0.36155   0.39614
     Eigenvalues ---    0.44085   0.45239   0.48872   0.49732
 RFO step:  Lambda=-2.03493302D-03 EMin= 2.60886358D-03
 Quartic linear search produced a step of -0.07166.
 Iteration  1 RMS(Cart)=  0.08083739 RMS(Int)=  0.00292545
 Iteration  2 RMS(Cart)=  0.00374590 RMS(Int)=  0.00009430
 Iteration  3 RMS(Cart)=  0.00000425 RMS(Int)=  0.00009422
 Iteration  4 RMS(Cart)=  0.00000000 RMS(Int)=  0.00009422
 ITry= 1 IFail=0 DXMaxC= 2.46D-01 DCOld= 1.00D+10 DXMaxT= 5.05D-01 DXLimC= 3.00D+00 Rises=F
 Variable       Old X    -DE/DX   Delta X   Delta X   Delta X     New X
                                 (Linear)    (Quad)   (Total)
    R1        2.77790  -0.00088  -0.00044  -0.00120  -0.00164   2.77627
    R2        2.06961  -0.00086   0.00206  -0.00726  -0.00520   2.06440
    R3        2.06198  -0.00000   0.00263  -0.00619  -0.00356   2.05842
    R4        2.07722  -0.00050   0.00168  -0.00535  -0.00367   2.07355
    R5        2.77736  -0.00460   0.00138  -0.01545  -0.01406   2.76330
    R6        1.92233  -0.00063   0.00409  -0.01100  -0.00691   1.91542
    R7        2.90460  -0.00200   0.00015  -0.00675  -0.00660   2.89801
    R8        2.63606   0.00800   0.00161   0.01277   0.01438   2.65043
    R9        2.66675   0.00483  -0.00035   0.01086   0.01051   2.67725
   R10        2.07354  -0.00052   0.00187  -0.00586  -0.00400   2.06955
   R11        2.06824  -0.00084   0.00225  -0.00766  -0.00541   2.06283
   R12        2.06341  -0.00023   0.00257  -0.00668  -0.00411   2.05930
   R13        1.82073   0.00057   0.00406  -0.00837  -0.00431   1.81642
   R14        1.81745   0.00104   0.00425  -0.00794  -0.00369   1.81376
    A1        1.90086  -0.00076   0.00034  -0.00322  -0.00285   1.89801
    A2        1.90199   0.00041   0.00218  -0.00377  -0.00160   1.90039
    A3        1.99260  -0.00067  -0.00380   0.00421   0.00041   1.99301
    A4        1.88445   0.00070  -0.00034   0.00737   0.00705   1.89150
    A5        1.89443   0.00092  -0.00044   0.00744   0.00705   1.90147
    A6        1.88674  -0.00052   0.00214  -0.01169  -0.00959   1.87715
    A7        1.98620   0.00121  -0.00202   0.01518   0.01289   1.99908
    A8        1.89804  -0.00011  -0.00149   0.01649   0.01458   1.91262
    A9        1.88875   0.00048   0.00126   0.01432   0.01521   1.90396
   A10        1.90478   0.00009   0.00059  -0.00925  -0.00859   1.89619
   A11        1.89370   0.00085   0.00207   0.00534   0.00734   1.90104
   A12        2.00468  -0.00097  -0.00507   0.00306  -0.00201   2.00267
   A13        1.94720  -0.00124  -0.00358   0.00467   0.00109   1.94829
   A14        1.93855  -0.00102  -0.00225  -0.00578  -0.00803   1.93052
   A15        1.77184   0.00239   0.00842   0.00362   0.01196   1.78380
   A16        1.94672  -0.00017  -0.00116   0.00089  -0.00027   1.94645
   A17        1.93471  -0.00069  -0.00064  -0.00233  -0.00297   1.93174
   A18        1.90023  -0.00031   0.00142  -0.00437  -0.00295   1.89728
   A19        1.88105   0.00026   0.00085  -0.00220  -0.00135   1.87969
   A20        1.89460   0.00023   0.00008   0.00099   0.00106   1.89566
   A21        1.90578   0.00073  -0.00055   0.00733   0.00678   1.91256
   A22        1.82822   0.00601   0.00345   0.02585   0.02930   1.85752
   A23        1.85411   0.00534   0.00199   0.02562   0.02761   1.88172
    D1       -3.11078   0.00046  -0.00111   0.01502   0.01395  -3.09683
    D2        1.06579  -0.00087  -0.00040  -0.02499  -0.02544   1.04034
    D3       -1.05895   0.00110  -0.00005   0.01990   0.01988  -1.03907
    D4        3.11761  -0.00023   0.00066  -0.02010  -0.01951   3.09810
    D5        1.05220   0.00029   0.00166   0.00495   0.00669   1.05890
    D6       -1.05442  -0.00104   0.00237  -0.03506  -0.03270  -1.08712
    D7       -3.12164   0.00111  -0.00061   0.13575   0.13508  -2.98656
    D8        1.03640   0.00204   0.00213   0.13239   0.13449   1.17089
    D9       -0.93190  -0.00091  -0.00660   0.12278   0.11604  -0.81586
   D10       -1.00982   0.00210  -0.00291   0.17675   0.17394  -0.83588
   D11       -3.13496   0.00303  -0.00016   0.17339   0.17335  -2.96161
   D12        1.17992   0.00008  -0.00890   0.16379   0.15490   1.33482
   D13        1.10865  -0.00086  -0.00269  -0.01014  -0.01278   1.09586
   D14       -0.98754  -0.00061  -0.00257  -0.00636  -0.00889  -0.99643
   D15       -3.08425  -0.00088  -0.00240  -0.01119  -0.01354  -3.09779
   D16       -3.08209  -0.00052  -0.00198  -0.00662  -0.00860  -3.09069
   D17        1.10491  -0.00026  -0.00186  -0.00284  -0.00470   1.10021
   D18       -0.99180  -0.00054  -0.00169  -0.00768  -0.00936  -1.00116
   D19       -1.11891   0.00108   0.00485  -0.00288   0.00192  -1.11699
   D20        3.06809   0.00134   0.00497   0.00089   0.00581   3.07390
   D21        0.97138   0.00106   0.00514  -0.00394   0.00116   0.97253
   D22        0.91486  -0.00023   0.00069  -0.00871  -0.00789   0.90697
   D23       -1.18411  -0.00014   0.00087  -0.00361  -0.00270  -1.18681
   D24        3.03322   0.00026   0.00059  -0.00098  -0.00056   3.03266
   D25       -1.06259   0.00060   0.00452  -0.02629  -0.02161  -1.08420
   D26        1.10947  -0.00088   0.00005  -0.04119  -0.04122   1.06824
   D27       -3.10166  -0.00145  -0.00056  -0.03634  -0.03698  -3.13864
         Item               Value     Threshold  Converged?
 Maximum Force            0.008001     0.000450     NO 
 RMS     Force            0.001898     0.000300     NO 
 Maximum Displacement     0.245665     0.001800     NO 
 RMS     Displacement     0.081201     0.001200     NO 
 Predicted change in Energy=-1.194884D-03
 Lowest energy point so far.  Saving SCF results.
 GradGradGradGradGradGradGradGradGradGradGradGradGradGradGradGradGradGrad

 Leave Link  103 at Fri Aug 26 08:04:47 2022, MaxMem= 24159191040 cpu:         1.3
 (Enter /public/home/users/caep010/software/Gaussian09/g09/l202.exe)
                          Input orientation:                          
 ---------------------------------------------------------------------
 Center     Atomic      Atomic             Coordinates (Angstroms)
 Number     Number       Type             X           Y           Z
 ---------------------------------------------------------------------
      1          6           0        1.955042   -0.282512    0.093134
      2          7           0        0.551262   -0.680670    0.264115
      3          6           0       -0.420093    0.276621   -0.263439
      4          6           0       -1.823675   -0.155150    0.178530
      5          8           0       -0.307300    0.315676   -1.660898
      6          8           0       -0.177536    1.625786    0.094436
      7          1           0        2.595458   -1.080424    0.476043
      8          1           0        2.159359   -0.158387   -0.969578
      9          1           0        2.219835    0.657691    0.593051
     10          1           0        0.360332   -0.839161    1.246869
     11          1           0       -1.925383   -0.135605    1.268780
     12          1           0       -2.037660   -1.171774   -0.156558
     13          1           0       -2.552205    0.531981   -0.251139
     14          1           0       -0.363893   -0.594819   -1.963745
     15          1           0       -0.233644    1.690646    1.050398
 ---------------------------------------------------------------------
                    Distance matrix (angstroms):
                    1          2          3          4          5
     1  C    0.000000
     2  N    1.469137   0.000000
     3  C    2.465976   1.462275   0.000000
     4  C    3.781828   2.433891   1.533560   0.000000
     5  O    2.924492   2.331419   1.402548   2.429932   0.000000
     6  O    2.861729   2.424805   1.416741   2.426639   2.194180
     7  H    1.092435   2.093670   3.388503   4.524753   3.865439
     8  H    1.089270   2.093025   2.709508   4.145205   2.605200
     9  H    1.097275   2.164150   2.801429   4.145179   3.403479
    10  H    2.045499   1.013597   2.033484   2.525689   3.199139
    11  H    4.057268   2.727676   2.187126   1.095158   3.377108
    12  H    4.098146   2.668458   2.173889   1.091604   2.733074
    13  H    4.593169   3.371575   2.147385   1.089734   2.659663
    14  H    3.115406   2.410030   1.911441   2.629376   0.961208
    15  H    3.098395   2.618675   1.939174   2.587530   3.040903
                    6          7          8          9         10
     6  O    0.000000
     7  H    3.893417   0.000000
     8  H    3.126736   1.769224   0.000000
     9  H    2.633099   1.782085   1.763930   0.000000
    10  H    2.773692   2.376588   2.934721   2.475035   0.000000
    11  H    2.745277   4.686056   4.657884   4.274197   2.391644
    12  H    3.368887   4.676998   4.393509   4.694158   2.798321
    13  H    2.637211   5.443076   4.815766   4.847765   3.550623
[...]
    12  H    0.000044   0.000003  -0.000106   0.000758  -0.024127   0.462511
    13  H    0.000034  -0.000002   0.000041   0.000075  -0.019141  -0.017722
    14  H   -0.000408   0.000379   0.000205   0.000491  -0.000164  -0.000525
    15  H   -0.000157  -0.000128   0.001481  -0.001005  -0.000471   0.000470
              13         14         15
     1  C   -0.000468   0.003567  -0.003019
     2  N    0.007037  -0.002929   0.002356
     3  C   -0.037600  -0.021878  -0.011744
     4  C    0.420445   0.000099  -0.001104
     5  O   -0.001128   0.294010   0.007461
     6  O   -0.000650   0.009343   0.287075
     7  H    0.000034  -0.000408  -0.000157
     8  H   -0.000002   0.000379  -0.000128
     9  H    0.000041   0.000205   0.001481
    10  H    0.000075   0.000491  -0.001005
    11  H   -0.019141  -0.000164  -0.000471
    12  H   -0.017722  -0.000525   0.000470
    13  H    0.446262  -0.000137  -0.000052
    14  H   -0.000137   0.335551  -0.000507
    15  H   -0.000052  -0.000507   0.355724
 Mulliken charges:
               1
     1  C   -0.465204
     2  N   -0.455129
     3  C    0.557666
     4  C   -0.573013
     5  O   -0.597244
     6  O   -0.571436
     7  H    0.176171
     8  H    0.186829
     9  H    0.161739
    10  H    0.280597
    11  H    0.160402
    12  H    0.189091
    13  H    0.203006
    14  H    0.382904
    15  H    0.363620
 Sum of Mulliken charges =  -0.00000
 Mulliken charges with hydrogens summed into heavy atoms:
               1
     1  C    0.059534
     2  N   -0.174531
     3  C    0.557666
     4  C   -0.020513
     5  O   -0.214340
     6  O   -0.207815
 Electronic spatial extent (au):  <R**2>=            586.7865
 Charge=             -0.0000 electrons
 Dipole moment (field-independent basis, Debye):
    X=              0.1954    Y=             -3.2637    Z=              0.2244  Tot=              3.2772
 Quadrupole moment (field-independent basis, Debye-Ang):
   XX=            -36.1283   YY=            -40.3772   ZZ=            -34.4579
   XY=              1.9863   XZ=             -0.5322   YZ=             -3.7372
 Traceless Quadrupole moment (field-independent basis, Debye-Ang):
   XX=              0.8595   YY=             -3.3894   ZZ=              2.5299
   XY=              1.9863   XZ=             -0.5322   YZ=             -3.7372
 Octapole moment (field-independent basis, Debye-Ang**2):
  XXX=              0.0856  YYY=             -4.7410  ZZZ=              1.7192  XYY=              3.1269
  XXY=              0.1987  XXZ=              1.2397  XZZ=             -3.7561  YZZ=              0.8199
  YYZ=              1.2269  XYZ=             -1.0815
 Hexadecapole moment (field-independent basis, Debye-Ang**3):
 XXXX=           -416.8589 YYYY=           -173.6296 ZZZZ=           -122.3068 XXXY=             -7.8434
 XXXZ=             -4.6437 YYYX=             -2.8322 YYYZ=             -4.2707 ZZZX=             -3.3125
 ZZZY=            -16.0058 XXYY=           -100.1259 XXZZ=            -98.2169 YYZZ=            -57.3061
 XXYZ=              0.3345 YYXZ=             -1.3838 ZZXY=              3.8565
 N-N= 2.748447218988D+02 E-N=-1.309733109994D+03  KE= 3.227570689916D+02
 No NMR shielding tensors so no spin-rotation constants.
 Leave Link  601 at Fri Aug 26 08:26:36 2022, MaxMem= 24159191040 cpu:        29.4
 (Enter /public/home/users/caep010/software/Gaussian09/g09/l9999.exe)
 1\1\GINC-B1824\SP\RHF\GFHFB2\C3H9N1O2\ROOT\26-Aug-2022\0\\#P Geom=AllC
 heck Guess=TCheck SCRF=Check HF/GFHFB2 SCF=Tight\\Frag_854\\0,1\C,0,1.
 9552536528,-0.2891304273,0.0869736657\N,0,0.5545167212,-0.689499182,0.
 2298793969\C,0,-0.4175963443,0.2696222036,-0.2646585325\C,0,-1.8189561
 42,-0.1303729919,0.2143256154\O,0,-0.3478096478,0.2948061074,-1.668641
 831\O,0,-0.1386373904,1.6175172182,0.0747311487\H,0,2.5955141252,-1.12
 08252455,0.3937501343\H,0,2.1551961681,-0.0706648634,-0.964643278\H,0,
 2.2243999567,0.6037967778,0.6670809206\H,0,0.3480534664,-0.9355130492,
 1.1912871567\H,0,-1.9052789071,-0.0698999642,1.3063059932\H,0,-2.04655
 2054,-1.1565425297,-0.0854291757\H,0,-2.549493292,0.5447388178,-0.2343
 913944\H,0,-0.2035250061,-0.6192693575,-1.9360661951\H,0,-0.4051853067
 ,1.751136486,0.9894963753\\Version=ES64L-G09RevE.01\State=1-A\HF=-323.
 1631842\RMSD=2.636e-09\Dipole=-0.1440823,-0.7077637,1.068056\Quadrupol
 e=0.88509,-2.5096591,1.6245691,-0.2768018,-0.9151254,3.0710075\PG=C01 
 [X(C3H9N1O2)]\\@


 EVERYTHING'S GOT A MORAL, IF ONLY YOU CAN FIND IT.

                                    -- LEWIS CARROL, ALICE IN WONDERLAND
 Diagonal vibrational polarizability:
        0.0000000       0.0000000       0.0000000

 Temperature=              298.150000 Pressure=                      1.000000
 E(ZPE)=                     0.127316 E(Thermal)=                    0.135093
 E(CCSD(T))=              -323.989064 E(Empiric)=                   -0.131993
 DE(Plus)=                  -0.028721 DE(2DF)=                      -0.287943
 E(Delta-G3XP)=             -0.407760 DE(HF)=                       -0.033127
 G4(0 K)=                 -324.751292 G4 Energy=                  -324.743515
 G4 Enthalpy=             -324.742571 G4 Free Energy=             -324.782137
 1\1\GINC-B1824\Mixed\G4\G4\C3H9N1O2\ROOT\26-Aug-2022\0\\#P Geom=AllChe
 ck Guess=TCheck SCRF=Check HF/GFHFB2 SCF=Tight\\Frag_854\\0,1\C,0,1.95
 52536528,-0.2891304273,0.0869736657\N,0,0.5545167212,-0.689499182,0.22
 98793969\C,0,-0.4175963443,0.2696222036,-0.2646585325\C,0,-1.818956142
 ,-0.1303729919,0.2143256154\O,0,-0.3478096478,0.2948061074,-1.66864183
 1\O,0,-0.1386373904,1.6175172182,0.0747311487\H,0,2.5955141252,-1.1208
 252455,0.3937501343\H,0,2.1551961681,-0.0706648634,-0.964643278\H,0,2.
 2243999567,0.6037967778,0.6670809206\H,0,0.3480534664,-0.9355130492,1.
 1912871567\H,0,-1.9052789071,-0.0698999642,1.3063059932\H,0,-2.0465520
 54,-1.1565425297,-0.0854291757\H,0,-2.549493292,0.5447388178,-0.234391
 3944\H,0,-0.2035250061,-0.6192693575,-1.9360661951\H,0,-0.4051853067,1
 .751136486,0.9894963753\\Version=ES64L-G09RevE.01\State=1-A\MP2/GTBas1
 =-323.9134143\MP4/GTBas1=-323.9891793\CCSD(T)/G3Bas1=-323.9890642\MP2/
 GTBas2=-323.9399437\MP4/GTBas2=-324.0179\MP2/GTBas3=-324.1844688\MP4/G
 TBas3=-324.2771223\HF/GTLargeXP=-323.1314785\MP2/GTLargeXP=-324.618758
 7\HF/GFHFB1=-323.1573498\HF/GFHFB2=-323.1631842\G4=-324.7512925\FreqCo
 ord=3.6948939242,-0.5463773243,0.1643564089,1.0478847392,-1.3029646229
 ,0.4344091037,-0.7891427247,0.5095121242,-0.5001321452,-3.4373289561,-
 0.2463692498,0.4050167164,-0.6572649808,0.5571028053,-3.1532760745,-0.
 2619866997,3.0566645575,0.1412214046,4.9048108707,-2.1180527569,0.7440
 799186,4.0727305203,-0.1335372391,-1.8229116114,4.2035067282,1.1410105
 5,1.2606002483,0.6577257311,-1.7678634568,2.2512064718,-3.6004553411,-
 0.132091789,2.4685605728,-3.8674228988,-2.1855486422,-0.1614377458,-4.
 8178440996,1.0294071796,-0.4429355433,-0.3846065228,-1.1702494881,-3.6
 586348839,-0.7656892628,3.3091683798,1.8698771588\PG=C01 [X(C3H9N1O2)]
 \NImag=0\\0.48325230,-0.03867094,0.56654484,0.01303859,-0.01821822,0.5
 8379922,-0.19444067,-0.05177002,-0.00756583,0.50993913,-0.02198216,-0.
 08717610,0.01976839,-0.00646918,0.27868223,0.02347518,0.02855570,-0.09
 150102,-0.05411733,-0.18940077,0.59252940,-0.03964985,0.02748758,-0.00
 811030,-0.14982809,0.02431774,-0.02135031,0.52727233,0.00618776,0.0074
 4175,-0.01249184,0.04271864,-0.09927437,0.05055308,0.01018736,0.469940
 87,-0.00771898,-0.00682307,0.00703700,-0.00010285,0.01263164,-0.103469
 52,-0.02877606,0.00334365,0.53029619,0.00025392,0.00313512,-0.00109303
 ,-0.03675266,-0.00083474,0.00610487,-0.16355636,-0.01906350,0.02014256
 ,0.48348783,0.00253913,-0.00325080,0.00175762,0.02457131,0.00666949,-0
 .00392893,-0.01825838,-0.07958661,0.00538372,-0.03398392,0.58410434,-0
 .00177830,0.00269746,-0.00033088,-0.01262951,-0.00202490,0.00819415,0.
 02395223,0.00689849,-0.07947979,0.03787737,0.00450045,0.56090922,-0.00
 084021,0.00018180,0.00130397,0.00645987,0.00864233,-0.03157322,-0.0761
 3180,0.00266301,0.02270427,0.00040440,-0.00044434,0.03596499,0.0787327
 3,-0.00211911,0.00021353,0.00074949,0.00388478,-0.00611642,0.03376766,
 0.00380626,-0.09457279,-0.00987706,-0.00100619,0.00451515,0.00933298,-
 0.08541419,0.58135153,0.00411495,0.00032678,-0.00237952,-0.01013175,0.
 02409964,-0.04487641,0.01261106,0.03296704,-0.20480808,0.00899444,0.00
 092533,-0.03691205,-0.03322764,0.11078432,0.40156092,-0.00031783,0.000
 03912,-0.00138464,0.00883899,0.02527857,0.00312873,-0.08721312,-0.0283
 4877,0.00984134,-0.00798456,-0.04001415,-0.00885564,0.00807283,0.00351
 552,0.00122100,0.12707526,-0.00879559,-0.00068162,0.00193284,0.0162934
 4,-0.06000912,-0.00381773,-0.04980322,-0.16921310,0.00620713,-0.010890
 87,-0.03158122,-0.00759772,-0.00053307,-0.01583983,-0.02418367,0.04121
 230,0.31921967,0.00017276,-0.00046237,-0.00082842,0.00084912,0.0105237
 4,0.01264263,-0.00300646,-0.02953685,-0.09150681,0.00116633,0.00357986
 ,0.00534031,-0.00582890,-0.05832978,-0.03725222,-0.14242360,0.10924786
 ,0.58108339,-0.12797233,0.11137652,-0.04032041,-0.02892041,0.02406355,
 -0.01399208,-0.00411121,-0.00436186,0.00460657,-0.00101700,0.00147412,
 -0.00104771,0.00052209,0.00004576,-0.00040351,0.00093451,0.00035684,0.
 00001012,0.15160657,0.11813029,-0.20832716,0.05901534,-0.00899067,0.01
 095249,-0.00459152,-0.00291149,-0.00173128,0.00016107,-0.00029264,0.00
 041552,-0.00018627,0.00026516,0.00011581,-0.00008106,0.00152638,0.0007
 5242,0.00035239,-0.12431332,0.22064453,-0.04427340,0.05767591,-0.07041
 154,0.00407479,-0.00322085,0.00182291,0.00132225,-0.00073002,-0.001298
 03,0.00011041,-0.00005701,0.00015014,-0.00119666,0.00016339,0.00067735
 ,0.00053749,0.00049716,0.00042427,0.04726560,-0.06360085,0.06950675,-0
 .05288102,-0.00644268,0.03418366,-0.01173855,-0.01183313,0.03592918,0.
 00109352,-0.00055373,0.00450770,-0.00004345,-0.00004567,-0.00046689,0.
 00132904,0.00034290,-0.00196591,-0.00030966,0.00063220,-0.00052411,0.0
 0400474,0.00211756,-0.01830013,0.06461703,-0.00941980,-0.05871633,0.04
 779453,-0.00290144,-0.00280617,0.01099391,0.00064090,0.00018284,-0.000
 26589,-0.00000580,0.00001465,0.00008579,0.00046745,-0.00033552,-0.0003
 7246,-0.00001613,0.00017515,0.00028543,-0.00494682,-0.00417410,0.02400
 844,0.01486174,0.05975357,0.04359754,0.04939238,-0.29875477,0.00540481
 ,0.00190673,-0.00079560,-0.00037440,0.00215525,-0.00136831,0.00018222,
 -0.00026231,-0.00020177,-0.00193412,-0.00033716,0.00058426,-0.00015034
 ,-0.00050948,0.00034623,0.00064768,0.00029129,-0.00673745,-0.04851456,
 -0.05565745,0.32229043,-0.05759316,-0.03772670,-0.02548368,-0.02400045
 ,-0.02964324,-0.01784507,0.00367880,-0.00882054,0.00102722,-0.00011506
 ,0.00055973,0.00015528,-0.00014364,0.00129029,-0.00092937,0.00138777,0
 .00340321,0.00115355,0.00467580,0.01384476,0.01067630,0.00186708,0.004
 11971,0.00142365,0.06997469,-0.03994197,-0.21260632,-0.10962256,-0.012
 71512,-0.00436533,-0.00203755,0.00176269,-0.00291342,0.00199842,-0.000
 18718,-0.00016324,-0.00025516,0.00011602,0.00040212,-0.00061817,0.0018
 4490,0.00184944,0.00020948,-0.00384367,-0.01894916,-0.01450374,0.00206
 195,0.00537740,0.00353996,0.05165794,0.23137415,-0.02634411,-0.1081766
 5,-0.12528459,-0.00105002,0.00505704,0.00724133,-0.00002608,-0.0022557
 4,-0.00021568,-0.00011510,0.00027411,-0.00000952,-0.00065963,0.0002220
 5,0.00012193,0.00127278,0.00085746,0.00012463,0.00235366,0.00867831,0.
 00544857,-0.00518457,-0.02677355,-0.01667377,0.02971850,0.12110432,0.1
 2819287,-0.00966412,-0.00960756,0.03737132,-0.07310445,-0.00932838,0.0
 6866066,0.00833209,0.00158917,-0.02367499,-0.00038562,0.00023648,-0.00
 097409,-0.00391539,0.00460950,-0.00696397,-0.00072034,0.00039756,0.000
 62322,0.00085244,0.00092235,-0.00024004,-0.00715216,-0.00194543,-0.000
 05134,0.00109123,-0.00047903,-0.00048516,0.08529337,-0.00608257,-0.004
 53575,0.00921993,-0.00598758,-0.03719553,0.07403337,-0.00353937,-0.010
 47813,0.02776545,-0.00087277,0.00083873,0.00011245,0.00198462,0.000785
 28,0.00009653,-0.00004706,-0.00044297,-0.00229235,0.00046876,0.0002474
 2,-0.00048245,-0.00035870,0.00056179,-0.00039902,0.00077270,0.00009930
 ,0.00104466,0.01257044,0.05188055,-0.00327584,-0.00421162,-0.00239814,
 0.07416543,0.11699635,-0.38643305,0.00723899,-0.00708546,-0.01447065,0
 .00066707,-0.00078331,0.00124670,-0.00427287,0.00389165,-0.00306328,0.
 00043183,-0.00100757,0.00079873,0.00052477,-0.00006746,0.00021062,0.00
 099465,-0.00005938,0.00149914,-0.00070599,-0.00008687,0.00112715,-0.07
 601329,-0.10871165,0.39928089,0.00007977,-0.00009230,-0.00041977,0.000
 92860,-0.00046587,-0.00088811,0.00267557,0.00404730,0.02876396,-0.0500
 4741,0.00029089,0.01631024,-0.00578658,-0.00170140,0.00664489,0.001305
 07,0.00174299,-0.00139799,0.00002854,0.00000874,-0.00001662,0.00029587
 ,-0.00001871,0.00008883,-0.00007391,-0.00001354,0.00001725,-0.00099792
 ,0.00056354,-0.00030872,0.04989018,-0.00008277,-0.00009921,0.00013962,
 0.00080379,-0.00013943,-0.00025128,0.00101970,-0.00149809,0.00790141,0
 .00081545,-0.04776811,-0.01554156,-0.00197624,0.00123664,0.00223753,0.
 00047862,0.00022230,-0.00040675,0.00002221,-0.00000361,-0.00003042,0.0
 0001923,-0.00001095,-0.00000677,-0.00000413,0.00001906,-0.00001243,0.0
 0065816,0.00026083,-0.00010196,0.00013845,0.04721788,0.00044795,-0.000
 01419,0.00039864,-0.00017621,0.00055603,0.00062334,-0.00508394,-0.0029
 6851,-0.01167900,0.01814252,-0.01471637,-0.29977966,0.00419291,0.00078
 103,-0.00069517,-0.00002819,0.00063427,0.00161231,0.00006091,0.0000088
 8,0.00003349,-0.00029871,-0.00001692,0.00005919,0.00006643,-0.00000327
 ,-0.00003637,0.00053711,-0.00056015,0.00082307,-0.02027946,0.01643513,
 0.32853632,0.00017303,0.00021320,0.00019528,0.00095752,0.00155735,0.00
 077052,-0.00222470,-0.02873153,-0.01133706,-0.05791348,-0.04840864,-0.
 01358803,0.00169120,0.00202529,-0.00135010,-0.00700506,-0.00561430,0.0
 0115015,0.00001289,0.00002865,-0.00000338,0.00001683,-0.00000880,-0.00
 004869,0.00035926,-0.00003937,0.00006859,-0.00025801,-0.00039330,-0.00
 046477,-0.00026535,0.00246635,0.00038029,0.05978796,-0.00042018,0.0003
 1998,0.00016430,0.00159831,0.00100488,0.00013977,0.00167961,-0.0098188
 5,-0.00435977,-0.05158070,-0.28272363,-0.06982696,0.00087516,0.0014375
 4,0.00095953,-0.00357889,-0.00003069,0.00041639,-0.00005898,0.00002519
 ,0.00003801,0.00000734,-0.00000843,-0.00002623,0.00027650,0.00011660,0
 .00005373,-0.00023778,-0.00032000,-0.00004339,0.00030672,-0.00031484,0
 .00035880,0.05638836,0.30636776,-0.00008652,0.00010599,-0.00012264,-0.
 00048184,0.00042667,0.00010378,0.00093605,0.00901285,0.00129190,-0.015
 18165,-0.07100699,-0.06737762,-0.00096289,-0.00049703,0.00062623,0.002
 93641,0.00218361,0.00106747,-0.00002275,-0.00001903,0.00000128,0.00005
 310,0.00002123,-0.00000298,-0.00000566,0.00004689,-0.00002526,-0.00027
 799,-0.00046955,-0.00022488,-0.00681483,-0.03062819,-0.00840141,0.0150
 2922,0.07717450,0.06957487,-0.00006121,0.00169218,-0.00073210,-0.00660
 179,-0.00268279,0.00283139,-0.02128757,0.02234407,-0.01500492,-0.16617
 132,0.11112785,-0.07424534,0.00339318,-0.00083542,-0.00083191,0.003530
 71,-0.00009745,0.00073005,-0.00065611,-0.00018857,0.00005859,-0.000132
 95,-0.00001755,0.00008403,-0.00020024,-0.00011248,-0.00007653,0.000196
 71,-0.00040687,0.00042500,0.00212991,-0.00283209,0.00165535,0.00521672
 ,-0.00495426,0.00390001,0.18119154,-0.00050442,0.00075977,0.00015717,-
 0.00102561,0.00040743,0.00038345,-0.00705910,0.00365914,-0.00354070,0.
 11494259,-0.15292862,0.07102622,0.00002875,0.00003322,-0.00124601,0.00
 022094,0.00092135,0.00013729,-0.00020256,-0.00002248,0.00001452,0.0000
 3187,0.00000672,-0.00000398,0.00018504,0.00004848,-0.00002579,-0.00033
 252,-0.00045666,-0.00014377,-0.00316680,0.00170493,-0.00198403,0.02002
 133,-0.01641509,0.01297408,-0.12314755,0.16230387,0.00048113,-0.000236
 95,0.00082630,0.00242993,0.00074482,-0.00080534,0.00726511,-0.00634880
 ,0.00305014,-0.07724343,0.07165328,-0.09346197,-0.00073398,-0.00048769
 ,0.00090072,-0.00024096,-0.00116675,-0.00014683,0.00018829,0.00002343,
 0.00000409,-0.00013580,-0.00002518,0.00000626,0.00009106,0.00004240,-0
 .00002429,0.00038750,-0.00032134,0.00022849,-0.02139510,0.01973083,-0.
 01196111,0.00746109,-0.00618728,0.00364899,0.08183982,-0.07763769,0.09
 792617,-0.00031740,-0.00053396,-0.00159352,-0.00113790,0.00038212,0.00
 008649,-0.00003183,0.00190916,0.00296269,-0.00026824,0.00064728,0.0003
 2119,-0.01418889,0.07468953,0.02446632,-0.00029131,-0.00140519,-0.0026
 8837,0.00003515,-0.00000646,0.00020828,-0.00104557,-0.00053218,-0.0000
 9523,-0.00002343,-0.00005376,0.00044923,0.00006556,0.00041398,0.000504
 32,0.00000237,-0.00057574,-0.00032545,-0.00051921,-0.00077793,0.000649
 28,0.00001885,0.00013603,0.00015358,0.01687615,0.00009419,-0.00002856,
 -0.00017342,0.00081087,-0.00157464,0.00326190,-0.00171296,-0.00369864,
 0.00261054,0.00037771,0.00029105,0.00147316,0.07380043,-0.46627892,-0.
 14301624,0.00122807,0.00075721,-0.00150299,0.00004387,0.00000234,0.000
 24304,-0.00066702,0.00002207,-0.00016969,-0.00010361,-0.00005147,0.000
 14732,0.00069936,0.00009465,0.00108777,-0.00057571,-0.00025120,0.00044
 710,-0.00014023,0.00004135,0.00018192,0.00004591,-0.00006190,-0.000088
 83,-0.07345697,0.47056050,-0.00238429,-0.00063413,0.00027433,0.0001689
 6,-0.00004699,0.00395325,0.00787054,-0.04903535,-0.01966024,0.00017443
 ,0.00013025,-0.00041253,0.01596304,-0.08542209,-0.07443405,0.00139580,
 -0.00094583,-0.00894506,0.00021697,-0.00001933,0.00015002,-0.00019016,
 0.00002014,-0.00026771,0.00073960,0.00035729,-0.00001779,0.00096691,0.
 00087055,0.00117732,-0.00010021,0.00029575,0.00011254,0.00076774,0.000
 41259,-0.00011763,-0.00025523,0.00016484,0.00004975,-0.02429098,0.1357
 6378,0.09881731,-0.00002122,0.00071863,0.00061048,-0.00059913,-0.00100
 217,-0.00122092,0.00098222,-0.00176654,-0.00794146,0.00010902,-0.00029
 168,-0.00099580,0.00040116,-0.00313353,-0.00224850,-0.04730325,0.01310
 116,0.15001413,0.00000432,-0.00014073,-0.00022349,0.00007925,-0.000277
 14,-0.00026006,-0.00088474,-0.00005738,0.00006121,0.00036661,0.0009141
 8,0.00008943,-0.00016471,-0.00095099,0.00070850,-0.00002961,0.00047673
 ,0.00033005,-0.00056643,-0.00012800,-0.00054824,0.00082570,-0.00044390
 ,-0.00104311,0.04680080,0.00106815,0.00014201,-0.00019319,-0.00082153,
 0.00094061,0.00233894,0.01238267,-0.00843932,-0.04313655,-0.00055256,0
 .00115329,-0.00069443,-0.00065689,-0.00694734,-0.00287907,-0.00333942,
 -0.04609899,-0.03222136,-0.00012441,0.00005206,-0.00001514,-0.00017386
 ,-0.00004268,0.00008649,0.00018834,-0.00023763,-0.00019482,0.00024766,
 -0.00133951,0.00032665,-0.00106428,-0.00057620,0.00104220,0.00063565,0
 .00031823,0.00049305,0.00006502,0.00003986,0.00030576,-0.00083591,0.00
 017616,-0.00191146,-0.00701863,0.06085946,0.00053336,0.00002298,-0.000
 32398,-0.00083768,0.00198244,0.00077016,0.00553132,0.00552222,-0.01371
 913,0.00007098,0.00255031,0.00212526,0.00026072,-0.00474176,-0.0000506
 4,0.13231799,-0.08233158,-0.46476063,-0.00008811,0.00003479,0.00001751
 ,-0.00008745,-0.00003864,0.00001685,-0.00008182,-0.00017145,0.00003077
 ,0.00013415,0.00009358,0.00019789,-0.00020437,0.00023908,0.00035381,0.
 00096914,0.00072602,-0.00004211,-0.00037822,-0.00027560,-0.00024136,-0
 .00080782,-0.00026534,-0.00067953,-0.13733220,0.07665293,0.47630514\\0
 .00007781,0.00001700,0.00000413,-0.00003283,-0.00004249,0.00003145,0.0
 0000849,0.00011478,-0.00004925,-0.00000855,-0.00001999,0.00001495,0.00
 001291,-0.00001259,0.00001380,-0.00001912,-0.00008496,-0.00001354,-0.0
 0002887,-0.00000072,-0.00000093,-0.00001015,0.00000324,-0.00000641,-0.
 00001290,-0.00000426,-0.00001161,-0.00000258,-0.00001087,0.00000352,-0
 .00000036,0.00000736,0.00000460,0.00000505,0.00000600,0.00000406,0.000
 00784,0.00000084,0.00000697,-0.00000316,0.00001718,0.00000520,0.000006
 42,0.00000948,-0.00000694\\\@
 Job cpu time:       0 days  4 hours 14 minutes  8.3 seconds.
 File lengths (MBytes):  RWF=   6085 Int=      0 D2E=      0 Chk=     39 Scr=      1
 Normal termination of Gaussian 09 at Fri Aug 26 08:26:36 2022.
