 Entering Gaussian System, Link 0=g09
 Input=G4.Frag_1077.gjf
 Output=G4.Frag_1077.log
 Initial command:
 /public/home/users/caep010/software/Gaussian09/g09/l1.exe "/public/home/users/caep010/.cache/gau_scr/Gau-86589.inp" -scrdir="/public/home/users/caep010/.cache/gau_scr/"
 Entering Link 1 = /public/home/users/caep010/software/Gaussian09/g09/l1.exe PID=     86590.
  
 Copyright (c) 1988,1990,1992,1993,1995,1998,2003,2009,2015,
            Gaussian, Inc.  All Rights Reserved.
  
 This is part of the Gaussian(R) 09 program.  It is based on
 the Gaussian(R) 03 system (copyright 2003, Gaussian, Inc.),
 the Gaussian(R) 98 system (copyright 1998, Gaussian, Inc.),
 the Gaussian(R) 94 system (copyright 1995, Gaussian, Inc.),
 the Gaussian 92(TM) system (copyright 1992, Gaussian, Inc.),
 the Gaussian 90(TM) system (copyright 1990, Gaussian, Inc.),
 the Gaussian 88(TM) system (copyright 1988, Gaussian, Inc.),
 the Gaussian 86(TM) system (copyright 1986, Carnegie Mellon
 University), and the Gaussian 82(TM) system (copyright 1983,
 Carnegie Mellon University). Gaussian is a federally registered
 trademark of Gaussian, Inc.
  
 This software contains proprietary and confidential information,
 including trade secrets, belonging to Gaussian, Inc.
  
 This software is provided under written license and may be
 used, copied, transmitted, or stored only in accord with that
 written license.
  
 The following legend is applicable only to US Government
 contracts under FAR:
  
                    RESTRICTED RIGHTS LEGEND
  
 Use, reproduction and disclosure by the US Government is
 subject to restrictions as set forth in subparagraphs (a)
 and (c) of the Commercial Computer Software - Restricted
 Rights clause in FAR 52.227-19.
  
 Gaussian, Inc.
 340 Quinnipiac St., Bldg. 40, Wallingford CT 06492
  
  
 ---------------------------------------------------------------
 Warning -- This program may not be used in any manner that
 competes with the business of Gaussian, Inc. or will provide
 assistance to any competitor of Gaussian, Inc.  The licensee
 of this program is prohibited from giving any competitor of
 Gaussian, Inc. access to this program.  By using this program,
 the user acknowledges that Gaussian, Inc. is engaged in the
 business of creating and licensing software in the field of
 computational chemistry and represents and warrants to the
 licensee that it is not a competitor of Gaussian, Inc. and that
 it will not use this program in any manner prohibited above.
 ---------------------------------------------------------------
  

 Cite this work as:
 Gaussian 09, Revision E.01,
 M. J. Frisch, G. W. Trucks, H. B. Schlegel, G. E. Scuseria, 
 M. A. Robb, J. R. Cheeseman, G. Scalmani, V. Barone, B. Mennucci, 
 G. A. Petersson, H. Nakatsuji, M. Caricato, X. Li, H. P. Hratchian, 
 A. F. Izmaylov, J. Bloino, G. Zheng, J. L. Sonnenberg, M. Hada, 
 M. Ehara, K. Toyota, R. Fukuda, J. Hasegawa, M. Ishida, T. Nakajima, 
 Y. Honda, O. Kitao, H. Nakai, T. Vreven, J. A. Montgomery, Jr., 
 J. E. Peralta, F. Ogliaro, M. Bearpark, J. J. Heyd, E. Brothers, 
 K. N. Kudin, V. N. Staroverov, T. Keith, R. Kobayashi, J. Normand, 
 K. Raghavachari, A. Rendell, J. C. Burant, S. S. Iyengar, J. Tomasi, 
 M. Cossi, N. Rega, J. M. Millam, M. Klene, J. E. Knox, J. B. Cross, 
 V. Bakken, C. Adamo, J. Jaramillo, R. Gomperts, R. E. Stratmann, 
 O. Yazyev, A. J. Austin, R. Cammi, C. Pomelli, J. W. Ochterski, 
 R. L. Martin, K. Morokuma, V. G. Zakrzewski, G. A. Voth, 
 P. Salvador, J. J. Dannenberg, S. Dapprich, A. D. Daniels, 
 O. Farkas, J. B. Foresman, J. V. Ortiz, J. Cioslowski, 
 and D. J. Fox, Gaussian, Inc., Wallingford CT, 2013.
 
 ******************************************
 Gaussian 09:  ES64L-G09RevE.01 30-Nov-2015
                26-Aug-2022 
 ******************************************
 %nproc=32
 Will use up to   32 processors via shared memory.
 %mem=180GB
 %chk=G4.Frag_1077.chk
 -----
 #P G4
 -----
 1/14=-1,18=20,19=15,26=3,38=1/1,3;
 2/9=110,12=2,17=6,18=5,40=1/2;
 3/5=35,7=104,11=2,16=1,25=1,30=1,71=1,74=-5/1,2,3;
 4//1;
 5/5=2,38=5/2;
 6/7=2,8=2,9=2,10=2,28=1/1;
 7//1,2,3,16;
 1/14=-1,18=20,19=15,26=3/3(2);
 2/9=110/2;
 99//99;
 2/9=110/2;
 3/5=35,7=104,11=2,16=1,25=1,30=1,71=1,74=-5/1,2,3;
 4/5=5,16=3,69=1/1;
 5/5=2,38=5/2;
 7//1,2,3,16;
 1/14=-1,18=20,19=15,26=3/3(-5);
 2/9=110/2;
 6/7=2,8=2,9=2,10=2,19=2,28=1/1;
 99/9=1/99;
 Leave Link    1 at Fri Aug 26 11:37:27 2022, MaxMem= 24159191040 cpu:         2.5
 (Enter /public/home/users/caep010/software/Gaussian09/g09/l101.exe)
 ---------
 Frag_1077
 ---------
 Symbolic Z-matrix:
 Charge =  0 Multiplicity = 1
 N                     1.2648   -0.3712   -0.0718 
 C                    -0.0045   -0.3586   -0.0981 
 N                    -1.2738   -0.346    -0.1244 
 H                     1.7975    0.5201   -0.174 
 H                    -1.784     0.5557   -0.2479 
 
 NAtoms=      5 NQM=        5 NQMF=       0 NMMI=      0 NMMIF=      0
                NMic=       0 NMicF=      0.
                    Isotopes and Nuclear Properties:
 (Nuclear quadrupole moments (NQMom) in fm**2, nuclear magnetic moments (NMagM)
  in nuclear magnetons)

  Atom         1           2           3           4           5
 IAtWgt=          14          12          14           1           1
 AtmWgt=  14.0030740  12.0000000  14.0030740   1.0078250   1.0078250
 NucSpn=           2           0           2           1           1
 AtZEff=   0.0000000   0.0000000   0.0000000   0.0000000   0.0000000
 NQMom=    2.0440000   0.0000000   2.0440000   0.0000000   0.0000000
 NMagM=    0.4037610   0.0000000   0.4037610   2.7928460   2.7928460
 AtZNuc=   7.0000000   6.0000000   7.0000000   1.0000000   1.0000000
 Leave Link  101 at Fri Aug 26 11:37:27 2022, MaxMem= 24159191040 cpu:         9.8
 (Enter /public/home/users/caep010/software/Gaussian09/g09/l103.exe)

 GradGradGradGradGradGradGradGradGradGradGradGradGradGradGradGradGradGrad
 Berny optimization.
 Initialization pass.
                           ----------------------------
                           !    Initial Parameters    !
                           ! (Angstroms and Degrees)  !
 --------------------------                            --------------------------
 ! Name  Definition              Value          Derivative Info.                !
 --------------------------------------------------------------------------------
 ! R1    R(1,2)                  1.2696         estimate D2E/DX2                !
 ! R2    R(1,4)                  1.0434         estimate D2E/DX2                !
 ! R3    R(2,3)                  1.2696         estimate D2E/DX2                !
 ! R4    R(3,5)                  1.0434         estimate D2E/DX2                !
 ! A1    A(2,1,4)              119.9943         estimate D2E/DX2                !
 ! A2    A(2,3,5)              119.9929         estimate D2E/DX2                !
 ! A3    L(1,2,3,5,-1)         180.0            estimate D2E/DX2                !
 ! A4    L(1,2,3,5,-2)         180.0            estimate D2E/DX2                !
 ! D1    D(4,1,3,5)             -0.0198         estimate D2E/DX2                !
 --------------------------------------------------------------------------------
 Trust Radius=3.00D-01 FncErr=1.00D-07 GrdErr=1.00D-06
 Number of steps in this run=     20 maximum allowed number of steps=    100.
 GradGradGradGradGradGradGradGradGradGradGradGradGradGradGradGradGradGrad

 Leave Link  103 at Fri Aug 26 11:37:27 2022, MaxMem= 24159191040 cpu:         0.5
 (Enter /public/home/users/caep010/software/Gaussian09/g09/l202.exe)
                          Input orientation:                          
 ---------------------------------------------------------------------
 Center     Atomic      Atomic             Coordinates (Angstroms)
 Number     Number       Type             X           Y           Z
 ---------------------------------------------------------------------
      1          7           0        1.264800   -0.371200   -0.071800
      2          6           0       -0.004500   -0.358600   -0.098100
      3          7           0       -1.273800   -0.346000   -0.124400
      4          1           0        1.797500    0.520100   -0.174000
      5          1           0       -1.784000    0.555700   -0.247900
 ---------------------------------------------------------------------
                    Distance matrix (angstroms):
                    1          2          3          4          5
     1  N    0.000000
     2  C    1.269635   0.000000
     3  N    2.539270   1.269635   0.000000
     4  H    1.043374   2.006260   3.191469   0.000000
     5  H    3.191447   2.006241   1.043369   3.582439   0.000000
 Stoichiometry    CH2N2
 Framework group  C1[X(CH2N2)]
 Deg. of freedom     9
 Full point group                 C1      NOp   1
 Largest Abelian subgroup         C1      NOp   1
 Largest concise Abelian subgroup C1      NOp   1
                         Standard orientation:                         
 ---------------------------------------------------------------------
 Center     Atomic      Atomic             Coordinates (Angstroms)
 Number     Number       Type             X           Y           Z
 ---------------------------------------------------------------------
      1          7           0       -1.269634    0.082150    0.000025
      2          6           0        0.000001    0.082150    0.000000
      3          7           0        1.269636    0.082149   -0.000025
      4          1           0       -1.791231   -0.821491   -0.000122
      5          1           0        1.791208   -0.821500    0.000122
 ---------------------------------------------------------------------
 Rotational constants (GHZ):    322.5183479      9.7918325      9.5033069
 Leave Link  202 at Fri Aug 26 11:37:27 2022, MaxMem= 24159191040 cpu:         0.4
 (Enter /public/home/users/caep010/software/Gaussian09/g09/l301.exe)
 Standard basis: GTBas3 (6D, 7F)
 Ernie: Thresh=  0.10000D-02 Tol=  0.10000D-05 Strict=F.
 There are   103 symmetry adapted cartesian basis functions of A   symmetry.
 There are    94 symmetry adapted basis functions of A   symmetry.
    94 basis functions,   146 primitive gaussians,   103 cartesian basis functions
    11 alpha electrons       11 beta electrons
       nuclear repulsion energy        57.9569836205 Hartrees.
 IExCor=  402 DFT=T Ex+Corr=B3LYP ExCW=0 ScaHFX=  0.200000
 ScaDFX=  0.800000  0.720000  1.000000  0.810000 ScalE2=  1.000000  1.000000
 IRadAn=      0 IRanWt=     -1 IRanGd=            0 ICorTp=0 IEmpDi=  4
 NAtoms=    5 NActive=    5 NUniq=    5 SFac= 1.00D+00 NAtFMM=   60 NAOKFM=F Big=F
 Integral buffers will be    131072 words long.
 Raffenetti 2 integral format.
 Two-electron integral symmetry is turned on.
 Leave Link  301 at Fri Aug 26 11:37:28 2022, MaxMem= 24159191040 cpu:         2.4
 (Enter /public/home/users/caep010/software/Gaussian09/g09/l302.exe)
 NPDir=0 NMtPBC=     1 NCelOv=     1 NCel=       1 NClECP=     1 NCelD=      1
         NCelK=      1 NCelE2=     1 NClLst=     1 CellRange=     0.0.
 One-electron integrals computed using PRISM.
 NBasis=    94 RedAO= T EigKep=  1.65D-04  NBF=    94
 NBsUse=    94 1.00D-06 EigRej= -1.00D+00 NBFU=    94
 Precomputing XC quadrature grid using
 IXCGrd= 4 IRadAn=           0 IRanWt=          -1 IRanGd=           0 AccXCQ= 0.00D+00.
 Generated NRdTot=       0 NPtTot=           0 NUsed=           0 NTot=          32
 NSgBfM=   103   103   103   103   103 MxSgAt=     5 MxSgA2=     5.
 Leave Link  302 at Fri Aug 26 11:37:28 2022, MaxMem= 24159191040 cpu:        13.1
 (Enter /public/home/users/caep010/software/Gaussian09/g09/l303.exe)
 DipDrv:  MaxL=1.
 Leave Link  303 at Fri Aug 26 11:37:28 2022, MaxMem= 24159191040 cpu:         0.6
 (Enter /public/home/users/caep010/software/Gaussian09/g09/l401.exe)
 ExpMin= 1.61D-01 ExpMax= 4.17D+03 ExpMxC= 6.27D+02 IAcc=1 IRadAn=         1 AccDes= 0.00D+00
 Harris functional with IExCor=  402 and IRadAn=       1 diagonalized for initial guess.
 HarFok:  IExCor=  402 AccDes= 0.00D+00 IRadAn=         1 IDoV= 1 UseB2=F ITyADJ=14
 ICtDFT=  3500011 ScaDFX=  1.000000  1.000000  1.000000  1.000000
 FoFCou: FMM=F IPFlag=           0 FMFlag=      100000 FMFlg1=           0
         NFxFlg=           0 DoJE=T BraDBF=F KetDBF=T FulRan=T
         wScrn=  0.000000 ICntrl=     500 IOpCl=  0 I1Cent=   200000004 NGrid=           0
         NMat0=    1 NMatS0=      1 NMatT0=    0 NMatD0=    1 NMtDS0=    0 NMtDT0=    0
 Petite list used in FoFCou.
 Harris En= -148.773288584658    
 JPrj=0 DoOrth=F DoCkMO=F.
 Leave Link  401 at Fri Aug 26 11:37:29 2022, MaxMem= 24159191040 cpu:        12.1
 (Enter /public/home/users/caep010/software/Gaussian09/g09/l502.exe)
 Closed shell SCF:
 Using DIIS extrapolation, IDIIS=  1040.
 Integral symmetry usage will be decided dynamically.
 Keep R1 ints in memory in canonical form, NReq=11990959.
 IVT=       54419 IEndB=       54419 NGot= 24159191040 MDV= 24149166277
 LenX= 24149166277 LenY= 24149155227
 Requested convergence on RMS density matrix=1.00D-08 within 128 cycles.
 Requested convergence on MAX density matrix=1.00D-06.
 Requested convergence on             energy=1.00D-06.
 No special actions if energy rises.
 FoFCou: FMM=F IPFlag=           0 FMFlag=           0 FMFlg1=           0
         NFxFlg=           0 DoJE=F BraDBF=F KetDBF=F FulRan=T
         wScrn=  0.000000 ICntrl=     600 IOpCl=  0 I1Cent=           0 NGrid=           0
         NMat0=    1 NMatS0=   4465 NMatT0=    0 NMatD0=    1 NMtDS0=    0 NMtDT0=    0
 Symmetry not used in FoFCou.
 Integral accuracy reduced to 1.0D-05 until final iterations.

 Cycle   1  Pass 0  IDiag  1:
 E= -148.673708774522    
 DIIS: error= 3.38D-02 at cycle   1 NSaved=   1.
 NSaved= 1 IEnMin= 1 EnMin= -148.673708774522     IErMin= 1 ErrMin= 3.38D-02
 ErrMax= 3.38D-02  0.00D+00 EMaxC= 1.00D-01 BMatC= 1.17D-01 BMatP= 1.17D-01
 IDIUse=3 WtCom= 6.62D-01 WtEn= 3.38D-01
 Coeff-Com:  0.100D+01
 Coeff-En:   0.100D+01
 Coeff:      0.100D+01
 Gap=     0.117 Goal=   None    Shift=    0.000
 GapD=    0.117 DampG=1.000 DampE=0.500 DampFc=0.5000 IDamp=-1.
 Damping current iteration by 5.00D-01
 RMSDP=7.25D-03 MaxDP=1.38D-01              OVMax= 2.25D-01

 Cycle   2  Pass 0  IDiag  1:
 E= -148.698332381831     Delta-E=       -0.024623607309 Rises=F Damp=T
 DIIS: error= 1.37D-02 at cycle   2 NSaved=   2.
 NSaved= 2 IEnMin= 2 EnMin= -148.698332381831     IErMin= 2 ErrMin= 1.37D-02
 ErrMax= 1.37D-02  0.00D+00 EMaxC= 1.00D-01 BMatC= 1.53D-02 BMatP= 1.17D-01
 IDIUse=3 WtCom= 8.63D-01 WtEn= 1.37D-01
 Coeff-Com:  0.218D+00 0.782D+00
 Coeff-En:   0.364D+00 0.636D+00
 Coeff:      0.238D+00 0.762D+00
 Gap=     0.194 Goal=   None    Shift=    0.000
 RMSDP=1.35D-03 MaxDP=4.14D-02 DE=-2.46D-02 OVMax= 1.77D-01

 Cycle   3  Pass 0  IDiag  1:
 E= -148.761886117363     Delta-E=       -0.063553735532 Rises=F Damp=F
 DIIS: error= 8.10D-03 at cycle   3 NSaved=   3.
 NSaved= 3 IEnMin= 3 EnMin= -148.761886117363     IErMin= 3 ErrMin= 8.10D-03
 ErrMax= 8.10D-03  0.00D+00 EMaxC= 1.00D-01 BMatC= 4.67D-03 BMatP= 1.53D-02
 IDIUse=3 WtCom= 9.19D-01 WtEn= 8.10D-02
 Coeff-Com:  0.715D-01 0.364D+00 0.565D+00
 Coeff-En:   0.000D+00 0.000D+00 0.100D+01
 Coeff:      0.657D-01 0.334D+00 0.600D+00
 Gap=     0.201 Goal=   None    Shift=    0.000
 RMSDP=7.90D-04 MaxDP=1.96D-02 DE=-6.36D-02 OVMax= 3.11D-02

 Cycle   4  Pass 0  IDiag  1:
 E= -148.766122587776     Delta-E=       -0.004236470413 Rises=F Damp=F
 DIIS: error= 2.68D-03 at cycle   4 NSaved=   4.
 NSaved= 4 IEnMin= 4 EnMin= -148.766122587776     IErMin= 4 ErrMin= 2.68D-03
 ErrMax= 2.68D-03  0.00D+00 EMaxC= 1.00D-01 BMatC= 4.66D-04 BMatP= 4.67D-03
 IDIUse=3 WtCom= 9.73D-01 WtEn= 2.68D-02
 Coeff-Com:  0.454D-02 0.274D-02 0.237D+00 0.756D+00
 Coeff-En:   0.000D+00 0.000D+00 0.462D-01 0.954D+00
 Coeff:      0.441D-02 0.267D-02 0.232D+00 0.761D+00
 Gap=     0.202 Goal=   None    Shift=    0.000
 RMSDP=1.88D-04 MaxDP=4.92D-03 DE=-4.24D-03 OVMax= 8.29D-03

 Cycle   5  Pass 0  IDiag  1:
 E= -148.766600118323     Delta-E=       -0.000477530547 Rises=F Damp=F
 DIIS: error= 2.86D-04 at cycle   5 NSaved=   5.
 NSaved= 5 IEnMin= 5 EnMin= -148.766600118323     IErMin= 5 ErrMin= 2.86D-04
 ErrMax= 2.86D-04  0.00D+00 EMaxC= 1.00D-01 BMatC= 3.82D-06 BMatP= 4.66D-04
 IDIUse=3 WtCom= 9.97D-01 WtEn= 2.86D-03
 Coeff-Com:  0.310D-03-0.199D-03 0.665D-01 0.254D+00 0.679D+00
 Coeff-En:   0.000D+00 0.000D+00 0.000D+00 0.000D+00 0.100D+01
 Coeff:      0.309D-03-0.198D-03 0.663D-01 0.254D+00 0.680D+00
 Gap=     0.202 Goal=   None    Shift=    0.000
 RMSDP=1.29D-05 MaxDP=2.42D-04 DE=-4.78D-04 OVMax= 6.68D-04

 Cycle   6  Pass 0  IDiag  1:
 E= -148.766603787750     Delta-E=       -0.000003669427 Rises=F Damp=F
 DIIS: error= 3.56D-05 at cycle   6 NSaved=   6.
 NSaved= 6 IEnMin= 6 EnMin= -148.766603787750     IErMin= 6 ErrMin= 3.56D-05
 ErrMax= 3.56D-05  0.00D+00 EMaxC= 1.00D-01 BMatC= 7.01D-08 BMatP= 3.82D-06
 IDIUse=1 WtCom= 1.00D+00 WtEn= 0.00D+00
 Coeff-Com: -0.318D-03 0.291D-03 0.337D-03 0.130D-01 0.115D+00 0.872D+00
 Coeff:     -0.318D-03 0.291D-03 0.337D-03 0.130D-01 0.115D+00 0.872D+00
 Gap=     0.202 Goal=   None    Shift=    0.000
 RMSDP=1.43D-06 MaxDP=2.47D-05 DE=-3.67D-06 OVMax= 6.68D-05

 Initial convergence to 1.0D-05 achieved.  Increase integral accuracy.
 Cycle   7  Pass 1  IDiag  1:
 E= -148.766637626541     Delta-E=       -0.000033838791 Rises=F Damp=F
 DIIS: error= 5.54D-06 at cycle   1 NSaved=   1.
 NSaved= 1 IEnMin= 1 EnMin= -148.766637626541     IErMin= 1 ErrMin= 5.54D-06
 ErrMax= 5.54D-06  0.00D+00 EMaxC= 1.00D-01 BMatC= 4.00D-09 BMatP= 4.00D-09
 IDIUse=1 WtCom= 1.00D+00 WtEn= 0.00D+00
 Coeff-Com:  0.100D+01
 Coeff:      0.100D+01
 Gap=     0.202 Goal=   None    Shift=    0.000
 RMSDP=1.43D-06 MaxDP=2.47D-05 DE=-3.38D-05 OVMax= 3.17D-05

 Cycle   8  Pass 1  IDiag  1:
 E= -148.766637624396     Delta-E=        0.000000002146 Rises=F Damp=F
 DIIS: error= 6.33D-06 at cycle   2 NSaved=   2.
 NSaved= 2 IEnMin= 1 EnMin= -148.766637626541     IErMin= 1 ErrMin= 5.54D-06
 ErrMax= 6.33D-06  0.00D+00 EMaxC= 1.00D-01 BMatC= 5.43D-09 BMatP= 4.00D-09
 IDIUse=1 WtCom= 1.00D+00 WtEn= 0.00D+00
 Coeff-Com:  0.551D+00 0.449D+00
 Coeff:      0.551D+00 0.449D+00
 Gap=     0.202 Goal=   None    Shift=    0.000
 RMSDP=8.83D-07 MaxDP=2.41D-05 DE= 2.15D-09 OVMax= 3.75D-05

 Cycle   9  Pass 1  IDiag  1:
 E= -148.766637627823     Delta-E=       -0.000000003427 Rises=F Damp=F
 DIIS: error= 4.31D-06 at cycle   3 NSaved=   3.
 NSaved= 3 IEnMin= 3 EnMin= -148.766637627823     IErMin= 3 ErrMin= 4.31D-06
 ErrMax= 4.31D-06  0.00D+00 EMaxC= 1.00D-01 BMatC= 1.72D-09 BMatP= 4.00D-09
 IDIUse=1 WtCom= 1.00D+00 WtEn= 0.00D+00
 Coeff-Com:  0.470D-01 0.352D+00 0.601D+00
 Coeff:      0.470D-01 0.352D+00 0.601D+00
 Gap=     0.202 Goal=   None    Shift=    0.000
 RMSDP=4.20D-07 MaxDP=1.00D-05 DE=-3.43D-09 OVMax= 1.97D-05

 Cycle  10  Pass 1  IDiag  1:
 E= -148.766637629156     Delta-E=       -0.000000001333 Rises=F Damp=F
 DIIS: error= 1.50D-06 at cycle   4 NSaved=   4.
 NSaved= 4 IEnMin= 4 EnMin= -148.766637629156     IErMin= 4 ErrMin= 1.50D-06
 ErrMax= 1.50D-06  0.00D+00 EMaxC= 1.00D-01 BMatC= 2.94D-10 BMatP= 1.72D-09
 IDIUse=1 WtCom= 1.00D+00 WtEn= 0.00D+00
 Coeff-Com: -0.335D-02 0.222D+00 0.429D+00 0.352D+00
 Coeff:     -0.335D-02 0.222D+00 0.429D+00 0.352D+00
 Gap=     0.202 Goal=   None    Shift=    0.000
 RMSDP=1.30D-07 MaxDP=3.64D-06 DE=-1.33D-09 OVMax= 4.85D-06

 Cycle  11  Pass 1  IDiag  1:
 E= -148.766637629423     Delta-E=       -0.000000000267 Rises=F Damp=F
 DIIS: error= 1.15D-07 at cycle   5 NSaved=   5.
 NSaved= 5 IEnMin= 5 EnMin= -148.766637629423     IErMin= 5 ErrMin= 1.15D-07
 ErrMax= 1.15D-07  0.00D+00 EMaxC= 1.00D-01 BMatC= 1.51D-12 BMatP= 2.94D-10
 IDIUse=1 WtCom= 1.00D+00 WtEn= 0.00D+00
 Coeff-Com: -0.517D-02 0.606D-01 0.118D+00 0.118D+00 0.708D+00
 Coeff:     -0.517D-02 0.606D-01 0.118D+00 0.118D+00 0.708D+00
 Gap=     0.202 Goal=   None    Shift=    0.000
 RMSDP=1.72D-08 MaxDP=4.15D-07 DE=-2.67D-10 OVMax= 3.32D-07

 Cycle  12  Pass 1  IDiag  1:
 E= -148.766637629425     Delta-E=       -0.000000000002 Rises=F Damp=F
 DIIS: error= 3.28D-08 at cycle   6 NSaved=   6.
 NSaved= 6 IEnMin= 6 EnMin= -148.766637629425     IErMin= 6 ErrMin= 3.28D-08
 ErrMax= 3.28D-08  0.00D+00 EMaxC= 1.00D-01 BMatC= 1.18D-13 BMatP= 1.51D-12
 IDIUse=1 WtCom= 1.00D+00 WtEn= 0.00D+00
 Coeff-Com: -0.162D-02 0.152D-01 0.288D-01 0.305D-01 0.286D+00 0.641D+00
 Coeff:     -0.162D-02 0.152D-01 0.288D-01 0.305D-01 0.286D+00 0.641D+00
 Gap=     0.202 Goal=   None    Shift=    0.000
 RMSDP=4.05D-09 MaxDP=6.42D-08 DE=-1.65D-12 OVMax= 9.56D-08

 SCF Done:  E(RB3LYP) =  -148.766637629     A.U. after   12 cycles
            NFock= 12  Conv=0.40D-08     -V/T= 2.0102
 KE= 1.472658772443D+02 PE=-4.626237532712D+02 EE= 1.086342547769D+02
 Leave Link  502 at Fri Aug 26 11:37:30 2022, MaxMem= 24159191040 cpu:        23.3
 (Enter /public/home/users/caep010/software/Gaussian09/g09/l601.exe)
 Copying SCF densities to generalized density rwf, IOpCl= 0 IROHF=0.

 **********************************************************************

            Population analysis using the SCF density.

 **********************************************************************

 Orbital symmetries:
       Occupied  (A) (A) (A) (A) (A) (A) (A) (A) (A) (A) (A)
       Virtual   (A) (A) (A) (A) (A) (A) (A) (A) (A) (A) (A) (A)
                 (A) (A) (A) (A) (A) (A) (A) (A) (A) (A) (A) (A)
                 (A) (A) (A) (A) (A) (A) (A) (A) (A) (A) (A) (A)
                 (A) (A) (A) (A) (A) (A) (A) (A) (A) (A) (A) (A)
                 (A) (A) (A) (A) (A) (A) (A) (A) (A) (A) (A) (A)
                 (A) (A) (A) (A) (A) (A) (A) (A) (A) (A) (A) (A)
                 (A) (A) (A) (A) (A) (A) (A) (A) (A) (A) (A)
 The electronic state is 1-A.
 Alpha  occ. eigenvalues --  -14.34473 -14.34458 -10.31245  -0.93766  -0.87398
 Alpha  occ. eigenvalues --   -0.58802  -0.52942  -0.40028  -0.39236  -0.29725
 Alpha  occ. eigenvalues --   -0.24802
 Alpha virt. eigenvalues --   -0.04591   0.06009   0.09074   0.10391   0.21691
 Alpha virt. eigenvalues --    0.43615   0.44663   0.50840   0.51235   0.55324
 Alpha virt. eigenvalues --    0.57991   0.63519   0.65050   0.67723   0.70003
 Alpha virt. eigenvalues --    0.75978   0.79162   0.79853   0.85294   0.88397
 Alpha virt. eigenvalues --    0.90647   0.95005   0.99065   1.14366   1.15181
 Alpha virt. eigenvalues --    1.30087   1.34839   1.39040   1.58828   1.61074
 Alpha virt. eigenvalues --    1.73904   1.77613   1.92772   1.93985   2.18745
 Alpha virt. eigenvalues --    2.29514   2.44596   2.54983   2.73820   2.74053
 Alpha virt. eigenvalues --    2.75330   2.76394   2.79990   2.89131   2.92773
 Alpha virt. eigenvalues --    3.08269   3.08890   3.22568   3.62159   3.64181
 Alpha virt. eigenvalues --    3.69227   3.69435   3.76527   3.77892   3.84240
 Alpha virt. eigenvalues --    3.93181   4.02770   4.08072   4.11366   4.12043
 Alpha virt. eigenvalues --    4.17110   4.20547   4.22597   4.27566   4.27848
 Alpha virt. eigenvalues --    4.30149   4.38340   4.44792   4.52616   4.56256
 Alpha virt. eigenvalues --    4.64785   4.92491   5.01698   5.06065   5.23264
 Alpha virt. eigenvalues --    5.30697   5.33545   6.09345   8.76179  10.59691
 Alpha virt. eigenvalues --   11.34893  11.39601  19.98450
          Condensed to atoms (all electrons):
               1          2          3          4          5
     1  N    6.534185   0.683672  -0.018238   0.348543  -0.003812
     2  C    0.683672   4.244882   0.683671  -0.052144  -0.052145
     3  N   -0.018238   0.683671   6.534183  -0.003811   0.348544
     4  H    0.348543  -0.052144  -0.003811   0.409968  -0.000873
     5  H   -0.003812  -0.052145   0.348544  -0.000873   0.409971
 Mulliken charges:
               1
     1  N   -0.544350
     2  C    0.492065
     3  N   -0.544348
     4  H    0.298318
     5  H    0.298315
 Sum of Mulliken charges =  -0.00000
 Mulliken charges with hydrogens summed into heavy atoms:
               1
     1  N   -0.246032
     2  C    0.492065
     3  N   -0.246032
 Electronic spatial extent (au):  <R**2>=            145.8601
 Charge=             -0.0000 electrons
 Dipole moment (field-independent basis, Debye):
    X=             -0.0001    Y=             -2.7005    Z=             -0.0000  Tot=              2.7005
 Quadrupole moment (field-independent basis, Debye-Ang):
   XX=            -16.2176   YY=            -15.1632   ZZ=            -18.4560
   XY=              0.0000   XZ=              0.0011   YZ=             -0.0000
 Traceless Quadrupole moment (field-independent basis, Debye-Ang):
   XX=              0.3947   YY=              1.4491   ZZ=             -1.8437
   XY=              0.0000   XZ=              0.0011   YZ=             -0.0000
 Octapole moment (field-independent basis, Debye-Ang**2):
  XXX=             -0.0005  YYY=             -3.7215  ZZZ=             -0.0000  XYY=              0.0000
  XXY=            -11.5455  XXZ=             -0.0000  XZZ=             -0.0000  YZZ=             -0.6274
  YYZ=             -0.0000  XYZ=             -0.0006
 Hexadecapole moment (field-independent basis, Debye-Ang**3):
 XXXX=           -129.9574 YYYY=            -18.0634 ZZZZ=            -16.7456 XXXY=              0.0003
 XXXZ=              0.0039 YYYX=             -0.0000 YYYZ=             -0.0000 ZZZX=              0.0007
 ZZZY=             -0.0000 XXYY=            -21.0312 XXZZ=            -29.3273 YYZZ=             -6.1592
 XXYZ=              0.0000 YYXZ=              0.0008 ZZXY=             -0.0000
 N-N= 5.795698362055D+01 E-N=-4.626237497735D+02  KE= 1.472658772443D+02
 No NMR shielding tensors so no spin-rotation constants.
 Leave Link  601 at Fri Aug 26 11:37:30 2022, MaxMem= 24159191040 cpu:        12.6
 (Enter /public/home/users/caep010/software/Gaussian09/g09/l701.exe)
 Compute integral first derivatives.
 ... and contract with generalized density number  0.
 Leave Link  701 at Fri Aug 26 11:37:31 2022, MaxMem= 24159191040 cpu:        19.0
 (Enter /public/home/users/caep010/software/Gaussian09/g09/l702.exe)
 L702 exits ... SP integral derivatives will be done elsewhere.
 Leave Link  702 at Fri Aug 26 11:37:31 2022, MaxMem= 24159191040 cpu:         0.6
 (Enter /public/home/users/caep010/software/Gaussian09/g09/l703.exe)
 Compute integral first derivatives, UseDBF=F ICtDFT=           0.
 Integral derivatives from FoFJK, PRISM(SPDF).
 Calling FoFJK, ICntrl=      2127 FMM=F ISym2X=0 I1Cent= 0 IOpClX= 0 NMat=1 NMatS=1 NMatT=0.
 FoFJK:  IHMeth= 1 ICntrl=    2127 DoSepK=F KAlg= 0 I1Cent=   0 FoldK=F
 IRaf=         0 NMat=   1 IRICut=       1 DoRegI=T DoRafI=F ISym2E= 0.
 FoFCou: FMM=F IPFlag=           0 FMFlag=      100000 FMFlg1=         800
         NFxFlg=           0 DoJE=F BraDBF=F KetDBF=F FulRan=T
         wScrn=  0.000000 ICntrl=    2127 IOpCl=  0 I1Cent=           0 NGrid=           0
         NMat0=    1 NMatS0=      1 NMatT0=    0 NMatD0=    1 NMtDS0=    0 NMtDT0=    0
 Symmetry not used in FoFCou.
 Leave Link  703 at Fri Aug 26 11:37:32 2022, MaxMem= 24159191040 cpu:        16.0
 (Enter /public/home/users/caep010/software/Gaussian09/g09/l716.exe)
 Dipole        =-2.49477053D-05-1.06244161D+00-1.74269513D-09
 ***** Axes restored to original set *****
 -------------------------------------------------------------------
 Center     Atomic                   Forces (Hartrees/Bohr)
 Number     Number              X              Y              Z
 -------------------------------------------------------------------
      1        7          -0.064653041    0.005338031   -0.001925573
      2        6           0.000508182    0.040331975   -0.005076885
      3        7           0.064771630    0.004049048    0.000743958
      4        1          -0.014478878   -0.024720933    0.002832738
      5        1           0.013852107   -0.024998120    0.003425762
 -------------------------------------------------------------------
 Cartesian Forces:  Max     0.064771630 RMS     0.027969675
 Leave Link  716 at Fri Aug 26 11:37:32 2022, MaxMem= 24159191040 cpu:         1.1
 (Enter /public/home/users/caep010/software/Gaussian09/g09/l103.exe)

 GradGradGradGradGradGradGradGradGradGradGradGradGradGradGradGradGradGrad
 Berny optimization.
 FormGI is forming the generalized inverse of G from B-inverse, IUseBI=4.
 Internal  Forces:  Max     0.078899892 RMS     0.042863231
 Search for a local minimum.
 Step number   1 out of a maximum of   20
 All quantities printed in internal units (Hartrees-Bohrs-Radians)
 RMS Force = .42863D-01 SwitMx=.10000D-02 MixMth= 1
 Mixed Optimization -- RFO/linear search
 Second derivative matrix not updated -- first step.
 The second derivative matrix:
                          R1        R2        R3        R4        A1
           R1           0.76384
           R2           0.00000   0.40809
           R3           0.00000   0.00000   0.76384
           R4           0.00000   0.00000   0.00000   0.40809
           A1           0.00000   0.00000   0.00000   0.00000   0.16000
           A2           0.00000   0.00000   0.00000   0.00000   0.00000
           A3           0.00000   0.00000   0.00000   0.00000   0.00000
           A4           0.00000   0.00000   0.00000   0.00000   0.00000
           D1           0.00000   0.00000   0.00000   0.00000   0.00000
                          A2        A3        A4        D1
           A2           0.16000
           A3           0.00000   0.03416
           A4           0.00000   0.00000   0.03416
           D1           0.00000   0.00000   0.00000   0.00230
 ITU=  0
     Eigenvalues ---    0.00230   0.03416   0.03416   0.16000   0.16000
     Eigenvalues ---    0.40809   0.40809   0.76384   0.76384
 RFO step:  Lambda=-4.83742747D-02 EMin= 2.30000000D-03
 Linear search not attempted -- first point.
 Maximum step size (   0.300) exceeded in Quadratic search.
    -- Step size scaled by   0.485
 Iteration  1 RMS(Cart)=  0.11459556 RMS(Int)=  0.02963479
 Iteration  2 RMS(Cart)=  0.04817100 RMS(Int)=  0.00135951
 Iteration  3 RMS(Cart)=  0.00199169 RMS(Int)=  0.00000013
 Iteration  4 RMS(Cart)=  0.00000021 RMS(Int)=  0.00000000
 ITry= 1 IFail=0 DXMaxC= 3.43D-01 DCOld= 1.00D+10 DXMaxT= 3.00D-01 DXLimC= 3.00D+00 Rises=F
 Variable       Old X    -DE/DX   Delta X   Delta X   Delta X     New X
                                 (Linear)    (Quad)   (Total)
    R1        2.39926  -0.07890   0.00000  -0.04708  -0.04708   2.35218
    R2        1.97169  -0.02879   0.00000  -0.03056  -0.03056   1.94113
    R3        2.39926  -0.07890   0.00000  -0.04708  -0.04708   2.35219
    R4        1.97168  -0.02878   0.00000  -0.03056  -0.03056   1.94112
    A1        2.09430   0.00050   0.00000   0.00117   0.00117   2.09546
    A2        2.09427   0.00050   0.00000   0.00117   0.00117   2.09544
    A3        3.14159   0.04927   0.00000   0.28930   0.28930   3.43090
    A4        3.14159   0.00000   0.00000   0.00002   0.00002   3.14162
    D1       -0.00035  -0.00001   0.00000  -0.00012  -0.00012  -0.00047
         Item               Value     Threshold  Converged?
 Maximum Force            0.078900     0.000450     NO 
 RMS     Force            0.042863     0.000300     NO 
 Maximum Displacement     0.342650     0.001800     NO 
 RMS     Displacement     0.162263     0.001200     NO 
 Predicted change in Energy=-1.993969D-02
 Lowest energy point so far.  Saving SCF results.
 GradGradGradGradGradGradGradGradGradGradGradGradGradGradGradGradGradGrad

 Leave Link  103 at Fri Aug 26 11:37:32 2022, MaxMem= 24159191040 cpu:         2.9
 (Enter /public/home/users/caep010/software/Gaussian09/g09/l202.exe)
                          Input orientation:                          
 ---------------------------------------------------------------------
 Center     Atomic      Atomic             Coordinates (Angstroms)
 Number     Number       Type             X           Y           Z
 ---------------------------------------------------------------------
      1          7           0        1.226941   -0.367510   -0.073004
      2          6           0       -0.002226   -0.177277   -0.120896
      3          7           0       -1.235855   -0.343066   -0.124056
      4          1           0        1.874121    0.425352   -0.160575
      5          1           0       -1.862981    0.462502   -0.237669
 ---------------------------------------------------------------------
                    Distance matrix (angstroms):
                    1          2          3          4          5
     1  N    0.000000
     2  C    1.244723   0.000000
     3  N    2.463446   1.244723   0.000000
     4  H    1.027200   1.971146   3.203709   0.000000
     5  H    3.203694   1.971133   1.027198   3.738082   0.000000
 Stoichiometry    CH2N2
 Framework group  C1[X(CH2N2)]
 Deg. of freedom     9
 Full point group                 C1      NOp   1
 RotChk:  IX=1 Diff= 3.85D-05
 Largest Abelian subgroup         C1      NOp   1
 Largest concise Abelian subgroup C1      NOp   1
                         Standard orientation:                         
 ---------------------------------------------------------------------
 Center     Atomic      Atomic             Coordinates (Angstroms)
 Number     Number       Type             X           Y           Z
 ---------------------------------------------------------------------
      1          7           0       -1.231722    0.122168    0.000022
      2          6           0        0.000001   -0.057256    0.000028
      3          7           0        1.231724    0.122169   -0.000040
      4          1           0       -1.869049   -0.683409   -0.000161
      5          1           0        1.869033   -0.683420    0.000124
 ---------------------------------------------------------------------
 Rotational constants (GHZ):    372.9892773     10.2033677      9.9316800
 Leave Link  202 at Fri Aug 26 11:37:32 2022, MaxMem= 24159191040 cpu:         0.2
 (Enter /public/home/users/caep010/software/Gaussian09/g09/l301.exe)
 Standard basis: GTBas3 (6D, 7F)
 Ernie: Thresh=  0.10000D-02 Tol=  0.10000D-05 Strict=F.
 There are   103 symmetry adapted cartesian basis functions of A   symmetry.
 There are    94 symmetry adapted basis functions of A   symmetry.
    94 basis functions,   146 primitive gaussians,   103 cartesian basis functions
    11 alpha electrons       11 beta electrons
       nuclear repulsion energy        59.1251450624 Hartrees.
 IExCor=  402 DFT=T Ex+Corr=B3LYP ExCW=0 ScaHFX=  0.200000
 ScaDFX=  0.800000  0.720000  1.000000  0.810000 ScalE2=  1.000000  1.000000
 IRadAn=      0 IRanWt=     -1 IRanGd=            0 ICorTp=0 IEmpDi=  4
 NAtoms=    5 NActive=    5 NUniq=    5 SFac= 1.00D+00 NAtFMM=   60 NAOKFM=F Big=F
 Integral buffers will be    131072 words long.
 Raffenetti 2 integral format.
 Two-electron integral symmetry is turned on.
 Leave Link  301 at Fri Aug 26 11:37:32 2022, MaxMem= 24159191040 cpu:         1.6
 (Enter /public/home/users/caep010/software/Gaussian09/g09/l302.exe)
 NPDir=0 NMtPBC=     1 NCelOv=     1 NCel=       1 NClECP=     1 NCelD=      1
         NCelK=      1 NCelE2=     1 NClLst=     1 CellRange=     0.0.
 One-electron integrals computed using PRISM.
 NBasis=    94 RedAO= T EigKep=  2.31D-04  NBF=    94
 NBsUse=    94 1.00D-06 EigRej= -1.00D+00 NBFU=    94
 Precomputing XC quadrature grid using
 IXCGrd= 4 IRadAn=           0 IRanWt=          -1 IRanGd=           0 AccXCQ= 0.00D+00.
 Generated NRdTot=       0 NPtTot=           0 NUsed=           0 NTot=          32
 NSgBfM=   103   103   103   103   103 MxSgAt=     5 MxSgA2=     5.
 Leave Link  302 at Fri Aug 26 11:37:33 2022, MaxMem= 24159191040 cpu:        13.1
 (Enter /public/home/users/caep010/software/Gaussian09/g09/l303.exe)
 DipDrv:  MaxL=1.
 Leave Link  303 at Fri Aug 26 11:37:33 2022, MaxMem= 24159191040 cpu:         0.6
 (Enter /public/home/users/caep010/software/Gaussian09/g09/l401.exe)
 Initial guess from the checkpoint file:  "G4.Frag_1077.chk"
 B after Tr=     0.000000   -0.000000    0.000000
         Rot=    1.000000   -0.000014   -0.000001   -0.000000 Ang=  -0.00 deg.
 Guess basis will be translated and rotated to current coordinates.
 JPrj=2 DoOrth=T DoCkMO=T.
 Generating alternative initial guess.
 ExpMin= 1.61D-01 ExpMax= 4.17D+03 ExpMxC= 6.27D+02 IAcc=1 IRadAn=         1 AccDes= 0.00D+00
 Harris functional with IExCor=  402 and IRadAn=       1 diagonalized for initial guess.
 HarFok:  IExCor=  402 AccDes= 0.00D+00 IRadAn=         1 IDoV= 1 UseB2=F ITyADJ=14
 ICtDFT=  3500011 ScaDFX=  1.000000  1.000000  1.000000  1.000000
 FoFCou: FMM=F IPFlag=           0 FMFlag=      100000 FMFlg1=           0
         NFxFlg=           0 DoJE=T BraDBF=F KetDBF=T FulRan=T
         wScrn=  0.000000 ICntrl=     500 IOpCl=  0 I1Cent=   200000004 NGrid=           0
         NMat0=    1 NMatS0=      1 NMatT0=    0 NMatD0=    1 NMtDS0=    0 NMtDT0=    0
 Petite list used in FoFCou.
 Harris En= -148.786219086329    
 Leave Link  401 at Fri Aug 26 11:37:33 2022, MaxMem= 24159191040 cpu:        13.8
 (Enter /public/home/users/caep010/software/Gaussian09/g09/l502.exe)
 Closed shell SCF:
 Using DIIS extrapolation, IDIIS=  1040.
 Integral symmetry usage will be decided dynamically.
 Keep R1 ints in memory in canonical form, NReq=11990959.
 IVT=       54419 IEndB=       54419 NGot= 24159191040 MDV= 24149166277
 LenX= 24149166277 LenY= 24149155227
 Requested convergence on RMS density matrix=1.00D-08 within 128 cycles.
 Requested convergence on MAX density matrix=1.00D-06.
 Requested convergence on             energy=1.00D-06.
 No special actions if energy rises.
 FoFCou: FMM=F IPFlag=           0 FMFlag=           0 FMFlg1=           0
         NFxFlg=           0 DoJE=F BraDBF=F KetDBF=F FulRan=T
         wScrn=  0.000000 ICntrl=     600 IOpCl=  0 I1Cent=           0 NGrid=           0
         NMat0=    1 NMatS0=   4465 NMatT0=    0 NMatD0=    1 NMtDS0=    0 NMtDT0=    0
 Symmetry not used in FoFCou.
 Integral accuracy reduced to 1.0D-05 until final iterations.

 Cycle   1  Pass 0  IDiag  1:
 E= -148.757206591980    
 DIIS: error= 2.49D-02 at cycle   1 NSaved=   1.
 NSaved= 1 IEnMin= 1 EnMin= -148.757206591980     IErMin= 1 ErrMin= 2.49D-02
 ErrMax= 2.49D-02  0.00D+00 EMaxC= 1.00D-01 BMatC= 3.05D-02 BMatP= 3.05D-02
 IDIUse=3 WtCom= 7.51D-01 WtEn= 2.49D-01
 Coeff-Com:  0.100D+01
 Coeff-En:   0.100D+01
 Coeff:      0.100D+01
 Recover alternate guess density for next cycle.
 RMSDP=4.38D-03 MaxDP=6.35D-02              OVMax= 0.00D+00

 Cycle   2  Pass 0  IDiag  1:
 E= -148.685662805257     Delta-E=        0.071543786723 Rises=F Damp=F
 Switch densities from cycles 1 and 2 for lowest energy.
 DIIS: error= 3.78D-02 at cycle   2 NSaved=   2.
 NSaved= 2 IEnMin= 1 EnMin= -148.757206591980     IErMin= 1 ErrMin= 2.49D-02
 ErrMax= 3.78D-02  0.00D+00 EMaxC= 1.00D+00 BMatC= 1.18D-01 BMatP= 3.05D-02
 IDIUse=1 WtCom= 1.00D+00 WtEn= 0.00D+00
 Coeff-Com:  0.800D+00 0.200D+00
 Coeff:      0.800D+00 0.200D+00
 Gap=     0.200 Goal=   None    Shift=    0.000
 RMSDP=3.05D-03 MaxDP=4.47D-02 DE= 7.15D-02 OVMax= 1.12D-01

 Cycle   3  Pass 0  IDiag  1:
 E= -148.767677011276     Delta-E=       -0.082014206018 Rises=F Damp=F
 DIIS: error= 1.46D-02 at cycle   3 NSaved=   3.
 NSaved= 3 IEnMin= 3 EnMin= -148.767677011276     IErMin= 3 ErrMin= 1.46D-02
 ErrMax= 1.46D-02  0.00D+00 EMaxC= 1.00D+00 BMatC= 1.52D-02 BMatP= 3.05D-02
 IDIUse=1 WtCom= 1.00D+00 WtEn= 0.00D+00
 Coeff-Com:  0.658D-01 0.235D+00 0.700D+00
 Coeff:      0.658D-01 0.235D+00 0.700D+00
 Gap=     0.223 Goal=   None    Shift=    0.000
 RMSDP=1.04D-03 MaxDP=2.70D-02 DE=-8.20D-02 OVMax= 5.36D-02

 Cycle   4  Pass 0  IDiag  1:
 E= -148.777889091306     Delta-E=       -0.010212080030 Rises=F Damp=F
 DIIS: error= 5.92D-03 at cycle   4 NSaved=   4.
 NSaved= 4 IEnMin= 4 EnMin= -148.777889091306     IErMin= 4 ErrMin= 5.92D-03
 ErrMax= 5.92D-03  0.00D+00 EMaxC= 1.00D+00 BMatC= 2.37D-03 BMatP= 1.52D-02
 IDIUse=1 WtCom= 1.00D+00 WtEn= 0.00D+00
 Coeff-Com: -0.834D-02 0.100D+00 0.392D+00 0.516D+00
 Coeff:     -0.834D-02 0.100D+00 0.392D+00 0.516D+00
 Gap=     0.220 Goal=   None    Shift=    0.000
 DSYEVD-2 returned Info=        4654 IAlg= 4 N=    94 NDim=    94 NE2=   256905905 trying  DSYEV.
 RMSDP=4.06D-04 MaxDP=1.14D-02 DE=-1.02D-02 OVMax= 1.98D-02

 Cycle   5  Pass 0  IDiag  1:
 E= -148.780129803334     Delta-E=       -0.002240712028 Rises=F Damp=F
 DIIS: error= 5.69D-04 at cycle   5 NSaved=   5.
 NSaved= 5 IEnMin= 5 EnMin= -148.780129803334     IErMin= 5 ErrMin= 5.69D-04
 ErrMax= 5.69D-04  0.00D+00 EMaxC= 1.00D+00 BMatC= 2.45D-05 BMatP= 2.37D-03
 IDIUse=1 WtCom= 1.00D+00 WtEn= 0.00D+00
 Coeff-Com: -0.266D-02 0.117D-02 0.320D-01 0.122D+00 0.848D+00
 Coeff:     -0.266D-02 0.117D-02 0.320D-01 0.122D+00 0.848D+00
 Gap=     0.220 Goal=   None    Shift=    0.000
 RMSDP=4.81D-05 MaxDP=1.01D-03 DE=-2.24D-03 OVMax= 1.44D-03

 Cycle   6  Pass 0  IDiag  1:
 E= -148.780155214774     Delta-E=       -0.000025411440 Rises=F Damp=F
 DIIS: error= 3.36D-05 at cycle   6 NSaved=   6.
 NSaved= 6 IEnMin= 6 EnMin= -148.780155214774     IErMin= 6 ErrMin= 3.36D-05
 ErrMax= 3.36D-05  0.00D+00 EMaxC= 1.00D+00 BMatC= 6.08D-08 BMatP= 2.45D-05
 IDIUse=1 WtCom= 1.00D+00 WtEn= 0.00D+00
 Coeff-Com: -0.334D-03-0.533D-04 0.408D-02 0.152D-01 0.125D+00 0.856D+00
 Coeff:     -0.334D-03-0.533D-04 0.408D-02 0.152D-01 0.125D+00 0.856D+00
 Gap=     0.220 Goal=   None    Shift=    0.000
 RMSDP=2.22D-06 MaxDP=2.43D-05 DE=-2.54D-05 OVMax= 1.13D-04

 Initial convergence to 1.0D-05 achieved.  Increase integral accuracy.
 Cycle   7  Pass 1  IDiag  1:
 E= -148.780164696203     Delta-E=       -0.000009481430 Rises=F Damp=F
 DIIS: error= 1.11D-05 at cycle   1 NSaved=   1.
 NSaved= 1 IEnMin= 1 EnMin= -148.780164696203     IErMin= 1 ErrMin= 1.11D-05
 ErrMax= 1.11D-05  0.00D+00 EMaxC= 1.00D+00 BMatC= 9.46D-09 BMatP= 9.46D-09
 IDIUse=1 WtCom= 1.00D+00 WtEn= 0.00D+00
 Coeff-Com:  0.100D+01
 Coeff:      0.100D+01
 Gap=     0.220 Goal=   None    Shift=    0.000
 RMSDP=2.22D-06 MaxDP=2.43D-05 DE=-9.48D-06 OVMax= 6.81D-05

 Cycle   8  Pass 1  IDiag  1:
 E= -148.780164697926     Delta-E=       -0.000000001722 Rises=F Damp=F
 DIIS: error= 8.74D-06 at cycle   2 NSaved=   2.
 NSaved= 2 IEnMin= 2 EnMin= -148.780164697926     IErMin= 2 ErrMin= 8.74D-06
 ErrMax= 8.74D-06  0.00D+00 EMaxC= 1.00D+00 BMatC= 6.87D-09 BMatP= 9.46D-09
 IDIUse=1 WtCom= 1.00D+00 WtEn= 0.00D+00
 Coeff-Com:  0.454D+00 0.546D+00
 Coeff:      0.454D+00 0.546D+00
 Gap=     0.220 Goal=   None    Shift=    0.000
 RMSDP=7.93D-07 MaxDP=1.84D-05 DE=-1.72D-09 OVMax= 4.36D-05

 Cycle   9  Pass 1  IDiag  1:
 E= -148.780164702599     Delta-E=       -0.000000004673 Rises=F Damp=F
 DIIS: error= 4.59D-06 at cycle   3 NSaved=   3.
 NSaved= 3 IEnMin= 3 EnMin= -148.780164702599     IErMin= 3 ErrMin= 4.59D-06
 ErrMax= 4.59D-06  0.00D+00 EMaxC= 1.00D+00 BMatC= 1.88D-09 BMatP= 6.87D-09
 IDIUse=1 WtCom= 1.00D+00 WtEn= 0.00D+00
 Coeff-Com:  0.186D+00 0.351D+00 0.463D+00
 Coeff:      0.186D+00 0.351D+00 0.463D+00
 Gap=     0.220 Goal=   None    Shift=    0.000
 RMSDP=3.56D-07 MaxDP=1.05D-05 DE=-4.67D-09 OVMax= 1.31D-05

 Cycle  10  Pass 1  IDiag  1:
 E= -148.780164704096     Delta-E=       -0.000000001497 Rises=F Damp=F
 DIIS: error= 1.12D-06 at cycle   4 NSaved=   4.
 NSaved= 4 IEnMin= 4 EnMin= -148.780164704096     IErMin= 4 ErrMin= 1.12D-06
 ErrMax= 1.12D-06  0.00D+00 EMaxC= 1.00D+00 BMatC= 1.10D-10 BMatP= 1.88D-09
 IDIUse=1 WtCom= 1.00D+00 WtEn= 0.00D+00
 Coeff-Com:  0.434D-01 0.117D+00 0.238D+00 0.601D+00
 Coeff:      0.434D-01 0.117D+00 0.238D+00 0.601D+00
 Gap=     0.220 Goal=   None    Shift=    0.000
 RMSDP=1.51D-07 MaxDP=3.53D-06 DE=-1.50D-09 OVMax= 7.10D-06

 Cycle  11  Pass 1  IDiag  1:
 E= -148.780164704123     Delta-E=       -0.000000000027 Rises=F Damp=F
 DIIS: error= 9.79D-07 at cycle   5 NSaved=   5.
 NSaved= 5 IEnMin= 5 EnMin= -148.780164704123     IErMin= 5 ErrMin= 9.79D-07
 ErrMax= 9.79D-07  0.00D+00 EMaxC= 1.00D+00 BMatC= 8.35D-11 BMatP= 1.10D-10
 IDIUse=1 WtCom= 1.00D+00 WtEn= 0.00D+00
 Coeff-Com: -0.331D-02 0.232D-01 0.971D-01 0.485D+00 0.398D+00
 Coeff:     -0.331D-02 0.232D-01 0.971D-01 0.485D+00 0.398D+00
 Gap=     0.220 Goal=   None    Shift=    0.000
 RMSDP=7.43D-08 MaxDP=2.07D-06 DE=-2.66D-11 OVMax= 3.39D-06

 Cycle  12  Pass 1  IDiag  1:
 E= -148.780164704199     Delta-E=       -0.000000000076 Rises=F Damp=F
 DIIS: error= 7.22D-08 at cycle   6 NSaved=   6.
 NSaved= 6 IEnMin= 6 EnMin= -148.780164704199     IErMin= 6 ErrMin= 7.22D-08
 ErrMax= 7.22D-08  0.00D+00 EMaxC= 1.00D+00 BMatC= 4.91D-13 BMatP= 8.35D-11
 IDIUse=1 WtCom= 1.00D+00 WtEn= 0.00D+00
 Coeff-Com: -0.300D-02 0.735D-02 0.383D-01 0.214D+00 0.191D+00 0.552D+00
 Coeff:     -0.300D-02 0.735D-02 0.383D-01 0.214D+00 0.191D+00 0.552D+00
 Gap=     0.220 Goal=   None    Shift=    0.000
 RMSDP=7.15D-09 MaxDP=1.40D-07 DE=-7.64D-11 OVMax= 2.29D-07

 SCF Done:  E(RB3LYP) =  -148.780164704     A.U. after   12 cycles
            NFock= 12  Conv=0.71D-08     -V/T= 2.0085
 KE= 1.475257557477D+02 PE=-4.651887252163D+02 EE= 1.097576597020D+02
 Leave Link  502 at Fri Aug 26 11:37:34 2022, MaxMem= 24159191040 cpu:        21.1
 (Enter /public/home/users/caep010/software/Gaussian09/g09/l701.exe)
 Compute integral first derivatives.
 ... and contract with generalized density number  0.
 Leave Link  701 at Fri Aug 26 11:37:35 2022, MaxMem= 24159191040 cpu:        13.5
 (Enter /public/home/users/caep010/software/Gaussian09/g09/l702.exe)
 L702 exits ... SP integral derivatives will be done elsewhere.
 Leave Link  702 at Fri Aug 26 11:37:35 2022, MaxMem= 24159191040 cpu:         0.6
 (Enter /public/home/users/caep010/software/Gaussian09/g09/l703.exe)
 Compute integral first derivatives, UseDBF=F ICtDFT=           0.
 Integral derivatives from FoFJK, PRISM(SPDF).
 Calling FoFJK, ICntrl=      2127 FMM=F ISym2X=0 I1Cent= 0 IOpClX= 0 NMat=1 NMatS=1 NMatT=0.
 FoFJK:  IHMeth= 1 ICntrl=    2127 DoSepK=F KAlg= 0 I1Cent=   0 FoldK=F
 IRaf=         0 NMat=   1 IRICut=       1 DoRegI=T DoRafI=F ISym2E= 0.
 FoFCou: FMM=F IPFlag=           0 FMFlag=      100000 FMFlg1=         800
         NFxFlg=           0 DoJE=F BraDBF=F KetDBF=F FulRan=T
         wScrn=  0.000000 ICntrl=    2127 IOpCl=  0 I1Cent=           0 NGrid=           0
         NMat0=    1 NMatS0=      1 NMatT0=    0 NMatD0=    1 NMtDS0=    0 NMtDT0=    0
 Symmetry not used in FoFCou.
 Leave Link  703 at Fri Aug 26 11:37:35 2022, MaxMem= 24159191040 cpu:        14.6
 (Enter /public/home/users/caep010/software/Gaussian09/g09/l716.exe)
 Dipole        =-2.08322360D-05-1.06523795D+00 7.97400700D-06
 ***** Axes restored to original set *****
 -------------------------------------------------------------------
 Center     Atomic                   Forces (Hartrees/Bohr)
 Number     Number              X              Y              Z
 -------------------------------------------------------------------
      1        7          -0.026274521    0.025152879   -0.003672244
      2        6          -0.000246674   -0.019783309    0.002479736
      3        7           0.026899699    0.024622354   -0.002583626
      4        1          -0.006842221   -0.014931152    0.001746379
      5        1           0.006463717   -0.015060772    0.002029756
 -------------------------------------------------------------------
 Cartesian Forces:  Max     0.026899699 RMS     0.015526651
 Leave Link  716 at Fri Aug 26 11:37:35 2022, MaxMem= 24159191040 cpu:         0.5
 (Enter /public/home/users/caep010/software/Gaussian09/g09/l103.exe)

 GradGradGradGradGradGradGradGradGradGradGradGradGradGradGradGradGradGrad
 Berny optimization.
 Using GEDIIS/GDIIS optimizer.
 FormGI is forming the generalized inverse of G from B-inverse, IUseBI=4.
 Internal  Forces:  Max     0.034339183 RMS     0.018301431
 Search for a local minimum.
 Step number   2 out of a maximum of   20
 All quantities printed in internal units (Hartrees-Bohrs-Radians)
 RMS Force = .18301D-01 SwitMx=.10000D-02 MixMth= 1
 Mixed Optimization -- RFO/linear search
 Update second derivatives using D2CorX and points    1    2
 DE= -1.35D-02 DEPred=-1.99D-02 R= 6.78D-01
 TightC=F SS=  1.41D+00  RLast= 3.00D-01 DXNew= 5.0454D-01 9.0000D-01
 Trust test= 6.78D-01 RLast= 3.00D-01 DXMaxT set to 5.05D-01
 The second derivative matrix:
                          R1        R2        R3        R4        A1
           R1           0.67698
           R2          -0.03594   0.39395
           R3          -0.08686  -0.03594   0.67699
           R4          -0.03594  -0.01414  -0.03594   0.39396
           A1           0.01755   0.00510   0.01755   0.00510   0.16281
           A2           0.01756   0.00510   0.01755   0.00510   0.00281
           A3          -0.06573  -0.01587  -0.06573  -0.01586  -0.02005
           A4          -0.00000  -0.00000  -0.00000  -0.00000  -0.00000
           D1           0.00001   0.00000   0.00001   0.00000   0.00000
                          A2        A3        A4        D1
           A2           0.16281
           A3          -0.02005   0.15907
           A4          -0.00000   0.00000   0.03416
           D1           0.00000  -0.00001  -0.00000   0.00230
 ITU=  1  0
 Use linear search instead of GDIIS.
     Eigenvalues ---    0.00230   0.03416   0.12514   0.16000   0.16936
     Eigenvalues ---    0.37033   0.40809   0.62982   0.76384
 RFO step:  Lambda=-8.05168728D-03 EMin= 2.30000006D-03
 Quartic linear search produced a step of  0.14108.
 Iteration  1 RMS(Cart)=  0.05651054 RMS(Int)=  0.00162047
 Iteration  2 RMS(Cart)=  0.00221136 RMS(Int)=  0.00000141
 Iteration  3 RMS(Cart)=  0.00000147 RMS(Int)=  0.00000000
 Iteration  4 RMS(Cart)=  0.00000000 RMS(Int)=  0.00000000
 ITry= 1 IFail=0 DXMaxC= 8.21D-02 DCOld= 1.00D+10 DXMaxT= 5.05D-01 DXLimC= 3.00D+00 Rises=F
 Variable       Old X    -DE/DX   Delta X   Delta X   Delta X     New X
                                 (Linear)    (Quad)   (Total)
    R1        2.35218  -0.03434  -0.00664  -0.07045  -0.07709   2.27509
    R2        1.94113  -0.01598  -0.00431  -0.05599  -0.06030   1.88083
    R3        2.35219  -0.03434  -0.00664  -0.07045  -0.07709   2.27510
    R4        1.94112  -0.01598  -0.00431  -0.05598  -0.06029   1.88083
    A1        2.09546   0.00807   0.00016   0.05567   0.05584   2.15130
    A2        2.09544   0.00807   0.00016   0.05568   0.05585   2.15129
    A3        3.43090  -0.00386   0.04081  -0.12533  -0.08451   3.34638
    A4        3.14162   0.00000   0.00000   0.00004   0.00005   3.14166
    D1       -0.00047  -0.00001  -0.00002  -0.00090  -0.00091  -0.00138
         Item               Value     Threshold  Converged?
 Maximum Force            0.034339     0.000450     NO 
 RMS     Force            0.018301     0.000300     NO 
 Maximum Displacement     0.082109     0.001800     NO 
 RMS     Displacement     0.057943     0.001200     NO 
 Predicted change in Energy=-4.345249D-03
 Lowest energy point so far.  Saving SCF results.
 GradGradGradGradGradGradGradGradGradGradGradGradGradGradGradGradGradGrad

 Leave Link  103 at Fri Aug 26 11:37:35 2022, MaxMem= 24159191040 cpu:         0.9
 (Enter /public/home/users/caep010/software/Gaussian09/g09/l202.exe)
                          Input orientation:                          
 ---------------------------------------------------------------------
 Center     Atomic      Atomic             Coordinates (Angstroms)
 Number     Number       Type             X           Y           Z
 ---------------------------------------------------------------------
      1          7           0        1.193155   -0.342683   -0.076641
      2          6           0       -0.002618   -0.208721   -0.116911
      3          7           0       -1.201451   -0.318954   -0.126597
      4          1           0        1.830671    0.417021   -0.160477
      5          1           0       -1.819758    0.453337   -0.235573
 ---------------------------------------------------------------------
                    Distance matrix (angstroms):
                    1          2          3          4          5
     1  N    0.000000
     2  C    1.203927   0.000000
     3  N    2.395245   1.203929   0.000000
     4  H    0.995291   1.937627   3.120348   0.000000
     5  H    3.120345   1.937627   0.995295   3.651382   0.000000
 Stoichiometry    CH2N2
 Framework group  C1[X(CH2N2)]
 Deg. of freedom     9
 Full point group                 C1      NOp   1
 RotChk:  IX=1 Diff= 1.21D-04
 Largest Abelian subgroup         C1      NOp   1
 Largest concise Abelian subgroup C1      NOp   1
                         Standard orientation:                         
 ---------------------------------------------------------------------
 Center     Atomic      Atomic             Coordinates (Angstroms)
 Number     Number       Type             X           Y           Z
 ---------------------------------------------------------------------
      1          7           0       -1.197622    0.103752    0.000068
      2          6           0       -0.000000   -0.019308    0.000054
      3          7           0        1.197623    0.103753   -0.000107
      4          1           0       -1.825693   -0.668343   -0.000427
      5          1           0        1.825689   -0.668350    0.000375
 ---------------------------------------------------------------------
 Rotational constants (GHZ):    434.0184192     10.7785051     10.5173161
 Leave Link  202 at Fri Aug 26 11:37:35 2022, MaxMem= 24159191040 cpu:         0.2
 (Enter /public/home/users/caep010/software/Gaussian09/g09/l301.exe)
 Standard basis: GTBas3 (6D, 7F)
 Ernie: Thresh=  0.10000D-02 Tol=  0.10000D-05 Strict=F.
 There are   103 symmetry adapted cartesian basis functions of A   symmetry.
 There are    94 symmetry adapted basis functions of A   symmetry.
    94 basis functions,   146 primitive gaussians,   103 cartesian basis functions
    11 alpha electrons       11 beta electrons
       nuclear repulsion energy        60.9869802820 Hartrees.
 IExCor=  402 DFT=T Ex+Corr=B3LYP ExCW=0 ScaHFX=  0.200000
 ScaDFX=  0.800000  0.720000  1.000000  0.810000 ScalE2=  1.000000  1.000000
 IRadAn=      0 IRanWt=     -1 IRanGd=            0 ICorTp=0 IEmpDi=  4
 NAtoms=    5 NActive=    5 NUniq=    5 SFac= 1.00D+00 NAtFMM=   60 NAOKFM=F Big=F
 Integral buffers will be    131072 words long.
 Raffenetti 2 integral format.
 Two-electron integral symmetry is turned on.
 Leave Link  301 at Fri Aug 26 11:37:35 2022, MaxMem= 24159191040 cpu:         1.6
 (Enter /public/home/users/caep010/software/Gaussian09/g09/l302.exe)
 NPDir=0 NMtPBC=     1 NCelOv=     1 NCel=       1 NClECP=     1 NCelD=      1
         NCelK=      1 NCelE2=     1 NClLst=     1 CellRange=     0.0.
 One-electron integrals computed using PRISM.
 NBasis=    94 RedAO= T EigKep=  1.59D-04  NBF=    94
 NBsUse=    94 1.00D-06 EigRej= -1.00D+00 NBFU=    94
 Precomputing XC quadrature grid using
 IXCGrd= 4 IRadAn=           0 IRanWt=          -1 IRanGd=           0 AccXCQ= 0.00D+00.
 Generated NRdTot=       0 NPtTot=           0 NUsed=           0 NTot=          32
 NSgBfM=   103   103   103   103   103 MxSgAt=     5 MxSgA2=     5.
 Leave Link  302 at Fri Aug 26 11:37:36 2022, MaxMem= 24159191040 cpu:        14.0
 (Enter /public/home/users/caep010/software/Gaussian09/g09/l303.exe)
 DipDrv:  MaxL=1.
 Leave Link  303 at Fri Aug 26 11:37:36 2022, MaxMem= 24159191040 cpu:         0.8
 (Enter /public/home/users/caep010/software/Gaussian09/g09/l401.exe)
 Initial guess from the checkpoint file:  "G4.Frag_1077.chk"
 B after Tr=    -0.000000   -0.000000    0.000000
         Rot=    1.000000    0.000011   -0.000000   -0.000000 Ang=   0.00 deg.
 Guess basis will be translated and rotated to current coordinates.
 JPrj=2 DoOrth=T DoCkMO=T.
 Generating alternative initial guess.
 ExpMin= 1.61D-01 ExpMax= 4.17D+03 ExpMxC= 6.27D+02 IAcc=1 IRadAn=         1 AccDes= 0.00D+00
 Harris functional with IExCor=  402 and IRadAn=       1 diagonalized for initial guess.
 HarFok:  IExCor=  402 AccDes= 0.00D+00 IRadAn=         1 IDoV= 1 UseB2=F ITyADJ=14
 ICtDFT=  3500011 ScaDFX=  1.000000  1.000000  1.000000  1.000000
 FoFCou: FMM=F IPFlag=           0 FMFlag=      100000 FMFlg1=           0
         NFxFlg=           0 DoJE=T BraDBF=F KetDBF=T FulRan=T
         wScrn=  0.000000 ICntrl=     500 IOpCl=  0 I1Cent=   200000004 NGrid=           0
         NMat0=    1 NMatS0=      1 NMatT0=    0 NMatD0=    1 NMtDS0=    0 NMtDT0=    0
 Petite list used in FoFCou.
 Harris En= -148.798053630638    
 Leave Link  401 at Fri Aug 26 11:37:37 2022, MaxMem= 24159191040 cpu:        13.6
 (Enter /public/home/users/caep010/software/Gaussian09/g09/l502.exe)
 Closed shell SCF:
 Using DIIS extrapolation, IDIIS=  1040.
 Integral symmetry usage will be decided dynamically.
 Keep R1 ints in memory in canonical form, NReq=11991133.
 IVT=       54419 IEndB=       54419 NGot= 24159191040 MDV= 24149166277
 LenX= 24149166277 LenY= 24149155227
 Requested convergence on RMS density matrix=1.00D-08 within 128 cycles.
 Requested convergence on MAX density matrix=1.00D-06.
 Requested convergence on             energy=1.00D-06.
 No special actions if energy rises.
 FoFCou: FMM=F IPFlag=           0 FMFlag=           0 FMFlg1=           0
         NFxFlg=           0 DoJE=F BraDBF=F KetDBF=F FulRan=T
         wScrn=  0.000000 ICntrl=     600 IOpCl=  0 I1Cent=           0 NGrid=           0
         NMat0=    1 NMatS0=   4465 NMatT0=    0 NMatD0=    1 NMtDS0=    0 NMtDT0=    0
 Symmetry not used in FoFCou.
 Integral accuracy reduced to 1.0D-05 until final iterations.

 Cycle   1  Pass 0  IDiag  1:
 E= -148.777581745834    
 DIIS: error= 5.54D-03 at cycle   1 NSaved=   1.
 NSaved= 1 IEnMin= 1 EnMin= -148.777581745834     IErMin= 1 ErrMin= 5.54D-03
 ErrMax= 5.54D-03  0.00D+00 EMaxC= 1.00D-01 BMatC= 5.09D-03 BMatP= 5.09D-03
 IDIUse=3 WtCom= 9.45D-01 WtEn= 5.54D-02
 Coeff-Com:  0.100D+01
 Coeff-En:   0.100D+01
 Coeff:      0.100D+01
 Gap=     0.836 Goal=   None    Shift=    0.000
 GapD=    0.836 DampG=2.000 DampE=1.000 DampFc=2.0000 IDamp=-1.
 RMSDP=1.53D-03 MaxDP=2.34D-02              OVMax= 3.48D-02

 Cycle   2  Pass 0  IDiag  1:
 E= -148.781683559379     Delta-E=       -0.004101813545 Rises=F Damp=F
 DIIS: error= 3.32D-03 at cycle   2 NSaved=   2.
 NSaved= 2 IEnMin= 2 EnMin= -148.781683559379     IErMin= 2 ErrMin= 3.32D-03
 ErrMax= 3.32D-03  0.00D+00 EMaxC= 1.00D-01 BMatC= 7.84D-04 BMatP= 5.09D-03
 IDIUse=3 WtCom= 9.67D-01 WtEn= 3.32D-02
 Coeff-Com:  0.200D+00 0.800D+00
 Coeff-En:   0.000D+00 0.100D+01
 Coeff:      0.193D+00 0.807D+00
 Gap=     0.240 Goal=   None    Shift=    0.000
 RMSDP=4.71D-04 MaxDP=9.70D-03 DE=-4.10D-03 OVMax= 8.92D-03

 Cycle   3  Pass 0  IDiag  1:
 E= -148.782047350714     Delta-E=       -0.000363791334 Rises=F Damp=F
 DIIS: error= 1.92D-03 at cycle   3 NSaved=   3.
 NSaved= 3 IEnMin= 3 EnMin= -148.782047350714     IErMin= 3 ErrMin= 1.92D-03
 ErrMax= 1.92D-03  0.00D+00 EMaxC= 1.00D-01 BMatC= 3.78D-04 BMatP= 7.84D-04
 IDIUse=3 WtCom= 9.81D-01 WtEn= 1.92D-02
 Coeff-Com:  0.267D-02 0.405D+00 0.592D+00
 Coeff-En:   0.000D+00 0.301D+00 0.699D+00
 Coeff:      0.262D-02 0.403D+00 0.594D+00
 Gap=     0.243 Goal=   None    Shift=    0.000
 RMSDP=1.89D-04 MaxDP=3.81D-03 DE=-3.64D-04 OVMax= 5.65D-03

 Cycle   4  Pass 0  IDiag  1:
 E= -148.782324945698     Delta-E=       -0.000277594985 Rises=F Damp=F
 DIIS: error= 7.00D-04 at cycle   4 NSaved=   4.
 NSaved= 4 IEnMin= 4 EnMin= -148.782324945698     IErMin= 4 ErrMin= 7.00D-04
 ErrMax= 7.00D-04  0.00D+00 EMaxC= 1.00D-01 BMatC= 3.26D-05 BMatP= 3.78D-04
 IDIUse=3 WtCom= 9.93D-01 WtEn= 7.00D-03
 Coeff-Com: -0.828D-02 0.180D+00 0.327D+00 0.501D+00
 Coeff-En:   0.000D+00 0.000D+00 0.000D+00 0.100D+01
 Coeff:     -0.822D-02 0.179D+00 0.325D+00 0.505D+00
 Gap=     0.242 Goal=   None    Shift=    0.000
 RMSDP=4.55D-05 MaxDP=1.46D-03 DE=-2.78D-04 OVMax= 2.66D-03

 Cycle   5  Pass 0  IDiag  1:
 E= -148.782352053873     Delta-E=       -0.000027108175 Rises=F Damp=F
 DIIS: error= 1.68D-04 at cycle   5 NSaved=   5.
 NSaved= 5 IEnMin= 5 EnMin= -148.782352053873     IErMin= 5 ErrMin= 1.68D-04
 ErrMax= 1.68D-04  0.00D+00 EMaxC= 1.00D-01 BMatC= 1.72D-06 BMatP= 3.26D-05
 IDIUse=3 WtCom= 9.98D-01 WtEn= 1.68D-03
 Coeff-Com: -0.245D-02 0.267D-01 0.601D-01 0.231D+00 0.685D+00
 Coeff-En:   0.000D+00 0.000D+00 0.000D+00 0.000D+00 0.100D+01
 Coeff:     -0.244D-02 0.266D-01 0.600D-01 0.231D+00 0.685D+00
 Gap=     0.243 Goal=   None    Shift=    0.000
 RMSDP=9.06D-06 MaxDP=2.55D-04 DE=-2.71D-05 OVMax= 4.00D-04

 Initial convergence to 1.0D-05 achieved.  Increase integral accuracy.
 Cycle   6  Pass 1  IDiag  1:
 E= -148.782337807484     Delta-E=        0.000014246389 Rises=F Damp=F
 DIIS: error= 2.16D-05 at cycle   1 NSaved=   1.
 NSaved= 1 IEnMin= 1 EnMin= -148.782337807484     IErMin= 1 ErrMin= 2.16D-05
 ErrMax= 2.16D-05  0.00D+00 EMaxC= 1.00D-01 BMatC= 2.77D-08 BMatP= 2.77D-08
 IDIUse=1 WtCom= 1.00D+00 WtEn= 0.00D+00
 Coeff-Com:  0.100D+01
 Coeff:      0.100D+01
 Gap=     0.243 Goal=   None    Shift=    0.000
 RMSDP=9.06D-06 MaxDP=2.55D-04 DE= 1.42D-05 OVMax= 9.43D-05

 Cycle   7  Pass 1  IDiag  1:
 E= -148.782337818252     Delta-E=       -0.000000010768 Rises=F Damp=F
 DIIS: error= 1.40D-05 at cycle   2 NSaved=   2.
 NSaved= 2 IEnMin= 2 EnMin= -148.782337818252     IErMin= 2 ErrMin= 1.40D-05
 ErrMax= 1.40D-05  0.00D+00 EMaxC= 1.00D-01 BMatC= 1.48D-08 BMatP= 2.77D-08
 IDIUse=1 WtCom= 1.00D+00 WtEn= 0.00D+00
 Coeff-Com:  0.415D+00 0.585D+00
 Coeff:      0.415D+00 0.585D+00
 Gap=     0.243 Goal=   None    Shift=    0.000
 RMSDP=1.04D-06 MaxDP=2.34D-05 DE=-1.08D-08 OVMax= 6.02D-05

 Cycle   8  Pass 1  IDiag  1:
 E= -148.782337829612     Delta-E=       -0.000000011360 Rises=F Damp=F
 DIIS: error= 6.20D-06 at cycle   3 NSaved=   3.
 NSaved= 3 IEnMin= 3 EnMin= -148.782337829612     IErMin= 3 ErrMin= 6.20D-06
 ErrMax= 6.20D-06  0.00D+00 EMaxC= 1.00D-01 BMatC= 2.58D-09 BMatP= 1.48D-08
 IDIUse=1 WtCom= 1.00D+00 WtEn= 0.00D+00
 Coeff-Com:  0.198D+00 0.355D+00 0.447D+00
 Coeff:      0.198D+00 0.355D+00 0.447D+00
 Gap=     0.243 Goal=   None    Shift=    0.000
 RMSDP=3.61D-07 MaxDP=9.01D-06 DE=-1.14D-08 OVMax= 1.63D-05

 Cycle   9  Pass 1  IDiag  1:
 E= -148.782337831653     Delta-E=       -0.000000002041 Rises=F Damp=F
 DIIS: error= 6.64D-07 at cycle   4 NSaved=   4.
 NSaved= 4 IEnMin= 4 EnMin= -148.782337831653     IErMin= 4 ErrMin= 6.64D-07
 ErrMax= 6.64D-07  0.00D+00 EMaxC= 1.00D-01 BMatC= 3.84D-11 BMatP= 2.58D-09
 IDIUse=1 WtCom= 1.00D+00 WtEn= 0.00D+00
 Coeff-Com:  0.469D-02 0.373D-01 0.119D+00 0.839D+00
 Coeff:      0.469D-02 0.373D-01 0.119D+00 0.839D+00
 Gap=     0.243 Goal=   None    Shift=    0.000
 RMSDP=8.82D-08 MaxDP=1.71D-06 DE=-2.04D-09 OVMax= 3.41D-06

 Cycle  10  Pass 1  IDiag  1:
 E= -148.782337831661     Delta-E=       -0.000000000008 Rises=F Damp=F
 DIIS: error= 6.02D-07 at cycle   5 NSaved=   5.
 NSaved= 5 IEnMin= 5 EnMin= -148.782337831661     IErMin= 5 ErrMin= 6.02D-07
 ErrMax= 6.02D-07  0.00D+00 EMaxC= 1.00D-01 BMatC= 2.94D-11 BMatP= 3.84D-11
 IDIUse=1 WtCom= 1.00D+00 WtEn= 0.00D+00
 Coeff-Com: -0.559D-02 0.103D-01 0.592D-01 0.575D+00 0.361D+00
 Coeff:     -0.559D-02 0.103D-01 0.592D-01 0.575D+00 0.361D+00
 Gap=     0.243 Goal=   None    Shift=    0.000
 RMSDP=5.18D-08 MaxDP=1.27D-06 DE=-7.93D-12 OVMax= 2.33D-06

 Cycle  11  Pass 1  IDiag  1:
 E= -148.782337831687     Delta-E=       -0.000000000026 Rises=F Damp=F
 DIIS: error= 1.12D-07 at cycle   6 NSaved=   6.
 NSaved= 6 IEnMin= 6 EnMin= -148.782337831687     IErMin= 6 ErrMin= 1.12D-07
 ErrMax= 1.12D-07  0.00D+00 EMaxC= 1.00D-01 BMatC= 1.56D-12 BMatP= 2.94D-11
 IDIUse=1 WtCom= 1.00D+00 WtEn= 0.00D+00
 Coeff-Com: -0.424D-02 0.304D-02 0.253D-01 0.292D+00 0.231D+00 0.454D+00
 Coeff:     -0.424D-02 0.304D-02 0.253D-01 0.292D+00 0.231D+00 0.454D+00
 Gap=     0.243 Goal=   None    Shift=    0.000
 RMSDP=1.13D-08 MaxDP=2.31D-07 DE=-2.60D-11 OVMax= 4.07D-07

 Cycle  12  Pass 1  IDiag  1:
 E= -148.782337831690     Delta-E=       -0.000000000003 Rises=F Damp=F
 DIIS: error= 8.11D-09 at cycle   7 NSaved=   7.
 NSaved= 7 IEnMin= 7 EnMin= -148.782337831690     IErMin= 7 ErrMin= 8.11D-09
 ErrMax= 8.11D-09  0.00D+00 EMaxC= 1.00D-01 BMatC= 8.16D-15 BMatP= 1.56D-12
 IDIUse=1 WtCom= 1.00D+00 WtEn= 0.00D+00
 Coeff-Com: -0.112D-03-0.127D-03-0.186D-02-0.574D-02-0.550D-02 0.279D-01
 Coeff-Com:  0.985D+00
 Coeff:     -0.112D-03-0.127D-03-0.186D-02-0.574D-02-0.550D-02 0.279D-01
 Coeff:      0.985D+00
 Gap=     0.243 Goal=   None    Shift=    0.000
 RMSDP=1.21D-09 MaxDP=2.46D-08 DE=-2.50D-12 OVMax= 3.85D-08

 SCF Done:  E(RB3LYP) =  -148.782337832     A.U. after   12 cycles
            NFock= 12  Conv=0.12D-08     -V/T= 2.0058
 KE= 1.479195656378D+02 PE=-4.692095014291D+02 EE= 1.115206176776D+02
 Leave Link  502 at Fri Aug 26 11:37:38 2022, MaxMem= 24159191040 cpu:        27.0
 (Enter /public/home/users/caep010/software/Gaussian09/g09/l701.exe)
 Compute integral first derivatives.
 ... and contract with generalized density number  0.
 Leave Link  701 at Fri Aug 26 11:37:38 2022, MaxMem= 24159191040 cpu:        14.5
 (Enter /public/home/users/caep010/software/Gaussian09/g09/l702.exe)
 L702 exits ... SP integral derivatives will be done elsewhere.
 Leave Link  702 at Fri Aug 26 11:37:38 2022, MaxMem= 24159191040 cpu:         0.5
 (Enter /public/home/users/caep010/software/Gaussian09/g09/l703.exe)
 Compute integral first derivatives, UseDBF=F ICtDFT=           0.
 Integral derivatives from FoFJK, PRISM(SPDF).
 Calling FoFJK, ICntrl=      2127 FMM=F ISym2X=0 I1Cent= 0 IOpClX= 0 NMat=1 NMatS=1 NMatT=0.
 FoFJK:  IHMeth= 1 ICntrl=    2127 DoSepK=F KAlg= 0 I1Cent=   0 FoldK=F
 IRaf=         0 NMat=   1 IRICut=       1 DoRegI=T DoRafI=F ISym2E= 0.
 FoFCou: FMM=F IPFlag=           0 FMFlag=      100000 FMFlg1=         800
         NFxFlg=           0 DoJE=F BraDBF=F KetDBF=F FulRan=T
         wScrn=  0.000000 ICntrl=    2127 IOpCl=  0 I1Cent=           0 NGrid=           0
         NMat0=    1 NMatS0=      1 NMatT0=    0 NMatD0=    1 NMtDS0=    0 NMtDT0=    0
 Symmetry not used in FoFCou.
 Leave Link  703 at Fri Aug 26 11:37:39 2022, MaxMem= 24159191040 cpu:        15.4
 (Enter /public/home/users/caep010/software/Gaussian09/g09/l716.exe)
 Dipole        =-1.19200952D-05-1.02702442D+00 3.50229830D-05
 ***** Axes restored to original set *****
 -------------------------------------------------------------------
 Center     Atomic                   Forces (Hartrees/Bohr)
 Number     Number              X              Y              Z
 -------------------------------------------------------------------
      1        7           0.018855789   -0.003424915    0.000838681
      2        6           0.000001984    0.000335850   -0.000057272
      3        7          -0.018936747   -0.003055599   -0.000010515
      4        1           0.010417918    0.002967711   -0.000191910
      5        1          -0.010338944    0.003176954   -0.000578983
 -------------------------------------------------------------------
 Cartesian Forces:  Max     0.018936747 RMS     0.008044570
 Leave Link  716 at Fri Aug 26 11:37:39 2022, MaxMem= 24159191040 cpu:         0.6
 (Enter /public/home/users/caep010/software/Gaussian09/g09/l103.exe)

 GradGradGradGradGradGradGradGradGradGradGradGradGradGradGradGradGradGrad
 Berny optimization.
 Using GEDIIS/GDIIS optimizer.
 FormGI is forming the generalized inverse of G from B-inverse, IUseBI=4.
 Internal  Forces:  Max     0.029147946 RMS     0.015448784
 Search for a local minimum.
 Step number   3 out of a maximum of   20
 All quantities printed in internal units (Hartrees-Bohrs-Radians)
 RMS Force = .15449D-01 SwitMx=.10000D-02 MixMth= 1
 Mixed Optimization -- RFO/linear search
 Update second derivatives using D2CorX and points    1    2    3
 DE= -2.17D-03 DEPred=-4.35D-03 R= 5.00D-01
 TightC=F SS=  1.41D+00  RLast= 1.80D-01 DXNew= 8.4853D-01 5.4114D-01
 Trust test= 5.00D-01 RLast= 1.80D-01 DXMaxT set to 5.41D-01
 The second derivative matrix:
                          R1        R2        R3        R4        A1
           R1           0.85405
           R2           0.02139   0.41189
           R3           0.09020   0.02138   0.85403
           R4           0.02138   0.00380   0.02137   0.41189
           A1           0.07795   0.02794   0.07795   0.02794   0.16559
           A2           0.07795   0.02794   0.07795   0.02794   0.00558
           A3          -0.03761  -0.00359  -0.03761  -0.00359  -0.02878
           A4           0.00003   0.00001   0.00003   0.00001   0.00000
           D1          -0.00010  -0.00004  -0.00010  -0.00004  -0.00001
                          A2        A3        A4        D1
           A2           0.16558
           A3          -0.02878   0.14108
           A4           0.00000   0.00000   0.03416
           D1          -0.00001   0.00000  -0.00000   0.00230
 ITU=  1  1  0
 Use linear search instead of GDIIS.
     Eigenvalues ---    0.00230   0.03416   0.10572   0.16000   0.16406
     Eigenvalues ---    0.40809   0.41864   0.76384   0.98376
 RFO step:  Lambda=-1.66864723D-03 EMin= 2.29999381D-03
 Quartic linear search produced a step of -0.32723.
 Iteration  1 RMS(Cart)=  0.08522951 RMS(Int)=  0.00349726
 Iteration  2 RMS(Cart)=  0.00351523 RMS(Int)=  0.00001791
 Iteration  3 RMS(Cart)=  0.00000911 RMS(Int)=  0.00000000
 Iteration  4 RMS(Cart)=  0.00000000 RMS(Int)=  0.00000000
 ITry= 1 IFail=0 DXMaxC= 1.47D-01 DCOld= 1.00D+10 DXMaxT= 5.41D-01 DXLimC= 3.00D+00 Rises=F
 Variable       Old X    -DE/DX   Delta X   Delta X   Delta X     New X
                                 (Linear)    (Quad)   (Total)
    R1        2.27509   0.02915   0.02523  -0.00277   0.02246   2.29755
    R2        1.88083   0.00895   0.01973  -0.00944   0.01029   1.89112
    R3        2.27510   0.02915   0.02523  -0.00277   0.02246   2.29755
    R4        1.88083   0.00895   0.01973  -0.00944   0.01029   1.89112
    A1        2.15130   0.01147  -0.01827   0.07555   0.05728   2.20858
    A2        2.15129   0.01147  -0.01827   0.07555   0.05728   2.20857
    A3        3.34638   0.00505   0.02766   0.03601   0.06367   3.41005
    A4        3.14166   0.00001  -0.00002   0.00015   0.00014   3.14180
    D1       -0.00138  -0.00003   0.00030  -0.00839  -0.00809  -0.00947
         Item               Value     Threshold  Converged?
 Maximum Force            0.029148     0.000450     NO 
 RMS     Force            0.015449     0.000300     NO 
 Maximum Displacement     0.146976     0.001800     NO 
 RMS     Displacement     0.086124     0.001200     NO 
 Predicted change in Energy=-1.596506D-03
 Lowest energy point so far.  Saving SCF results.
 GradGradGradGradGradGradGradGradGradGradGradGradGradGradGradGradGradGrad

 Leave Link  103 at Fri Aug 26 11:37:39 2022, MaxMem= 24159191040 cpu:         0.8
 (Enter /public/home/users/caep010/software/Gaussian09/g09/l202.exe)
                          Input orientation:                          
 ---------------------------------------------------------------------
 Center     Atomic      Atomic             Coordinates (Angstroms)
 Number     Number       Type             X           Y           Z
 ---------------------------------------------------------------------
      1          7           0        1.200561   -0.328639   -0.077199
      2          6           0       -0.001960   -0.155343   -0.123122
      3          7           0       -1.208497   -0.305080   -0.129977
      4          1           0        1.907429    0.375501   -0.154642
      5          1           0       -1.897534    0.413561   -0.231260
 ---------------------------------------------------------------------
                    Distance matrix (angstroms):
                    1          2          3          4          5
     1  N    0.000000
     2  C    1.215812   0.000000
     3  N    2.409752   1.215813   0.000000
     4  H    1.000737   1.982059   3.189482   0.000000
     5  H    3.189481   1.982056   1.000738   3.805925   0.000000
 Stoichiometry    CH2N2
 Framework group  C1[X(CH2N2)]
 Deg. of freedom     9
 Full point group                 C1      NOp   1
 RotChk:  IX=1 Diff= 1.16D-03
 Largest Abelian subgroup         C1      NOp   1
 Largest concise Abelian subgroup C1      NOp   1
                         Standard orientation:                         
 ---------------------------------------------------------------------
 Center     Atomic      Atomic             Coordinates (Angstroms)
 Number     Number       Type             X           Y           Z
 ---------------------------------------------------------------------
      1          7           0       -1.204876    0.109559    0.000389
      2          6           0        0.000000   -0.053145    0.000531
      3          7           0        1.204876    0.109560   -0.000741
      4          1           0       -1.902961   -0.607476   -0.002866
      5          1           0        1.902960   -0.607480    0.002143
 ---------------------------------------------------------------------
 Rotational constants (GHZ):    468.2483199     10.5382888     10.3063469
 Leave Link  202 at Fri Aug 26 11:37:39 2022, MaxMem= 24159191040 cpu:         0.2
 (Enter /public/home/users/caep010/software/Gaussian09/g09/l301.exe)
 Standard basis: GTBas3 (6D, 7F)
 Ernie: Thresh=  0.10000D-02 Tol=  0.10000D-05 Strict=F.
 There are   103 symmetry adapted cartesian basis functions of A   symmetry.
 There are    94 symmetry adapted basis functions of A   symmetry.
    94 basis functions,   146 primitive gaussians,   103 cartesian basis functions
    11 alpha electrons       11 beta electrons
       nuclear repulsion energy        60.3896224490 Hartrees.
 IExCor=  402 DFT=T Ex+Corr=B3LYP ExCW=0 ScaHFX=  0.200000
 ScaDFX=  0.800000  0.720000  1.000000  0.810000 ScalE2=  1.000000  1.000000
 IRadAn=      0 IRanWt=     -1 IRanGd=            0 ICorTp=0 IEmpDi=  4
 NAtoms=    5 NActive=    5 NUniq=    5 SFac= 1.00D+00 NAtFMM=   60 NAOKFM=F Big=F
 Integral buffers will be    131072 words long.
 Raffenetti 2 integral format.
 Two-electron integral symmetry is turned on.
 Leave Link  301 at Fri Aug 26 11:37:39 2022, MaxMem= 24159191040 cpu:         1.5
 (Enter /public/home/users/caep010/software/Gaussian09/g09/l302.exe)
 NPDir=0 NMtPBC=     1 NCelOv=     1 NCel=       1 NClECP=     1 NCelD=      1
         NCelK=      1 NCelE2=     1 NClLst=     1 CellRange=     0.0.
 One-electron integrals computed using PRISM.
 NBasis=    94 RedAO= T EigKep=  1.93D-04  NBF=    94
 NBsUse=    94 1.00D-06 EigRej= -1.00D+00 NBFU=    94
 Precomputing XC quadrature grid using
 IXCGrd= 4 IRadAn=           0 IRanWt=          -1 IRanGd=           0 AccXCQ= 0.00D+00.
 Generated NRdTot=       0 NPtTot=           0 NUsed=           0 NTot=          32
 NSgBfM=   103   103   103   103   103 MxSgAt=     5 MxSgA2=     5.
 Leave Link  302 at Fri Aug 26 11:37:40 2022, MaxMem= 24159191040 cpu:        13.0
 (Enter /public/home/users/caep010/software/Gaussian09/g09/l303.exe)
 DipDrv:  MaxL=1.
 Leave Link  303 at Fri Aug 26 11:37:40 2022, MaxMem= 24159191040 cpu:         0.6
 (Enter /public/home/users/caep010/software/Gaussian09/g09/l401.exe)
 Initial guess from the checkpoint file:  "G4.Frag_1077.chk"
 B after Tr=     0.000000    0.000000   -0.000000
         Rot=    1.000000   -0.000093   -0.000007   -0.000000 Ang=  -0.01 deg.
 Guess basis will be translated and rotated to current coordinates.
 JPrj=2 DoOrth=T DoCkMO=T.
 Generating alternative initial guess.
 ExpMin= 1.61D-01 ExpMax= 4.17D+03 ExpMxC= 6.27D+02 IAcc=1 IRadAn=         1 AccDes= 0.00D+00
 Harris functional with IExCor=  402 and IRadAn=       1 diagonalized for initial guess.
 HarFok:  IExCor=  402 AccDes= 0.00D+00 IRadAn=         1 IDoV= 1 UseB2=F ITyADJ=14
 ICtDFT=  3500011 ScaDFX=  1.000000  1.000000  1.000000  1.000000
 FoFCou: FMM=F IPFlag=           0 FMFlag=      100000 FMFlg1=           0
         NFxFlg=           0 DoJE=T BraDBF=F KetDBF=T FulRan=T
         wScrn=  0.000000 ICntrl=     500 IOpCl=  0 I1Cent=   200000004 NGrid=           0
         NMat0=    1 NMatS0=      1 NMatT0=    0 NMatD0=    1 NMtDS0=    0 NMtDT0=    0
 Petite list used in FoFCou.
 Harris En= -148.796593067673    
 Leave Link  401 at Fri Aug 26 11:37:40 2022, MaxMem= 24159191040 cpu:        12.8
 (Enter /public/home/users/caep010/software/Gaussian09/g09/l502.exe)
 Closed shell SCF:
 Using DIIS extrapolation, IDIIS=  1040.
 Integral symmetry usage will be decided dynamically.
 Keep R1 ints in memory in canonical form, NReq=11990989.
 IVT=       54419 IEndB=       54419 NGot= 24159191040 MDV= 24149166277
 LenX= 24149166277 LenY= 24149155227
 Requested convergence on RMS density matrix=1.00D-08 within 128 cycles.
 Requested convergence on MAX density matrix=1.00D-06.
 Requested convergence on             energy=1.00D-06.
 No special actions if energy rises.
 FoFCou: FMM=F IPFlag=           0 FMFlag=           0 FMFlg1=           0
         NFxFlg=           0 DoJE=F BraDBF=F KetDBF=F FulRan=T
         wScrn=  0.000000 ICntrl=     600 IOpCl=  0 I1Cent=           0 NGrid=           0
         NMat0=    1 NMatS0=   4465 NMatT0=    0 NMatD0=    1 NMtDS0=    0 NMtDT0=    0
 Symmetry not used in FoFCou.
 Integral accuracy reduced to 1.0D-05 until final iterations.

 Cycle   1  Pass 0  IDiag  1:
 E= -148.781666946162    
 DIIS: error= 5.19D-03 at cycle   1 NSaved=   1.
 NSaved= 1 IEnMin= 1 EnMin= -148.781666946162     IErMin= 1 ErrMin= 5.19D-03
 ErrMax= 5.19D-03  0.00D+00 EMaxC= 1.00D-01 BMatC= 2.79D-03 BMatP= 2.79D-03
 IDIUse=3 WtCom= 9.48D-01 WtEn= 5.19D-02
 Coeff-Com:  0.100D+01
 Coeff-En:   0.100D+01
 Coeff:      0.100D+01
 Gap=     0.830 Goal=   None    Shift=    0.000
 GapD=    0.830 DampG=2.000 DampE=1.000 DampFc=2.0000 IDamp=-1.
 RMSDP=8.74D-04 MaxDP=1.21D-02              OVMax= 1.75D-02

 Cycle   2  Pass 0  IDiag  1:
 E= -148.784032270843     Delta-E=       -0.002365324681 Rises=F Damp=F
 DIIS: error= 1.25D-03 at cycle   2 NSaved=   2.
 NSaved= 2 IEnMin= 2 EnMin= -148.784032270843     IErMin= 2 ErrMin= 1.25D-03
 ErrMax= 1.25D-03  0.00D+00 EMaxC= 1.00D-01 BMatC= 1.09D-04 BMatP= 2.79D-03
 IDIUse=3 WtCom= 9.87D-01 WtEn= 1.25D-02
 Coeff-Com:  0.346D-01 0.965D+00
 Coeff-En:   0.000D+00 0.100D+01
 Coeff:      0.341D-01 0.966D+00
 Gap=     0.241 Goal=   None    Shift=    0.000
 RMSDP=2.08D-04 MaxDP=4.01D-03 DE=-2.37D-03 OVMax= 4.48D-03

 Cycle   3  Pass 0  IDiag  1:
 E= -148.784038203134     Delta-E=       -0.000005932291 Rises=F Damp=F
 DIIS: error= 1.12D-03 at cycle   3 NSaved=   3.
 NSaved= 3 IEnMin= 3 EnMin= -148.784038203134     IErMin= 3 ErrMin= 1.12D-03
 ErrMax= 1.12D-03  0.00D+00 EMaxC= 1.00D-01 BMatC= 1.14D-04 BMatP= 1.09D-04
 IDIUse=3 WtCom= 9.89D-01 WtEn= 1.12D-02
 Coeff-Com: -0.148D-01 0.512D+00 0.503D+00
 Coeff-En:   0.000D+00 0.483D+00 0.517D+00
 Coeff:     -0.146D-01 0.511D+00 0.503D+00
 Gap=     0.240 Goal=   None    Shift=    0.000
 RMSDP=9.60D-05 MaxDP=2.06D-03 DE=-5.93D-06 OVMax= 3.19D-03

 Cycle   4  Pass 0  IDiag  1:
 E= -148.784122862317     Delta-E=       -0.000084659183 Rises=F Damp=F
 DIIS: error= 3.41D-04 at cycle   4 NSaved=   4.
 NSaved= 4 IEnMin= 4 EnMin= -148.784122862317     IErMin= 4 ErrMin= 3.41D-04
 ErrMax= 3.41D-04  0.00D+00 EMaxC= 1.00D-01 BMatC= 7.36D-06 BMatP= 1.09D-04
 IDIUse=3 WtCom= 9.97D-01 WtEn= 3.41D-03
 Coeff-Com: -0.111D-01 0.235D+00 0.284D+00 0.492D+00
 Coeff-En:   0.000D+00 0.000D+00 0.000D+00 0.100D+01
 Coeff:     -0.111D-01 0.234D+00 0.283D+00 0.494D+00
 Gap=     0.240 Goal=   None    Shift=    0.000
 RMSDP=2.04D-05 MaxDP=6.46D-04 DE=-8.47D-05 OVMax= 1.18D-03

 Cycle   5  Pass 0  IDiag  1:
 E= -148.784129107579     Delta-E=       -0.000006245261 Rises=F Damp=F
 DIIS: error= 5.93D-05 at cycle   5 NSaved=   5.
 NSaved= 5 IEnMin= 5 EnMin= -148.784129107579     IErMin= 5 ErrMin= 5.93D-05
 ErrMax= 5.93D-05  0.00D+00 EMaxC= 1.00D-01 BMatC= 2.35D-07 BMatP= 7.36D-06
 IDIUse=1 WtCom= 1.00D+00 WtEn= 0.00D+00
 Coeff-Com: -0.222D-02 0.392D-01 0.543D-01 0.193D+00 0.716D+00
 Coeff:     -0.222D-02 0.392D-01 0.543D-01 0.193D+00 0.716D+00
 Gap=     0.240 Goal=   None    Shift=    0.000
 RMSDP=4.65D-06 MaxDP=1.18D-04 DE=-6.25D-06 OVMax= 2.03D-04

 Initial convergence to 1.0D-05 achieved.  Increase integral accuracy.
 Cycle   6  Pass 1  IDiag  1:
 E= -148.784110674179     Delta-E=        0.000018433400 Rises=F Damp=F
[...]
 Closed shell SCF:
 Using DIIS extrapolation, IDIIS=  1040.
 Integral symmetry usage will be decided dynamically.
 Keep R1 ints in memory in canonical form, NReq=1590410268.
 IVT=      621870 IEndB=      621870 NGot= 24159191040 MDV= 22612249705
 LenX= 22612249705 LenY= 22612053899
 Requested convergence on RMS density matrix=1.00D-08 within 128 cycles.
 Requested convergence on MAX density matrix=1.00D-06.
 Requested convergence on             energy=1.00D-06.
 No special actions if energy rises.
 FoFCou: FMM=F IPFlag=           0 FMFlag=           0 FMFlg1=           0
         NFxFlg=           0 DoJE=F BraDBF=F KetDBF=F FulRan=T
         wScrn=  0.000000 ICntrl=     600 IOpCl=  0 I1Cent=           0 NGrid=           0
         NMat0=    1 NMatS0=  55611 NMatT0=    0 NMatD0=    1 NMtDS0=    0 NMtDT0=    0
 Symmetry not used in FoFCou.

 Cycle   1  Pass 1  IDiag  1:
 E= -147.970133430116    
 DIIS: error= 5.08D-03 at cycle   1 NSaved=   1.
 NSaved= 1 IEnMin= 1 EnMin= -147.970133430116     IErMin= 1 ErrMin= 5.08D-03
 ErrMax= 5.08D-03  0.00D+00 EMaxC= 1.00D-01 BMatC= 2.56D-03 BMatP= 2.56D-03
 IDIUse=3 WtCom= 9.49D-01 WtEn= 5.08D-02
 Coeff-Com:  0.100D+01
 Coeff-En:   0.100D+01
 Coeff:      0.100D+01
 Gap=     0.472 Goal=   None    Shift=    0.000
 GapD=    0.472 DampG=2.000 DampE=1.000 DampFc=2.0000 IDamp=-1.
 RMSDP=7.16D-04 MaxDP=5.11D-02              OVMax= 3.04D-03

 Cycle   2  Pass 1  IDiag  1:
 E= -147.970595620015     Delta-E=       -0.000462189899 Rises=F Damp=F
 DIIS: error= 1.83D-04 at cycle   2 NSaved=   2.
 NSaved= 2 IEnMin= 2 EnMin= -147.970595620015     IErMin= 2 ErrMin= 1.83D-04
 ErrMax= 1.83D-04  0.00D+00 EMaxC= 1.00D-01 BMatC= 4.97D-06 BMatP= 2.56D-03
 IDIUse=3 WtCom= 9.98D-01 WtEn= 1.83D-03
 Coeff-Com: -0.372D-01 0.104D+01
 Coeff-En:   0.000D+00 0.100D+01
 Coeff:     -0.372D-01 0.104D+01
 Gap=     0.465 Goal=   None    Shift=    0.000
 RMSDP=4.51D-05 MaxDP=2.02D-03 DE=-4.62D-04 OVMax= 5.10D-04

 Cycle   3  Pass 1  IDiag  1:
 E= -147.970598520254     Delta-E=       -0.000002900238 Rises=F Damp=F
 DIIS: error= 1.03D-05 at cycle   3 NSaved=   3.
 NSaved= 3 IEnMin= 3 EnMin= -147.970598520254     IErMin= 3 ErrMin= 1.03D-05
 ErrMax= 1.03D-05  0.00D+00 EMaxC= 1.00D-01 BMatC= 4.03D-08 BMatP= 4.97D-06
 IDIUse=1 WtCom= 1.00D+00 WtEn= 0.00D+00
 Coeff-Com:  0.319D-02-0.106D+00 0.110D+01
 Coeff:      0.319D-02-0.106D+00 0.110D+01
 Gap=     0.465 Goal=   None    Shift=    0.000
 RMSDP=3.82D-06 MaxDP=1.20D-04 DE=-2.90D-06 OVMax= 1.16D-04

 Cycle   4  Pass 1  IDiag  1:
 E= -147.970598598928     Delta-E=       -0.000000078674 Rises=F Damp=F
 DIIS: error= 5.12D-06 at cycle   4 NSaved=   4.
 NSaved= 4 IEnMin= 4 EnMin= -147.970598598928     IErMin= 4 ErrMin= 5.12D-06
 ErrMax= 5.12D-06  0.00D+00 EMaxC= 1.00D-01 BMatC= 2.49D-09 BMatP= 4.03D-08
 IDIUse=1 WtCom= 1.00D+00 WtEn= 0.00D+00
 Coeff-Com:  0.541D-03-0.150D-01 0.108D-01 0.100D+01
 Coeff:      0.541D-03-0.150D-01 0.108D-01 0.100D+01
 Gap=     0.465 Goal=   None    Shift=    0.000
 RMSDP=4.17D-07 MaxDP=1.52D-05 DE=-7.87D-08 OVMax= 2.86D-05

 Cycle   5  Pass 1  IDiag  1:
 E= -147.970598603693     Delta-E=       -0.000000004765 Rises=F Damp=F
 DIIS: error= 2.20D-06 at cycle   5 NSaved=   5.
 NSaved= 5 IEnMin= 5 EnMin= -147.970598603693     IErMin= 5 ErrMin= 2.20D-06
 ErrMax= 2.20D-06  0.00D+00 EMaxC= 1.00D-01 BMatC= 4.27D-10 BMatP= 2.49D-09
 IDIUse=1 WtCom= 1.00D+00 WtEn= 0.00D+00
 Coeff-Com: -0.240D-03 0.833D-02-0.102D+00 0.137D+00 0.957D+00
 Coeff:     -0.240D-03 0.833D-02-0.102D+00 0.137D+00 0.957D+00
 Gap=     0.465 Goal=   None    Shift=    0.000
 RMSDP=1.04D-07 MaxDP=3.84D-06 DE=-4.76D-09 OVMax= 1.02D-05

 Cycle   6  Pass 1  IDiag  1:
 E= -147.970598604371     Delta-E=       -0.000000000677 Rises=F Damp=F
 DIIS: error= 6.61D-07 at cycle   6 NSaved=   6.
 NSaved= 6 IEnMin= 6 EnMin= -147.970598604371     IErMin= 6 ErrMin= 6.61D-07
 ErrMax= 6.61D-07  0.00D+00 EMaxC= 1.00D-01 BMatC= 3.31D-11 BMatP= 4.27D-10
 IDIUse=1 WtCom= 1.00D+00 WtEn= 0.00D+00
 Coeff-Com: -0.787D-04 0.242D-02-0.151D-01-0.536D-01 0.150D+00 0.916D+00
 Coeff:     -0.787D-04 0.242D-02-0.151D-01-0.536D-01 0.150D+00 0.916D+00
 Gap=     0.465 Goal=   None    Shift=    0.000
 RMSDP=1.89D-08 MaxDP=5.01D-07 DE=-6.77D-10 OVMax= 3.28D-06

 Cycle   7  Pass 1  IDiag  1:
 E= -147.970598604431     Delta-E=       -0.000000000061 Rises=F Damp=F
 DIIS: error= 2.37D-07 at cycle   7 NSaved=   7.
 NSaved= 7 IEnMin= 7 EnMin= -147.970598604431     IErMin= 7 ErrMin= 2.37D-07
 ErrMax= 2.37D-07  0.00D+00 EMaxC= 1.00D-01 BMatC= 4.74D-12 BMatP= 3.31D-11
 IDIUse=1 WtCom= 1.00D+00 WtEn= 0.00D+00
 Coeff-Com:  0.231D-04-0.819D-03 0.112D-01-0.238D-01-0.950D-01 0.140D+00
 Coeff-Com:  0.968D+00
 Coeff:      0.231D-04-0.819D-03 0.112D-01-0.238D-01-0.950D-01 0.140D+00
 Coeff:      0.968D+00
 Gap=     0.465 Goal=   None    Shift=    0.000
 RMSDP=1.04D-08 MaxDP=2.86D-07 DE=-6.07D-11 OVMax= 1.48D-06

 Cycle   8  Pass 1  IDiag  1:
 E= -147.970598604439     Delta-E=       -0.000000000008 Rises=F Damp=F
 DIIS: error= 1.06D-07 at cycle   8 NSaved=   8.
 NSaved= 8 IEnMin= 8 EnMin= -147.970598604439     IErMin= 8 ErrMin= 1.06D-07
 ErrMax= 1.06D-07  0.00D+00 EMaxC= 1.00D-01 BMatC= 4.77D-13 BMatP= 4.74D-12
 IDIUse=1 WtCom= 1.00D+00 WtEn= 0.00D+00
 Coeff-Com:  0.463D-05-0.129D-03 0.262D-03 0.600D-02-0.562D-02-0.658D-01
 Coeff-Com: -0.133D+00 0.120D+01
 Coeff:      0.463D-05-0.129D-03 0.262D-03 0.600D-02-0.562D-02-0.658D-01
 Coeff:     -0.133D+00 0.120D+01
 Gap=     0.465 Goal=   None    Shift=    0.000
 RMSDP=3.91D-09 MaxDP=1.07D-07 DE=-8.16D-12 OVMax= 8.46D-07

 SCF Done:  E(RHF) =  -147.970598604     A.U. after    8 cycles
            NFock=  8  Conv=0.39D-08     -V/T= 2.0016
 KE= 1.477327848684D+02 PE=-4.667506070098D+02 EE= 1.109273297240D+02
 Leave Link  502 at Fri Aug 26 11:39:35 2022, MaxMem= 24159191040 cpu:       330.7
 (Enter /public/home/users/caep010/software/Gaussian09/g09/l601.exe)
 Copying SCF densities to generalized density rwf, IOpCl= 0 IROHF=0.

 **********************************************************************

            Population analysis using the SCF density.

 **********************************************************************

 Orbital symmetries:
       Occupied  (A) (A) (A) (A) (A) (A) (A) (A) (A) (A) (A)
       Virtual   (A) (A) (A) (A) (A) (A) (A) (A) (A) (A) (A) (A)
                 (A) (A) (A) (A) (A) (A) (A) (A) (A) (A) (A) (A)
                 (A) (A) (A) (A) (A) (A) (A) (A) (A) (A) (A) (A)
                 (A) (A) (A) (A) (A) (A) (A) (A) (A) (A) (A) (A)
                 (A) (A) (A) (A) (A) (A) (A) (A) (A) (A) (A) (A)
                 (A) (A) (A) (A) (A) (A) (A) (A) (A) (A) (A) (A)
                 (A) (A) (A) (A) (A) (A) (A) (A) (A) (A) (A) (A)
                 (A) (A) (A) (A) (A) (A) (A) (A) (A) (A) (A) (A)
                 (A) (A) (A) (A) (A) (A) (A) (A) (A) (A) (A) (A)
                 (A) (A) (A) (A) (A) (A) (A) (A) (A) (A) (A) (A)
                 (A) (A) (A) (A) (A) (A) (A) (A) (A) (A) (A) (A)
                 (A) (A) (A) (A) (A) (A) (A) (A) (A) (A) (A) (A)
                 (A) (A) (A) (A) (A) (A) (A) (A) (A) (A) (A) (A)
                 (A) (A) (A) (A) (A) (A) (A) (A) (A) (A) (A) (A)
                 (A) (A) (A) (A) (A) (A) (A) (A) (A) (A) (A) (A)
                 (A) (A) (A) (A) (A) (A) (A) (A) (A) (A) (A) (A)
                 (A) (A) (A) (A) (A) (A) (A) (A) (A) (A) (A) (A)
                 (A) (A) (A) (A) (A) (A) (A) (A) (A) (A) (A) (A)
                 (A) (A) (A) (A) (A) (A) (A) (A) (A) (A) (A) (A)
                 (A) (A) (A) (A) (A) (A) (A) (A) (A) (A) (A) (A)
                 (A) (A) (A) (A) (A) (A) (A) (A) (A) (A) (A) (A)
                 (A) (A) (A) (A) (A) (A) (A) (A) (A) (A) (A) (A)
                 (A) (A) (A) (A) (A) (A) (A) (A) (A) (A) (A) (A)
                 (A) (A) (A) (A) (A) (A) (A) (A) (A) (A) (A) (A)
                 (A) (A) (A) (A) (A) (A) (A) (A) (A) (A) (A) (A)
                 (A) (A) (A) (A) (A) (A) (A) (A) (A) (A) (A) (A)
                 (A) (A) (A) (A) (A) (A) (A) (A) (A) (A)
 The electronic state is 1-A.
 Alpha  occ. eigenvalues --  -15.57926 -15.57922 -11.36742  -1.28826  -1.20390
 Alpha  occ. eigenvalues --   -0.79991  -0.74051  -0.58761  -0.57900  -0.42890
 Alpha  occ. eigenvalues --   -0.42760
 Alpha virt. eigenvalues --    0.03736   0.04734   0.05586   0.05821   0.10406
 Alpha virt. eigenvalues --    0.10805   0.11237   0.13694   0.13895   0.13967
 Alpha virt. eigenvalues --    0.17340   0.17960   0.18622   0.19912   0.21769
 Alpha virt. eigenvalues --    0.25062   0.30217   0.30429   0.36820   0.37473
 Alpha virt. eigenvalues --    0.40329   0.40666   0.42299   0.44016   0.46707
 Alpha virt. eigenvalues --    0.47755   0.49316   0.53131   0.54049   0.59373
 Alpha virt. eigenvalues --    0.61833   0.66058   0.67773   0.73336   0.78151
 Alpha virt. eigenvalues --    0.80423   0.81327   0.89603   0.90120   0.91754
 Alpha virt. eigenvalues --    0.94533   0.97237   0.99453   0.99500   1.03515
 Alpha virt. eigenvalues --    1.04956   1.06588   1.09069   1.11446   1.11556
 Alpha virt. eigenvalues --    1.12934   1.17588   1.22040   1.24840   1.29650
 Alpha virt. eigenvalues --    1.33517   1.37564   1.42708   1.43502   1.46876
 Alpha virt. eigenvalues --    1.54891   1.55247   1.61255   1.65049   1.65994
 Alpha virt. eigenvalues --    1.67330   1.71191   1.75238   1.76077   1.80402
 Alpha virt. eigenvalues --    1.87131   1.92267   1.97249   2.00410   2.04063
 Alpha virt. eigenvalues --    2.06447   2.11812   2.13231   2.24510   2.27498
 Alpha virt. eigenvalues --    2.28148   2.31003   2.39933   2.46050   2.48501
 Alpha virt. eigenvalues --    2.51533   2.52687   2.52994   2.56549   2.58610
 Alpha virt. eigenvalues --    2.61078   2.63449   2.64563   2.65042   2.66998
 Alpha virt. eigenvalues --    2.67635   2.70785   2.74393   2.75360   2.82878
 Alpha virt. eigenvalues --    2.90169   3.00383   3.01755   3.04034   3.15339
 Alpha virt. eigenvalues --    3.16084   3.16837   3.27456   3.27956   3.30113
 Alpha virt. eigenvalues --    3.35544   3.37296   3.39131   3.45653   3.47397
 Alpha virt. eigenvalues --    3.49992   3.52215   3.64836   3.67563   3.78886
 Alpha virt. eigenvalues --    3.81707   3.84980   3.91818   3.92097   3.93940
 Alpha virt. eigenvalues --    3.96291   3.98367   4.04598   4.12966   4.19462
 Alpha virt. eigenvalues --    4.21369   4.21996   4.22072   4.32612   4.36942
 Alpha virt. eigenvalues --    4.39288   4.43906   4.51465   4.55625   4.78347
 Alpha virt. eigenvalues --    4.81377   4.99845   5.00999   5.12760   5.14280
 Alpha virt. eigenvalues --    5.22361   5.25662   5.29183   5.37146   5.42540
 Alpha virt. eigenvalues --    5.52842   5.53311   5.56405   5.63715   5.65573
 Alpha virt. eigenvalues --    5.70427   5.72238   5.73802   5.78877   5.82481
 Alpha virt. eigenvalues --    5.85292   5.88762   5.90977   5.96702   5.98216
 Alpha virt. eigenvalues --    6.10189   6.13409   6.29779   6.38872   6.40761
 Alpha virt. eigenvalues --    6.41607   6.53323   6.59967   6.60341   6.74188
 Alpha virt. eigenvalues --    6.76669   6.84936   6.88464   7.05245   7.11733
 Alpha virt. eigenvalues --    7.40417   7.42360   7.46097   7.55825   7.63597
 Alpha virt. eigenvalues --    7.67924   7.68096   7.73197   7.76752   7.82284
 Alpha virt. eigenvalues --    7.88052   7.94307   8.06408   8.17756   8.23081
 Alpha virt. eigenvalues --    8.27533   8.31009   8.42528   8.43326   8.46857
 Alpha virt. eigenvalues --    8.51157   8.57141   8.76043   8.82882   8.90813
 Alpha virt. eigenvalues --    8.94182   8.95430   9.11288   9.22477   9.25356
 Alpha virt. eigenvalues --    9.31489   9.43139   9.51731   9.55318   9.59730
 Alpha virt. eigenvalues --    9.60548   9.61578   9.74145   9.77019   9.87552
 Alpha virt. eigenvalues --    9.88548   9.91605   9.91872   9.92359  10.02327
 Alpha virt. eigenvalues --   10.05340  10.07019  10.11115  10.25017  10.30351
 Alpha virt. eigenvalues --   10.41058  10.53647  10.79784  10.81636  10.83927
 Alpha virt. eigenvalues --   10.96075  10.99937  11.03405  11.09609  11.13718
 Alpha virt. eigenvalues --   11.20820  11.31463  11.68776  11.74613  11.76712
 Alpha virt. eigenvalues --   12.05326  12.06653  12.26814  12.27174  12.28242
 Alpha virt. eigenvalues --   12.43198  12.57124  12.57212  12.62952  12.66819
 Alpha virt. eigenvalues --   12.68233  12.97919  13.01813  13.05323  13.09555
 Alpha virt. eigenvalues --   13.29969  13.36030  13.50826  13.62860  13.79419
 Alpha virt. eigenvalues --   13.84233  14.02319  14.04282  14.18380  14.26422
 Alpha virt. eigenvalues --   14.27807  14.32800  14.35735  14.38268  14.42031
 Alpha virt. eigenvalues --   14.49486  14.54942  14.62285  14.62901  14.71748
 Alpha virt. eigenvalues --   14.76516  14.81264  14.86397  14.89026  14.91224
 Alpha virt. eigenvalues --   15.03721  15.07693  15.17402  15.21309  15.34305
 Alpha virt. eigenvalues --   15.36224  15.49155  15.60292  15.69985  15.74407
 Alpha virt. eigenvalues --   16.16003  16.16470  16.31044  16.37053  16.44918
 Alpha virt. eigenvalues --   16.57960  17.25466  17.31575  17.84001  17.96989
 Alpha virt. eigenvalues --   18.08572  18.19553  18.38762  18.45165  18.71390
 Alpha virt. eigenvalues --   18.72026  19.14745  19.23076  19.31391  19.71633
 Alpha virt. eigenvalues --   19.96495  19.99024  21.12048  21.68123  39.46058
 Alpha virt. eigenvalues --   51.49501  51.84828
          Condensed to atoms (all electrons):
               1          2          3          4          5
     1  N    6.794039   0.636012  -0.106091   0.303820  -0.001167
     2  C    0.636012   4.114818   0.635705   0.009722   0.009755
     3  N   -0.106091   0.635705   6.794464  -0.001153   0.303767
     4  H    0.303820   0.009722  -0.001153   0.358000  -0.000086
     5  H   -0.001167   0.009755   0.303767  -0.000086   0.358111
 Mulliken charges:
               1
     1  N   -0.626612
     2  C    0.593988
     3  N   -0.626693
     4  H    0.329697
     5  H    0.329620
 Sum of Mulliken charges =  -0.00000
 Mulliken charges with hydrogens summed into heavy atoms:
               1
     1  N   -0.296915
     2  C    0.593988
     3  N   -0.297072
 Electronic spatial extent (au):  <R**2>=            139.8427
 Charge=             -0.0000 electrons
 Dipole moment (field-independent basis, Debye):
    X=             -0.0025    Y=             -2.1670    Z=             -0.1040  Tot=              2.1695
 Quadrupole moment (field-independent basis, Debye-Ang):
   XX=            -16.2055   YY=            -17.6851   ZZ=            -17.8482
   XY=             -0.2097   XZ=              4.3500   YZ=              0.0069
 Traceless Quadrupole moment (field-independent basis, Debye-Ang):
   XX=              1.0408   YY=             -0.4388   ZZ=             -0.6019
   XY=             -0.2097   XZ=              4.3500   YZ=              0.0069
 Octapole moment (field-independent basis, Debye-Ang**2):
  XXX=             -0.0185  YYY=             -2.0166  ZZZ=             -0.1331  XYY=              0.1511
  XXY=             -8.1033  XXZ=             -0.3894  XZZ=             -0.1516  YZZ=             -0.9259
  YYZ=             -0.0072  XYZ=             -1.5696
 Hexadecapole moment (field-independent basis, Debye-Ang**3):
 XXXX=           -120.8148 YYYY=            -20.3373 ZZZZ=            -20.6475 XXXY=             -0.7959
 XXXZ=             16.5795 YYYX=             -0.3044 YYYZ=             -0.0223 ZZZX=              4.3012
 ZZZY=              0.0368 XXYY=            -26.2475 XXZZ=            -26.7757 YYZZ=             -6.6285
 XXYZ=              0.0240 YYXZ=              2.0989 ZZXY=             -0.0053
 N-N= 6.011989381301D+01 E-N=-4.667506087215D+02  KE= 1.477327848684D+02
 No NMR shielding tensors so no spin-rotation constants.
 Leave Link  601 at Fri Aug 26 11:39:36 2022, MaxMem= 24159191040 cpu:        19.9
 (Enter /public/home/users/caep010/software/Gaussian09/g09/l9999.exe)
 1\1\GINC-B1824\SP\RHF\GFHFB2\C1H2N2\ROOT\26-Aug-2022\0\\#P Geom=AllChe
 ck Guess=TCheck SCRF=Check HF/GFHFB2 SCF=Tight\\Frag_1077\\0,1\N,0,1.1
 750687974,-0.2332608339,0.1960899267\C,0,-0.0020357469,-0.1566558043,-
 0.1264746697\N,0,-1.1816993774,-0.2709101361,-0.4283415424\H,0,1.86556
 87421,0.290737358,-0.3266808197\H,0,-1.8569024176,0.3700894164,-0.0307
 92895\\Version=ES64L-G09RevE.01\State=1-A\HF=-147.9705986\RMSD=3.908e-
 09\Dipole=0.0116844,0.8485576,-0.0912991\Quadrupole=1.8537702,-0.33181
 19,-1.5219583,-0.3310947,-2.8083173,-0.0929073\PG=C01 [X(C1H2N2)]\\@


 SEEN ON A WALL AT THE UNIVERSITY OF ILLINOIS AT CHICAGO CIRCLE:

 TO DO IS TO BE  -- SOCRATES
 TO BE IS TO DO  -- SARTRE
 OO BE DO BE DO  -- SINATRA
 Diagonal vibrational polarizability:
        0.0000000       0.0000000       0.0000000

 Temperature=              298.150000 Pressure=                      1.000000
 E(ZPE)=                     0.032367 E(Thermal)=                    0.035808
 E(CCSD(T))=              -148.368439 E(Empiric)=                   -0.055576
 DE(Plus)=                  -0.010992 DE(2DF)=                      -0.109325
 E(Delta-G3XP)=             -0.193703 DE(HF)=                       -0.014050
 G4(0 K)=                 -148.719719 G4 Energy=                  -148.716278
 G4 Enthalpy=             -148.715333 G4 Free Energy=             -148.743104
 1\1\GINC-B1824\Mixed\G4\G4\C1H2N2\ROOT\26-Aug-2022\0\\#P Geom=AllCheck
  Guess=TCheck SCRF=Check HF/GFHFB2 SCF=Tight\\Frag_1077\\0,1\N,0,1.175
 0687974,-0.2332608339,0.1960899267\C,0,-0.0020357469,-0.1566558043,-0.
 1264746697\N,0,-1.1816993774,-0.2709101361,-0.4283415424\H,0,1.8655687
 421,0.290737358,-0.3266808197\H,0,-1.8569024176,0.3700894164,-0.030792
 895\\Version=ES64L-G09RevE.01\State=1-A\MP2/GTBas1=-148.3380324\MP4/GT
 Bas1=-148.3723773\CCSD(T)/G3Bas1=-148.3684392\MP2/GTBas2=-148.3488721\
 MP4/GTBas2=-148.3833695\MP2/GTBas3=-148.44179\MP4/GTBas3=-148.4817019\
 HF/GTLargeXP=-147.9570981\MP2/GTLargeXP=-148.646333\HF/GFHFB1=-147.968
 3423\HF/GFHFB2=-147.9705986\G4=-148.7197189\FreqCoord=2.2205582144,-0.
 4407990937,0.3705562588,-0.0038470041,-0.2960365673,-0.2390024885,-2.2
 330881946,-0.5119459639,-0.8094482064,3.5254140047,0.5494139833,-0.617
 337282,-3.5090370247,0.6993676416,-0.0581901384\PG=C01 [X(C1H2N2)]\NIm
 ag=0\\1.01181559,0.14388010,0.15841073,0.01128052,-0.12457017,0.196385
 98,-0.74136733,0.00227392,-0.11881152,1.58168378,0.03209418,-0.0639258
 3,0.01728409,0.01281052,0.14377657,-0.16006278,0.01501511,-0.09310073,
 0.28728559,0.00185853,0.19447019,-0.07183076,-0.00317239,-0.02818763,-
 0.74194632,-0.04868007,-0.15152066,1.00311058,-0.00035457,0.03100514,0
 .00839716,-0.01075132,-0.07015998,-0.01592944,-0.15807020,0.21963234,-
 0.02875908,-0.01263938,0.00819871,-0.11765962,-0.01913294,-0.08575526,
 0.04685472,0.11976062,0.14312351,-0.20856389,-0.13999912,0.13609592,-0
 .04918058,-0.01983132,0.01449776,0.01001874,0.00255622,-0.00070610,0.2
 4813498,-0.17541142,-0.12291475,0.10826941,0.01887759,-0.00504038,0.00
 081317,-0.00080242,-0.00139734,0.01135977,0.15721011,0.12542126,0.1807
 7258,0.11645102,-0.11911770,-0.02773923,-0.00312565,-0.00761622,-0.003
 27404,-0.00368687,0.00640492,-0.15019325,-0.11424083,0.12366978,0.0099
 4639,-0.00298251,-0.00037730,-0.04918955,0.02360669,0.00980009,-0.1993
 5224,0.16661988,0.10027008,-0.00040925,0.00012614,0.00043393,0.2390046
 6,-0.00020830,-0.00257530,-0.00938049,-0.02321070,-0.00465039,-0.00175
 736,0.21072509,-0.17908016,-0.09934808,0.00006411,0.00393120,0.0046023
 2,-0.18737020,0.18237464,-0.00323124,0.00574341,0.00763374,-0.02307522
 ,0.00311598,-0.00799798,0.13612760,-0.10854147,-0.07197188,0.00030567,
 -0.00620152,-0.00334077,-0.11012681,0.10588361,0.07567689\\0.00000630,
 0.00003365,-0.00000761,0.00009997,-0.00003929,0.00003109,-0.00009496,-
 0.00002834,-0.00006158,0.00001894,-0.00000064,0.00000671,-0.00003025,0
 .00003462,0.00003139\\\@
 Job cpu time:       0 days  0 hours  6 minutes 37.4 seconds.
 File lengths (MBytes):  RWF=    187 Int=      0 D2E=      0 Chk=      8 Scr=      1
 Normal termination of Gaussian 09 at Fri Aug 26 11:39:36 2022.
