 Entering Gaussian System, Link 0=g09
 Input=G4.Frag_631.gjf
 Output=G4.Frag_631.log
 Initial command:
 /public/home/users/caep010/software/Gaussian09/g09/l1.exe "/public/home/users/caep010/.cache/gau_scr/Gau-151303.inp" -scrdir="/public/home/users/caep010/.cache/gau_scr/"
 Entering Link 1 = /public/home/users/caep010/software/Gaussian09/g09/l1.exe PID=    151304.
  
 Copyright (c) 1988,1990,1992,1993,1995,1998,2003,2009,2015,
            Gaussian, Inc.  All Rights Reserved.
  
 This is part of the Gaussian(R) 09 program.  It is based on
 the Gaussian(R) 03 system (copyright 2003, Gaussian, Inc.),
 the Gaussian(R) 98 system (copyright 1998, Gaussian, Inc.),
 the Gaussian(R) 94 system (copyright 1995, Gaussian, Inc.),
 the Gaussian 92(TM) system (copyright 1992, Gaussian, Inc.),
 the Gaussian 90(TM) system (copyright 1990, Gaussian, Inc.),
 the Gaussian 88(TM) system (copyright 1988, Gaussian, Inc.),
 the Gaussian 86(TM) system (copyright 1986, Carnegie Mellon
 University), and the Gaussian 82(TM) system (copyright 1983,
 Carnegie Mellon University). Gaussian is a federally registered
 trademark of Gaussian, Inc.
  
 This software contains proprietary and confidential information,
 including trade secrets, belonging to Gaussian, Inc.
  
 This software is provided under written license and may be
 used, copied, transmitted, or stored only in accord with that
 written license.
  
 The following legend is applicable only to US Government
 contracts under FAR:
  
                    RESTRICTED RIGHTS LEGEND
  
 Use, reproduction and disclosure by the US Government is
 subject to restrictions as set forth in subparagraphs (a)
 and (c) of the Commercial Computer Software - Restricted
 Rights clause in FAR 52.227-19.
  
 Gaussian, Inc.
 340 Quinnipiac St., Bldg. 40, Wallingford CT 06492
  
  
 ---------------------------------------------------------------
 Warning -- This program may not be used in any manner that
 competes with the business of Gaussian, Inc. or will provide
 assistance to any competitor of Gaussian, Inc.  The licensee
 of this program is prohibited from giving any competitor of
 Gaussian, Inc. access to this program.  By using this program,
 the user acknowledges that Gaussian, Inc. is engaged in the
 business of creating and licensing software in the field of
 computational chemistry and represents and warrants to the
 licensee that it is not a competitor of Gaussian, Inc. and that
 it will not use this program in any manner prohibited above.
 ---------------------------------------------------------------
  

 Cite this work as:
 Gaussian 09, Revision E.01,
 M. J. Frisch, G. W. Trucks, H. B. Schlegel, G. E. Scuseria, 
 M. A. Robb, J. R. Cheeseman, G. Scalmani, V. Barone, B. Mennucci, 
 G. A. Petersson, H. Nakatsuji, M. Caricato, X. Li, H. P. Hratchian, 
 A. F. Izmaylov, J. Bloino, G. Zheng, J. L. Sonnenberg, M. Hada, 
 M. Ehara, K. Toyota, R. Fukuda, J. Hasegawa, M. Ishida, T. Nakajima, 
 Y. Honda, O. Kitao, H. Nakai, T. Vreven, J. A. Montgomery, Jr., 
 J. E. Peralta, F. Ogliaro, M. Bearpark, J. J. Heyd, E. Brothers, 
 K. N. Kudin, V. N. Staroverov, T. Keith, R. Kobayashi, J. Normand, 
 K. Raghavachari, A. Rendell, J. C. Burant, S. S. Iyengar, J. Tomasi, 
 M. Cossi, N. Rega, J. M. Millam, M. Klene, J. E. Knox, J. B. Cross, 
 V. Bakken, C. Adamo, J. Jaramillo, R. Gomperts, R. E. Stratmann, 
 O. Yazyev, A. J. Austin, R. Cammi, C. Pomelli, J. W. Ochterski, 
 R. L. Martin, K. Morokuma, V. G. Zakrzewski, G. A. Voth, 
 P. Salvador, J. J. Dannenberg, S. Dapprich, A. D. Daniels, 
 O. Farkas, J. B. Foresman, J. V. Ortiz, J. Cioslowski, 
 and D. J. Fox, Gaussian, Inc., Wallingford CT, 2013.
 
 ******************************************
 Gaussian 09:  ES64L-G09RevE.01 30-Nov-2015
                26-Aug-2022 
 ******************************************
 %nproc=32
 Will use up to   32 processors via shared memory.
 %mem=180GB
 %chk=G4.Frag_631.chk
 -----
 #P G4
 -----
 1/14=-1,18=20,19=15,26=3,38=1/1,3;
 2/9=110,12=2,17=6,18=5,40=1/2;
 3/5=35,7=104,11=2,16=1,25=1,30=1,71=1,74=-5/1,2,3;
 4//1;
 5/5=2,38=5/2;
 6/7=2,8=2,9=2,10=2,28=1/1;
 7//1,2,3,16;
 1/14=-1,18=20,19=15,26=3/3(2);
 2/9=110/2;
 99//99;
 2/9=110/2;
 3/5=35,7=104,11=2,16=1,25=1,30=1,71=1,74=-5/1,2,3;
 4/5=5,16=3,69=1/1;
 5/5=2,38=5/2;
 7//1,2,3,16;
 1/14=-1,18=20,19=15,26=3/3(-5);
 2/9=110/2;
 6/7=2,8=2,9=2,10=2,19=2,28=1/1;
 99/9=1/99;
 Leave Link    1 at Fri Aug 26 12:09:12 2022, MaxMem= 24159191040 cpu:         2.3
 (Enter /public/home/users/caep010/software/Gaussian09/g09/l101.exe)
 --------
 Frag_631
 --------
 Symbolic Z-matrix:
 Charge =  0 Multiplicity = 1
 C                    -0.8448   -0.4124    1.4626 
 C                    -0.4882    0.0433    0.0275 
 C                    -0.7367    1.5663   -0.0743 
 C                    -1.441    -0.6734   -0.957 
 C                     1.0045   -0.3111   -0.3194 
 N                     1.9313    0.3947    0.5833 
 O                     1.2818    0.0404   -1.6591 
 O                     1.1911   -1.7003   -0.1806 
 H                    -1.9205   -0.2295    1.6758 
 H                    -0.6522   -1.4981    1.5969 
 H                    -0.2581    0.1483    2.2202 
 H                    -1.7807    1.812     0.2183 
 H                    -0.054     2.1275    0.5985 
 H                    -0.5881    1.93     -1.1128 
 H                    -1.2436   -0.3576   -2.0037 
 H                    -2.5012   -0.433    -0.7244 
 H                    -1.3187   -1.776    -0.8954 
 H                     1.9382   -0.0827    1.5135 
 H                     2.9028    0.3012    0.2062 
 H                     1.4634    1.0155   -1.6936 
 H                     2.1147   -1.9053   -0.4825 
 
 NAtoms=     21 NQM=       21 NQMF=       0 NMMI=      0 NMMIF=      0
                NMic=       0 NMicF=      0.
                    Isotopes and Nuclear Properties:
 (Nuclear quadrupole moments (NQMom) in fm**2, nuclear magnetic moments (NMagM)
  in nuclear magnetons)

  Atom         1           2           3           4           5           6           7           8           9          10
 IAtWgt=          12          12          12          12          12          14          16          16           1           1
 AtmWgt=  12.0000000  12.0000000  12.0000000  12.0000000  12.0000000  14.0030740  15.9949146  15.9949146   1.0078250   1.0078250
 NucSpn=           0           0           0           0           0           2           0           0           1           1
 AtZEff=   0.0000000   0.0000000   0.0000000   0.0000000   0.0000000   0.0000000   0.0000000   0.0000000   0.0000000   0.0000000
 NQMom=    0.0000000   0.0000000   0.0000000   0.0000000   0.0000000   2.0440000   0.0000000   0.0000000   0.0000000   0.0000000
 NMagM=    0.0000000   0.0000000   0.0000000   0.0000000   0.0000000   0.4037610   0.0000000   0.0000000   2.7928460   2.7928460
 AtZNuc=   6.0000000   6.0000000   6.0000000   6.0000000   6.0000000   7.0000000   8.0000000   8.0000000   1.0000000   1.0000000

  Atom        11          12          13          14          15          16          17          18          19          20
 IAtWgt=           1           1           1           1           1           1           1           1           1           1
 AtmWgt=   1.0078250   1.0078250   1.0078250   1.0078250   1.0078250   1.0078250   1.0078250   1.0078250   1.0078250   1.0078250
 NucSpn=           1           1           1           1           1           1           1           1           1           1
 AtZEff=   0.0000000   0.0000000   0.0000000   0.0000000   0.0000000   0.0000000   0.0000000   0.0000000   0.0000000   0.0000000
 NQMom=    0.0000000   0.0000000   0.0000000   0.0000000   0.0000000   0.0000000   0.0000000   0.0000000   0.0000000   0.0000000
 NMagM=    2.7928460   2.7928460   2.7928460   2.7928460   2.7928460   2.7928460   2.7928460   2.7928460   2.7928460   2.7928460
 AtZNuc=   1.0000000   1.0000000   1.0000000   1.0000000   1.0000000   1.0000000   1.0000000   1.0000000   1.0000000   1.0000000

  Atom        21
 IAtWgt=           1
 AtmWgt=   1.0078250
 NucSpn=           1
 AtZEff=   0.0000000
 NQMom=    0.0000000
 NMagM=    2.7928460
 AtZNuc=   1.0000000
 Leave Link  101 at Fri Aug 26 12:09:13 2022, MaxMem= 24159191040 cpu:        10.5
 (Enter /public/home/users/caep010/software/Gaussian09/g09/l103.exe)

 GradGradGradGradGradGradGradGradGradGradGradGradGradGradGradGradGradGrad
 Berny optimization.
 Initialization pass.
                           ----------------------------
                           !    Initial Parameters    !
                           ! (Angstroms and Degrees)  !
 --------------------------                            --------------------------
 ! Name  Definition              Value          Derivative Info.                !
 --------------------------------------------------------------------------------
 ! R1    R(1,2)                  1.5474         estimate D2E/DX2                !
 ! R2    R(1,9)                  1.1118         estimate D2E/DX2                !
 ! R3    R(1,10)                 1.1108         estimate D2E/DX2                !
 ! R4    R(1,11)                 1.1102         estimate D2E/DX2                !
 ! R5    R(2,3)                  1.5465         estimate D2E/DX2                !
 ! R6    R(2,4)                  1.5462         estimate D2E/DX2                !
 ! R7    R(2,5)                  1.5729         estimate D2E/DX2                !
 ! R8    R(3,12)                 1.1117         estimate D2E/DX2                !
 ! R9    R(3,13)                 1.1107         estimate D2E/DX2                !
 ! R10   R(3,14)                 1.1103         estimate D2E/DX2                !
 ! R11   R(4,15)                 1.111          estimate D2E/DX2                !
 ! R12   R(4,16)                 1.1117         estimate D2E/DX2                !
 ! R13   R(4,17)                 1.1111         estimate D2E/DX2                !
 ! R14   R(5,6)                  1.4738         estimate D2E/DX2                !
 ! R15   R(5,7)                  1.4125         estimate D2E/DX2                !
 ! R16   R(5,8)                  1.4085         estimate D2E/DX2                !
 ! R17   R(6,18)                 1.0456         estimate D2E/DX2                !
 ! R18   R(6,19)                 1.0463         estimate D2E/DX2                !
 ! R19   R(7,20)                 0.9925         estimate D2E/DX2                !
 ! R20   R(8,21)                 0.9931         estimate D2E/DX2                !
 ! A1    A(2,1,9)              110.6331         estimate D2E/DX2                !
 ! A2    A(2,1,10)             111.1014         estimate D2E/DX2                !
 ! A3    A(2,1,11)             111.2455         estimate D2E/DX2                !
 ! A4    A(9,1,10)             107.7806         estimate D2E/DX2                !
 ! A5    A(9,1,11)             107.2996         estimate D2E/DX2                !
 ! A6    A(10,1,11)            108.6324         estimate D2E/DX2                !
 ! A7    A(1,2,3)              108.3032         estimate D2E/DX2                !
 ! A8    A(1,2,4)              108.1802         estimate D2E/DX2                !
 ! A9    A(1,2,5)              110.9094         estimate D2E/DX2                !
 ! A10   A(3,2,4)              108.3941         estimate D2E/DX2                !
 ! A11   A(3,2,5)              111.0918         estimate D2E/DX2                !
 ! A12   A(4,2,5)              109.8725         estimate D2E/DX2                !
 ! A13   A(2,3,12)             110.5622         estimate D2E/DX2                !
 ! A14   A(2,3,13)             111.0355         estimate D2E/DX2                !
 ! A15   A(2,3,14)             111.2627         estimate D2E/DX2                !
 ! A16   A(12,3,13)            107.8252         estimate D2E/DX2                !
 ! A17   A(12,3,14)            107.4249         estimate D2E/DX2                !
 ! A18   A(13,3,14)            108.5894         estimate D2E/DX2                !
 ! A19   A(2,4,15)             111.0163         estimate D2E/DX2                !
 ! A20   A(2,4,16)             110.7452         estimate D2E/DX2                !
 ! A21   A(2,4,17)             110.9074         estimate D2E/DX2                !
 ! A22   A(15,4,16)            107.7641         estimate D2E/DX2                !
 ! A23   A(15,4,17)            108.3465         estimate D2E/DX2                !
 ! A24   A(16,4,17)            107.9367         estimate D2E/DX2                !
 ! A25   A(2,5,6)              110.72           estimate D2E/DX2                !
 ! A26   A(2,5,7)              109.8407         estimate D2E/DX2                !
 ! A27   A(2,5,8)              109.0388         estimate D2E/DX2                !
 ! A28   A(6,5,7)              109.7735         estimate D2E/DX2                !
 ! A29   A(6,5,8)              109.1879         estimate D2E/DX2                !
 ! A30   A(7,5,8)              108.233          estimate D2E/DX2                !
 ! A31   A(5,6,18)             109.2936         estimate D2E/DX2                !
 ! A32   A(5,6,19)             108.6842         estimate D2E/DX2                !
 ! A33   A(18,6,19)            105.8852         estimate D2E/DX2                !
 ! A34   A(5,7,20)             108.2631         estimate D2E/DX2                !
 ! A35   A(5,8,21)             107.2684         estimate D2E/DX2                !
 ! D1    D(9,1,2,3)             62.117          estimate D2E/DX2                !
 ! D2    D(9,1,2,4)            -55.1707         estimate D2E/DX2                !
 ! D3    D(9,1,2,5)           -175.7332         estimate D2E/DX2                !
 ! D4    D(10,1,2,3)          -178.2093         estimate D2E/DX2                !
 ! D5    D(10,1,2,4)            64.503          estimate D2E/DX2                !
 ! D6    D(10,1,2,5)           -56.0595         estimate D2E/DX2                !
 ! D7    D(11,1,2,3)           -57.0471         estimate D2E/DX2                !
 ! D8    D(11,1,2,4)          -174.3348         estimate D2E/DX2                !
 ! D9    D(11,1,2,5)            65.1027         estimate D2E/DX2                !
 ! D10   D(1,2,3,12)           -55.3245         estimate D2E/DX2                !
 ! D11   D(1,2,3,13)            64.3155         estimate D2E/DX2                !
 ! D12   D(1,2,3,14)          -174.6104         estimate D2E/DX2                !
 ! D13   D(4,2,3,12)            61.8257         estimate D2E/DX2                !
 ! D14   D(4,2,3,13)          -178.5342         estimate D2E/DX2                !
 ! D15   D(4,2,3,14)           -57.4601         estimate D2E/DX2                !
 ! D16   D(5,2,3,12)          -177.3627         estimate D2E/DX2                !
 ! D17   D(5,2,3,13)           -57.7226         estimate D2E/DX2                !
 ! D18   D(5,2,3,14)            63.3514         estimate D2E/DX2                !
 ! D19   D(1,2,4,15)           178.4411         estimate D2E/DX2                !
 ! D20   D(1,2,4,16)            58.7699         estimate D2E/DX2                !
 ! D21   D(1,2,4,17)           -61.0465         estimate D2E/DX2                !
 ! D22   D(3,2,4,15)            61.2119         estimate D2E/DX2                !
 ! D23   D(3,2,4,16)           -58.4593         estimate D2E/DX2                !
 ! D24   D(3,2,4,17)          -178.2757         estimate D2E/DX2                !
 ! D25   D(5,2,4,15)           -60.352          estimate D2E/DX2                !
 ! D26   D(5,2,4,16)           179.9768         estimate D2E/DX2                !
 ! D27   D(5,2,4,17)            60.1604         estimate D2E/DX2                !
 ! D28   D(1,2,5,6)            -62.1345         estimate D2E/DX2                !
 ! D29   D(1,2,5,7)            176.4654         estimate D2E/DX2                !
 ! D30   D(1,2,5,8)             58.0154         estimate D2E/DX2                !
 ! D31   D(3,2,5,6)             58.3751         estimate D2E/DX2                !
 ! D32   D(3,2,5,7)            -63.025          estimate D2E/DX2                !
 ! D33   D(3,2,5,8)            178.525          estimate D2E/DX2                !
 ! D34   D(4,2,5,6)            178.3114         estimate D2E/DX2                !
 ! D35   D(4,2,5,7)             56.9114         estimate D2E/DX2                !
 ! D36   D(4,2,5,8)            -61.5387         estimate D2E/DX2                !
 ! D37   D(2,5,6,18)            76.6411         estimate D2E/DX2                !
 ! D38   D(2,5,6,19)          -168.2389         estimate D2E/DX2                !
 ! D39   D(7,5,6,18)          -161.9192         estimate D2E/DX2                !
 ! D40   D(7,5,6,19)           -46.7992         estimate D2E/DX2                !
 ! D41   D(8,5,6,18)           -43.4197         estimate D2E/DX2                !
 ! D42   D(8,5,6,19)            71.7003         estimate D2E/DX2                !
 ! D43   D(2,5,7,20)            80.5656         estimate D2E/DX2                !
 ! D44   D(6,5,7,20)           -41.4001         estimate D2E/DX2                !
 ! D45   D(8,5,7,20)          -160.488          estimate D2E/DX2                !
 ! D46   D(2,5,8,21)           175.0524         estimate D2E/DX2                !
 ! D47   D(6,5,8,21)           -63.8579         estimate D2E/DX2                !
 ! D48   D(7,5,8,21)            55.5996         estimate D2E/DX2                !
 --------------------------------------------------------------------------------
 Trust Radius=3.00D-01 FncErr=1.00D-07 GrdErr=1.00D-06
 Number of steps in this run=    113 maximum allowed number of steps=    126.
 GradGradGradGradGradGradGradGradGradGradGradGradGradGradGradGradGradGrad

 Leave Link  103 at Fri Aug 26 12:09:13 2022, MaxMem= 24159191040 cpu:         0.5
 (Enter /public/home/users/caep010/software/Gaussian09/g09/l202.exe)
                          Input orientation:                          
 ---------------------------------------------------------------------
 Center     Atomic      Atomic             Coordinates (Angstroms)
 Number     Number       Type             X           Y           Z
 ---------------------------------------------------------------------
      1          6           0       -0.844800   -0.412400    1.462600
      2          6           0       -0.488200    0.043300    0.027500
      3          6           0       -0.736700    1.566300   -0.074300
      4          6           0       -1.441000   -0.673400   -0.957000
      5          6           0        1.004500   -0.311100   -0.319400
      6          7           0        1.931300    0.394700    0.583300
      7          8           0        1.281800    0.040400   -1.659100
      8          8           0        1.191100   -1.700300   -0.180600
      9          1           0       -1.920500   -0.229500    1.675800
     10          1           0       -0.652200   -1.498100    1.596900
     11          1           0       -0.258100    0.148300    2.220200
     12          1           0       -1.780700    1.812000    0.218300
     13          1           0       -0.054000    2.127500    0.598500
     14          1           0       -0.588100    1.930000   -1.112800
     15          1           0       -1.243600   -0.357600   -2.003700
     16          1           0       -2.501200   -0.433000   -0.724400
     17          1           0       -1.318700   -1.776000   -0.895400
     18          1           0        1.938200   -0.082700    1.513500
     19          1           0        2.902800    0.301200    0.206200
     20          1           0        1.463400    1.015500   -1.693600
     21          1           0        2.114700   -1.905300   -0.482500
 ---------------------------------------------------------------------
                    Distance matrix (angstroms):
                    1          2          3          4          5
     1  C    0.000000
     2  C    1.547365   0.000000
     3  C    2.507788   1.546494   0.000000
     4  C    2.505602   1.546198   2.508277   0.000000
     5  C    2.570155   1.572925   2.572252   2.553089   0.000000
     6  N    3.021806   2.507265   2.987191   3.858208   1.473764
     7  O    3.804269   2.444898   2.985683   2.901051   1.412531
     8  O    2.916107   2.429711   3.794521   2.930063   1.408532
     9  H    1.111772   2.200635   2.772928   2.712675   3.541625
    10  H    1.110800   2.205862   3.491504   2.797274   2.797468
    11  H    1.110207   2.207239   2.739436   3.488416   2.873112
    12  H    2.715170   2.198923   1.111719   2.770188   3.543164
    13  H    2.796985   2.204192   1.110714   3.491187   2.812425
    14  H    3.490762   2.206785   1.110334   2.743976   2.861536
    15  H    3.489596   2.203888   2.771448   1.110980   2.809445
    16  H    2.743548   2.200996   2.744684   1.111719   3.531121
    17  H    2.764806   2.202573   3.490544   1.111071   2.806237
    18  H    2.802924   2.848068   3.520710   4.227445   2.069658
    19  H    4.016500   3.405485   3.863304   4.601247   2.062695
    20  H    4.162726   2.777787   2.786746   3.439550   1.964404
    21  H    3.843280   3.291235   4.510999   3.792853   1.949518
                    6          7          8          9         10
     6  N    0.000000
     7  O    2.361300   0.000000
     8  O    2.349567   2.285656   0.000000
     9  H    4.052104   4.631320   3.910438   0.000000
    10  H    3.359248   4.087649   2.568686   1.795594   0.000000
    11  H    2.744745   4.175153   3.358771   1.789603   1.804010
    12  H    3.990101   4.005259   4.618113   2.512284   3.759097
    13  H    2.635193   3.352179   4.099918   3.193720   3.807837
    14  H    3.403128   2.713956   4.148931   3.770281   4.370178
    15  H    4.163954   2.579690   3.324801   3.743437   3.822933
    16  H    4.694915   3.925412   3.941427   2.477819   3.153042
    17  H    4.178635   3.262690   2.610702   3.060212   2.594804
    18  H    1.045577   3.242130   2.458610   3.864901   2.953047
    19  H    1.046307   2.484955   2.661867   5.070068   4.220136
    20  H    2.405950   0.992466   3.120719   4.934943   4.649875
    21  H    2.541567   2.421541   0.993079   4.873336   3.485033
                   11         12         13         14         15
    11  H    0.000000
    12  H    3.015595   0.000000
    13  H    2.566866   1.795991   0.000000
    14  H    3.793711   1.791102   1.803557   0.000000
    15  H    4.366747   3.151654   3.789765   2.540964   0.000000
    16  H    3.747009   2.539257   3.780875   3.065057   1.795509
    17  H    3.812449   3.785170   4.366751   3.783580   1.801618
    18  H    2.318732   4.370086   3.113048   4.163004   4.750802
    19  H    3.751115   4.921162   3.497419   4.071748   4.744503
    20  H    4.362732   3.848891   2.965260   2.319977   3.051133
    21  H    4.141502   5.429879   4.704816   4.734124   3.998450
                   16         17         18         19         20
    16  H    0.000000
    17  H    1.797553   0.000000
    18  H    4.983892   4.390611   0.000000
    19  H    5.532475   4.832116   1.669391   0.000000
    20  H    4.330768   4.021154   3.423006   2.488240   0.000000
    21  H    4.851053   3.460555   2.708697   2.442141   3.228317
                   21
    21  H    0.000000
 Stoichiometry    C5H13NO2
 Framework group  C1[X(C5H13NO2)]
 Deg. of freedom    57
 Full point group                 C1      NOp   1
 Largest Abelian subgroup         C1      NOp   1
 Largest concise Abelian subgroup C1      NOp   1
                         Standard orientation:                         
 ---------------------------------------------------------------------
 Center     Atomic      Atomic             Coordinates (Angstroms)
 Number     Number       Type             X           Y           Z
 ---------------------------------------------------------------------
      1          6           0        1.271538    1.474981   -0.161871
      2          6           0        0.771136    0.021239    0.012973
      3          6           0        1.310180   -0.519507    1.357841
      4          6           0        1.364964   -0.834130   -1.130023
      5          6           0       -0.799873   -0.041074   -0.033295
      6          7           0       -1.385353    0.736121    1.073574
      7          8           0       -1.228953   -1.384475    0.046758
      8          8           0       -1.244931    0.491421   -1.258993
      9          1           0        2.382067    1.504487   -0.205374
     10          1           0        0.883264    1.921215   -1.102081
     11          1           0        0.957429    2.113777    0.690088
     12          1           0        2.417289   -0.427595    1.400053
     13          1           0        0.888904    0.049246    2.213838
     14          1           0        1.060445   -1.593390    1.489175
     15          1           0        1.056842   -1.897161   -1.033563
     16          1           0        2.475996   -0.799961   -1.111068
     17          1           0        1.028003   -0.460865   -2.120785
     18          1           0       -1.327997    1.755492    0.848135
     19          1           0       -2.405812    0.513661    1.136293
     20          1           0       -1.206196   -1.662002    0.999360
     21          1           0       -2.229353    0.365624   -1.294962
 ---------------------------------------------------------------------
 Rotational constants (GHZ):      2.4593371      1.7295578      1.7173155
 Leave Link  202 at Fri Aug 26 12:09:13 2022, MaxMem= 24159191040 cpu:         0.7
 (Enter /public/home/users/caep010/software/Gaussian09/g09/l301.exe)
 Standard basis: GTBas3 (6D, 7F)
 Ernie: Thresh=  0.10000D-02 Tol=  0.10000D-05 Strict=F.
 There are   313 symmetry adapted cartesian basis functions of A   symmetry.
 There are   289 symmetry adapted basis functions of A   symmetry.
   289 basis functions,   443 primitive gaussians,   313 cartesian basis functions
    33 alpha electrons       33 beta electrons
       nuclear repulsion energy       443.8466294247 Hartrees.
 IExCor=  402 DFT=T Ex+Corr=B3LYP ExCW=0 ScaHFX=  0.200000
 ScaDFX=  0.800000  0.720000  1.000000  0.810000 ScalE2=  1.000000  1.000000
 IRadAn=      0 IRanWt=     -1 IRanGd=            0 ICorTp=0 IEmpDi=  4
 NAtoms=   21 NActive=   21 NUniq=   21 SFac= 1.00D+00 NAtFMM=   60 NAOKFM=F Big=F
 Integral buffers will be    131072 words long.
 Raffenetti 2 integral format.
 Two-electron integral symmetry is turned on.
 Leave Link  301 at Fri Aug 26 12:09:13 2022, MaxMem= 24159191040 cpu:         2.0
 (Enter /public/home/users/caep010/software/Gaussian09/g09/l302.exe)
 NPDir=0 NMtPBC=     1 NCelOv=     1 NCel=       1 NClECP=     1 NCelD=      1
         NCelK=      1 NCelE2=     1 NClLst=     1 CellRange=     0.0.
 One-electron integrals computed using PRISM.
 NBasis=   289 RedAO= T EigKep=  3.92D-04  NBF=   289
 NBsUse=   289 1.00D-06 EigRej= -1.00D+00 NBFU=   289
 Precomputing XC quadrature grid using
 IXCGrd= 4 IRadAn=           0 IRanWt=          -1 IRanGd=           0 AccXCQ= 0.00D+00.
 Generated NRdTot=       0 NPtTot=           0 NUsed=           0 NTot=          32
 NSgBfM=   313   313   313   313   313 MxSgAt=    21 MxSgA2=    21.
 Leave Link  302 at Fri Aug 26 12:09:14 2022, MaxMem= 24159191040 cpu:        16.8
 (Enter /public/home/users/caep010/software/Gaussian09/g09/l303.exe)
 DipDrv:  MaxL=1.
 Leave Link  303 at Fri Aug 26 12:09:14 2022, MaxMem= 24159191040 cpu:         1.6
 (Enter /public/home/users/caep010/software/Gaussian09/g09/l401.exe)
 ExpMin= 1.61D-01 ExpMax= 5.48D+03 ExpMxC= 8.25D+02 IAcc=1 IRadAn=         1 AccDes= 0.00D+00
 Harris functional with IExCor=  402 and IRadAn=       1 diagonalized for initial guess.
 HarFok:  IExCor=  402 AccDes= 0.00D+00 IRadAn=         1 IDoV= 1 UseB2=F ITyADJ=14
 ICtDFT=  3500011 ScaDFX=  1.000000  1.000000  1.000000  1.000000
 FoFCou: FMM=F IPFlag=           0 FMFlag=      100000 FMFlg1=           0
         NFxFlg=           0 DoJE=T BraDBF=F KetDBF=T FulRan=T
         wScrn=  0.000000 ICntrl=     500 IOpCl=  0 I1Cent=   200000004 NGrid=           0
         NMat0=    1 NMatS0=      1 NMatT0=    0 NMatD0=    1 NMtDS0=    0 NMtDT0=    0
 Petite list used in FoFCou.
 Harris En= -403.652361214211    
 JPrj=0 DoOrth=F DoCkMO=F.
 Leave Link  401 at Fri Aug 26 12:09:14 2022, MaxMem= 24159191040 cpu:        15.9
 (Enter /public/home/users/caep010/software/Gaussian09/g09/l502.exe)
 Closed shell SCF:
 Using DIIS extrapolation, IDIIS=  1040.
 Integral symmetry usage will be decided dynamically.
 Keep R1 ints in memory in canonical form, NReq=893839649.
 IVT=      324769 IEndB=      324769 NGot= 24159191040 MDV= 23280830807
 LenX= 23280830807 LenY= 23280732397
 Requested convergence on RMS density matrix=1.00D-08 within 128 cycles.
 Requested convergence on MAX density matrix=1.00D-06.
 Requested convergence on             energy=1.00D-06.
 No special actions if energy rises.
 FoFCou: FMM=F IPFlag=           0 FMFlag=           0 FMFlg1=           0
         NFxFlg=           0 DoJE=F BraDBF=F KetDBF=F FulRan=T
         wScrn=  0.000000 ICntrl=     600 IOpCl=  0 I1Cent=           0 NGrid=           0
         NMat0=    1 NMatS0=  41905 NMatT0=    0 NMatD0=    1 NMtDS0=    0 NMtDT0=    0
 Symmetry not used in FoFCou.
 Integral accuracy reduced to 1.0D-05 until final iterations.

 Cycle   1  Pass 0  IDiag  1:
 E= -403.263730095173    
 DIIS: error= 2.34D-02 at cycle   1 NSaved=   1.
 NSaved= 1 IEnMin= 1 EnMin= -403.263730095173     IErMin= 1 ErrMin= 2.34D-02
 ErrMax= 2.34D-02  0.00D+00 EMaxC= 1.00D-01 BMatC= 3.63D-01 BMatP= 3.63D-01
 IDIUse=3 WtCom= 7.66D-01 WtEn= 2.34D-01
 Coeff-Com:  0.100D+01
 Coeff-En:   0.100D+01
 Coeff:      0.100D+01
 Gap=     0.228 Goal=   None    Shift=    0.000
 GapD=    0.228 DampG=1.000 DampE=0.500 DampFc=0.5000 IDamp=-1.
 Damping current iteration by 5.00D-01
 RMSDP=4.57D-03 MaxDP=1.60D-01              OVMax= 1.70D-01

 Cycle   2  Pass 0  IDiag  1:
 E= -403.394865103555     Delta-E=       -0.131135008382 Rises=F Damp=T
 DIIS: error= 1.01D-02 at cycle   2 NSaved=   2.
 NSaved= 2 IEnMin= 2 EnMin= -403.394865103555     IErMin= 2 ErrMin= 1.01D-02
 ErrMax= 1.01D-02  0.00D+00 EMaxC= 1.00D-01 BMatC= 2.04D-02 BMatP= 3.63D-01
 IDIUse=3 WtCom= 8.99D-01 WtEn= 1.01D-01
 Coeff-Com:  0.131D+00 0.869D+00
 Coeff-En:   0.218D+00 0.782D+00
 Coeff:      0.140D+00 0.860D+00
 Gap=     0.296 Goal=   None    Shift=    0.000
 RMSDP=8.38D-04 MaxDP=4.04D-02 DE=-1.31D-01 OVMax= 9.76D-02

 Cycle   3  Pass 0  IDiag  1:
 E= -403.589532766705     Delta-E=       -0.194667663150 Rises=F Damp=F
 DIIS: error= 2.46D-03 at cycle   3 NSaved=   3.
 NSaved= 3 IEnMin= 3 EnMin= -403.589532766705     IErMin= 3 ErrMin= 2.46D-03
 ErrMax= 2.46D-03  0.00D+00 EMaxC= 1.00D-01 BMatC= 2.46D-03 BMatP= 2.04D-02
 IDIUse=3 WtCom= 9.75D-01 WtEn= 2.46D-02
 Coeff-Com:  0.218D-01 0.217D+00 0.762D+00
 Coeff-En:   0.000D+00 0.000D+00 0.100D+01
 Coeff:      0.213D-01 0.211D+00 0.768D+00
 Gap=     0.299 Goal=   None    Shift=    0.000
 RMSDP=2.50D-04 MaxDP=1.03D-02 DE=-1.95D-01 OVMax= 1.06D-02

 Cycle   4  Pass 0  IDiag  1:
 E= -403.590429005707     Delta-E=       -0.000896239002 Rises=F Damp=F
 DIIS: error= 1.39D-03 at cycle   4 NSaved=   4.
 NSaved= 4 IEnMin= 4 EnMin= -403.590429005707     IErMin= 4 ErrMin= 1.39D-03
 ErrMax= 1.39D-03  0.00D+00 EMaxC= 1.00D-01 BMatC= 1.44D-03 BMatP= 2.46D-03
 IDIUse=3 WtCom= 9.86D-01 WtEn= 1.39D-02
 Coeff-Com:  0.827D-03 0.324D-01 0.434D+00 0.533D+00
 Coeff-En:   0.000D+00 0.000D+00 0.367D+00 0.633D+00
 Coeff:      0.815D-03 0.320D-01 0.433D+00 0.534D+00
 Gap=     0.297 Goal=   None    Shift=    0.000
 RMSDP=1.17D-04 MaxDP=5.19D-03 DE=-8.96D-04 OVMax= 5.98D-03

 Cycle   5  Pass 0  IDiag  1:
 E= -403.591558214658     Delta-E=       -0.001129208951 Rises=F Damp=F
 DIIS: error= 2.15D-04 at cycle   5 NSaved=   5.
 NSaved= 5 IEnMin= 5 EnMin= -403.591558214658     IErMin= 5 ErrMin= 2.15D-04
 ErrMax= 2.15D-04  0.00D+00 EMaxC= 1.00D-01 BMatC= 4.12D-05 BMatP= 1.44D-03
 IDIUse=3 WtCom= 9.98D-01 WtEn= 2.15D-03
 Coeff-Com: -0.309D-03 0.314D-02 0.154D+00 0.237D+00 0.607D+00
 Coeff-En:   0.000D+00 0.000D+00 0.000D+00 0.000D+00 0.100D+01
 Coeff:     -0.308D-03 0.313D-02 0.153D+00 0.236D+00 0.608D+00
 Gap=     0.297 Goal=   None    Shift=    0.000
 RMSDP=2.56D-05 MaxDP=1.40D-03 DE=-1.13D-03 OVMax= 1.69D-03

 Cycle   6  Pass 0  IDiag  1:
 E= -403.591587044016     Delta-E=       -0.000028829358 Rises=F Damp=F
 DIIS: error= 7.87D-05 at cycle   6 NSaved=   6.
 NSaved= 6 IEnMin= 6 EnMin= -403.591587044016     IErMin= 6 ErrMin= 7.87D-05
 ErrMax= 7.87D-05  0.00D+00 EMaxC= 1.00D-01 BMatC= 6.00D-06 BMatP= 4.12D-05
 IDIUse=1 WtCom= 1.00D+00 WtEn= 0.00D+00
 Coeff-Com: -0.133D-03-0.843D-03 0.553D-01 0.940D-01 0.342D+00 0.510D+00
 Coeff:     -0.133D-03-0.843D-03 0.553D-01 0.940D-01 0.342D+00 0.510D+00
 Gap=     0.297 Goal=   None    Shift=    0.000
 RMSDP=8.03D-06 MaxDP=4.53D-04 DE=-2.88D-05 OVMax= 4.61D-04

 Initial convergence to 1.0D-05 achieved.  Increase integral accuracy.
 Cycle   7  Pass 1  IDiag  1:
 E= -403.591672225523     Delta-E=       -0.000085181506 Rises=F Damp=F
 DIIS: error= 2.09D-05 at cycle   1 NSaved=   1.
 NSaved= 1 IEnMin= 1 EnMin= -403.591672225523     IErMin= 1 ErrMin= 2.09D-05
 ErrMax= 2.09D-05  0.00D+00 EMaxC= 1.00D-01 BMatC= 2.58D-07 BMatP= 2.58D-07
 IDIUse=1 WtCom= 1.00D+00 WtEn= 0.00D+00
 Coeff-Com:  0.100D+01
 Coeff:      0.100D+01
 Gap=     0.297 Goal=   None    Shift=    0.000
 RMSDP=8.03D-06 MaxDP=4.53D-04 DE=-8.52D-05 OVMax= 1.07D-04

 Cycle   8  Pass 1  IDiag  1:
 E= -403.591672412213     Delta-E=       -0.000000186690 Rises=F Damp=F
 DIIS: error= 1.28D-05 at cycle   2 NSaved=   2.
 NSaved= 2 IEnMin= 2 EnMin= -403.591672412213     IErMin= 2 ErrMin= 1.28D-05
 ErrMax= 1.28D-05  0.00D+00 EMaxC= 1.00D-01 BMatC= 6.56D-08 BMatP= 2.58D-07
 IDIUse=1 WtCom= 1.00D+00 WtEn= 0.00D+00
 Coeff-Com:  0.268D+00 0.732D+00
 Coeff:      0.268D+00 0.732D+00
 Gap=     0.297 Goal=   None    Shift=    0.000
 RMSDP=1.57D-06 MaxDP=6.87D-05 DE=-1.87D-07 OVMax= 7.42D-05

 Cycle   9  Pass 1  IDiag  1:
 E= -403.591672444743     Delta-E=       -0.000000032530 Rises=F Damp=F
 DIIS: error= 8.47D-06 at cycle   3 NSaved=   3.
 NSaved= 3 IEnMin= 3 EnMin= -403.591672444743     IErMin= 3 ErrMin= 8.47D-06
 ErrMax= 8.47D-06  0.00D+00 EMaxC= 1.00D-01 BMatC= 3.45D-08 BMatP= 6.56D-08
 IDIUse=1 WtCom= 1.00D+00 WtEn= 0.00D+00
 Coeff-Com:  0.176D-02 0.417D+00 0.581D+00
 Coeff:      0.176D-02 0.417D+00 0.581D+00
 Gap=     0.297 Goal=   None    Shift=    0.000
 RMSDP=7.04D-07 MaxDP=2.99D-05 DE=-3.25D-08 OVMax= 3.24D-05

 Cycle  10  Pass 1  IDiag  1:
 E= -403.591672474481     Delta-E=       -0.000000029738 Rises=F Damp=F
 DIIS: error= 1.52D-06 at cycle   4 NSaved=   4.
 NSaved= 4 IEnMin= 4 EnMin= -403.591672474481     IErMin= 4 ErrMin= 1.52D-06
 ErrMax= 1.52D-06  0.00D+00 EMaxC= 1.00D-01 BMatC= 1.50D-09 BMatP= 3.45D-08
 IDIUse=1 WtCom= 1.00D+00 WtEn= 0.00D+00
 Coeff-Com: -0.114D-01 0.178D+00 0.292D+00 0.542D+00
 Coeff:     -0.114D-01 0.178D+00 0.292D+00 0.542D+00
 Gap=     0.297 Goal=   None    Shift=    0.000
 RMSDP=1.32D-07 MaxDP=5.88D-06 DE=-2.97D-08 OVMax= 6.39D-06

 Cycle  11  Pass 1  IDiag  1:
 E= -403.591672475721     Delta-E=       -0.000000001240 Rises=F Damp=F
 DIIS: error= 3.95D-07 at cycle   5 NSaved=   5.
 NSaved= 5 IEnMin= 5 EnMin= -403.591672475721     IErMin= 5 ErrMin= 3.95D-07
 ErrMax= 3.95D-07  0.00D+00 EMaxC= 1.00D-01 BMatC= 8.25D-11 BMatP= 1.50D-09
 IDIUse=1 WtCom= 1.00D+00 WtEn= 0.00D+00
 Coeff-Com: -0.600D-02 0.770D-01 0.128D+00 0.283D+00 0.518D+00
 Coeff:     -0.600D-02 0.770D-01 0.128D+00 0.283D+00 0.518D+00
 Gap=     0.297 Goal=   None    Shift=    0.000
 RMSDP=2.97D-08 MaxDP=1.41D-06 DE=-1.24D-09 OVMax= 1.36D-06

 Cycle  12  Pass 1  IDiag  1:
 E= -403.591672475784     Delta-E=       -0.000000000063 Rises=F Damp=F
 DIIS: error= 6.41D-08 at cycle   6 NSaved=   6.
 NSaved= 6 IEnMin= 6 EnMin= -403.591672475784     IErMin= 6 ErrMin= 6.41D-08
 ErrMax= 6.41D-08  0.00D+00 EMaxC= 1.00D-01 BMatC= 3.01D-12 BMatP= 8.25D-11
 IDIUse=1 WtCom= 1.00D+00 WtEn= 0.00D+00
 Coeff-Com: -0.699D-03 0.583D-02 0.898D-02 0.328D-01 0.181D+00 0.772D+00
 Coeff:     -0.699D-03 0.583D-02 0.898D-02 0.328D-01 0.181D+00 0.772D+00
 Gap=     0.297 Goal=   None    Shift=    0.000
 RMSDP=7.27D-09 MaxDP=2.65D-07 DE=-6.28D-11 OVMax= 2.84D-07

 SCF Done:  E(RB3LYP) =  -403.591672476     A.U. after   12 cycles
            NFock= 12  Conv=0.73D-08     -V/T= 2.0085
 KE= 4.002018612409D+02 PE=-1.829945177705D+03 EE= 5.823050145636D+02
 Leave Link  502 at Fri Aug 26 12:09:35 2022, MaxMem= 24159191040 cpu:       182.7
 (Enter /public/home/users/caep010/software/Gaussian09/g09/l601.exe)
 Copying SCF densities to generalized density rwf, IOpCl= 0 IROHF=0.

 **********************************************************************

            Population analysis using the SCF density.

 **********************************************************************

 Orbital symmetries:
       Occupied  (A) (A) (A) (A) (A) (A) (A) (A) (A) (A) (A) (A)
                 (A) (A) (A) (A) (A) (A) (A) (A) (A) (A) (A) (A)
                 (A) (A) (A) (A) (A) (A) (A) (A) (A)
       Virtual   (A) (A) (A) (A) (A) (A) (A) (A) (A) (A) (A) (A)
                 (A) (A) (A) (A) (A) (A) (A) (A) (A) (A) (A) (A)
                 (A) (A) (A) (A) (A) (A) (A) (A) (A) (A) (A) (A)
                 (A) (A) (A) (A) (A) (A) (A) (A) (A) (A) (A) (A)
                 (A) (A) (A) (A) (A) (A) (A) (A) (A) (A) (A) (A)
                 (A) (A) (A) (A) (A) (A) (A) (A) (A) (A) (A) (A)
                 (A) (A) (A) (A) (A) (A) (A) (A) (A) (A) (A) (A)
                 (A) (A) (A) (A) (A) (A) (A) (A) (A) (A) (A) (A)
                 (A) (A) (A) (A) (A) (A) (A) (A) (A) (A) (A) (A)
                 (A) (A) (A) (A) (A) (A) (A) (A) (A) (A) (A) (A)
                 (A) (A) (A) (A) (A) (A) (A) (A) (A) (A) (A) (A)
                 (A) (A) (A) (A) (A) (A) (A) (A) (A) (A) (A) (A)
                 (A) (A) (A) (A) (A) (A) (A) (A) (A) (A) (A) (A)
                 (A) (A) (A) (A) (A) (A) (A) (A) (A) (A) (A) (A)
                 (A) (A) (A) (A) (A) (A) (A) (A) (A) (A) (A) (A)
                 (A) (A) (A) (A) (A) (A) (A) (A) (A) (A) (A) (A)
                 (A) (A) (A) (A) (A) (A) (A) (A) (A) (A) (A) (A)
                 (A) (A) (A) (A) (A) (A) (A) (A) (A) (A) (A) (A)
                 (A) (A) (A) (A) (A) (A) (A) (A) (A) (A) (A) (A)
                 (A) (A) (A) (A) (A) (A) (A) (A) (A) (A) (A) (A)
                 (A) (A) (A) (A) (A) (A) (A) (A) (A) (A) (A) (A)
                 (A) (A) (A) (A)
 The electronic state is 1-A.
 Alpha  occ. eigenvalues --  -19.14832 -19.14107 -14.31941 -10.30568 -10.19214
 Alpha  occ. eigenvalues --  -10.17020 -10.16937 -10.16225  -1.06440  -0.98984
 Alpha  occ. eigenvalues --   -0.86016  -0.79664  -0.67149  -0.66679  -0.64255
 Alpha  occ. eigenvalues --   -0.54757  -0.51929  -0.50290  -0.47184  -0.45311
 Alpha  occ. eigenvalues --   -0.41928  -0.41188  -0.39190  -0.37308  -0.36807
 Alpha  occ. eigenvalues --   -0.36002  -0.34805  -0.33606  -0.31745  -0.31396
 Alpha  occ. eigenvalues --   -0.31168  -0.27769  -0.24425
 Alpha virt. eigenvalues --    0.05269   0.08514   0.10209   0.11281   0.13597
 Alpha virt. eigenvalues --    0.13760   0.15920   0.16348   0.17474   0.17702
 Alpha virt. eigenvalues --    0.19287   0.19761   0.21825   0.22951   0.23813
 Alpha virt. eigenvalues --    0.24960   0.25861   0.27477   0.28239   0.29712
 Alpha virt. eigenvalues --    0.45545   0.45997   0.46937   0.48302   0.48686
 Alpha virt. eigenvalues --    0.51895   0.55034   0.55568   0.57184   0.58334
 Alpha virt. eigenvalues --    0.60883   0.62152   0.62772   0.64829   0.64972
 Alpha virt. eigenvalues --    0.67159   0.69905   0.71920   0.72391   0.72801
 Alpha virt. eigenvalues --    0.73539   0.74447   0.75410   0.76001   0.76787
 Alpha virt. eigenvalues --    0.77988   0.79451   0.80342   0.82755   0.84067
 Alpha virt. eigenvalues --    0.86633   0.87295   0.88740   0.89099   0.90764
 Alpha virt. eigenvalues --    0.91603   0.92675   0.94708   0.96460   0.97623
 Alpha virt. eigenvalues --    0.98709   1.03642   1.07205   1.11018   1.14294
 Alpha virt. eigenvalues --    1.18662   1.20080   1.22772   1.30933   1.32215
 Alpha virt. eigenvalues --    1.35350   1.36713   1.37998   1.41040   1.41293
 Alpha virt. eigenvalues --    1.41898   1.43093   1.44913   1.46396   1.48595
 Alpha virt. eigenvalues --    1.49391   1.52704   1.57054   1.57658   1.60874
 Alpha virt. eigenvalues --    1.62502   1.64328   1.65791   1.69008   1.73491
 Alpha virt. eigenvalues --    1.75589   1.77180   1.81026   1.81964   1.84397
 Alpha virt. eigenvalues --    1.85835   1.88662   1.91563   1.94453   1.95799
 Alpha virt. eigenvalues --    1.96467   1.96959   1.97886   2.01924   2.04748
 Alpha virt. eigenvalues --    2.11094   2.18226   2.20852   2.23254   2.29869
 Alpha virt. eigenvalues --    2.30535   2.30926   2.31396   2.39507   2.41854
 Alpha virt. eigenvalues --    2.43300   2.48247   2.49437   2.52593   2.55768
 Alpha virt. eigenvalues --    2.57183   2.60901   2.62943   2.68349   2.69342
 Alpha virt. eigenvalues --    2.71030   2.75276   2.77977   2.81020   2.83831
 Alpha virt. eigenvalues --    2.84665   2.85722   2.87209   2.90099   2.90649
 Alpha virt. eigenvalues --    2.92818   2.93467   2.94216   2.94626   2.95851
 Alpha virt. eigenvalues --    2.98463   2.99411   3.00652   3.02273   3.06830
 Alpha virt. eigenvalues --    3.07907   3.08742   3.12403   3.18480   3.19981
 Alpha virt. eigenvalues --    3.25663   3.27859   3.32833   3.36976   3.39562
 Alpha virt. eigenvalues --    3.42541   3.47297   3.47473   3.49984   3.59035
 Alpha virt. eigenvalues --    3.61798   3.62873   3.63853   3.64697   3.67599
 Alpha virt. eigenvalues --    3.76274   3.76597   3.78967   3.82261   3.84260
 Alpha virt. eigenvalues --    3.88980   3.96800   4.00257   4.01602   4.03238
 Alpha virt. eigenvalues --    4.10748   4.13753   4.14997   4.16018   4.17729
 Alpha virt. eigenvalues --    4.21098   4.22230   4.25183   4.26609   4.30050
 Alpha virt. eigenvalues --    4.35479   4.36879   4.41456   4.43798   4.44788
 Alpha virt. eigenvalues --    4.48104   4.48245   4.49425   4.50778   4.52841
 Alpha virt. eigenvalues --    4.54808   4.55790   4.60123   4.61736   4.62969
 Alpha virt. eigenvalues --    4.65381   4.67340   4.69544   4.70835   4.72713
 Alpha virt. eigenvalues --    4.74005   4.74810   4.75953   4.77230   4.79141
 Alpha virt. eigenvalues --    4.79372   4.84567   4.87571   4.88525   4.89823
 Alpha virt. eigenvalues --    4.92738   4.93540   4.95774   4.96077   4.99604
 Alpha virt. eigenvalues --    5.04845   5.09633   5.11921   5.23017   5.27789
 Alpha virt. eigenvalues --    5.33347   5.38677   5.41393   5.44754   5.47093
 Alpha virt. eigenvalues --    5.51148   5.51278   5.55827   5.62959   5.67354
 Alpha virt. eigenvalues --    5.69249   5.76888   5.80993   5.90201   5.97657
 Alpha virt. eigenvalues --    6.01338   6.05349   6.10855   6.17631   6.20144
 Alpha virt. eigenvalues --    7.21381   7.26730  10.71557  11.39508  11.71710
 Alpha virt. eigenvalues --   11.99348  12.00100  12.91450  13.51782  13.58761
 Alpha virt. eigenvalues --   13.76510
          Condensed to atoms (all electrons):
               1          2          3          4          5          6
     1  C    5.109105   0.364591  -0.049491  -0.049323  -0.018248  -0.004789
     2  C    0.364591   4.560825   0.380356   0.386966   0.325629  -0.045455
     3  C   -0.049491   0.380356   5.116346  -0.054682  -0.027358  -0.012270
     4  C   -0.049323   0.386966  -0.054682   5.082915  -0.023578   0.002636
     5  C   -0.018248   0.325629  -0.027358  -0.023578   4.448506   0.369347
     6  N   -0.004789  -0.045455  -0.012270   0.002636   0.369347   6.740784
     7  O    0.002300  -0.059116  -0.001481  -0.007278   0.346987  -0.049433
     8  O   -0.006578  -0.036541   0.001259  -0.005034   0.396537  -0.092445
     9  H    0.364424  -0.015190  -0.004350  -0.006750   0.002214   0.000028
    10  H    0.362477  -0.018385   0.005163  -0.002816  -0.004050  -0.000085
    11  H    0.359356  -0.020702  -0.005705   0.005522  -0.002994   0.002224
    12  H   -0.005627  -0.017904   0.367171  -0.004139   0.002829   0.000257
    13  H   -0.003351  -0.017179   0.357281   0.005308  -0.002594   0.010926
    14  H    0.005812  -0.023350   0.355656  -0.005516  -0.002355   0.000234
    15  H    0.005371  -0.019893  -0.003972   0.360177  -0.003662   0.000180
    16  H   -0.005849  -0.019514  -0.005369   0.363457   0.002900  -0.000040
    17  H   -0.003444  -0.018984   0.005176   0.361414  -0.002375   0.000232
    18  H    0.001478  -0.001778   0.000797  -0.000215  -0.040689   0.322368
    19  H    0.000041   0.007640  -0.000008  -0.000254  -0.045991   0.310119
    20  H   -0.000216  -0.000823   0.002194   0.000832  -0.049813   0.001530
    21  H   -0.000002   0.008927  -0.000286  -0.000151  -0.059353   0.004840
               7          8          9         10         11         12
     1  C    0.002300  -0.006578   0.364424   0.362477   0.359356  -0.005627
     2  C   -0.059116  -0.036541  -0.015190  -0.018385  -0.020702  -0.017904
     3  C   -0.001481   0.001259  -0.004350   0.005163  -0.005705   0.367171
     4  C   -0.007278  -0.005034  -0.006750  -0.002816   0.005522  -0.004139
     5  C    0.346987   0.396537   0.002214  -0.004050  -0.002994   0.002829
     6  N   -0.049433  -0.092445   0.000028  -0.000085   0.002224   0.000257
     7  O    7.940990  -0.046386  -0.000041   0.000099  -0.000001   0.000161
     8  O   -0.046386   7.904152   0.000178   0.007839   0.000051  -0.000012
     9  H   -0.000041   0.000178   0.605111  -0.029508  -0.031459   0.003193
    10  H    0.000099   0.007839  -0.029508   0.580213  -0.030949  -0.000017
    11  H   -0.000001   0.000051  -0.031459  -0.030949   0.614350   0.000215
    12  H    0.000161  -0.000012   0.003193  -0.000017   0.000215   0.599327
    13  H   -0.000078   0.000089  -0.000146  -0.000061   0.004045  -0.029130
    14  H    0.004832   0.000016  -0.000101  -0.000200  -0.000050  -0.030293
    15  H    0.009474  -0.000086  -0.000056  -0.000060  -0.000201  -0.000064
    16  H    0.000193   0.000194   0.003777  -0.000124  -0.000034   0.003050
    17  H   -0.000053   0.007113  -0.000004   0.003357  -0.000067  -0.000064
    18  H    0.004352   0.005443  -0.000021   0.000977   0.001244  -0.000024
    19  H    0.005329   0.000058   0.000006  -0.000033  -0.000165   0.000005
    20  H    0.299298   0.004687  -0.000003  -0.000016   0.000019  -0.000022
    21  H    0.002376   0.292770   0.000012  -0.000345  -0.000065   0.000003
              13         14         15         16         17         18
     1  C   -0.003351   0.005812   0.005371  -0.005849  -0.003444   0.001478
     2  C   -0.017179  -0.023350  -0.019893  -0.019514  -0.018984  -0.001778
     3  C    0.357281   0.355656  -0.003972  -0.005369   0.005176   0.000797
     4  C    0.005308  -0.005516   0.360177   0.363457   0.361414  -0.000215
     5  C   -0.002594  -0.002355  -0.003662   0.002900  -0.002375  -0.040689
     6  N    0.010926   0.000234   0.000180  -0.000040   0.000232   0.322368
     7  O   -0.000078   0.004832   0.009474   0.000193  -0.000053   0.004352
     8  O    0.000089   0.000016  -0.000086   0.000194   0.007113   0.005443
     9  H   -0.000146  -0.000101  -0.000056   0.003777  -0.000004  -0.000021
    10  H   -0.000061  -0.000200  -0.000060  -0.000124   0.003357   0.000977
    11  H    0.004045  -0.000050  -0.000201  -0.000034  -0.000067   0.001244
    12  H   -0.029130  -0.030293  -0.000064   0.003050  -0.000064  -0.000024
    13  H    0.579972  -0.030788  -0.000041  -0.000047  -0.000200  -0.000437
    14  H   -0.030788   0.620807   0.004505   0.000098  -0.000038  -0.000035
    15  H   -0.000041   0.004505   0.591079  -0.031760  -0.027286  -0.000016
    16  H   -0.000047   0.000098  -0.031760   0.620648  -0.030986  -0.000003
    17  H   -0.000200  -0.000038  -0.027286  -0.030986   0.583697  -0.000002
    18  H   -0.000437  -0.000035  -0.000016  -0.000003  -0.000002   0.491455
    19  H   -0.000393  -0.000081  -0.000008   0.000003  -0.000005  -0.023479
    20  H    0.000675   0.002559  -0.000358  -0.000023  -0.000039  -0.000283
    21  H   -0.000012  -0.000006  -0.000073   0.000011  -0.000296   0.001157
              19         20         21
     1  C    0.000041  -0.000216  -0.000002
     2  C    0.007640  -0.000823   0.008927
     3  C   -0.000008   0.002194  -0.000286
     4  C   -0.000254   0.000832  -0.000151
     5  C   -0.045991  -0.049813  -0.059353
     6  N    0.310119   0.001530   0.004840
     7  O    0.005329   0.299298   0.002376
     8  O    0.000058   0.004687   0.292770
     9  H    0.000006  -0.000003   0.000012
    10  H   -0.000033  -0.000016  -0.000345
    11  H   -0.000165   0.000019  -0.000065
    12  H    0.000005  -0.000022   0.000003
    13  H   -0.000393   0.000675  -0.000012
    14  H   -0.000081   0.002559  -0.000006
    15  H   -0.000008  -0.000358  -0.000073
    16  H    0.000003  -0.000023   0.000011
    17  H   -0.000005  -0.000039  -0.000296
    18  H   -0.023479  -0.000283   0.001157
    19  H    0.525716   0.000424   0.006287
    20  H    0.000424   0.441680  -0.000446
    21  H    0.006287  -0.000446   0.467451
 Mulliken charges:
               1
     1  C   -0.428036
     2  C    0.279880
     3  C   -0.426428
     4  C   -0.409490
     5  C    0.388110
     6  N   -0.561188
     7  O   -0.452526
     8  O   -0.433306
     9  H    0.108685
    10  H    0.126523
    11  H    0.105366
    12  H    0.111085
    13  H    0.126161
    14  H    0.098292
    15  H    0.116750
    16  H    0.099417
    17  H    0.122857
    18  H    0.237713
    19  H    0.214789
    20  H    0.298145
    21  H    0.277202
 Sum of Mulliken charges =  -0.00000
 Mulliken charges with hydrogens summed into heavy atoms:
               1
     1  C   -0.087462
     2  C    0.279880
     3  C   -0.090889
     4  C   -0.070467
     5  C    0.388110
     6  N   -0.108686
     7  O   -0.154381
     8  O   -0.156105
 Electronic spatial extent (au):  <R**2>=            965.1444
 Charge=             -0.0000 electrons
 Dipole moment (field-independent basis, Debye):
    X=             -1.4096    Y=              0.4869    Z=              1.0797  Tot=              1.8411
 Quadrupole moment (field-independent basis, Debye-Ang):
   XX=            -43.8295   YY=            -50.0464   ZZ=            -53.3137
   XY=             -1.6144   XZ=             -0.7919   YZ=             -1.9794
 Traceless Quadrupole moment (field-independent basis, Debye-Ang):
   XX=              5.2337   YY=             -0.9832   ZZ=             -4.2505
   XY=             -1.6144   XZ=             -0.7919   YZ=             -1.9794
 Octapole moment (field-independent basis, Debye-Ang**2):
  XXX=            -35.7308  YYY=             -0.6381  ZZZ=             -5.9882  XYY=             -8.5461
  XXY=              4.6081  XXZ=             -1.8576  XZZ=             -8.0621  YZZ=             -4.3797
  YYZ=              6.2579  XYZ=              2.5076
 Hexadecapole moment (field-independent basis, Debye-Ang**3):
 XXXX=           -495.4577 YYYY=           -326.1647 ZZZZ=           -347.6008 XXXY=             -9.6377
 XXXZ=             10.1960 YYYX=             -4.9450 YYYZ=             -6.6793 ZZZX=              7.1326
 ZZZY=             -7.8484 XXYY=           -152.6760 XXZZ=           -141.9708 YYZZ=           -107.9637
 XXYZ=             -4.5303 YYXZ=             -7.5596 ZZXY=              7.0441
 N-N= 4.438466294247D+02 E-N=-1.829945206782D+03  KE= 4.002018612409D+02
 No NMR shielding tensors so no spin-rotation constants.
 Leave Link  601 at Fri Aug 26 12:09:36 2022, MaxMem= 24159191040 cpu:        13.8
 (Enter /public/home/users/caep010/software/Gaussian09/g09/l701.exe)
 Compute integral first derivatives.
 ... and contract with generalized density number  0.
 Leave Link  701 at Fri Aug 26 12:09:36 2022, MaxMem= 24159191040 cpu:        14.7
 (Enter /public/home/users/caep010/software/Gaussian09/g09/l702.exe)
 L702 exits ... SP integral derivatives will be done elsewhere.
 Leave Link  702 at Fri Aug 26 12:09:37 2022, MaxMem= 24159191040 cpu:         0.6
 (Enter /public/home/users/caep010/software/Gaussian09/g09/l703.exe)
 Compute integral first derivatives, UseDBF=F ICtDFT=           0.
 Integral derivatives from FoFJK, PRISM(SPDF).
 Calling FoFJK, ICntrl=      2127 FMM=F ISym2X=0 I1Cent= 0 IOpClX= 0 NMat=1 NMatS=1 NMatT=0.
 FoFJK:  IHMeth= 1 ICntrl=    2127 DoSepK=F KAlg= 0 I1Cent=   0 FoldK=F
 IRaf=         0 NMat=   1 IRICut=       1 DoRegI=T DoRafI=F ISym2E= 0.
 FoFCou: FMM=F IPFlag=           0 FMFlag=      100000 FMFlg1=         800
         NFxFlg=           0 DoJE=F BraDBF=F KetDBF=F FulRan=T
         wScrn=  0.000000 ICntrl=    2127 IOpCl=  0 I1Cent=           0 NGrid=           0
         NMat0=    1 NMatS0=      1 NMatT0=    0 NMatD0=    1 NMtDS0=    0 NMtDT0=    0
 Symmetry not used in FoFCou.
 Leave Link  703 at Fri Aug 26 12:09:40 2022, MaxMem= 24159191040 cpu:       112.4
 (Enter /public/home/users/caep010/software/Gaussian09/g09/l716.exe)
 Dipole        =-5.54571506D-01 1.91567689D-01 4.24772976D-01
 ***** Axes restored to original set *****
 -------------------------------------------------------------------
 Center     Atomic                   Forces (Hartrees/Bohr)
 Number     Number              X              Y              Z
 -------------------------------------------------------------------
      1        6           0.001538531   -0.004490202    0.007536988
      2        6          -0.009982646   -0.004162045    0.004903296
      3        6           0.004704227    0.007922723    0.000549378
      4        6          -0.001682585   -0.006684285   -0.007899986
      5        6           0.003201037    0.002698986    0.014160426
      6        7           0.017143190   -0.002024312    0.003940335
      7        8           0.012753050    0.022414323    0.001307354
      8        8           0.011593119   -0.006275127   -0.015791249
      9        1           0.010414899   -0.001038330   -0.002730093
     10        1          -0.001510903    0.010828364   -0.000982835
     11        1          -0.005259749   -0.005139857   -0.005433802
     12        1           0.009782054   -0.004026115   -0.003636694
     13        1          -0.006349377   -0.005152004   -0.007415474
     14        1          -0.001540434   -0.002190243    0.008720275
     15        1          -0.001412784   -0.004207903    0.010472515
     16        1           0.010517804   -0.001429648   -0.000899872
     17        1          -0.001040991    0.011018827   -0.001515920
     18        1          -0.002050307    0.009848787   -0.021954867
     19        1          -0.020438971    0.000320728    0.006828359
     20        1          -0.005880258   -0.025353708    0.003488233
     21        1          -0.024498907    0.007121040    0.006353635
 -------------------------------------------------------------------
 Cartesian Forces:  Max     0.025353708 RMS     0.009330277
 Leave Link  716 at Fri Aug 26 12:09:40 2022, MaxMem= 24159191040 cpu:         0.6
 (Enter /public/home/users/caep010/software/Gaussian09/g09/l103.exe)

 GradGradGradGradGradGradGradGradGradGradGradGradGradGradGradGradGradGrad
 Berny optimization.
 FormGI is forming the generalized inverse of G from B-inverse, IUseBI=4.
 Internal  Forces:  Max     0.026187635 RMS     0.006613958
 Search for a local minimum.
 Step number   1 out of a maximum of  113
 All quantities printed in internal units (Hartrees-Bohrs-Radians)
 RMS Force = .66140D-02 SwitMx=.10000D-02 MixMth= 1
 Mixed Optimization -- RFO/linear search
 Second derivative matrix not updated -- first step.
 ITU=  0
     Eigenvalues ---    0.00230   0.00230   0.00230   0.00230   0.00716
     Eigenvalues ---    0.01526   0.01579   0.04448   0.04540   0.04607
     Eigenvalues ---    0.05171   0.05373   0.05381   0.05427   0.05478
     Eigenvalues ---    0.05492   0.05499   0.06091   0.06993   0.09494
     Eigenvalues ---    0.14311   0.14439   0.16000   0.16000   0.16000
     Eigenvalues ---    0.16000   0.16000   0.16000   0.16000   0.16000
     Eigenvalues ---    0.16000   0.16000   0.16000   0.16000   0.16000
     Eigenvalues ---    0.17923   0.18994   0.25790   0.27876   0.27951
     Eigenvalues ---    0.27977   0.32413   0.32419   0.32419   0.32487
     Eigenvalues ---    0.32496   0.32516   0.32525   0.32565   0.32578
     Eigenvalues ---    0.35294   0.40393   0.40496   0.43605   0.44235
     Eigenvalues ---    0.48926   0.49038
 RFO step:  Lambda=-1.48030797D-02 EMin= 2.30000000D-03
 Linear search not attempted -- first point.
 Iteration  1 RMS(Cart)=  0.05177890 RMS(Int)=  0.00105690
 Iteration  2 RMS(Cart)=  0.00158883 RMS(Int)=  0.00030082
 Iteration  3 RMS(Cart)=  0.00000122 RMS(Int)=  0.00030082
 Iteration  4 RMS(Cart)=  0.00000000 RMS(Int)=  0.00030082
 ITry= 1 IFail=0 DXMaxC= 2.62D-01 DCOld= 1.00D+10 DXMaxT= 3.00D-01 DXLimC= 3.00D+00 Rises=F
 Variable       Old X    -DE/DX   Delta X   Delta X   Delta X     New X
                                 (Linear)    (Quad)   (Total)
    R1        2.92410  -0.00273   0.00000  -0.00932  -0.00932   2.91478
    R2        2.10094  -0.01077   0.00000  -0.03178  -0.03178   2.06917
    R3        2.09911  -0.01097   0.00000  -0.03226  -0.03226   2.06685
    R4        2.09799  -0.00908   0.00000  -0.02667  -0.02667   2.07132
    R5        2.92245  -0.00433   0.00000  -0.01473  -0.01473   2.90772
    R6        2.92189  -0.00343   0.00000  -0.01164  -0.01164   2.91025
    R7        2.97240  -0.00936   0.00000  -0.03434  -0.03434   2.93806
    R8        2.10084  -0.01103   0.00000  -0.03255  -0.03255   2.06829
    R9        2.09894  -0.01100   0.00000  -0.03234  -0.03234   2.06661
   R10        2.09823  -0.00908   0.00000  -0.02667  -0.02667   2.07156
   R11        2.09945  -0.01131   0.00000  -0.03330  -0.03330   2.06615
   R12        2.10084  -0.01053   0.00000  -0.03105  -0.03105   2.06979
   R13        2.09962  -0.01113   0.00000  -0.03278  -0.03278   2.06684
   R14        2.78501  -0.00632   0.00000  -0.01717  -0.01717   2.76784
   R15        2.66930  -0.00393   0.00000  -0.00872  -0.00872   2.66058
   R16        2.66174  -0.00347   0.00000  -0.00759  -0.00759   2.65415
   R17        1.97585  -0.02404   0.00000  -0.05728  -0.05728   1.91858
   R18        1.97723  -0.02147   0.00000  -0.05127  -0.05127   1.92597
   R19        1.87549  -0.02611   0.00000  -0.05168  -0.05168   1.82381
   R20        1.87665  -0.02619   0.00000  -0.05195  -0.05195   1.82469
    A1        1.93091  -0.00161   0.00000  -0.00995  -0.00994   1.92098
    A2        1.93909   0.00032   0.00000   0.00248   0.00247   1.94156
    A3        1.94160   0.00164   0.00000   0.00945   0.00945   1.95105
    A4        1.88113   0.00066   0.00000   0.00367   0.00367   1.88480
    A5        1.87273  -0.00018   0.00000  -0.00230  -0.00227   1.87046
    A6        1.89599  -0.00086   0.00000  -0.00361  -0.00363   1.89236
    A7        1.89025   0.00116   0.00000   0.01845   0.01791   1.90816
    A8        1.88810   0.00086   0.00000   0.01799   0.01749   1.90559
    A9        1.93573  -0.00036   0.00000  -0.01117  -0.01095   1.92478
   A10        1.89183   0.00177   0.00000   0.02054   0.01992   1.91176
   A11        1.93892  -0.00190   0.00000  -0.02403  -0.02384   1.91508
   A12        1.91764  -0.00138   0.00000  -0.01947  -0.01926   1.89837
   A13        1.92967  -0.00255   0.00000  -0.01562  -0.01560   1.91407
   A14        1.93793   0.00095   0.00000   0.00751   0.00751   1.94544
   A15        1.94190   0.00134   0.00000   0.00657   0.00655   1.94845
   A16        1.88191   0.00116   0.00000   0.00872   0.00876   1.89066
   A17        1.87492   0.00005   0.00000  -0.00372  -0.00373   1.87119
   A18        1.89524  -0.00095   0.00000  -0.00358  -0.00362   1.89162
   A19        1.93760   0.00054   0.00000   0.00297   0.00297   1.94057
   A20        1.93287  -0.00241   0.00000  -0.01311  -0.01309   1.91977
   A21        1.93570   0.00096   0.00000   0.00496   0.00497   1.94067
   A22        1.88084   0.00112   0.00000   0.00742   0.00743   1.88827
   A23        1.89100  -0.00098   0.00000  -0.00681  -0.00681   1.88419
   A24        1.88385   0.00079   0.00000   0.00479   0.00481   1.88866
   A25        1.93243  -0.00103   0.00000   0.00381   0.00414   1.93657
   A26        1.91708   0.00985   0.00000   0.03439   0.03391   1.95099
   A27        1.90309  -0.01051   0.00000  -0.05011  -0.05063   1.85246
   A28        1.91591  -0.00912   0.00000  -0.05086  -0.05033   1.86558
   A29        1.90569   0.01393   0.00000   0.09207   0.09246   1.99815
   A30        1.88902  -0.00314   0.00000  -0.02963  -0.02864   1.86038
   A31        1.90753  -0.00353   0.00000  -0.02358  -0.02376   1.88377
   A32        1.89690  -0.00259   0.00000  -0.01829  -0.01847   1.87842
   A33        1.84805   0.00181   0.00000   0.00287   0.00243   1.85047
   A34        1.88955  -0.00511   0.00000  -0.02926  -0.02926   1.86029
   A35        1.87219  -0.00367   0.00000  -0.02099  -0.02099   1.85119
    D1        1.08415   0.00161   0.00000   0.02226   0.02232   1.10646
    D2       -0.96291  -0.00158   0.00000  -0.02176  -0.02183  -0.98474
    D3       -3.06712  -0.00022   0.00000  -0.00249  -0.00251  -3.06963
    D4       -3.11034   0.00159   0.00000   0.02193   0.02199  -3.08835
    D5        1.12579  -0.00160   0.00000  -0.02209  -0.02215   1.10364
    D6       -0.97842  -0.00024   0.00000  -0.00282  -0.00283  -0.98126
    D7       -0.99566   0.00183   0.00000   0.02553   0.02561  -0.97005
    D8       -3.04272  -0.00135   0.00000  -0.01849  -0.01853  -3.06125
    D9        1.13626   0.00001   0.00000   0.00078   0.00079   1.13704
   D10       -0.96560  -0.00155   0.00000  -0.02589  -0.02600  -0.99160
   D11        1.12252  -0.00116   0.00000  -0.02032  -0.02046   1.10205
   D12       -3.04753  -0.00081   0.00000  -0.01522  -0.01534  -3.06287
   D13        1.07906   0.00106   0.00000   0.01659   0.01675   1.09581
   D14       -3.11601   0.00145   0.00000   0.02216   0.02228  -3.09373
   D15       -1.00287   0.00180   0.00000   0.02726   0.02741  -0.97546
   D16       -3.09556  -0.00067   0.00000  -0.00902  -0.00903  -3.10459
   D17       -1.00745  -0.00028   0.00000  -0.00345  -0.00349  -1.01094
   D18        1.10569   0.00007   0.00000   0.00164   0.00163   1.10732
   D19        3.11438   0.00137   0.00000   0.02441   0.02451   3.13890
   D20        1.02573   0.00119   0.00000   0.02178   0.02188   1.04761
   D21       -1.06546   0.00114   0.00000   0.02113   0.02123  -1.04423
   D22        1.06835  -0.00142   0.00000  -0.01830  -0.01843   1.04992
   D23       -1.02031  -0.00161   0.00000  -0.02094  -0.02106  -1.04137
   D24       -3.11150  -0.00165   0.00000  -0.02159  -0.02171  -3.13321
   D25       -1.05334   0.00064   0.00000   0.01020   0.01022  -1.04312
   D26        3.14119   0.00046   0.00000   0.00757   0.00759  -3.13441
   D27        1.05000   0.00041   0.00000   0.00692   0.00694   1.05694
   D28       -1.08445  -0.00455   0.00000  -0.00519  -0.00498  -1.08944
   D29        3.07990   0.00102   0.00000   0.03325   0.03313   3.11304
   D30        1.01256   0.00532   0.00000   0.07895   0.07879   1.09135
   D31        1.01884  -0.00460   0.00000  -0.00550  -0.00533   1.01351
   D32       -1.09999   0.00097   0.00000   0.03293   0.03279  -1.06721
   D33        3.11585   0.00527   0.00000   0.07864   0.07844  -3.08890
   D34        3.11212  -0.00451   0.00000  -0.00795  -0.00764   3.10448
   D35        0.99329   0.00106   0.00000   0.03048   0.03048   1.02377
   D36       -1.07405   0.00536   0.00000   0.07619   0.07613  -0.99792
   D37        1.33764  -0.00330   0.00000  -0.01410  -0.01372   1.32392
   D38       -2.93632  -0.00446   0.00000  -0.03334  -0.03271  -2.96903
   D39       -2.82602   0.00232   0.00000  -0.00227  -0.00195  -2.82798
   D40       -0.81680   0.00116   0.00000  -0.02151  -0.02094  -0.83774
   D41       -0.75782   0.00143   0.00000  -0.01330  -0.01437  -0.77219
   D42        1.25141   0.00027   0.00000  -0.03254  -0.03336   1.21805
   D43        1.40613   0.00227   0.00000   0.00319   0.00327   1.40940
   D44       -0.72257   0.00308   0.00000   0.00917   0.00977  -0.71280
   D45       -2.80104  -0.00663   0.00000  -0.05521  -0.05589  -2.85693
   D46        3.05524   0.00028   0.00000  -0.03721  -0.03612   3.01912
   D47       -1.11453   0.00110   0.00000  -0.00691  -0.00721  -1.12174
   D48        0.97040  -0.00372   0.00000  -0.03261  -0.03339   0.93700
         Item               Value     Threshold  Converged?
 Maximum Force            0.026188     0.000450     NO 
 RMS     Force            0.006614     0.000300     NO 
 Maximum Displacement     0.261753     0.001800     NO 
 RMS     Displacement     0.051735     0.001200     NO 
 Predicted change in Energy=-8.017125D-03
 Lowest energy point so far.  Saving SCF results.
 GradGradGradGradGradGradGradGradGradGradGradGradGradGradGradGradGradGrad

 Leave Link  103 at Fri Aug 26 12:09:41 2022, MaxMem= 24159191040 cpu:         4.0
 (Enter /public/home/users/caep010/software/Gaussian09/g09/l202.exe)
                          Input orientation:                          
 ---------------------------------------------------------------------
 Center     Atomic      Atomic             Coordinates (Angstroms)
 Number     Number       Type             X           Y           Z
 ---------------------------------------------------------------------
      1          6           0       -0.825114   -0.410748    1.474728
      2          6           0       -0.492137    0.042875    0.038602
      3          6           0       -0.719335    1.559932   -0.081898
      4          6           0       -1.411834   -0.695823   -0.951447
      5          6           0        0.986172   -0.295215   -0.304269
      6          7           0        1.906579    0.424133    0.579284
      7          8           0        1.313888    0.072592   -1.623189
      8          8           0        1.091661   -1.694290   -0.240085
      9          1           0       -1.885318   -0.237953    1.686943
     10          1           0       -0.622838   -1.477008    1.610453
     11          1           0       -0.250244    0.148734    2.221674
     12          1           0       -1.750045    1.801288    0.196132
     13          1           0       -0.046298    2.118758    0.574376
     14          1           0       -0.570019    1.910639   -1.109718
     15          1           0       -1.204845   -0.395779   -1.982254
     16          1           0       -2.459951   -0.465515   -0.732216
     17          1           0       -1.278204   -1.779149   -0.882302
     18          1           0        1.896543   -0.037284    1.483585
     19          1           0        2.848588    0.300064    0.210570
     20          1           0        1.496565    1.020136   -1.607655
     21          1           0        1.976186   -1.910586   -0.561315
 ---------------------------------------------------------------------
                    Distance matrix (angstroms):
                    1          2          3          4          5
     1  C    0.000000
     2  C    1.542435   0.000000
     3  C    2.513534   1.538701   0.000000
     4  C    2.512337   1.540037   2.514777   0.000000
     5  C    2.541443   1.554755   2.529777   2.515901   0.000000
     6  N    2.993492   2.488279   2.936431   3.822212   1.464676
     7  O    3.795529   2.454416   2.953261   2.910544   1.407918
     8  O    2.874385   2.367240   3.727558   2.787555   1.404513
     9  H    1.094955   2.176430   2.778616   2.719363   3.494805
    10  H    1.093731   2.190398   3.477983   2.792149   2.766172
    11  H    1.096095   2.198982   2.741892   3.482997   2.847139
    12  H    2.717243   2.167756   1.094494   2.768914   3.483189
    13  H    2.795638   2.189776   1.093601   3.480617   2.768624
    14  H    3.483285   2.193911   1.096222   2.743601   2.817139
    15  H    3.477808   2.187288   2.769816   1.093359   2.761576
    16  H    2.747052   2.173686   2.748653   1.095286   3.476766
    17  H    2.762862   2.187633   3.478857   1.093725   2.768318
    18  H    2.747174   2.792882   3.441606   4.160338   2.022801
    19  H    3.949612   3.355021   3.795113   4.526950   2.021883
    20  H    4.115667   2.760460   2.743999   3.440046   1.920799
    21  H    3.773893   3.204455   4.420426   3.620295   1.911969
                    6          7          8          9         10
     6  N    0.000000
     7  O    2.307758   0.000000
     8  O    2.413124   2.254825   0.000000
     9  H    4.005465   4.613929   3.833636   0.000000
    10  H    3.328002   4.075367   2.532037   1.770583   0.000000
    11  H    2.724917   4.151540   3.355250   1.763217   1.776360
    12  H    3.926100   3.960556   4.525997   2.529687   3.744078
    13  H    2.585635   3.296391   4.061728   3.189653   3.786210
    14  H    3.346037   2.681637   4.063614   3.764010   4.344913
    15  H    4.112747   2.586951   3.161522   3.735098   3.796753
    16  H    4.645222   3.914748   3.790254   2.496861   3.144232
    17  H    4.139267   3.270597   2.456809   3.056943   2.595116
    18  H    1.015267   3.162848   2.522804   3.792637   2.904510
    19  H    1.019178   2.402024   2.695798   4.987886   4.143484
    20  H    2.303483   0.965117   3.066318   4.886134   4.591712
    21  H    2.599370   2.345040   0.965587   4.771120   3.414601
                   11         12         13         14         15
    11  H    0.000000
    12  H    3.013829   0.000000
    13  H    2.576079   1.773869   0.000000
    14  H    3.782161   1.763423   1.775886   0.000000
    15  H    4.345201   3.141610   3.768486   2.546348   0.000000
    16  H    3.739729   2.550331   3.769798   3.059487   1.772780
    17  H    3.795801   3.768976   4.339722   3.764012   1.768894
    18  H    2.277733   4.281996   3.041350   4.074746   4.664672
    19  H    3.697323   4.837490   3.438076   4.002998   4.660793
    20  H    4.298191   3.795303   2.889404   2.304715   3.072907
    21  H    4.116165   5.313806   4.649285   4.624464   3.799035
                   16         17         18         19         20
    16  H    0.000000
    17  H    1.773326   0.000000
    18  H    4.906342   4.325568   0.000000
    19  H    5.445690   4.748465   1.625042   0.000000
    20  H    4.315967   4.007678   3.291487   2.377481   0.000000
    21  H    4.668699   3.272823   2.774387   2.498773   3.148650
                   21
    21  H    0.000000
 Stoichiometry    C5H13NO2
 Framework group  C1[X(C5H13NO2)]
 Deg. of freedom    57
 Full point group                 C1      NOp   1
 RotChk:  IX=1 Diff= 1.78D+00
 Largest Abelian subgroup         C1      NOp   1
 Largest concise Abelian subgroup C1      NOp   1
                         Standard orientation:                         
 ---------------------------------------------------------------------
 Center     Atomic      Atomic             Coordinates (Angstroms)
 Number     Number       Type             X           Y           Z
 ---------------------------------------------------------------------
      1          6           0        1.310984    0.169944   -1.434234
      2          6           0        0.770082    0.027319    0.003191
      3          6           0        1.231160    1.231575    0.842699
      4          6           0        1.316889   -1.272120    0.623011
      5          6           0       -0.783182   -0.039546   -0.009623
      6          7           0       -1.356389    1.197365   -0.545123
      7          8           0       -1.309631   -0.207242    1.285352
      8          8           0       -1.118171   -1.196713   -0.731707
      9          1           0        2.405592    0.143029   -1.428090
     10          1           0        0.956642   -0.643676   -2.073538
     11          1           0        1.013275    1.122094   -1.888329
     12          1           0        2.323285    1.299887    0.820070
     13          1           0        0.819934    2.168861    0.457535
     14          1           0        0.934230    1.129558    1.892998
     15          1           0        0.954921   -1.404714    1.646159
     16          1           0        2.411491   -1.243147    0.648638
     17          1           0        1.011612   -2.146605    0.041363
     18          1           0       -1.238821    1.185441   -1.553490
     19          1           0       -2.361491    1.169060   -0.378710
     20          1           0       -1.314803    0.666188    1.695894
     21          1           0       -2.074324   -1.298932   -0.644069
 ---------------------------------------------------------------------
 Rotational constants (GHZ):      2.4695179      1.7831609      1.7601265
 Leave Link  202 at Fri Aug 26 12:09:41 2022, MaxMem= 24159191040 cpu:         0.3
 (Enter /public/home/users/caep010/software/Gaussian09/g09/l301.exe)
 Standard basis: GTBas3 (6D, 7F)
 Ernie: Thresh=  0.10000D-02 Tol=  0.10000D-05 Strict=F.
 There are   313 symmetry adapted cartesian basis functions of A   symmetry.
 There are   289 symmetry adapted basis functions of A   symmetry.
   289 basis functions,   443 primitive gaussians,   313 cartesian basis functions
    33 alpha electrons       33 beta electrons
       nuclear repulsion energy       448.3520078344 Hartrees.
 IExCor=  402 DFT=T Ex+Corr=B3LYP ExCW=0 ScaHFX=  0.200000
 ScaDFX=  0.800000  0.720000  1.000000  0.810000 ScalE2=  1.000000  1.000000
 IRadAn=      0 IRanWt=     -1 IRanGd=            0 ICorTp=0 IEmpDi=  4
 NAtoms=   21 NActive=   21 NUniq=   21 SFac= 1.00D+00 NAtFMM=   60 NAOKFM=F Big=F
 Integral buffers will be    131072 words long.
 Raffenetti 2 integral format.
 Two-electron integral symmetry is turned on.
 Leave Link  301 at Fri Aug 26 12:09:41 2022, MaxMem= 24159191040 cpu:         1.8
 (Enter /public/home/users/caep010/software/Gaussian09/g09/l302.exe)
 NPDir=0 NMtPBC=     1 NCelOv=     1 NCel=       1 NClECP=     1 NCelD=      1
         NCelK=      1 NCelE2=     1 NClLst=     1 CellRange=     0.0.
 One-electron integrals computed using PRISM.
 NBasis=   289 RedAO= T EigKep=  3.70D-04  NBF=   289
 NBsUse=   289 1.00D-06 EigRej= -1.00D+00 NBFU=   289
 Precomputing XC quadrature grid using
 IXCGrd= 4 IRadAn=           0 IRanWt=          -1 IRanGd=           0 AccXCQ= 0.00D+00.
 Generated NRdTot=       0 NPtTot=           0 NUsed=           0 NTot=          32
 NSgBfM=   313   313   313   313   313 MxSgAt=    21 MxSgA2=    21.
 Leave Link  302 at Fri Aug 26 12:09:41 2022, MaxMem= 24159191040 cpu:        16.1
 (Enter /public/home/users/caep010/software/Gaussian09/g09/l303.exe)
 DipDrv:  MaxL=1.
 Leave Link  303 at Fri Aug 26 12:09:41 2022, MaxMem= 24159191040 cpu:         0.9
 (Enter /public/home/users/caep010/software/Gaussian09/g09/l401.exe)
 Initial guess from the checkpoint file:  "G4.Frag_631.chk"
 B after Tr=     0.000000   -0.000000   -0.000000
         Rot=    0.774164    0.632551    0.021778    0.008644 Ang=  78.54 deg.
 Guess basis will be translated and rotated to current coordinates.
 JPrj=2 DoOrth=T DoCkMO=T.
 Generating alternative initial guess.
 ExpMin= 1.61D-01 ExpMax= 5.48D+03 ExpMxC= 8.25D+02 IAcc=1 IRadAn=         1 AccDes= 0.00D+00
 Harris functional with IExCor=  402 and IRadAn=       1 diagonalized for initial guess.
 HarFok:  IExCor=  402 AccDes= 0.00D+00 IRadAn=         1 IDoV= 1 UseB2=F ITyADJ=14
 ICtDFT=  3500011 ScaDFX=  1.000000  1.000000  1.000000  1.000000
 FoFCou: FMM=F IPFlag=           0 FMFlag=      100000 FMFlg1=           0
         NFxFlg=           0 DoJE=T BraDBF=F KetDBF=T FulRan=T
         wScrn=  0.000000 ICntrl=     500 IOpCl=  0 I1Cent=   200000004 NGrid=           0
         NMat0=    1 NMatS0=      1 NMatT0=    0 NMatD0=    1 NMtDS0=    0 NMtDT0=    0
 Petite list used in FoFCou.
 Harris En= -403.672143864467    
 Leave Link  401 at Fri Aug 26 12:09:42 2022, MaxMem= 24159191040 cpu:        21.9
 (Enter /public/home/users/caep010/software/Gaussian09/g09/l502.exe)
 Closed shell SCF:
 Using DIIS extrapolation, IDIIS=  1040.
 Integral symmetry usage will be decided dynamically.
 Keep R1 ints in memory in canonical form, NReq=893839649.
 IVT=      324769 IEndB=      324769 NGot= 24159191040 MDV= 23280830807
 LenX= 23280830807 LenY= 23280732397
 Requested convergence on RMS density matrix=1.00D-08 within 128 cycles.
 Requested convergence on MAX density matrix=1.00D-06.
 Requested convergence on             energy=1.00D-06.
 No special actions if energy rises.
 FoFCou: FMM=F IPFlag=           0 FMFlag=           0 FMFlg1=           0
         NFxFlg=           0 DoJE=F BraDBF=F KetDBF=F FulRan=T
         wScrn=  0.000000 ICntrl=     600 IOpCl=  0 I1Cent=           0 NGrid=           0
         NMat0=    1 NMatS0=  41905 NMatT0=    0 NMatD0=    1 NMtDS0=    0 NMtDT0=    0
 Symmetry not used in FoFCou.
 Integral accuracy reduced to 1.0D-05 until final iterations.

 Cycle   1  Pass 0  IDiag  1:
 E= -403.593679518883    
 DIIS: error= 1.51D-03 at cycle   1 NSaved=   1.
 NSaved= 1 IEnMin= 1 EnMin= -403.593679518883     IErMin= 1 ErrMin= 1.51D-03
 ErrMax= 1.51D-03  0.00D+00 EMaxC= 1.00D-01 BMatC= 3.90D-03 BMatP= 3.90D-03
 IDIUse=3 WtCom= 9.85D-01 WtEn= 1.51D-02
 Coeff-Com:  0.100D+01
 Coeff-En:   0.100D+01
 Coeff:      0.100D+01
 Gap=     0.989 Goal=   None    Shift=    0.000
 GapD=    0.989 DampG=2.000 DampE=1.000 DampFc=2.0000 IDamp=-1.
 RMSDP=4.19D-04 MaxDP=1.45D-02              OVMax= 1.87D-02

 Cycle   2  Pass 0  IDiag  1:
 E= -403.598463023751     Delta-E=       -0.004783504869 Rises=F Damp=F
 DIIS: error= 7.66D-04 at cycle   2 NSaved=   2.
 NSaved= 2 IEnMin= 2 EnMin= -403.598463023751     IErMin= 2 ErrMin= 7.66D-04
 ErrMax= 7.66D-04  0.00D+00 EMaxC= 1.00D-01 BMatC= 3.56D-04 BMatP= 3.90D-03
 IDIUse=3 WtCom= 9.92D-01 WtEn= 7.66D-03
 Coeff-Com:  0.977D-01 0.902D+00
 Coeff-En:   0.000D+00 0.100D+01
 Coeff:      0.969D-01 0.903D+00
 Gap=     0.312 Goal=   None    Shift=    0.000
 RMSDP=1.30D-04 MaxDP=5.57D-03 DE=-4.78D-03 OVMax= 5.91D-03

 Cycle   3  Pass 0  IDiag  1:
 E= -403.598494592662     Delta-E=       -0.000031568911 Rises=F Damp=F
 DIIS: error= 7.79D-04 at cycle   3 NSaved=   3.
 NSaved= 3 IEnMin= 3 EnMin= -403.598494592662     IErMin= 2 ErrMin= 7.66D-04
 ErrMax= 7.79D-04  0.00D+00 EMaxC= 1.00D-01 BMatC= 3.35D-04 BMatP= 3.56D-04
 IDIUse=3 WtCom= 9.92D-01 WtEn= 7.79D-03
 Coeff-Com: -0.197D-01 0.497D+00 0.523D+00
 Coeff-En:   0.000D+00 0.476D+00 0.524D+00
 Coeff:     -0.195D-01 0.497D+00 0.523D+00
 Gap=     0.315 Goal=   None    Shift=    0.000
 RMSDP=6.83D-05 MaxDP=3.24D-03 DE=-3.16D-05 OVMax= 3.23D-03

 Cycle   4  Pass 0  IDiag  1:
 E= -403.598802884607     Delta-E=       -0.000308291944 Rises=F Damp=F
 DIIS: error= 7.77D-05 at cycle   4 NSaved=   4.
 NSaved= 4 IEnMin= 4 EnMin= -403.598802884607     IErMin= 4 ErrMin= 7.77D-05
 ErrMax= 7.77D-05  0.00D+00 EMaxC= 1.00D-01 BMatC= 5.97D-06 BMatP= 3.35D-04
 IDIUse=1 WtCom= 1.00D+00 WtEn= 0.00D+00
 Coeff-Com: -0.107D-01 0.154D+00 0.199D+00 0.658D+00
 Coeff:     -0.107D-01 0.154D+00 0.199D+00 0.658D+00
 Gap=     0.314 Goal=   None    Shift=    0.000
 RMSDP=1.05D-05 MaxDP=5.19D-04 DE=-3.08D-04 OVMax= 6.73D-04

 Cycle   5  Pass 0  IDiag  1:
 E= -403.598806543278     Delta-E=       -0.000003658672 Rises=F Damp=F
 DIIS: error= 4.65D-05 at cycle   5 NSaved=   5.
 NSaved= 5 IEnMin= 5 EnMin= -403.598806543278     IErMin= 5 ErrMin= 4.65D-05
 ErrMax= 4.65D-05  0.00D+00 EMaxC= 1.00D-01 BMatC= 1.62D-06 BMatP= 5.97D-06
 IDIUse=1 WtCom= 1.00D+00 WtEn= 0.00D+00
 Coeff-Com: -0.407D-02 0.367D-01 0.598D-01 0.376D+00 0.532D+00
 Coeff:     -0.407D-02 0.367D-01 0.598D-01 0.376D+00 0.532D+00
 Gap=     0.315 Goal=   None    Shift=    0.000
 RMSDP=4.00D-06 MaxDP=1.96D-04 DE=-3.66D-06 OVMax= 2.28D-04

 Initial convergence to 1.0D-05 achieved.  Increase integral accuracy.
 Cycle   6  Pass 1  IDiag  1:
 E= -403.598862799593     Delta-E=       -0.000056256315 Rises=F Damp=F
 DIIS: error= 2.21D-05 at cycle   1 NSaved=   1.
 NSaved= 1 IEnMin= 1 EnMin= -403.598862799593     IErMin= 1 ErrMin= 2.21D-05
 ErrMax= 2.21D-05  0.00D+00 EMaxC= 1.00D-01 BMatC= 2.15D-07 BMatP= 2.15D-07
 IDIUse=1 WtCom= 1.00D+00 WtEn= 0.00D+00
[...]
 8656,0.06619370,0.06402035,-0.29347723,0.03072343,0.00112253,-0.009967
 48,0.00109826,-0.00075926,0.00069124,0.00265233,-0.00011908,0.00037390
 ,-0.00053950,0.00117100,-0.00183311,0.00038921,-0.00029015,0.00056421,
 -0.00007505,-0.00032715,0.00036412,-0.00015193,0.00113728,0.00034630,-
 0.00146718,-0.00003283,-0.00140858,-0.00027164,-0.07110427,0.31928500,
 -0.00895564,0.02823426,-0.05092001,-0.00835417,0.02933869,-0.00266311,
 0.00165998,0.00069496,-0.00626544,0.00017333,0.00105874,0.00149906,-0.
 00057358,0.00234417,0.00115131,0.00005259,-0.00053354,-0.00012234,-0.0
 0021546,-0.00068287,0.00031257,0.00059190,-0.00070154,-0.00019314,0.00
 079119,-0.00507754,-0.00026347,0.00833931,-0.03442558,0.05503775,-0.10
 526438,-0.06800153,-0.08338462,0.00254443,0.00462061,0.00450856,0.0002
 0745,0.00004648,-0.00018309,0.00019993,0.00009708,0.00054984,0.0000373
 2,0.00060052,-0.00018724,-0.00105609,-0.00007478,0.00058286,0.00020152
 ,-0.00006190,-0.00019594,-0.00001971,0.00001113,0.00011369,-0.01524117
 ,-0.01884510,-0.02193282,0.00388997,0.00471296,0.00679447,0.11571908,-
 0.06867416,-0.12701160,-0.09680713,0.00595898,0.00431451,0.00647960,0.
 00066766,0.00110104,0.00046487,-0.00018059,-0.00026725,0.00199849,-0.0
 0114055,-0.00064086,-0.00114528,-0.00039618,0.00022076,0.00031584,0.00
 046320,0.00007975,0.00013985,0.00046613,0.00027385,-0.00006967,0.00184
 222,0.00131683,0.00267500,-0.01667368,-0.01522996,-0.02075210,0.077183
 08,0.13416507,-0.08276130,-0.09542537,-0.16447218,-0.01597934,-0.01725
 170,-0.01895911,-0.00043812,-0.00180424,0.00126265,0.00316603,0.003121
 01,-0.00565295,-0.00292974,-0.00123738,-0.00084283,-0.00005782,0.00051
 329,0.00047073,0.00070769,0.00030699,0.00046764,0.00056108,0.00041862,
 0.00026164,0.00219268,0.00306924,0.00336483,0.00263998,0.00220952,0.00
 268190,0.09179184,0.10592710,0.18147207,0.00025359,-0.00069282,0.00019
 464,-0.00648650,0.00082218,0.00117169,-0.28400847,0.04929669,0.0576398
 7,0.00035242,-0.00087207,-0.00018752,0.00114667,-0.00033823,-0.0007834
 8,-0.00067251,0.00051758,0.00025180,0.00004764,0.00008273,0.00001896,-
 0.00006294,0.00070945,0.00027560,0.00050947,0.00038182,-0.00054335,0.0
 0031006,-0.00001388,-0.00008131,-0.00012926,0.00009299,-0.00003925,0.3
 0906602,0.00061973,0.00160489,-0.00099498,0.03244312,-0.00839553,-0.00
 791879,0.04768719,-0.05526188,-0.01189156,0.00144790,0.00147660,0.0003
 5313,-0.00333995,-0.00557802,0.00167456,-0.00006892,0.00079809,-0.0001
 0083,-0.00020866,0.00058806,-0.00018326,0.00222444,-0.00153976,-0.0010
 3546,-0.00059718,-0.00018783,0.00057398,-0.00025914,0.00019033,-0.0003
 2905,-0.00011245,-0.00003558,0.00016710,-0.05449511,0.06262933,-0.0007
 9878,0.00009487,0.00042328,-0.00341142,0.00100678,-0.00045028,0.057667
 80,-0.01249351,-0.06013165,0.00068819,-0.00011859,-0.00017420,-0.00003
 916,0.00086441,-0.00154103,-0.00063459,0.00040329,0.00052268,0.0006928
 7,-0.00099028,0.00082492,-0.00013299,-0.00001881,0.00034292,0.00011394
 ,0.00022271,0.00027754,0.00002346,-0.00018030,-0.00003442,-0.00014441,
 -0.00002012,-0.00005122,-0.06336387,0.01268473,0.06146286,-0.00019288,
 -0.00013557,-0.00007724,0.00327296,0.00309063,0.00426990,-0.14119786,-
 0.08372775,-0.09855683,-0.00001783,0.00099513,0.00026840,0.00064283,0.
 00009689,0.00086415,-0.00183619,0.00132963,-0.00046058,-0.00026815,-0.
 00005916,-0.00017770,0.00013152,-0.00042400,-0.00027292,-0.00000584,-0
 .00004427,-0.00010113,0.00007474,0.00009395,0.00019747,0.00028658,-0.0
 0016332,0.00033177,-0.01700895,-0.01544019,-0.01932422,0.15162586,-0.0
 0039398,0.00133577,-0.00175075,-0.01999524,-0.01536641,-0.02028711,-0.
 08109414,-0.11707485,-0.08237688,0.00241502,-0.00663201,0.00189274,-0.
 00247859,-0.00046629,-0.00111069,-0.00002140,0.00058102,0.00074866,0.0
 0052287,0.00022907,0.00021647,0.00043647,0.00067215,0.00050080,0.00007
 321,-0.00002034,0.00008255,0.00035497,0.00029956,0.00006976,0.00022788
 ,0.00004030,0.00119077,0.00390653,0.00314822,0.00492732,0.08995941,0.1
 2910595,0.00069729,0.00034722,0.00093929,0.00283404,0.00128482,0.00027
 018,-0.09710266,-0.08380709,-0.14823123,0.00045351,0.00030421,0.000647
 44,-0.00165658,-0.00103845,-0.00045980,-0.00078162,0.00121361,0.000409
 29,0.00064540,-0.00021246,0.00023047,0.00043985,0.00026557,0.00005782,
 0.00003914,0.00008973,-0.00001877,0.00001161,-0.00012763,0.00008694,-0
 .00010211,0.00012970,0.00010116,0.00537521,0.00526261,0.00508239,0.108
 54624,0.09144076,0.15807598,-0.00010209,0.00083132,-0.00011086,-0.0002
 3901,0.00114396,-0.00553705,-0.05354474,-0.01353398,0.03923958,-0.0000
 0702,-0.00023594,0.00046719,0.00027352,0.00033259,-0.00142965,-0.00004
 586,-0.00001835,0.00039178,-0.00038048,-0.00010057,0.00068420,0.000025
 92,-0.00034336,0.00022605,0.00031343,0.00023151,-0.00027747,0.00063679
 ,0.00022239,-0.00015971,-0.00002843,0.00004670,0.00030124,-0.00443005,
 -0.00960161,0.02978215,0.00354416,0.00682578,-0.01896299,0.05500113,0.
 00207727,-0.00691244,-0.00092374,-0.00633497,-0.00939313,0.03059152,-0
 .01324101,-0.06964414,0.07161797,0.00019529,0.00171331,0.00143423,-0.0
 0122066,0.00006323,0.00261678,0.00021205,-0.00004649,-0.00044793,-0.00
 061869,0.00132983,-0.00148069,-0.00006139,0.00037594,-0.00040015,-0.00
 007865,0.00009567,-0.00025979,-0.00052334,-0.00065796,0.00226333,0.000
 24102,0.00017598,-0.00001403,0.00050529,0.00127901,-0.00623390,0.00391
 205,0.00509644,-0.01563808,0.01369582,0.07686983,-0.00059128,0.0010928
 9,0.00109013,-0.00036582,0.00078866,-0.00315795,0.03935557,0.07419986,
 -0.27759537,-0.00017246,-0.00061479,0.00055627,0.00136389,0.00074584,-
 0.00190872,-0.00035600,-0.00010009,0.00052760,0.00138067,-0.00178631,0
 .00086684,-0.00041786,-0.00003573,0.00038640,0.00002070,-0.00017848,0.
 00005150,0.00025665,0.00020122,-0.00013998,0.00010731,-0.00016984,0.00
 037896,0.00053311,0.00149655,-0.00660097,0.00439185,0.00585677,-0.0174
 1450,-0.04486127,-0.08192435,0.30186243,-0.00284681,-0.00228621,-0.002
 10671,0.00423570,0.00564736,-0.01882514,0.00021891,0.00082893,0.000257
 12,-0.05946643,-0.01531877,0.05911616,0.00106601,0.00092169,-0.0020334
 8,0.00017064,0.00000531,0.00060441,-0.00159505,-0.00053460,0.00056617,
 -0.00020790,-0.00011358,0.00066570,0.00029191,-0.00015420,-0.00013950,
 -0.00002030,-0.00007885,0.00020390,0.00054241,0.00018455,-0.00150109,-
 0.00002999,-0.00009011,0.00014125,-0.00008568,0.00014361,0.00002316,0.
 00033677,-0.00023266,0.00024640,0.06311653,-0.00190712,-0.00141573,-0.
 00187233,0.00487517,0.00293628,-0.01458029,0.00058563,0.00122506,-0.00
 082495,-0.01483678,-0.06547192,0.06413529,0.00018009,0.00078786,0.0005
 2583,0.00024591,-0.00013494,-0.00004773,-0.00031927,-0.00057465,0.0001
 5783,0.00002427,-0.00009275,-0.00037525,-0.00016727,-0.00022257,0.0001
 4697,-0.00018460,0.00019865,-0.00031065,-0.00012184,0.00070054,-0.0010
 0022,-0.00001771,-0.00004869,-0.00004367,-0.00001050,0.00014640,0.0002
 6803,-0.00020357,-0.00044098,0.00021436,0.01854131,0.06759166,-0.00323
 684,-0.00328945,-0.00168728,0.00409902,0.00565625,-0.01994405,0.000516
 42,0.00120887,0.00037168,0.05581027,0.06262405,-0.28215106,0.00153005,
 0.00025653,-0.00260849,-0.00013354,0.00002155,0.00038891,0.00196425,0.
 00031883,0.00178163,-0.00025410,0.00002891,0.00063633,-0.00007275,-0.0
 0006767,0.00042358,0.00001228,0.00005223,0.00017164,0.00004530,0.00043
 129,-0.00145533,-0.00005660,-0.00004364,-0.00001671,-0.00016780,-0.000
 02547,0.00038884,-0.00003903,-0.00081036,0.00061542,-0.06150364,-0.068
 10915,0.30915568,0.00021507,0.00024757,0.00139012,-0.02006363,0.004849
 98,0.00381198,0.00036827,0.00130100,0.00080239,-0.28220910,0.06098721,
 0.04530085,0.00047959,-0.00189592,-0.00292139,-0.00147589,0.00010756,0
 .00034640,0.00000737,-0.00010716,-0.00002648,-0.00032755,-0.00035577,-
 0.00012629,0.00075196,0.00014507,-0.00075361,0.00003811,-0.00004164,0.
 00004651,0.00047973,-0.00014071,-0.00003301,0.00058233,-0.00090191,-0.
 00026492,0.00047002,0.00003875,-0.00012849,-0.00007703,-0.00005955,-0.
 00000591,-0.00612104,0.00169099,0.00076561,0.30952104,0.00032491,-0.00
 004967,0.00064447,-0.01644378,0.00232079,0.00251961,-0.00101718,0.0009
 3089,0.00037847,0.06251840,-0.06210005,-0.01141896,-0.00082989,-0.0036
 3849,-0.00235923,-0.00118428,0.00054568,0.00039433,-0.00016813,0.00016
 007,-0.00030001,0.00156910,0.00108012,0.00069262,0.00020199,0.00030955
 ,0.00011750,0.00011905,0.00001909,-0.00005812,-0.00006146,-0.00009365,
 0.00018266,-0.00004819,-0.00022876,-0.00039773,0.00017767,0.00021761,0
 .00012525,-0.00002722,-0.00006435,0.00008469,-0.00874785,0.00138342,0.
 00127273,-0.06620246,0.06518461,-0.00114288,0.00035215,0.00134526,-0.0
 2110302,0.00505682,0.00180642,0.00004285,0.00088066,0.00054427,0.04686
 579,-0.01163179,-0.05490048,-0.00078035,-0.00194896,-0.00463444,-0.001
 51263,0.00031098,0.00059514,0.00092332,0.00017875,0.00103596,-0.000195
 07,-0.00018041,0.00035354,0.00030148,-0.00016986,-0.00034735,-0.000025
 02,-0.00000016,-0.00007796,0.00031422,-0.00001224,0.00026614,0.0001277
 8,-0.00026836,0.00014827,0.00003955,0.00030376,-0.00008949,0.00019911,
 -0.00010589,-0.00003222,0.02880926,-0.00878100,-0.00406014,-0.04836386
 ,0.01512818,0.05858549,0.00047884,0.00004631,0.00082944,0.00161510,-0.
 01947187,0.00293806,-0.00284865,-0.00132294,-0.00254570,-0.04846093,0.
 03132091,-0.00280105,0.00121873,-0.00264897,0.00045149,0.00024959,0.00
 084680,0.00010637,-0.00052023,0.00059696,-0.00017290,-0.00157305,0.001
 12456,-0.00020148,-0.00008033,0.00024122,-0.00007363,0.00027647,0.0002
 0438,-0.00039246,-0.00016245,0.00002103,0.00016642,0.00028907,-0.00016
 337,-0.00020239,0.00061787,-0.00140089,-0.00021940,-0.00010013,0.00026
 413,-0.00005009,0.00042637,-0.00837753,0.00075357,-0.00248800,0.030494
 96,-0.00404747,0.05125809,0.00036647,0.00052385,0.00103051,0.00134894,
 -0.01588686,0.00205441,-0.00287081,-0.00040285,-0.00286817,0.02791409,
 -0.30866845,0.02771895,0.00112808,-0.00273788,-0.00040312,-0.00020162,
 0.00052080,0.00017626,-0.00045157,0.00046090,-0.00011686,0.00298512,0.
 00149401,0.00112503,0.00003302,-0.00008307,-0.00013842,-0.00009340,0.0
 0046451,-0.00070403,-0.00006893,0.00031957,0.00006318,0.00005540,0.000
 30126,0.00008174,0.00019853,-0.00111160,-0.00002174,0.00006175,0.00032
 141,0.00004335,0.00127219,-0.00670088,0.00034868,0.00038593,-0.0059333
 8,0.00098973,-0.03183260,0.33712164,0.00054308,-0.00094166,0.00129866,
 0.00341206,-0.02092761,0.00151191,-0.00304025,-0.00166595,-0.00295047,
 -0.00262133,0.03005325,-0.05110946,0.00055919,0.00012649,0.00031606,0.
 00009280,0.00006028,-0.00001685,0.00037606,-0.00013652,0.00019673,-0.0
 0050305,-0.00001028,-0.00042362,0.00010321,0.00001726,-0.00001854,-0.0
 0030179,0.00017615,-0.00053620,0.00006530,0.00026958,0.00027913,-0.000
 11730,0.00031416,-0.00007576,-0.00003304,-0.00159005,0.00046523,-0.000
 15509,-0.00021430,0.00024199,-0.00459108,0.03047893,-0.00199046,0.0005
 6980,-0.00682574,-0.00037693,0.00540825,-0.02938482,0.05315497,-0.0013
 2668,-0.00154950,-0.00124327,0.00003825,0.00017326,-0.00086909,-0.0003
 9930,0.00006517,0.00005291,-0.00006535,-0.00020238,0.00027011,0.010429
 40,0.00754403,-0.02156131,-0.08167344,-0.01322547,0.08025746,-0.001993
 13,-0.00231903,-0.00854382,-0.00067791,-0.00078235,0.00027451,0.000355
 84,0.00044365,0.00066230,0.00026463,0.00014565,0.00009379,-0.00212429,
 0.00039862,0.00184444,-0.00002325,0.00009437,0.00008076,-0.00005200,0.
 00036625,-0.00013705,0.00018553,-0.00021549,0.00025308,0.00021989,0.00
 004507,0.00023659,-0.00003325,0.00004021,0.00001237,0.00006209,0.00003
 423,-0.00002569,0.08617850,0.00011930,0.00032890,0.00072057,0.00033510
 ,0.00080517,0.00035374,0.00048159,0.00067745,0.00057148,0.00025897,-0.
 00032384,-0.00002999,0.00265740,-0.00449800,-0.02286065,-0.02277875,-0
 .02314928,0.08230649,-0.00141307,0.00201481,-0.00031154,-0.00077998,0.
 00005843,0.00173692,0.00014613,-0.00025384,0.00000362,-0.00043888,-0.0
 0054548,-0.00011386,-0.00029584,0.00056505,-0.00049606,-0.00008577,-0.
 00018907,-0.00026423,0.00020560,-0.00088965,0.00001506,-0.00024212,-0.
 00009031,-0.00027716,-0.00003993,0.00000988,-0.00000676,0.00010534,0.0
 0002803,0.00001259,-0.00011790,-0.00009532,-0.00006309,0.01549737,0.02
 648597,0.00144808,0.00036022,0.00063222,-0.00027800,-0.00042367,0.0001
 3792,-0.00012081,0.00005921,-0.00026329,0.00028598,0.00000112,-0.00019
 021,0.00760453,0.00953701,-0.02278874,0.08457153,0.03158490,-0.3962353
 1,-0.00381130,-0.00223985,-0.00473767,0.00040420,0.00082238,0.00241952
 ,0.00028780,0.00010035,0.00004477,-0.00014959,-0.00006359,0.00000266,0
 .00107901,0.00008014,0.00017741,0.00005557,-0.00003880,0.00009300,-0.0
 0015836,0.00031682,0.00005232,0.00012176,-0.00007837,0.00012158,0.0001
 4812,0.00000195,0.00004535,0.00003939,0.00006331,0.00016232,-0.0000314
 9,0.00002339,0.00003251,-0.09037185,-0.04354532,0.42494291,0.00032390,
 0.00020525,-0.00052753,-0.00046793,-0.00327471,-0.00401920,0.00052845,
 -0.00067837,-0.00002652,-0.00110615,0.00070257,0.00081735,-0.03250134,
 0.01344946,0.00311629,-0.34625581,0.12068246,0.04674805,0.00283313,-0.
 00024133,0.00076634,0.00545592,0.00189521,0.00195394,0.00007441,-0.000
 00733,0.00010107,-0.00011139,-0.00013725,0.00010194,0.00001601,0.00003
 875,0.00013276,0.00010405,0.00006043,0.00006870,0.00000856,0.00016399,
 0.00010093,-0.00006060,0.00007967,-0.00006004,-0.00001493,0.00003218,-
 0.00009802,-0.00021454,-0.00037201,-0.00039810,-0.00012459,-0.00014251
 ,-0.00002025,-0.00869923,0.00626986,-0.00113821,0.38072234,-0.00008485
 ,0.00019375,-0.00014374,-0.00202011,-0.00156239,-0.00272176,0.00041029
 ,-0.00049657,-0.00053048,-0.00085878,0.00063178,0.00017485,-0.02658578
 ,0.00193550,-0.00210121,0.17014375,-0.08306484,-0.03702477,-0.00073958
 ,-0.00087513,0.00225286,0.00248047,0.00251938,0.00267850,-0.00000439,-
 0.00008600,-0.00006695,-0.00001955,-0.00001643,0.00009511,-0.00006673,
 -0.00013345,0.00006128,0.00024551,0.00016232,0.00027942,0.00001194,0.0
 0070658,0.00040153,0.00003063,0.00002213,0.00013634,0.00004325,0.00001
 394,0.00005068,-0.00022148,-0.00017628,-0.00016796,-0.00003939,-0.0000
 4442,0.00004730,-0.00584756,-0.00173057,0.00461352,-0.13802082,0.08225
 021,0.00020349,-0.00031616,-0.00056864,-0.00128363,-0.00242691,-0.0028
 9724,-0.00002225,-0.00042783,0.00010147,-0.00112797,0.00034128,0.00073
 915,-0.02389607,0.01179554,0.00572658,0.03217523,-0.02575883,-0.064945
 21,0.00304255,-0.00055146,0.00057028,0.00112766,0.00032144,-0.00034425
 ,0.00004587,0.00015957,0.00026759,0.00003307,0.00006828,0.00008585,0.0
 0017661,0.00024925,0.00053487,-0.00005385,0.00005141,-0.00004543,0.000
 08090,0.00004531,-0.00006616,0.00001603,0.00008463,-0.00000177,-0.0000
 1768,0.00003071,-0.00002852,-0.00032395,-0.00021727,-0.00024882,0.0000
 1144,-0.00002863,-0.00001462,0.03808209,-0.01628194,-0.00501911,-0.046
 63606,0.03268596,0.06666794,-0.00022759,0.00056082,0.00026857,-0.00060
 398,-0.00117322,0.00123243,0.00025852,-0.00057292,0.00182332,-0.000488
 21,0.00028022,0.00009520,-0.00338278,-0.01054896,0.00193070,-0.0007569
 6,-0.00042714,-0.00120147,-0.05982130,-0.15789580,0.00802873,0.0008203
 6,0.00335351,-0.00238826,-0.00004962,-0.00007427,0.00002085,0.00005805
 ,0.00011824,-0.00016000,-0.00001634,-0.00009795,-0.00008296,0.00020452
 ,0.00027082,-0.00085237,0.00001103,0.00000593,-0.00008608,-0.00127065,
 0.00130640,-0.00094446,-0.00000858,-0.00034235,0.00010190,-0.00005534,
 -0.00008129,0.00009537,0.00013605,0.00013151,-0.00007032,-0.00057437,-
 0.00038725,-0.00018894,-0.00025426,0.00178731,-0.00136746,0.06561239,0
 .00066106,-0.00046578,-0.00007373,-0.00031817,0.00083818,-0.00111919,0
 .00037735,0.00009905,-0.00042304,0.00021894,-0.00029815,-0.00002500,-0
 .00303219,-0.01556980,-0.00000275,0.00091606,-0.00009326,-0.00517214,-
 0.16235885,-0.45081817,0.00228556,-0.00013777,-0.00138498,0.00394698,0
 .00014426,0.00011202,-0.00024264,0.00001382,-0.00002537,0.00001931,-0.
 00003986,0.00006397,0.00002577,-0.00003771,-0.00024033,0.00005413,-0.0
 0000960,0.00000845,-0.00026706,0.00075772,0.00005517,0.00007024,-0.000
 22221,0.00001057,-0.00006930,0.00013514,0.00011115,-0.00001153,0.00004
 085,0.00002475,-0.00003585,-0.00076982,0.00052672,-0.00149803,0.000180
 27,-0.00032831,0.00099073,0.16479890,0.46674250,0.00023322,0.00000286,
 0.00004195,0.00030049,0.00030667,-0.00163690,0.00039370,-0.00023056,0.
 00038248,-0.00052494,0.00012317,0.00004279,0.01698068,0.04496931,-0.00
 126055,-0.00182580,-0.00013496,0.00249139,-0.00999021,-0.04943555,-0.0
 4371497,0.00037462,0.00567940,-0.00699543,-0.00007960,-0.00003399,-0.0
 0013521,-0.00006145,0.00000676,0.00009306,0.00001494,-0.00011639,-0.00
 022248,-0.00022975,-0.00010167,-0.00005386,0.00030717,-0.00035245,-0.0
 0047784,0.00011216,-0.00007094,0.00022256,0.00011668,-0.00015965,0.000
 09639,-0.00010519,-0.00005954,0.00004766,-0.00001470,-0.00004254,-0.00
 010681,0.00059386,-0.00167572,0.00049097,-0.00043567,0.00065355,-0.000
 38035,-0.00655715,0.00091490,0.05190675,0.00044322,-0.00002739,-0.0003
 6582,0.00048864,0.00391428,0.00004843,-0.00099735,-0.00011414,0.000221
 77,0.00038983,0.00048990,0.00016645,-0.00728347,0.00707261,0.00556464,
 -0.00135475,-0.00408874,-0.00045712,-0.00121478,-0.00347270,0.00059685
 ,-0.18337902,0.07967279,0.23117187,0.00004034,-0.00004604,-0.00001826,
 0.00003306,-0.00004436,-0.00015405,-0.00008233,0.00010323,-0.00001332,
 -0.00001391,0.00043061,-0.00009003,-0.00002073,-0.00005643,0.00001058,
 -0.00003117,0.00009745,-0.00008402,-0.00022841,0.00026793,-0.00027292,
 0.00015190,-0.00026256,-0.00016269,-0.00026990,-0.00025382,0.00034943,
 -0.00009191,0.00050281,0.00020261,-0.00025601,-0.00064415,-0.00026602,
 0.00040905,-0.00131817,0.00039696,0.19326770,-0.00083173,-0.00028021,0
 .00064467,-0.00076414,-0.00542741,0.00121595,0.00134396,0.00024789,-0.
 00054754,-0.00023346,0.00017041,-0.00025804,0.03498424,-0.02050955,-0.
 03789627,-0.00147118,-0.00293369,0.00141002,-0.00090629,0.00471560,-0.
 00060291,0.05143414,-0.06358606,-0.05493800,-0.00011486,0.00021165,0.0
 0010530,0.00021632,0.00036468,-0.00042946,0.00000967,0.00007512,-0.000
 02751,-0.00001467,-0.00047266,0.00014176,-0.00005707,-0.00002637,-0.00
 003561,0.00012656,-0.00014816,0.00015598,0.00023078,0.00009884,0.00015
 120,-0.00006794,-0.00000639,0.00006455,0.00017334,0.00011202,0.0002525
 2,0.00006370,0.00026496,0.00032329,-0.00088577,0.00007879,-0.00081509,
 -0.00101252,0.00063162,-0.00024266,-0.08222309,0.08641890,0.00009522,0
 .00029515,-0.00009712,-0.00097517,0.00268265,-0.00036947,-0.00089977,0
 .00023650,0.00046362,-0.00008835,-0.00001247,0.00018432,-0.00080988,0.
 00121702,0.00268585,-0.00022897,0.00040707,-0.00020084,-0.00148633,0.0
 0269323,-0.00087457,0.24184038,-0.09831990,-0.29878770,-0.00003745,-0.
 00010282,0.00001255,-0.00006716,-0.00027483,0.00009334,-0.00001373,-0.
 00006792,-0.00006304,-0.00018794,0.00032817,-0.00000232,0.00003243,-0.
 00009907,-0.00004954,-0.00000813,-0.00000595,-0.00007018,-0.00018001,0
 .00014500,-0.00013342,-0.00001993,0.00003278,-0.00012265,0.00008771,0.
 00005310,0.00012251,0.00003782,0.00020584,-0.00012114,-0.00054778,-0.0
 0137403,-0.00013361,0.00030241,0.00063263,-0.00083163,-0.23684536,0.09
 132785,0.29829500\\-0.00000325,-0.00000124,-0.00000175,0.00000029,-0.0
 0000051,-0.00000230,-0.00000635,-0.00000490,-0.00000304,0.00000521,-0.
 00000333,-0.00000045,0.00001340,0.00002837,0.00000050,-0.00000981,-0.0
 0001038,0.00000133,-0.00000127,0.00000031,0.00000639,0.00000716,-0.000
 00681,0.00000596,-0.00000212,-0.00000491,-0.00000267,0.00000184,-0.000
 00067,-0.00000048,-0.00000456,0.00000028,-0.00000006,-0.00000511,-0.00
 000531,-0.00000333,-0.00000725,0.00000101,-0.00000101,-0.00000396,-0.0
 0000086,-0.00000131,0.00000390,-0.00000502,-0.00000183,0.00000254,-0.0
 0000872,-0.00000361,0.00000613,-0.00000589,-0.00000180,-0.00000308,0.0
 0000761,0.00000045,-0.00000125,0.00001245,0.00000406,0.00000037,0.0000
 0301,0.00000194,0.00000717,0.00000549,0.00000300\\\@
 Job cpu time:       0 days 11 hours 14 minutes 23.7 seconds.
 File lengths (MBytes):  RWF=  25406 Int=      0 D2E=      0 Chk=     72 Scr=      1
 Normal termination of Gaussian 09 at Fri Aug 26 13:28:22 2022.
