 Entering Gaussian System, Link 0=g09
 Input=G4.Frag_1122.gjf
 Output=G4.Frag_1122.log
 Initial command:
 /public/home/users/caep010/software/Gaussian09/g09/l1.exe "/public/home/users/caep010/.cache/gau_scr/Gau-158974.inp" -scrdir="/public/home/users/caep010/.cache/gau_scr/"
 Entering Link 1 = /public/home/users/caep010/software/Gaussian09/g09/l1.exe PID=    158975.
  
 Copyright (c) 1988,1990,1992,1993,1995,1998,2003,2009,2015,
            Gaussian, Inc.  All Rights Reserved.
  
 This is part of the Gaussian(R) 09 program.  It is based on
 the Gaussian(R) 03 system (copyright 2003, Gaussian, Inc.),
 the Gaussian(R) 98 system (copyright 1998, Gaussian, Inc.),
 the Gaussian(R) 94 system (copyright 1995, Gaussian, Inc.),
 the Gaussian 92(TM) system (copyright 1992, Gaussian, Inc.),
 the Gaussian 90(TM) system (copyright 1990, Gaussian, Inc.),
 the Gaussian 88(TM) system (copyright 1988, Gaussian, Inc.),
 the Gaussian 86(TM) system (copyright 1986, Carnegie Mellon
 University), and the Gaussian 82(TM) system (copyright 1983,
 Carnegie Mellon University). Gaussian is a federally registered
 trademark of Gaussian, Inc.
  
 This software contains proprietary and confidential information,
 including trade secrets, belonging to Gaussian, Inc.
  
 This software is provided under written license and may be
 used, copied, transmitted, or stored only in accord with that
 written license.
  
 The following legend is applicable only to US Government
 contracts under FAR:
  
                    RESTRICTED RIGHTS LEGEND
  
 Use, reproduction and disclosure by the US Government is
 subject to restrictions as set forth in subparagraphs (a)
 and (c) of the Commercial Computer Software - Restricted
 Rights clause in FAR 52.227-19.
  
 Gaussian, Inc.
 340 Quinnipiac St., Bldg. 40, Wallingford CT 06492
  
  
 ---------------------------------------------------------------
 Warning -- This program may not be used in any manner that
 competes with the business of Gaussian, Inc. or will provide
 assistance to any competitor of Gaussian, Inc.  The licensee
 of this program is prohibited from giving any competitor of
 Gaussian, Inc. access to this program.  By using this program,
 the user acknowledges that Gaussian, Inc. is engaged in the
 business of creating and licensing software in the field of
 computational chemistry and represents and warrants to the
 licensee that it is not a competitor of Gaussian, Inc. and that
 it will not use this program in any manner prohibited above.
 ---------------------------------------------------------------
  

 Cite this work as:
 Gaussian 09, Revision E.01,
 M. J. Frisch, G. W. Trucks, H. B. Schlegel, G. E. Scuseria, 
 M. A. Robb, J. R. Cheeseman, G. Scalmani, V. Barone, B. Mennucci, 
 G. A. Petersson, H. Nakatsuji, M. Caricato, X. Li, H. P. Hratchian, 
 A. F. Izmaylov, J. Bloino, G. Zheng, J. L. Sonnenberg, M. Hada, 
 M. Ehara, K. Toyota, R. Fukuda, J. Hasegawa, M. Ishida, T. Nakajima, 
 Y. Honda, O. Kitao, H. Nakai, T. Vreven, J. A. Montgomery, Jr., 
 J. E. Peralta, F. Ogliaro, M. Bearpark, J. J. Heyd, E. Brothers, 
 K. N. Kudin, V. N. Staroverov, T. Keith, R. Kobayashi, J. Normand, 
 K. Raghavachari, A. Rendell, J. C. Burant, S. S. Iyengar, J. Tomasi, 
 M. Cossi, N. Rega, J. M. Millam, M. Klene, J. E. Knox, J. B. Cross, 
 V. Bakken, C. Adamo, J. Jaramillo, R. Gomperts, R. E. Stratmann, 
 O. Yazyev, A. J. Austin, R. Cammi, C. Pomelli, J. W. Ochterski, 
 R. L. Martin, K. Morokuma, V. G. Zakrzewski, G. A. Voth, 
 P. Salvador, J. J. Dannenberg, S. Dapprich, A. D. Daniels, 
 O. Farkas, J. B. Foresman, J. V. Ortiz, J. Cioslowski, 
 and D. J. Fox, Gaussian, Inc., Wallingford CT, 2013.
 
 ******************************************
 Gaussian 09:  ES64L-G09RevE.01 30-Nov-2015
                26-Aug-2022 
 ******************************************
 %nproc=32
 Will use up to   32 processors via shared memory.
 %mem=180GB
 %chk=G4.Frag_1122.chk
 -----
 #P G4
 -----
 1/14=-1,18=20,19=15,26=3,38=1/1,3;
 2/9=110,12=2,17=6,18=5,40=1/2;
 3/5=35,7=104,11=2,16=1,25=1,30=1,71=1,74=-5/1,2,3;
 4//1;
 5/5=2,38=5/2;
 6/7=2,8=2,9=2,10=2,28=1/1;
 7//1,2,3,16;
 1/14=-1,18=20,19=15,26=3/3(2);
 2/9=110/2;
 99//99;
 2/9=110/2;
 3/5=35,7=104,11=2,16=1,25=1,30=1,71=1,74=-5/1,2,3;
 4/5=5,16=3,69=1/1;
 5/5=2,38=5/2;
 7//1,2,3,16;
 1/14=-1,18=20,19=15,26=3/3(-5);
 2/9=110/2;
 6/7=2,8=2,9=2,10=2,19=2,28=1/1;
 99/9=1/99;
 Leave Link    1 at Fri Aug 26 14:36:04 2022, MaxMem= 24159191040 cpu:         3.3
 (Enter /public/home/users/caep010/software/Gaussian09/g09/l101.exe)
 ---------
 Frag_1122
 ---------
 Symbolic Z-matrix:
 Charge =  0 Multiplicity = 1
 C                     0.8525   -0.9267   -1.4032 
 C                     0.6383   -0.0916   -0.1168 
 C                     1.3146   -0.8425    1.0567 
 C                     1.3684    1.2617   -0.3002 
 C                    -0.9033    0.1297    0.1652 
 N                    -1.0812    0.8539    1.4372 
 N                    -1.5888   -1.1728    0.2526 
 N                    -1.5044    0.9181   -0.9262 
 H                     0.4907   -0.3845   -2.3017 
 H                     1.9333   -1.1363   -1.5584 
 H                     0.3263   -1.9026   -1.3412 
 H                     1.1702   -0.3022    2.0161 
 H                     2.409    -0.9345    0.8837 
 H                     0.9113   -1.871     1.1641 
 H                     1.35      1.8606    0.6342 
 H                     2.4357    1.098    -0.5652 
 H                     0.9078    1.8598   -1.1147 
 H                    -0.8474    1.8639    1.301 
 H                    -2.0906    0.8284    1.7116 
 H                    -1.3715   -1.6223    1.1713 
 H                    -2.6239   -1.0201    0.2465 
 H                    -2.4651    1.2222   -0.6447 
 H                    -1.6317    0.3111   -1.7679 
 
 NAtoms=     23 NQM=       23 NQMF=       0 NMMI=      0 NMMIF=      0
                NMic=       0 NMicF=      0.
                    Isotopes and Nuclear Properties:
 (Nuclear quadrupole moments (NQMom) in fm**2, nuclear magnetic moments (NMagM)
  in nuclear magnetons)

  Atom         1           2           3           4           5           6           7           8           9          10
 IAtWgt=          12          12          12          12          12          14          14          14           1           1
 AtmWgt=  12.0000000  12.0000000  12.0000000  12.0000000  12.0000000  14.0030740  14.0030740  14.0030740   1.0078250   1.0078250
 NucSpn=           0           0           0           0           0           2           2           2           1           1
 AtZEff=   0.0000000   0.0000000   0.0000000   0.0000000   0.0000000   0.0000000   0.0000000   0.0000000   0.0000000   0.0000000
 NQMom=    0.0000000   0.0000000   0.0000000   0.0000000   0.0000000   2.0440000   2.0440000   2.0440000   0.0000000   0.0000000
 NMagM=    0.0000000   0.0000000   0.0000000   0.0000000   0.0000000   0.4037610   0.4037610   0.4037610   2.7928460   2.7928460
 AtZNuc=   6.0000000   6.0000000   6.0000000   6.0000000   6.0000000   7.0000000   7.0000000   7.0000000   1.0000000   1.0000000

  Atom        11          12          13          14          15          16          17          18          19          20
 IAtWgt=           1           1           1           1           1           1           1           1           1           1
 AtmWgt=   1.0078250   1.0078250   1.0078250   1.0078250   1.0078250   1.0078250   1.0078250   1.0078250   1.0078250   1.0078250
 NucSpn=           1           1           1           1           1           1           1           1           1           1
 AtZEff=   0.0000000   0.0000000   0.0000000   0.0000000   0.0000000   0.0000000   0.0000000   0.0000000   0.0000000   0.0000000
 NQMom=    0.0000000   0.0000000   0.0000000   0.0000000   0.0000000   0.0000000   0.0000000   0.0000000   0.0000000   0.0000000
 NMagM=    2.7928460   2.7928460   2.7928460   2.7928460   2.7928460   2.7928460   2.7928460   2.7928460   2.7928460   2.7928460
 AtZNuc=   1.0000000   1.0000000   1.0000000   1.0000000   1.0000000   1.0000000   1.0000000   1.0000000   1.0000000   1.0000000

  Atom        21          22          23
 IAtWgt=           1           1           1
 AtmWgt=   1.0078250   1.0078250   1.0078250
 NucSpn=           1           1           1
 AtZEff=   0.0000000   0.0000000   0.0000000
 NQMom=    0.0000000   0.0000000   0.0000000
 NMagM=    2.7928460   2.7928460   2.7928460
 AtZNuc=   1.0000000   1.0000000   1.0000000
 Leave Link  101 at Fri Aug 26 14:36:04 2022, MaxMem= 24159191040 cpu:        10.1
 (Enter /public/home/users/caep010/software/Gaussian09/g09/l103.exe)

 GradGradGradGradGradGradGradGradGradGradGradGradGradGradGradGradGradGrad
 Berny optimization.
 Initialization pass.
                           ----------------------------
                           !    Initial Parameters    !
                           ! (Angstroms and Degrees)  !
 --------------------------                            --------------------------
 ! Name  Definition              Value          Derivative Info.                !
 --------------------------------------------------------------------------------
 ! R1    R(1,2)                  1.5486         estimate D2E/DX2                !
 ! R2    R(1,9)                  1.11           estimate D2E/DX2                !
 ! R3    R(1,10)                 1.1118         estimate D2E/DX2                !
 ! R4    R(1,11)                 1.1105         estimate D2E/DX2                !
 ! R5    R(2,3)                  1.5487         estimate D2E/DX2                !
 ! R6    R(2,4)                  1.5486         estimate D2E/DX2                !
 ! R7    R(2,5)                  1.5827         estimate D2E/DX2                !
 ! R8    R(3,12)                 1.1105         estimate D2E/DX2                !
 ! R9    R(3,13)                 1.1118         estimate D2E/DX2                !
 ! R10   R(3,14)                 1.11           estimate D2E/DX2                !
 ! R11   R(4,15)                 1.11           estimate D2E/DX2                !
 ! R12   R(4,16)                 1.1118         estimate D2E/DX2                !
 ! R13   R(4,17)                 1.1105         estimate D2E/DX2                !
 ! R14   R(5,6)                  1.4745         estimate D2E/DX2                !
 ! R15   R(5,7)                  1.4745         estimate D2E/DX2                !
 ! R16   R(5,8)                  1.4745         estimate D2E/DX2                !
 ! R17   R(6,18)                 1.0456         estimate D2E/DX2                !
 ! R18   R(6,19)                 1.0463         estimate D2E/DX2                !
 ! R19   R(7,20)                 1.0456         estimate D2E/DX2                !
 ! R20   R(7,21)                 1.0463         estimate D2E/DX2                !
 ! R21   R(8,22)                 1.0463         estimate D2E/DX2                !
 ! R22   R(8,23)                 1.0455         estimate D2E/DX2                !
 ! A1    A(2,1,9)              111.3401         estimate D2E/DX2                !
 ! A2    A(2,1,10)             110.6147         estimate D2E/DX2                !
 ! A3    A(2,1,11)             111.2231         estimate D2E/DX2                !
 ! A4    A(9,1,10)             107.2136         estimate D2E/DX2                !
 ! A5    A(9,1,11)             108.6636         estimate D2E/DX2                !
 ! A6    A(10,1,11)            107.6232         estimate D2E/DX2                !
 ! A7    A(1,2,3)              107.9136         estimate D2E/DX2                !
 ! A8    A(1,2,4)              107.919          estimate D2E/DX2                !
 ! A9    A(1,2,5)              110.9857         estimate D2E/DX2                !
 ! A10   A(3,2,4)              107.9135         estimate D2E/DX2                !
 ! A11   A(3,2,5)              110.9859         estimate D2E/DX2                !
 ! A12   A(4,2,5)              110.985          estimate D2E/DX2                !
 ! A13   A(2,3,12)             111.2203         estimate D2E/DX2                !
 ! A14   A(2,3,13)             110.6146         estimate D2E/DX2                !
 ! A15   A(2,3,14)             111.3421         estimate D2E/DX2                !
 ! A16   A(12,3,13)            107.619          estimate D2E/DX2                !
 ! A17   A(12,3,14)            108.6623         estimate D2E/DX2                !
 ! A18   A(13,3,14)            107.22           estimate D2E/DX2                !
 ! A19   A(2,4,15)             111.3458         estimate D2E/DX2                !
 ! A20   A(2,4,16)             110.6184         estimate D2E/DX2                !
 ! A21   A(2,4,17)             111.2214         estimate D2E/DX2                !
 ! A22   A(15,4,16)            107.217          estimate D2E/DX2                !
 ! A23   A(15,4,17)            108.6593         estimate D2E/DX2                !
 ! A24   A(16,4,17)            107.6157         estimate D2E/DX2                !
 ! A25   A(2,5,6)              109.8706         estimate D2E/DX2                !
 ! A26   A(2,5,7)              109.8695         estimate D2E/DX2                !
 ! A27   A(2,5,8)              109.8743         estimate D2E/DX2                !
 ! A28   A(6,5,7)              109.0652         estimate D2E/DX2                !
 ! A29   A(6,5,8)              109.0713         estimate D2E/DX2                !
 ! A30   A(7,5,8)              109.0676         estimate D2E/DX2                !
 ! A31   A(5,6,18)             109.5772         estimate D2E/DX2                !
 ! A32   A(5,6,19)             109.3086         estimate D2E/DX2                !
 ! A33   A(18,6,19)            105.867          estimate D2E/DX2                !
 ! A34   A(5,7,20)             109.5859         estimate D2E/DX2                !
 ! A35   A(5,7,21)             109.309          estimate D2E/DX2                !
 ! A36   A(20,7,21)            105.87           estimate D2E/DX2                !
 ! A37   A(5,8,22)             109.3048         estimate D2E/DX2                !
 ! A38   A(5,8,23)             109.5789         estimate D2E/DX2                !
 ! A39   A(22,8,23)            105.8755         estimate D2E/DX2                !
 ! D1    D(9,1,2,3)           -173.5048         estimate D2E/DX2                !
 ! D2    D(9,1,2,4)            -57.129          estimate D2E/DX2                !
 ! D3    D(9,1,2,5)             64.6843         estimate D2E/DX2                !
 ! D4    D(10,1,2,3)           -54.3994         estimate D2E/DX2                !
 ! D5    D(10,1,2,4)            61.9764         estimate D2E/DX2                !
 ! D6    D(10,1,2,5)          -176.2103         estimate D2E/DX2                !
 ! D7    D(11,1,2,3)            65.1439         estimate D2E/DX2                !
 ! D8    D(11,1,2,4)          -178.4803         estimate D2E/DX2                !
 ! D9    D(11,1,2,5)           -56.6669         estimate D2E/DX2                !
 ! D10   D(1,2,3,12)          -178.48           estimate D2E/DX2                !
 ! D11   D(1,2,3,13)            61.9838         estimate D2E/DX2                !
 ! D12   D(1,2,3,14)           -57.1309         estimate D2E/DX2                !
 ! D13   D(4,2,3,12)            65.1406         estimate D2E/DX2                !
 ! D14   D(4,2,3,13)           -54.3956         estimate D2E/DX2                !
 ! D15   D(4,2,3,14)          -173.5103         estimate D2E/DX2                !
 ! D16   D(5,2,3,12)           -56.6692         estimate D2E/DX2                !
 ! D17   D(5,2,3,13)          -176.2054         estimate D2E/DX2                !
 ! D18   D(5,2,3,14)            64.6798         estimate D2E/DX2                !
 ! D19   D(1,2,4,15)          -173.5071         estimate D2E/DX2                !
 ! D20   D(1,2,4,16)           -54.3911         estimate D2E/DX2                !
 ! D21   D(1,2,4,17)            65.1443         estimate D2E/DX2                !
 ! D22   D(3,2,4,15)           -57.1312         estimate D2E/DX2                !
 ! D23   D(3,2,4,16)            61.9848         estimate D2E/DX2                !
 ! D24   D(3,2,4,17)          -178.4798         estimate D2E/DX2                !
 ! D25   D(5,2,4,15)            64.6791         estimate D2E/DX2                !
 ! D26   D(5,2,4,16)          -176.2049         estimate D2E/DX2                !
 ! D27   D(5,2,4,17)           -56.6695         estimate D2E/DX2                !
 ! D28   D(1,2,5,6)            176.5025         estimate D2E/DX2                !
 ! D29   D(1,2,5,7)             56.5078         estimate D2E/DX2                !
 ! D30   D(1,2,5,8)            -63.4922         estimate D2E/DX2                !
 ! D31   D(3,2,5,6)             56.5044         estimate D2E/DX2                !
 ! D32   D(3,2,5,7)            -63.4903         estimate D2E/DX2                !
 ! D33   D(3,2,5,8)            176.5097         estimate D2E/DX2                !
 ! D34   D(4,2,5,6)            -63.4931         estimate D2E/DX2                !
 ! D35   D(4,2,5,7)            176.5121         estimate D2E/DX2                !
 ! D36   D(4,2,5,8)             56.5121         estimate D2E/DX2                !
 ! D37   D(2,5,6,18)            75.6355         estimate D2E/DX2                !
 ! D38   D(2,5,6,19)          -168.765          estimate D2E/DX2                !
 ! D39   D(7,5,6,18)          -163.882          estimate D2E/DX2                !
 ! D40   D(7,5,6,19)           -48.2825         estimate D2E/DX2                !
 ! D41   D(8,5,6,18)           -44.8567         estimate D2E/DX2                !
 ! D42   D(8,5,6,19)            70.7428         estimate D2E/DX2                !
 ! D43   D(2,5,7,20)            75.6291         estimate D2E/DX2                !
 ! D44   D(2,5,7,21)          -168.7627         estimate D2E/DX2                !
 ! D45   D(6,5,7,20)           -44.8541         estimate D2E/DX2                !
 ! D46   D(6,5,7,21)            70.7541         estimate D2E/DX2                !
 ! D47   D(8,5,7,20)          -163.8817         estimate D2E/DX2                !
 ! D48   D(8,5,7,21)           -48.2735         estimate D2E/DX2                !
 ! D49   D(2,5,8,22)          -168.7641         estimate D2E/DX2                !
 ! D50   D(2,5,8,23)            75.6275         estimate D2E/DX2                !
 ! D51   D(6,5,8,22)           -48.2741         estimate D2E/DX2                !
 ! D52   D(6,5,8,23)          -163.8826         estimate D2E/DX2                !
 ! D53   D(7,5,8,22)            70.7497         estimate D2E/DX2                !
 ! D54   D(7,5,8,23)           -44.8588         estimate D2E/DX2                !
 --------------------------------------------------------------------------------
 Trust Radius=3.00D-01 FncErr=1.00D-07 GrdErr=1.00D-06
 Number of steps in this run=    125 maximum allowed number of steps=    138.
 GradGradGradGradGradGradGradGradGradGradGradGradGradGradGradGradGradGrad

 Leave Link  103 at Fri Aug 26 14:36:05 2022, MaxMem= 24159191040 cpu:         0.4
 (Enter /public/home/users/caep010/software/Gaussian09/g09/l202.exe)
                          Input orientation:                          
 ---------------------------------------------------------------------
 Center     Atomic      Atomic             Coordinates (Angstroms)
 Number     Number       Type             X           Y           Z
 ---------------------------------------------------------------------
      1          6           0        0.852500   -0.926700   -1.403200
      2          6           0        0.638300   -0.091600   -0.116800
      3          6           0        1.314600   -0.842500    1.056700
      4          6           0        1.368400    1.261700   -0.300200
      5          6           0       -0.903300    0.129700    0.165200
      6          7           0       -1.081200    0.853900    1.437200
      7          7           0       -1.588800   -1.172800    0.252600
      8          7           0       -1.504400    0.918100   -0.926200
      9          1           0        0.490700   -0.384500   -2.301700
     10          1           0        1.933300   -1.136300   -1.558400
     11          1           0        0.326300   -1.902600   -1.341200
     12          1           0        1.170200   -0.302200    2.016100
     13          1           0        2.409000   -0.934500    0.883700
     14          1           0        0.911300   -1.871000    1.164100
     15          1           0        1.350000    1.860600    0.634200
     16          1           0        2.435700    1.098000   -0.565200
     17          1           0        0.907800    1.859800   -1.114700
     18          1           0       -0.847400    1.863900    1.301000
     19          1           0       -2.090600    0.828400    1.711600
     20          1           0       -1.371500   -1.622300    1.171300
     21          1           0       -2.623900   -1.020100    0.246500
     22          1           0       -2.465100    1.222200   -0.644700
     23          1           0       -1.631700    0.311100   -1.767900
 ---------------------------------------------------------------------
                    Distance matrix (angstroms):
                    1          2          3          4          5
     1  C    0.000000
     2  C    1.548580   0.000000
     3  C    2.504343   1.548656   0.000000
     4  C    2.504367   1.548581   2.504342   0.000000
     5  C    2.580444   1.582728   2.580509   2.580434   0.000000
     6  N    3.870091   2.503111   2.960137   3.030742   1.474482
     7  N    2.960099   2.503083   3.030744   3.870066   1.474468
     8  N    3.030807   2.503155   3.870189   2.960222   1.474466
     9  H    1.110037   2.209381   3.488184   2.736117   2.879797
    10  H    1.111822   2.201507   2.703305   2.766330   3.552443
    11  H    1.110455   2.208217   2.801870   3.490336   2.812721
    12  H    3.490350   2.208287   1.110506   2.801841   2.812787
    13  H    2.766345   2.201558   1.111802   2.703287   3.552477
    14  H    2.736090   2.209411   1.109954   3.488112   2.879822
    15  H    3.488201   2.209435   2.736149   1.110010   2.879815
    16  H    2.703364   2.201558   2.766399   1.111824   3.552465
    17  H    2.801941   2.208256   3.490400   1.110534   2.812734
    18  H    4.241439   2.835744   3.472539   2.799331   2.073793
    19  H    4.630787   3.411208   3.849180   4.024894   2.071042
    20  H    3.472475   2.835761   2.799349   4.241441   2.073874
    21  H    3.849103   3.411165   4.024891   4.630761   2.071018
    22  H    4.024868   3.411135   4.630754   3.849151   2.070921
    23  H    2.799358   2.835701   4.241443   3.472518   2.073728
                    6          7          8          9         10
     6  N    0.000000
     7  N    2.401759   0.000000
     8  N    2.401849   2.401782   0.000000
     9  H    4.240740   3.386766   2.751216   0.000000
    10  H    4.692731   3.960586   4.054383   1.788517   0.000000
    11  H    4.159189   2.596231   3.388220   1.803944   1.793555
    12  H    2.596246   3.388209   4.159296   4.371715   3.749012
    13  H    3.960585   4.054316   4.692821   3.758876   2.496170
    14  H    3.386697   2.751148   4.240759   3.794517   2.999379
    15  H    2.751179   4.240717   3.386850   3.794520   3.758875
    16  H    4.054353   4.692753   3.960691   2.999377   2.496187
    17  H    3.388237   4.159229   2.596351   2.572902   3.197677
    18  H    1.045616   3.297023   2.507311   4.452557   4.990958
    19  H    1.046343   2.526912   2.703639   4.923496   5.544792
    20  H    2.507298   1.045600   3.297090   4.130577   4.313834
    21  H    2.703621   1.046320   2.526880   4.074070   4.902983
    22  H    2.526882   2.703530   1.046262   3.750185   5.073785
    23  H    3.297021   2.507234   1.045521   2.296385   3.853321
                   11         12         13         14         15
    11  H    0.000000
    12  H    3.813779   0.000000
    13  H    3.197661   1.793532   0.000000
    14  H    2.572888   1.803903   1.788508   0.000000
    15  H    4.371709   2.572874   2.999386   3.794482   0.000000
    16  H    3.749046   3.197680   2.496213   3.758887   1.788537
    17  H    3.813804   3.813792   3.749042   4.371706   1.803938
    18  H    4.748191   3.045335   4.313852   4.130526   2.296345
    19  H    4.755981   3.464649   4.903023   4.074055   3.750194
    20  H    3.045283   2.986066   3.853305   2.296319   4.452598
    21  H    3.464575   4.247595   5.073799   3.750155   4.923477
    22  H    4.247517   4.755950   5.544746   4.923385   4.074080
    23  H    2.986018   4.748204   4.990968   4.452531   4.130565
                   16         17         18         19         20
    16  H    0.000000
    17  H    1.793535   0.000000
    18  H    3.853317   2.986026   0.000000
    19  H    5.073844   4.247606   1.669251   0.000000
    20  H    4.991016   4.748265   3.527760   2.610548   0.000000
    21  H    5.544795   4.756006   3.547588   2.418239   1.669253
    22  H    4.903018   3.464663   2.610456   2.418156   3.547534
    23  H    4.313866   3.045357   3.527671   3.547550   3.527696
                   21         22         23
    21  H    0.000000
    22  H    2.418132   0.000000
    23  H    2.610433   1.669203   0.000000
 Stoichiometry    C5H15N3
 Framework group  C1[X(C5H15N3)]
 Deg. of freedom    63
 Full point group                 C1      NOp   1
 Largest Abelian subgroup         C1      NOp   1
 Largest concise Abelian subgroup C1      NOp   1
                         Standard orientation:                         
 ---------------------------------------------------------------------
 Center     Atomic      Atomic             Coordinates (Angstroms)
 Number     Number       Type             X           Y           Z
 ---------------------------------------------------------------------
      1          6           0        1.345137    1.252517   -0.722396
      2          6           0        0.790569    0.000052    0.000019
      3          6           0        1.345225   -1.251825   -0.723511
      4          6           0        1.345162   -0.000645    1.445885
      5          6           0       -0.792159    0.000015    0.000029
      6          7           0       -1.293299   -1.241228    0.618312
      7          7           0       -1.293311    0.085045   -1.384049
      8          7           0       -1.293438    1.156095    0.765696
      9          1           0        1.076998    2.183351   -0.180333
     10          1           0        2.454811    1.212646   -0.778792
     11          1           0        0.958008    1.321972   -1.760865
     12          1           0        0.958117   -2.185939   -0.264378
     13          1           0        2.454876   -1.280729   -0.660696
     14          1           0        1.077070   -1.247853   -1.800579
     15          1           0        1.077041   -0.935451    1.981021
     16          1           0        2.454831    0.068261    1.439615
     17          1           0        0.958010    0.864010    2.025342
     18          1           0       -1.182522   -1.185001    1.656522
     19          1           0       -2.321794   -1.323606    0.444396
     20          1           0       -1.182477   -0.842122   -1.854536
     21          1           0       -2.321782    0.276855   -1.368448
     22          1           0       -2.321846    1.046528    0.923924
     23          1           0       -1.182614    2.027013    0.197951
 ---------------------------------------------------------------------
 Rotational constants (GHZ):      2.4074296      1.6825804      1.6825660
 Leave Link  202 at Fri Aug 26 14:36:05 2022, MaxMem= 24159191040 cpu:         0.4
 (Enter /public/home/users/caep010/software/Gaussian09/g09/l301.exe)
 Standard basis: GTBas3 (6D, 7F)
 Ernie: Thresh=  0.10000D-02 Tol=  0.10000D-05 Strict=F.
 There are   323 symmetry adapted cartesian basis functions of A   symmetry.
 There are   299 symmetry adapted basis functions of A   symmetry.
   299 basis functions,   457 primitive gaussians,   323 cartesian basis functions
    33 alpha electrons       33 beta electrons
       nuclear repulsion energy       440.7791091542 Hartrees.
 IExCor=  402 DFT=T Ex+Corr=B3LYP ExCW=0 ScaHFX=  0.200000
 ScaDFX=  0.800000  0.720000  1.000000  0.810000 ScalE2=  1.000000  1.000000
 IRadAn=      0 IRanWt=     -1 IRanGd=            0 ICorTp=0 IEmpDi=  4
 NAtoms=   23 NActive=   23 NUniq=   23 SFac= 1.00D+00 NAtFMM=   60 NAOKFM=F Big=F
 Integral buffers will be    131072 words long.
 Raffenetti 2 integral format.
 Two-electron integral symmetry is turned on.
 Leave Link  301 at Fri Aug 26 14:36:05 2022, MaxMem= 24159191040 cpu:         2.0
 (Enter /public/home/users/caep010/software/Gaussian09/g09/l302.exe)
 NPDir=0 NMtPBC=     1 NCelOv=     1 NCel=       1 NClECP=     1 NCelD=      1
         NCelK=      1 NCelE2=     1 NClLst=     1 CellRange=     0.0.
 One-electron integrals computed using PRISM.
 NBasis=   299 RedAO= T EigKep=  3.69D-04  NBF=   299
 NBsUse=   299 1.00D-06 EigRej= -1.00D+00 NBFU=   299
 Precomputing XC quadrature grid using
 IXCGrd= 4 IRadAn=           0 IRanWt=          -1 IRanGd=           0 AccXCQ= 0.00D+00.
 Generated NRdTot=       0 NPtTot=           0 NUsed=           0 NTot=          32
 NSgBfM=   323   323   323   323   323 MxSgAt=    23 MxSgA2=    23.
 Leave Link  302 at Fri Aug 26 14:36:05 2022, MaxMem= 24159191040 cpu:        16.8
 (Enter /public/home/users/caep010/software/Gaussian09/g09/l303.exe)
 DipDrv:  MaxL=1.
 Leave Link  303 at Fri Aug 26 14:36:05 2022, MaxMem= 24159191040 cpu:         2.3
 (Enter /public/home/users/caep010/software/Gaussian09/g09/l401.exe)
 ExpMin= 1.61D-01 ExpMax= 4.17D+03 ExpMxC= 6.27D+02 IAcc=1 IRadAn=         1 AccDes= 0.00D+00
 Harris functional with IExCor=  402 and IRadAn=       1 diagonalized for initial guess.
 HarFok:  IExCor=  402 AccDes= 0.00D+00 IRadAn=         1 IDoV= 1 UseB2=F ITyADJ=14
 ICtDFT=  3500011 ScaDFX=  1.000000  1.000000  1.000000  1.000000
 FoFCou: FMM=F IPFlag=           0 FMFlag=      100000 FMFlg1=           0
         NFxFlg=           0 DoJE=T BraDBF=F KetDBF=T FulRan=T
         wScrn=  0.000000 ICntrl=     500 IOpCl=  0 I1Cent=   200000004 NGrid=           0
         NMat0=    1 NMatS0=      1 NMatT0=    0 NMatD0=    1 NMtDS0=    0 NMtDT0=    0
 Petite list used in FoFCou.
 Harris En= -363.882454593964    
 JPrj=0 DoOrth=F DoCkMO=F.
 Leave Link  401 at Fri Aug 26 14:36:06 2022, MaxMem= 24159191040 cpu:        16.9
 (Enter /public/home/users/caep010/software/Gaussian09/g09/l502.exe)
 Closed shell SCF:
 Using DIIS extrapolation, IDIIS=  1040.
 Integral symmetry usage will be decided dynamically.
 Keep R1 ints in memory in canonical form, NReq=1023133874.
 IVT=      344249 IEndB=      344249 NGot= 24159191040 MDV= 23153063117
 LenX= 23153063117 LenY= 23152958347
 Requested convergence on RMS density matrix=1.00D-08 within 128 cycles.
 Requested convergence on MAX density matrix=1.00D-06.
 Requested convergence on             energy=1.00D-06.
 No special actions if energy rises.
 FoFCou: FMM=F IPFlag=           0 FMFlag=           0 FMFlg1=           0
         NFxFlg=           0 DoJE=F BraDBF=F KetDBF=F FulRan=T
         wScrn=  0.000000 ICntrl=     600 IOpCl=  0 I1Cent=           0 NGrid=           0
         NMat0=    1 NMatS0=  44850 NMatT0=    0 NMatD0=    1 NMtDS0=    0 NMtDT0=    0
 Symmetry not used in FoFCou.
 Integral accuracy reduced to 1.0D-05 until final iterations.

 Cycle   1  Pass 0  IDiag  1:
 E= -363.501848617166    
 DIIS: error= 2.47D-02 at cycle   1 NSaved=   1.
 NSaved= 1 IEnMin= 1 EnMin= -363.501848617166     IErMin= 1 ErrMin= 2.47D-02
 ErrMax= 2.47D-02  0.00D+00 EMaxC= 1.00D-01 BMatC= 3.51D-01 BMatP= 3.51D-01
 IDIUse=3 WtCom= 7.53D-01 WtEn= 2.47D-01
 Coeff-Com:  0.100D+01
 Coeff-En:   0.100D+01
 Coeff:      0.100D+01
 Gap=     0.222 Goal=   None    Shift=    0.000
 GapD=    0.222 DampG=1.000 DampE=0.500 DampFc=0.5000 IDamp=-1.
 Damping current iteration by 5.00D-01
 RMSDP=5.06D-03 MaxDP=1.51D-01              OVMax= 1.80D-01

 Cycle   2  Pass 0  IDiag  1:
 E= -363.636070108618     Delta-E=       -0.134221491452 Rises=F Damp=T
 DIIS: error= 9.64D-03 at cycle   2 NSaved=   2.
 NSaved= 2 IEnMin= 2 EnMin= -363.636070108618     IErMin= 2 ErrMin= 9.64D-03
 ErrMax= 9.64D-03  0.00D+00 EMaxC= 1.00D-01 BMatC= 2.02D-02 BMatP= 3.51D-01
 IDIUse=3 WtCom= 9.04D-01 WtEn= 9.64D-02
 Coeff-Com:  0.127D+00 0.873D+00
 Coeff-En:   0.224D+00 0.776D+00
 Coeff:      0.136D+00 0.864D+00
 Gap=     0.295 Goal=   None    Shift=    0.000
 RMSDP=1.05D-03 MaxDP=4.49D-02 DE=-1.34D-01 OVMax= 1.19D-01

 Cycle   3  Pass 0  IDiag  1:
 E= -363.839128755077     Delta-E=       -0.203058646459 Rises=F Damp=F
 DIIS: error= 3.31D-03 at cycle   3 NSaved=   3.
 NSaved= 3 IEnMin= 3 EnMin= -363.839128755077     IErMin= 3 ErrMin= 3.31D-03
 ErrMax= 3.31D-03  0.00D+00 EMaxC= 1.00D-01 BMatC= 2.89D-03 BMatP= 2.02D-02
 IDIUse=3 WtCom= 9.67D-01 WtEn= 3.31D-02
 Coeff-Com:  0.208D-01 0.231D+00 0.748D+00
 Coeff-En:   0.000D+00 0.000D+00 0.100D+01
 Coeff:      0.201D-01 0.224D+00 0.756D+00
 Gap=     0.292 Goal=   None    Shift=    0.000
 RMSDP=3.39D-04 MaxDP=1.51D-02 DE=-2.03D-01 OVMax= 1.67D-02

 Cycle   4  Pass 0  IDiag  1:
 E= -363.840407104947     Delta-E=       -0.001278349870 Rises=F Damp=F
 DIIS: error= 2.76D-03 at cycle   4 NSaved=   4.
 NSaved= 4 IEnMin= 4 EnMin= -363.840407104947     IErMin= 4 ErrMin= 2.76D-03
 ErrMax= 2.76D-03  0.00D+00 EMaxC= 1.00D-01 BMatC= 1.58D-03 BMatP= 2.89D-03
 IDIUse=3 WtCom= 9.72D-01 WtEn= 2.76D-02
 Coeff-Com: -0.124D-02 0.343D-01 0.428D+00 0.539D+00
 Coeff-En:   0.000D+00 0.000D+00 0.359D+00 0.641D+00
 Coeff:     -0.120D-02 0.333D-01 0.426D+00 0.542D+00
 Gap=     0.296 Goal=   None    Shift=    0.000
 RMSDP=1.53D-04 MaxDP=7.78D-03 DE=-1.28D-03 OVMax= 8.40D-03

 Cycle   5  Pass 0  IDiag  1:
 E= -363.841867564440     Delta-E=       -0.001460459492 Rises=F Damp=F
 DIIS: error= 3.04D-04 at cycle   5 NSaved=   5.
 NSaved= 5 IEnMin= 5 EnMin= -363.841867564440     IErMin= 5 ErrMin= 3.04D-04
 ErrMax= 3.04D-04  0.00D+00 EMaxC= 1.00D-01 BMatC= 2.58D-05 BMatP= 1.58D-03
 IDIUse=3 WtCom= 9.97D-01 WtEn= 3.04D-03
 Coeff-Com: -0.687D-03 0.153D-02 0.123D+00 0.202D+00 0.674D+00
 Coeff-En:   0.000D+00 0.000D+00 0.000D+00 0.000D+00 0.100D+01
 Coeff:     -0.685D-03 0.153D-02 0.123D+00 0.201D+00 0.675D+00
 Gap=     0.296 Goal=   None    Shift=    0.000
 RMSDP=1.96D-05 MaxDP=1.07D-03 DE=-1.46D-03 OVMax= 1.19D-03

 Cycle   6  Pass 0  IDiag  1:
 E= -363.841888265451     Delta-E=       -0.000020701011 Rises=F Damp=F
 DIIS: error= 8.96D-05 at cycle   6 NSaved=   6.
 NSaved= 6 IEnMin= 6 EnMin= -363.841888265451     IErMin= 6 ErrMin= 8.96D-05
 ErrMax= 8.96D-05  0.00D+00 EMaxC= 1.00D-01 BMatC= 2.95D-06 BMatP= 2.58D-05
 IDIUse=1 WtCom= 1.00D+00 WtEn= 0.00D+00
 Coeff-Com: -0.260D-03-0.601D-03 0.489D-01 0.852D-01 0.357D+00 0.510D+00
 Coeff:     -0.260D-03-0.601D-03 0.489D-01 0.852D-01 0.357D+00 0.510D+00
 Gap=     0.296 Goal=   None    Shift=    0.000
 RMSDP=5.50D-06 MaxDP=2.78D-04 DE=-2.07D-05 OVMax= 3.29D-04

 Initial convergence to 1.0D-05 achieved.  Increase integral accuracy.
 Cycle   7  Pass 1  IDiag  1:
 E= -363.841927458341     Delta-E=       -0.000039192890 Rises=F Damp=F
 DIIS: error= 3.63D-05 at cycle   1 NSaved=   1.
 NSaved= 1 IEnMin= 1 EnMin= -363.841927458341     IErMin= 1 ErrMin= 3.63D-05
 ErrMax= 3.63D-05  0.00D+00 EMaxC= 1.00D-01 BMatC= 3.33D-07 BMatP= 3.33D-07
 IDIUse=1 WtCom= 1.00D+00 WtEn= 0.00D+00
 Coeff-Com:  0.100D+01
 Coeff:      0.100D+01
 Gap=     0.296 Goal=   None    Shift=    0.000
 RMSDP=5.50D-06 MaxDP=2.78D-04 DE=-3.92D-05 OVMax= 1.06D-04

 Cycle   8  Pass 1  IDiag  1:
 E= -363.841927707615     Delta-E=       -0.000000249274 Rises=F Damp=F
 DIIS: error= 1.13D-05 at cycle   2 NSaved=   2.
 NSaved= 2 IEnMin= 2 EnMin= -363.841927707615     IErMin= 2 ErrMin= 1.13D-05
 ErrMax= 1.13D-05  0.00D+00 EMaxC= 1.00D-01 BMatC= 7.46D-08 BMatP= 3.33D-07
 IDIUse=1 WtCom= 1.00D+00 WtEn= 0.00D+00
 Coeff-Com:  0.246D+00 0.754D+00
 Coeff:      0.246D+00 0.754D+00
 Gap=     0.296 Goal=   None    Shift=    0.000
 RMSDP=1.40D-06 MaxDP=8.12D-05 DE=-2.49D-07 OVMax= 5.88D-05

 Cycle   9  Pass 1  IDiag  1:
 E= -363.841927739761     Delta-E=       -0.000000032146 Rises=F Damp=F
 DIIS: error= 8.99D-06 at cycle   3 NSaved=   3.
 NSaved= 3 IEnMin= 3 EnMin= -363.841927739761     IErMin= 3 ErrMin= 8.99D-06
 ErrMax= 8.99D-06  0.00D+00 EMaxC= 1.00D-01 BMatC= 4.00D-08 BMatP= 7.46D-08
 IDIUse=1 WtCom= 1.00D+00 WtEn= 0.00D+00
 Coeff-Com: -0.153D-01 0.421D+00 0.594D+00
 Coeff:     -0.153D-01 0.421D+00 0.594D+00
 Gap=     0.296 Goal=   None    Shift=    0.000
 RMSDP=5.91D-07 MaxDP=2.82D-05 DE=-3.21D-08 OVMax= 2.88D-05

 Cycle  10  Pass 1  IDiag  1:
 E= -363.841927772607     Delta-E=       -0.000000032846 Rises=F Damp=F
 DIIS: error= 1.03D-06 at cycle   4 NSaved=   4.
 NSaved= 4 IEnMin= 4 EnMin= -363.841927772607     IErMin= 4 ErrMin= 1.03D-06
 ErrMax= 1.03D-06  0.00D+00 EMaxC= 1.00D-01 BMatC= 6.16D-10 BMatP= 4.00D-08
 IDIUse=1 WtCom= 1.00D+00 WtEn= 0.00D+00
 Coeff-Com: -0.115D-01 0.171D+00 0.264D+00 0.577D+00
 Coeff:     -0.115D-01 0.171D+00 0.264D+00 0.577D+00
 Gap=     0.296 Goal=   None    Shift=    0.000
 RMSDP=8.61D-08 MaxDP=2.78D-06 DE=-3.28D-08 OVMax= 4.00D-06

 Cycle  11  Pass 1  IDiag  1:
 E= -363.841927773161     Delta-E=       -0.000000000554 Rises=F Damp=F
 DIIS: error= 1.73D-07 at cycle   5 NSaved=   5.
 NSaved= 5 IEnMin= 5 EnMin= -363.841927773161     IErMin= 5 ErrMin= 1.73D-07
 ErrMax= 1.73D-07  0.00D+00 EMaxC= 1.00D-01 BMatC= 1.80D-11 BMatP= 6.16D-10
 IDIUse=1 WtCom= 1.00D+00 WtEn= 0.00D+00
 Coeff-Com: -0.377D-02 0.474D-01 0.744D-01 0.208D+00 0.674D+00
 Coeff:     -0.377D-02 0.474D-01 0.744D-01 0.208D+00 0.674D+00
 Gap=     0.296 Goal=   None    Shift=    0.000
 RMSDP=1.94D-08 MaxDP=1.40D-06 DE=-5.54D-10 OVMax= 1.13D-06

 Cycle  12  Pass 1  IDiag  1:
 E= -363.841927773205     Delta-E=       -0.000000000044 Rises=F Damp=F
 DIIS: error= 9.47D-08 at cycle   6 NSaved=   6.
 NSaved= 6 IEnMin= 6 EnMin= -363.841927773205     IErMin= 6 ErrMin= 9.47D-08
 ErrMax= 9.47D-08  0.00D+00 EMaxC= 1.00D-01 BMatC= 3.44D-12 BMatP= 1.80D-11
 IDIUse=1 WtCom= 1.00D+00 WtEn= 0.00D+00
 Coeff-Com: -0.325D-03 0.148D-02 0.261D-02 0.234D-01 0.322D+00 0.651D+00
 Coeff:     -0.325D-03 0.148D-02 0.261D-02 0.234D-01 0.322D+00 0.651D+00
 Gap=     0.296 Goal=   None    Shift=    0.000
 RMSDP=7.23D-09 MaxDP=4.59D-07 DE=-4.40D-11 OVMax= 3.90D-07

 SCF Done:  E(RB3LYP) =  -363.841927773     A.U. after   12 cycles
            NFock= 12  Conv=0.72D-08     -V/T= 2.0096
 KE= 3.603974105448D+02 PE=-1.726590083598D+03 EE= 5.615716361261D+02
 Leave Link  502 at Fri Aug 26 14:36:32 2022, MaxMem= 24159191040 cpu:       197.6
 (Enter /public/home/users/caep010/software/Gaussian09/g09/l601.exe)
 Copying SCF densities to generalized density rwf, IOpCl= 0 IROHF=0.

 **********************************************************************

            Population analysis using the SCF density.

 **********************************************************************

 Orbital symmetries:
       Occupied  (A) (A) (A) (A) (A) (A) (A) (A) (A) (A) (A) (A)
                 (A) (A) (A) (A) (A) (A) (A) (A) (A) (A) (A) (A)
                 (A) (A) (A) (A) (A) (A) (A) (A) (A)
       Virtual   (A) (A) (A) (A) (A) (A) (A) (A) (A) (A) (A) (A)
                 (A) (A) (A) (A) (A) (A) (A) (A) (A) (A) (A) (A)
                 (A) (A) (A) (A) (A) (A) (A) (A) (A) (A) (A) (A)
                 (A) (A) (A) (A) (A) (A) (A) (A) (A) (A) (A) (A)
                 (A) (A) (A) (A) (A) (A) (A) (A) (A) (A) (A) (A)
                 (A) (A) (A) (A) (A) (A) (A) (A) (A) (A) (A) (A)
                 (A) (A) (A) (A) (A) (A) (A) (A) (A) (A) (A) (A)
                 (A) (A) (A) (A) (A) (A) (A) (A) (A) (A) (A) (A)
                 (A) (A) (A) (A) (A) (A) (A) (A) (A) (A) (A) (A)
                 (A) (A) (A) (A) (A) (A) (A) (A) (A) (A) (A) (A)
                 (A) (A) (A) (A) (A) (A) (A) (A) (A) (A) (A) (A)
                 (A) (A) (A) (A) (A) (A) (A) (A) (A) (A) (A) (A)
                 (A) (A) (A) (A) (A) (A) (A) (A) (A) (A) (A) (A)
                 (A) (A) (A) (A) (A) (A) (A) (A) (A) (A) (A) (A)
                 (A) (A) (A) (A) (A) (A) (A) (A) (A) (A) (A) (A)
                 (A) (A) (A) (A) (A) (A) (A) (A) (A) (A) (A) (A)
                 (A) (A) (A) (A) (A) (A) (A) (A) (A) (A) (A) (A)
                 (A) (A) (A) (A) (A) (A) (A) (A) (A) (A) (A) (A)
                 (A) (A) (A) (A) (A) (A) (A) (A) (A) (A) (A) (A)
                 (A) (A) (A) (A) (A) (A) (A) (A) (A) (A) (A) (A)
                 (A) (A) (A) (A) (A) (A) (A) (A) (A) (A) (A) (A)
                 (A) (A) (A) (A) (A) (A) (A) (A) (A) (A) (A) (A)
                 (A) (A)
 The electronic state is 1-A.
 Alpha  occ. eigenvalues --  -14.31250 -14.31249 -14.31247 -10.26310 -10.18795
 Alpha  occ. eigenvalues --  -10.16245 -10.16244 -10.16243  -0.93815  -0.82389
 Alpha  occ. eigenvalues --   -0.82387  -0.78733  -0.66340  -0.66340  -0.61833
 Alpha  occ. eigenvalues --   -0.51591  -0.48149  -0.48148  -0.48109  -0.43506
 Alpha  occ. eigenvalues --   -0.43505  -0.41439  -0.39828  -0.39828  -0.36294
 Alpha  occ. eigenvalues --   -0.36293  -0.34724  -0.31734  -0.30965  -0.30963
 Alpha  occ. eigenvalues --   -0.24786  -0.24785  -0.24374
 Alpha virt. eigenvalues --    0.05234   0.10294   0.10800   0.10802   0.13793
 Alpha virt. eigenvalues --    0.14372   0.14372   0.14577   0.17150   0.17151
 Alpha virt. eigenvalues --    0.18796   0.18796   0.20536   0.20537   0.22032
 Alpha virt. eigenvalues --    0.23621   0.25470   0.25732   0.25734   0.27343
 Alpha virt. eigenvalues --    0.29331   0.29333   0.45777   0.45777   0.48552
 Alpha virt. eigenvalues --    0.48553   0.50325   0.54483   0.55401   0.55402
 Alpha virt. eigenvalues --    0.56978   0.58841   0.59465   0.59466   0.62719
 Alpha virt. eigenvalues --    0.62720   0.62942   0.65743   0.65746   0.67784
 Alpha virt. eigenvalues --    0.71950   0.71952   0.73129   0.73627   0.74580
 Alpha virt. eigenvalues --    0.74581   0.77358   0.77489   0.77490   0.77843
 Alpha virt. eigenvalues --    0.79464   0.79465   0.80301   0.82863   0.86083
 Alpha virt. eigenvalues --    0.86084   0.87531   0.87533   0.90233   0.90607
 Alpha virt. eigenvalues --    0.90786   0.90786   0.93598   0.93600   1.04356
 Alpha virt. eigenvalues --    1.04357   1.05720   1.14973   1.14974   1.19813
 Alpha virt. eigenvalues --    1.27613   1.27619   1.27788   1.34450   1.34454
 Alpha virt. eigenvalues --    1.35167   1.40652   1.41140   1.41762   1.41765
 Alpha virt. eigenvalues --    1.45454   1.45456   1.45581   1.52472   1.55446
 Alpha virt. eigenvalues --    1.55448   1.56109   1.61288   1.62536   1.62538
 Alpha virt. eigenvalues --    1.65126   1.65128   1.66898   1.73100   1.73105
 Alpha virt. eigenvalues --    1.80647   1.82027   1.82030   1.85779   1.85780
 Alpha virt. eigenvalues --    1.87425   1.89873   1.91344   1.91349   1.97252
 Alpha virt. eigenvalues --    1.97603   1.97606   1.99324   1.99325   2.07439
 Alpha virt. eigenvalues --    2.07442   2.14894   2.21836   2.21840   2.23049
 Alpha virt. eigenvalues --    2.28541   2.30428   2.30431   2.31379   2.37427
 Alpha virt. eigenvalues --    2.37429   2.42769   2.48392   2.48394   2.49847
 Alpha virt. eigenvalues --    2.52519   2.52521   2.56155   2.61045   2.61049
 Alpha virt. eigenvalues --    2.69322   2.73442   2.73443   2.75393   2.78579
 Alpha virt. eigenvalues --    2.81152   2.82094   2.82097   2.85848   2.85850
 Alpha virt. eigenvalues --    2.88567   2.88569   2.91036   2.92501   2.92504
 Alpha virt. eigenvalues --    2.94584   2.95425   2.95426   2.95870   2.98908
 Alpha virt. eigenvalues --    3.00132   3.00133   3.05628   3.05631   3.07854
 Alpha virt. eigenvalues --    3.09546   3.11950   3.11952   3.21798   3.21798
 Alpha virt. eigenvalues --    3.23066   3.29340   3.32575   3.32578   3.40101
 Alpha virt. eigenvalues --    3.40103   3.44714   3.45983   3.49893   3.57138
 Alpha virt. eigenvalues --    3.62351   3.62352   3.63827   3.63830   3.67873
 Alpha virt. eigenvalues --    3.69751   3.69756   3.76882   3.80957   3.81350
 Alpha virt. eigenvalues --    3.81352   3.88915   3.88919   3.94765   3.94769
 Alpha virt. eigenvalues --    3.97461   4.06763   4.06770   4.07535   4.10434
 Alpha virt. eigenvalues --    4.14002   4.14004   4.20698   4.20780   4.20783
 Alpha virt. eigenvalues --    4.25976   4.26424   4.26426   4.33174   4.33319
 Alpha virt. eigenvalues --    4.33321   4.38884   4.38886   4.43093   4.44201
 Alpha virt. eigenvalues --    4.45476   4.45478   4.50513   4.50609   4.50610
 Alpha virt. eigenvalues --    4.54390   4.54393   4.57169   4.58269   4.58270
 Alpha virt. eigenvalues --    4.65296   4.65299   4.66143   4.66600   4.66606
 Alpha virt. eigenvalues --    4.72851   4.74728   4.75061   4.75063   4.75913
 Alpha virt. eigenvalues --    4.77500   4.77504   4.80033   4.82313   4.82317
 Alpha virt. eigenvalues --    4.89130   4.89132   4.90576   4.96132   4.96136
 Alpha virt. eigenvalues --    4.96771   4.99925   4.99928   5.00436   5.11356
 Alpha virt. eigenvalues --    5.12610   5.12611   5.20511   5.23320   5.23326
 Alpha virt. eigenvalues --    5.31980   5.50529   5.50532   5.51921   5.57307
 Alpha virt. eigenvalues --    5.61309   5.61314   5.73123   5.73127   5.95130
 Alpha virt. eigenvalues --    9.79888  11.26567  11.26569  11.43828  11.62418
 Alpha virt. eigenvalues --   11.92230  11.92237  12.96514  13.27323  13.27380
 Alpha virt. eigenvalues --   14.21179
          Condensed to atoms (all electrons):
               1          2          3          4          5          6
     1  C    5.110405   0.387070  -0.051656  -0.051605  -0.034349   0.002236
     2  C    0.387070   4.437614   0.387141   0.387023   0.351613  -0.042111
     3  C   -0.051656   0.387141   5.110339  -0.051632  -0.034365  -0.012819
     4  C   -0.051605   0.387023  -0.051632   5.110557  -0.034255  -0.003384
     5  C   -0.034349   0.351613  -0.034365  -0.034255   4.631246   0.401359
     6  N    0.002236  -0.042111  -0.012819  -0.003384   0.401359   6.658732
     7  N   -0.012847  -0.041996  -0.003385   0.002237   0.401512  -0.064436
     8  N   -0.003366  -0.042107   0.002235  -0.012842   0.401429  -0.064361
     9  H    0.358556  -0.020254   0.005612  -0.005644  -0.002840   0.000027
    10  H    0.363733  -0.017015  -0.006992  -0.004403   0.003357  -0.000049
    11  H    0.359123  -0.017392  -0.002977   0.005355  -0.003636   0.000170
    12  H    0.005354  -0.017408   0.359129  -0.002979  -0.003634   0.012255
    13  H   -0.004400  -0.017017   0.363751  -0.006996   0.003357   0.000323
    14  H   -0.005643  -0.020229   0.358554   0.005614  -0.002849   0.000255
    15  H    0.005612  -0.020236  -0.005650   0.358552  -0.002839   0.001859
    16  H   -0.006993  -0.017007  -0.004401   0.363752   0.003353   0.000038
    17  H   -0.002979  -0.017417   0.005354   0.359115  -0.003631  -0.000237
    18  H   -0.000202  -0.001657   0.000913   0.001104  -0.045761   0.318298
    19  H   -0.000230   0.006349   0.000205   0.000032  -0.050878   0.314384
    20  H    0.000914  -0.001654   0.001100  -0.000202  -0.045759   0.000398
    21  H    0.000206   0.006345   0.000033  -0.000231  -0.050869  -0.003254
    22  H    0.000032   0.006351  -0.000230   0.000205  -0.050892   0.001953
    23  H    0.001102  -0.001663  -0.000202   0.000914  -0.045754   0.007402
               7          8          9         10         11         12
     1  C   -0.012847  -0.003366   0.358556   0.363733   0.359123   0.005354
     2  C   -0.041996  -0.042107  -0.020254  -0.017015  -0.017392  -0.017408
     3  C   -0.003385   0.002235   0.005612  -0.006992  -0.002977   0.359129
     4  C    0.002237  -0.012842  -0.005644  -0.004403   0.005355  -0.002979
     5  C    0.401512   0.401429  -0.002840   0.003357  -0.003636  -0.003634
     6  N   -0.064436  -0.064361   0.000027  -0.000049   0.000170   0.012255
     7  N    6.658416  -0.064410   0.000254   0.000323   0.012259  -0.000237
     8  N   -0.064410   6.658481   0.001858   0.000038  -0.000237   0.000169
     9  H    0.000254   0.001858   0.616360  -0.031730  -0.030251  -0.000200
    10  H    0.000323   0.000038  -0.031730   0.612072  -0.030529  -0.000025
    11  H    0.012259  -0.000237  -0.030251  -0.030529   0.579322  -0.000045
    12  H   -0.000237   0.000169  -0.000200  -0.000025  -0.000045   0.579343
    13  H    0.000038  -0.000049  -0.000053   0.003602  -0.000186  -0.030528
    14  H    0.001862   0.000027  -0.000057   0.000244   0.004031  -0.030252
    15  H    0.000027   0.000254  -0.000057  -0.000053  -0.000200   0.004031
    16  H   -0.000049   0.000323   0.000244   0.003601  -0.000025  -0.000186
    17  H    0.000170   0.012255   0.004031  -0.000186  -0.000045  -0.000045
    18  H    0.007401   0.000406   0.000012  -0.000004  -0.000018  -0.000599
    19  H    0.001957  -0.003251   0.000000   0.000003  -0.000009  -0.000467
    20  H    0.318313   0.007401  -0.000045  -0.000027  -0.000599   0.000933
    21  H    0.314401   0.001950  -0.000066   0.000006  -0.000467  -0.000042
    22  H   -0.003246   0.314405  -0.000159   0.000004  -0.000042  -0.000009
    23  H    0.000413   0.318306   0.001650  -0.000048   0.000933  -0.000018
              13         14         15         16         17         18
     1  C   -0.004400  -0.005643   0.005612  -0.006993  -0.002979  -0.000202
     2  C   -0.017017  -0.020229  -0.020236  -0.017007  -0.017417  -0.001657
     3  C    0.363751   0.358554  -0.005650  -0.004401   0.005354   0.000913
     4  C   -0.006996   0.005614   0.358552   0.363752   0.359115   0.001104
     5  C    0.003357  -0.002849  -0.002839   0.003353  -0.003631  -0.045761
     6  N    0.000323   0.000255   0.001859   0.000038  -0.000237   0.318298
     7  N    0.000038   0.001862   0.000027  -0.000049   0.000170   0.007401
     8  N   -0.000049   0.000027   0.000254   0.000323   0.012255   0.000406
     9  H   -0.000053  -0.000057  -0.000057   0.000244   0.004031   0.000012
    10  H    0.003602   0.000244  -0.000053   0.003601  -0.000186  -0.000004
    11  H   -0.000186   0.004031  -0.000200  -0.000025  -0.000045  -0.000018
    12  H   -0.030528  -0.030252   0.004031  -0.000186  -0.000045  -0.000599
    13  H    0.612055  -0.031730   0.000244   0.003601  -0.000025  -0.000027
    14  H   -0.031730   0.616333  -0.000057  -0.000053  -0.000200  -0.000045
    15  H    0.000244  -0.000057   0.616297  -0.031725  -0.030249   0.001648
    16  H    0.003601  -0.000053  -0.031725   0.612051  -0.030533  -0.000048
    17  H   -0.000025  -0.000200  -0.030249  -0.030533   0.579353   0.000933
    18  H   -0.000027  -0.000045   0.001648  -0.000048   0.000933   0.511452
    19  H    0.000006  -0.000066  -0.000159   0.000004  -0.000042  -0.023768
    20  H   -0.000048   0.001649   0.000012  -0.000004  -0.000018  -0.000259
    21  H    0.000004  -0.000159   0.000000   0.000003  -0.000009  -0.000189
    22  H    0.000003   0.000000  -0.000066   0.000006  -0.000467   0.000951
    23  H   -0.000004   0.000012  -0.000045  -0.000027  -0.000599  -0.000259
              19         20         21         22         23
     1  C   -0.000230   0.000914   0.000206   0.000032   0.001102
     2  C    0.006349  -0.001654   0.006345   0.006351  -0.001663
     3  C    0.000205   0.001100   0.000033  -0.000230  -0.000202
     4  C    0.000032  -0.000202  -0.000231   0.000205   0.000914
     5  C   -0.050878  -0.045759  -0.050869  -0.050892  -0.045754
     6  N    0.314384   0.000398  -0.003254   0.001953   0.007402
     7  N    0.001957   0.318313   0.314401  -0.003246   0.000413
     8  N   -0.003251   0.007401   0.001950   0.314405   0.318306
     9  H    0.000000  -0.000045  -0.000066  -0.000159   0.001650
    10  H    0.000003  -0.000027   0.000006   0.000004  -0.000048
    11  H   -0.000009  -0.000599  -0.000467  -0.000042   0.000933
    12  H   -0.000467   0.000933  -0.000042  -0.000009  -0.000018
    13  H    0.000006  -0.000048   0.000004   0.000003  -0.000004
    14  H   -0.000066   0.001649  -0.000159   0.000000   0.000012
    15  H   -0.000159   0.000012   0.000000  -0.000066  -0.000045
    16  H    0.000004  -0.000004   0.000003   0.000006  -0.000027
    17  H   -0.000042  -0.000018  -0.000009  -0.000467  -0.000599
    18  H   -0.023768  -0.000259  -0.000189   0.000951  -0.000259
    19  H    0.535842   0.000950   0.006254   0.006255  -0.000189
    20  H    0.000950   0.511414  -0.023768  -0.000189  -0.000259
    21  H    0.006254  -0.023768   0.535811   0.006256   0.000950
    22  H    0.006255  -0.000189   0.006256   0.535821  -0.023765
    23  H   -0.000189  -0.000259   0.000950  -0.023765   0.511429
 Mulliken charges:
               1
     1  C   -0.420071
     2  C    0.325660
     3  C   -0.420056
     4  C   -0.420285
     5  C    0.215087
     6  N   -0.529038
     7  N   -0.528974
     8  N   -0.528914
     9  H    0.102751
    10  H    0.104077
    11  H    0.125463
    12  H    0.125459
    13  H    0.104079
    14  H    0.102760
    15  H    0.102798
    16  H    0.104073
    17  H    0.125471
    18  H    0.229717
    19  H    0.206818
    20  H    0.229747
    21  H    0.206835
    22  H    0.206825
    23  H    0.229720
 Sum of Mulliken charges =  -0.00000
 Mulliken charges with hydrogens summed into heavy atoms:
               1
     1  C   -0.087780
     2  C    0.325660
     3  C   -0.087759
     4  C   -0.087943
     5  C    0.215087
     6  N   -0.092503
     7  N   -0.092392
     8  N   -0.092370
 Electronic spatial extent (au):  <R**2>=           1010.9148
 Charge=             -0.0000 electrons
 Dipole moment (field-independent basis, Debye):
    X=             -2.1401    Y=             -0.0002    Z=             -0.0002  Tot=              2.1401
 Quadrupole moment (field-independent basis, Debye-Ang):
   XX=            -44.4394   YY=            -53.9448   ZZ=            -53.9435
   XY=              0.0002   XZ=              0.0009   YZ=             -0.0002
 Traceless Quadrupole moment (field-independent basis, Debye-Ang):
   XX=              6.3365   YY=             -3.1689   ZZ=             -3.1676
   XY=              0.0002   XZ=              0.0009   YZ=             -0.0002
 Octapole moment (field-independent basis, Debye-Ang**2):
  XXX=            -33.3909  YYY=              9.5452  ZZZ=              0.5745  XYY=             -6.8720
  XXY=             -0.0013  XXZ=             -0.0009  XZZ=             -6.8725  YZZ=             -9.5470
  YYZ=             -0.5780  XYZ=              0.0003
 Hexadecapole moment (field-independent basis, Debye-Ang**3):
 XXXX=           -537.6489 YYYY=           -365.6162 ZZZZ=           -365.6006 XXXY=              0.0007
 XXXZ=              0.0040 YYYX=            -10.0252 YYYZ=              0.0001 ZZZX=             -2.6860
 ZZZY=              0.0000 XXYY=           -158.7397 XXZZ=           -158.7372 YYZZ=           -121.8688
 XXYZ=             -0.0015 YYXZ=              2.6913 ZZXY=             10.0250
 N-N= 4.407791091542D+02 E-N=-1.726590091161D+03  KE= 3.603974105448D+02
 No NMR shielding tensors so no spin-rotation constants.
 Leave Link  601 at Fri Aug 26 14:36:33 2022, MaxMem= 24159191040 cpu:        13.9
 (Enter /public/home/users/caep010/software/Gaussian09/g09/l701.exe)
 Compute integral first derivatives.
 ... and contract with generalized density number  0.
 Leave Link  701 at Fri Aug 26 14:36:33 2022, MaxMem= 24159191040 cpu:        16.7
 (Enter /public/home/users/caep010/software/Gaussian09/g09/l702.exe)
 L702 exits ... SP integral derivatives will be done elsewhere.
 Leave Link  702 at Fri Aug 26 14:36:33 2022, MaxMem= 24159191040 cpu:         0.5
 (Enter /public/home/users/caep010/software/Gaussian09/g09/l703.exe)
 Compute integral first derivatives, UseDBF=F ICtDFT=           0.
 Integral derivatives from FoFJK, PRISM(SPDF).
 Calling FoFJK, ICntrl=      2127 FMM=F ISym2X=0 I1Cent= 0 IOpClX= 0 NMat=1 NMatS=1 NMatT=0.
 FoFJK:  IHMeth= 1 ICntrl=    2127 DoSepK=F KAlg= 0 I1Cent=   0 FoldK=F
 IRaf=         0 NMat=   1 IRICut=       1 DoRegI=T DoRafI=F ISym2E= 0.
 FoFCou: FMM=F IPFlag=           0 FMFlag=      100000 FMFlg1=         800
         NFxFlg=           0 DoJE=F BraDBF=F KetDBF=F FulRan=T
         wScrn=  0.000000 ICntrl=    2127 IOpCl=  0 I1Cent=           0 NGrid=           0
         NMat0=    1 NMatS0=      1 NMatT0=    0 NMatD0=    1 NMtDS0=    0 NMtDT0=    0
 Symmetry not used in FoFCou.
 Leave Link  703 at Fri Aug 26 14:36:37 2022, MaxMem= 24159191040 cpu:       118.5
 (Enter /public/home/users/caep010/software/Gaussian09/g09/l716.exe)
 Dipole        =-8.41997319D-01-7.39483943D-05-7.02368902D-05
 ***** Axes restored to original set *****
 -------------------------------------------------------------------
 Center     Atomic                   Forces (Hartrees/Bohr)
 Number     Number              X              Y              Z
 -------------------------------------------------------------------
      1        6          -0.002952767   -0.005682005   -0.006075132
      2        6           0.009143306   -0.001354941   -0.001624086
      3        6           0.000122432   -0.002484554    0.008485205
      4        6          -0.000086871    0.008667932   -0.001894676
      5        6          -0.010155721    0.001514072    0.001855884
      6        7          -0.010634798    0.020192056    0.002186351
      7        7          -0.011644660   -0.007480929    0.018207362
      8        7          -0.017272500   -0.007004068   -0.013142438
      9        1           0.003037910   -0.005211086    0.006824187
     10        1          -0.009822595    0.003621763    0.002264779
     11        1           0.004209796    0.010640599   -0.001067219
     12        1           0.000261216   -0.006177185   -0.009686835
     13        1          -0.010673755    0.000797010   -0.000220220
     14        1           0.003736133    0.008265306   -0.000053320
     15        1           0.000500229   -0.004059357   -0.008081946
     16        1          -0.010143784   -0.000055321    0.003570176
     17        1           0.003783409   -0.005658913    0.009249580
     18        1          -0.004492452   -0.020777116    0.002497187
     19        1           0.021230000    0.000337615   -0.007761055
     20        1          -0.004074599    0.009308990   -0.018730168
     21        1           0.022509654   -0.001581494    0.000815202
     22        1           0.020480369   -0.007994229   -0.004848172
     23        1           0.002940050    0.012175855    0.017229353
 -------------------------------------------------------------------
 Cartesian Forces:  Max     0.022509654 RMS     0.009233342
 Leave Link  716 at Fri Aug 26 14:36:37 2022, MaxMem= 24159191040 cpu:         0.9
 (Enter /public/home/users/caep010/software/Gaussian09/g09/l103.exe)

 GradGradGradGradGradGradGradGradGradGradGradGradGradGradGradGradGradGrad
 Berny optimization.
 FormGI is forming the generalized inverse of G from B-inverse, IUseBI=4.
 Internal  Forces:  Max     0.022526446 RMS     0.006049079
 Search for a local minimum.
 Step number   1 out of a maximum of  125
 All quantities printed in internal units (Hartrees-Bohrs-Radians)
 RMS Force = .60491D-02 SwitMx=.10000D-02 MixMth= 1
 Mixed Optimization -- RFO/linear search
 Second derivative matrix not updated -- first step.
 ITU=  0
     Eigenvalues ---    0.00230   0.00230   0.00230   0.00230   0.00707
     Eigenvalues ---    0.00707   0.00707   0.04435   0.04436   0.04436
     Eigenvalues ---    0.04466   0.04466   0.05311   0.05349   0.05349
     Eigenvalues ---    0.05349   0.05491   0.05491   0.05491   0.05747
     Eigenvalues ---    0.05748   0.06962   0.14369   0.14370   0.16000
     Eigenvalues ---    0.16000   0.16000   0.16000   0.16000   0.16000
     Eigenvalues ---    0.16000   0.16000   0.16000   0.16000   0.16000
     Eigenvalues ---    0.16000   0.16000   0.16000   0.16000   0.16356
     Eigenvalues ---    0.16356   0.25046   0.27766   0.27772   0.27772
     Eigenvalues ---    0.32408   0.32408   0.32410   0.32544   0.32546
     Eigenvalues ---    0.32552   0.32596   0.32599   0.32605   0.35209
     Eigenvalues ---    0.35211   0.35211   0.40387   0.40391   0.40399
     Eigenvalues ---    0.40490   0.40492   0.40504
 RFO step:  Lambda=-1.31396657D-02 EMin= 2.30000000D-03
 Linear search not attempted -- first point.
 Iteration  1 RMS(Cart)=  0.06824972 RMS(Int)=  0.00100562
 Iteration  2 RMS(Cart)=  0.00169053 RMS(Int)=  0.00014935
 Iteration  3 RMS(Cart)=  0.00000107 RMS(Int)=  0.00014934
 Iteration  4 RMS(Cart)=  0.00000000 RMS(Int)=  0.00014934
 ITry= 1 IFail=0 DXMaxC= 1.74D-01 DCOld= 1.00D+10 DXMaxT= 3.00D-01 DXLimC= 3.00D+00 Rises=F
 Variable       Old X    -DE/DX   Delta X   Delta X   Delta X     New X
                                 (Linear)    (Quad)   (Total)
    R1        2.92639  -0.00419   0.00000  -0.01442  -0.01442   2.91197
    R2        2.09767  -0.00906   0.00000  -0.02672  -0.02672   2.07095
    R3        2.10104  -0.01055   0.00000  -0.03128  -0.03128   2.06976
    R4        2.09846  -0.01140   0.00000  -0.03367  -0.03367   2.06479
    R5        2.92654  -0.00418   0.00000  -0.01436  -0.01436   2.91217
    R6        2.92639  -0.00411   0.00000  -0.01412  -0.01412   2.91227
    R7        2.99092  -0.00914   0.00000  -0.03467  -0.03467   2.95625
    R8        2.09855  -0.01141   0.00000  -0.03369  -0.03369   2.06486
    R9        2.10100  -0.01054   0.00000  -0.03124  -0.03124   2.06976
   R10        2.09751  -0.00902   0.00000  -0.02660  -0.02660   2.07090
   R11        2.09762  -0.00901   0.00000  -0.02656  -0.02656   2.07106
   R12        2.10104  -0.01058   0.00000  -0.03137  -0.03137   2.06967
   R13        2.09861  -0.01140   0.00000  -0.03366  -0.03366   2.06494
   R14        2.78637  -0.00351   0.00000  -0.00961  -0.00961   2.77676
   R15        2.78634  -0.00336   0.00000  -0.00920  -0.00920   2.77714
   R16        2.78634  -0.00346   0.00000  -0.00946  -0.00946   2.77687
   R17        1.97593  -0.02140   0.00000  -0.05118  -0.05118   1.92475
   R18        1.97730  -0.02253   0.00000  -0.05402  -0.05402   1.92328
   R19        1.97590  -0.02130   0.00000  -0.05095  -0.05095   1.92495
   R20        1.97726  -0.02250   0.00000  -0.05396  -0.05396   1.92330
   R21        1.97715  -0.02243   0.00000  -0.05378  -0.05378   1.92337
   R22        1.97575  -0.02130   0.00000  -0.05093  -0.05093   1.92482
    A1        1.94325   0.00152   0.00000   0.00731   0.00731   1.95056
    A2        1.93059  -0.00238   0.00000  -0.01348  -0.01346   1.91713
    A3        1.94121   0.00003   0.00000   0.00134   0.00134   1.94255
    A4        1.87123   0.00014   0.00000  -0.00144  -0.00142   1.86981
    A5        1.89654  -0.00091   0.00000  -0.00579  -0.00580   1.89074
    A6        1.87838   0.00163   0.00000   0.01222   0.01223   1.89061
    A7        1.88345   0.00121   0.00000   0.01789   0.01741   1.90086
    A8        1.88354   0.00118   0.00000   0.01775   0.01727   1.90081
    A9        1.93707  -0.00119   0.00000  -0.01764  -0.01746   1.91960
   A10        1.88345   0.00117   0.00000   0.01803   0.01756   1.90101
   A11        1.93707  -0.00110   0.00000  -0.01672  -0.01654   1.92053
   A12        1.93705  -0.00108   0.00000  -0.01654  -0.01635   1.92070
   A13        1.94116   0.00011   0.00000   0.00187   0.00187   1.94303
   A14        1.93059  -0.00246   0.00000  -0.01404  -0.01402   1.91656
   A15        1.94329   0.00153   0.00000   0.00745   0.00745   1.95074
   A16        1.87831   0.00162   0.00000   0.01204   0.01206   1.89036
   A17        1.89651  -0.00092   0.00000  -0.00561  -0.00562   1.89090
   A18        1.87134   0.00015   0.00000  -0.00158  -0.00156   1.86978
   A19        1.94335   0.00164   0.00000   0.00810   0.00811   1.95146
   A20        1.93066  -0.00249   0.00000  -0.01427  -0.01425   1.91641
   A21        1.94118   0.00005   0.00000   0.00147   0.00147   1.94265
   A22        1.87129   0.00013   0.00000  -0.00161  -0.00159   1.86970
   A23        1.89646  -0.00095   0.00000  -0.00574  -0.00575   1.89071
   A24        1.87825   0.00166   0.00000   0.01218   0.01219   1.89044
   A25        1.91760  -0.00157   0.00000  -0.01927  -0.01906   1.89854
   A26        1.91759  -0.00168   0.00000  -0.01988  -0.01968   1.89791
   A27        1.91767  -0.00160   0.00000  -0.01951  -0.01931   1.89836
   A28        1.90355   0.00167   0.00000   0.02004   0.01944   1.92298
   A29        1.90365   0.00159   0.00000   0.01951   0.01890   1.92255
   A30        1.90359   0.00167   0.00000   0.01998   0.01937   1.92296
   A31        1.91248  -0.00031   0.00000  -0.00450  -0.00456   1.90792
   A32        1.90780  -0.00303   0.00000  -0.02022  -0.02029   1.88751
   A33        1.84773   0.00086   0.00000  -0.00081  -0.00097   1.84676
   A34        1.91263  -0.00025   0.00000  -0.00402  -0.00408   1.90855
   A35        1.90780  -0.00293   0.00000  -0.01948  -0.01954   1.88826
   A36        1.84778   0.00081   0.00000  -0.00080  -0.00094   1.84684
   A37        1.90773  -0.00300   0.00000  -0.01994  -0.02001   1.88772
   A38        1.91251  -0.00025   0.00000  -0.00404  -0.00410   1.90841
   A39        1.84788   0.00084   0.00000  -0.00070  -0.00084   1.84704
    D1       -3.02823  -0.00116   0.00000  -0.01533  -0.01541  -3.04365
    D2       -0.99709   0.00145   0.00000   0.02439   0.02449  -0.97260
    D3        1.12895   0.00016   0.00000   0.00460   0.00461   1.13356
    D4       -0.94945  -0.00156   0.00000  -0.02124  -0.02133  -0.97078
    D5        1.08169   0.00105   0.00000   0.01848   0.01857   1.10027
    D6       -3.07545  -0.00025   0.00000  -0.00131  -0.00131  -3.07676
    D7        1.13698  -0.00107   0.00000  -0.01392  -0.01401   1.12296
    D8       -3.11507   0.00155   0.00000   0.02580   0.02589  -3.08918
    D9       -0.98902   0.00025   0.00000   0.00601   0.00601  -0.98302
   D10       -3.11506   0.00156   0.00000   0.02580   0.02588  -3.08918
   D11        1.08182   0.00107   0.00000   0.01871   0.01881   1.10063
   D12       -0.99712   0.00151   0.00000   0.02509   0.02519  -0.97194
   D13        1.13692  -0.00107   0.00000  -0.01374  -0.01384   1.12308
   D14       -0.94938  -0.00155   0.00000  -0.02082  -0.02091  -0.97029
   D15       -3.02833  -0.00111   0.00000  -0.01445  -0.01453  -3.04286
   D16       -0.98906   0.00019   0.00000   0.00530   0.00529  -0.98377
   D17       -3.07536  -0.00029   0.00000  -0.00178  -0.00178  -3.07715
   D18        1.12888   0.00014   0.00000   0.00459   0.00460   1.13347
   D19       -3.02827  -0.00117   0.00000  -0.01579  -0.01587  -3.04414
   D20       -0.94930  -0.00159   0.00000  -0.02193  -0.02202  -0.97133
   D21        1.13698  -0.00113   0.00000  -0.01509  -0.01518   1.12180
   D22       -0.99713   0.00147   0.00000   0.02384   0.02394  -0.97319
   D23        1.08184   0.00105   0.00000   0.01770   0.01779   1.09963
   D24       -3.11506   0.00151   0.00000   0.02454   0.02463  -3.09043
   D25        1.12886   0.00019   0.00000   0.00469   0.00469   1.13356
   D26       -3.07536  -0.00022   0.00000  -0.00146  -0.00146  -3.07681
   D27       -0.98907   0.00024   0.00000   0.00539   0.00538  -0.98369
   D28        3.08055   0.00125   0.00000   0.07974   0.07975  -3.12289
   D29        0.98625   0.00123   0.00000   0.07952   0.07952   1.06577
   D30       -1.10815   0.00122   0.00000   0.07953   0.07953  -1.02862
   D31        0.98619   0.00125   0.00000   0.08002   0.08002   1.06621
   D32       -1.10812   0.00123   0.00000   0.07980   0.07980  -1.02832
   D33        3.08067   0.00122   0.00000   0.07981   0.07980  -3.12271
   D34       -1.10816   0.00123   0.00000   0.07940   0.07941  -1.02876
   D35        3.08072   0.00121   0.00000   0.07918   0.07919  -3.12328
   D36        0.98632   0.00120   0.00000   0.07919   0.07919   1.06551
   D37        1.32009   0.00011   0.00000  -0.00896  -0.00900   1.31108
   D38       -2.94550  -0.00074   0.00000  -0.02381  -0.02377  -2.96927
   D39       -2.86028  -0.00188   0.00000  -0.03272  -0.03292  -2.89320
   D40       -0.84269  -0.00273   0.00000  -0.04757  -0.04768  -0.89037
   D41       -0.78290   0.00206   0.00000   0.01467   0.01479  -0.76811
   D42        1.23470   0.00120   0.00000  -0.00018   0.00002   1.23472
   D43        1.31998   0.00010   0.00000  -0.00847  -0.00850   1.31147
   D44       -2.94546  -0.00071   0.00000  -0.02263  -0.02259  -2.96806
   D45       -0.78285   0.00203   0.00000   0.01491   0.01504  -0.76781
   D46        1.23489   0.00121   0.00000   0.00075   0.00095   1.23584
   D47       -2.86027  -0.00185   0.00000  -0.03218  -0.03239  -2.89266
   D48       -0.84253  -0.00267   0.00000  -0.04635  -0.04647  -0.88900
   D49       -2.94549  -0.00076   0.00000  -0.02342  -0.02338  -2.96887
   D50        1.31995   0.00006   0.00000  -0.00911  -0.00915   1.31080
   D51       -0.84254  -0.00269   0.00000  -0.04690  -0.04702  -0.88956
   D52       -2.86029  -0.00187   0.00000  -0.03260  -0.03279  -2.89308
   D53        1.23481   0.00124   0.00000   0.00053   0.00073   1.23554
   D54       -0.78293   0.00206   0.00000   0.01484   0.01495  -0.76798
         Item               Value     Threshold  Converged?
 Maximum Force            0.022526     0.000450     NO 
 RMS     Force            0.006049     0.000300     NO 
 Maximum Displacement     0.173525     0.001800     NO 
 RMS     Displacement     0.067970     0.001200     NO 
 Predicted change in Energy=-7.315572D-03
 Lowest energy point so far.  Saving SCF results.
 GradGradGradGradGradGradGradGradGradGradGradGradGradGradGradGradGradGrad

 Leave Link  103 at Fri Aug 26 14:36:38 2022, MaxMem= 24159191040 cpu:         3.8
 (Enter /public/home/users/caep010/software/Gaussian09/g09/l202.exe)
                          Input orientation:                          
 ---------------------------------------------------------------------
 Center     Atomic      Atomic             Coordinates (Angstroms)
 Number     Number       Type             X           Y           Z
 ---------------------------------------------------------------------
      1          6           0        0.819002   -0.887259   -1.420424
      2          6           0        0.631196   -0.090294   -0.115015
      3          6           0        1.272938   -0.874794    1.045836
      4          6           0        1.343326    1.269412   -0.253165
      5          6           0       -0.892607    0.128246    0.163477
      6          7           0       -1.040278    0.911381    1.397991
      7          7           0       -1.537803   -1.183427    0.314988
      8          7           0       -1.481017    0.854602   -0.970315
      9          1           0        0.466696   -0.326037   -2.293296
     10          1           0        1.882450   -1.096060   -1.578822
     11          1           0        0.283625   -1.839082   -1.384868
     12          1           0        1.116198   -0.369192    2.001735
     13          1           0        2.351347   -0.968682    0.879006
     14          1           0        0.868550   -1.890435    1.122556
     15          1           0        1.323795    1.836421    0.684514
     16          1           0        2.395567    1.112413   -0.513263
     17          1           0        0.884127    1.880587   -1.033959
     18          1           0       -0.806553    1.884656    1.209540
     19          1           0       -2.023794    0.908038    1.659748
     20          1           0       -1.299216   -1.573849    1.225080
     21          1           0       -2.545593   -1.042003    0.329378
     22          1           0       -2.424152    1.136385   -0.711432
     23          1           0       -1.587604    0.219274   -1.759290
 ---------------------------------------------------------------------
                    Distance matrix (angstroms):
                    1          2          3          4          5
     1  C    0.000000
     2  C    1.540948   0.000000
     3  C    2.507719   1.541054   0.000000
     4  C    2.507716   1.541108   2.507983   0.000000
     5  C    2.543541   1.564382   2.544451   2.544650   0.000000
     6  N    3.825636   2.467055   2.943705   2.921655   1.469398
     7  N    2.941751   2.466658   2.920559   3.826241   1.469599
     8  N    2.920063   2.466943   3.826218   2.943345   1.469457
     9  H    1.095899   2.197168   3.478644   2.734241   2.844260
    10  H    1.095267   2.172541   2.703571   2.764684   3.497924
    11  H    1.092639   2.188971   2.795874   3.473679   2.766094
    12  H    3.473888   2.189439   1.092677   2.796638   2.768020
    13  H    2.764434   2.172226   1.095269   2.703143   3.498352
    14  H    2.734148   2.197368   1.095875   3.478886   2.845448
    15  H    3.479082   2.197992   2.735658   1.095957   2.846362
    16  H    2.703181   2.172121   2.764069   1.095222   3.498378
    17  H    2.795455   2.189248   3.474025   1.092721   2.767912
    18  H    4.152428   2.778848   3.459140   2.672080   2.046125
    19  H    4.559829   3.345955   3.797870   3.889386   2.031375
    20  H    3.457882   2.779079   2.671476   4.153597   2.046817
    21  H    3.795556   3.345926   3.888759   4.561324   2.032085
    22  H    3.887911   3.345983   4.560845   3.797577   2.031611
    23  H    2.670393   2.778947   4.153122   3.458547   2.046544
                    6          7          8          9         10
     6  N    0.000000
     7  N    2.410114   0.000000
     8  N    2.409636   2.410143   0.000000
     9  H    4.174659   3.399453   2.633966   0.000000
    10  H    4.629641   3.910535   3.935515   1.762887   0.000000
    11  H    4.130626   2.576236   3.246806   1.774278   1.773680
    12  H    2.579683   3.248357   4.132346   4.344078   3.733078
    13  H    3.912429   3.935699   4.629403   3.745451   2.505396
    14  H    3.401420   2.634874   4.175620   3.778475   2.992736
    15  H    2.636966   4.176695   3.401381   3.778650   3.746229
    16  H    3.936792   4.629069   3.911939   2.993026   2.505207
    17  H    3.249166   4.132020   2.578876   2.574756   3.186527
    18  H    1.018532   3.278428   2.503533   4.333381   4.887778
    19  H    1.017758   2.533534   2.686018   4.832395   5.455592
    20  H    2.504658   1.018637   3.278747   4.129704   4.267687
    21  H    2.687678   1.017766   2.533700   4.057697   4.822003
    22  H    2.532864   2.687132   1.017804   3.605270   4.927778
    23  H    3.278262   2.504532   1.018570   2.191501   3.715367
                   11         12         13         14         15
    11  H    0.000000
    12  H    3.784552   0.000000
    13  H    3.187193   1.773556   0.000000
    14  H    2.575256   1.774392   1.762849   0.000000
    15  H    4.344377   2.577381   2.993708   3.780024   0.000000
    16  H    3.732468   3.187029   2.504261   3.744968   1.762824
    17  H    3.784135   3.785605   3.732359   4.344123   1.774375
    18  H    4.667512   3.066656   4.268855   4.130963   2.194621
    19  H    4.705373   3.407025   4.824261   4.060256   3.608231
    20  H    3.063913   2.808669   3.716532   2.193159   4.336166
    21  H    3.402711   4.081442   4.928234   3.606291   4.835660
    22  H    4.079090   4.707666   5.455840   4.833946   4.060274
    23  H    2.806871   4.669278   4.887452   4.334582   4.130809
                   16         17         18         19         20
    16  H    0.000000
    17  H    1.773602   0.000000
    18  H    3.717254   2.809218   0.000000
    19  H    4.928944   4.081411   1.624237   0.000000
    20  H    4.887664   4.669408   3.493453   2.621776   0.000000
    21  H    5.455878   4.707781   3.516288   2.417606   1.624376
    22  H    4.823850   3.406255   2.620433   2.415559   3.515811
    23  H    4.268013   3.065211   3.492491   3.514894   3.493555
                   21         22         23
    21  H    0.000000
    22  H    2.417314   0.000000
    23  H    2.621278   1.624473   0.000000
 Stoichiometry    C5H15N3
 Framework group  C1[X(C5H15N3)]
 Deg. of freedom    63
 Full point group                 C1      NOp   1
 RotChk:  IX=1 Diff= 1.80D+00
 Largest Abelian subgroup         C1      NOp   1
 Largest concise Abelian subgroup C1      NOp   1
                         Standard orientation:                         
 ---------------------------------------------------------------------
 Center     Atomic      Atomic             Coordinates (Angstroms)
 Number     Number       Type             X           Y           Z
 ---------------------------------------------------------------------
      1          6           0        1.306320   -0.435776   -1.381024
      2          6           0        0.779932    0.000076    0.000087
      3          6           0        1.308143   -0.978075    1.067356
      4          6           0        1.308328    1.413639    0.312582
      5          6           0       -0.784450    0.000113    0.000381
      6          7           0       -1.257202    0.443555    1.319091
      7          7           0       -1.256729   -1.363995   -0.275090
      8          7           0       -1.257403    0.920590   -1.042854
      9          1           0        1.040011    0.284312   -2.163039
     10          1           0        2.399553   -0.498859   -1.359262
     11          1           0        0.911392   -1.413968   -1.665683
     12          1           0        0.914860   -0.736034    2.057653
     13          1           0        2.401403   -0.926739    1.109326
     14          1           0        1.042401   -2.015518    0.834901
     15          1           0        1.043367    1.732317    1.327156
     16          1           0        2.401497    1.424147    0.246387
     17          1           0        0.914543    2.149600   -0.392637
     18          1           0       -1.131917    1.451060    1.400613
     19          1           0       -2.261332    0.284286    1.365866
     20          1           0       -1.131662   -1.938873    0.556472
     21          1           0       -2.260724   -1.325865   -0.437528
     22          1           0       -2.261500    1.041157   -0.928054
     23          1           0       -1.132200    0.488054   -1.956485
 ---------------------------------------------------------------------
 Rotational constants (GHZ):      2.4050119      1.7416780      1.7414321
 Leave Link  202 at Fri Aug 26 14:36:38 2022, MaxMem= 24159191040 cpu:         0.3
 (Enter /public/home/users/caep010/software/Gaussian09/g09/l301.exe)
 Standard basis: GTBas3 (6D, 7F)
 Ernie: Thresh=  0.10000D-02 Tol=  0.10000D-05 Strict=F.
 There are   323 symmetry adapted cartesian basis functions of A   symmetry.
 There are   299 symmetry adapted basis functions of A   symmetry.
   299 basis functions,   457 primitive gaussians,   323 cartesian basis functions
    33 alpha electrons       33 beta electrons
       nuclear repulsion energy       445.7082995388 Hartrees.
 IExCor=  402 DFT=T Ex+Corr=B3LYP ExCW=0 ScaHFX=  0.200000
 ScaDFX=  0.800000  0.720000  1.000000  0.810000 ScalE2=  1.000000  1.000000
 IRadAn=      0 IRanWt=     -1 IRanGd=            0 ICorTp=0 IEmpDi=  4
 NAtoms=   23 NActive=   23 NUniq=   23 SFac= 1.00D+00 NAtFMM=   60 NAOKFM=F Big=F
 Integral buffers will be    131072 words long.
 Raffenetti 2 integral format.
 Two-electron integral symmetry is turned on.
 Leave Link  301 at Fri Aug 26 14:36:38 2022, MaxMem= 24159191040 cpu:         1.6
 (Enter /public/home/users/caep010/software/Gaussian09/g09/l302.exe)
 NPDir=0 NMtPBC=     1 NCelOv=     1 NCel=       1 NClECP=     1 NCelD=      1
         NCelK=      1 NCelE2=     1 NClLst=     1 CellRange=     0.0.
 One-electron integrals computed using PRISM.
 NBasis=   299 RedAO= T EigKep=  3.64D-04  NBF=   299
 NBsUse=   299 1.00D-06 EigRej= -1.00D+00 NBFU=   299
 Precomputing XC quadrature grid using
 IXCGrd= 4 IRadAn=           0 IRanWt=          -1 IRanGd=           0 AccXCQ= 0.00D+00.
 Generated NRdTot=       0 NPtTot=           0 NUsed=           0 NTot=          32
 NSgBfM=   323   323   323   323   323 MxSgAt=    23 MxSgA2=    23.
 Leave Link  302 at Fri Aug 26 14:36:38 2022, MaxMem= 24159191040 cpu:        15.8
[...]
 .00013956,0.00208781,0.00779530,-0.00043359,-0.01045519,-0.03084305,-0
 .00116027,0.08191998,-0.00013236,0.00064542,-0.00137312,-0.00645756,-0
 .01633088,-0.00088981,-0.08135755,-0.27801470,-0.00353094,0.00300858,-
 0.00097817,0.00309128,-0.00208170,-0.00181118,0.00029801,0.00071544,0.
 00033584,0.00004218,-0.00131303,0.00094734,0.00018468,0.00040577,0.000
 55057,-0.00025267,0.00017781,0.00024944,-0.00011077,-0.00005156,0.0000
 1721,0.00019900,0.00012416,0.00063807,0.00069105,-0.00478647,-0.011222
 60,0.00072606,0.00038245,0.00116275,-0.00027090,0.09102099,0.30385392,
 0.00074835,0.00092937,0.00143600,0.00998823,0.02239836,-0.00062844,-0.
 00135697,-0.00588193,-0.04793791,-0.00315081,0.00241520,-0.00396639,0.
 00070969,-0.00009944,0.00013628,0.00040302,-0.00007798,0.00005878,-0.0
 0004701,-0.00032091,0.00059257,0.00008510,-0.00012750,0.00005107,-0.00
 002442,-0.00022439,0.00034219,0.00015018,-0.00003872,-0.00008068,-0.00
 032143,-0.00030050,-0.00030442,-0.01154953,-0.02642508,0.00124036,0.00
 158976,0.00431291,-0.00073056,0.00192229,0.00212118,0.04930535,-0.0014
 5532,-0.00215273,0.00064164,-0.00067751,-0.00616426,-0.01444397,0.0003
 9215,0.00080016,-0.00021657,-0.04653249,-0.00248980,-0.00685650,0.0008
 5473,-0.00044550,-0.00177912,-0.00059391,0.00052464,0.00045511,0.00006
 876,0.00036476,0.00040873,-0.00053265,0.00010545,0.00053435,-0.0001239
 0,0.00008746,0.00025902,0.00030320,-0.00034530,-0.00014572,0.00061296,
 -0.00069106,-0.00068048,0.00034538,-0.00021194,0.00031202,-0.00009332,
 0.00008807,0.00027475,-0.00020466,0.00010119,-0.00005686,0.04893714,-0
 .00405534,-0.00527740,0.00174902,0.00106380,-0.01297639,-0.02579731,0.
 00018467,0.00126135,-0.00146777,-0.00317861,-0.09919912,-0.10204366,0.
 00115137,-0.00045982,-0.00117392,0.00071381,0.00064025,0.00026918,-0.0
 0000644,0.00031369,0.00025756,0.00010902,0.00013148,0.00014287,-0.0000
 8031,0.00022848,0.00001077,0.00004986,0.00021767,0.00026501,0.00016569
 ,-0.00108876,-0.00197061,-0.00019016,-0.00022316,0.00081430,0.00021843
 ,-0.00016702,0.00000333,-0.00002477,0.00045736,0.00014097,0.00485133,0
 .10825499,-0.00032743,0.00027331,0.00087716,-0.00046250,0.00147546,0.0
 0161420,-0.00008065,0.00066030,0.00079965,-0.00828376,-0.10480683,-0.2
 5546464,0.00054377,-0.00104122,-0.00113791,0.00171855,-0.00028316,0.00
 017089,-0.00029322,0.00027557,0.00026786,-0.00048273,0.00007354,0.0003
 6796,0.00017896,0.00014287,0.00036361,0.00005032,0.00013764,0.00001173
 ,0.00013044,-0.00008905,0.00022129,0.00012536,-0.00010076,0.00032431,0
 .00002834,-0.00016609,-0.00003110,-0.00000608,-0.00003859,0.00021216,0
 .00663129,0.11555158,0.27733735,0.00049702,0.00131864,0.00054240,-0.01
 621072,0.00242455,0.00421404,0.00015984,0.00085657,-0.00056934,-0.2768
 1729,0.03633675,0.07474306,0.00124833,-0.00258015,-0.00049642,0.000308
 61,0.00007415,-0.00009521,-0.00112195,-0.00019743,-0.00017585,-0.00016
 322,-0.00030281,0.00018633,-0.00021889,-0.00000759,-0.00015864,0.00057
 353,-0.00063240,-0.00046050,0.00040577,0.00004850,0.00002078,0.0000472
 7,0.00007449,-0.00009314,0.00079763,-0.00043381,0.00049232,0.00031625,
 -0.00012125,-0.00012426,0.00141087,-0.00002145,-0.00058653,0.30231358,
 -0.00081904,0.00146338,0.00075668,-0.02887546,0.00248461,0.00894741,-0
 .00096859,0.00126584,-0.00062958,0.03843337,-0.05085796,-0.01185005,0.
 00033028,-0.00612623,0.00001578,0.00061910,-0.00011048,-0.00013801,-0.
 00220241,0.00020983,-0.00003200,0.00050967,0.00055657,0.00009478,0.000
 14897,0.00001031,-0.00015724,0.00037888,-0.00038927,-0.00027612,0.0001
 7695,0.00025696,0.00030383,0.00005031,-0.00006903,0.00000600,0.0004762
 2,-0.00009365,0.00017329,0.00020689,0.00017372,-0.00027797,0.01365437,
 -0.00276380,-0.00342681,-0.03806670,0.05682449,-0.00099899,-0.00044897
 ,0.00038288,0.00175252,-0.00063621,-0.00179312,0.00095405,-0.00044822,
 -0.00016991,0.07516387,-0.01108883,-0.06963243,-0.00064465,0.00002394,
 -0.00108867,0.00068130,0.00003533,0.00030044,0.00014102,0.00017028,0.0
 0024336,-0.00051262,-0.00045473,0.00030197,-0.00016504,0.00013116,-0.0
 0001464,-0.00009451,-0.00018400,0.00034080,-0.00001115,0.00012966,-0.0
 0016484,0.00007578,0.00002574,0.00005992,-0.00027708,0.00046091,0.0000
 0047,-0.00030308,-0.00001921,0.00004661,0.02801006,-0.00438814,-0.0086
 7161,-0.08270490,0.01344326,0.07256051,-0.00006110,0.00058739,0.000325
 51,0.00737476,-0.00872763,0.01062256,-0.00171389,-0.00280317,0.0000363
 8,-0.10261071,0.07511115,-0.08182894,0.00075709,-0.00036786,0.00137653
 ,-0.00028663,0.00002120,-0.00030374,0.00011439,0.00035040,-0.00040861,
 -0.00193239,-0.00087649,-0.00027947,0.00037590,0.00005511,-0.00013141,
 -0.00000758,0.00001081,-0.00009281,-0.00000325,0.00002400,0.00011806,-
 0.00003895,0.00008319,-0.00013449,0.00031785,-0.00018296,-0.00004062,0
 .00073033,-0.00079049,0.00070633,-0.00036026,-0.00093662,0.00134548,-0
 .01310725,0.01719208,-0.02061889,0.10988522,0.00063561,0.00088025,0.00
 145596,0.01392133,-0.01679332,0.01910498,-0.00355350,-0.00518887,-0.00
 097219,0.07252807,-0.14036518,0.10140925,0.00163571,-0.00058202,0.0013
 3501,-0.00024662,0.00024618,-0.00031571,-0.00002141,0.00032682,-0.0002
 7322,0.00082096,0.00065615,-0.00062575,-0.00012347,-0.00004839,-0.0010
 0430,-0.00012379,0.00002503,0.00000035,-0.00024309,0.00032037,-0.00021
 891,-0.00006807,0.00005201,0.00015376,-0.00017789,0.00020896,-0.000389
 99,0.00056696,-0.00104666,0.00178893,-0.00799350,0.00975055,-0.0097932
 2,0.00179208,-0.00307085,0.00267548,-0.07942184,0.15403036,0.00047141,
 -0.00048907,0.00069350,0.00029900,0.00140794,-0.00297531,0.00082988,0.
 00075855,0.00090927,-0.08012182,0.10287926,-0.16349341,-0.00111411,0.0
 0142626,-0.00027386,0.00031510,0.00022470,0.00005414,0.00022703,-0.000
 26455,-0.00005932,-0.00113520,-0.00124764,-0.00018239,-0.00014971,0.00
 000059,0.00020342,-0.00003356,-0.00007381,0.00002449,0.00002819,0.0001
 1339,0.00003091,-0.00008209,-0.00024716,0.00033063,-0.00009608,-0.0001
 7579,-0.00002525,-0.00027515,0.00033898,0.00006070,-0.01365622,0.01750
 638,-0.01732204,0.00510583,-0.00746885,0.00748180,0.08912605,-0.114252
 20,0.17514785,-0.00040390,-0.00041865,0.00019275,0.00068275,0.00104396
 ,-0.00005369,-0.00070327,-0.00007533,0.00000930,-0.00048786,0.00089064
 ,0.00189337,0.00032313,-0.00040394,-0.00769491,-0.06103944,-0.06264015
 ,0.03758912,0.00215592,0.00052892,0.00013939,0.00001091,0.00100907,0.0
 0193544,0.00007592,0.00004657,-0.00005169,-0.00009219,0.00008624,0.000
 03157,0.00001810,-0.00019073,-0.00016244,0.00024604,0.00022278,0.00008
 436,-0.00016239,0.00017958,0.00005218,0.00007355,-0.00017383,0.0000022
 2,-0.00250449,-0.00018098,-0.00041395,-0.00003991,-0.00056530,-0.00056
 359,0.00014620,0.00001244,0.00027787,0.07289069,0.00011672,0.00002826,
 -0.00008134,0.00006523,-0.00073457,-0.00046045,0.00005561,-0.00008347,
 -0.00008622,-0.00086040,-0.00022264,-0.00052981,-0.00476251,-0.0217868
 1,0.01245148,-0.09915220,-0.37657708,0.06515971,-0.00015673,-0.0052506
 1,-0.00572923,-0.00014319,0.00267990,0.00233363,0.00003346,0.00002396,
 -0.00005957,0.00003539,0.00004416,-0.00001068,-0.00012251,0.00013845,0
 .00020720,-0.00001286,-0.00011951,0.00004216,0.00005512,0.00003411,-0.
 00003776,-0.00010241,0.00019981,-0.00002128,0.00003784,0.00081184,0.00
 076758,-0.00020273,0.00034403,0.00048885,0.00013453,0.00019410,-0.0000
 8105,0.09955739,0.39893976,-0.00013031,-0.00001793,-0.00001294,-0.0001
 2725,0.00012316,0.00018225,-0.00037072,0.00004466,0.00009522,0.0015031
 8,-0.00006033,0.00088319,-0.01053050,-0.02994161,0.00531784,0.05413681
 ,0.09990562,-0.06033224,-0.00041225,-0.00675290,-0.00310044,-0.0001546
 2,0.00098275,0.00224284,0.00005942,-0.00000626,-0.00012707,-0.00002686
 ,0.00005000,-0.00001765,-0.00004726,0.00000332,0.00004822,0.00013851,0
 .00018127,-0.00000182,-0.00006539,0.00006885,0.00007194,0.00001764,0.0
 0001814,-0.00014636,-0.00001051,-0.00025397,-0.00011920,-0.00016859,0.
 00012320,-0.00040745,0.00045089,0.00020518,-0.00085386,-0.04275277,-0.
 07576791,0.06084443,-0.00077729,-0.00007238,-0.00030417,0.00178221,0.0
 0085378,0.00179720,0.00017670,-0.00022600,0.00036725,0.00004937,0.0003
 0934,-0.00041981,-0.01013437,-0.00075308,-0.00482054,-0.38993608,-0.01
 416797,0.12273597,0.00307847,-0.00058556,-0.00198061,0.00136619,-0.001
 22300,-0.00120481,-0.00002183,-0.00002146,0.00010367,0.00011558,0.0001
 9490,0.00032885,0.00003643,0.00016816,0.00007439,0.00014369,-0.0002318
 1,0.00008867,-0.00000395,0.00005631,-0.00006791,-0.00005503,0.00019720
 ,0.00004196,0.00017163,0.00022364,0.00027314,0.00002746,0.00002688,0.0
 0014785,-0.00001776,-0.00009265,0.00012644,-0.01089802,0.00534244,-0.0
 0151929,0.40466425,0.00189903,0.00009002,0.00008040,-0.00088943,-0.003
 24587,-0.00437954,-0.00010829,0.00026945,-0.00038634,-0.00103415,-0.00
 032149,-0.00017916,0.02584116,-0.00040948,-0.00541613,0.00446079,-0.05
 312154,-0.01742272,-0.00027638,0.00243966,0.00268958,-0.00048618,-0.00
 039319,0.00106548,-0.00004191,0.00000017,-0.00003817,0.00014006,-0.000
 30905,-0.00059054,0.00002528,-0.00006574,-0.00002236,-0.00011099,0.000
 14432,-0.00003778,0.00004010,-0.00010708,0.00006241,0.00011367,-0.0001
 7164,-0.00004405,0.00005776,0.00019256,0.00058387,0.00002315,0.0002366
 7,0.00025047,0.00009876,0.00004827,-0.00019066,-0.03836191,0.00021193,
 0.01131257,0.00877408,0.05575518,0.00122697,-0.00008754,0.00043469,-0.
 00141278,-0.00220795,-0.00342870,-0.00025978,0.00026405,-0.00003426,-0
 .00066349,-0.00042251,-0.00003684,0.03365694,-0.00291418,-0.01526701,0
 .07679187,-0.01227172,-0.04465446,-0.00064308,0.00328622,0.00096996,0.
 00092443,-0.00023232,0.00163952,0.00000561,0.00005358,-0.00007564,0.00
 000373,-0.00021278,-0.00035006,-0.00001858,-0.00003976,-0.00000770,0.0
 0021867,-0.00029339,0.00038590,0.00000681,0.00002696,0.00008238,-0.000
 03226,0.00008213,0.00015355,0.00034587,0.00030095,0.00012462,-0.000038
 97,0.00006412,0.00014151,0.00003246,0.00007686,0.00007693,0.00914027,0
 .00148242,-0.00439043,-0.11623700,0.01361834,0.06516181,-0.00045686,0.
 00024236,0.00000401,0.00073512,-0.00057583,0.00072742,-0.00146600,-0.0
 0114441,0.00011696,-0.00035193,0.00014594,-0.00037983,0.00725557,0.000
 27287,0.01453641,-0.00030655,-0.00064867,-0.00004153,-0.08334659,0.018
 43900,-0.08273840,0.00121195,-0.00362624,0.00191087,0.00004864,0.00001
 247,-0.00019409,-0.00013231,-0.00003739,0.00012814,0.00011765,-0.00019
 236,0.00006906,-0.00039648,-0.00035330,-0.00033498,0.00021371,0.000575
 59,-0.00034378,-0.00212184,0.00123549,0.00036299,0.00003954,-0.0000367
 8,0.00003107,-0.00008623,-0.00002742,0.00004479,0.00011579,0.00021760,
 -0.00008837,-0.00004441,-0.00033401,-0.00000226,-0.00028457,0.00081420
 ,-0.00031028,0.09022422,0.00049921,-0.00016615,-0.00003244,-0.00018881
 ,0.00003892,-0.00012507,-0.00010834,0.00130562,0.00038816,0.00018515,-
 0.00012294,0.00010934,0.01082393,-0.01403641,0.03249567,0.00177296,0.0
 0375270,-0.00046256,0.01550346,-0.06856429,0.09965322,-0.00268938,-0.0
 0765078,0.00453366,-0.00003973,-0.00008371,-0.00009969,0.00010842,0.00
 008050,-0.00010612,-0.00015486,0.00018903,-0.00010840,-0.00044444,-0.0
 0017965,-0.00040923,0.00012189,-0.00030293,-0.00022081,0.00085199,-0.0
 0023132,-0.00018108,-0.00013944,-0.00007565,-0.00007567,0.00003777,0.0
 0002473,-0.00009062,0.00011300,0.00003203,0.00002221,-0.00053481,0.001
 03993,-0.00017929,0.00073164,-0.00122548,0.00031587,-0.02869926,0.0887
 2574,0.00034281,0.00002620,-0.00005796,0.00020205,0.00080394,-0.000545
 00,-0.00086077,0.00148831,0.00048203,0.00022923,-0.00004750,0.00009482
 ,-0.00292117,-0.00536368,-0.00940563,-0.00047698,-0.00135708,0.0011905
 5,-0.10745398,0.14658188,-0.34539663,0.00124623,0.00382136,0.00024399,
 -0.00012878,-0.00008990,0.00016468,0.00012086,0.00003463,-0.00000251,-
 0.00008548,0.00012857,-0.00019917,-0.00031440,-0.00020570,-0.00008093,
 -0.00037324,-0.00067914,-0.00001782,0.00004335,-0.00117221,0.00033998,
 -0.00001281,-0.00001690,0.00000989,0.00005343,-0.00001896,-0.00000111,
 -0.00016038,-0.00018628,0.00005962,-0.00004577,-0.00030477,-0.00019454
 ,0.00012023,0.00005459,0.00021939,0.10491275,-0.13891637,0.35357197,0.
 00011985,-0.00024294,-0.00049063,0.00074792,-0.00420775,-0.00016678,0.
 00043888,-0.00004692,0.00052659,-0.00100680,0.00084088,0.00034816,-0.0
 2232601,0.00689324,0.00301103,0.00157886,0.00157480,-0.00024305,-0.409
 29028,0.03663923,-0.00982614,0.00391201,0.00178766,-0.00110983,-0.0000
 4210,-0.00004475,0.00015429,0.00002761,0.00006001,0.00008597,0.0000814
 7,0.00008630,-0.00007822,-0.00006267,-0.00000995,-0.00014386,0.0000095
 0,-0.00006595,-0.00004763,-0.00005492,-0.00019223,-0.00000869,-0.00006
 510,-0.00007613,-0.00009006,-0.00010107,-0.00054125,0.00001921,-0.0000
 0105,-0.00015483,0.00011447,0.00023667,0.00035420,0.00011606,0.0003332
 1,-0.00112265,-0.00083330,-0.01089212,0.00239943,0.00559409,0.43594858
 ,0.00016761,-0.00000895,-0.00029217,-0.00089752,-0.00512201,0.00063297
 ,0.00080575,-0.00075088,0.00007461,-0.00137713,0.00077637,0.00039686,-
 0.03957692,-0.00181478,0.00021617,-0.00040508,0.00112427,0.00147890,0.
 06786807,-0.04619699,0.02457047,0.00032325,0.00299676,-0.00248088,0.00
 003941,0.00012434,0.00000592,0.00000555,0.00006197,0.00004338,-0.00005
 218,0.00020085,0.00039442,-0.00005137,0.00006108,-0.00002985,0.0001273
 9,0.00030716,-0.00002457,-0.00013779,0.00071089,-0.00010029,0.00000649
 ,-0.00002540,-0.00005372,-0.00028361,-0.00043364,0.00003310,-0.0000051
 2,0.00001086,0.00000805,0.00050701,0.00002926,0.00001687,0.00066276,-0
 .00085077,-0.00108493,0.01417845,-0.00276058,-0.00430476,-0.04275356,0
 .05270874,0.00014187,0.00023454,0.00029685,0.00070936,0.00314257,-0.00
 052137,-0.00053561,0.00034978,0.00000531,0.00115639,-0.00043352,-0.000
 01851,0.00714477,-0.00586086,-0.00157445,-0.00105448,0.00013661,-0.000
 07314,0.02874000,0.01993690,-0.03231167,-0.00131273,-0.00211640,-0.000
 27030,0.00016710,0.00014870,-0.00015543,0.00002486,0.00001952,-0.00011
 642,-0.00013786,0.00010712,0.00038900,0.00015084,0.00014081,0.00010598
 ,-0.00002840,-0.00020409,0.00008815,-0.00028226,-0.00028985,-0.0001714
 2,-0.00002722,0.00003375,-0.00000740,0.00026290,0.00038600,-0.00000950
 ,0.00003671,0.00004191,-0.00004737,0.00054484,0.00007967,0.00006843,0.
 00001018,-0.00129876,-0.00000317,-0.03814377,0.00380722,-0.00148332,0.
 00165227,-0.02010729,0.03675807,0.00034558,-0.00052014,-0.00042216,0.0
 0066646,0.00209072,-0.00432294,-0.00136445,-0.00020580,0.00083753,0.00
 027789,0.00057224,-0.00003351,-0.02158131,0.00096692,0.00907998,0.0039
 6460,-0.00189012,0.00179958,0.00177940,-0.00110911,0.00104194,-0.36418
 042,0.12534639,0.07891437,0.00003758,-0.00002537,-0.00012042,0.0000413
 9,0.00005545,0.00003528,-0.00003403,0.00020803,0.00003318,-0.00005086,
 -0.00001979,-0.00019502,-0.00014135,0.00034255,-0.00053359,-0.00001254
 ,0.00011849,-0.00003027,-0.00016795,-0.00007701,-0.00016862,-0.0000346
 6,-0.00012451,-0.00001846,0.00021353,0.00013237,0.00011322,-0.00084474
 ,-0.00041042,-0.00070259,0.00034055,-0.00004791,-0.00130043,-0.0000583
 5,-0.00020011,0.00022513,0.00060584,0.00077164,-0.00011515,0.37902067,
 -0.00001492,0.00018283,0.00019921,-0.00053036,-0.00066034,0.00118004,0
 .00020047,0.00036083,-0.00015565,-0.00023691,0.00006982,-0.00008169,0.
 01940193,-0.00908981,-0.00019880,-0.00116808,-0.00107992,-0.00107322,0
 .00073624,0.00084302,-0.00087969,0.07798441,-0.04398821,-0.02763525,0.
 00021956,-0.00024912,-0.00014757,-0.00002264,0.00002717,0.00006361,-0.
 00005603,0.00010816,-0.00010280,-0.00002241,0.00000698,0.00002128,-0.0
 0003775,-0.00001412,0.00008907,0.00001341,-0.00007143,-0.00002468,-0.0
 0014385,0.00007118,-0.00015451,-0.00004356,0.00000845,-0.00007431,0.00
 030269,0.00044130,0.00001058,-0.00091725,-0.00021165,-0.00050436,-0.00
 010736,0.00082245,0.00014359,-0.00065193,0.00045236,-0.00002505,-0.000
 92129,-0.00134334,0.00137915,-0.11938097,0.06312857,0.00086774,0.00006
 959,-0.00083561,-0.00116808,0.00229169,-0.00490542,-0.00163051,-0.0000
 3524,0.00075360,0.00019217,0.00027458,0.00006533,-0.03227151,0.0119555
 6,0.00444710,0.00081146,-0.00010957,0.00370948,-0.00065980,-0.00141607
 ,0.00002057,0.08432346,-0.04176688,-0.07984058,-0.00001974,-0.00036766
 ,0.00068810,0.00011641,-0.00017459,0.00033583,-0.00007676,0.00008571,0
 .00003251,-0.00002329,-0.00000886,0.00000693,-0.00031434,0.00032849,-0
 .00038831,0.00003937,0.00002767,-0.00001354,-0.00005479,-0.00005428,0.
 00002276,-0.00004176,-0.00007744,-0.00000144,-0.00007102,-0.00020106,0
 .00002041,-0.00057657,-0.00040558,-0.00023415,0.00061494,0.00042417,-0
 .00162679,0.00016673,-0.00000616,-0.00006130,0.00087426,0.00048262,0.0
 0026876,-0.08169442,0.03459552,0.08415312,-0.00061102,0.00113433,-0.00
 137820,0.00016149,-0.00056481,-0.00124747,-0.00024706,0.00039375,0.000
 37802,-0.00054762,0.00008062,0.00026401,0.00073393,-0.01650713,-0.0056
 0490,0.00038633,0.00063178,-0.00466495,0.00007915,0.00060111,-0.000056
 64,-0.05151772,-0.01072905,-0.04862173,-0.00214312,-0.00012116,0.00151
 970,0.00038739,-0.00025805,0.00079993,0.00005036,0.00026073,-0.0001668
 2,0.00017539,-0.00010017,0.00026248,-0.00010990,0.00000790,-0.00002300
 ,0.00003550,-0.00002954,-0.00003985,0.00017521,0.00013295,0.00013882,-
 0.00020497,-0.00001327,-0.00007752,0.00010974,-0.00004248,-0.00028218,
 0.00036075,0.00047206,0.00059867,-0.00015684,0.00019178,-0.00060368,-0
 .00001791,0.00005030,-0.00025638,-0.00019825,0.00007692,0.00089540,0.0
 0117715,0.02539658,0.03059604,0.05192205,0.00128553,0.00077527,-0.0011
 1094,-0.00030775,0.00014167,-0.00042047,-0.00014048,0.00002494,0.00005
 647,-0.00033761,0.00009115,-0.00000460,-0.00051764,0.00718775,0.016419
 72,0.00090067,0.00164071,0.00298643,-0.00005283,0.00092088,0.00002482,
 0.00575256,-0.20608826,-0.21482097,0.00040844,-0.00014836,0.00067991,0
 .00003501,-0.00048043,0.00029162,0.00029503,-0.00058815,0.00016018,0.0
 0003930,-0.00001737,0.00005792,-0.00003900,-0.00001747,0.00000292,0.00
 004835,-0.00006376,0.00003888,0.00009787,-0.00007489,0.00008789,-0.000
 09316,0.00005533,-0.00003497,0.00002786,-0.00012797,-0.00020611,0.0003
 7830,0.00026685,0.00044899,-0.00005985,0.00001065,0.00005199,0.0001936
 2,-0.00024168,-0.00025119,-0.00025555,0.00019479,0.00036650,-0.0065935
 2,-0.00981520,-0.00591223,-0.00106514,0.20635355,0.00022987,-0.0004797
 5,0.00051155,-0.00022419,0.00020730,-0.00009073,0.00006714,-0.00007161
 ,-0.00015372,0.00033771,-0.00003253,-0.00021480,-0.00221736,-0.0233338
 7,-0.02409733,-0.00384272,0.00194318,-0.00821427,0.00174264,-0.0018202
 3,0.00392528,-0.02270683,-0.17164758,-0.23980872,0.00101057,-0.0001595
 0,0.00016171,0.00027932,0.00004190,-0.00000928,-0.00024052,0.00043050,
 0.00017536,0.00013728,-0.00009806,0.00004984,0.00005044,0.00004544,0.0
 0006578,-0.00007938,0.00012771,0.00000410,0.00006794,0.00012089,0.0000
 2846,0.00009302,0.00003870,0.00009446,-0.00010659,-0.00001484,0.000139
 13,0.00042270,0.00056295,0.00018379,-0.00027658,-0.00013565,0.00048479
 ,-0.00043390,-0.00031182,0.00106897,0.00054181,0.00012410,-0.00121705,
 -0.00242261,-0.00662448,-0.00661737,0.02757027,0.20108724,0.27353003\\
 -0.00009898,-0.00002061,-0.00010685,0.00005028,-0.00018225,-0.00019669
 ,-0.00010596,0.00008466,0.00004980,0.00000234,-0.00000155,0.00000402,-
 0.00014081,0.00014588,0.00023698,-0.00000391,0.00006267,-0.00006928,0.
 00003212,0.00004918,-0.00000842,0.00001623,-0.00005766,0.00006299,-0.0
 0002038,0.00005006,0.00007258,-0.00001275,0.00001306,0.00003195,0.0000
 0035,0.00003697,0.00005907,0.00003652,0.00002472,0.00002798,0.00002768
 ,-0.00002223,0.00005892,0.00006543,-0.00009247,0.00002686,-0.00001427,
 0.00003233,0.00002565,0.00001966,0.00000578,-0.00001421,0.00003679,0.0
 0003246,-0.00002296,0.00007765,-0.00013617,-0.00007267,0.00000879,0.00
 001681,-0.00002251,-0.00000771,-0.00002254,-0.00002672,0.00006149,-0.0
 0002925,-0.00002155,0.00000102,-0.00000604,-0.00002669,-0.00003158,0.0
 0001620,-0.00006824\\\@
 Job cpu time:       0 days 12 hours 44 minutes 52.5 seconds.
 File lengths (MBytes):  RWF=  27276 Int=      0 D2E=      0 Chk=     78 Scr=      1
 Normal termination of Gaussian 09 at Fri Aug 26 16:08:35 2022.
