 Entering Gaussian System, Link 0=g09
 Input=G4.Frag_688.gjf
 Output=G4.Frag_688.log
 Initial command:
 /public/home/users/caep010/software/Gaussian09/g09/l1.exe "/public/home/users/caep010/.cache/gau_scr/Gau-30365.inp" -scrdir="/public/home/users/caep010/.cache/gau_scr/"
 Entering Link 1 = /public/home/users/caep010/software/Gaussian09/g09/l1.exe PID=     30366.
  
 Copyright (c) 1988,1990,1992,1993,1995,1998,2003,2009,2015,
            Gaussian, Inc.  All Rights Reserved.
  
 This is part of the Gaussian(R) 09 program.  It is based on
 the Gaussian(R) 03 system (copyright 2003, Gaussian, Inc.),
 the Gaussian(R) 98 system (copyright 1998, Gaussian, Inc.),
 the Gaussian(R) 94 system (copyright 1995, Gaussian, Inc.),
 the Gaussian 92(TM) system (copyright 1992, Gaussian, Inc.),
 the Gaussian 90(TM) system (copyright 1990, Gaussian, Inc.),
 the Gaussian 88(TM) system (copyright 1988, Gaussian, Inc.),
 the Gaussian 86(TM) system (copyright 1986, Carnegie Mellon
 University), and the Gaussian 82(TM) system (copyright 1983,
 Carnegie Mellon University). Gaussian is a federally registered
 trademark of Gaussian, Inc.
  
 This software contains proprietary and confidential information,
 including trade secrets, belonging to Gaussian, Inc.
  
 This software is provided under written license and may be
 used, copied, transmitted, or stored only in accord with that
 written license.
  
 The following legend is applicable only to US Government
 contracts under FAR:
  
                    RESTRICTED RIGHTS LEGEND
  
 Use, reproduction and disclosure by the US Government is
 subject to restrictions as set forth in subparagraphs (a)
 and (c) of the Commercial Computer Software - Restricted
 Rights clause in FAR 52.227-19.
  
 Gaussian, Inc.
 340 Quinnipiac St., Bldg. 40, Wallingford CT 06492
  
  
 ---------------------------------------------------------------
 Warning -- This program may not be used in any manner that
 competes with the business of Gaussian, Inc. or will provide
 assistance to any competitor of Gaussian, Inc.  The licensee
 of this program is prohibited from giving any competitor of
 Gaussian, Inc. access to this program.  By using this program,
 the user acknowledges that Gaussian, Inc. is engaged in the
 business of creating and licensing software in the field of
 computational chemistry and represents and warrants to the
 licensee that it is not a competitor of Gaussian, Inc. and that
 it will not use this program in any manner prohibited above.
 ---------------------------------------------------------------
  

 Cite this work as:
 Gaussian 09, Revision E.01,
 M. J. Frisch, G. W. Trucks, H. B. Schlegel, G. E. Scuseria, 
 M. A. Robb, J. R. Cheeseman, G. Scalmani, V. Barone, B. Mennucci, 
 G. A. Petersson, H. Nakatsuji, M. Caricato, X. Li, H. P. Hratchian, 
 A. F. Izmaylov, J. Bloino, G. Zheng, J. L. Sonnenberg, M. Hada, 
 M. Ehara, K. Toyota, R. Fukuda, J. Hasegawa, M. Ishida, T. Nakajima, 
 Y. Honda, O. Kitao, H. Nakai, T. Vreven, J. A. Montgomery, Jr., 
 J. E. Peralta, F. Ogliaro, M. Bearpark, J. J. Heyd, E. Brothers, 
 K. N. Kudin, V. N. Staroverov, T. Keith, R. Kobayashi, J. Normand, 
 K. Raghavachari, A. Rendell, J. C. Burant, S. S. Iyengar, J. Tomasi, 
 M. Cossi, N. Rega, J. M. Millam, M. Klene, J. E. Knox, J. B. Cross, 
 V. Bakken, C. Adamo, J. Jaramillo, R. Gomperts, R. E. Stratmann, 
 O. Yazyev, A. J. Austin, R. Cammi, C. Pomelli, J. W. Ochterski, 
 R. L. Martin, K. Morokuma, V. G. Zakrzewski, G. A. Voth, 
 P. Salvador, J. J. Dannenberg, S. Dapprich, A. D. Daniels, 
 O. Farkas, J. B. Foresman, J. V. Ortiz, J. Cioslowski, 
 and D. J. Fox, Gaussian, Inc., Wallingford CT, 2013.
 
 ******************************************
 Gaussian 09:  ES64L-G09RevE.01 30-Nov-2015
                26-Aug-2022 
 ******************************************
 %nproc=32
 Will use up to   32 processors via shared memory.
 %mem=180GB
 %chk=G4.Frag_688.chk
 -----
 #P G4
 -----
 1/14=-1,18=20,19=15,26=3,38=1/1,3;
 2/9=110,12=2,17=6,18=5,40=1/2;
 3/5=35,7=104,11=2,16=1,25=1,30=1,71=1,74=-5/1,2,3;
 4//1;
 5/5=2,38=5/2;
 6/7=2,8=2,9=2,10=2,28=1/1;
 7//1,2,3,16;
 1/14=-1,18=20,19=15,26=3/3(2);
 2/9=110/2;
 99//99;
 2/9=110/2;
 3/5=35,7=104,11=2,16=1,25=1,30=1,71=1,74=-5/1,2,3;
 4/5=5,16=3,69=1/1;
 5/5=2,38=5/2;
 7//1,2,3,16;
 1/14=-1,18=20,19=15,26=3/3(-5);
 2/9=110/2;
 6/7=2,8=2,9=2,10=2,19=2,28=1/1;
 99/9=1/99;
 Leave Link    1 at Fri Aug 26 09:48:08 2022, MaxMem= 24159191040 cpu:         3.3
 (Enter /public/home/users/caep010/software/Gaussian09/g09/l101.exe)
 --------
 Frag_688
 --------
 Symbolic Z-matrix:
 Charge =  0 Multiplicity = 1
 C                    -1.3994   -0.3098   -0.1531 
 C                     0.014     0.1893   -0.0935 
 N                     0.2895    1.4056   -0.4485 
 C                     1.0715   -0.6859    0.451 
 N                     2.3071   -0.3046    0.5374 
 H                    -1.9353    0.1409   -1.0154 
 H                    -1.419    -1.4137   -0.2739 
 H                    -1.9267   -0.0384    0.785 
 H                    -0.4436    2.0576   -0.8076 
 H                     0.8109   -1.6804    0.7893 
 H                     2.6309    0.6393    0.2293 
 
 NAtoms=     11 NQM=       11 NQMF=       0 NMMI=      0 NMMIF=      0
                NMic=       0 NMicF=      0.
                    Isotopes and Nuclear Properties:
 (Nuclear quadrupole moments (NQMom) in fm**2, nuclear magnetic moments (NMagM)
  in nuclear magnetons)

  Atom         1           2           3           4           5           6           7           8           9          10
 IAtWgt=          12          12          14          12          14           1           1           1           1           1
 AtmWgt=  12.0000000  12.0000000  14.0030740  12.0000000  14.0030740   1.0078250   1.0078250   1.0078250   1.0078250   1.0078250
 NucSpn=           0           0           2           0           2           1           1           1           1           1
 AtZEff=   0.0000000   0.0000000   0.0000000   0.0000000   0.0000000   0.0000000   0.0000000   0.0000000   0.0000000   0.0000000
 NQMom=    0.0000000   0.0000000   2.0440000   0.0000000   2.0440000   0.0000000   0.0000000   0.0000000   0.0000000   0.0000000
 NMagM=    0.0000000   0.0000000   0.4037610   0.0000000   0.4037610   2.7928460   2.7928460   2.7928460   2.7928460   2.7928460
 AtZNuc=   6.0000000   6.0000000   7.0000000   6.0000000   7.0000000   1.0000000   1.0000000   1.0000000   1.0000000   1.0000000

  Atom        11
 IAtWgt=           1
 AtmWgt=   1.0078250
 NucSpn=           1
 AtZEff=   0.0000000
 NQMom=    0.0000000
 NMagM=    2.7928460
 AtZNuc=   1.0000000
 Leave Link  101 at Fri Aug 26 09:48:08 2022, MaxMem= 24159191040 cpu:        10.4
 (Enter /public/home/users/caep010/software/Gaussian09/g09/l103.exe)

 GradGradGradGradGradGradGradGradGradGradGradGradGradGradGradGradGradGrad
 Berny optimization.
 Initialization pass.
                           ----------------------------
                           !    Initial Parameters    !
                           ! (Angstroms and Degrees)  !
 --------------------------                            --------------------------
 ! Name  Definition              Value          Derivative Info.                !
 --------------------------------------------------------------------------------
 ! R1    R(1,2)                  1.5001         estimate D2E/DX2                !
 ! R2    R(1,6)                  1.1108         estimate D2E/DX2                !
 ! R3    R(1,7)                  1.1107         estimate D2E/DX2                !
 ! R4    R(1,8)                  1.1098         estimate D2E/DX2                !
 ! R5    R(2,3)                  1.2967         estimate D2E/DX2                !
 ! R6    R(2,4)                  1.4767         estimate D2E/DX2                !
 ! R7    R(3,9)                  1.0447         estimate D2E/DX2                !
 ! R8    R(4,5)                  1.296          estimate D2E/DX2                !
 ! R9    R(4,10)                 1.0823         estimate D2E/DX2                !
 ! R10   R(5,11)                 1.0444         estimate D2E/DX2                !
 ! A1    A(2,1,6)              110.512          estimate D2E/DX2                !
 ! A2    A(2,1,7)              110.587          estimate D2E/DX2                !
 ! A3    A(2,1,8)              109.4332         estimate D2E/DX2                !
 ! A4    A(6,1,7)              108.0789         estimate D2E/DX2                !
 ! A5    A(6,1,8)              109.1308         estimate D2E/DX2                !
 ! A6    A(7,1,8)              109.0626         estimate D2E/DX2                !
 ! A7    A(1,2,3)              120.0926         estimate D2E/DX2                !
 ! A8    A(1,2,4)              119.4837         estimate D2E/DX2                !
 ! A9    A(3,2,4)              120.3132         estimate D2E/DX2                !
 ! A10   A(2,3,9)              122.0335         estimate D2E/DX2                !
 ! A11   A(2,4,5)              122.2052         estimate D2E/DX2                !
 ! A12   A(2,4,10)             119.1699         estimate D2E/DX2                !
 ! A13   A(5,4,10)             118.6249         estimate D2E/DX2                !
 ! A14   A(4,5,11)             122.8091         estimate D2E/DX2                !
 ! D1    D(6,1,2,3)             34.6892         estimate D2E/DX2                !
 ! D2    D(6,1,2,4)           -149.1181         estimate D2E/DX2                !
 ! D3    D(7,1,2,3)            154.3236         estimate D2E/DX2                !
 ! D4    D(7,1,2,4)            -29.4837         estimate D2E/DX2                !
 ! D5    D(8,1,2,3)            -85.5123         estimate D2E/DX2                !
 ! D6    D(8,1,2,4)             90.6804         estimate D2E/DX2                !
 ! D7    D(1,2,3,9)             -1.8097         estimate D2E/DX2                !
 ! D8    D(4,2,3,9)           -177.9706         estimate D2E/DX2                !
 ! D9    D(1,2,4,5)           -179.4132         estimate D2E/DX2                !
 ! D10   D(1,2,4,10)             0.6676         estimate D2E/DX2                !
 ! D11   D(3,2,4,5)             -3.2291         estimate D2E/DX2                !
 ! D12   D(3,2,4,10)           176.8518         estimate D2E/DX2                !
 ! D13   D(2,4,5,11)            -0.0131         estimate D2E/DX2                !
 ! D14   D(10,4,5,11)          179.9065         estimate D2E/DX2                !
 --------------------------------------------------------------------------------
 Trust Radius=3.00D-01 FncErr=1.00D-07 GrdErr=1.00D-06
 Number of steps in this run=     48 maximum allowed number of steps=    100.
 GradGradGradGradGradGradGradGradGradGradGradGradGradGradGradGradGradGrad

 Leave Link  103 at Fri Aug 26 09:48:08 2022, MaxMem= 24159191040 cpu:         0.5
 (Enter /public/home/users/caep010/software/Gaussian09/g09/l202.exe)
                          Input orientation:                          
 ---------------------------------------------------------------------
 Center     Atomic      Atomic             Coordinates (Angstroms)
 Number     Number       Type             X           Y           Z
 ---------------------------------------------------------------------
      1          6           0       -1.399400   -0.309800   -0.153100
      2          6           0        0.014000    0.189300   -0.093500
      3          7           0        0.289500    1.405600   -0.448500
      4          6           0        1.071500   -0.685900    0.451000
      5          7           0        2.307100   -0.304600    0.537400
      6          1           0       -1.935300    0.140900   -1.015400
      7          1           0       -1.419000   -1.413700   -0.273900
      8          1           0       -1.926700   -0.038400    0.785000
      9          1           0       -0.443600    2.057600   -0.807600
     10          1           0        0.810900   -1.680400    0.789300
     11          1           0        2.630900    0.639300    0.229300
 ---------------------------------------------------------------------
                    Distance matrix (angstroms):
                    1          2          3          4          5
     1  C    0.000000
     2  C    1.500118   0.000000
     3  N    2.425333   1.296654   0.000000
     4  C    2.571329   1.476740   2.407280   0.000000
     5  N    3.770273   2.429049   2.822675   1.295979   0.000000
     6  H    1.110802   2.156852   2.621179   3.445979   4.539561
     7  H    1.110663   2.157694   3.301198   2.694024   3.971414
     8  H    1.109836   2.142411   2.918596   3.085452   4.249380
     9  H    2.635623   2.051800   1.044745   3.377335   3.867217
    10  H    2.766241   2.215889   3.365621   1.082307   2.048144
    11  H    4.158165   2.674858   2.555148   2.058406   1.044375
                    6          7          8          9         10
     6  H    0.000000
     7  H    1.798102   0.000000
     8  H    1.809327   1.808446   0.000000
     9  H    2.437640   3.645019   3.021453   0.000000
    10  H    3.757085   2.484749   3.192278   4.253999   0.000000
    11  H    4.758977   4.568338   4.641099   3.541086   3.001168
                   11
    11  H    0.000000
 Stoichiometry    C3H6N2
 Framework group  C1[X(C3H6N2)]
 Deg. of freedom    27
 Full point group                 C1      NOp   1
 Largest Abelian subgroup         C1      NOp   1
 Largest concise Abelian subgroup C1      NOp   1
                         Standard orientation:                         
 ---------------------------------------------------------------------
 Center     Atomic      Atomic             Coordinates (Angstroms)
 Number     Number       Type             X           Y           Z
 ---------------------------------------------------------------------
      1          6           0       -1.702915   -0.637483    0.000412
      2          6           0       -0.388474    0.085066   -0.022429
      3          7           0       -0.358358    1.381021    0.007620
      4          6           0        0.867861   -0.690544    0.006124
      5          7           0        2.031756   -0.120572   -0.000465
      6          1           0       -2.473437   -0.061419   -0.554859
      7          1           0       -1.608184   -1.635735   -0.477176
      8          1           0       -2.034032   -0.768512    1.051567
      9          1           0       -1.230918    1.955459    0.019980
     10          1           0        0.820007   -1.771479    0.032178
     11          1           0        2.153944    0.916306   -0.026412
 ---------------------------------------------------------------------
 Rotational constants (GHZ):     10.0457407      3.9934470      2.9122981
 Leave Link  202 at Fri Aug 26 09:48:08 2022, MaxMem= 24159191040 cpu:         1.5
 (Enter /public/home/users/caep010/software/Gaussian09/g09/l301.exe)
 Standard basis: GTBas3 (6D, 7F)
 Ernie: Thresh=  0.10000D-02 Tol=  0.10000D-05 Strict=F.
 There are   185 symmetry adapted cartesian basis functions of A   symmetry.
 There are   170 symmetry adapted basis functions of A   symmetry.
   170 basis functions,   262 primitive gaussians,   185 cartesian basis functions
    19 alpha electrons       19 beta electrons
       nuclear repulsion energy       160.3196471104 Hartrees.
 IExCor=  402 DFT=T Ex+Corr=B3LYP ExCW=0 ScaHFX=  0.200000
 ScaDFX=  0.800000  0.720000  1.000000  0.810000 ScalE2=  1.000000  1.000000
 IRadAn=      0 IRanWt=     -1 IRanGd=            0 ICorTp=0 IEmpDi=  4
 NAtoms=   11 NActive=   11 NUniq=   11 SFac= 1.00D+00 NAtFMM=   60 NAOKFM=F Big=F
 Integral buffers will be    131072 words long.
 Raffenetti 2 integral format.
 Two-electron integral symmetry is turned on.
 Leave Link  301 at Fri Aug 26 09:48:09 2022, MaxMem= 24159191040 cpu:         2.1
 (Enter /public/home/users/caep010/software/Gaussian09/g09/l302.exe)
 NPDir=0 NMtPBC=     1 NCelOv=     1 NCel=       1 NClECP=     1 NCelD=      1
         NCelK=      1 NCelE2=     1 NClLst=     1 CellRange=     0.0.
 One-electron integrals computed using PRISM.
 NBasis=   170 RedAO= T EigKep=  2.83D-04  NBF=   170
 NBsUse=   170 1.00D-06 EigRej= -1.00D+00 NBFU=   170
 Precomputing XC quadrature grid using
 IXCGrd= 4 IRadAn=           0 IRanWt=          -1 IRanGd=           0 AccXCQ= 0.00D+00.
 Generated NRdTot=       0 NPtTot=           0 NUsed=           0 NTot=          32
 NSgBfM=   185   185   185   185   185 MxSgAt=    11 MxSgA2=    11.
 Leave Link  302 at Fri Aug 26 09:48:09 2022, MaxMem= 24159191040 cpu:        14.6
 (Enter /public/home/users/caep010/software/Gaussian09/g09/l303.exe)
 DipDrv:  MaxL=1.
 Leave Link  303 at Fri Aug 26 09:48:09 2022, MaxMem= 24159191040 cpu:         0.9
 (Enter /public/home/users/caep010/software/Gaussian09/g09/l401.exe)
 ExpMin= 1.61D-01 ExpMax= 4.17D+03 ExpMxC= 6.27D+02 IAcc=1 IRadAn=         1 AccDes= 0.00D+00
 Harris functional with IExCor=  402 and IRadAn=       1 diagonalized for initial guess.
 HarFok:  IExCor=  402 AccDes= 0.00D+00 IRadAn=         1 IDoV= 1 UseB2=F ITyADJ=14
 ICtDFT=  3500011 ScaDFX=  1.000000  1.000000  1.000000  1.000000
 FoFCou: FMM=F IPFlag=           0 FMFlag=      100000 FMFlg1=           0
         NFxFlg=           0 DoJE=T BraDBF=F KetDBF=T FulRan=T
         wScrn=  0.000000 ICntrl=     500 IOpCl=  0 I1Cent=   200000004 NGrid=           0
         NMat0=    1 NMatS0=      1 NMatT0=    0 NMatD0=    1 NMtDS0=    0 NMtDT0=    0
 Petite list used in FoFCou.
 Harris En= -227.405618614274    
 JPrj=0 DoOrth=F DoCkMO=F.
 Leave Link  401 at Fri Aug 26 09:48:10 2022, MaxMem= 24159191040 cpu:        12.9
 (Enter /public/home/users/caep010/software/Gaussian09/g09/l502.exe)
 Closed shell SCF:
 Using DIIS extrapolation, IDIIS=  1040.
 Integral symmetry usage will be decided dynamically.
 Keep R1 ints in memory in canonical form, NReq=108986210.
 IVT=      128495 IEndB=      128495 NGot= 24159191040 MDV= 24053422166
 LenX= 24053422166 LenY= 24053387500
 Requested convergence on RMS density matrix=1.00D-08 within 128 cycles.
 Requested convergence on MAX density matrix=1.00D-06.
 Requested convergence on             energy=1.00D-06.
 No special actions if energy rises.
 FoFCou: FMM=F IPFlag=           0 FMFlag=           0 FMFlg1=           0
         NFxFlg=           0 DoJE=F BraDBF=F KetDBF=F FulRan=T
         wScrn=  0.000000 ICntrl=     600 IOpCl=  0 I1Cent=           0 NGrid=           0
         NMat0=    1 NMatS0=  14535 NMatT0=    0 NMatD0=    1 NMtDS0=    0 NMtDT0=    0
 Symmetry not used in FoFCou.
 Integral accuracy reduced to 1.0D-05 until final iterations.

 Cycle   1  Pass 0  IDiag  1:
 E= -227.256168277650    
 DIIS: error= 2.31D-02 at cycle   1 NSaved=   1.
 NSaved= 1 IEnMin= 1 EnMin= -227.256168277650     IErMin= 1 ErrMin= 2.31D-02
 ErrMax= 2.31D-02  0.00D+00 EMaxC= 1.00D-01 BMatC= 1.47D-01 BMatP= 1.47D-01
 IDIUse=3 WtCom= 7.69D-01 WtEn= 2.31D-01
 Coeff-Com:  0.100D+01
 Coeff-En:   0.100D+01
 Coeff:      0.100D+01
 Gap=     0.154 Goal=   None    Shift=    0.000
 GapD=    0.154 DampG=1.000 DampE=0.500 DampFc=0.5000 IDamp=-1.
 Damping current iteration by 5.00D-01
 RMSDP=6.74D-03 MaxDP=1.65D-01              OVMax= 1.96D-01

 Cycle   2  Pass 0  IDiag  1:
 E= -227.310762901614     Delta-E=       -0.054594623963 Rises=F Damp=T
 DIIS: error= 7.81D-03 at cycle   2 NSaved=   2.
 NSaved= 2 IEnMin= 2 EnMin= -227.310762901614     IErMin= 2 ErrMin= 7.81D-03
 ErrMax= 7.81D-03  0.00D+00 EMaxC= 1.00D-01 BMatC= 1.48D-02 BMatP= 1.47D-01
 IDIUse=3 WtCom= 9.22D-01 WtEn= 7.81D-02
 Coeff-Com:  0.141D+00 0.859D+00
 Coeff-En:   0.219D+00 0.781D+00
 Coeff:      0.147D+00 0.853D+00
 Gap=     0.189 Goal=   None    Shift=    0.000
 RMSDP=1.44D-03 MaxDP=3.96D-02 DE=-5.46D-02 OVMax= 1.69D-01

 Cycle   3  Pass 0  IDiag  1:
 E= -227.380151826106     Delta-E=       -0.069388924492 Rises=F Damp=F
 DIIS: error= 6.71D-03 at cycle   3 NSaved=   3.
 NSaved= 3 IEnMin= 3 EnMin= -227.380151826106     IErMin= 3 ErrMin= 6.71D-03
 ErrMax= 6.71D-03  0.00D+00 EMaxC= 1.00D-01 BMatC= 1.76D-02 BMatP= 1.48D-02
 IDIUse=3 WtCom= 1.09D-01 WtEn= 8.91D-01
 Coeff-Com:  0.273D-01 0.520D+00 0.452D+00
 Coeff-En:   0.000D+00 0.000D+00 0.100D+01
 Coeff:      0.297D-02 0.566D-01 0.940D+00
 Gap=     0.167 Goal=   None    Shift=    0.000
 RMSDP=1.83D-03 MaxDP=7.00D-02 DE=-6.94D-02 OVMax= 1.49D-01

 Cycle   4  Pass 0  IDiag  1:
 E= -227.326375245054     Delta-E=        0.053776581051 Rises=F Damp=F
 DIIS: error= 1.48D-02 at cycle   4 NSaved=   4.
 NSaved= 4 IEnMin= 3 EnMin= -227.380151826106     IErMin= 3 ErrMin= 6.71D-03
 ErrMax= 1.48D-02  0.00D+00 EMaxC= 1.00D-01 BMatC= 7.64D-02 BMatP= 1.48D-02
 IDIUse=2 WtCom= 0.00D+00 WtEn= 1.00D+00
 Coeff-En:   0.000D+00 0.000D+00 0.748D+00 0.252D+00
 Coeff:      0.000D+00 0.000D+00 0.748D+00 0.252D+00
 Gap=     0.179 Goal=   None    Shift=    0.000
 RMSDP=9.70D-04 MaxDP=3.55D-02 DE= 5.38D-02 OVMax= 7.37D-02

 Cycle   5  Pass 0  IDiag  1:
 E= -227.393080402322     Delta-E=       -0.066705157268 Rises=F Damp=F
 DIIS: error= 3.42D-03 at cycle   5 NSaved=   5.
 NSaved= 5 IEnMin= 5 EnMin= -227.393080402322     IErMin= 5 ErrMin= 3.42D-03
 ErrMax= 3.42D-03  0.00D+00 EMaxC= 1.00D-01 BMatC= 4.39D-03 BMatP= 1.48D-02
 IDIUse=3 WtCom= 9.66D-01 WtEn= 3.42D-02
 Coeff-Com: -0.107D-01 0.281D-01 0.228D+00-0.111D+00 0.866D+00
 Coeff-En:   0.000D+00 0.000D+00 0.251D+00 0.000D+00 0.749D+00
 Coeff:     -0.103D-01 0.272D-01 0.229D+00-0.107D+00 0.862D+00
 Gap=     0.181 Goal=   None    Shift=    0.000
 RMSDP=3.06D-04 MaxDP=1.19D-02 DE=-6.67D-02 OVMax= 2.43D-02

 Cycle   6  Pass 0  IDiag  1:
 E= -227.397290876944     Delta-E=       -0.004210474622 Rises=F Damp=F
 DIIS: error= 8.11D-05 at cycle   6 NSaved=   6.
 NSaved= 6 IEnMin= 6 EnMin= -227.397290876944     IErMin= 6 ErrMin= 8.11D-05
 ErrMax= 8.11D-05  0.00D+00 EMaxC= 1.00D-01 BMatC= 3.04D-06 BMatP= 4.39D-03
 IDIUse=1 WtCom= 1.00D+00 WtEn= 0.00D+00
 Coeff-Com: -0.549D-02 0.122D-01 0.826D-01-0.566D-01 0.384D+00 0.583D+00
 Coeff:     -0.549D-02 0.122D-01 0.826D-01-0.566D-01 0.384D+00 0.583D+00
 Gap=     0.181 Goal=   None    Shift=    0.000
 RMSDP=1.11D-05 MaxDP=3.91D-04 DE=-4.21D-03 OVMax= 6.54D-04

 Cycle   7  Pass 0  IDiag  1:
 E= -227.397293519718     Delta-E=       -0.000002642774 Rises=F Damp=F
 DIIS: error= 2.26D-05 at cycle   7 NSaved=   7.
 NSaved= 7 IEnMin= 7 EnMin= -227.397293519718     IErMin= 7 ErrMin= 2.26D-05
 ErrMax= 2.26D-05  0.00D+00 EMaxC= 1.00D-01 BMatC= 1.89D-07 BMatP= 3.04D-06
 IDIUse=1 WtCom= 1.00D+00 WtEn= 0.00D+00
 Coeff-Com: -0.112D-02 0.194D-02 0.196D-01-0.128D-01 0.893D-01 0.240D+00
 Coeff-Com:  0.663D+00
 Coeff:     -0.112D-02 0.194D-02 0.196D-01-0.128D-01 0.893D-01 0.240D+00
 Coeff:      0.663D+00
 Gap=     0.181 Goal=   None    Shift=    0.000
 RMSDP=3.01D-06 MaxDP=1.10D-04 DE=-2.64D-06 OVMax= 2.39D-04

 Initial convergence to 1.0D-05 achieved.  Increase integral accuracy.
 Cycle   8  Pass 1  IDiag  1:
 E= -227.397319966991     Delta-E=       -0.000026447273 Rises=F Damp=F
 DIIS: error= 1.42D-05 at cycle   1 NSaved=   1.
 NSaved= 1 IEnMin= 1 EnMin= -227.397319966991     IErMin= 1 ErrMin= 1.42D-05
 ErrMax= 1.42D-05  0.00D+00 EMaxC= 1.00D-01 BMatC= 8.66D-08 BMatP= 8.66D-08
 IDIUse=1 WtCom= 1.00D+00 WtEn= 0.00D+00
 Coeff-Com:  0.100D+01
 Coeff:      0.100D+01
 Gap=     0.181 Goal=   None    Shift=    0.000
 RMSDP=3.01D-06 MaxDP=1.10D-04 DE=-2.64D-05 OVMax= 4.33D-04

 Cycle   9  Pass 1  IDiag  1:
 E= -227.397319762852     Delta-E=        0.000000204139 Rises=F Damp=F
 DIIS: error= 3.17D-05 at cycle   2 NSaved=   2.
 NSaved= 2 IEnMin= 1 EnMin= -227.397319966991     IErMin= 1 ErrMin= 1.42D-05
 ErrMax= 3.17D-05  0.00D+00 EMaxC= 1.00D-01 BMatC= 3.04D-07 BMatP= 8.66D-08
 IDIUse=1 WtCom= 1.00D+00 WtEn= 0.00D+00
 Coeff-Com:  0.666D+00 0.334D+00
 Coeff:      0.666D+00 0.334D+00
 Gap=     0.181 Goal=   None    Shift=    0.000
 RMSDP=3.44D-06 MaxDP=1.53D-04 DE= 2.04D-07 OVMax= 3.27D-04

 Cycle  10  Pass 1  IDiag  1:
 E= -227.397320044295     Delta-E=       -0.000000281443 Rises=F Damp=F
 DIIS: error= 3.50D-06 at cycle   3 NSaved=   3.
 NSaved= 3 IEnMin= 3 EnMin= -227.397320044295     IErMin= 3 ErrMin= 3.50D-06
 ErrMax= 3.50D-06  0.00D+00 EMaxC= 1.00D-01 BMatC= 3.53D-09 BMatP= 8.66D-08
 IDIUse=1 WtCom= 1.00D+00 WtEn= 0.00D+00
 Coeff-Com:  0.803D-02 0.949D-01 0.897D+00
 Coeff:      0.803D-02 0.949D-01 0.897D+00
 Gap=     0.181 Goal=   None    Shift=    0.000
 RMSDP=3.36D-07 MaxDP=1.20D-05 DE=-2.81D-07 OVMax= 2.77D-05

 Cycle  11  Pass 1  IDiag  1:
 E= -227.397320047099     Delta-E=       -0.000000002804 Rises=F Damp=F
 DIIS: error= 1.19D-06 at cycle   4 NSaved=   4.
 NSaved= 4 IEnMin= 4 EnMin= -227.397320047099     IErMin= 4 ErrMin= 1.19D-06
 ErrMax= 1.19D-06  0.00D+00 EMaxC= 1.00D-01 BMatC= 4.26D-10 BMatP= 3.53D-09
 IDIUse=1 WtCom= 1.00D+00 WtEn= 0.00D+00
 Coeff-Com: -0.147D-01 0.421D-01 0.476D+00 0.497D+00
 Coeff:     -0.147D-01 0.421D-01 0.476D+00 0.497D+00
 Gap=     0.181 Goal=   None    Shift=    0.000
 RMSDP=1.15D-07 MaxDP=3.54D-06 DE=-2.80D-09 OVMax= 5.34D-06

 Cycle  12  Pass 1  IDiag  1:
 E= -227.397320047514     Delta-E=       -0.000000000415 Rises=F Damp=F
 DIIS: error= 1.61D-07 at cycle   5 NSaved=   5.
 NSaved= 5 IEnMin= 5 EnMin= -227.397320047514     IErMin= 5 ErrMin= 1.61D-07
 ErrMax= 1.61D-07  0.00D+00 EMaxC= 1.00D-01 BMatC= 6.61D-12 BMatP= 4.26D-10
 IDIUse=1 WtCom= 1.00D+00 WtEn= 0.00D+00
 Coeff-Com: -0.599D-02 0.143D-01 0.164D+00 0.201D+00 0.627D+00
 Coeff:     -0.599D-02 0.143D-01 0.164D+00 0.201D+00 0.627D+00
 Gap=     0.181 Goal=   None    Shift=    0.000
 RMSDP=1.96D-08 MaxDP=9.24D-07 DE=-4.15D-10 OVMax= 1.63D-06

 Cycle  13  Pass 1  IDiag  1:
 E= -227.397320047515     Delta-E=       -0.000000000001 Rises=F Damp=F
 DIIS: error= 1.03D-07 at cycle   6 NSaved=   6.
 NSaved= 6 IEnMin= 6 EnMin= -227.397320047515     IErMin= 6 ErrMin= 1.03D-07
 ErrMax= 1.03D-07  0.00D+00 EMaxC= 1.00D-01 BMatC= 4.12D-12 BMatP= 6.61D-12
 IDIUse=1 WtCom= 1.00D+00 WtEn= 0.00D+00
 Coeff-Com: -0.226D-02 0.423D-02 0.494D-01 0.729D-01 0.451D+00 0.425D+00
 Coeff:     -0.226D-02 0.423D-02 0.494D-01 0.729D-01 0.451D+00 0.425D+00
 Gap=     0.181 Goal=   None    Shift=    0.000
 RMSDP=1.14D-08 MaxDP=4.68D-07 DE=-7.39D-13 OVMax= 7.96D-07

 Cycle  14  Pass 1  IDiag  1:
 E= -227.397320047521     Delta-E=       -0.000000000006 Rises=F Damp=F
 DIIS: error= 2.08D-08 at cycle   7 NSaved=   7.
 NSaved= 7 IEnMin= 7 EnMin= -227.397320047521     IErMin= 7 ErrMin= 2.08D-08
 ErrMax= 2.08D-08  0.00D+00 EMaxC= 1.00D-01 BMatC= 1.13D-13 BMatP= 4.12D-12
 IDIUse=1 WtCom= 1.00D+00 WtEn= 0.00D+00
 Coeff-Com:  0.285D-04-0.491D-03-0.526D-02-0.165D-02 0.994D-01 0.180D+00
 Coeff-Com:  0.728D+00
 Coeff:      0.285D-04-0.491D-03-0.526D-02-0.165D-02 0.994D-01 0.180D+00
 Coeff:      0.728D+00
 Gap=     0.181 Goal=   None    Shift=    0.000
 RMSDP=2.35D-09 MaxDP=5.98D-08 DE=-5.51D-12 OVMax= 1.28D-07

 SCF Done:  E(RB3LYP) =  -227.397320048     A.U. after   14 cycles
            NFock= 14  Conv=0.23D-08     -V/T= 2.0090
 KE= 2.253659537131D+02 PE=-8.491907096767D+02 EE= 2.361077888057D+02
 Leave Link  502 at Fri Aug 26 09:48:14 2022, MaxMem= 24159191040 cpu:        68.8
 (Enter /public/home/users/caep010/software/Gaussian09/g09/l601.exe)
 Copying SCF densities to generalized density rwf, IOpCl= 0 IROHF=0.

 **********************************************************************

            Population analysis using the SCF density.

 **********************************************************************

 Orbital symmetries:
       Occupied  (A) (A) (A) (A) (A) (A) (A) (A) (A) (A) (A) (A)
                 (A) (A) (A) (A) (A) (A) (A)
       Virtual   (A) (A) (A) (A) (A) (A) (A) (A) (A) (A) (A) (A)
                 (A) (A) (A) (A) (A) (A) (A) (A) (A) (A) (A) (A)
                 (A) (A) (A) (A) (A) (A) (A) (A) (A) (A) (A) (A)
                 (A) (A) (A) (A) (A) (A) (A) (A) (A) (A) (A) (A)
                 (A) (A) (A) (A) (A) (A) (A) (A) (A) (A) (A) (A)
                 (A) (A) (A) (A) (A) (A) (A) (A) (A) (A) (A) (A)
                 (A) (A) (A) (A) (A) (A) (A) (A) (A) (A) (A) (A)
                 (A) (A) (A) (A) (A) (A) (A) (A) (A) (A) (A) (A)
                 (A) (A) (A) (A) (A) (A) (A) (A) (A) (A) (A) (A)
                 (A) (A) (A) (A) (A) (A) (A) (A) (A) (A) (A) (A)
                 (A) (A) (A) (A) (A) (A) (A) (A) (A) (A) (A) (A)
                 (A) (A) (A) (A) (A) (A) (A) (A) (A) (A) (A) (A)
                 (A) (A) (A) (A) (A) (A) (A)
 The electronic state is 1-A.
 Alpha  occ. eigenvalues --  -14.32338 -14.32134 -10.24471 -10.23702 -10.20033
 Alpha  occ. eigenvalues --   -0.91565  -0.86496  -0.73992  -0.65297  -0.56673
 Alpha  occ. eigenvalues --   -0.49132  -0.45600  -0.44053  -0.42836  -0.40274
 Alpha  occ. eigenvalues --   -0.35046  -0.28232  -0.25700  -0.24856
 Alpha virt. eigenvalues --   -0.06724   0.05943   0.08181   0.11233   0.12666
 Alpha virt. eigenvalues --    0.13972   0.16810   0.17553   0.22433   0.29562
 Alpha virt. eigenvalues --    0.33676   0.36504   0.43274   0.48332   0.49192
 Alpha virt. eigenvalues --    0.51688   0.54788   0.55468   0.57437   0.59454
 Alpha virt. eigenvalues --    0.59972   0.61204   0.64842   0.66313   0.71220
 Alpha virt. eigenvalues --    0.72197   0.74056   0.75014   0.76822   0.78179
 Alpha virt. eigenvalues --    0.79406   0.82055   0.83483   0.85056   0.88078
 Alpha virt. eigenvalues --    0.91223   0.94616   0.99089   1.00931   1.05099
 Alpha virt. eigenvalues --    1.07612   1.17359   1.24073   1.24771   1.27479
 Alpha virt. eigenvalues --    1.34917   1.38324   1.40138   1.43481   1.45364
 Alpha virt. eigenvalues --    1.50428   1.51775   1.56157   1.58112   1.67461
 Alpha virt. eigenvalues --    1.72867   1.75178   1.82140   1.84734   1.89607
 Alpha virt. eigenvalues --    1.92180   1.97182   2.08736   2.15958   2.20751
 Alpha virt. eigenvalues --    2.24810   2.29393   2.30741   2.41396   2.43138
 Alpha virt. eigenvalues --    2.49309   2.55351   2.65980   2.69377   2.75280
 Alpha virt. eigenvalues --    2.78183   2.84276   2.85408   2.87294   2.89409
 Alpha virt. eigenvalues --    2.90515   2.95565   2.95998   3.00614   3.07487
 Alpha virt. eigenvalues --    3.11958   3.14141   3.18634   3.21214   3.28522
 Alpha virt. eigenvalues --    3.30240   3.36283   3.38055   3.41581   3.55410
 Alpha virt. eigenvalues --    3.60099   3.62700   3.64451   3.71712   3.75026
 Alpha virt. eigenvalues --    3.78219   3.84784   3.88237   3.90200   3.92588
 Alpha virt. eigenvalues --    3.96346   3.99524   4.00646   4.09367   4.11520
 Alpha virt. eigenvalues --    4.15129   4.18694   4.20839   4.26649   4.28909
 Alpha virt. eigenvalues --    4.33753   4.36379   4.38890   4.41137   4.42541
 Alpha virt. eigenvalues --    4.43817   4.47296   4.52587   4.55153   4.57047
 Alpha virt. eigenvalues --    4.63746   4.66889   4.70332   4.71053   4.75673
 Alpha virt. eigenvalues --    4.78019   4.83487   4.89094   4.92027   4.95191
 Alpha virt. eigenvalues --    5.11040   5.13445   5.23980   5.33521   5.56208
 Alpha virt. eigenvalues --    5.62175   5.66079   5.73769   5.86494   8.47527
 Alpha virt. eigenvalues --   10.47124  10.85948  11.34207  11.42022  11.66206
 Alpha virt. eigenvalues --   12.74569
          Condensed to atoms (all electrons):
               1          2          3          4          5          6
     1  C    5.238665   0.387860  -0.131231  -0.078345   0.009632   0.364478
     2  C    0.387860   4.510890   0.668307   0.342712  -0.023312  -0.014969
     3  N   -0.131231   0.668307   6.619519  -0.007184  -0.030088  -0.002509
     4  C   -0.078345   0.342712  -0.007184   4.838843   0.607971   0.001932
     5  N    0.009632  -0.023312  -0.030088   0.607971   6.518999  -0.000166
     6  H    0.364478  -0.014969  -0.002509   0.001932  -0.000166   0.563078
     7  H    0.341598  -0.017272   0.006681  -0.001162  -0.000105  -0.027308
     8  H    0.359861  -0.016609  -0.000878   0.001684  -0.000166  -0.024321
     9  H   -0.017399  -0.090895   0.340314   0.009032  -0.000472   0.004852
    10  H   -0.001815  -0.060463   0.001621   0.364456  -0.019833  -0.000126
    11  H    0.000988   0.000026   0.012552  -0.096165   0.339071  -0.000009
               7          8          9         10         11
     1  C    0.341598   0.359861  -0.017399  -0.001815   0.000988
     2  C   -0.017272  -0.016609  -0.090895  -0.060463   0.000026
     3  N    0.006681  -0.000878   0.340314   0.001621   0.012552
     4  C   -0.001162   0.001684   0.009032   0.364456  -0.096165
     5  N   -0.000105  -0.000166  -0.000472  -0.019833   0.339071
     6  H   -0.027308  -0.024321   0.004852  -0.000126  -0.000009
     7  H    0.595737  -0.026625   0.000368   0.004305  -0.000029
     8  H   -0.026625   0.558022   0.000978   0.000188  -0.000013
     9  H    0.000368   0.000978   0.519335  -0.000145  -0.000898
    10  H    0.004305   0.000188  -0.000145   0.583111   0.006012
    11  H   -0.000029  -0.000013  -0.000898   0.006012   0.479870
 Mulliken charges:
               1
     1  C   -0.474292
     2  C    0.313726
     3  N   -0.477104
     4  C    0.016226
     5  N   -0.401531
     6  H    0.135068
     7  H    0.123811
     8  H    0.147880
     9  H    0.234930
    10  H    0.122690
    11  H    0.258596
 Sum of Mulliken charges =  -0.00000
 Mulliken charges with hydrogens summed into heavy atoms:
               1
     1  C   -0.067533
     2  C    0.313726
     3  N   -0.242174
     4  C    0.138916
     5  N   -0.142935
 Electronic spatial extent (au):  <R**2>=            438.8590
 Charge=             -0.0000 electrons
 Dipole moment (field-independent basis, Debye):
    X=             -2.9465    Y=             -0.5128    Z=              0.0271  Tot=              2.9909
 Quadrupole moment (field-independent basis, Debye-Ang):
   XX=            -32.3665   YY=            -28.7877   ZZ=            -30.5460
   XY=              0.6381   XZ=             -0.1984   YZ=             -0.0945
 Traceless Quadrupole moment (field-independent basis, Debye-Ang):
   XX=             -1.7998   YY=              1.7790   ZZ=              0.0208
   XY=              0.6381   XZ=             -0.1984   YZ=             -0.0945
 Octapole moment (field-independent basis, Debye-Ang**2):
  XXX=            -15.6746  YYY=              0.3363  ZZZ=              0.7446  XYY=             -2.1938
  XXY=             12.9309  XXZ=             -0.2147  XZZ=             -1.1078  YZZ=              0.2120
  YYZ=             -0.2759  XYZ=              0.1387
 Hexadecapole moment (field-independent basis, Debye-Ang**3):
 XXXX=           -406.7273 YYYY=           -155.9835 ZZZZ=            -35.3855 XXXY=             15.4367
 XXXZ=              0.1747 YYYX=            -12.4762 YYYZ=              1.0373 ZZZX=             -1.6548
 ZZZY=             -0.6249 XXYY=            -79.1193 XXZZ=            -66.9234 YYZZ=            -34.3890
 XXYZ=             -1.1459 YYXZ=              0.2524 ZZXY=              0.8417
 N-N= 1.603196471104D+02 E-N=-8.491907114906D+02  KE= 2.253659537131D+02
 No NMR shielding tensors so no spin-rotation constants.
 Leave Link  601 at Fri Aug 26 09:48:15 2022, MaxMem= 24159191040 cpu:        14.1
 (Enter /public/home/users/caep010/software/Gaussian09/g09/l701.exe)
 Compute integral first derivatives.
 ... and contract with generalized density number  0.
 Leave Link  701 at Fri Aug 26 09:48:15 2022, MaxMem= 24159191040 cpu:        15.2
 (Enter /public/home/users/caep010/software/Gaussian09/g09/l702.exe)
 L702 exits ... SP integral derivatives will be done elsewhere.
 Leave Link  702 at Fri Aug 26 09:48:16 2022, MaxMem= 24159191040 cpu:         0.6
 (Enter /public/home/users/caep010/software/Gaussian09/g09/l703.exe)
 Compute integral first derivatives, UseDBF=F ICtDFT=           0.
 Integral derivatives from FoFJK, PRISM(SPDF).
 Calling FoFJK, ICntrl=      2127 FMM=F ISym2X=0 I1Cent= 0 IOpClX= 0 NMat=1 NMatS=1 NMatT=0.
 FoFJK:  IHMeth= 1 ICntrl=    2127 DoSepK=F KAlg= 0 I1Cent=   0 FoldK=F
 IRaf=         0 NMat=   1 IRICut=       1 DoRegI=T DoRafI=F ISym2E= 0.
 FoFCou: FMM=F IPFlag=           0 FMFlag=      100000 FMFlg1=         800
         NFxFlg=           0 DoJE=F BraDBF=F KetDBF=F FulRan=T
         wScrn=  0.000000 ICntrl=    2127 IOpCl=  0 I1Cent=           0 NGrid=           0
         NMat0=    1 NMatS0=      1 NMatT0=    0 NMatD0=    1 NMtDS0=    0 NMtDT0=    0
 Symmetry not used in FoFCou.
 Leave Link  703 at Fri Aug 26 09:48:17 2022, MaxMem= 24159191040 cpu:        29.6
 (Enter /public/home/users/caep010/software/Gaussian09/g09/l716.exe)
 Dipole        =-1.15925389D+00-2.01735836D-01 1.06543618D-02
 ***** Axes restored to original set *****
 -------------------------------------------------------------------
 Center     Atomic                   Forces (Hartrees/Bohr)
 Number     Number              X              Y              Z
 -------------------------------------------------------------------
      1        6          -0.009965942   -0.014871502   -0.003888931
      2        6          -0.028489636    0.051116898   -0.017791016
      3        7           0.017679361   -0.010014775    0.005909877
      4        6           0.052821094    0.044397193   -0.008708812
      5        7          -0.007356254   -0.025055735    0.008523500
      6        1           0.004378079   -0.004003202    0.010553884
      7        1          -0.004259211    0.008483183    0.003273501
      8        1           0.002026817   -0.004668514   -0.007744267
      9        1           0.003398442   -0.027394724    0.008664044
     10        1          -0.001520724   -0.004590426    0.001388240
     11        1          -0.028712026   -0.013398396   -0.000180021
 -------------------------------------------------------------------
 Cartesian Forces:  Max     0.052821094 RMS     0.019318451
 Leave Link  716 at Fri Aug 26 09:48:17 2022, MaxMem= 24159191040 cpu:         1.0
 (Enter /public/home/users/caep010/software/Gaussian09/g09/l103.exe)

 GradGradGradGradGradGradGradGradGradGradGradGradGradGradGradGradGradGrad
 Berny optimization.
 FormGI is forming the generalized inverse of G from B-inverse, IUseBI=4.
 Internal  Forces:  Max     0.046899715 RMS     0.015732797
 Search for a local minimum.
 Step number   1 out of a maximum of   48
 All quantities printed in internal units (Hartrees-Bohrs-Radians)
 RMS Force = .15733D-01 SwitMx=.10000D-02 MixMth= 1
 Mixed Optimization -- RFO/linear search
 Second derivative matrix not updated -- first step.
 ITU=  0
     Eigenvalues ---    0.00764   0.01074   0.01263   0.01734   0.03059
     Eigenvalues ---    0.03068   0.07357   0.07438   0.16000   0.16000
     Eigenvalues ---    0.16000   0.16000   0.16000   0.16000   0.22000
     Eigenvalues ---    0.24956   0.24980   0.32365   0.32515   0.32530
     Eigenvalues ---    0.32617   0.34945   0.35717   0.40613   0.40666
     Eigenvalues ---    0.68131   0.68322
 RFO step:  Lambda=-3.11198433D-02 EMin= 7.64393067D-03
 Linear search not attempted -- first point.
 Maximum step size (   0.300) exceeded in Quadratic search.
    -- Step size scaled by   0.837
 Iteration  1 RMS(Cart)=  0.06169352 RMS(Int)=  0.00432889
 Iteration  2 RMS(Cart)=  0.00414550 RMS(Int)=  0.00018506
 Iteration  3 RMS(Cart)=  0.00001561 RMS(Int)=  0.00018484
 Iteration  4 RMS(Cart)=  0.00000000 RMS(Int)=  0.00018484
 ITry= 1 IFail=0 DXMaxC= 2.75D-01 DCOld= 1.00D+10 DXMaxT= 3.00D-01 DXLimC= 3.00D+00 Rises=F
 Variable       Old X    -DE/DX   Delta X   Delta X   Delta X     New X
                                 (Linear)    (Quad)   (Total)
    R1        2.83481   0.01229   0.00000   0.02902   0.02902   2.86383
    R2        2.09911  -0.01193   0.00000  -0.02804  -0.02804   2.07107
    R3        2.09885  -0.00871   0.00000  -0.02047  -0.02047   2.07838
    R4        2.09729  -0.00865   0.00000  -0.02028  -0.02028   2.07701
    R5        2.45032  -0.03460   0.00000  -0.04068  -0.04068   2.40964
    R6        2.79063   0.01048   0.00000   0.02307   0.02307   2.81370
    R7        1.97428  -0.02246   0.00000  -0.04301  -0.04301   1.93127
    R8        2.44905  -0.04514   0.00000  -0.05293  -0.05293   2.39612
    R9        2.04526   0.00502   0.00000   0.01082   0.01082   2.05609
   R10        1.97358  -0.02096   0.00000  -0.04009  -0.04009   1.93349
    A1        1.92880   0.00027   0.00000   0.00245   0.00235   1.93115
    A2        1.93011   0.00591   0.00000   0.02724   0.02711   1.95722
    A3        1.90997   0.00246   0.00000   0.00815   0.00811   1.91808
    A4        1.88633  -0.00143   0.00000  -0.00122  -0.00141   1.88492
    A5        1.90469  -0.00231   0.00000  -0.01269  -0.01269   1.89200
    A6        1.90350  -0.00513   0.00000  -0.02497  -0.02504   1.87847
    A7        2.09601   0.02136   0.00000   0.06409   0.06403   2.16004
    A8        2.08538  -0.00697   0.00000  -0.02044  -0.02052   2.06486
    A9        2.09986  -0.01431   0.00000  -0.04230  -0.04239   2.05747
   A10        2.12989  -0.03595   0.00000  -0.15752  -0.15752   1.97237
   A11        2.13288   0.01546   0.00000   0.05157   0.05157   2.18445
   A12        2.07991  -0.00809   0.00000  -0.02733  -0.02733   2.05257
   A13        2.07039  -0.00738   0.00000  -0.02424  -0.02424   2.04616
   A14        2.14342  -0.04690   0.00000  -0.20551  -0.20551   1.93791
    D1        0.60544  -0.00175   0.00000  -0.02596  -0.02628   0.57916
    D2       -2.60260  -0.00104   0.00000  -0.00424  -0.00406  -2.60666
    D3        2.69345   0.00045   0.00000  -0.00835  -0.00856   2.68490
    D4       -0.51459   0.00116   0.00000   0.01337   0.01367  -0.50092
    D5       -1.49247  -0.00063   0.00000  -0.01699  -0.01721  -1.50969
    D6        1.58267   0.00008   0.00000   0.00473   0.00501   1.58768
    D7       -0.03159  -0.00041   0.00000  -0.00103  -0.00094  -0.03253
    D8       -3.10617  -0.00142   0.00000  -0.02382  -0.02390  -3.13007
    D9       -3.13135  -0.00087   0.00000  -0.00960  -0.00916  -3.14051
   D10        0.01165  -0.00093   0.00000  -0.01048  -0.01003   0.00162
   D11       -0.05636   0.00122   0.00000   0.01630   0.01585  -0.04051
   D12        3.08665   0.00116   0.00000   0.01542   0.01498   3.10162
   D13       -0.00023   0.00001   0.00000   0.00010   0.00010  -0.00013
   D14        3.13996   0.00007   0.00000   0.00097   0.00097   3.14093
         Item               Value     Threshold  Converged?
 Maximum Force            0.046900     0.000450     NO 
 RMS     Force            0.015733     0.000300     NO 
 Maximum Displacement     0.274634     0.001800     NO 
 RMS     Displacement     0.063929     0.001200     NO 
 Predicted change in Energy=-1.658751D-02
 Lowest energy point so far.  Saving SCF results.
 GradGradGradGradGradGradGradGradGradGradGradGradGradGradGradGradGradGrad

 Leave Link  103 at Fri Aug 26 09:48:17 2022, MaxMem= 24159191040 cpu:         3.3
 (Enter /public/home/users/caep010/software/Gaussian09/g09/l202.exe)
                          Input orientation:                          
 ---------------------------------------------------------------------
 Center     Atomic      Atomic             Coordinates (Angstroms)
 Number     Number       Type             X           Y           Z
 ---------------------------------------------------------------------
      1          6           0       -1.387677   -0.301074   -0.155463
      2          6           0        0.028484    0.235376   -0.097458
      3          7           0        0.352274    1.419718   -0.441620
      4          6           0        1.097208   -0.649642    0.442478
      5          7           0        2.320621   -0.334584    0.550888
      6          1           0       -1.934283    0.141106   -0.996197
      7          1           0       -1.412297   -1.394487   -0.271533
      8          1           0       -1.920047   -0.052898    0.773526
      9          1           0       -0.438669    1.964514   -0.790984
     10          1           0        0.808716   -1.646209    0.770267
     11          1           0        2.485570    0.618078    0.216097
 ---------------------------------------------------------------------
                    Distance matrix (angstroms):
                    1          2          3          4          5
     1  C    0.000000
     2  C    1.515472   0.000000
     3  N    2.463827   1.275129   0.000000
     4  C    2.579474   1.488946   2.370403   0.000000
     5  N    3.775120   2.449306   2.817275   1.267972   0.000000
     6  H    1.095963   2.160804   2.677825   3.447464   4.552358
     7  H    1.099832   2.182340   3.326017   2.713342   3.966667
     8  H    1.099104   2.153715   2.967932   3.093465   4.255841
     9  H    2.537202   1.920710   1.021983   3.273249   3.834078
    10  H    2.736878   2.214062   3.328200   1.088034   2.013540
    11  H    3.998117   2.506401   2.371955   1.893650   1.023160
                    6          7          8          9         10
     6  H    0.000000
     7  H    1.776416   0.000000
     8  H    1.780382   1.774773   0.000000
     9  H    2.367233   3.535628   2.951631   0.000000
    10  H    3.720071   2.466092   3.159873   4.126838   0.000000
    11  H    4.607847   4.413792   4.491146   3.373170   2.871573
                   11
    11  H    0.000000
 Stoichiometry    C3H6N2
 Framework group  C1[X(C3H6N2)]
 Deg. of freedom    27
 Full point group                 C1      NOp   1
 RotChk:  IX=0 Diff= 1.97D-03
 Largest Abelian subgroup         C1      NOp   1
 Largest concise Abelian subgroup C1      NOp   1
                         Standard orientation:                         
 ---------------------------------------------------------------------
 Center     Atomic      Atomic             Coordinates (Angstroms)
 Number     Number       Type             X           Y           Z
 ---------------------------------------------------------------------
      1          6           0       -1.709780   -0.640537   -0.002298
      2          6           0       -0.398720    0.119488   -0.014160
      3          7           0       -0.316967    1.391805    0.007761
      4          6           0        0.869611   -0.660226    0.004314
      5          7           0        2.034591   -0.159688   -0.001644
      6          1           0       -2.485368   -0.081549   -0.538145
      7          1           0       -1.619003   -1.630957   -0.471825
      8          1           0       -2.044645   -0.792622    1.033446
      9          1           0       -1.230025    1.850887    0.003699
     10          1           0        0.794012   -1.745452    0.024020
     11          1           0        1.995001    0.862520   -0.021146
 ---------------------------------------------------------------------
 Rotational constants (GHZ):     10.1326080      4.0084890      2.9253333
 Leave Link  202 at Fri Aug 26 09:48:17 2022, MaxMem= 24159191040 cpu:         0.9
 (Enter /public/home/users/caep010/software/Gaussian09/g09/l301.exe)
 Standard basis: GTBas3 (6D, 7F)
 Ernie: Thresh=  0.10000D-02 Tol=  0.10000D-05 Strict=F.
 There are   185 symmetry adapted cartesian basis functions of A   symmetry.
 There are   170 symmetry adapted basis functions of A   symmetry.
   170 basis functions,   262 primitive gaussians,   185 cartesian basis functions
    19 alpha electrons       19 beta electrons
       nuclear repulsion energy       161.4646898866 Hartrees.
 IExCor=  402 DFT=T Ex+Corr=B3LYP ExCW=0 ScaHFX=  0.200000
 ScaDFX=  0.800000  0.720000  1.000000  0.810000 ScalE2=  1.000000  1.000000
 IRadAn=      0 IRanWt=     -1 IRanGd=            0 ICorTp=0 IEmpDi=  4
 NAtoms=   11 NActive=   11 NUniq=   11 SFac= 1.00D+00 NAtFMM=   60 NAOKFM=F Big=F
 Integral buffers will be    131072 words long.
 Raffenetti 2 integral format.
 Two-electron integral symmetry is turned on.
 Leave Link  301 at Fri Aug 26 09:48:17 2022, MaxMem= 24159191040 cpu:         1.8
 (Enter /public/home/users/caep010/software/Gaussian09/g09/l302.exe)
 NPDir=0 NMtPBC=     1 NCelOv=     1 NCel=       1 NClECP=     1 NCelD=      1
         NCelK=      1 NCelE2=     1 NClLst=     1 CellRange=     0.0.
 One-electron integrals computed using PRISM.
 NBasis=   170 RedAO= T EigKep=  2.54D-04  NBF=   170
 NBsUse=   170 1.00D-06 EigRej= -1.00D+00 NBFU=   170
 Precomputing XC quadrature grid using
 IXCGrd= 4 IRadAn=           0 IRanWt=          -1 IRanGd=           0 AccXCQ= 0.00D+00.
 Generated NRdTot=       0 NPtTot=           0 NUsed=           0 NTot=          32
 NSgBfM=   185   185   185   185   185 MxSgAt=    11 MxSgA2=    11.
 Leave Link  302 at Fri Aug 26 09:48:18 2022, MaxMem= 24159191040 cpu:        14.7
 (Enter /public/home/users/caep010/software/Gaussian09/g09/l303.exe)
 DipDrv:  MaxL=1.
 Leave Link  303 at Fri Aug 26 09:48:18 2022, MaxMem= 24159191040 cpu:         0.7
 (Enter /public/home/users/caep010/software/Gaussian09/g09/l401.exe)
 Initial guess from the checkpoint file:  "G4.Frag_688.chk"
 B after Tr=     0.000000    0.000000   -0.000000
         Rot=    0.999994   -0.000562   -0.000096    0.003391 Ang=  -0.39 deg.
 Guess basis will be translated and rotated to current coordinates.
 JPrj=2 DoOrth=T DoCkMO=T.
 Generating alternative initial guess.
 ExpMin= 1.61D-01 ExpMax= 4.17D+03 ExpMxC= 6.27D+02 IAcc=1 IRadAn=         1 AccDes= 0.00D+00
 Harris functional with IExCor=  402 and IRadAn=       1 diagonalized for initial guess.
 HarFok:  IExCor=  402 AccDes= 0.00D+00 IRadAn=         1 IDoV= 1 UseB2=F ITyADJ=14
 ICtDFT=  3500011 ScaDFX=  1.000000  1.000000  1.000000  1.000000
 FoFCou: FMM=F IPFlag=           0 FMFlag=      100000 FMFlg1=           0
         NFxFlg=           0 DoJE=T BraDBF=F KetDBF=T FulRan=T
         wScrn=  0.000000 ICntrl=     500 IOpCl=  0 I1Cent=   200000004 NGrid=           0
         NMat0=    1 NMatS0=      1 NMatT0=    0 NMatD0=    1 NMtDS0=    0 NMtDT0=    0
 Petite list used in FoFCou.
 Harris En= -227.423176966626    
 Leave Link  401 at Fri Aug 26 09:48:19 2022, MaxMem= 24159191040 cpu:        22.1
 (Enter /public/home/users/caep010/software/Gaussian09/g09/l502.exe)
 Closed shell SCF:
 Using DIIS extrapolation, IDIIS=  1040.
 Integral symmetry usage will be decided dynamically.
 Keep R1 ints in memory in canonical form, NReq=108986210.
 IVT=      128495 IEndB=      128495 NGot= 24159191040 MDV= 24053422166
 LenX= 24053422166 LenY= 24053387500
 Requested convergence on RMS density matrix=1.00D-08 within 128 cycles.
 Requested convergence on MAX density matrix=1.00D-06.
 Requested convergence on             energy=1.00D-06.
 No special actions if energy rises.
 FoFCou: FMM=F IPFlag=           0 FMFlag=           0 FMFlg1=           0
         NFxFlg=           0 DoJE=F BraDBF=F KetDBF=F FulRan=T
         wScrn=  0.000000 ICntrl=     600 IOpCl=  0 I1Cent=           0 NGrid=           0
         NMat0=    1 NMatS0=  14535 NMatT0=    0 NMatD0=    1 NMtDS0=    0 NMtDT0=    0
 Symmetry not used in FoFCou.
 Integral accuracy reduced to 1.0D-05 until final iterations.

 Cycle   1  Pass 0  IDiag  1:
 E= -227.408215042686    
 DIIS: error= 2.99D-03 at cycle   1 NSaved=   1.
 NSaved= 1 IEnMin= 1 EnMin= -227.408215042686     IErMin= 1 ErrMin= 2.99D-03
 ErrMax= 2.99D-03  0.00D+00 EMaxC= 1.00D-01 BMatC= 4.99D-03 BMatP= 4.99D-03
 IDIUse=3 WtCom= 9.70D-01 WtEn= 2.99D-02
 Coeff-Com:  0.100D+01
 Coeff-En:   0.100D+01
 Coeff:      0.100D+01
 Gap=     1.065 Goal=   None    Shift=    0.000
 GapD=    1.065 DampG=2.000 DampE=1.000 DampFc=2.0000 IDamp=-1.
 RMSDP=6.93D-04 MaxDP=1.60D-02              OVMax= 2.01D-02

 Cycle   2  Pass 0  IDiag  1:
 E= -227.412358529127     Delta-E=       -0.004143486441 Rises=F Damp=F
 DIIS: error= 1.28D-03 at cycle   2 NSaved=   2.
 NSaved= 2 IEnMin= 2 EnMin= -227.412358529127     IErMin= 2 ErrMin= 1.28D-03
 ErrMax= 1.28D-03  0.00D+00 EMaxC= 1.00D-01 BMatC= 3.98D-04 BMatP= 4.99D-03
 IDIUse=3 WtCom= 9.87D-01 WtEn= 1.28D-02
 Coeff-Com:  0.104D+00 0.896D+00
 Coeff-En:   0.000D+00 0.100D+01
 Coeff:      0.102D+00 0.898D+00
 Gap=     0.202 Goal=   None    Shift=    0.000
 RMSDP=2.55D-04 MaxDP=1.10D-02 DE=-4.14D-03 OVMax= 1.52D-02

 Cycle   3  Pass 0  IDiag  1:
 E= -227.412024720737     Delta-E=        0.000333808391 Rises=F Damp=F
 DIIS: error= 1.56D-03 at cycle   3 NSaved=   3.
 NSaved= 3 IEnMin= 2 EnMin= -227.412358529127     IErMin= 2 ErrMin= 1.28D-03
 ErrMax= 1.56D-03  0.00D+00 EMaxC= 1.00D-01 BMatC= 7.73D-04 BMatP= 3.98D-04
 IDIUse=3 WtCom= 2.02D-01 WtEn= 7.98D-01
 Coeff-Com:  0.507D-02 0.585D+00 0.410D+00
 Coeff-En:   0.000D+00 0.642D+00 0.358D+00
 Coeff:      0.102D-02 0.630D+00 0.369D+00
 Gap=     0.201 Goal=   None    Shift=    0.000
 RMSDP=1.56D-04 MaxDP=7.16D-03 DE= 3.34D-04 OVMax= 1.01D-02

 Cycle   4  Pass 0  IDiag  1:
 E= -227.412687754018     Delta-E=       -0.000663033282 Rises=F Damp=F
 DIIS: error= 2.99D-04 at cycle   4 NSaved=   4.
 NSaved= 4 IEnMin= 4 EnMin= -227.412687754018     IErMin= 4 ErrMin= 2.99D-04
 ErrMax= 2.99D-04  0.00D+00 EMaxC= 1.00D-01 BMatC= 1.88D-05 BMatP= 3.98D-04
 IDIUse=3 WtCom= 9.97D-01 WtEn= 2.99D-03
 Coeff-Com: -0.819D-02 0.254D+00 0.177D+00 0.578D+00
 Coeff-En:   0.000D+00 0.000D+00 0.000D+00 0.100D+01
 Coeff:     -0.816D-02 0.253D+00 0.176D+00 0.579D+00
 Gap=     0.201 Goal=   None    Shift=    0.000
 RMSDP=3.26D-05 MaxDP=7.77D-04 DE=-6.63D-04 OVMax= 1.15D-03

 Cycle   5  Pass 0  IDiag  1:
 E= -227.412705288957     Delta-E=       -0.000017534939 Rises=F Damp=F
 DIIS: error= 5.28D-05 at cycle   5 NSaved=   5.
 NSaved= 5 IEnMin= 5 EnMin= -227.412705288957     IErMin= 5 ErrMin= 5.28D-05
 ErrMax= 5.28D-05  0.00D+00 EMaxC= 1.00D-01 BMatC= 9.80D-07 BMatP= 1.88D-05
 IDIUse=1 WtCom= 1.00D+00 WtEn= 0.00D+00
 Coeff-Com: -0.375D-02 0.557D-01 0.416D-01 0.229D+00 0.677D+00
 Coeff:     -0.375D-02 0.557D-01 0.416D-01 0.229D+00 0.677D+00
 Gap=     0.201 Goal=   None    Shift=    0.000
 RMSDP=9.61D-06 MaxDP=2.21D-04 DE=-1.75D-05 OVMax= 2.70D-04

 Initial convergence to 1.0D-05 achieved.  Increase integral accuracy.
 Cycle   6  Pass 1  IDiag  1:
 E= -227.412750786642     Delta-E=       -0.000045497684 Rises=F Damp=F
 DIIS: error= 1.23D-05 at cycle   1 NSaved=   1.
 NSaved= 1 IEnMin= 1 EnMin= -227.412750786642     IErMin= 1 ErrMin= 1.23D-05
 ErrMax= 1.23D-05  0.00D+00 EMaxC= 1.00D-01 BMatC= 7.41D-08 BMatP= 7.41D-08
 IDIUse=1 WtCom= 1.00D+00 WtEn= 0.00D+00
 Coeff-Com:  0.100D+01
 Coeff:      0.100D+01
 Gap=     0.201 Goal=   None    Shift=    0.000
 RMSDP=9.61D-06 MaxDP=2.21D-04 DE=-4.55D-05 OVMax= 2.49D-04

 Cycle   7  Pass 1  IDiag  1:
 E= -227.412750690340     Delta-E=        0.000000096302 Rises=F Damp=F
 DIIS: error= 2.10D-05 at cycle   2 NSaved=   2.
 NSaved= 2 IEnMin= 1 EnMin= -227.412750786642     IErMin= 1 ErrMin= 1.23D-05
 ErrMax= 2.10D-05  0.00D+00 EMaxC= 1.00D-01 BMatC= 1.75D-07 BMatP= 7.41D-08
 IDIUse=1 WtCom= 1.00D+00 WtEn= 0.00D+00
 Coeff-Com:  0.619D+00 0.381D+00
 Coeff:      0.619D+00 0.381D+00
 Gap=     0.201 Goal=   None    Shift=    0.000
 RMSDP=2.69D-06 MaxDP=1.24D-04 DE= 9.63D-08 OVMax= 2.01D-04

 Cycle   8  Pass 1  IDiag  1:
 E= -227.412750848642     Delta-E=       -0.000000158303 Rises=F Damp=F
 DIIS: error= 5.30D-06 at cycle   3 NSaved=   3.
 NSaved= 3 IEnMin= 3 EnMin= -227.412750848642     IErMin= 3 ErrMin= 5.30D-06
 ErrMax= 5.30D-06  0.00D+00 EMaxC= 1.00D-01 BMatC= 9.22D-09 BMatP= 7.41D-08
 IDIUse=1 WtCom= 1.00D+00 WtEn= 0.00D+00
 Coeff-Com:  0.140D+00 0.199D+00 0.660D+00
 Coeff:      0.140D+00 0.199D+00 0.660D+00
 Gap=     0.201 Goal=   None    Shift=    0.000
 RMSDP=6.42D-07 MaxDP=2.74D-05 DE=-1.58D-07 OVMax= 3.84D-05

 Cycle   9  Pass 1  IDiag  1:
 E= -227.412750855734     Delta-E=       -0.000000007092 Rises=F Damp=F
 DIIS: error= 1.64D-06 at cycle   4 NSaved=   4.
 NSaved= 4 IEnMin= 4 EnMin= -227.412750855734     IErMin= 4 ErrMin= 1.64D-06
 ErrMax= 1.64D-06  0.00D+00 EMaxC= 1.00D-01 BMatC= 1.12D-09 BMatP= 9.22D-09
 IDIUse=1 WtCom= 1.00D+00 WtEn= 0.00D+00
 Coeff-Com: -0.538D-02 0.598D-01 0.342D+00 0.603D+00
 Coeff:     -0.538D-02 0.598D-01 0.342D+00 0.603D+00
 Gap=     0.201 Goal=   None    Shift=    0.000
 RMSDP=2.26D-07 MaxDP=5.77D-06 DE=-7.09D-09 OVMax= 9.63D-06

 Cycle  10  Pass 1  IDiag  1:
 E= -227.412750856762     Delta-E=       -0.000000001028 Rises=F Damp=F
 DIIS: error= 3.84D-07 at cycle   5 NSaved=   5.
 NSaved= 5 IEnMin= 5 EnMin= -227.412750856762     IErMin= 5 ErrMin= 3.84D-07
 ErrMax= 3.84D-07  0.00D+00 EMaxC= 1.00D-01 BMatC= 2.79D-11 BMatP= 1.12D-09
 IDIUse=1 WtCom= 1.00D+00 WtEn= 0.00D+00
 Coeff-Com: -0.652D-02 0.196D-01 0.122D+00 0.257D+00 0.608D+00
 Coeff:     -0.652D-02 0.196D-01 0.122D+00 0.257D+00 0.608D+00
 Gap=     0.201 Goal=   None    Shift=    0.000
 RMSDP=4.12D-08 MaxDP=1.67D-06 DE=-1.03D-09 OVMax= 2.89D-06

 Cycle  11  Pass 1  IDiag  1:
 E= -227.412750856781     Delta-E=       -0.000000000019 Rises=F Damp=F
 DIIS: error= 1.60D-07 at cycle   6 NSaved=   6.
 NSaved= 6 IEnMin= 6 EnMin= -227.412750856781     IErMin= 6 ErrMin= 1.60D-07
 ErrMax= 1.60D-07  0.00D+00 EMaxC= 1.00D-01 BMatC= 9.18D-12 BMatP= 2.79D-11
 IDIUse=1 WtCom= 1.00D+00 WtEn= 0.00D+00
 Coeff-Com: -0.410D-02 0.930D-02 0.595D-01 0.132D+00 0.407D+00 0.396D+00
 Coeff:     -0.410D-02 0.930D-02 0.595D-01 0.132D+00 0.407D+00 0.396D+00
 Gap=     0.201 Goal=   None    Shift=    0.000
 RMSDP=1.72D-08 MaxDP=8.70D-07 DE=-1.91D-11 OVMax= 1.44D-06

 Cycle  12  Pass 1  IDiag  1:
 E= -227.412750856790     Delta-E=       -0.000000000009 Rises=F Damp=F
 DIIS: error= 2.72D-08 at cycle   7 NSaved=   7.
 NSaved= 7 IEnMin= 7 EnMin= -227.412750856790     IErMin= 7 ErrMin= 2.72D-08
 ErrMax= 2.72D-08  0.00D+00 EMaxC= 1.00D-01 BMatC= 2.59D-13 BMatP= 9.18D-12
 IDIUse=1 WtCom= 1.00D+00 WtEn= 0.00D+00
 Coeff-Com: -0.586D-05-0.790D-03-0.544D-02-0.802D-02 0.229D-01 0.142D+00
 Coeff-Com:  0.849D+00
 Coeff:     -0.586D-05-0.790D-03-0.544D-02-0.802D-02 0.229D-01 0.142D+00
 Coeff:      0.849D+00
 Gap=     0.201 Goal=   None    Shift=    0.000
 RMSDP=4.23D-09 MaxDP=1.25D-07 DE=-8.64D-12 OVMax= 3.85D-07

 SCF Done:  E(RB3LYP) =  -227.412750857     A.U. after   12 cycles
            NFock= 12  Conv=0.42D-08     -V/T= 2.0078
 KE= 2.256462878973D+02 PE=-8.515652982256D+02 EE= 2.370415695850D+02
 Leave Link  502 at Fri Aug 26 09:48:22 2022, MaxMem= 24159191040 cpu:        48.8
 (Enter /public/home/users/caep010/software/Gaussian09/g09/l701.exe)
 Compute integral first derivatives.
 ... and contract with generalized density number  0.
 Leave Link  701 at Fri Aug 26 09:48:23 2022, MaxMem= 24159191040 cpu:        14.0
 (Enter /public/home/users/caep010/software/Gaussian09/g09/l702.exe)
 L702 exits ... SP integral derivatives will be done elsewhere.
 Leave Link  702 at Fri Aug 26 09:48:23 2022, MaxMem= 24159191040 cpu:         0.5
 (Enter /public/home/users/caep010/software/Gaussian09/g09/l703.exe)
 Compute integral first derivatives, UseDBF=F ICtDFT=           0.
 Integral derivatives from FoFJK, PRISM(SPDF).
 Calling FoFJK, ICntrl=      2127 FMM=F ISym2X=0 I1Cent= 0 IOpClX= 0 NMat=1 NMatS=1 NMatT=0.
 FoFJK:  IHMeth= 1 ICntrl=    2127 DoSepK=F KAlg= 0 I1Cent=   0 FoldK=F
 IRaf=         0 NMat=   1 IRICut=       1 DoRegI=T DoRafI=F ISym2E= 0.
 FoFCou: FMM=F IPFlag=           0 FMFlag=      100000 FMFlg1=         800
         NFxFlg=           0 DoJE=F BraDBF=F KetDBF=F FulRan=T
         wScrn=  0.000000 ICntrl=    2127 IOpCl=  0 I1Cent=           0 NGrid=           0
         NMat0=    1 NMatS0=      1 NMatT0=    0 NMatD0=    1 NMtDS0=    0 NMtDT0=    0
 Symmetry not used in FoFCou.
 Leave Link  703 at Fri Aug 26 09:48:24 2022, MaxMem= 24159191040 cpu:        32.3
 (Enter /public/home/users/caep010/software/Gaussian09/g09/l716.exe)
 Dipole        =-1.34128303D+00-2.52649180D-01 7.22593472D-03
 ***** Axes restored to original set *****
 -------------------------------------------------------------------
 Center     Atomic                   Forces (Hartrees/Bohr)
 Number     Number              X              Y              Z
 -------------------------------------------------------------------
      1        6           0.000565561   -0.005487159   -0.001385017
      2        6          -0.012848796    0.010298561   -0.003459567
      3        7           0.006313664   -0.000620507    0.000302917
      4        6           0.009211243    0.002342438    0.000495707
      5        7           0.004197016   -0.006144139    0.003107336
      6        1           0.000510862    0.000210613    0.002366713
      7        1           0.000151397    0.003169429    0.001223146
      8        1           0.000622865   -0.001201203   -0.001467722
      9        1          -0.000853092   -0.002765291    0.000372691
     10        1          -0.003676893   -0.002889019    0.000325793
     11        1          -0.004193828    0.003086278   -0.001881998
 -------------------------------------------------------------------
 Cartesian Forces:  Max     0.012848796 RMS     0.004242656
 Leave Link  716 at Fri Aug 26 09:48:24 2022, MaxMem= 24159191040 cpu:         0.5
 (Enter /public/home/users/caep010/software/Gaussian09/g09/l103.exe)

 GradGradGradGradGradGradGradGradGradGradGradGradGradGradGradGradGradGrad
 Berny optimization.
 Using GEDIIS/GDIIS optimizer.
 FormGI is forming the generalized inverse of G from B-inverse, IUseBI=4.
 Internal  Forces:  Max     0.009219606 RMS     0.002814365
 Search for a local minimum.
 Step number   2 out of a maximum of   48
 All quantities printed in internal units (Hartrees-Bohrs-Radians)
 RMS Force = .28144D-02 SwitMx=.10000D-02 MixMth= 1
 Mixed Optimization -- RFO/linear search
 Update second derivatives using D2CorX and points    1    2
 DE= -1.54D-02 DEPred=-1.66D-02 R= 9.30D-01
 TightC=F SS=  1.41D+00  RLast= 3.04D-01 DXNew= 5.0454D-01 9.1240D-01
 Trust test= 9.30D-01 RLast= 3.04D-01 DXMaxT set to 5.05D-01
 ITU=  1  0
 Use linear search instead of GDIIS.
     Eigenvalues ---    0.00764   0.01074   0.01260   0.01735   0.03060
     Eigenvalues ---    0.03068   0.07138   0.07366   0.15545   0.16000
     Eigenvalues ---    0.16000   0.16000   0.16000   0.17656   0.22427
     Eigenvalues ---    0.24380   0.25159   0.32334   0.32485   0.32594
     Eigenvalues ---    0.32695   0.34721   0.35672   0.40580   0.42441
     Eigenvalues ---    0.68161   0.71550
 RFO step:  Lambda=-8.73323491D-04 EMin= 7.64022537D-03
 Quartic linear search produced a step of  0.15594.
 Iteration  1 RMS(Cart)=  0.02957122 RMS(Int)=  0.00056554
 Iteration  2 RMS(Cart)=  0.00067969 RMS(Int)=  0.00014894
 Iteration  3 RMS(Cart)=  0.00000027 RMS(Int)=  0.00014894
 ITry= 1 IFail=0 DXMaxC= 7.67D-02 DCOld= 1.00D+10 DXMaxT= 5.05D-01 DXLimC= 3.00D+00 Rises=F
 Variable       Old X    -DE/DX   Delta X   Delta X   Delta X     New X
                                 (Linear)    (Quad)   (Total)
    R1        2.86383  -0.00059   0.00452  -0.00770  -0.00317   2.86066
    R2        2.07107  -0.00199  -0.00437  -0.00162  -0.00599   2.06508
    R3        2.07838  -0.00328  -0.00319  -0.00768  -0.01087   2.06751
    R4        2.07701  -0.00181  -0.00316  -0.00250  -0.00566   2.07135
    R5        2.40964  -0.00194  -0.00634   0.00386  -0.00248   2.40716
    R6        2.81370   0.00686   0.00360   0.01822   0.02182   2.83552
    R7        1.93127  -0.00094  -0.00671   0.00535  -0.00135   1.92991
    R8        2.39612  -0.00065  -0.00825   0.00820  -0.00005   2.39607
    R9        2.05609   0.00372   0.00169   0.00994   0.01163   2.06772
   R10        1.93349   0.00281  -0.00625   0.01546   0.00921   1.94270
    A1        1.93115   0.00026   0.00037   0.00332   0.00366   1.93481
    A2        1.95722  -0.00015   0.00423  -0.00667  -0.00248   1.95474
    A3        1.91808   0.00043   0.00126  -0.00127  -0.00002   1.91806
    A4        1.88492   0.00077  -0.00022   0.01060   0.01034   1.89526
    A5        1.89200  -0.00058  -0.00198  -0.00231  -0.00429   1.88771
    A6        1.87847  -0.00077  -0.00390  -0.00360  -0.00752   1.87094
    A7        2.16004   0.00683   0.00999   0.01890   0.02871   2.18875
    A8        2.06486  -0.00445  -0.00320  -0.01596  -0.01934   2.04553
    A9        2.05747  -0.00235  -0.00661  -0.00180  -0.00860   2.04887
   A10        1.97237  -0.00528  -0.02456  -0.00215  -0.02672   1.94566
   A11        2.18445   0.00096   0.00804  -0.00575   0.00230   2.18675
   A12        2.05257  -0.00341  -0.00426  -0.01783  -0.02209   2.03048
   A13        2.04616   0.00245  -0.00378   0.02357   0.01979   2.06595
   A14        1.93791  -0.00922  -0.03205  -0.01951  -0.05156   1.88635
    D1        0.57916  -0.00110  -0.00410  -0.06156  -0.06582   0.51334
    D2       -2.60666  -0.00054  -0.00063  -0.03053  -0.03103  -2.63769
    D3        2.68490  -0.00004  -0.00133  -0.05026  -0.05173   2.63317
    D4       -0.50092   0.00052   0.00213  -0.01923  -0.01694  -0.51786
    D5       -1.50969  -0.00082  -0.00268  -0.05997  -0.06279  -1.57248
    D6        1.58768  -0.00026   0.00078  -0.02894  -0.02801   1.55968
    D7       -0.03253  -0.00009  -0.00015   0.00908   0.00916  -0.02337
    D8       -3.13007  -0.00059  -0.00373  -0.02149  -0.02544   3.12767
    D9       -3.14051  -0.00030  -0.00143  -0.00960  -0.01066   3.13202
   D10        0.00162  -0.00027  -0.00156  -0.00743  -0.00865  -0.00702
   D11       -0.04051   0.00047   0.00247   0.02015   0.02227  -0.01824
   D12        3.10162   0.00049   0.00234   0.02231   0.02428   3.12590
   D13       -0.00013   0.00009   0.00002   0.00358   0.00361   0.00348
   D14        3.14093   0.00006   0.00015   0.00141   0.00154  -3.14071
         Item               Value     Threshold  Converged?
 Maximum Force            0.009220     0.000450     NO 
 RMS     Force            0.002814     0.000300     NO 
 Maximum Displacement     0.076695     0.001800     NO 
 RMS     Displacement     0.029753     0.001200     NO 
 Predicted change in Energy=-8.334834D-04
 Lowest energy point so far.  Saving SCF results.
 GradGradGradGradGradGradGradGradGradGradGradGradGradGradGradGradGradGrad

 Leave Link  103 at Fri Aug 26 09:48:24 2022, MaxMem= 24159191040 cpu:         0.9
 (Enter /public/home/users/caep010/software/Gaussian09/g09/l202.exe)
                          Input orientation:                          
 ---------------------------------------------------------------------
 Center     Atomic      Atomic             Coordinates (Angstroms)
 Number     Number       Type             X           Y           Z
 ---------------------------------------------------------------------
      1          6           0       -1.380863   -0.302074   -0.152175
      2          6           0        0.025613    0.254579   -0.092718
      3          7           0        0.371667    1.425860   -0.454593
      4          6           0        1.097241   -0.645651    0.448274
      5          7           0        2.323364   -0.341613    0.557191
      6          1           0       -1.946853    0.156923   -0.966528
      7          1           0       -1.386580   -1.387199   -0.291762
      8          1           0       -1.904655   -0.093483    0.787819
      9          1           0       -0.422471    1.954557   -0.819023
     10          1           0        0.778309   -1.642286    0.768044
     11          1           0        2.445128    0.620286    0.215470
 ---------------------------------------------------------------------
                    Distance matrix (angstroms):
                    1          2          3          4          5
     1  C    0.000000
     2  C    1.513794   0.000000
     3  N    2.479633   1.273816   0.000000
     4  C    2.572855   1.500491   2.373349   0.000000
     5  N    3.771746   2.461197   2.820779   1.267944   0.000000
     6  H    1.092791   2.159560   2.692177   3.451419   4.561252
     7  H    1.094080   2.174705   3.321332   2.695721   3.946855
     8  H    1.096110   2.149982   3.005600   3.071084   4.241569
     9  H    2.540784   1.902162   1.021266   3.267514   3.834837
    10  H    2.702776   2.214850   3.327720   1.094189   2.030617
    11  H    3.952736   2.466329   2.323182   1.863758   1.028032
                    6          7          8          9         10
     6  H    0.000000
     7  H    1.775817   0.000000
     8  H    1.772630   1.762838   0.000000
     9  H    2.361564   3.517789   2.995542   0.000000
    10  H    3.697621   2.423841   3.097980   4.110709   0.000000
    11  H    4.571797   4.355372   4.444959   3.327699   2.864062
                   11
    11  H    0.000000
 Stoichiometry    C3H6N2
 Framework group  C1[X(C3H6N2)]
 Deg. of freedom    27
 Full point group                 C1      NOp   1
 RotChk:  IX=0 Diff= 1.21D-02
 Largest Abelian subgroup         C1      NOp   1
 Largest concise Abelian subgroup C1      NOp   1
                         Standard orientation:                         
 ---------------------------------------------------------------------
 Center     Atomic      Atomic             Coordinates (Angstroms)
 Number     Number       Type             X           Y           Z
 ---------------------------------------------------------------------
      1          6           0       -1.705361   -0.646008   -0.004896
      2          6           0       -0.406725    0.131879   -0.002138
      3          7           0       -0.307125    1.401771    0.005695
      4          6           0        0.867440   -0.660552    0.003368
      5          7           0        2.036055   -0.168647   -0.003686
      6          1           0       -2.497073   -0.079669   -0.501529
      7          1           0       -1.602399   -1.613641   -0.504994
      8          1           0       -2.022787   -0.845674    1.025070
      9          1           0       -1.225103    1.848963   -0.012188
     10          1           0        0.761785   -1.749595    0.011877
     11          1           0        1.950943    0.855834   -0.010302
 ---------------------------------------------------------------------
 Rotational constants (GHZ):     10.0217498      4.0244973      2.9235976
 Leave Link  202 at Fri Aug 26 09:48:24 2022, MaxMem= 24159191040 cpu:         0.3
 (Enter /public/home/users/caep010/software/Gaussian09/g09/l301.exe)
 Standard basis: GTBas3 (6D, 7F)
 Ernie: Thresh=  0.10000D-02 Tol=  0.10000D-05 Strict=F.
 There are   185 symmetry adapted cartesian basis functions of A   symmetry.
 There are   170 symmetry adapted basis functions of A   symmetry.
   170 basis functions,   262 primitive gaussians,   185 cartesian basis functions
    19 alpha electrons       19 beta electrons
       nuclear repulsion energy       161.4269682564 Hartrees.
 IExCor=  402 DFT=T Ex+Corr=B3LYP ExCW=0 ScaHFX=  0.200000
 ScaDFX=  0.800000  0.720000  1.000000  0.810000 ScalE2=  1.000000  1.000000
 IRadAn=      0 IRanWt=     -1 IRanGd=            0 ICorTp=0 IEmpDi=  4
 NAtoms=   11 NActive=   11 NUniq=   11 SFac= 1.00D+00 NAtFMM=   60 NAOKFM=F Big=F
 Integral buffers will be    131072 words long.
 Raffenetti 2 integral format.
 Two-electron integral symmetry is turned on.
 Leave Link  301 at Fri Aug 26 09:48:24 2022, MaxMem= 24159191040 cpu:         1.7
 (Enter /public/home/users/caep010/software/Gaussian09/g09/l302.exe)
 NPDir=0 NMtPBC=     1 NCelOv=     1 NCel=       1 NClECP=     1 NCelD=      1
         NCelK=      1 NCelE2=     1 NClLst=     1 CellRange=     0.0.
 One-electron integrals computed using PRISM.
 NBasis=   170 RedAO= T EigKep=  2.50D-04  NBF=   170
 NBsUse=   170 1.00D-06 EigRej= -1.00D+00 NBFU=   170
 Precomputing XC quadrature grid using
 IXCGrd= 4 IRadAn=           0 IRanWt=          -1 IRanGd=           0 AccXCQ= 0.00D+00.
 Generated NRdTot=       0 NPtTot=           0 NUsed=           0 NTot=          32
 NSgBfM=   185   185   185   185   185 MxSgAt=    11 MxSgA2=    11.
 Leave Link  302 at Fri Aug 26 09:48:25 2022, MaxMem= 24159191040 cpu:        14.0
 (Enter /public/home/users/caep010/software/Gaussian09/g09/l303.exe)
 DipDrv:  MaxL=1.
 Leave Link  303 at Fri Aug 26 09:48:25 2022, MaxMem= 24159191040 cpu:         0.8
 (Enter /public/home/users/caep010/software/Gaussian09/g09/l401.exe)
 Initial guess from the checkpoint file:  "G4.Frag_688.chk"
 B after Tr=    -0.000000   -0.000000    0.000000
         Rot=    0.999998   -0.002051   -0.000290    0.000630 Ang=  -0.25 deg.
 Guess basis will be translated and rotated to current coordinates.
 JPrj=2 DoOrth=T DoCkMO=T.
 Generating alternative initial guess.
 ExpMin= 1.61D-01 ExpMax= 4.17D+03 ExpMxC= 6.27D+02 IAcc=1 IRadAn=         1 AccDes= 0.00D+00
 Harris functional with IExCor=  402 and IRadAn=       1 diagonalized for initial guess.
 HarFok:  IExCor=  402 AccDes= 0.00D+00 IRadAn=         1 IDoV= 1 UseB2=F ITyADJ=14
 ICtDFT=  3500011 ScaDFX=  1.000000  1.000000  1.000000  1.000000
 FoFCou: FMM=F IPFlag=           0 FMFlag=      100000 FMFlg1=           0
         NFxFlg=           0 DoJE=T BraDBF=F KetDBF=T FulRan=T
         wScrn=  0.000000 ICntrl=     500 IOpCl=  0 I1Cent=   200000004 NGrid=           0
         NMat0=    1 NMatS0=      1 NMatT0=    0 NMatD0=    1 NMtDS0=    0 NMtDT0=    0
 Petite list used in FoFCou.
 Harris En= -227.423500530326    
 Leave Link  401 at Fri Aug 26 09:48:25 2022, MaxMem= 24159191040 cpu:        15.3
 (Enter /public/home/users/caep010/software/Gaussian09/g09/l502.exe)
 Closed shell SCF:
 Using DIIS extrapolation, IDIIS=  1040.
 Integral symmetry usage will be decided dynamically.
 Keep R1 ints in memory in canonical form, NReq=108986210.
 IVT=      128495 IEndB=      128495 NGot= 24159191040 MDV= 24053422166
 LenX= 24053422166 LenY= 24053387500
 Requested convergence on RMS density matrix=1.00D-08 within 128 cycles.
 Requested convergence on MAX density matrix=1.00D-06.
 Requested convergence on             energy=1.00D-06.
 No special actions if energy rises.
 FoFCou: FMM=F IPFlag=           0 FMFlag=           0 FMFlg1=           0
         NFxFlg=           0 DoJE=F BraDBF=F KetDBF=F FulRan=T
         wScrn=  0.000000 ICntrl=     600 IOpCl=  0 I1Cent=           0 NGrid=           0
         NMat0=    1 NMatS0=  14535 NMatT0=    0 NMatD0=    1 NMtDS0=    0 NMtDT0=    0
 Symmetry not used in FoFCou.
 Integral accuracy reduced to 1.0D-05 until final iterations.

 Cycle   1  Pass 0  IDiag  1:
 E= -227.412628292615    
 DIIS: error= 1.40D-03 at cycle   1 NSaved=   1.
 NSaved= 1 IEnMin= 1 EnMin= -227.412628292615     IErMin= 1 ErrMin= 1.40D-03
 ErrMax= 1.40D-03  0.00D+00 EMaxC= 1.00D-01 BMatC= 7.12D-04 BMatP= 7.12D-04
 IDIUse=3 WtCom= 9.86D-01 WtEn= 1.40D-02
 Coeff-Com:  0.100D+01
 Coeff-En:   0.100D+01
 Coeff:      0.100D+01
 Gap=     1.057 Goal=   None    Shift=    0.000
 GapD=    1.057 DampG=2.000 DampE=1.000 DampFc=2.0000 IDamp=-1.
 RMSDP=2.66D-04 MaxDP=5.47D-03              OVMax= 8.83D-03

 Cycle   2  Pass 0  IDiag  1:
 E= -227.413557461707     Delta-E=       -0.000929169092 Rises=F Damp=F
 DIIS: error= 2.37D-04 at cycle   2 NSaved=   2.
 NSaved= 2 IEnMin= 2 EnMin= -227.413557461707     IErMin= 2 ErrMin= 2.37D-04
 ErrMax= 2.37D-04  0.00D+00 EMaxC= 1.00D-01 BMatC= 2.23D-05 BMatP= 7.12D-04
 IDIUse=3 WtCom= 9.98D-01 WtEn= 2.37D-03
 Coeff-Com: -0.112D-01 0.101D+01
 Coeff-En:   0.000D+00 0.100D+01
 Coeff:     -0.111D-01 0.101D+01
 Gap=     0.206 Goal=   None    Shift=    0.000
 RMSDP=7.05D-05 MaxDP=2.35D-03 DE=-9.29D-04 OVMax= 4.68D-03

 Cycle   3  Pass 0  IDiag  1:
 E= -227.413536702031     Delta-E=        0.000020759676 Rises=F Damp=F
 DIIS: error= 3.71D-04 at cycle   3 NSaved=   3.
 NSaved= 3 IEnMin= 2 EnMin= -227.413557461707     IErMin= 2 ErrMin= 2.37D-04
 ErrMax= 3.71D-04  0.00D+00 EMaxC= 1.00D-01 BMatC= 5.08D-05 BMatP= 2.23D-05
 IDIUse=3 WtCom= 3.42D-01 WtEn= 6.58D-01
 Coeff-Com: -0.334D-01 0.634D+00 0.399D+00
 Coeff-En:   0.000D+00 0.642D+00 0.358D+00
 Coeff:     -0.114D-01 0.640D+00 0.372D+00
 Gap=     0.205 Goal=   None    Shift=    0.000
 RMSDP=4.49D-05 MaxDP=1.95D-03 DE= 2.08D-05 OVMax= 3.60D-03

 Cycle   4  Pass 0  IDiag  1:
 E= -227.413582952172     Delta-E=       -0.000046250141 Rises=F Damp=F
 DIIS: error= 6.74D-05 at cycle   4 NSaved=   4.
 NSaved= 4 IEnMin= 4 EnMin= -227.413582952172     IErMin= 4 ErrMin= 6.74D-05
 ErrMax= 6.74D-05  0.00D+00 EMaxC= 1.00D-01 BMatC= 1.75D-06 BMatP= 2.23D-05
 IDIUse=1 WtCom= 1.00D+00 WtEn= 0.00D+00
 Coeff-Com: -0.187D-01 0.281D+00 0.210D+00 0.528D+00
 Coeff:     -0.187D-01 0.281D+00 0.210D+00 0.528D+00
 Gap=     0.205 Goal=   None    Shift=    0.000
 RMSDP=8.35D-06 MaxDP=3.17D-04 DE=-4.63D-05 OVMax= 5.41D-04

 Initial convergence to 1.0D-05 achieved.  Increase integral accuracy.
 Cycle   5  Pass 1  IDiag  1:
 E= -227.413629709665     Delta-E=       -0.000046757494 Rises=F Damp=F
 DIIS: error= 2.09D-05 at cycle   1 NSaved=   1.
 NSaved= 1 IEnMin= 1 EnMin= -227.413629709665     IErMin= 1 ErrMin= 2.09D-05
 ErrMax= 2.09D-05  0.00D+00 EMaxC= 1.00D-01 BMatC= 1.65D-07 BMatP= 1.65D-07
 IDIUse=1 WtCom= 1.00D+00 WtEn= 0.00D+00
 Coeff-Com:  0.100D+01
 Coeff:      0.100D+01
 Gap=     0.205 Goal=   None    Shift=    0.000
 RMSDP=8.35D-06 MaxDP=3.17D-04 DE=-4.68D-05 OVMax= 2.42D-04

 Cycle   6  Pass 1  IDiag  1:
 E= -227.413629558788     Delta-E=        0.000000150878 Rises=F Damp=F
 DIIS: error= 3.18D-05 at cycle   2 NSaved=   2.
 NSaved= 2 IEnMin= 1 EnMin= -227.413629709665     IErMin= 1 ErrMin= 2.09D-05
 ErrMax= 3.18D-05  0.00D+00 EMaxC= 1.00D-01 BMatC= 3.39D-07 BMatP= 1.65D-07
 IDIUse=1 WtCom= 1.00D+00 WtEn= 0.00D+00
 Coeff-Com:  0.596D+00 0.404D+00
 Coeff:      0.596D+00 0.404D+00
 Gap=     0.205 Goal=   None    Shift=    0.000
 RMSDP=3.30D-06 MaxDP=1.45D-04 DE= 1.51D-07 OVMax= 2.27D-04

 Cycle   7  Pass 1  IDiag  1:
 E= -227.413629858492     Delta-E=       -0.000000299705 Rises=F Damp=F
 DIIS: error= 6.90D-06 at cycle   3 NSaved=   3.
 NSaved= 3 IEnMin= 3 EnMin= -227.413629858492     IErMin= 3 ErrMin= 6.90D-06
 ErrMax= 6.90D-06  0.00D+00 EMaxC= 1.00D-01 BMatC= 1.89D-08 BMatP= 1.65D-07
 IDIUse=1 WtCom= 1.00D+00 WtEn= 0.00D+00
 Coeff-Com:  0.263D+00 0.234D+00 0.503D+00
 Coeff:      0.263D+00 0.234D+00 0.503D+00
 Gap=     0.205 Goal=   None    Shift=    0.000
 RMSDP=9.67D-07 MaxDP=4.52D-05 DE=-3.00D-07 OVMax= 7.45D-05

 Cycle   8  Pass 1  IDiag  1:
 E= -227.413629873986     Delta-E=       -0.000000015493 Rises=F Damp=F
 DIIS: error= 2.32D-06 at cycle   4 NSaved=   4.
 NSaved= 4 IEnMin= 4 EnMin= -227.413629873986     IErMin= 4 ErrMin= 2.32D-06
 ErrMax= 2.32D-06  0.00D+00 EMaxC= 1.00D-01 BMatC= 2.03D-09 BMatP= 1.89D-08
 IDIUse=1 WtCom= 1.00D+00 WtEn= 0.00D+00
 Coeff-Com: -0.166D-01 0.187D-01 0.267D+00 0.731D+00
 Coeff:     -0.166D-01 0.187D-01 0.267D+00 0.731D+00
 Gap=     0.205 Goal=   None    Shift=    0.000
 RMSDP=2.87D-07 MaxDP=9.35D-06 DE=-1.55D-08 OVMax= 1.58D-05

 Cycle   9  Pass 1  IDiag  1:
 E= -227.413629875987     Delta-E=       -0.000000002001 Rises=F Damp=F
 DIIS: error= 2.95D-07 at cycle   5 NSaved=   5.
 NSaved= 5 IEnMin= 5 EnMin= -227.413629875987     IErMin= 5 ErrMin= 2.95D-07
 ErrMax= 2.95D-07  0.00D+00 EMaxC= 1.00D-01 BMatC= 2.39D-11 BMatP= 2.03D-09
 IDIUse=1 WtCom= 1.00D+00 WtEn= 0.00D+00
 Coeff-Com: -0.100D-01 0.193D-02 0.773D-01 0.238D+00 0.693D+00
 Coeff:     -0.100D-01 0.193D-02 0.773D-01 0.238D+00 0.693D+00
 Gap=     0.205 Goal=   None    Shift=    0.000
 RMSDP=4.66D-08 MaxDP=2.23D-06 DE=-2.00D-09 OVMax= 3.27D-06

 Cycle  10  Pass 1  IDiag  1:
 E= -227.413629875996     Delta-E=       -0.000000000008 Rises=F Damp=F
 DIIS: error= 2.61D-07 at cycle   6 NSaved=   6.
 NSaved= 6 IEnMin= 6 EnMin= -227.413629875996     IErMin= 6 ErrMin= 2.61D-07
 ErrMax= 2.61D-07  0.00D+00 EMaxC= 1.00D-01 BMatC= 2.37D-11 BMatP= 2.39D-11
 IDIUse=1 WtCom= 1.00D+00 WtEn= 0.00D+00
 Coeff-Com: -0.421D-02-0.137D-02 0.130D-01 0.527D-01 0.501D+00 0.439D+00
 Coeff:     -0.421D-02-0.137D-02 0.130D-01 0.527D-01 0.501D+00 0.439D+00
 Gap=     0.205 Goal=   None    Shift=    0.000
 RMSDP=2.76D-08 MaxDP=1.40D-06 DE=-8.30D-12 OVMax= 2.19D-06

 Cycle  11  Pass 1  IDiag  1:
 E= -227.413629876016     Delta-E=       -0.000000000020 Rises=F Damp=F
 DIIS: error= 2.92D-08 at cycle   7 NSaved=   7.
 NSaved= 7 IEnMin= 7 EnMin= -227.413629876016     IErMin= 7 ErrMin= 2.92D-08
 ErrMax= 2.92D-08  0.00D+00 EMaxC= 1.00D-01 BMatC= 5.19D-13 BMatP= 2.37D-11
 IDIUse=1 WtCom= 1.00D+00 WtEn= 0.00D+00
 Coeff-Com:  0.666D-03-0.948D-03-0.122D-01-0.337D-01 0.174D-01 0.136D+00
 Coeff-Com:  0.893D+00
 Coeff:      0.666D-03-0.948D-03-0.122D-01-0.337D-01 0.174D-01 0.136D+00
 Coeff:      0.893D+00
 Gap=     0.205 Goal=   None    Shift=    0.000
 RMSDP=7.12D-09 MaxDP=1.74D-07 DE=-2.04D-11 OVMax= 7.10D-07

[...]
 Alpha virt. eigenvalues --    4.22653   4.24590   4.26406   4.29310   4.32102
 Alpha virt. eigenvalues --    4.33547   4.34806   4.36310   4.38032   4.40332
 Alpha virt. eigenvalues --    4.40925   4.42129   4.47976   4.52076   4.54521
 Alpha virt. eigenvalues --    4.57314   4.61135   4.65844   4.71664   4.72319
 Alpha virt. eigenvalues --    4.78617   4.78969   4.84903   4.88634   4.93163
 Alpha virt. eigenvalues --    4.93820   4.99965   5.01536   5.02022   5.07892
 Alpha virt. eigenvalues --    5.08075   5.13123   5.16643   5.19611   5.20171
 Alpha virt. eigenvalues --    5.23674   5.27475   5.30222   5.31372   5.33934
 Alpha virt. eigenvalues --    5.34746   5.44429   5.45167   5.46656   5.47948
 Alpha virt. eigenvalues --    5.53597   5.55243   5.56033   5.61564   5.64283
 Alpha virt. eigenvalues --    5.65160   5.70533   5.73619   5.77188   5.79530
 Alpha virt. eigenvalues --    5.80253   5.86061   5.88264   5.88856   5.90455
 Alpha virt. eigenvalues --    5.94992   5.98445   6.00047   6.01178   6.04426
 Alpha virt. eigenvalues --    6.06537   6.10237   6.10618   6.13737   6.13918
 Alpha virt. eigenvalues --    6.17214   6.22244   6.26735   6.26771   6.32728
 Alpha virt. eigenvalues --    6.38818   6.40884   6.44323   6.48172   6.52338
 Alpha virt. eigenvalues --    6.52729   6.61201   6.62548   6.65926   6.71414
 Alpha virt. eigenvalues --    6.72195   6.82462   6.87599   6.89883   6.96165
 Alpha virt. eigenvalues --    7.02241   7.15453   7.20280   7.32831   7.41010
 Alpha virt. eigenvalues --    7.46618   7.51853   7.59207   7.69244   7.72208
 Alpha virt. eigenvalues --    7.73710   7.76625   7.83006   7.87960   7.88163
 Alpha virt. eigenvalues --    7.90171   7.94350   7.94778   8.00429   8.01129
 Alpha virt. eigenvalues --    8.06990   8.09300   8.09885   8.10146   8.14634
 Alpha virt. eigenvalues --    8.18851   8.19982   8.26283   8.30015   8.33930
 Alpha virt. eigenvalues --    8.34765   8.37886   8.40860   8.44692   8.48734
 Alpha virt. eigenvalues --    8.51707   8.54895   8.58311   8.60625   8.63371
 Alpha virt. eigenvalues --    8.64005   8.66812   8.70425   8.70452   8.73431
 Alpha virt. eigenvalues --    8.79382   8.83743   8.85816   8.87691   8.88294
 Alpha virt. eigenvalues --    8.91968   8.92916   8.95119   8.97734   8.99714
 Alpha virt. eigenvalues --    9.01808   9.03684   9.09250   9.10836   9.14815
 Alpha virt. eigenvalues --    9.19278   9.20958   9.23248   9.27955   9.30704
 Alpha virt. eigenvalues --    9.33529   9.34921   9.36558   9.39964   9.43977
 Alpha virt. eigenvalues --    9.44667   9.46588   9.47077   9.51274   9.51538
 Alpha virt. eigenvalues --    9.56176   9.57229   9.59661   9.62696   9.65014
 Alpha virt. eigenvalues --    9.68524   9.72688   9.74853   9.79264   9.82228
 Alpha virt. eigenvalues --    9.85036   9.87186   9.92542   9.99142  10.04920
 Alpha virt. eigenvalues --   10.08732  10.08821  10.10989  10.14234  10.18009
 Alpha virt. eigenvalues --   10.21312  10.25047  10.26721  10.28382  10.31759
 Alpha virt. eigenvalues --   10.37241  10.40079  10.41994  10.46571  10.48337
 Alpha virt. eigenvalues --   10.52209  10.55338  10.57864  10.59147  10.62425
 Alpha virt. eigenvalues --   10.64034  10.68503  10.72997  10.75206  10.75778
 Alpha virt. eigenvalues --   10.78032  10.84381  10.84584  10.91490  10.91760
 Alpha virt. eigenvalues --   10.93958  10.95460  10.98966  11.05450  11.08049
 Alpha virt. eigenvalues --   11.10277  11.11025  11.13719  11.18508  11.19035
 Alpha virt. eigenvalues --   11.21692  11.24739  11.27901  11.31760  11.34083
 Alpha virt. eigenvalues --   11.35312  11.39458  11.39613  11.48609  11.51919
 Alpha virt. eigenvalues --   11.55271  11.58560  11.65649  11.66990  11.68640
 Alpha virt. eigenvalues --   11.75748  11.83475  11.88185  11.95905  11.97659
 Alpha virt. eigenvalues --   12.05798  12.07179  12.11744  12.15459  12.17169
 Alpha virt. eigenvalues --   12.26361  12.26389  12.28260  12.36632  12.38569
 Alpha virt. eigenvalues --   12.44580  12.51022  12.51541  12.59616  12.63421
 Alpha virt. eigenvalues --   12.69079  12.69767  12.80334  12.82580  12.83551
 Alpha virt. eigenvalues --   12.84091  12.94518  12.97682  12.99541  13.02543
 Alpha virt. eigenvalues --   13.13515  13.15563  13.22398  13.25935  13.30186
 Alpha virt. eigenvalues --   13.36147  13.36951  13.48025  13.48780  13.61768
 Alpha virt. eigenvalues --   13.63490  13.73383  13.78397  13.87042  13.95538
 Alpha virt. eigenvalues --   14.07664  14.13530  14.19646  14.30474  14.42960
 Alpha virt. eigenvalues --   14.44153  14.47803  14.48332  14.52536  14.53758
 Alpha virt. eigenvalues --   14.56659  14.59154  14.68503  14.69471  14.70474
 Alpha virt. eigenvalues --   14.76171  14.76627  14.87715  14.94931  14.98725
 Alpha virt. eigenvalues --   15.00139  15.03305  15.06099  15.08265  15.17575
 Alpha virt. eigenvalues --   15.20815  15.25092  15.26268  15.33588  15.42924
 Alpha virt. eigenvalues --   15.45511  15.52814  15.60955  15.71122  15.88271
 Alpha virt. eigenvalues --   16.04949  16.13393  16.21886  16.91752  17.27127
 Alpha virt. eigenvalues --   17.40544  17.43420  17.48608  17.55265  17.71482
 Alpha virt. eigenvalues --   17.92075  17.94360  18.03303  18.23445  18.33678
 Alpha virt. eigenvalues --   18.48064  18.58102  18.61845  18.76339  19.14539
 Alpha virt. eigenvalues --   19.34823  19.85150  19.90421  20.00641  20.10838
 Alpha virt. eigenvalues --   39.64884  40.36059  40.65420  51.21523  51.88546
          Condensed to atoms (all electrons):
               1          2          3          4          5          6
     1  C    5.116929   0.381128  -0.041858  -0.100052   0.000458   0.400671
     2  C    0.381128   4.554038   0.617823   0.379211  -0.049360  -0.019720
     3  N   -0.041858   0.617823   6.865802  -0.129084  -0.018185  -0.008388
     4  C   -0.100052   0.379211  -0.129084   4.788291   0.609793   0.005521
     5  N    0.000458  -0.049360  -0.018185   0.609793   6.737054  -0.000481
     6  H    0.400671  -0.019720  -0.008388   0.005521  -0.000481   0.483224
     7  H    0.403281  -0.029849  -0.000847  -0.000334   0.000216  -0.016967
     8  H    0.403175  -0.029815  -0.000868  -0.000309   0.000218  -0.016944
     9  H   -0.029905  -0.026205   0.329686   0.020655  -0.001337   0.003939
    10  H    0.009716  -0.076206   0.004317   0.419610  -0.042574  -0.000259
    11  H    0.004275  -0.025396   0.005428  -0.038938   0.332922  -0.000126
               7          8          9         10         11
     1  C    0.403281   0.403175  -0.029905   0.009716   0.004275
     2  C   -0.029849  -0.029815  -0.026205  -0.076206  -0.025396
     3  N   -0.000847  -0.000868   0.329686   0.004317   0.005428
     4  C   -0.000334  -0.000309   0.020655   0.419610  -0.038938
     5  N    0.000216   0.000218  -0.001337  -0.042574   0.332922
     6  H   -0.016967  -0.016944   0.003939  -0.000259  -0.000126
     7  H    0.467384  -0.024269   0.001056  -0.000362  -0.000043
     8  H   -0.024269   0.467407   0.001050  -0.000360  -0.000042
     9  H    0.001056   0.001050   0.415799  -0.000548  -0.000772
    10  H   -0.000362  -0.000360  -0.000548   0.481124   0.009979
    11  H   -0.000043  -0.000042  -0.000772   0.009979   0.395501
 Mulliken charges:
               1
     1  C   -0.547816
     2  C    0.324352
     3  N   -0.623824
     4  C    0.045636
     5  N   -0.568725
     6  H    0.169531
     7  H    0.200734
     8  H    0.200756
     9  H    0.286581
    10  H    0.195564
    11  H    0.317212
 Sum of Mulliken charges =  -0.00000
 Mulliken charges with hydrogens summed into heavy atoms:
               1
     1  C    0.023205
     2  C    0.324352
     3  N   -0.337243
     4  C    0.241199
     5  N   -0.251513
 Electronic spatial extent (au):  <R**2>=            437.6323
 Charge=             -0.0000 electrons
 Dipole moment (field-independent basis, Debye):
    X=             -4.0001    Y=             -0.9773    Z=              0.0002  Tot=              4.1178
 Quadrupole moment (field-independent basis, Debye-Ang):
   XX=            -34.3486   YY=            -30.2794   ZZ=            -31.8149
   XY=              1.0542   XZ=             -0.0020   YZ=              0.0034
 Traceless Quadrupole moment (field-independent basis, Debye-Ang):
   XX=             -2.2010   YY=              1.8683   ZZ=              0.3327
   XY=              1.0542   XZ=             -0.0020   YZ=              0.0034
 Octapole moment (field-independent basis, Debye-Ang**2):
  XXX=            -25.1702  YYY=             -2.5862  ZZZ=              0.0029  XYY=             -4.2240
  XXY=             11.6093  XXZ=             -0.0023  XZZ=             -1.7506  YZZ=             -0.9968
  YYZ=              0.0020  XYZ=              0.0010
 Hexadecapole moment (field-independent basis, Debye-Ang**3):
 XXXX=           -420.3968 YYYY=           -169.3985 ZZZZ=            -39.9906 XXXY=             14.7076
 XXXZ=             -0.0025 YYYX=            -10.1246 YYYZ=              0.0155 ZZZX=             -0.0036
 ZZZY=              0.0002 XXYY=            -81.6694 XXZZ=            -71.4387 YYZZ=            -35.6968
 XXYZ=              0.0050 YYXZ=             -0.0029 ZZXY=              2.6182
 N-N= 1.614539460592D+02 E-N=-8.508478139341D+02  KE= 2.257199184722D+02
 No NMR shielding tensors so no spin-rotation constants.
 Leave Link  601 at Fri Aug 26 09:58:44 2022, MaxMem= 24159191040 cpu:        24.5
 (Enter /public/home/users/caep010/software/Gaussian09/g09/l9999.exe)
 1\1\GINC-B1936\SP\RHF\GFHFB2\C3H6N2\ROOT\26-Aug-2022\0\\#P Geom=AllChe
 ck Guess=TCheck SCRF=Check HF/GFHFB2 SCF=Tight\\Frag_688\\0,1\C,0,-1.3
 775729447,-0.2965822281,-0.1456117268\C,0,0.0237554544,0.2600290056,-0
 .1255833227\N,0,0.4057903927,1.3760413837,-0.6036921696\C,0,1.06711682
 93,-0.6051041973,0.5311882305\N,0,2.2949187608,-0.312324587,0.64766470
 59\H,0,-2.0755514506,0.3848670161,-0.6374112908\H,0,-1.3998752658,-1.2
 607710466,-0.6674817201\H,0,-1.729796593,-0.4855053039,0.8755093593\H,
 0,-0.3702456236,1.8889947475,-1.0262482383\H,0,0.7152400413,-1.5597887
 087,0.9342945796\H,0,2.4461203992,0.6100439187,0.2173715929\\Version=E
 S64L-G09RevE.01\State=1-A\HF=-226.0604096\RMSD=2.932e-09\Dipole=-1.591
 1352,-0.1559644,-0.2618748\Quadrupole=-1.0927239,0.9623203,0.1304036,1
 .0834985,-0.8309542,-0.1242054\PG=C01 [X(C3H6N2)]\\@


      TO SUSPECT YOUR OWN MORTALITY IS TO KNOW THE BEGINNING OF TERROR.
      TO LEARN IRREFUTABLY THAT YOU ARE MORTAL IS TO KNOW THE END
      OF TERROR.

                                                  -- JESSICA
                                                     CHILDREN OF DUNE
                                                     BY FRANK HERBERT
 Diagonal vibrational polarizability:
        0.0000000       0.0000000       0.0000000

 Temperature=              298.150000 Pressure=                      1.000000
 E(ZPE)=                     0.089593 E(Thermal)=                    0.095333
 E(CCSD(T))=              -226.728524 E(Empiric)=                   -0.097258
 DE(Plus)=                  -0.015875 DE(2DF)=                      -0.182134
 E(Delta-G3XP)=             -0.308127 DE(HF)=                       -0.021633
 G4(0 K)=                 -227.263958 G4 Energy=                  -227.258217
 G4 Enthalpy=             -227.257273 G4 Free Energy=             -227.292789
 1\1\GINC-B1936\Mixed\G4\G4\C3H6N2\ROOT\26-Aug-2022\0\\#P Geom=AllCheck
  Guess=TCheck SCRF=Check HF/GFHFB2 SCF=Tight\\Frag_688\\0,1\C,0,-1.377
 5729447,-0.2965822281,-0.1456117268\C,0,0.0237554544,0.2600290056,-0.1
 255833227\N,0,0.4057903927,1.3760413837,-0.6036921696\C,0,1.0671168293
 ,-0.6051041973,0.5311882305\N,0,2.2949187608,-0.312324587,0.6476647059
 \H,0,-2.0755514506,0.3848670161,-0.6374112908\H,0,-1.3998752658,-1.260
 7710466,-0.6674817201\H,0,-1.729796593,-0.4855053039,0.8755093593\H,0,
 -0.3702456236,1.8889947475,-1.0262482383\H,0,0.7152400413,-1.559788708
 7,0.9342945796\H,0,2.4461203992,0.6100439187,0.2173715929\\Version=ES6
 4L-G09RevE.01\State=1-A\MP2/GTBas1=-226.6599413\MP4/GTBas1=-226.728531
 6\CCSD(T)/G3Bas1=-226.7285238\MP2/GTBas2=-226.6754113\MP4/GTBas2=-226.
 7444065\MP2/GTBas3=-226.832093\MP4/GTBas3=-226.9106652\HF/GTLargeXP=-2
 26.0396261\MP2/GTLargeXP=-227.1556903\HF/GFHFB1=-226.0569229\HF/GFHFB2
 =-226.0604096\G4=-227.2639578\FreqCoord=-2.6032355935,-0.560459187,-0.
 2751662855,0.044891303,0.4913836072,-0.2373180867,0.7668327096,2.60034
 13627,-1.1408128691,2.0165585591,-1.1434812148,1.0038002807,4.33676795
 51,-0.5902079339,1.2239089201,-3.9222238164,0.7272932581,-1.2045327736
 ,-2.6453808725,-2.3825119944,-1.2613576497,-3.2688418264,-0.9174720604
 ,1.6544729158,-0.6996628306,3.5696827393,-1.9393281147,1.3516077972,-2
 .9475734847,1.7655608829,4.6224976426,1.1528159353,0.4107727797\PG=C01
  [X(C3H6N2)]\NImag=0\\0.49316825,-0.04653989,0.54943817,0.01721409,-0.
 02373072,0.53768843,-0.18903830,-0.02340994,-0.01087616,0.53832136,-0.
 03238858,-0.09497729,-0.00101094,0.12890113,0.73219207,-0.00634815,0.0
 0090541,-0.08499642,0.00965158,-0.24412238,0.31496475,-0.00935787,-0.0
 4038835,0.01058535,-0.15378111,-0.10260608,0.03118776,0.42135407,-0.01
 505813,-0.01487016,0.02228170,-0.16334401,-0.48178292,0.17720724,0.002
 24317,0.66052028,-0.00213110,0.01687919,0.02704436,0.06165872,0.190155
 51,-0.14106510,0.07544035,-0.29943290,0.22852404,-0.02517278,0.0138900
 9,-0.01403669,-0.12993036,0.01491618,-0.01747842,0.01081162,0.01874340
 ,-0.00616119,0.82759260,-0.00850648,0.01201717,-0.00387094,0.03519489,
 -0.12203823,0.02706689,0.02255980,-0.04078332,0.02305493,0.18154028,0.
 55823297,-0.00280450,0.00089648,0.00686536,-0.02764837,0.02275180,-0.1
 0034154,-0.00807745,0.02225448,-0.01729338,0.05353400,-0.16418512,0.24
 680199,-0.00065413,0.00631282,-0.00295794,-0.04569688,0.00905977,-0.02
 163077,-0.00078926,-0.00992917,0.00440867,-0.58768668,-0.11419965,-0.0
 5805532,0.69809478,0.00292084,-0.00287162,0.00124264,0.01359750,0.0209
 3972,0.00947624,0.00370216,-0.00500510,0.00424879,-0.16057936,-0.13794
 257,0.00975697,0.18441460,0.44743627,-0.00125696,0.00198131,-0.0028929
 9,-0.02389580,0.00847835,0.02464731,-0.00241687,0.00132374,0.00070028,
 -0.03480366,0.01971367,-0.06715106,0.04260973,-0.15080565,0.15266969,-
 0.15330110,0.10578754,-0.07603177,-0.02098468,0.02200915,-0.01529545,0
 .00382883,0.00160482,0.00019135,-0.00366857,-0.00516540,0.00132399,-0.
 00173214,0.00134934,-0.00093668,0.16769200,0.10839654,-0.15442497,0.07
 746562,-0.00988614,0.00673544,-0.00607571,0.00013712,0.00235296,-0.001
 55590,-0.00198003,-0.00111544,0.00127523,-0.00069151,0.00058179,-0.000
 70676,-0.11548789,0.16466557,-0.07734555,0.07691124,-0.10162183,0.0007
 3099,0.00074410,-0.00136241,0.00092075,-0.00124454,0.00001385,-0.00027
 143,0.00059251,0.00190975,0.00009231,-0.00026879,-0.00037432,0.0843877
 8,-0.08508428,0.10532444,-0.04620292,-0.00275782,-0.00593464,0.0024534
 8,-0.02985709,-0.01611438,-0.00577040,0.00103980,0.00468357,0.00017121
 ,0.00042424,0.00173132,0.00048852,0.00009888,-0.00052638,0.00038344,0.
 01689445,0.01095358,0.04828648,0.00020384,-0.24547588,-0.11115547,-0.0
 0167455,-0.01280398,-0.00390068,-0.00299547,0.00132710,0.00108477,0.00
 070942,-0.00013516,0.00113531,-0.00073148,0.00024910,-0.00024451,-0.00
 100702,-0.01587426,-0.00994786,0.00475374,0.26766743,-0.00448108,-0.11
 033036,-0.10194016,0.00094417,0.00217958,0.00011022,0.00102938,0.00023
 574,-0.00094934,-0.00050785,-0.00087299,0.00076045,0.00036171,0.000446
 55,-0.00017479,0.00115721,0.01393237,0.00743104,0.00226259,0.12148464,
 0.10989937,-0.07336990,-0.01145252,0.07806675,-0.00781439,-0.00537133,
 0.03175378,-0.00352641,-0.00339750,-0.00508471,0.00078867,-0.00151360,
 -0.00114309,0.00026889,0.00070064,0.00025088,0.00707588,0.00238478,-0.
 01942369,0.00008644,0.00052211,-0.00056215,0.07707850,-0.01124254,-0.0
 4816006,0.04362949,-0.00534147,-0.00507865,0.01351921,-0.00248017,-0.0
 0178226,-0.00298207,0.00103011,0.00024453,-0.00044091,-0.00066339,-0.0
 0013691,-0.00002167,-0.00757781,-0.00329115,0.01862616,0.00975173,0.00
 467873,-0.02752753,0.01670246,0.05256583,0.07500564,0.04212587,-0.2721
 2738,0.00053043,0.00140648,0.00265363,0.00013593,-0.00146029,-0.000076
 28,-0.00031906,0.00095696,-0.00023814,0.00046363,-0.00024163,0.0004264
 1,0.00437401,0.00070405,-0.01183527,0.00478926,0.00305041,-0.01526246,
 -0.08501327,-0.04576609,0.29623794,0.00262379,-0.00180117,0.00419972,0
 .00008624,-0.01978529,0.00893249,-0.25933040,0.16636210,-0.13131479,0.
 00021924,-0.00098395,-0.00298834,0.00056313,0.00160831,-0.00003303,0.0
 0023630,0.00034986,-0.00021478,0.00013781,0.00011923,-0.00012600,-0.00
 058708,-0.00031654,-0.00001032,0.25397203,0.00297883,-0.00033335,-0.00
 562350,0.03369431,-0.02918619,0.02419294,0.11421342,-0.11993556,0.0671
 2311,-0.00642802,-0.00129063,0.00756741,-0.00011743,0.00077755,-0.0019
 5290,-0.00200312,-0.00011840,-0.00016338,-0.00070457,0.00013940,0.0000
 4295,0.00101398,0.00113224,-0.00028748,-0.14462755,0.14978411,0.001809
 24,-0.00665050,-0.00910843,-0.01788737,0.01278695,-0.00550058,-0.10516
 344,0.07823685,-0.09623205,-0.00026539,0.00873915,0.01210992,0.0008377
 2,-0.00158312,-0.00209317,0.00096287,0.00034064,0.00044737,-0.00186854
 ,-0.00126574,0.00050823,0.00147912,0.00091742,0.00023879,0.12067262,-0
 .09187463,0.09980194,0.00060810,0.00040876,-0.00002724,0.00770510,0.01
 534610,-0.00761318,-0.00270748,0.00344085,-0.00256680,-0.07153757,-0.0
 5920288,0.02430411,-0.02125536,-0.03559395,0.01479199,0.00031035,-0.00
 021511,0.00022715,-0.00021720,-0.00007029,-0.00019869,-0.00034429,0.00
 007970,0.00011318,0.00008875,0.00133120,-0.00053806,0.09188101,-0.0003
 1714,0.00022141,-0.00029053,-0.01085011,-0.01016378,0.00645166,0.00316
 674,-0.00195033,0.00227360,-0.05872489,-0.25098202,0.08991666,-0.01112
 217,-0.00607909,-0.00284217,0.00023008,0.00025273,-0.00020161,0.000411
 35,0.00027281,0.00039753,0.00071247,-0.00008681,-0.00034278,0.00006573
 ,-0.00101570,0.00026299,0.07842354,0.26541081,0.00033583,-0.00013181,-
 0.00007999,0.00551716,0.01205112,0.00247019,-0.00242945,0.00233592,-0.
 00044992,0.02406940,0.08982573,-0.08633649,0.00251925,-0.00809761,-0.0
 0240400,0.00000392,-0.00029769,-0.00009933,-0.00041436,-0.00022740,-0.
 00035889,-0.00022932,0.00004237,0.00012712,0.00009639,0.00053357,-0.00
 076760,-0.02565893,-0.10210671,0.07384708,0.00069687,-0.00004953,-0.00
 020148,-0.00132047,-0.00022396,0.00295474,-0.00073159,-0.00170532,0.00
 087594,-0.02158738,-0.05014724,0.01982364,-0.04160088,-0.01221897,0.00
 621677,0.00015968,0.00009793,-0.00005709,0.00018314,0.00017049,0.00012
 070,0.00034368,0.00005791,-0.00006942,0.00199018,0.00064897,-0.0000387
 8,-0.00453142,-0.00199559,-0.00380988,0.06639818,-0.00044727,-0.000563
 43,0.00106265,0.00311840,-0.00383620,-0.00472082,0.00244767,0.00190931
 ,-0.00084903,-0.00311717,-0.01620729,0.00907168,-0.06233239,-0.3179491
 5,0.12507659,0.00026029,0.00023575,0.00003646,-0.00005470,-0.00004530,
 0.00001151,-0.00030149,-0.00008550,-0.00014551,-0.00099074,0.00004653,
 0.00008998,-0.00394791,0.00411999,0.00607251,0.06536532,0.33237530,0.0
 0000253,0.00114388,0.00116907,0.00127464,-0.00542055,-0.01158005,-0.00
 121231,-0.00173794,-0.00021647,-0.00375971,-0.00102078,0.00291315,0.03
 135100,0.13582561,-0.10335336,-0.00013723,0.00000242,0.00016672,0.0004
 3798,-0.00001348,-0.00002366,-0.00009430,0.00000362,-0.00014435,0.0007
 8605,0.00044189,0.00059558,-0.00283353,0.00648137,0.01405181,-0.025815
 13,-0.13570603,0.09642156\\-0.00001886,0.00002543,0.00001142,0.0000611
 3,-0.00001839,0.00004970,-0.00001986,-0.00001598,-0.00002101,-0.000032
 07,-0.00001048,-0.00003187,-0.00000933,0.00004010,0.00003274,-0.000002
 64,-0.00000967,-0.00001274,-0.00001484,-0.00000043,-0.00001230,0.00000
 218,0.00000417,-0.00001072,0.00000287,0.00001275,0.00001419,0.00001665
 ,0.00000427,-0.00000579,0.00001477,-0.00003179,-0.00001360\\\@
 Job cpu time:       0 days  0 hours 43 minutes 58.1 seconds.
 File lengths (MBytes):  RWF=   1926 Int=      0 D2E=      0 Chk=     23 Scr=      1
 Normal termination of Gaussian 09 at Fri Aug 26 09:58:44 2022.
