 Entering Gaussian System, Link 0=g09
 Input=G4.Frag_1066.gjf
 Output=G4.Frag_1066.log
 Initial command:
 /public/home/users/caep010/software/Gaussian09/g09/l1.exe "/public/home/users/caep010/.cache/gau_scr/Gau-21144.inp" -scrdir="/public/home/users/caep010/.cache/gau_scr/"
 Entering Link 1 = /public/home/users/caep010/software/Gaussian09/g09/l1.exe PID=     21145.
  
 Copyright (c) 1988,1990,1992,1993,1995,1998,2003,2009,2015,
            Gaussian, Inc.  All Rights Reserved.
  
 This is part of the Gaussian(R) 09 program.  It is based on
 the Gaussian(R) 03 system (copyright 2003, Gaussian, Inc.),
 the Gaussian(R) 98 system (copyright 1998, Gaussian, Inc.),
 the Gaussian(R) 94 system (copyright 1995, Gaussian, Inc.),
 the Gaussian 92(TM) system (copyright 1992, Gaussian, Inc.),
 the Gaussian 90(TM) system (copyright 1990, Gaussian, Inc.),
 the Gaussian 88(TM) system (copyright 1988, Gaussian, Inc.),
 the Gaussian 86(TM) system (copyright 1986, Carnegie Mellon
 University), and the Gaussian 82(TM) system (copyright 1983,
 Carnegie Mellon University). Gaussian is a federally registered
 trademark of Gaussian, Inc.
  
 This software contains proprietary and confidential information,
 including trade secrets, belonging to Gaussian, Inc.
  
 This software is provided under written license and may be
 used, copied, transmitted, or stored only in accord with that
 written license.
  
 The following legend is applicable only to US Government
 contracts under FAR:
  
                    RESTRICTED RIGHTS LEGEND
  
 Use, reproduction and disclosure by the US Government is
 subject to restrictions as set forth in subparagraphs (a)
 and (c) of the Commercial Computer Software - Restricted
 Rights clause in FAR 52.227-19.
  
 Gaussian, Inc.
 340 Quinnipiac St., Bldg. 40, Wallingford CT 06492
  
  
 ---------------------------------------------------------------
 Warning -- This program may not be used in any manner that
 competes with the business of Gaussian, Inc. or will provide
 assistance to any competitor of Gaussian, Inc.  The licensee
 of this program is prohibited from giving any competitor of
 Gaussian, Inc. access to this program.  By using this program,
 the user acknowledges that Gaussian, Inc. is engaged in the
 business of creating and licensing software in the field of
 computational chemistry and represents and warrants to the
 licensee that it is not a competitor of Gaussian, Inc. and that
 it will not use this program in any manner prohibited above.
 ---------------------------------------------------------------
  

 Cite this work as:
 Gaussian 09, Revision E.01,
 M. J. Frisch, G. W. Trucks, H. B. Schlegel, G. E. Scuseria, 
 M. A. Robb, J. R. Cheeseman, G. Scalmani, V. Barone, B. Mennucci, 
 G. A. Petersson, H. Nakatsuji, M. Caricato, X. Li, H. P. Hratchian, 
 A. F. Izmaylov, J. Bloino, G. Zheng, J. L. Sonnenberg, M. Hada, 
 M. Ehara, K. Toyota, R. Fukuda, J. Hasegawa, M. Ishida, T. Nakajima, 
 Y. Honda, O. Kitao, H. Nakai, T. Vreven, J. A. Montgomery, Jr., 
 J. E. Peralta, F. Ogliaro, M. Bearpark, J. J. Heyd, E. Brothers, 
 K. N. Kudin, V. N. Staroverov, T. Keith, R. Kobayashi, J. Normand, 
 K. Raghavachari, A. Rendell, J. C. Burant, S. S. Iyengar, J. Tomasi, 
 M. Cossi, N. Rega, J. M. Millam, M. Klene, J. E. Knox, J. B. Cross, 
 V. Bakken, C. Adamo, J. Jaramillo, R. Gomperts, R. E. Stratmann, 
 O. Yazyev, A. J. Austin, R. Cammi, C. Pomelli, J. W. Ochterski, 
 R. L. Martin, K. Morokuma, V. G. Zakrzewski, G. A. Voth, 
 P. Salvador, J. J. Dannenberg, S. Dapprich, A. D. Daniels, 
 O. Farkas, J. B. Foresman, J. V. Ortiz, J. Cioslowski, 
 and D. J. Fox, Gaussian, Inc., Wallingford CT, 2013.
 
 ******************************************
 Gaussian 09:  ES64L-G09RevE.01 30-Nov-2015
                21-Aug-2022 
 ******************************************
 %nproc=32
 Will use up to   32 processors via shared memory.
 %mem=180MB
 %chk=G4.Frag_1066.chk
 -----
 #P G4
 -----
 1/14=-1,18=20,19=15,26=3,38=1/1,3;
 2/9=110,12=2,17=6,18=5,40=1/2;
 3/5=35,7=104,11=2,16=1,25=1,30=1,71=1,74=-5/1,2,3;
 4//1;
 5/5=2,38=5/2;
 6/7=2,8=2,9=2,10=2,28=1/1;
 7//1,2,3,16;
 1/14=-1,18=20,19=15,26=3/3(2);
 2/9=110/2;
 99//99;
 2/9=110/2;
 3/5=35,7=104,11=2,16=1,25=1,30=1,71=1,74=-5/1,2,3;
 4/5=5,16=3,69=1/1;
 5/5=2,38=5/2;
 7//1,2,3,16;
 1/14=-1,18=20,19=15,26=3/3(-5);
 2/9=110/2;
 6/7=2,8=2,9=2,10=2,19=2,28=1/1;
 99/9=1/99;
 Leave Link    1 at Sun Aug 21 17:41:28 2022, MaxMem=    23592960 cpu:         3.1
 (Enter /public/home/users/caep010/software/Gaussian09/g09/l101.exe)
 ---------
 Frag_1066
 ---------
 Symbolic Z-matrix:
 Charge =  0 Multiplicity = 1
 C                     0.2746    1.182    -0.3325 
 C                     0.0471   -0.2256    0.2546 
 N                     1.049    -1.1562   -0.2727 
 O                     0.1727   -0.1803    1.6558 
 C                    -1.3287   -0.7316   -0.1131 
 O                    -1.7065   -1.825     0.2776 
 H                     1.2784    1.5599   -0.0431 
 H                     0.2104    1.1591   -1.4418 
 H                    -0.4896    1.8925    0.0498 
 H                     2.0022   -0.8237    0.0029 
 H                     1.0113   -1.1558   -1.319 
 H                    -0.525     0.435     2.0058 
 H                    -1.9957   -0.1306   -0.7241 
 
 NAtoms=     13 NQM=       13 NQMF=       0 NMMI=      0 NMMIF=      0
                NMic=       0 NMicF=      0.
                    Isotopes and Nuclear Properties:
 (Nuclear quadrupole moments (NQMom) in fm**2, nuclear magnetic moments (NMagM)
  in nuclear magnetons)

  Atom         1           2           3           4           5           6           7           8           9          10
 IAtWgt=          12          12          14          16          12          16           1           1           1           1
 AtmWgt=  12.0000000  12.0000000  14.0030740  15.9949146  12.0000000  15.9949146   1.0078250   1.0078250   1.0078250   1.0078250
 NucSpn=           0           0           2           0           0           0           1           1           1           1
 AtZEff=   0.0000000   0.0000000   0.0000000   0.0000000   0.0000000   0.0000000   0.0000000   0.0000000   0.0000000   0.0000000
 NQMom=    0.0000000   0.0000000   2.0440000   0.0000000   0.0000000   0.0000000   0.0000000   0.0000000   0.0000000   0.0000000
 NMagM=    0.0000000   0.0000000   0.4037610   0.0000000   0.0000000   0.0000000   2.7928460   2.7928460   2.7928460   2.7928460
 AtZNuc=   6.0000000   6.0000000   7.0000000   8.0000000   6.0000000   8.0000000   1.0000000   1.0000000   1.0000000   1.0000000

  Atom        11          12          13
 IAtWgt=           1           1           1
 AtmWgt=   1.0078250   1.0078250   1.0078250
 NucSpn=           1           1           1
 AtZEff=   0.0000000   0.0000000   0.0000000
 NQMom=    0.0000000   0.0000000   0.0000000
 NMagM=    2.7928460   2.7928460   2.7928460
 AtZNuc=   1.0000000   1.0000000   1.0000000
 Leave Link  101 at Sun Aug 21 17:41:28 2022, MaxMem=    23592960 cpu:         2.2
 (Enter /public/home/users/caep010/software/Gaussian09/g09/l103.exe)

 GradGradGradGradGradGradGradGradGradGradGradGradGradGradGradGradGradGrad
 Berny optimization.
 Initialization pass.
                           ----------------------------
                           !    Initial Parameters    !
                           ! (Angstroms and Degrees)  !
 --------------------------                            --------------------------
 ! Name  Definition              Value          Derivative Info.                !
 --------------------------------------------------------------------------------
 ! R1    R(1,2)                  1.542          estimate D2E/DX2                !
 ! R2    R(1,7)                  1.1109         estimate D2E/DX2                !
 ! R3    R(1,8)                  1.1114         estimate D2E/DX2                !
 ! R4    R(1,9)                  1.1113         estimate D2E/DX2                !
 ! R5    R(2,3)                  1.4656         estimate D2E/DX2                !
 ! R6    R(2,4)                  1.4075         estimate D2E/DX2                !
 ! R7    R(2,5)                  1.5113         estimate D2E/DX2                !
 ! R8    R(3,10)                 1.0465         estimate D2E/DX2                !
 ! R9    R(3,11)                 1.047          estimate D2E/DX2                !
 ! R10   R(4,12)                 0.9939         estimate D2E/DX2                !
 ! R11   R(5,6)                  1.221          estimate D2E/DX2                !
 ! R12   R(5,13)                 1.086          estimate D2E/DX2                !
 ! A1    A(2,1,7)              110.1598         estimate D2E/DX2                !
 ! A2    A(2,1,8)              110.6519         estimate D2E/DX2                !
 ! A3    A(2,1,9)              110.5598         estimate D2E/DX2                !
 ! A4    A(7,1,8)              108.6154         estimate D2E/DX2                !
 ! A5    A(7,1,9)              108.3158         estimate D2E/DX2                !
 ! A6    A(8,1,9)              108.4706         estimate D2E/DX2                !
 ! A7    A(1,2,3)              109.9857         estimate D2E/DX2                !
 ! A8    A(1,2,4)              109.6624         estimate D2E/DX2                !
 ! A9    A(1,2,5)              110.3222         estimate D2E/DX2                !
 ! A10   A(3,2,4)              108.5182         estimate D2E/DX2                !
 ! A11   A(3,2,5)              108.7959         estimate D2E/DX2                !
 ! A12   A(4,2,5)              109.5244         estimate D2E/DX2                !
 ! A13   A(2,3,10)             109.0375         estimate D2E/DX2                !
 ! A14   A(2,3,11)             109.5544         estimate D2E/DX2                !
 ! A15   A(10,3,11)            107.2096         estimate D2E/DX2                !
 ! A16   A(2,4,12)             107.929          estimate D2E/DX2                !
 ! A17   A(2,5,6)              120.2406         estimate D2E/DX2                !
 ! A18   A(2,5,13)             120.7108         estimate D2E/DX2                !
 ! A19   A(6,5,13)             119.0485         estimate D2E/DX2                !
 ! D1    D(7,1,2,3)            -61.1431         estimate D2E/DX2                !
 ! D2    D(7,1,2,4)             58.1209         estimate D2E/DX2                !
 ! D3    D(7,1,2,5)            178.8374         estimate D2E/DX2                !
 ! D4    D(8,1,2,3)             58.9744         estimate D2E/DX2                !
 ! D5    D(8,1,2,4)            178.2384         estimate D2E/DX2                !
 ! D6    D(8,1,2,5)            -61.0451         estimate D2E/DX2                !
 ! D7    D(9,1,2,3)            179.1715         estimate D2E/DX2                !
 ! D8    D(9,1,2,4)            -61.5646         estimate D2E/DX2                !
 ! D9    D(9,1,2,5)             59.152          estimate D2E/DX2                !
 ! D10   D(1,2,3,10)            60.6346         estimate D2E/DX2                !
 ! D11   D(1,2,3,11)           -56.4113         estimate D2E/DX2                !
 ! D12   D(4,2,3,10)           -59.3262         estimate D2E/DX2                !
 ! D13   D(4,2,3,11)          -176.3721         estimate D2E/DX2                !
 ! D14   D(5,2,3,10)          -178.4246         estimate D2E/DX2                !
 ! D15   D(5,2,3,11)            64.5295         estimate D2E/DX2                !
 ! D16   D(1,2,4,12)            61.2428         estimate D2E/DX2                !
 ! D17   D(3,2,4,12)          -178.5951         estimate D2E/DX2                !
 ! D18   D(5,2,4,12)           -59.9558         estimate D2E/DX2                !
 ! D19   D(1,2,5,6)           -178.887          estimate D2E/DX2                !
 ! D20   D(1,2,5,13)             0.9497         estimate D2E/DX2                !
 ! D21   D(3,2,5,6)             60.379          estimate D2E/DX2                !
 ! D22   D(3,2,5,13)          -119.7842         estimate D2E/DX2                !
 ! D23   D(4,2,5,6)            -58.0879         estimate D2E/DX2                !
 ! D24   D(4,2,5,13)           121.7488         estimate D2E/DX2                !
 --------------------------------------------------------------------------------
 Trust Radius=3.00D-01 FncErr=1.00D-07 GrdErr=1.00D-06
 Number of steps in this run=     65 maximum allowed number of steps=    100.
 GradGradGradGradGradGradGradGradGradGradGradGradGradGradGradGradGradGrad

 Leave Link  103 at Sun Aug 21 17:41:28 2022, MaxMem=    23592960 cpu:         0.5
 (Enter /public/home/users/caep010/software/Gaussian09/g09/l202.exe)
                          Input orientation:                          
 ---------------------------------------------------------------------
 Center     Atomic      Atomic             Coordinates (Angstroms)
 Number     Number       Type             X           Y           Z
 ---------------------------------------------------------------------
      1          6           0        0.274600    1.182000   -0.332500
      2          6           0        0.047100   -0.225600    0.254600
      3          7           0        1.049000   -1.156200   -0.272700
      4          8           0        0.172700   -0.180300    1.655800
      5          6           0       -1.328700   -0.731600   -0.113100
      6          8           0       -1.706500   -1.825000    0.277600
      7          1           0        1.278400    1.559900   -0.043100
      8          1           0        0.210400    1.159100   -1.441800
      9          1           0       -0.489600    1.892500    0.049800
     10          1           0        2.002200   -0.823700    0.002900
     11          1           0        1.011300   -1.155800   -1.319000
     12          1           0       -0.525000    0.435000    2.005800
     13          1           0       -1.995700   -0.130600   -0.724100
 ---------------------------------------------------------------------
                    Distance matrix (angstroms):
                    1          2          3          4          5
     1  C    0.000000
     2  C    1.542005   0.000000
     3  N    2.463828   1.465560   0.000000
     4  O    2.412381   1.407547   2.332251   0.000000
     5  C    2.506107   1.511312   2.420581   2.384773   0.000000
     6  O    3.652263   2.373546   2.888409   2.852344   1.221025
     7  H    1.110934   2.189232   2.735423   2.671541   3.471720
     8  H    1.111392   2.195867   2.725923   3.374987   2.776512
     9  H    1.111290   2.194616   3.430141   2.704511   2.759805
    10  H    2.668319   2.059974   1.046471   2.548159   3.334192
    11  H    2.642199   2.066681   1.046979   3.241032   2.666410
    12  H    2.581669   1.957139   3.193894   0.993921   2.548848
    13  H    2.651515   2.267137   3.244351   3.219993   1.086007
                    6          7          8          9         10
     6  O    0.000000
     7  H    4.524381   0.000000
     8  H    3.941535   1.804890   0.000000
     9  H    3.918232   1.801410   1.803537   0.000000
    10  H    3.851301   2.491496   3.037960   3.686327   0.000000
    11  H    3.222328   3.012356   2.452607   3.663120   1.685109
    12  H    3.080620   2.952227   3.598761   2.439569   3.461600
    13  H    1.989480   3.747170   2.654298   2.638218   4.122150
                   11         12         13
    11  H    0.000000
    12  H    3.993139   0.000000
    13  H    3.232180   3.152018   0.000000
 Stoichiometry    C3H7NO2
 Framework group  C1[X(C3H7NO2)]
 Deg. of freedom    33
 Full point group                 C1      NOp   1
 Largest Abelian subgroup         C1      NOp   1
 Largest concise Abelian subgroup C1      NOp   1
                         Standard orientation:                         
 ---------------------------------------------------------------------
 Center     Atomic      Atomic             Coordinates (Angstroms)
 Number     Number       Type             X           Y           Z
 ---------------------------------------------------------------------
      1          6           0       -1.468977   -0.653283   -0.705749
      2          6           0       -0.304716    0.015737    0.052334
      3          7           0       -0.427129    1.473981   -0.027698
      4          8           0       -0.342648   -0.362353    1.407619
      5          6           0        1.018971   -0.395584   -0.549938
      6          8           0        2.065485    0.015328   -0.073636
      7          1           0       -2.439451   -0.365758   -0.247836
      8          1           0       -1.473417   -0.340560   -1.772227
      9          1           0       -1.377272   -1.759986   -0.663746
     10          1           0       -1.330596    1.765367    0.412693
     11          1           0       -0.462979    1.768043   -1.031892
     12          1           0       -0.236017   -1.349497    1.452981
     13          1           0        1.055262   -1.060490   -1.407839
 ---------------------------------------------------------------------
 Rotational constants (GHZ):      4.9345375      2.8833364      2.8509796
 Leave Link  202 at Sun Aug 21 17:41:28 2022, MaxMem=    23592960 cpu:         1.5
 (Enter /public/home/users/caep010/software/Gaussian09/g09/l301.exe)
 Standard basis: GTBas3 (6D, 7F)
 Ernie: Thresh=  0.10000D-02 Tol=  0.10000D-05 Strict=F.
 There are   221 symmetry adapted cartesian basis functions of A   symmetry.
 There are   203 symmetry adapted basis functions of A   symmetry.
   203 basis functions,   313 primitive gaussians,   221 cartesian basis functions
    24 alpha electrons       24 beta electrons
       nuclear repulsion energy       251.0218995070 Hartrees.
 IExCor=  402 DFT=T Ex+Corr=B3LYP ExCW=0 ScaHFX=  0.200000
 ScaDFX=  0.800000  0.720000  1.000000  0.810000 ScalE2=  1.000000  1.000000
 IRadAn=      0 IRanWt=     -1 IRanGd=            0 ICorTp=0 IEmpDi=  4
 NAtoms=   13 NActive=   13 NUniq=   13 SFac= 1.00D+00 NAtFMM=   60 NAOKFM=F Big=F
 Integral buffers will be    131072 words long.
 Raffenetti 2 integral format.
 Two-electron integral symmetry is turned on.
 Leave Link  301 at Sun Aug 21 17:41:28 2022, MaxMem=    23592960 cpu:         1.8
 (Enter /public/home/users/caep010/software/Gaussian09/g09/l302.exe)
 NPDir=0 NMtPBC=     1 NCelOv=     1 NCel=       1 NClECP=     1 NCelD=      1
         NCelK=      1 NCelE2=     1 NClLst=     1 CellRange=     0.0.
 One-electron integrals computed using PRISM.
 PrsmSu:  requested number of processors reduced to:   3 ShMem   1 Linda.
 PrsmSu:  requested number of processors reduced to:  11 ShMem   1 Linda.
 NBasis=   203 RedAO= T EigKep=  4.87D-04  NBF=   203
 NBsUse=   203 1.00D-06 EigRej= -1.00D+00 NBFU=   203
 Precomputing XC quadrature grid using
 IXCGrd= 4 IRadAn=           0 IRanWt=          -1 IRanGd=           0 AccXCQ= 0.00D+00.
 Generated NRdTot=       0 NPtTot=           0 NUsed=           0 NTot=          32
 NSgBfM=   221   221   221   221   221 MxSgAt=    13 MxSgA2=    13.
 Leave Link  302 at Sun Aug 21 17:41:28 2022, MaxMem=    23592960 cpu:         4.6
 (Enter /public/home/users/caep010/software/Gaussian09/g09/l303.exe)
 DipDrv:  MaxL=1.
 Leave Link  303 at Sun Aug 21 17:41:29 2022, MaxMem=    23592960 cpu:         0.9
 (Enter /public/home/users/caep010/software/Gaussian09/g09/l401.exe)
 ExpMin= 1.61D-01 ExpMax= 5.48D+03 ExpMxC= 8.25D+02 IAcc=1 IRadAn=         1 AccDes= 0.00D+00
 Harris functional with IExCor=  402 and IRadAn=       1 diagonalized for initial guess.
 HarFok:  IExCor=  402 AccDes= 0.00D+00 IRadAn=         1 IDoV= 1 UseB2=F ITyADJ=14
 ICtDFT=  3500011 ScaDFX=  1.000000  1.000000  1.000000  1.000000
 CalDSu:  requested number of processors reduced to:  20 ShMem   1 Linda.
 FoFCou: FMM=F IPFlag=           0 FMFlag=      100000 FMFlg1=           0
         NFxFlg=           0 DoJE=T BraDBF=F KetDBF=T FulRan=T
         wScrn=  0.000000 ICntrl=     500 IOpCl=  0 I1Cent=   200000004 NGrid=           0
         NMat0=    1 NMatS0=      1 NMatT0=    0 NMatD0=    1 NMtDS0=    0 NMtDT0=    0
 Petite list used in FoFCou.
 CoulSu:  requested number of processors reduced to:  11 ShMem   1 Linda.
 CoulSu:  requested number of processors reduced to:  11 ShMem   1 Linda.
 CoulSu:  requested number of processors reduced to:  12 ShMem   1 Linda.
 CoulSu:  requested number of processors reduced to:  12 ShMem   1 Linda.
 Harris En= -323.747222041449    
 JPrj=0 DoOrth=F DoCkMO=F.
 Leave Link  401 at Sun Aug 21 17:41:29 2022, MaxMem=    23592960 cpu:         4.8
 (Enter /public/home/users/caep010/software/Gaussian09/g09/l502.exe)
 Closed shell SCF:
 Using DIIS extrapolation, IDIIS=  1040.
 Integral symmetry usage will be decided dynamically.
 IVT=      173757 IEndB=      173757 NGot=    23592960 MDV=    23484906
 LenX=    23484906 LenY=    23435624
 Requested convergence on RMS density matrix=1.00D-08 within 128 cycles.
 Requested convergence on MAX density matrix=1.00D-06.
 Requested convergence on             energy=1.00D-06.
 No special actions if energy rises.
 Fock matrices will be formed incrementally for  20 cycles.
 Integral accuracy reduced to 1.0D-05 until final iterations.

 Cycle   1  Pass 0  IDiag  1:
 FoFJK:  IHMeth= 1 ICntrl=       0 DoSepK=F KAlg= 0 I1Cent=   0 FoldK=F
 IRaf= 980000000 NMat=   1 IRICut=       1 DoRegI=T DoRafI=F ISym2E= 0.
 FoFCou: FMM=F IPFlag=           0 FMFlag=      100000 FMFlg1=           0
         NFxFlg=           0 DoJE=F BraDBF=F KetDBF=F FulRan=T
         wScrn=  0.000000 ICntrl=       0 IOpCl=  0 I1Cent=           0 NGrid=           0
         NMat0=    1 NMatS0=      1 NMatT0=    0 NMatD0=    1 NMtDS0=    0 NMtDT0=    0
 Symmetry not used in FoFCou.
 CoulSu:  requested number of processors reduced to:  11 ShMem   1 Linda.
 CalDSu:  requested number of processors reduced to:  20 ShMem   1 Linda.
 E= -323.507915502423    
 DIIS: error= 2.24D-02 at cycle   1 NSaved=   1.
 NSaved= 1 IEnMin= 1 EnMin= -323.507915502423     IErMin= 1 ErrMin= 2.24D-02
 ErrMax= 2.24D-02  0.00D+00 EMaxC= 1.00D-01 BMatC= 2.45D-01 BMatP= 2.45D-01
 IDIUse=3 WtCom= 7.76D-01 WtEn= 2.24D-01
 Coeff-Com:  0.100D+01
 Coeff-En:   0.100D+01
 Coeff:      0.100D+01
 Gap=     0.137 Goal=   None    Shift=    0.000
 GapD=    0.137 DampG=1.000 DampE=0.500 DampFc=0.5000 IDamp=-1.
 Damping current iteration by 5.00D-01
 RMSDP=6.24D-03 MaxDP=2.15D-01              OVMax= 2.74D-01

 Cycle   2  Pass 0  IDiag  1:
 RMSU=  3.10D-03    CP:  9.81D-01
 CoulSu:  requested number of processors reduced to:  11 ShMem   1 Linda.
 CalDSu:  requested number of processors reduced to:  20 ShMem   1 Linda.
 E= -323.560390998254     Delta-E=       -0.052475495832 Rises=F Damp=T
 DIIS: error= 1.07D-02 at cycle   2 NSaved=   2.
 NSaved= 2 IEnMin= 2 EnMin= -323.560390998254     IErMin= 2 ErrMin= 1.07D-02
 ErrMax= 1.07D-02  0.00D+00 EMaxC= 1.00D-01 BMatC= 4.03D-02 BMatP= 2.45D-01
 IDIUse=3 WtCom= 8.93D-01 WtEn= 1.07D-01
 Coeff-Com:  0.237D+00 0.763D+00
 Coeff-En:   0.365D+00 0.635D+00
 Coeff:      0.250D+00 0.750D+00
 Gap=     0.192 Goal=   None    Shift=    0.000
 RMSDP=1.68D-03 MaxDP=9.66D-02 DE=-5.25D-02 OVMax= 1.77D-01

 Cycle   3  Pass 0  IDiag  1:
 RMSU=  1.34D-03    CP:  9.76D-01  6.73D-01
 CoulSu:  requested number of processors reduced to:  11 ShMem   1 Linda.
 CalDSu:  requested number of processors reduced to:  20 ShMem   1 Linda.
 E= -323.689423170569     Delta-E=       -0.129032172314 Rises=F Damp=F
 DIIS: error= 8.61D-03 at cycle   3 NSaved=   3.
 NSaved= 3 IEnMin= 3 EnMin= -323.689423170569     IErMin= 3 ErrMin= 8.61D-03
 ErrMax= 8.61D-03  0.00D+00 EMaxC= 1.00D-01 BMatC= 2.90D-02 BMatP= 4.03D-02
 IDIUse=3 WtCom= 9.14D-01 WtEn= 8.61D-02
 Coeff-Com:  0.942D-01 0.458D+00 0.447D+00
 Coeff-En:   0.000D+00 0.000D+00 0.100D+01
 Coeff:      0.861D-01 0.419D+00 0.495D+00
 Gap=     0.204 Goal=   None    Shift=    0.000
 RMSDP=9.15D-04 MaxDP=4.07D-02 DE=-1.29D-01 OVMax= 6.25D-02

 Cycle   4  Pass 0  IDiag  1:
 RMSU=  5.43D-04    CP:  9.79D-01  7.14D-01  4.59D-01
 CoulSu:  requested number of processors reduced to:  11 ShMem   1 Linda.
 CalDSu:  requested number of processors reduced to:  20 ShMem   1 Linda.
 E= -323.710052989653     Delta-E=       -0.020629819084 Rises=F Damp=F
 DIIS: error= 3.88D-03 at cycle   4 NSaved=   4.
 NSaved= 4 IEnMin= 4 EnMin= -323.710052989653     IErMin= 4 ErrMin= 3.88D-03
 ErrMax= 3.88D-03  0.00D+00 EMaxC= 1.00D-01 BMatC= 5.39D-03 BMatP= 2.90D-02
 IDIUse=3 WtCom= 9.61D-01 WtEn= 3.88D-02
 Coeff-Com:  0.140D-01 0.693D-01 0.305D+00 0.612D+00
 Coeff-En:   0.000D+00 0.000D+00 0.177D+00 0.823D+00
 Coeff:      0.135D-01 0.666D-01 0.300D+00 0.620D+00
 Gap=     0.200 Goal=   None    Shift=    0.000
 RMSDP=3.41D-04 MaxDP=1.46D-02 DE=-2.06D-02 OVMax= 2.32D-02

 Cycle   5  Pass 0  IDiag  1:
 RMSU=  1.58D-04    CP:  9.79D-01  6.87D-01  6.08D-01  6.10D-01
 CoulSu:  requested number of processors reduced to:  11 ShMem   1 Linda.
 CalDSu:  requested number of processors reduced to:  20 ShMem   1 Linda.
 E= -323.713966024465     Delta-E=       -0.003913034813 Rises=F Damp=F
 DIIS: error= 9.01D-04 at cycle   5 NSaved=   5.
 NSaved= 5 IEnMin= 5 EnMin= -323.713966024465     IErMin= 5 ErrMin= 9.01D-04
 ErrMax= 9.01D-04  0.00D+00 EMaxC= 1.00D-01 BMatC= 3.14D-04 BMatP= 5.39D-03
 IDIUse=3 WtCom= 9.91D-01 WtEn= 9.01D-03
 Coeff-Com:  0.281D-02 0.578D-02 0.138D+00 0.346D+00 0.507D+00
 Coeff-En:   0.000D+00 0.000D+00 0.000D+00 0.000D+00 0.100D+01
 Coeff:      0.279D-02 0.573D-02 0.137D+00 0.343D+00 0.511D+00
 Gap=     0.197 Goal=   None    Shift=    0.000
 RMSDP=8.54D-05 MaxDP=2.91D-03 DE=-3.91D-03 OVMax= 4.24D-03

 Cycle   6  Pass 0  IDiag  1:
 RMSU=  3.45D-05    CP:  9.79D-01  6.92D-01  6.08D-01  6.68D-01  5.56D-01
 CoulSu:  requested number of processors reduced to:  11 ShMem   1 Linda.
 CalDSu:  requested number of processors reduced to:  20 ShMem   1 Linda.
 E= -323.714215158758     Delta-E=       -0.000249134293 Rises=F Damp=F
 DIIS: error= 1.66D-04 at cycle   6 NSaved=   6.
 NSaved= 6 IEnMin= 6 EnMin= -323.714215158758     IErMin= 6 ErrMin= 1.66D-04
 ErrMax= 1.66D-04  0.00D+00 EMaxC= 1.00D-01 BMatC= 1.28D-05 BMatP= 3.14D-04
 IDIUse=3 WtCom= 9.98D-01 WtEn= 1.66D-03
 Coeff-Com:  0.716D-03-0.324D-02 0.398D-01 0.103D+00 0.228D+00 0.632D+00
 Coeff-En:   0.000D+00 0.000D+00 0.000D+00 0.000D+00 0.000D+00 0.100D+01
 Coeff:      0.715D-03-0.323D-02 0.398D-01 0.102D+00 0.228D+00 0.632D+00
 Gap=     0.197 Goal=   None    Shift=    0.000
 RMSDP=1.54D-05 MaxDP=5.62D-04 DE=-2.49D-04 OVMax= 7.82D-04

 Cycle   7  Pass 0  IDiag  1:
 RMSU=  9.06D-06    CP:  9.79D-01  6.91D-01  6.09D-01  6.66D-01  5.85D-01
                    CP:  6.86D-01
 CoulSu:  requested number of processors reduced to:  11 ShMem   1 Linda.
 CalDSu:  requested number of processors reduced to:  20 ShMem   1 Linda.
 E= -323.714224572896     Delta-E=       -0.000009414137 Rises=F Damp=F
 DIIS: error= 4.62D-05 at cycle   7 NSaved=   7.
 NSaved= 7 IEnMin= 7 EnMin= -323.714224572896     IErMin= 7 ErrMin= 4.62D-05
 ErrMax= 4.62D-05  0.00D+00 EMaxC= 1.00D-01 BMatC= 1.04D-06 BMatP= 1.28D-05
 IDIUse=1 WtCom= 1.00D+00 WtEn= 0.00D+00
 Coeff-Com:  0.318D-03-0.206D-02 0.123D-01 0.305D-01 0.854D-01 0.313D+00
 Coeff-Com:  0.561D+00
 Coeff:      0.318D-03-0.206D-02 0.123D-01 0.305D-01 0.854D-01 0.313D+00
 Coeff:      0.561D+00
 Gap=     0.197 Goal=   None    Shift=    0.000
 RMSDP=5.80D-06 MaxDP=2.22D-04 DE=-9.41D-06 OVMax= 1.92D-04

 Initial convergence to 1.0D-05 achieved.  Increase integral accuracy.
 Cycle   8  Pass 1  IDiag  1:
 CoulSu:  requested number of processors reduced to:  11 ShMem   1 Linda.
 CalDSu:  requested number of processors reduced to:  20 ShMem   1 Linda.
 E= -323.714179044836     Delta-E=        0.000045528060 Rises=F Damp=F
 DIIS: error= 1.51D-05 at cycle   1 NSaved=   1.
 NSaved= 1 IEnMin= 1 EnMin= -323.714179044836     IErMin= 1 ErrMin= 1.51D-05
 ErrMax= 1.51D-05  0.00D+00 EMaxC= 1.00D-01 BMatC= 1.46D-07 BMatP= 1.46D-07
 IDIUse=1 WtCom= 1.00D+00 WtEn= 0.00D+00
 Coeff-Com:  0.100D+01
 Coeff:      0.100D+01
 Gap=     0.197 Goal=   None    Shift=    0.000
 RMSDP=5.80D-06 MaxDP=2.22D-04 DE= 4.55D-05 OVMax= 1.26D-04

 Cycle   9  Pass 1  IDiag  1:
 RMSU=  6.34D-06    CP:  1.00D+00
 CoulSu:  requested number of processors reduced to:  11 ShMem   1 Linda.
 CalDSu:  requested number of processors reduced to:  20 ShMem   1 Linda.
 E= -323.714179015228     Delta-E=        0.000000029608 Rises=F Damp=F
 DIIS: error= 1.92D-05 at cycle   2 NSaved=   2.
 NSaved= 2 IEnMin= 1 EnMin= -323.714179044836     IErMin= 1 ErrMin= 1.51D-05
 ErrMax= 1.92D-05  0.00D+00 EMaxC= 1.00D-01 BMatC= 1.86D-07 BMatP= 1.46D-07
 IDIUse=1 WtCom= 1.00D+00 WtEn= 0.00D+00
 Coeff-Com:  0.537D+00 0.463D+00
 Coeff:      0.537D+00 0.463D+00
 Gap=     0.197 Goal=   None    Shift=    0.000
 RMSDP=2.24D-06 MaxDP=8.39D-05 DE= 2.96D-08 OVMax= 1.17D-04

 Cycle  10  Pass 1  IDiag  1:
 RMSU=  1.88D-06    CP:  1.00D+00  8.10D-01
 CoulSu:  requested number of processors reduced to:  11 ShMem   1 Linda.
 CalDSu:  requested number of processors reduced to:  20 ShMem   1 Linda.
 E= -323.714179141008     Delta-E=       -0.000000125780 Rises=F Damp=F
 DIIS: error= 8.01D-06 at cycle   3 NSaved=   3.
 NSaved= 3 IEnMin= 3 EnMin= -323.714179141008     IErMin= 3 ErrMin= 8.01D-06
 ErrMax= 8.01D-06  0.00D+00 EMaxC= 1.00D-01 BMatC= 2.44D-08 BMatP= 1.46D-07
 IDIUse=1 WtCom= 1.00D+00 WtEn= 0.00D+00
 Coeff-Com:  0.716D-01 0.264D+00 0.664D+00
 Coeff:      0.716D-01 0.264D+00 0.664D+00
 Gap=     0.197 Goal=   None    Shift=    0.000
 RMSDP=9.01D-07 MaxDP=4.33D-05 DE=-1.26D-07 OVMax= 6.89D-05

 Cycle  11  Pass 1  IDiag  1:
 RMSU=  6.38D-07    CP:  1.00D+00  8.82D-01  7.66D-01
 CoulSu:  requested number of processors reduced to:  11 ShMem   1 Linda.
 CalDSu:  requested number of processors reduced to:  20 ShMem   1 Linda.
 E= -323.714179152360     Delta-E=       -0.000000011352 Rises=F Damp=F
 DIIS: error= 4.48D-06 at cycle   4 NSaved=   4.
 NSaved= 4 IEnMin= 4 EnMin= -323.714179152360     IErMin= 4 ErrMin= 4.48D-06
 ErrMax= 4.48D-06  0.00D+00 EMaxC= 1.00D-01 BMatC= 9.20D-09 BMatP= 2.44D-08
 IDIUse=1 WtCom= 1.00D+00 WtEn= 0.00D+00
 Coeff-Com: -0.118D-01 0.135D+00 0.475D+00 0.401D+00
 Coeff:     -0.118D-01 0.135D+00 0.475D+00 0.401D+00
 Gap=     0.197 Goal=   None    Shift=    0.000
 RMSDP=3.76D-07 MaxDP=1.61D-05 DE=-1.14D-08 OVMax= 3.06D-05

 Cycle  12  Pass 1  IDiag  1:
 RMSU=  9.60D-08    CP:  1.00D+00  8.84D-01  7.91D-01  4.35D-01
 CoulSu:  requested number of processors reduced to:  11 ShMem   1 Linda.
 CalDSu:  requested number of processors reduced to:  20 ShMem   1 Linda.
 E= -323.714179159502     Delta-E=       -0.000000007142 Rises=F Damp=F
 DIIS: error= 3.31D-07 at cycle   5 NSaved=   5.
 NSaved= 5 IEnMin= 5 EnMin= -323.714179159502     IErMin= 5 ErrMin= 3.31D-07
 ErrMax= 3.31D-07  0.00D+00 EMaxC= 1.00D-01 BMatC= 4.95D-11 BMatP= 9.20D-09
 IDIUse=1 WtCom= 1.00D+00 WtEn= 0.00D+00
 Coeff-Com: -0.650D-02 0.461D-01 0.169D+00 0.163D+00 0.629D+00
 Coeff:     -0.650D-02 0.461D-01 0.169D+00 0.163D+00 0.629D+00
 Gap=     0.197 Goal=   None    Shift=    0.000
 RMSDP=3.76D-08 MaxDP=1.40D-06 DE=-7.14D-09 OVMax= 1.46D-06

 Cycle  13  Pass 1  IDiag  1:
 RMSU=  3.15D-08    CP:  1.00D+00  8.85D-01  7.91D-01  4.39D-01  7.95D-01
 CoulSu:  requested number of processors reduced to:  11 ShMem   1 Linda.
 CalDSu:  requested number of processors reduced to:  20 ShMem   1 Linda.
 E= -323.714179159543     Delta-E=       -0.000000000041 Rises=F Damp=F
 DIIS: error= 1.49D-07 at cycle   6 NSaved=   6.
 NSaved= 6 IEnMin= 6 EnMin= -323.714179159543     IErMin= 6 ErrMin= 1.49D-07
 ErrMax= 1.49D-07  0.00D+00 EMaxC= 1.00D-01 BMatC= 8.54D-12 BMatP= 4.95D-11
 IDIUse=1 WtCom= 1.00D+00 WtEn= 0.00D+00
 Coeff-Com: -0.262D-02 0.145D-01 0.539D-01 0.588D-01 0.339D+00 0.537D+00
 Coeff:     -0.262D-02 0.145D-01 0.539D-01 0.588D-01 0.339D+00 0.537D+00
 Gap=     0.197 Goal=   None    Shift=    0.000
 RMSDP=1.44D-08 MaxDP=5.98D-07 DE=-4.10D-11 OVMax= 5.92D-07

 Cycle  14  Pass 1  IDiag  1:
 RMSU=  8.52D-09    CP:  1.00D+00  8.85D-01  7.92D-01  4.44D-01  8.39D-01
                    CP:  6.76D-01
 CoulSu:  requested number of processors reduced to:  11 ShMem   1 Linda.
 CalDSu:  requested number of processors reduced to:  20 ShMem   1 Linda.
 E= -323.714179159539     Delta-E=        0.000000000004 Rises=F Damp=F
 DIIS: error= 3.05D-08 at cycle   7 NSaved=   7.
 NSaved= 7 IEnMin= 6 EnMin= -323.714179159543     IErMin= 7 ErrMin= 3.05D-08
 ErrMax= 3.05D-08  0.00D+00 EMaxC= 1.00D-01 BMatC= 4.47D-13 BMatP= 8.54D-12
 IDIUse=1 WtCom= 1.00D+00 WtEn= 0.00D+00
 Coeff-Com: -0.196D-03 0.526D-04-0.230D-03 0.397D-02 0.468D-01 0.205D+00
 Coeff-Com:  0.745D+00
 Coeff:     -0.196D-03 0.526D-04-0.230D-03 0.397D-02 0.468D-01 0.205D+00
 Coeff:      0.745D+00
 Gap=     0.197 Goal=   None    Shift=    0.000
 RMSDP=3.41D-09 MaxDP=1.19D-07 DE= 4.21D-12 OVMax= 1.43D-07

 SCF Done:  E(RB3LYP) =  -323.714179160     A.U. after   14 cycles
            NFock= 14  Conv=0.34D-08     -V/T= 2.0073
 KE= 3.213824348053D+02 PE=-1.259867446346D+03 EE= 3.637489328744D+02
 Leave Link  502 at Sun Aug 21 17:41:38 2022, MaxMem=    23592960 cpu:       143.2
 (Enter /public/home/users/caep010/software/Gaussian09/g09/l601.exe)
 Copying SCF densities to generalized density rwf, IOpCl= 0 IROHF=0.

 **********************************************************************

            Population analysis using the SCF density.

 **********************************************************************

 Orbital symmetries:
       Occupied  (A) (A) (A) (A) (A) (A) (A) (A) (A) (A) (A) (A)
                 (A) (A) (A) (A) (A) (A) (A) (A) (A) (A) (A) (A)
       Virtual   (A) (A) (A) (A) (A) (A) (A) (A) (A) (A) (A) (A)
                 (A) (A) (A) (A) (A) (A) (A) (A) (A) (A) (A) (A)
                 (A) (A) (A) (A) (A) (A) (A) (A) (A) (A) (A) (A)
                 (A) (A) (A) (A) (A) (A) (A) (A) (A) (A) (A) (A)
                 (A) (A) (A) (A) (A) (A) (A) (A) (A) (A) (A) (A)
                 (A) (A) (A) (A) (A) (A) (A) (A) (A) (A) (A) (A)
                 (A) (A) (A) (A) (A) (A) (A) (A) (A) (A) (A) (A)
                 (A) (A) (A) (A) (A) (A) (A) (A) (A) (A) (A) (A)
                 (A) (A) (A) (A) (A) (A) (A) (A) (A) (A) (A) (A)
                 (A) (A) (A) (A) (A) (A) (A) (A) (A) (A) (A) (A)
                 (A) (A) (A) (A) (A) (A) (A) (A) (A) (A) (A) (A)
                 (A) (A) (A) (A) (A) (A) (A) (A) (A) (A) (A) (A)
                 (A) (A) (A) (A) (A) (A) (A) (A) (A) (A) (A) (A)
                 (A) (A) (A) (A) (A) (A) (A) (A) (A) (A) (A) (A)
                 (A) (A) (A) (A) (A) (A) (A) (A) (A) (A) (A)
 The electronic state is 1-A.
 Alpha  occ. eigenvalues --  -19.15505 -19.14440 -14.32513 -10.27664 -10.26931
 Alpha  occ. eigenvalues --  -10.19370  -1.05445  -1.02748  -0.88096  -0.74372
 Alpha  occ. eigenvalues --   -0.66072  -0.59363  -0.52484  -0.47308  -0.47016
 Alpha  occ. eigenvalues --   -0.44504  -0.43368  -0.40926  -0.39449  -0.37881
 Alpha  occ. eigenvalues --   -0.35873  -0.29726  -0.25505  -0.24188
 Alpha virt. eigenvalues --   -0.04506   0.04728   0.09726   0.11541   0.12670
 Alpha virt. eigenvalues --    0.13888   0.14860   0.17348   0.21547   0.24609
 Alpha virt. eigenvalues --    0.26010   0.26946   0.28746   0.48002   0.48389
 Alpha virt. eigenvalues --    0.48731   0.49295   0.50865   0.53760   0.54476
 Alpha virt. eigenvalues --    0.58136   0.59102   0.62227   0.63281   0.67171
 Alpha virt. eigenvalues --    0.70705   0.71472   0.72209   0.72940   0.74313
 Alpha virt. eigenvalues --    0.75862   0.79707   0.82253   0.84101   0.84790
 Alpha virt. eigenvalues --    0.87198   0.89953   0.90606   0.92995   0.94380
 Alpha virt. eigenvalues --    0.97530   0.97922   1.00235   1.03849   1.05644
 Alpha virt. eigenvalues --    1.11214   1.13872   1.21626   1.26261   1.29400
 Alpha virt. eigenvalues --    1.32236   1.35397   1.39467   1.40897   1.44092
 Alpha virt. eigenvalues --    1.45730   1.48407   1.52096   1.53998   1.56009
 Alpha virt. eigenvalues --    1.59368   1.60361   1.66341   1.69062   1.71392
 Alpha virt. eigenvalues --    1.77362   1.83220   1.84949   1.85383   1.90818
 Alpha virt. eigenvalues --    1.91705   1.98810   2.06044   2.11284   2.17859
 Alpha virt. eigenvalues --    2.21234   2.31032   2.35302   2.35981   2.41920
 Alpha virt. eigenvalues --    2.47497   2.52582   2.54184   2.61843   2.68597
 Alpha virt. eigenvalues --    2.76067   2.78147   2.79428   2.81427   2.84011
 Alpha virt. eigenvalues --    2.86628   2.87779   2.92244   2.94001   2.97820
 Alpha virt. eigenvalues --    3.00340   3.00817   3.03877   3.08401   3.14733
 Alpha virt. eigenvalues --    3.19476   3.23323   3.28219   3.33940   3.36372
 Alpha virt. eigenvalues --    3.39485   3.47223   3.47921   3.51155   3.62827
 Alpha virt. eigenvalues --    3.75405   3.76530   3.83339   3.87576   3.92051
 Alpha virt. eigenvalues --    3.97449   4.02730   4.07743   4.10477   4.12676
 Alpha virt. eigenvalues --    4.16586   4.21691   4.22777   4.25722   4.27487
 Alpha virt. eigenvalues --    4.32509   4.33878   4.36775   4.40905   4.42574
 Alpha virt. eigenvalues --    4.43314   4.46751   4.50133   4.52030   4.56166
 Alpha virt. eigenvalues --    4.57699   4.60786   4.62620   4.68001   4.69735
 Alpha virt. eigenvalues --    4.74534   4.75494   4.77201   4.80922   4.82350
 Alpha virt. eigenvalues --    4.85526   4.88949   4.92797   4.97172   5.01167
 Alpha virt. eigenvalues --    5.08793   5.10804   5.13260   5.17452   5.21236
 Alpha virt. eigenvalues --    5.27006   5.43028   5.43965   5.48519   5.50515
 Alpha virt. eigenvalues --    5.53716   5.65104   5.66584   5.79906   5.96329
 Alpha virt. eigenvalues --    5.98582   6.03063   6.13365   6.26290   6.35932
 Alpha virt. eigenvalues --    6.81661   7.12448  10.02086  10.96769  11.39609
 Alpha virt. eigenvalues --   11.89364  12.63775  13.01747  13.53261
          Condensed to atoms (all electrons):
               1          2          3          4          5          6
     1  C    5.248044   0.337237  -0.085410  -0.064242  -0.040899   0.001475
     2  C    0.337237   4.777985   0.350146   0.346061   0.243643  -0.059412
     3  N   -0.085410   0.350146   6.626230  -0.021352  -0.020434  -0.004106
     4  O   -0.064242   0.346061  -0.021352   7.883197  -0.022128  -0.004288
     5  C   -0.040899   0.243643  -0.020434  -0.022128   4.602329   0.751345
     6  O    0.001475  -0.059412  -0.004106  -0.004288   0.751345   7.613060
     7  H    0.359098  -0.010313  -0.001773   0.001175   0.002582  -0.000050
     8  H    0.342717  -0.015055   0.000509   0.003409   0.000790   0.000084
     9  H    0.332161  -0.018237   0.006447   0.000679  -0.001618   0.000103
    10  H   -0.006448  -0.042665   0.327182   0.001104   0.003955  -0.000005
    11  H   -0.000858  -0.048468   0.334799   0.003012  -0.000705   0.000693
    12  H   -0.001242  -0.061692   0.006044   0.303296   0.002009   0.000792
    13  H    0.009927  -0.117679   0.003269   0.002767   0.354133  -0.054666
               7          8          9         10         11         12
     1  C    0.359098   0.342717   0.332161  -0.006448  -0.000858  -0.001242
     2  C   -0.010313  -0.015055  -0.018237  -0.042665  -0.048468  -0.061692
     3  N   -0.001773   0.000509   0.006447   0.327182   0.334799   0.006044
     4  O    0.001175   0.003409   0.000679   0.001104   0.003012   0.303296
     5  C    0.002582   0.000790  -0.001618   0.003955  -0.000705   0.002009
     6  O   -0.000050   0.000084   0.000103  -0.000005   0.000693   0.000792
     7  H    0.573432  -0.027482  -0.027180   0.004806   0.000304  -0.000217
     8  H   -0.027482   0.605398  -0.026166   0.000283   0.002887  -0.000095
     9  H   -0.027180  -0.026166   0.627622   0.000047   0.000130   0.003070
    10  H    0.004806   0.000283   0.000047   0.501336  -0.025964  -0.000439
    11  H    0.000304   0.002887   0.000130  -0.025964   0.502206  -0.000313
    12  H   -0.000217  -0.000095   0.003070  -0.000439  -0.000313   0.454689
    13  H   -0.000329   0.001672   0.002962  -0.000340   0.000208   0.000950
              13
     1  C    0.009927
     2  C   -0.117679
     3  N    0.003269
     4  O    0.002767
     5  C    0.354133
     6  O   -0.054666
     7  H   -0.000329
     8  H    0.001672
     9  H    0.002962
    10  H   -0.000340
    11  H    0.000208
    12  H    0.000950
    13  H    0.709087
 Mulliken charges:
               1
     1  C   -0.431562
     2  C    0.318449
     3  N   -0.521551
     4  O   -0.432691
     5  C    0.124998
     6  O   -0.245023
     7  H    0.125946
     8  H    0.111050
     9  H    0.099980
    10  H    0.237147
    11  H    0.232070
    12  H    0.293149
    13  H    0.088038
 Sum of Mulliken charges =  -0.00000
 Mulliken charges with hydrogens summed into heavy atoms:
               1
     1  C   -0.094586
     2  C    0.318449
     3  N   -0.052334
     4  O   -0.139543
     5  C    0.213037
     6  O   -0.245023
 Electronic spatial extent (au):  <R**2>=            549.1681
 Charge=             -0.0000 electrons
 Dipole moment (field-independent basis, Debye):
    X=             -3.0668    Y=             -1.8132    Z=             -2.0922  Tot=              4.1316
 Quadrupole moment (field-independent basis, Debye-Ang):
   XX=            -40.4369   YY=            -32.4650   ZZ=            -35.3704
   XY=             -3.2280   XZ=             -0.7442   YZ=             -3.3230
 Traceless Quadrupole moment (field-independent basis, Debye-Ang):
   XX=             -4.3461   YY=              3.6257   ZZ=              0.7204
   XY=             -3.2280   XZ=             -0.7442   YZ=             -3.3230
 Octapole moment (field-independent basis, Debye-Ang**2):
  XXX=            -11.1228  YYY=             -4.0428  ZZZ=              0.7325  XYY=             -2.5141
  XXY=              3.3313  XXZ=              2.7307  XZZ=              3.1440  YZZ=             -0.7179
  YYZ=              3.3360  XYZ=              0.0662
 Hexadecapole moment (field-independent basis, Debye-Ang**3):
 XXXX=           -363.9495 YYYY=           -167.7349 ZZZZ=           -156.4695 XXXY=             -8.3951
 XXXZ=             -5.7358 YYYX=            -11.2478 YYYZ=            -16.5009 ZZZX=             -2.2297
 ZZZY=            -12.3264 XXYY=            -80.2846 XXZZ=            -83.0321 YYZZ=            -45.2612
 XXYZ=             -0.3423 YYXZ=             -4.1185 ZZXY=             -3.2712
 N-N= 2.510218995070D+02 E-N=-1.259867449445D+03  KE= 3.213824348053D+02
 PrsmSu:  requested number of processors reduced to:  11 ShMem   1 Linda.
 No NMR shielding tensors so no spin-rotation constants.
 Leave Link  601 at Sun Aug 21 17:41:38 2022, MaxMem=    23592960 cpu:         2.8
 (Enter /public/home/users/caep010/software/Gaussian09/g09/l701.exe)
 Compute integral first derivatives.
 ... and contract with generalized density number  0.
 PrsmSu:  requested number of processors reduced to:   3 ShMem   1 Linda.
 PrsmSu:  requested number of processors reduced to:   6 ShMem   1 Linda.
 Leave Link  701 at Sun Aug 21 17:41:38 2022, MaxMem=    23592960 cpu:         2.4
 (Enter /public/home/users/caep010/software/Gaussian09/g09/l702.exe)
 L702 exits ... SP integral derivatives will be done elsewhere.
 Leave Link  702 at Sun Aug 21 17:41:38 2022, MaxMem=    23592960 cpu:         0.7
 (Enter /public/home/users/caep010/software/Gaussian09/g09/l703.exe)
 Compute integral first derivatives, UseDBF=F ICtDFT=           0.
 Integral derivatives from FoFJK, PRISM(SPDF).
 Calling FoFJK, ICntrl=      2127 FMM=F ISym2X=0 I1Cent= 0 IOpClX= 0 NMat=1 NMatS=1 NMatT=0.
 FoFJK:  IHMeth= 1 ICntrl=    2127 DoSepK=F KAlg= 0 I1Cent=   0 FoldK=F
 IRaf=         0 NMat=   1 IRICut=       1 DoRegI=T DoRafI=F ISym2E= 0.
 FoFCou: FMM=F IPFlag=           0 FMFlag=      100000 FMFlg1=         800
         NFxFlg=           0 DoJE=F BraDBF=F KetDBF=F FulRan=T
         wScrn=  0.000000 ICntrl=    2127 IOpCl=  0 I1Cent=           0 NGrid=           0
         NMat0=    1 NMatS0=      1 NMatT0=    0 NMatD0=    1 NMtDS0=    0 NMtDT0=    0
 Symmetry not used in FoFCou.
 CoulSu:  requested number of processors reduced to:   6 ShMem   1 Linda.
 CalDSu:  requested number of processors reduced to:  17 ShMem   1 Linda.
 Leave Link  703 at Sun Aug 21 17:41:42 2022, MaxMem=    23592960 cpu:        25.8
 (Enter /public/home/users/caep010/software/Gaussian09/g09/l716.exe)
 Dipole        =-1.20657797D+00-7.13358002D-01-8.23116558D-01
 ***** Axes restored to original set *****
 -------------------------------------------------------------------
 Center     Atomic                   Forces (Hartrees/Bohr)
 Number     Number              X              Y              Z
 -------------------------------------------------------------------
      1        6          -0.002289796    0.010242770   -0.000448794
      2        6           0.020712598    0.023631909   -0.017501576
      3        7           0.013923436   -0.001607513   -0.005118277
      4        8          -0.013586350    0.009481343    0.013747329
      5        6          -0.012283060   -0.052848503    0.015276594
      6        8           0.003272399    0.023685816   -0.008640958
      7        1          -0.010385779   -0.004375527   -0.002377656
      8        1          -0.000386122    0.001697190    0.009840450
      9        1           0.006026771   -0.002367299   -0.004950088
     10        1          -0.021342239   -0.004984152   -0.006763499
     11        1           0.001340394    0.000885996    0.024970972
     12        1           0.020056397   -0.017183137   -0.009725982
     13        1          -0.005058649    0.013741107   -0.008308515
 -------------------------------------------------------------------
 Cartesian Forces:  Max     0.052848503 RMS     0.014711397
 Leave Link  716 at Sun Aug 21 17:41:42 2022, MaxMem=    23592960 cpu:         0.6
 (Enter /public/home/users/caep010/software/Gaussian09/g09/l103.exe)

 GradGradGradGradGradGradGradGradGradGradGradGradGradGradGradGradGradGrad
 Berny optimization.
 FormGI is forming the generalized inverse of G from B-inverse, IUseBI=4.
 Internal  Forces:  Max     0.028138316 RMS     0.008839787
 Search for a local minimum.
 Step number   1 out of a maximum of   65
 All quantities printed in internal units (Hartrees-Bohrs-Radians)
 RMS Force = .88398D-02 SwitMx=.10000D-02 MixMth= 1
 Mixed Optimization -- RFO/linear search
 Second derivative matrix not updated -- first step.
 ITU=  0
     Eigenvalues ---    0.00230   0.00616   0.00616   0.00825   0.01592
     Eigenvalues ---    0.04476   0.05505   0.05560   0.05751   0.06487
     Eigenvalues ---    0.08074   0.16000   0.16000   0.16000   0.16000
     Eigenvalues ---    0.16000   0.16000   0.16000   0.17233   0.17570
     Eigenvalues ---    0.22000   0.28342   0.31219   0.32453   0.32464
     Eigenvalues ---    0.32501   0.35278   0.36277   0.40298   0.40369
     Eigenvalues ---    0.44392   0.48773   0.94930
 RFO step:  Lambda=-1.32197329D-02 EMin= 2.30000000D-03
 Linear search not attempted -- first point.
 Iteration  1 RMS(Cart)=  0.05184274 RMS(Int)=  0.00139616
 Iteration  2 RMS(Cart)=  0.00177108 RMS(Int)=  0.00055818
 Iteration  3 RMS(Cart)=  0.00000178 RMS(Int)=  0.00055818
 Iteration  4 RMS(Cart)=  0.00000000 RMS(Int)=  0.00055818
 ITry= 1 IFail=0 DXMaxC= 1.49D-01 DCOld= 1.00D+10 DXMaxT= 3.00D-01 DXLimC= 3.00D+00 Rises=F
 Variable       Old X    -DE/DX   Delta X   Delta X   Delta X     New X
                                 (Linear)    (Quad)   (Total)
    R1        2.91397   0.00292   0.00000   0.00985   0.00985   2.92381
    R2        2.09936  -0.01149   0.00000  -0.03398  -0.03398   2.06538
    R3        2.10023  -0.00983   0.00000  -0.02912  -0.02912   2.07111
    R4        2.10003  -0.00736   0.00000  -0.02178  -0.02178   2.07825
    R5        2.76951  -0.00524   0.00000  -0.01394  -0.01394   2.75556
    R6        2.65988   0.00433   0.00000   0.00947   0.00947   2.66935
    R7        2.85597   0.01838   0.00000   0.05648   0.05648   2.91244
    R8        1.97754  -0.02280   0.00000  -0.05469  -0.05469   1.92285
    R9        1.97850  -0.02501   0.00000  -0.06008  -0.06008   1.91842
   R10        1.87824  -0.02814   0.00000  -0.05617  -0.05617   1.82207
   R11        2.30740  -0.02499   0.00000  -0.02596  -0.02596   2.28144
   R12        2.05226   0.01538   0.00000   0.04203   0.04203   2.09429
    A1        1.92265  -0.00203   0.00000  -0.01195  -0.01190   1.91075
    A2        1.93124   0.00120   0.00000   0.00636   0.00630   1.93754
    A3        1.92963   0.00488   0.00000   0.02901   0.02897   1.95861
    A4        1.89570   0.00021   0.00000  -0.00038  -0.00037   1.89533
    A5        1.89047  -0.00129   0.00000  -0.00628  -0.00621   1.88426
    A6        1.89317  -0.00312   0.00000  -0.01757  -0.01771   1.87546
    A7        1.91961   0.01109   0.00000   0.07264   0.07299   1.99260
    A8        1.91397   0.00135   0.00000   0.01501   0.01622   1.93019
    A9        1.92549  -0.00434   0.00000  -0.00066  -0.00092   1.92457
   A10        1.89400  -0.00969   0.00000  -0.07852  -0.07901   1.81499
   A11        1.89885  -0.00238   0.00000  -0.01585  -0.01722   1.88163
   A12        1.91156   0.00386   0.00000   0.00574   0.00445   1.91601
   A13        1.90306  -0.00316   0.00000  -0.02403  -0.02421   1.87886
   A14        1.91209  -0.00045   0.00000  -0.00832  -0.00850   1.90359
   A15        1.87116   0.00020   0.00000  -0.01094  -0.01135   1.85981
   A16        1.88372   0.00042   0.00000   0.00245   0.00245   1.88617
   A17        2.09859   0.01136   0.00000   0.04867   0.04766   2.14626
   A18        2.10680  -0.01264   0.00000  -0.06461  -0.06562   2.04118
   A19        2.07779   0.00128   0.00000   0.01574   0.01472   2.09251
    D1       -1.06715   0.00207   0.00000   0.02700   0.02691  -1.04024
    D2        1.01440  -0.00220   0.00000  -0.01561  -0.01519   0.99921
    D3        3.12130   0.00070   0.00000   0.00075   0.00038   3.12168
    D4        1.02930   0.00179   0.00000   0.02287   0.02275   1.05205
    D5        3.11085  -0.00249   0.00000  -0.01974  -0.01935   3.09150
    D6       -1.06544   0.00042   0.00000  -0.00338  -0.00378  -1.06922
    D7        3.12713   0.00186   0.00000   0.02400   0.02397  -3.13208
    D8       -1.07450  -0.00241   0.00000  -0.01862  -0.01813  -1.09263
    D9        1.03240   0.00050   0.00000  -0.00226  -0.00256   1.02984
   D10        1.05827  -0.00041   0.00000  -0.03514  -0.03582   1.02246
   D11       -0.98456   0.00143   0.00000  -0.00342  -0.00432  -0.98889
   D12       -1.03544  -0.00273   0.00000  -0.04864  -0.04703  -1.08247
   D13       -3.07827  -0.00089   0.00000  -0.01692  -0.01554  -3.09381
   D14       -3.11410  -0.00042   0.00000  -0.00125  -0.00184  -3.11594
   D15        1.12625   0.00142   0.00000   0.03047   0.02965   1.15590
   D16        1.06889  -0.00370   0.00000  -0.01977  -0.01964   1.04924
   D17       -3.11707   0.00470   0.00000   0.02986   0.02953  -3.08755
   D18       -1.04643  -0.00164   0.00000  -0.03205  -0.03184  -1.07827
   D19       -3.12217   0.00382   0.00000   0.07740   0.07705  -3.04512
   D20        0.01658   0.00219   0.00000  -0.00649  -0.00678   0.00979
   D21        1.05381  -0.00565   0.00000  -0.00163  -0.00164   1.05217
   D22       -2.09063  -0.00728   0.00000  -0.08551  -0.08547  -2.17610
   D23       -1.01383   0.00523   0.00000   0.09928   0.09957  -0.91426
   D24        2.12492   0.00360   0.00000   0.01540   0.01574   2.14066
         Item               Value     Threshold  Converged?
 Maximum Force            0.028138     0.000450     NO 
 RMS     Force            0.008840     0.000300     NO 
 Maximum Displacement     0.149083     0.001800     NO 
 RMS     Displacement     0.051591     0.001200     NO 
 Predicted change in Energy=-7.064847D-03
 Lowest energy point so far.  Saving SCF results.
 GradGradGradGradGradGradGradGradGradGradGradGradGradGradGradGradGradGrad

 Leave Link  103 at Sun Aug 21 17:41:42 2022, MaxMem=    23592960 cpu:         3.0
 (Enter /public/home/users/caep010/software/Gaussian09/g09/l202.exe)
                          Input orientation:                          
 ---------------------------------------------------------------------
 Center     Atomic      Atomic             Coordinates (Angstroms)
 Number     Number       Type             X           Y           Z
 ---------------------------------------------------------------------
      1          6           0        0.251351    1.211380   -0.344102
      2          6           0        0.064030   -0.213619    0.228757
      3          7           0        1.055228   -1.177991   -0.233632
      4          8           0        0.220710   -0.209281    1.632595
      5          6           0       -1.330291   -0.757785   -0.138727
      6          8           0       -1.754424   -1.810270    0.273501
      7          1           0        1.235297    1.592334   -0.059023
      8          1           0        0.181530    1.207561   -1.437853
      9          1           0       -0.506407    1.913898    0.032391
     10          1           0        1.973161   -0.828357    0.031929
     11          1           0        1.039781   -1.208862   -1.248230
     12          1           0       -0.446109    0.378517    2.006123
     13          1           0       -1.983656   -0.097823   -0.743528
 ---------------------------------------------------------------------
                    Distance matrix (angstroms):
                    1          2          3          4          5
     1  C    0.000000
     2  C    1.547216   0.000000
     3  N    2.523393   1.458180   0.000000
     4  O    2.434450   1.412561   2.262216   0.000000
     5  C    2.534044   1.541198   2.424104   2.417445   0.000000
     6  O    3.678985   2.420345   2.924228   2.882960   1.207288
     7  H    1.092953   2.171670   2.781656   2.671474   3.480180
     8  H    1.095985   2.193433   2.811469   3.381809   2.799271
     9  H    1.099762   2.211399   3.474083   2.756310   2.801064
    10  H    2.695655   2.015298   1.017529   2.452849   3.308610
    11  H    2.701229   2.030786   1.015186   3.157403   2.655506
    12  H    2.589144   1.941622   3.113395   0.964198   2.583281
    13  H    2.620841   2.269750   3.265207   3.243087   1.108251
                    6          7          8          9         10
     6  O    0.000000
     7  H    4.541665   0.000000
     8  H    3.972903   1.777540   0.000000
     9  H    3.935112   1.773498   1.770251   0.000000
    10  H    3.862305   2.532284   3.084666   3.697056   0.000000
    11  H    3.238046   3.049449   2.571314   3.712455   1.629352
    12  H    3.082930   2.926654   3.597529   2.501330   3.347664
    13  H    2.004836   3.699572   2.621859   2.613682   4.097733
                   11         12         13
    11  H    0.000000
    12  H    3.913880   0.000000
    13  H    3.260415   3.186146   0.000000
 Stoichiometry    C3H7NO2
 Framework group  C1[X(C3H7NO2)]
 Deg. of freedom    33
 Full point group                 C1      NOp   1
 RotChk:  IX=0 Diff= 7.05D-01
 Largest Abelian subgroup         C1      NOp   1
 Largest concise Abelian subgroup C1      NOp   1
                         Standard orientation:                         
 ---------------------------------------------------------------------
 Center     Atomic      Atomic             Coordinates (Angstroms)
 Number     Number       Type             X           Y           Z
 ---------------------------------------------------------------------
      1          6           0       -1.466825   -0.959679   -0.317168
      2          6           0       -0.329026    0.034437    0.016033
      3          7           0       -0.414593    1.301624   -0.700349
      4          8           0       -0.378337    0.407776    1.377472
      5          6           0        1.040895   -0.595663   -0.302686
      6          8           0        2.088944   -0.057285   -0.039461
      7          1           0       -2.430223   -0.507907   -0.067542
      8          1           0       -1.466175   -1.214814   -1.383043
      9          1           0       -1.376569   -1.899362    0.247034
     10          1           0       -1.309437    1.727099   -0.468852
     11          1           0       -0.431251    1.117781   -1.698611
     12          1           0       -0.276095   -0.389437    1.910083
     13          1           0        1.036775   -1.623234   -0.717776
 ---------------------------------------------------------------------
 Rotational constants (GHZ):      4.9130216      2.8717590      2.7825300
 Leave Link  202 at Sun Aug 21 17:41:42 2022, MaxMem=    23592960 cpu:         0.2
 (Enter /public/home/users/caep010/software/Gaussian09/g09/l301.exe)
 Standard basis: GTBas3 (6D, 7F)
 Ernie: Thresh=  0.10000D-02 Tol=  0.10000D-05 Strict=F.
 There are   221 symmetry adapted cartesian basis functions of A   symmetry.
 There are   203 symmetry adapted basis functions of A   symmetry.
   203 basis functions,   313 primitive gaussians,   221 cartesian basis functions
    24 alpha electrons       24 beta electrons
       nuclear repulsion energy       250.7078443506 Hartrees.
 IExCor=  402 DFT=T Ex+Corr=B3LYP ExCW=0 ScaHFX=  0.200000
 ScaDFX=  0.800000  0.720000  1.000000  0.810000 ScalE2=  1.000000  1.000000
 IRadAn=      0 IRanWt=     -1 IRanGd=            0 ICorTp=0 IEmpDi=  4
 NAtoms=   13 NActive=   13 NUniq=   13 SFac= 1.00D+00 NAtFMM=   60 NAOKFM=F Big=F
 Integral buffers will be    131072 words long.
 Raffenetti 2 integral format.
 Two-electron integral symmetry is turned on.
 Leave Link  301 at Sun Aug 21 17:41:42 2022, MaxMem=    23592960 cpu:         1.6
 (Enter /public/home/users/caep010/software/Gaussian09/g09/l302.exe)
 NPDir=0 NMtPBC=     1 NCelOv=     1 NCel=       1 NClECP=     1 NCelD=      1
         NCelK=      1 NCelE2=     1 NClLst=     1 CellRange=     0.0.
 One-electron integrals computed using PRISM.
 PrsmSu:  requested number of processors reduced to:   3 ShMem   1 Linda.
 PrsmSu:  requested number of processors reduced to:  11 ShMem   1 Linda.
 NBasis=   203 RedAO= T EigKep=  4.79D-04  NBF=   203
 NBsUse=   203 1.00D-06 EigRej= -1.00D+00 NBFU=   203
 Precomputing XC quadrature grid using
 IXCGrd= 4 IRadAn=           0 IRanWt=          -1 IRanGd=           0 AccXCQ= 0.00D+00.
 Generated NRdTot=       0 NPtTot=           0 NUsed=           0 NTot=          32
 NSgBfM=   221   221   221   221   221 MxSgAt=    13 MxSgA2=    13.
 Leave Link  302 at Sun Aug 21 17:41:43 2022, MaxMem=    23592960 cpu:         4.4
 (Enter /public/home/users/caep010/software/Gaussian09/g09/l303.exe)
 DipDrv:  MaxL=1.
 Leave Link  303 at Sun Aug 21 17:41:43 2022, MaxMem=    23592960 cpu:         0.7
 (Enter /public/home/users/caep010/software/Gaussian09/g09/l401.exe)
 Initial guess from the checkpoint file:  "G4.Frag_1066.chk"
 B after Tr=     0.000000   -0.000000   -0.000000
         Rot=    0.968162    0.250236    0.006400    0.001641 Ang=  28.99 deg.
 Guess basis will be translated and rotated to current coordinates.
 JPrj=2 DoOrth=T DoCkMO=T.
 Generating alternative initial guess.
 ExpMin= 1.61D-01 ExpMax= 5.48D+03 ExpMxC= 8.25D+02 IAcc=1 IRadAn=         1 AccDes= 0.00D+00
 Harris functional with IExCor=  402 and IRadAn=       1 diagonalized for initial guess.
 HarFok:  IExCor=  402 AccDes= 0.00D+00 IRadAn=         1 IDoV= 1 UseB2=F ITyADJ=14
 ICtDFT=  3500011 ScaDFX=  1.000000  1.000000  1.000000  1.000000
 CalDSu:  requested number of processors reduced to:  20 ShMem   1 Linda.
 FoFCou: FMM=F IPFlag=           0 FMFlag=      100000 FMFlg1=           0
         NFxFlg=           0 DoJE=T BraDBF=F KetDBF=T FulRan=T
         wScrn=  0.000000 ICntrl=     500 IOpCl=  0 I1Cent=   200000004 NGrid=           0
         NMat0=    1 NMatS0=      1 NMatT0=    0 NMatD0=    1 NMtDS0=    0 NMtDT0=    0
 Petite list used in FoFCou.
 CoulSu:  requested number of processors reduced to:  11 ShMem   1 Linda.
 CoulSu:  requested number of processors reduced to:  11 ShMem   1 Linda.
 CoulSu:  requested number of processors reduced to:  12 ShMem   1 Linda.
 CoulSu:  requested number of processors reduced to:  12 ShMem   1 Linda.
 Harris En= -323.758961352771    
 Leave Link  401 at Sun Aug 21 17:41:43 2022, MaxMem=    23592960 cpu:         8.6
 (Enter /public/home/users/caep010/software/Gaussian09/g09/l502.exe)
 Closed shell SCF:
 Using DIIS extrapolation, IDIIS=  1040.
 Integral symmetry usage will be decided dynamically.
 IVT=      173757 IEndB=      173757 NGot=    23592960 MDV=    23484906
 LenX=    23484906 LenY=    23435624
 Requested convergence on RMS density matrix=1.00D-08 within 128 cycles.
 Requested convergence on MAX density matrix=1.00D-06.
 Requested convergence on             energy=1.00D-06.
 No special actions if energy rises.
 Fock matrices will be formed incrementally for  20 cycles.
 Integral accuracy reduced to 1.0D-05 until final iterations.

 Cycle   1  Pass 0  IDiag  1:
 FoFJK:  IHMeth= 1 ICntrl=       0 DoSepK=F KAlg= 0 I1Cent=   0 FoldK=F
 IRaf= 980000000 NMat=   1 IRICut=       1 DoRegI=T DoRafI=F ISym2E= 0.
 FoFCou: FMM=F IPFlag=           0 FMFlag=      100000 FMFlg1=           0
         NFxFlg=           0 DoJE=F BraDBF=F KetDBF=F FulRan=T
         wScrn=  0.000000 ICntrl=       0 IOpCl=  0 I1Cent=           0 NGrid=           0
         NMat0=    1 NMatS0=      1 NMatT0=    0 NMatD0=    1 NMtDS0=    0 NMtDT0=    0
 Symmetry not used in FoFCou.
 CoulSu:  requested number of processors reduced to:  11 ShMem   1 Linda.
 CalDSu:  requested number of processors reduced to:  20 ShMem   1 Linda.
 E= -323.716269612185    
 DIIS: error= 2.37D-03 at cycle   1 NSaved=   1.
 NSaved= 1 IEnMin= 1 EnMin= -323.716269612185     IErMin= 1 ErrMin= 2.37D-03
 ErrMax= 2.37D-03  0.00D+00 EMaxC= 1.00D-01 BMatC= 3.86D-03 BMatP= 3.86D-03
 IDIUse=3 WtCom= 9.76D-01 WtEn= 2.37D-02
 Coeff-Com:  0.100D+01
 Coeff-En:   0.100D+01
 Coeff:      0.100D+01
 Gap=     0.952 Goal=   None    Shift=    0.000
 GapD=    0.952 DampG=2.000 DampE=1.000 DampFc=2.0000 IDamp=-1.
 RMSDP=5.37D-04 MaxDP=1.29D-02              OVMax= 1.76D-02

 Cycle   2  Pass 0  IDiag  1:
 RMSU=  5.37D-04    CP:  9.99D-01
 CoulSu:  requested number of processors reduced to:  11 ShMem   1 Linda.
 CalDSu:  requested number of processors reduced to:  20 ShMem   1 Linda.
 E= -323.720669971447     Delta-E=       -0.004400359261 Rises=F Damp=F
 DIIS: error= 1.09D-03 at cycle   2 NSaved=   2.
 NSaved= 2 IEnMin= 2 EnMin= -323.720669971447     IErMin= 2 ErrMin= 1.09D-03
 ErrMax= 1.09D-03  0.00D+00 EMaxC= 1.00D-01 BMatC= 5.81D-04 BMatP= 3.86D-03
 IDIUse=3 WtCom= 9.89D-01 WtEn= 1.09D-02
 Coeff-Com:  0.150D+00 0.850D+00
 Coeff-En:   0.000D+00 0.100D+01
 Coeff:      0.148D+00 0.852D+00
 Gap=     0.200 Goal=   None    Shift=    0.000
 RMSDP=2.14D-04 MaxDP=1.10D-02 DE=-4.40D-03 OVMax= 1.61D-02

 Cycle   3  Pass 0  IDiag  1:
 RMSU=  2.14D-04    CP:  9.99D-01  9.74D-01
 CoulSu:  requested number of processors reduced to:  11 ShMem   1 Linda.
 CalDSu:  requested number of processors reduced to:  20 ShMem   1 Linda.
 E= -323.720135632584     Delta-E=        0.000534338863 Rises=F Damp=F
 DIIS: error= 1.76D-03 at cycle   3 NSaved=   3.
 NSaved= 3 IEnMin= 2 EnMin= -323.720669971447     IErMin= 2 ErrMin= 1.09D-03
 ErrMax= 1.76D-03  0.00D+00 EMaxC= 1.00D-01 BMatC= 1.32D-03 BMatP= 5.81D-04
 IDIUse=3 WtCom= 1.93D-01 WtEn= 8.07D-01
 Coeff-Com: -0.183D-01 0.613D+00 0.406D+00
 Coeff-En:   0.000D+00 0.651D+00 0.349D+00
 Coeff:     -0.352D-02 0.644D+00 0.360D+00
 Gap=     0.202 Goal=   None    Shift=    0.000
 RMSDP=1.29D-04 MaxDP=7.47D-03 DE= 5.34D-04 OVMax= 1.09D-02

 Cycle   4  Pass 0  IDiag  1:
 RMSU=  4.64D-05    CP:  9.99D-01  1.02D+00  4.50D-01
 CoulSu:  requested number of processors reduced to:  11 ShMem   1 Linda.
 CalDSu:  requested number of processors reduced to:  20 ShMem   1 Linda.
 E= -323.721113425044     Delta-E=       -0.000977792461 Rises=F Damp=F
 DIIS: error= 3.08D-04 at cycle   4 NSaved=   4.
 NSaved= 4 IEnMin= 4 EnMin= -323.721113425044     IErMin= 4 ErrMin= 3.08D-04
 ErrMax= 3.08D-04  0.00D+00 EMaxC= 1.00D-01 BMatC= 2.70D-05 BMatP= 5.81D-04
 IDIUse=3 WtCom= 9.97D-01 WtEn= 3.08D-03
 Coeff-Com: -0.168D-01 0.303D+00 0.177D+00 0.537D+00
 Coeff-En:   0.000D+00 0.000D+00 0.000D+00 0.100D+01
 Coeff:     -0.167D-01 0.302D+00 0.176D+00 0.539D+00
 Gap=     0.203 Goal=   None    Shift=    0.000
 RMSDP=2.85D-05 MaxDP=1.00D-03 DE=-9.78D-04 OVMax= 1.21D-03

 Cycle   5  Pass 0  IDiag  1:
 RMSU=  1.38D-05    CP:  9.99D-01  1.04D+00  4.17D-01  5.20D-01
 CoulSu:  requested number of processors reduced to:  11 ShMem   1 Linda.
 CalDSu:  requested number of processors reduced to:  20 ShMem   1 Linda.
 E= -323.721137212840     Delta-E=       -0.000023787796 Rises=F Damp=F
 DIIS: error= 5.92D-05 at cycle   5 NSaved=   5.
 NSaved= 5 IEnMin= 5 EnMin= -323.721137212840     IErMin= 5 ErrMin= 5.92D-05
 ErrMax= 5.92D-05  0.00D+00 EMaxC= 1.00D-01 BMatC= 1.42D-06 BMatP= 2.70D-05
 IDIUse=1 WtCom= 1.00D+00 WtEn= 0.00D+00
 Coeff-Com: -0.506D-02 0.542D-01 0.301D-01 0.215D+00 0.705D+00
 Coeff:     -0.506D-02 0.542D-01 0.301D-01 0.215D+00 0.705D+00
 Gap=     0.202 Goal=   None    Shift=    0.000
 RMSDP=6.01D-06 MaxDP=2.78D-04 DE=-2.38D-05 OVMax= 2.96D-04

 Initial convergence to 1.0D-05 achieved.  Increase integral accuracy.
 Cycle   6  Pass 1  IDiag  1:
 CoulSu:  requested number of processors reduced to:  11 ShMem   1 Linda.
 CalDSu:  requested number of processors reduced to:  20 ShMem   1 Linda.
 E= -323.721109563330     Delta-E=        0.000027649510 Rises=F Damp=F
 DIIS: error= 1.65D-05 at cycle   1 NSaved=   1.
 NSaved= 1 IEnMin= 1 EnMin= -323.721109563330     IErMin= 1 ErrMin= 1.65D-05
 ErrMax= 1.65D-05  0.00D+00 EMaxC= 1.00D-01 BMatC= 2.04D-07 BMatP= 2.04D-07
 IDIUse=1 WtCom= 1.00D+00 WtEn= 0.00D+00
 Coeff-Com:  0.100D+01
 Coeff:      0.100D+01
 Gap=     0.202 Goal=   None    Shift=    0.000
 RMSDP=6.01D-06 MaxDP=2.78D-04 DE= 2.76D-05 OVMax= 1.33D-04

 Cycle   7  Pass 1  IDiag  1:
 RMSU=  6.97D-06    CP:  1.00D+00
 CoulSu:  requested number of processors reduced to:  11 ShMem   1 Linda.
 CalDSu:  requested number of processors reduced to:  20 ShMem   1 Linda.
 E= -323.721109561607     Delta-E=        0.000000001723 Rises=F Damp=F
 DIIS: error= 2.17D-05 at cycle   2 NSaved=   2.
 NSaved= 2 IEnMin= 1 EnMin= -323.721109563330     IErMin= 1 ErrMin= 1.65D-05
 ErrMax= 2.17D-05  0.00D+00 EMaxC= 1.00D-01 BMatC= 2.10D-07 BMatP= 2.04D-07
 IDIUse=1 WtCom= 1.00D+00 WtEn= 0.00D+00
 Coeff-Com:  0.505D+00 0.495D+00
 Coeff:      0.505D+00 0.495D+00
 Gap=     0.202 Goal=   None    Shift=    0.000
 RMSDP=2.31D-06 MaxDP=1.00D-04 DE= 1.72D-09 OVMax= 1.07D-04

 Cycle   8  Pass 1  IDiag  1:
 RMSU=  2.22D-06    CP:  1.00D+00  9.12D-01
 CoulSu:  requested number of processors reduced to:  11 ShMem   1 Linda.
 CalDSu:  requested number of processors reduced to:  20 ShMem   1 Linda.
 E= -323.721109731408     Delta-E=       -0.000000169801 Rises=F Damp=F
 DIIS: error= 5.50D-06 at cycle   3 NSaved=   3.
 NSaved= 3 IEnMin= 3 EnMin= -323.721109731408     IErMin= 3 ErrMin= 5.50D-06
 ErrMax= 5.50D-06  0.00D+00 EMaxC= 1.00D-01 BMatC= 1.24D-08 BMatP= 2.04D-07
 IDIUse=1 WtCom= 1.00D+00 WtEn= 0.00D+00
 Coeff-Com:  0.174D-01 0.193D+00 0.789D+00
 Coeff:      0.174D-01 0.193D+00 0.789D+00
 Gap=     0.202 Goal=   None    Shift=    0.000
 RMSDP=5.39D-07 MaxDP=1.98D-05 DE=-1.70D-07 OVMax= 3.24D-05

 Cycle   9  Pass 1  IDiag  1:
 RMSU=  3.20D-07    CP:  1.00D+00  9.52D-01  8.51D-01
 CoulSu:  requested number of processors reduced to:  11 ShMem   1 Linda.
 CalDSu:  requested number of processors reduced to:  20 ShMem   1 Linda.
 E= -323.721109739799     Delta-E=       -0.000000008391 Rises=F Damp=F
 DIIS: error= 1.98D-06 at cycle   4 NSaved=   4.
 NSaved= 4 IEnMin= 4 EnMin= -323.721109739799     IErMin= 4 ErrMin= 1.98D-06
 ErrMax= 1.98D-06  0.00D+00 EMaxC= 1.00D-01 BMatC= 2.22D-09 BMatP= 1.24D-08
 IDIUse=1 WtCom= 1.00D+00 WtEn= 0.00D+00
 Coeff-Com: -0.865D-02 0.965D-01 0.471D+00 0.441D+00
 Coeff:     -0.865D-02 0.965D-01 0.471D+00 0.441D+00
 Gap=     0.202 Goal=   None    Shift=    0.000
 RMSDP=2.17D-07 MaxDP=1.14D-05 DE=-8.39D-09 OVMax= 1.68D-05

 Cycle  10  Pass 1  IDiag  1:
 RMSU=  1.16D-07    CP:  1.00D+00  9.54D-01  8.58D-01  4.31D-01
 CoulSu:  requested number of processors reduced to:  11 ShMem   1 Linda.
 CalDSu:  requested number of processors reduced to:  20 ShMem   1 Linda.
 E= -323.721109741392     Delta-E=       -0.000000001593 Rises=F Damp=F
 DIIS: error= 8.94D-07 at cycle   5 NSaved=   5.
 NSaved= 5 IEnMin= 5 EnMin= -323.721109741392     IErMin= 5 ErrMin= 8.94D-07
 ErrMax= 8.94D-07  0.00D+00 EMaxC= 1.00D-01 BMatC= 2.71D-10 BMatP= 2.22D-09
 IDIUse=1 WtCom= 1.00D+00 WtEn= 0.00D+00
 Coeff-Com: -0.797D-02 0.422D-01 0.224D+00 0.289D+00 0.453D+00
 Coeff:     -0.797D-02 0.422D-01 0.224D+00 0.289D+00 0.453D+00
 Gap=     0.202 Goal=   None    Shift=    0.000
 RMSDP=7.58D-08 MaxDP=3.77D-06 DE=-1.59D-09 OVMax= 5.45D-06

 Cycle  11  Pass 1  IDiag  1:
 RMSU=  4.39D-08    CP:  1.00D+00  9.54D-01  8.59D-01  5.08D-01  5.13D-01
 CoulSu:  requested number of processors reduced to:  11 ShMem   1 Linda.
 CalDSu:  requested number of processors reduced to:  20 ShMem   1 Linda.
 E= -323.721109741591     Delta-E=       -0.000000000200 Rises=F Damp=F
 DIIS: error= 1.46D-07 at cycle   6 NSaved=   6.
 NSaved= 6 IEnMin= 6 EnMin= -323.721109741591     IErMin= 6 ErrMin= 1.46D-07
 ErrMax= 1.46D-07  0.00D+00 EMaxC= 1.00D-01 BMatC= 1.08D-11 BMatP= 2.71D-10
 IDIUse=1 WtCom= 1.00D+00 WtEn= 0.00D+00
 Coeff-Com: -0.319D-02 0.119D-01 0.673D-01 0.103D+00 0.225D+00 0.595D+00
 Coeff:     -0.319D-02 0.119D-01 0.673D-01 0.103D+00 0.225D+00 0.595D+00
 Gap=     0.202 Goal=   None    Shift=    0.000
 RMSDP=1.52D-08 MaxDP=5.90D-07 DE=-2.00D-10 OVMax= 7.05D-07

 Cycle  12  Pass 1  IDiag  1:
 RMSU=  1.15D-08    CP:  1.00D+00  9.55D-01  8.60D-01  5.17D-01  5.64D-01
                    CP:  8.39D-01
 CoulSu:  requested number of processors reduced to:  11 ShMem   1 Linda.
 CalDSu:  requested number of processors reduced to:  20 ShMem   1 Linda.
 E= -323.721109741604     Delta-E=       -0.000000000012 Rises=F Damp=F
 DIIS: error= 6.81D-08 at cycle   7 NSaved=   7.
 NSaved= 7 IEnMin= 7 EnMin= -323.721109741604     IErMin= 7 ErrMin= 6.81D-08
 ErrMax= 6.81D-08  0.00D+00 EMaxC= 1.00D-01 BMatC= 1.25D-12 BMatP= 1.08D-11
 IDIUse=1 WtCom= 1.00D+00 WtEn= 0.00D+00
 Coeff-Com: -0.293D-03-0.716D-03-0.186D-02 0.516D-02 0.369D-01 0.284D+00
 Coeff-Com:  0.677D+00
 Coeff:     -0.293D-03-0.716D-03-0.186D-02 0.516D-02 0.369D-01 0.284D+00
 Coeff:      0.677D+00
 Gap=     0.202 Goal=   None    Shift=    0.000
 RMSDP=5.51D-09 MaxDP=2.47D-07 DE=-1.23D-11 OVMax= 2.47D-07

 SCF Done:  E(RB3LYP) =  -323.721109742     A.U. after   12 cycles
            NFock= 12  Conv=0.55D-08     -V/T= 2.0068
 KE= 3.215437680443D+02 PE=-1.259313142839D+03 EE= 3.633404207023D+02
 Leave Link  502 at Sun Aug 21 17:41:51 2022, MaxMem=    23592960 cpu:       133.4
 (Enter /public/home/users/caep010/software/Gaussian09/g09/l701.exe)
 Compute integral first derivatives.
 ... and contract with generalized density number  0.
 PrsmSu:  requested number of processors reduced to:   3 ShMem   1 Linda.
 PrsmSu:  requested number of processors reduced to:   6 ShMem   1 Linda.
 Leave Link  701 at Sun Aug 21 17:41:51 2022, MaxMem=    23592960 cpu:         1.8
 (Enter /public/home/users/caep010/software/Gaussian09/g09/l702.exe)
 L702 exits ... SP integral derivatives will be done elsewhere.
 Leave Link  702 at Sun Aug 21 17:41:51 2022, MaxMem=    23592960 cpu:         0.5
 (Enter /public/home/users/caep010/software/Gaussian09/g09/l703.exe)
 Compute integral first derivatives, UseDBF=F ICtDFT=           0.
 Integral derivatives from FoFJK, PRISM(SPDF).
 Calling FoFJK, ICntrl=      2127 FMM=F ISym2X=0 I1Cent= 0 IOpClX= 0 NMat=1 NMatS=1 NMatT=0.
 FoFJK:  IHMeth= 1 ICntrl=    2127 DoSepK=F KAlg= 0 I1Cent=   0 FoldK=F
 IRaf=         0 NMat=   1 IRICut=       1 DoRegI=T DoRafI=F ISym2E= 0.
 FoFCou: FMM=F IPFlag=           0 FMFlag=      100000 FMFlg1=         800
         NFxFlg=           0 DoJE=F BraDBF=F KetDBF=F FulRan=T
         wScrn=  0.000000 ICntrl=    2127 IOpCl=  0 I1Cent=           0 NGrid=           0
         NMat0=    1 NMatS0=      1 NMatT0=    0 NMatD0=    1 NMtDS0=    0 NMtDT0=    0
 Symmetry not used in FoFCou.
 CoulSu:  requested number of processors reduced to:   6 ShMem   1 Linda.
 CalDSu:  requested number of processors reduced to:  17 ShMem   1 Linda.
 Leave Link  703 at Sun Aug 21 17:41:55 2022, MaxMem=    23592960 cpu:        26.9
 (Enter /public/home/users/caep010/software/Gaussian09/g09/l716.exe)
 Dipole        =-1.22541250D+00-9.90448556D-01-4.06179916D-01
 ***** Axes restored to original set *****
 -------------------------------------------------------------------
 Center     Atomic                   Forces (Hartrees/Bohr)
 Number     Number              X              Y              Z
 -------------------------------------------------------------------
      1        6          -0.001740288   -0.002046804    0.001873081
      2        6           0.007869071    0.003614315   -0.004888127
      3        7          -0.000929050    0.002897947   -0.001193400
      4        8          -0.002771883    0.001970468    0.002982239
      5        6          -0.010967266   -0.014480788    0.010622430
      6        8           0.004702429    0.009061270   -0.005171447
      7        1           0.000145339   -0.000345607    0.000210469
      8        1          -0.000296812   -0.000186537    0.000209602
      9        1           0.000415311   -0.001446027   -0.000318689
     10        1           0.000526443   -0.000455008    0.000387719
     11        1           0.000739068   -0.001598168   -0.001257126
     12        1           0.001453779   -0.000442455    0.000962065
     13        1           0.000853858    0.003457396   -0.004418815
 -------------------------------------------------------------------
 Cartesian Forces:  Max     0.014480788 RMS     0.004408616
 Leave Link  716 at Sun Aug 21 17:41:55 2022, MaxMem=    23592960 cpu:         0.6
 (Enter /public/home/users/caep010/software/Gaussian09/g09/l103.exe)

 GradGradGradGradGradGradGradGradGradGradGradGradGradGradGradGradGradGrad
 Berny optimization.
 Using GEDIIS/GDIIS optimizer.
 FormGI is forming the generalized inverse of G from B-inverse, IUseBI=4.
 Internal  Forces:  Max     0.011319324 RMS     0.002240328
 Search for a local minimum.
 Step number   2 out of a maximum of   65
 All quantities printed in internal units (Hartrees-Bohrs-Radians)
 RMS Force = .22403D-02 SwitMx=.10000D-02 MixMth= 1
 Mixed Optimization -- RFO/linear search
 Update second derivatives using D2CorX and points    1    2
 DE= -6.93D-03 DEPred=-7.06D-03 R= 9.81D-01
 TightC=F SS=  1.41D+00  RLast= 2.69D-01 DXNew= 5.0454D-01 8.0770D-01
 Trust test= 9.81D-01 RLast= 2.69D-01 DXMaxT set to 5.05D-01
 ITU=  1  0
 Use linear search instead of GDIIS.
     Eigenvalues ---    0.00230   0.00614   0.00682   0.00827   0.01591
     Eigenvalues ---    0.04762   0.05303   0.05340   0.05561   0.06322
     Eigenvalues ---    0.09286   0.14911   0.16000   0.16000   0.16000
     Eigenvalues ---    0.16000   0.16000   0.16204   0.17344   0.18169
     Eigenvalues ---    0.21572   0.28220   0.29874   0.32403   0.32468
     Eigenvalues ---    0.32682   0.34701   0.36314   0.40328   0.41395
     Eigenvalues ---    0.44448   0.48818   0.92006
 RFO step:  Lambda=-2.24739143D-03 EMin= 2.30013889D-03
 Quartic linear search produced a step of  0.03793.
 Iteration  1 RMS(Cart)=  0.04894370 RMS(Int)=  0.00568156
 Iteration  2 RMS(Cart)=  0.00464995 RMS(Int)=  0.00322519
 Iteration  3 RMS(Cart)=  0.00003239 RMS(Int)=  0.00322505
 Iteration  4 RMS(Cart)=  0.00000018 RMS(Int)=  0.00322505
 ITry= 1 IFail=0 DXMaxC= 2.04D-01 DCOld= 1.00D+10 DXMaxT= 5.05D-01 DXLimC= 3.00D+00 Rises=F
 Variable       Old X    -DE/DX   Delta X   Delta X   Delta X     New X
                                 (Linear)    (Quad)   (Total)
    R1        2.92381  -0.00462   0.00037  -0.01518  -0.01481   2.90901
    R2        2.06538   0.00007  -0.00129  -0.00561  -0.00690   2.05848
    R3        2.07111  -0.00019  -0.00110  -0.00559  -0.00670   2.06441
    R4        2.07825  -0.00132  -0.00083  -0.00796  -0.00879   2.06946
    R5        2.75556   0.00033  -0.00053  -0.00146  -0.00199   2.75357
    R6        2.66935   0.00378   0.00036   0.01047   0.01083   2.68019
    R7        2.91244   0.00534   0.00214   0.02741   0.02955   2.94200
    R8        1.92285   0.00041  -0.00207  -0.00836  -0.01043   1.91242
    R9        1.91842   0.00129  -0.00228  -0.00702  -0.00930   1.90912
   R10        1.82207  -0.00090  -0.00213  -0.01163  -0.01376   1.80831
   R11        2.28144  -0.01132  -0.00098  -0.01693  -0.01791   2.26353
   R12        2.09429   0.00397   0.00159   0.01889   0.02049   2.11478
    A1        1.91075  -0.00031  -0.00045  -0.00287  -0.00332   1.90743
    A2        1.93754  -0.00010   0.00024   0.00014   0.00038   1.93791
    A3        1.95861  -0.00094   0.00110  -0.00209  -0.00100   1.95761
    A4        1.89533   0.00039  -0.00001   0.00418   0.00417   1.89950
    A5        1.88426   0.00069  -0.00024   0.00382   0.00359   1.88784
    A6        1.87546   0.00034  -0.00067  -0.00283  -0.00351   1.87195
    A7        1.99260   0.00016   0.00277   0.01477   0.01757   2.01017
    A8        1.93019  -0.00041   0.00062  -0.00265  -0.00203   1.92816
    A9        1.92457  -0.00089  -0.00003  -0.01094  -0.01103   1.91354
   A10        1.81499   0.00068  -0.00300  -0.00155  -0.00457   1.81042
   A11        1.88163   0.00054  -0.00065   0.00252   0.00185   1.88348
   A12        1.91601   0.00003   0.00017  -0.00176  -0.00168   1.91433
   A13        1.87886   0.00056  -0.00092   0.00385   0.00286   1.88171
   A14        1.90359   0.00285  -0.00032   0.02106   0.02067   1.92426
   A15        1.85981  -0.00061  -0.00043   0.00375   0.00316   1.86297
   A16        1.88617   0.00268   0.00009   0.01762   0.01772   1.90388
   A17        2.14626   0.00210   0.00181   0.02343   0.01164   2.15789
   A18        2.04118  -0.00418  -0.00249  -0.02758  -0.04373   1.99745
   A19        2.09251   0.00227   0.00056   0.02740   0.01398   2.10649
    D1       -1.04024  -0.00024   0.00102  -0.00231  -0.00131  -1.04155
    D2        0.99921   0.00044  -0.00058   0.00346   0.00290   1.00211
    D3        3.12168  -0.00039   0.00001  -0.00783  -0.00780   3.11388
    D4        1.05205  -0.00002   0.00086   0.00112   0.00196   1.05401
    D5        3.09150   0.00067  -0.00073   0.00689   0.00617   3.09766
    D6       -1.06922  -0.00017  -0.00014  -0.00440  -0.00453  -1.07375
    D7       -3.13208  -0.00029   0.00091  -0.00383  -0.00294  -3.13502
    D8       -1.09263   0.00039  -0.00069   0.00194   0.00126  -1.09137
    D9        1.02984  -0.00044  -0.00010  -0.00935  -0.00943   1.02041
   D10        1.02246   0.00072  -0.00136   0.00743   0.00606   1.02852
   D11       -0.98889  -0.00032  -0.00016  -0.00988  -0.01014  -0.99903
   D12       -1.08247   0.00068  -0.00178   0.00352   0.00184  -1.08063
   D13       -3.09381  -0.00036  -0.00059  -0.01378  -0.01436  -3.10818
   D14       -3.11594   0.00008  -0.00007   0.00517   0.00515  -3.11079
   D15        1.15590  -0.00096   0.00112  -0.01214  -0.01106   1.14484
   D16        1.04924  -0.00088  -0.00075  -0.02874  -0.02949   1.01976
   D17       -3.08755  -0.00050   0.00112  -0.01343  -0.01233  -3.09988
   D18       -1.07827   0.00048  -0.00121  -0.01210  -0.01328  -1.09155
   D19       -3.04512  -0.00066   0.00292  -0.11152  -0.10773   3.13034
   D20        0.00979   0.00195  -0.00026   0.19998   0.19880   0.20860
   D21        1.05217  -0.00065  -0.00006  -0.12455  -0.12371   0.92846
   D22       -2.17610   0.00196  -0.00324   0.18695   0.18282  -1.99328
   D23       -0.91426  -0.00174   0.00378  -0.12318  -0.11848  -1.03274
   D24        2.14066   0.00087   0.00060   0.18832   0.18805   2.32870
         Item               Value     Threshold  Converged?
 Maximum Force            0.011319     0.000450     NO 
 RMS     Force            0.002240     0.000300     NO 
 Maximum Displacement     0.204123     0.001800     NO 
[...]
 Alpha virt. eigenvalues --   13.49855  13.53251  13.60130  13.67488  13.75401
 Alpha virt. eigenvalues --   13.77206  13.87585  13.99158  14.17667  14.24832
 Alpha virt. eigenvalues --   14.26523  14.26934  14.36263  14.36653  14.40147
 Alpha virt. eigenvalues --   14.41609  14.54367  14.58217  14.59879  14.62477
 Alpha virt. eigenvalues --   14.70063  14.73011  14.78900  14.81048  14.90990
 Alpha virt. eigenvalues --   14.97673  15.00354  15.01926  15.03411  15.07093
 Alpha virt. eigenvalues --   15.12474  15.15309  15.17705  15.33476  15.39795
 Alpha virt. eigenvalues --   15.43570  15.49167  15.55233  15.60242  15.72554
 Alpha virt. eigenvalues --   15.77614  15.84843  15.88874  15.93187  15.98477
 Alpha virt. eigenvalues --   16.09966  16.10564  16.20148  16.30480  16.34349
 Alpha virt. eigenvalues --   16.41869  16.52911  16.62773  16.74941  16.81388
 Alpha virt. eigenvalues --   16.97326  17.03491  17.30171  17.33447  17.60192
 Alpha virt. eigenvalues --   17.61274  18.06722  18.31915  18.35298  18.47633
 Alpha virt. eigenvalues --   18.55612  18.59347  18.64136  18.78788  18.83152
 Alpha virt. eigenvalues --   18.85781  18.87952  18.94028  19.09946  19.13199
 Alpha virt. eigenvalues --   19.13605  19.18236  19.28081  19.33287  19.35987
 Alpha virt. eigenvalues --   19.43270  19.47182  19.54265  19.54397  19.55007
 Alpha virt. eigenvalues --   19.58491  19.69046  19.72553  19.73263  19.74574
 Alpha virt. eigenvalues --   19.77530  19.78049  19.91665  19.99850  20.10201
 Alpha virt. eigenvalues --   20.11621  20.34983  20.38977  21.01986  21.17110
 Alpha virt. eigenvalues --   21.28886  22.25626  22.30195  22.37606  22.42859
 Alpha virt. eigenvalues --   22.51160  23.11569  23.25670  23.45630  23.65998
 Alpha virt. eigenvalues --   23.73841  24.05764  24.22215  40.13841  40.33571
 Alpha virt. eigenvalues --   40.98678  50.83573  63.37783  63.90459
          Condensed to atoms (all electrons):
               1          2          3          4          5          6
     1  C    5.137954   0.392229  -0.079606  -0.056271  -0.068218   0.002602
     2  C    0.392229   4.478759   0.271154   0.251696   0.372400  -0.047681
     3  N   -0.079606   0.271154   6.883427  -0.073448  -0.036383   0.000563
     4  O   -0.056271   0.251696  -0.073448   8.242015   0.003869  -0.034851
     5  C   -0.068218   0.372400  -0.036383   0.003869   4.666568   0.493715
     6  O    0.002602  -0.047681   0.000563  -0.034851   0.493715   8.126868
     7  H    0.388536  -0.020536  -0.002775   0.002781   0.008330  -0.000940
     8  H    0.411855  -0.026839  -0.001096   0.004464  -0.005214   0.000724
     9  H    0.410108  -0.032873   0.007473  -0.003370  -0.002119   0.000383
    10  H    0.006050  -0.014426   0.370803  -0.000717  -0.008619  -0.000070
    11  H   -0.009131  -0.016407   0.373387  -0.000201   0.005548  -0.000717
    12  H    0.003504  -0.001241   0.000861   0.284847  -0.022606   0.018853
    13  H    0.009703  -0.065520   0.004108  -0.000074   0.398678  -0.025885
               7          8          9         10         11         12
     1  C    0.388536   0.411855   0.410108   0.006050  -0.009131   0.003504
     2  C   -0.020536  -0.026839  -0.032873  -0.014426  -0.016407  -0.001241
     3  N   -0.002775  -0.001096   0.007473   0.370803   0.373387   0.000861
     4  O    0.002781   0.004464  -0.003370  -0.000717  -0.000201   0.284847
     5  C    0.008330  -0.005214  -0.002119  -0.008619   0.005548  -0.022606
     6  O   -0.000940   0.000724   0.000383  -0.000070  -0.000717   0.018853
     7  H    0.478377  -0.018749  -0.014185  -0.000345   0.002544  -0.000598
     8  H   -0.018749   0.467123  -0.019334  -0.000107   0.000148  -0.000289
     9  H   -0.014185  -0.019334   0.462845  -0.000462   0.000073   0.000350
    10  H   -0.000345  -0.000107  -0.000462   0.368562  -0.022409   0.001145
    11  H    0.002544   0.000148   0.000073  -0.022409   0.373847  -0.000389
    12  H   -0.000598  -0.000289   0.000350   0.001145  -0.000389   0.309737
    13  H   -0.000663  -0.000312   0.000810   0.000652  -0.001090   0.001810
              13
     1  C    0.009703
     2  C   -0.065520
     3  N    0.004108
     4  O   -0.000074
     5  C    0.398678
     6  O   -0.025885
     7  H   -0.000663
     8  H   -0.000312
     9  H    0.000810
    10  H    0.000652
    11  H   -0.001090
    12  H    0.001810
    13  H    0.463934
 Mulliken charges:
               1
     1  C   -0.549317
     2  C    0.459284
     3  N   -0.718468
     4  O   -0.620740
     5  C    0.194052
     6  O   -0.533564
     7  H    0.178223
     8  H    0.187625
     9  H    0.190300
    10  H    0.299942
    11  H    0.294798
    12  H    0.404015
    13  H    0.213850
 Sum of Mulliken charges =  -0.00000
 Mulliken charges with hydrogens summed into heavy atoms:
               1
     1  C    0.006831
     2  C    0.459284
     3  N   -0.123728
     4  O   -0.216724
     5  C    0.407902
     6  O   -0.533564
 Electronic spatial extent (au):  <R**2>=            548.0392
 Charge=             -0.0000 electrons
 Dipole moment (field-independent basis, Debye):
    X=             -1.8439    Y=             -0.2060    Z=             -1.1797  Tot=              2.1986
 Quadrupole moment (field-independent basis, Debye-Ang):
   XX=            -39.5478   YY=            -33.3949   ZZ=            -39.4238
   XY=              0.3289   XZ=              0.0833   YZ=              1.1344
 Traceless Quadrupole moment (field-independent basis, Debye-Ang):
   XX=             -2.0923   YY=              4.0606   ZZ=             -1.9683
   XY=              0.3289   XZ=              0.0833   YZ=              1.1344
 Octapole moment (field-independent basis, Debye-Ang**2):
  XXX=            -20.5743  YYY=              8.8433  ZZZ=              1.4991  XYY=              0.2546
  XXY=              4.5464  XXZ=              4.2969  XZZ=             10.6993  YZZ=             -3.9585
  YYZ=              1.7744  XYZ=             -0.1772
 Hexadecapole moment (field-independent basis, Debye-Ang**3):
 XXXX=           -359.5500 YYYY=           -164.8983 ZZZZ=           -166.1388 XXXY=             -8.0977
 XXXZ=              2.0719 YYYX=             -7.9895 YYYZ=             -1.7048 ZZZX=              1.7870
 ZZZY=              8.0815 XXYY=            -83.5879 XXZZ=            -81.0183 YYZZ=            -61.8957
 XXYZ=              1.4331 YYXZ=             -0.5178 ZZXY=              3.9702
 N-N= 2.524929412487D+02 E-N=-1.262097439249D+03  KE= 3.215921387850D+02
 PrsmSu:  requested number of processors reduced to:   1 ShMem   1 Linda.
 No NMR shielding tensors so no spin-rotation constants.
 Leave Link  601 at Sun Aug 21 23:01:20 2022, MaxMem=    23592960 cpu:        15.1
 (Enter /public/home/users/caep010/software/Gaussian09/g09/l9999.exe)
 1\1\GINC-B1158\SP\RHF\GFHFB2\C3H7N1O2\ROOT\21-Aug-2022\0\\#P Geom=AllC
 heck Guess=TCheck SCRF=Check HF/GFHFB2 SCF=Tight\\Frag_1066\\0,1\C,0,0
 .1232209021,1.3138814414,-0.4595824161\C,0,0.1156303095,-0.0879595676,
 0.1633423748\N,0,1.0203707942,-0.9473422558,-0.5844504972\O,0,0.410727
 3366,-0.0036575248,1.5393039858\C,0,-1.2772457708,-0.7068409789,-0.002
 7567835\O,0,-1.9470517059,-1.0467550373,0.9406965762\H,0,1.1169108689,
 1.7529278863,-0.3250010351\H,0,-0.103060966,1.2764772385,-1.5284431521
 \H,0,-0.6002721537,1.9574372383,0.046086527\H,0,1.1889553326,-1.794920
 97,-0.0494790066\H,0,1.9198366974,-0.4865268941,-0.6884365602\H,0,-0.3
 532046798,-0.38933274,1.9980421776\H,0,-1.6146169652,-0.8376878359,-1.
 0491221906\\Version=ES64L-G09RevE.01\State=1-A\HF=-321.9956046\RMSD=4.
 236e-09\Dipole=0.4268491,0.2489685,-0.709959\Quadrupole=-0.3416623,1.4
 866919,-1.1450296,-1.957482,0.726321,-1.1976589\PG=C01 [X(C3H7N1O2)]\\
 @


 Other things may change us, but we start and end with family.
 -- Anthony Brandt
 Diagonal vibrational polarizability:
        0.0000000       0.0000000       0.0000000

 Temperature=              298.150000 Pressure=                      1.000000
 E(ZPE)=                     0.104498 E(Thermal)=                    0.111601
 E(CCSD(T))=              -322.810478 E(Empiric)=                   -0.125046
 DE(Plus)=                  -0.028230 DE(2DF)=                      -0.265409
 E(Delta-G3XP)=             -0.404087 DE(HF)=                       -0.032409
 G4(0 K)=                 -323.561160 G4 Energy=                  -323.554058
 G4 Enthalpy=             -323.553114 G4 Free Energy=             -323.591558
 1\1\GINC-B1158\Mixed\G4\G4\C3H7N1O2\ROOT\21-Aug-2022\0\\#P Geom=AllChe
 ck Guess=TCheck SCRF=Check HF/GFHFB2 SCF=Tight\\Frag_1066\\0,1\C,0,0.1
 232209021,1.3138814414,-0.4595824161\C,0,0.1156303095,-0.0879595676,0.
 1633423748\N,0,1.0203707942,-0.9473422558,-0.5844504972\O,0,0.41072733
 66,-0.0036575248,1.5393039858\C,0,-1.2772457708,-0.7068409789,-0.00275
 67835\O,0,-1.9470517059,-1.0467550373,0.9406965762\H,0,1.1169108689,1.
 7529278863,-0.3250010351\H,0,-0.103060966,1.2764772385,-1.5284431521\H
 ,0,-0.6002721537,1.9574372383,0.046086527\H,0,1.1889553326,-1.79492097
 ,-0.0494790066\H,0,1.9198366974,-0.4865268941,-0.6884365602\H,0,-0.353
 2046798,-0.38933274,1.9980421776\H,0,-1.6146169652,-0.8376878359,-1.04
 91221906\\Version=ES64L-G09RevE.01\State=1-A\MP2/GTBas1=-322.7412463\M
 P4/GTBas1=-322.8131919\CCSD(T)/G3Bas1=-322.8104784\MP2/GTBas2=-322.767
 7399\MP4/GTBas2=-322.8414215\MP2/GTBas3=-322.9910857\MP4/GTBas3=-323.0
 786005\HF/GTLargeXP=-321.9645368\MP2/GTLargeXP=-323.421666\HF/GFHFB1=-
 321.9900999\HF/GFHFB2=-321.9956046\G4=-323.5611603\FreqCoord=0.2328537
 588,2.4828760953,-0.8684849018,0.2185096175,-0.1662194935,0.3086723542
 ,1.928221355,-1.7902174177,-1.1044513779,0.7761621814,-0.0069117202,2.
 9088629684,-2.4136447112,-1.3357358697,-0.0052095658,-3.6793944906,-1.
 9780803488,1.7776589032,2.1106556571,3.3125536357,-0.6141629492,-0.194
 7570006,2.4121923956,-2.8883389672,-1.1343499756,3.6990203028,0.087090
 9144,2.2467999629,-3.3919090634,-0.0935017718,3.6279655779,-0.91940258
 62,-1.3009565587,-0.6674601136,-0.7357322531,3.7757525176,-3.051183873
 7,-1.5830005947,-1.9825536201\PG=C01 [X(C3H7N1O2)]\NImag=0\\0.57178551
 ,-0.00921090,0.47615171,-0.00316164,0.05155244,0.56621435,-0.07754207,
 0.00593720,-0.00346490,0.50971630,-0.02249491,-0.15846698,0.02647735,0
 .01340354,0.46841708,0.00405724,0.03285294,-0.07887898,-0.01563993,-0.
 02703550,0.48729163,-0.00250612,0.00410758,0.00221884,-0.13883668,0.06
 107313,0.06477143,0.56907198,0.03327458,-0.03434366,-0.01331832,0.0214
 5110,-0.12574340,-0.02478251,0.02700048,0.58690345,-0.00694912,0.00754
 000,0.00797920,0.01862968,-0.00937750,-0.08503468,-0.08769600,-0.15933
 030,0.28036398,0.00478856,-0.00026286,0.00107124,-0.10470990,-0.012935
 54,-0.00657478,0.01068843,0.00554483,0.02969869,0.41781217,0.00931422,
 0.00324166,0.03145803,-0.01256440,-0.07198446,0.00682614,0.00154131,0.
 00470973,-0.02362904,0.17760047,0.13763617,-0.00822717,0.00420054,-0.0
 3776220,-0.05620975,-0.00624243,-0.18973901,0.00828790,-0.02024463,-0.
 04679444,-0.10815053,-0.06822624,0.42768735,0.00581387,-0.01172194,0.0
 0923407,-0.13608551,-0.01801460,-0.03854976,-0.03566947,-0.00175134,0.
 00999448,-0.01849057,-0.01121150,-0.01276092,0.57948331,-0.02845525,-0
 .01951959,0.00186267,-0.03666942,-0.09258753,-0.01181414,0.02405688,0.
 00897484,-0.00372891,-0.00540970,-0.00024704,-0.00327837,0.17272018,0.
 29699088,0.01284930,0.00823874,0.00250554,-0.02947240,-0.00492517,-0.0
 7536179,0.02223077,0.00065557,-0.00446237,-0.03313464,-0.01254757,-0.0
 3758940,-0.17596124,-0.10233118,0.88835900,-0.00787141,0.00168735,-0.0
 0302372,-0.02527223,-0.02852225,0.03109789,-0.00188413,-0.00031183,0.0
 0201399,-0.00345597,-0.00259102,0.00888714,-0.30621102,-0.12148421,0.2
 8840419,0.32933260,0.00215212,0.00097353,0.00001768,-0.01895054,0.0129
 3529,0.01488881,-0.00723697,-0.00305876,0.00311421,-0.00249335,0.00025
 855,0.00321087,-0.12210589,-0.12495865,0.14736291,0.15150816,0.0994008
 0,0.00237239,-0.00345011,0.00210693,0.01621434,0.01020027,-0.01149606,
 -0.00015108,0.00259216,0.00277593,-0.00988006,-0.00525171,0.00990895,0
 .29566986,0.15182454,-0.52633522,-0.33858267,-0.17353314,0.56309559,-0
 .26574498,-0.09489173,-0.03106323,-0.00225187,0.00036511,-0.00049779,0
 .00196377,0.00065796,-0.00046734,0.00102166,0.00029942,0.00081513,0.00
 044831,0.00040581,0.00091005,0.00042950,-0.00017775,-0.00024633,0.2871
 7242,-0.09450598,-0.08394061,-0.01407632,-0.03201595,-0.02003098,-0.00
 361668,-0.00082966,0.00319186,0.00037290,0.00213546,0.00240301,-0.0019
 4243,0.00531551,-0.00402280,0.00299683,-0.00284215,0.00030277,0.001147
 56,0.10438585,0.09443276,-0.03151249,-0.01491414,-0.04852724,0.0140226
 7,0.00976850,0.00069752,-0.00016400,-0.00169737,-0.00013633,-0.0005197
 3,-0.00125611,0.00132496,-0.00282103,0.00122666,-0.00138988,0.00143230
 ,0.00010618,-0.00050000,0.03396269,0.01364363,0.04880172,-0.05888109,-
 0.00225656,-0.05386974,-0.00209351,0.00001826,0.00091976,0.00011695,0.
 00042211,0.00053032,0.00181678,-0.00077910,0.00037313,-0.00008660,0.00
 017250,0.00112172,0.00035523,-0.00008447,-0.00051323,-0.00484088,-0.00
 008223,-0.02915477,0.05917576,-0.00215875,-0.04971036,-0.01283059,0.00
 665510,0.00639952,0.02630056,-0.00023269,0.00028634,-0.00110701,-0.001
 15843,-0.00496744,0.00620339,0.00009675,0.00092094,0.00093142,0.000176
 72,-0.00018175,-0.00076794,-0.00142497,-0.00095174,-0.01244838,0.00323
 471,0.04951647,-0.05439737,-0.00957102,-0.30144950,-0.00147762,-0.0037
 2096,-0.01210715,0.00023390,-0.00127555,0.00160149,0.00051656,0.003552
 48,-0.00173235,-0.00116807,-0.00077580,-0.00111784,0.00053380,0.000227
 71,0.00065517,0.00021310,-0.00011349,-0.00260105,0.05966018,0.01069660
 ,0.32843689,-0.16632241,0.10510553,0.08440782,-0.00021470,-0.00179414,
 -0.00027510,0.00062592,-0.00054951,-0.00015811,0.00039581,-0.00081996,
 -0.00102475,0.00009667,-0.00027551,-0.00030856,0.00041552,0.00024136,-
 0.00035642,-0.01866190,0.01770377,0.01408826,0.00516731,-0.00574667,-0
 .00367877,0.17706585,0.10348816,-0.13701559,-0.07097833,0.01938376,-0.
 01597877,-0.01686022,-0.00037196,-0.00689723,0.00363301,-0.00174714,0.
 00270726,-0.00061319,0.00216355,0.00037807,-0.00147520,-0.00079436,0.0
 0001119,0.00082691,-0.00876907,0.00793211,0.00650878,-0.00071634,-0.00
 042689,0.00016652,-0.11378466,0.15100817,0.08547394,-0.07449746,-0.106
 94063,-0.01021047,0.00699813,0.00477809,-0.00014623,0.00275766,-0.0004
 4698,0.00012638,-0.00045131,0.00108766,0.00014717,-0.00046299,0.000392
 31,-0.00025342,-0.00009753,0.00004610,-0.00354754,0.00298619,0.0014996
 4,0.02149281,-0.01758397,-0.01195002,-0.09289547,0.07941269,0.11104303
 ,-0.00326181,0.00195368,0.00271318,-0.00474645,0.01932334,-0.01854043,
 -0.06779966,0.06605974,-0.01936264,0.00085737,-0.00242667,0.00045200,0
 .00106099,0.00323133,-0.00147686,-0.00045827,-0.00131820,0.00090941,0.
 00028695,0.00020505,0.00014115,-0.00008682,-0.00033107,0.00017048,0.00
 073253,0.00153869,-0.00033607,0.06842362,0.00436009,-0.00172347,-0.003
 19470,0.00768911,-0.02395684,0.01332851,0.04260413,-0.29071581,0.15669
 400,-0.00335622,0.00407023,0.00213018,-0.00034583,0.00039952,0.0002552
 6,0.00008643,-0.00019109,-0.00059812,-0.00008401,0.00056221,-0.0000508
 9,-0.00013018,0.00030998,0.00013538,0.00007758,-0.00100778,0.00071812,
 -0.05624374,0.32753253,0.00239683,-0.00202860,-0.00152857,0.00648226,-
 0.02546644,0.00544021,-0.01769501,0.20606062,-0.13935495,-0.00210376,0
 .00199318,0.00227715,-0.00070830,0.00058438,0.00053947,-0.00026849,-0.
 00002739,-0.00047835,0.00003363,0.00010094,-0.00013536,0.00015322,-0.0
 0010006,0.00031418,0.00030334,-0.00092245,0.00086174,0.01606425,-0.181
 07513,0.13756348,0.00225874,-0.00102641,-0.00061481,-0.02814923,-0.011
 10862,-0.00198620,-0.33778004,-0.15035225,0.05534515,0.00256060,-0.000
 36570,-0.00073344,-0.00016383,0.00557887,0.00407045,-0.00127910,-0.001
 85158,0.00060000,0.00035263,0.00135061,-0.00029570,-0.00025048,0.00029
 852,-0.00015022,0.00064950,-0.00050046,0.00011745,0.00517072,0.0050230
 0,-0.00542567,0.35678546,0.00209393,0.00252790,0.00001406,0.02601958,0
 .00904600,-0.00444517,-0.14967789,-0.13925841,0.03139928,-0.00061539,-
 0.00044427,0.00010690,0.00103695,-0.00423276,-0.00204494,0.00126910,0.
 00208817,-0.00080512,-0.00099515,-0.00064277,-0.00051433,0.00006758,-0
 .00001168,0.00013174,-0.00051412,-0.00010833,0.00008792,-0.03262888,-0
 .01540809,0.00103897,0.15375482,0.14609573,-0.00108460,0.00072423,0.00
 023406,0.02427407,0.00594049,-0.00774553,0.00923353,0.00891980,-0.0141
 1433,-0.00077292,-0.00063675,0.00062177,-0.00022758,-0.00085940,-0.000
 20989,-0.00027243,-0.00098606,0.00030693,-0.00004527,-0.00057229,0.000
 54271,-0.00058525,0.00015088,-0.00041857,-0.00006442,0.00013353,-0.000
 46712,0.01903385,0.01173552,-0.00560396,-0.05010248,-0.02524276,0.0271
 9171,-0.00200334,0.00031255,-0.00405667,0.00965715,0.00664610,0.004767
 43,-0.00092802,-0.00172348,-0.00157811,-0.30833072,-0.15591103,0.17173
 945,0.00297304,0.00079255,-0.01304354,-0.00061454,0.00172013,0.0060660
 1,-0.00015928,-0.00049062,0.00022835,-0.00015565,0.00132709,-0.0011263
 3,0.00006275,0.00016587,0.00003337,0.00006343,0.00039510,0.00097894,-0
 .00054876,0.00020535,-0.00007087,0.30067979,-0.00072946,0.00012667,0.0
 0317676,0.00444149,-0.00083538,0.00605318,0.00024109,-0.00339869,-0.00
 723059,-0.15418166,-0.07687558,0.08670403,0.00026974,0.00316017,-0.005
 65263,0.00209767,-0.00459908,0.00223432,0.00008058,0.00006852,-0.00018
 034,0.00039529,-0.00076043,0.00027196,0.00027890,-0.00027953,0.0000950
 9,0.00045866,0.00034666,-0.00015777,-0.00015777,-0.00013673,0.00039217
 ,0.14774744,0.08270433,-0.00129632,-0.00060369,-0.00374372,0.03292404,
 0.01698181,-0.03203927,-0.00103154,-0.00133835,-0.00409772,0.13157367,
 0.06934387,-0.13112829,0.00115757,0.00057718,-0.00794422,0.00243737,0.
 00062237,0.00347063,-0.00000203,-0.00043800,0.00017138,-0.00003103,0.0
 0083889,-0.00019329,-0.00001634,0.00022057,0.00011187,0.00027859,0.000
 07439,0.00025374,-0.00032722,0.00000687,-0.00034257,-0.16642307,-0.086
 85235,0.17484813,-0.00051345,0.00026651,-0.00039043,0.00052870,-0.0059
 5942,-0.02354978,0.00293706,0.00027761,-0.00000100,-0.00495421,-0.0020
 8606,-0.00344819,-0.09316920,-0.01466404,-0.07618922,0.01651382,-0.001
 40303,0.02789778,-0.00001632,-0.00032967,0.00059229,-0.00023700,-0.000
 73631,0.00067035,-0.00001285,-0.00005603,-0.00000190,-0.00024260,-0.00
 007546,-0.00021123,0.00039378,-0.00001586,0.00068435,-0.00069588,-0.00
 094198,0.00075630,0.07946814,0.00287214,0.00169878,-0.00016074,-0.0047
 8057,0.01278645,-0.01169591,-0.00227542,-0.00065026,0.00164994,-0.0031
 2049,-0.00050781,-0.00200860,-0.01645159,-0.06525606,-0.03146404,-0.00
 027960,0.01701903,0.01558038,0.00014796,0.00069565,-0.00019221,-0.0002
 6157,-0.00042296,0.00027442,0.00007744,-0.00032268,0.00003747,0.000178
 06,-0.00021805,-0.00000024,-0.00064303,0.00048523,0.00030064,-0.001187
 06,0.00047907,0.00056643,0.02572373,0.03421360,-0.00052098,-0.00004387
 ,-0.00020925,0.00392801,0.00040142,-0.00580496,-0.00009252,0.00100122,
 0.00172119,-0.00185012,-0.00117498,0.00183784,-0.08400625,-0.03282465,
 -0.23738570,0.00759405,0.00509338,-0.04355661,-0.00006507,-0.00048883,
 0.00025194,-0.00009714,-0.00028377,0.00056204,-0.00002147,-0.00005263,
 -0.00001567,-0.00004691,-0.00015252,-0.00014877,-0.00049731,0.00026658
 ,0.00000478,0.00248505,0.00114616,0.00063335,0.07319066,0.02711247,0.2
 8210983\\-0.00000468,-0.00001111,0.00001349,-0.00000576,-0.00000348,-0
 .00004040,-0.00000154,-0.00000006,0.00001040,0.00001245,0.00002513,0.0
 0000845,0.00002397,0.00000880,-0.00000132,-0.00000639,-0.00000971,0.00
 001852,0.00000196,-0.00000166,-0.00000871,0.00000061,-0.00000168,0.000
 00229,-0.00000567,0.00000237,0.00000239,0.00000797,0.00000104,-0.00000
 559,-0.00000552,-0.00000225,-0.00000154,-0.00001024,-0.00000191,0.0000
 0198,-0.00000717,-0.00000547,0.00000003\\\@
 Job cpu time:       0 days  2 hours 41 minutes 38.4 seconds.
 File lengths (MBytes):  RWF=  11378 Int=      0 D2E=      0 Chk=     33 Scr=      1
 Normal termination of Gaussian 09 at Sun Aug 21 23:01:20 2022.
