 Entering Gaussian System, Link 0=g09
 Input=G4.Frag_1093.gjf
 Output=G4.Frag_1093.log
 Initial command:
 /public/home/users/caep010/software/Gaussian09/g09/l1.exe "/public/home/users/caep010/.cache/gau_scr/Gau-44210.inp" -scrdir="/public/home/users/caep010/.cache/gau_scr/"
 Entering Link 1 = /public/home/users/caep010/software/Gaussian09/g09/l1.exe PID=     44211.
  
 Copyright (c) 1988,1990,1992,1993,1995,1998,2003,2009,2015,
            Gaussian, Inc.  All Rights Reserved.
  
 This is part of the Gaussian(R) 09 program.  It is based on
 the Gaussian(R) 03 system (copyright 2003, Gaussian, Inc.),
 the Gaussian(R) 98 system (copyright 1998, Gaussian, Inc.),
 the Gaussian(R) 94 system (copyright 1995, Gaussian, Inc.),
 the Gaussian 92(TM) system (copyright 1992, Gaussian, Inc.),
 the Gaussian 90(TM) system (copyright 1990, Gaussian, Inc.),
 the Gaussian 88(TM) system (copyright 1988, Gaussian, Inc.),
 the Gaussian 86(TM) system (copyright 1986, Carnegie Mellon
 University), and the Gaussian 82(TM) system (copyright 1983,
 Carnegie Mellon University). Gaussian is a federally registered
 trademark of Gaussian, Inc.
  
 This software contains proprietary and confidential information,
 including trade secrets, belonging to Gaussian, Inc.
  
 This software is provided under written license and may be
 used, copied, transmitted, or stored only in accord with that
 written license.
  
 The following legend is applicable only to US Government
 contracts under FAR:
  
                    RESTRICTED RIGHTS LEGEND
  
 Use, reproduction and disclosure by the US Government is
 subject to restrictions as set forth in subparagraphs (a)
 and (c) of the Commercial Computer Software - Restricted
 Rights clause in FAR 52.227-19.
  
 Gaussian, Inc.
 340 Quinnipiac St., Bldg. 40, Wallingford CT 06492
  
  
 ---------------------------------------------------------------
 Warning -- This program may not be used in any manner that
 competes with the business of Gaussian, Inc. or will provide
 assistance to any competitor of Gaussian, Inc.  The licensee
 of this program is prohibited from giving any competitor of
 Gaussian, Inc. access to this program.  By using this program,
 the user acknowledges that Gaussian, Inc. is engaged in the
 business of creating and licensing software in the field of
 computational chemistry and represents and warrants to the
 licensee that it is not a competitor of Gaussian, Inc. and that
 it will not use this program in any manner prohibited above.
 ---------------------------------------------------------------
  

 Cite this work as:
 Gaussian 09, Revision E.01,
 M. J. Frisch, G. W. Trucks, H. B. Schlegel, G. E. Scuseria, 
 M. A. Robb, J. R. Cheeseman, G. Scalmani, V. Barone, B. Mennucci, 
 G. A. Petersson, H. Nakatsuji, M. Caricato, X. Li, H. P. Hratchian, 
 A. F. Izmaylov, J. Bloino, G. Zheng, J. L. Sonnenberg, M. Hada, 
 M. Ehara, K. Toyota, R. Fukuda, J. Hasegawa, M. Ishida, T. Nakajima, 
 Y. Honda, O. Kitao, H. Nakai, T. Vreven, J. A. Montgomery, Jr., 
 J. E. Peralta, F. Ogliaro, M. Bearpark, J. J. Heyd, E. Brothers, 
 K. N. Kudin, V. N. Staroverov, T. Keith, R. Kobayashi, J. Normand, 
 K. Raghavachari, A. Rendell, J. C. Burant, S. S. Iyengar, J. Tomasi, 
 M. Cossi, N. Rega, J. M. Millam, M. Klene, J. E. Knox, J. B. Cross, 
 V. Bakken, C. Adamo, J. Jaramillo, R. Gomperts, R. E. Stratmann, 
 O. Yazyev, A. J. Austin, R. Cammi, C. Pomelli, J. W. Ochterski, 
 R. L. Martin, K. Morokuma, V. G. Zakrzewski, G. A. Voth, 
 P. Salvador, J. J. Dannenberg, S. Dapprich, A. D. Daniels, 
 O. Farkas, J. B. Foresman, J. V. Ortiz, J. Cioslowski, 
 and D. J. Fox, Gaussian, Inc., Wallingford CT, 2013.
 
 ******************************************
 Gaussian 09:  ES64L-G09RevE.01 30-Nov-2015
                30-Aug-2022 
 ******************************************
 %nproc=32
 Will use up to   32 processors via shared memory.
 %mem=180MB
 %chk=G4.Frag_1093.chk
 -----
 #P G4
 -----
 1/14=-1,18=20,19=15,26=3,38=1/1,3;
 2/9=110,12=2,17=6,18=5,40=1/2;
 3/5=35,7=104,11=2,16=1,25=1,30=1,71=1,74=-5/1,2,3;
 4//1;
 5/5=2,38=5/2;
 6/7=2,8=2,9=2,10=2,28=1/1;
 7//1,2,3,16;
 1/14=-1,18=20,19=15,26=3/3(2);
 2/9=110/2;
 99//99;
 2/9=110/2;
 3/5=35,7=104,11=2,16=1,25=1,30=1,71=1,74=-5/1,2,3;
 4/5=5,16=3,69=1/1;
 5/5=2,38=5/2;
 7//1,2,3,16;
 1/14=-1,18=20,19=15,26=3/3(-5);
 2/9=110/2;
 6/7=2,8=2,9=2,10=2,19=2,28=1/1;
 99/9=1/99;
 Leave Link    1 at Tue Aug 30 09:23:41 2022, MaxMem=    23592960 cpu:         1.9
 (Enter /public/home/users/caep010/software/Gaussian09/g09/l101.exe)
 ---------
 Frag_1093
 ---------
 Symbolic Z-matrix:
 Charge =  0 Multiplicity = 1
 C                    -1.05807  -0.72783  -0.05066 
 C                    -0.1365    0.43644   0.21426 
 O                    -0.65374   1.58663   0.7239 
 C                     1.1622    0.40603  -0.07203 
 O                     1.7173   -0.72656  -0.67812 
 H                    -0.8758   -0.97101  -1.23694 
 H                    -2.08288  -0.49932   0.50234 
 H                    -0.94386  -1.64468   0.3707 
 H                    -1.59161   1.45242   1.05231 
 H                     1.81072   1.25485   0.1103 
 H                     2.65214  -0.56698  -0.58106 
 
 NAtoms=     11 NQM=       11 NQMF=       0 NMMI=      0 NMMIF=      0
                NMic=       0 NMicF=      0.
                    Isotopes and Nuclear Properties:
 (Nuclear quadrupole moments (NQMom) in fm**2, nuclear magnetic moments (NMagM)
  in nuclear magnetons)

  Atom         1           2           3           4           5           6           7           8           9          10
 IAtWgt=          12          12          16          12          16           1           1           1           1           1
 AtmWgt=  12.0000000  12.0000000  15.9949146  12.0000000  15.9949146   1.0078250   1.0078250   1.0078250   1.0078250   1.0078250
 NucSpn=           0           0           0           0           0           1           1           1           1           1
 AtZEff=   0.0000000   0.0000000   0.0000000   0.0000000   0.0000000   0.0000000   0.0000000   0.0000000   0.0000000   0.0000000
 NQMom=    0.0000000   0.0000000   0.0000000   0.0000000   0.0000000   0.0000000   0.0000000   0.0000000   0.0000000   0.0000000
 NMagM=    0.0000000   0.0000000   0.0000000   0.0000000   0.0000000   2.7928460   2.7928460   2.7928460   2.7928460   2.7928460
 AtZNuc=   6.0000000   6.0000000   8.0000000   6.0000000   8.0000000   1.0000000   1.0000000   1.0000000   1.0000000   1.0000000

  Atom        11
 IAtWgt=           1
 AtmWgt=   1.0078250
 NucSpn=           1
 AtZEff=   0.0000000
 NQMom=    0.0000000
 NMagM=    2.7928460
 AtZNuc=   1.0000000
 Leave Link  101 at Tue Aug 30 09:23:41 2022, MaxMem=    23592960 cpu:         3.7
 (Enter /public/home/users/caep010/software/Gaussian09/g09/l103.exe)

 GradGradGradGradGradGradGradGradGradGradGradGradGradGradGradGradGradGrad
 Berny optimization.
 Initialization pass.
                           ----------------------------
                           !    Initial Parameters    !
                           ! (Angstroms and Degrees)  !
 --------------------------                            --------------------------
 ! Name  Definition              Value          Derivative Info.                !
 --------------------------------------------------------------------------------
 ! R1    R(1,2)                  1.5083         estimate D2E/DX2                !
 ! R2    R(1,6)                  1.2246         estimate D2E/DX2                !
 ! R3    R(1,7)                  1.1867         estimate D2E/DX2                !
 ! R4    R(1,8)                  1.0155         estimate D2E/DX2                !
 ! R5    R(2,3)                  1.3602         estimate D2E/DX2                !
 ! R6    R(2,4)                  1.3302         estimate D2E/DX2                !
 ! R7    R(3,9)                  1.0027         estimate D2E/DX2                !
 ! R8    R(4,5)                  1.3994         estimate D2E/DX2                !
 ! R9    R(4,10)                 1.0837         estimate D2E/DX2                !
 ! R10   R(5,11)                 0.9533         estimate D2E/DX2                !
 ! A1    A(2,1,6)              103.4432         estimate D2E/DX2                !
 ! A2    A(2,1,7)              107.287          estimate D2E/DX2                !
 ! A3    A(2,1,8)              123.734          estimate D2E/DX2                !
 ! A4    A(6,1,7)              128.1845         estimate D2E/DX2                !
 ! A5    A(6,1,8)              101.8833         estimate D2E/DX2                !
 ! A6    A(7,1,8)               94.4524         estimate D2E/DX2                !
 ! A7    A(1,2,3)              119.09           estimate D2E/DX2                !
 ! A8    A(1,2,4)              122.7565         estimate D2E/DX2                !
 ! A9    A(3,2,4)              118.1131         estimate D2E/DX2                !
 ! A10   A(2,3,9)              111.4194         estimate D2E/DX2                !
 ! A11   A(2,4,5)              119.9334         estimate D2E/DX2                !
 ! A12   A(2,4,10)             122.0161         estimate D2E/DX2                !
 ! A13   A(5,4,10)             117.9975         estimate D2E/DX2                !
 ! A14   A(4,5,11)             102.0882         estimate D2E/DX2                !
 ! D1    D(6,1,2,3)            123.9327         estimate D2E/DX2                !
 ! D2    D(6,1,2,4)            -53.7086         estimate D2E/DX2                !
 ! D3    D(7,1,2,3)            -13.8047         estimate D2E/DX2                !
 ! D4    D(7,1,2,4)            168.554          estimate D2E/DX2                !
 ! D5    D(8,1,2,3)           -121.5981         estimate D2E/DX2                !
 ! D6    D(8,1,2,4)             60.7606         estimate D2E/DX2                !
 ! D7    D(1,2,3,9)             12.3021         estimate D2E/DX2                !
 ! D8    D(4,2,3,9)           -169.9468         estimate D2E/DX2                !
 ! D9    D(1,2,4,5)              1.8034         estimate D2E/DX2                !
 ! D10   D(1,2,4,10)           179.1036         estimate D2E/DX2                !
 ! D11   D(3,2,4,5)           -175.8597         estimate D2E/DX2                !
 ! D12   D(3,2,4,10)             1.4405         estimate D2E/DX2                !
 ! D13   D(2,4,5,11)          -167.4491         estimate D2E/DX2                !
 ! D14   D(10,4,5,11)           15.1434         estimate D2E/DX2                !
 --------------------------------------------------------------------------------
 Trust Radius=3.00D-01 FncErr=1.00D-07 GrdErr=1.00D-06
 Number of steps in this run=     48 maximum allowed number of steps=    100.
 GradGradGradGradGradGradGradGradGradGradGradGradGradGradGradGradGradGrad

 Leave Link  103 at Tue Aug 30 09:23:41 2022, MaxMem=    23592960 cpu:         0.5
 (Enter /public/home/users/caep010/software/Gaussian09/g09/l202.exe)
                          Input orientation:                          
 ---------------------------------------------------------------------
 Center     Atomic      Atomic             Coordinates (Angstroms)
 Number     Number       Type             X           Y           Z
 ---------------------------------------------------------------------
      1          6           0       -1.058073   -0.727833   -0.050655
      2          6           0       -0.136498    0.436440    0.214261
      3          8           0       -0.653738    1.586634    0.723900
      4          6           0        1.162196    0.406032   -0.072026
      5          8           0        1.717298   -0.726555   -0.678124
      6          1           0       -0.875798   -0.971009   -1.236936
      7          1           0       -2.082879   -0.499319    0.502340
      8          1           0       -0.943864   -1.644681    0.370697
      9          1           0       -1.591608    1.452420    1.052305
     10          1           0        1.810721    1.254853    0.110296
     11          1           0        2.652143   -0.566983   -0.581058
 ---------------------------------------------------------------------
                    Distance matrix (angstroms):
                    1          2          3          4          5
     1  C    0.000000
     2  C    1.508314   0.000000
     3  O    2.473900   1.360226   0.000000
     4  C    2.493131   1.330222   2.307582   0.000000
     5  O    2.845418   2.363359   3.596989   1.399374   0.000000
     6  H    1.224590   2.152545   3.230437   2.721521   2.663865
     7  H    1.186697   2.178769   2.538254   3.417612   3.985784
     8  H    1.015476   2.237717   3.263483   2.972695   3.004125
     9  H    2.500937   1.962620   1.002728   3.153171   4.323329
    10  H    3.490978   2.114774   2.561278   1.083662   2.134552
    11  H    3.751387   3.068535   4.155699   1.850895   0.953321
                    6          7          8          9         10
     6  H    0.000000
     7  H    2.169013   0.000000
     8  H    1.744406   1.620660   0.000000
     9  H    3.409694   2.086407   3.236695   0.000000
    10  H    3.739904   4.288466   4.007848   3.535853   0.000000
    11  H    3.611064   4.857856   3.872794   4.975468   2.122510
                   11
    11  H    0.000000
 Stoichiometry    C3H6O2
 Framework group  C1[X(C3H6O2)]
 Deg. of freedom    27
 Full point group                 C1      NOp   1
 Largest Abelian subgroup         C1      NOp   1
 Largest concise Abelian subgroup C1      NOp   1
                         Standard orientation:                         
 ---------------------------------------------------------------------
 Center     Atomic      Atomic             Coordinates (Angstroms)
 Number     Number       Type             X           Y           Z
 ---------------------------------------------------------------------
      1          6           0       -0.652990    1.383691    0.008714
      2          6           0       -0.444563   -0.110053   -0.008587
      3          8           0       -1.529060   -0.929696    0.039007
      4          6           0        0.762824   -0.668181   -0.022744
      5          8           0        1.905548    0.138609    0.016219
      6          1           0        0.012393    1.752892    0.968181
      7          1           0       -1.803128    1.581774   -0.206220
      8          1           0       -0.327401    2.007039   -0.723830
      9          1           0       -2.379268   -0.421528   -0.117116
     10          1           0        0.898835   -1.743272   -0.020726
     11          1           0        2.595045   -0.480954   -0.206394
 ---------------------------------------------------------------------
 Rotational constants (GHZ):      8.8845938      3.9291032      2.7723431
 Leave Link  202 at Tue Aug 30 09:23:41 2022, MaxMem=    23592960 cpu:         1.6
 (Enter /public/home/users/caep010/software/Gaussian09/g09/l301.exe)
 Standard basis: GTBas3 (6D, 7F)
 Ernie: Thresh=  0.10000D-02 Tol=  0.10000D-05 Strict=F.
 There are   185 symmetry adapted cartesian basis functions of A   symmetry.
 There are   170 symmetry adapted basis functions of A   symmetry.
   170 basis functions,   262 primitive gaussians,   185 cartesian basis functions
    20 alpha electrons       20 beta electrons
       nuclear repulsion energy       175.8971460220 Hartrees.
 IExCor=  402 DFT=T Ex+Corr=B3LYP ExCW=0 ScaHFX=  0.200000
 ScaDFX=  0.800000  0.720000  1.000000  0.810000 ScalE2=  1.000000  1.000000
 IRadAn=      0 IRanWt=     -1 IRanGd=            0 ICorTp=0 IEmpDi=  4
 NAtoms=   11 NActive=   11 NUniq=   11 SFac= 1.00D+00 NAtFMM=   60 NAOKFM=F Big=F
 Integral buffers will be    131072 words long.
 Raffenetti 2 integral format.
 Two-electron integral symmetry is turned on.
 Leave Link  301 at Tue Aug 30 09:23:42 2022, MaxMem=    23592960 cpu:         3.9
 (Enter /public/home/users/caep010/software/Gaussian09/g09/l302.exe)
 NPDir=0 NMtPBC=     1 NCelOv=     1 NCel=       1 NClECP=     1 NCelD=      1
         NCelK=      1 NCelE2=     1 NClLst=     1 CellRange=     0.0.
 One-electron integrals computed using PRISM.
 PrsmSu:  requested number of processors reduced to:   3 ShMem   1 Linda.
 PrsmSu:  requested number of processors reduced to:  11 ShMem   1 Linda.
 NBasis=   170 RedAO= T EigKep=  8.54D-04  NBF=   170
 NBsUse=   170 1.00D-06 EigRej= -1.00D+00 NBFU=   170
 Precomputing XC quadrature grid using
 IXCGrd= 4 IRadAn=           0 IRanWt=          -1 IRanGd=           0 AccXCQ= 0.00D+00.
 Generated NRdTot=       0 NPtTot=           0 NUsed=           0 NTot=          32
 NSgBfM=   185   185   185   185   185 MxSgAt=    11 MxSgA2=    11.
 Leave Link  302 at Tue Aug 30 09:23:42 2022, MaxMem=    23592960 cpu:         5.8
 (Enter /public/home/users/caep010/software/Gaussian09/g09/l303.exe)
 DipDrv:  MaxL=1.
 Leave Link  303 at Tue Aug 30 09:23:42 2022, MaxMem=    23592960 cpu:         1.1
 (Enter /public/home/users/caep010/software/Gaussian09/g09/l401.exe)
 ExpMin= 1.61D-01 ExpMax= 5.48D+03 ExpMxC= 8.25D+02 IAcc=1 IRadAn=         1 AccDes= 0.00D+00
 Harris functional with IExCor=  402 and IRadAn=       1 diagonalized for initial guess.
 HarFok:  IExCor=  402 AccDes= 0.00D+00 IRadAn=         1 IDoV= 1 UseB2=F ITyADJ=14
 ICtDFT=  3500011 ScaDFX=  1.000000  1.000000  1.000000  1.000000
 CalDSu:  requested number of processors reduced to:  21 ShMem   1 Linda.
 FoFCou: FMM=F IPFlag=           0 FMFlag=      100000 FMFlg1=           0
         NFxFlg=           0 DoJE=T BraDBF=F KetDBF=T FulRan=T
         wScrn=  0.000000 ICntrl=     500 IOpCl=  0 I1Cent=   200000004 NGrid=           0
         NMat0=    1 NMatS0=      1 NMatT0=    0 NMatD0=    1 NMtDS0=    0 NMtDT0=    0
 Petite list used in FoFCou.
 CoulSu:  requested number of processors reduced to:  11 ShMem   1 Linda.
 CoulSu:  requested number of processors reduced to:  11 ShMem   1 Linda.
 CoulSu:  requested number of processors reduced to:  12 ShMem   1 Linda.
 CoulSu:  requested number of processors reduced to:  12 ShMem   1 Linda.
 Harris En= -268.364326027943    
 JPrj=0 DoOrth=F DoCkMO=F.
 Leave Link  401 at Tue Aug 30 09:23:43 2022, MaxMem=    23592960 cpu:         7.8
 (Enter /public/home/users/caep010/software/Gaussian09/g09/l502.exe)
 Closed shell SCF:
 Using DIIS extrapolation, IDIIS=  1040.
 Integral symmetry usage will be decided dynamically.
 IVT=      128495 IEndB=      128495 NGot=    23592960 MDV=    23515516
 LenX=    23515516 LenY=    23480850
 Requested convergence on RMS density matrix=1.00D-08 within 128 cycles.
 Requested convergence on MAX density matrix=1.00D-06.
 Requested convergence on             energy=1.00D-06.
 No special actions if energy rises.
 Fock matrices will be formed incrementally for  20 cycles.
 Integral accuracy reduced to 1.0D-05 until final iterations.

 Cycle   1  Pass 0  IDiag  1:
 FoFJK:  IHMeth= 1 ICntrl=       0 DoSepK=F KAlg= 0 I1Cent=   0 FoldK=F
 IRaf= 980000000 NMat=   1 IRICut=       1 DoRegI=T DoRafI=F ISym2E= 0.
 FoFCou: FMM=F IPFlag=           0 FMFlag=      100000 FMFlg1=           0
         NFxFlg=           0 DoJE=F BraDBF=F KetDBF=F FulRan=T
         wScrn=  0.000000 ICntrl=       0 IOpCl=  0 I1Cent=           0 NGrid=           0
         NMat0=    1 NMatS0=      1 NMatT0=    0 NMatD0=    1 NMtDS0=    0 NMtDT0=    0
 Symmetry not used in FoFCou.
 CoulSu:  requested number of processors reduced to:  11 ShMem   1 Linda.
 CalDSu:  requested number of processors reduced to:  21 ShMem   1 Linda.
 E= -268.163801446435    
 DIIS: error= 1.97D-02 at cycle   1 NSaved=   1.
 NSaved= 1 IEnMin= 1 EnMin= -268.163801446435     IErMin= 1 ErrMin= 1.97D-02
 ErrMax= 1.97D-02  0.00D+00 EMaxC= 1.00D-01 BMatC= 1.76D-01 BMatP= 1.76D-01
 IDIUse=3 WtCom= 8.03D-01 WtEn= 1.97D-01
 Coeff-Com:  0.100D+01
 Coeff-En:   0.100D+01
 Coeff:      0.100D+01
 Gap=     0.211 Goal=   None    Shift=    0.000
 GapD=    0.211 DampG=1.000 DampE=0.500 DampFc=0.5000 IDamp=-1.
 Damping current iteration by 5.00D-01
 RMSDP=5.64D-03 MaxDP=1.48D-01              OVMax= 1.52D-01

 Cycle   2  Pass 0  IDiag  1:
 RMSU=  2.79D-03    CP:  9.80D-01
 CoulSu:  requested number of processors reduced to:  11 ShMem   1 Linda.
 CalDSu:  requested number of processors reduced to:  21 ShMem   1 Linda.
 E= -268.231766543138     Delta-E=       -0.067965096703 Rises=F Damp=T
 DIIS: error= 9.34D-03 at cycle   2 NSaved=   2.
 NSaved= 2 IEnMin= 2 EnMin= -268.231766543138     IErMin= 2 ErrMin= 9.34D-03
 ErrMax= 9.34D-03  0.00D+00 EMaxC= 1.00D-01 BMatC= 9.95D-03 BMatP= 1.76D-01
 IDIUse=3 WtCom= 9.07D-01 WtEn= 9.34D-02
 Coeff-Com:  0.992D-01 0.901D+00
 Coeff-En:   0.154D+00 0.846D+00
 Coeff:      0.104D+00 0.896D+00
 Gap=     0.227 Goal=   None    Shift=    0.000
 RMSDP=1.00D-03 MaxDP=3.83D-02 DE=-6.80D-02 OVMax= 8.93D-02

 Cycle   3  Pass 0  IDiag  1:
 RMSU=  8.68D-04    CP:  9.76D-01  8.25D-01
 CoulSu:  requested number of processors reduced to:  11 ShMem   1 Linda.
 CalDSu:  requested number of processors reduced to:  21 ShMem   1 Linda.
 E= -268.319759506586     Delta-E=       -0.087992963447 Rises=F Damp=F
 DIIS: error= 2.73D-03 at cycle   3 NSaved=   3.
 NSaved= 3 IEnMin= 3 EnMin= -268.319759506586     IErMin= 3 ErrMin= 2.73D-03
 ErrMax= 2.73D-03  0.00D+00 EMaxC= 1.00D-01 BMatC= 2.99D-03 BMatP= 9.95D-03
 IDIUse=3 WtCom= 9.73D-01 WtEn= 2.73D-02
 Coeff-Com:  0.639D-02 0.324D+00 0.669D+00
 Coeff-En:   0.000D+00 0.000D+00 0.100D+01
 Coeff:      0.622D-02 0.315D+00 0.678D+00
 Gap=     0.226 Goal=   None    Shift=    0.000
 RMSDP=4.09D-04 MaxDP=1.24D-02 DE=-8.80D-02 OVMax= 1.55D-02

 Cycle   4  Pass 0  IDiag  1:
 RMSU=  3.20D-04    CP:  9.76D-01  8.44D-01  7.14D-01
 CoulSu:  requested number of processors reduced to:  11 ShMem   1 Linda.
 CalDSu:  requested number of processors reduced to:  21 ShMem   1 Linda.
 E= -268.321151394108     Delta-E=       -0.001391887522 Rises=F Damp=F
 DIIS: error= 1.63D-03 at cycle   4 NSaved=   4.
 NSaved= 4 IEnMin= 4 EnMin= -268.321151394108     IErMin= 4 ErrMin= 1.63D-03
 ErrMax= 1.63D-03  0.00D+00 EMaxC= 1.00D-01 BMatC= 1.13D-03 BMatP= 2.99D-03
 IDIUse=3 WtCom= 9.84D-01 WtEn= 1.63D-02
 Coeff-Com: -0.421D-02 0.696D-01 0.394D+00 0.541D+00
 Coeff-En:   0.000D+00 0.000D+00 0.299D+00 0.701D+00
 Coeff:     -0.414D-02 0.685D-01 0.392D+00 0.543D+00
 Gap=     0.224 Goal=   None    Shift=    0.000
 RMSDP=1.72D-04 MaxDP=5.36D-03 DE=-1.39D-03 OVMax= 6.63D-03

 Cycle   5  Pass 0  IDiag  1:
 RMSU=  5.08D-05    CP:  9.76D-01  8.46D-01  8.12D-01  5.62D-01
 CoulSu:  requested number of processors reduced to:  11 ShMem   1 Linda.
 CalDSu:  requested number of processors reduced to:  21 ShMem   1 Linda.
 E= -268.322073095086     Delta-E=       -0.000921700978 Rises=F Damp=F
 DIIS: error= 1.89D-04 at cycle   5 NSaved=   5.
 NSaved= 5 IEnMin= 5 EnMin= -268.322073095086     IErMin= 5 ErrMin= 1.89D-04
 ErrMax= 1.89D-04  0.00D+00 EMaxC= 1.00D-01 BMatC= 1.66D-05 BMatP= 1.13D-03
 IDIUse=3 WtCom= 9.98D-01 WtEn= 1.89D-03
 Coeff-Com: -0.132D-02 0.268D-02 0.931D-01 0.184D+00 0.721D+00
 Coeff-En:   0.000D+00 0.000D+00 0.000D+00 0.000D+00 0.100D+01
 Coeff:     -0.131D-02 0.267D-02 0.929D-01 0.184D+00 0.722D+00
 Gap=     0.223 Goal=   None    Shift=    0.000
 RMSDP=2.26D-05 MaxDP=5.77D-04 DE=-9.22D-04 OVMax= 1.23D-03

 Cycle   6  Pass 0  IDiag  1:
 RMSU=  1.26D-05    CP:  9.76D-01  8.46D-01  8.10D-01  5.95D-01  7.00D-01
 CoulSu:  requested number of processors reduced to:  11 ShMem   1 Linda.
 CalDSu:  requested number of processors reduced to:  21 ShMem   1 Linda.
 E= -268.322084959263     Delta-E=       -0.000011864177 Rises=F Damp=F
 DIIS: error= 5.88D-05 at cycle   6 NSaved=   6.
 NSaved= 6 IEnMin= 6 EnMin= -268.322084959263     IErMin= 6 ErrMin= 5.88D-05
 ErrMax= 5.88D-05  0.00D+00 EMaxC= 1.00D-01 BMatC= 1.61D-06 BMatP= 1.66D-05
 IDIUse=1 WtCom= 1.00D+00 WtEn= 0.00D+00
 Coeff-Com: -0.593D-03 0.156D-03 0.439D-01 0.918D-01 0.395D+00 0.470D+00
 Coeff:     -0.593D-03 0.156D-03 0.439D-01 0.918D-01 0.395D+00 0.470D+00
 Gap=     0.224 Goal=   None    Shift=    0.000
 RMSDP=9.50D-06 MaxDP=4.09D-04 DE=-1.19D-05 OVMax= 8.90D-04

 Initial convergence to 1.0D-05 achieved.  Increase integral accuracy.
 Cycle   7  Pass 1  IDiag  1:
 CoulSu:  requested number of processors reduced to:  11 ShMem   1 Linda.
 CalDSu:  requested number of processors reduced to:  21 ShMem   1 Linda.
 E= -268.322126046217     Delta-E=       -0.000041086955 Rises=F Damp=F
 DIIS: error= 2.38D-05 at cycle   1 NSaved=   1.
 NSaved= 1 IEnMin= 1 EnMin= -268.322126046217     IErMin= 1 ErrMin= 2.38D-05
 ErrMax= 2.38D-05  0.00D+00 EMaxC= 1.00D-01 BMatC= 2.28D-07 BMatP= 2.28D-07
 IDIUse=1 WtCom= 1.00D+00 WtEn= 0.00D+00
 Coeff-Com:  0.100D+01
 Coeff:      0.100D+01
 Gap=     0.223 Goal=   None    Shift=    0.000
 RMSDP=9.50D-06 MaxDP=4.09D-04 DE=-4.11D-05 OVMax= 6.98D-04

 Cycle   8  Pass 1  IDiag  1:
 RMSU=  8.20D-06    CP:  1.00D+00
 CoulSu:  requested number of processors reduced to:  11 ShMem   1 Linda.
 CalDSu:  requested number of processors reduced to:  21 ShMem   1 Linda.
 E= -268.322125537349     Delta-E=        0.000000508868 Rises=F Damp=F
 DIIS: error= 4.59D-05 at cycle   2 NSaved=   2.
 NSaved= 2 IEnMin= 1 EnMin= -268.322126046217     IErMin= 1 ErrMin= 2.38D-05
 ErrMax= 4.59D-05  0.00D+00 EMaxC= 1.00D-01 BMatC= 7.63D-07 BMatP= 2.28D-07
 IDIUse=1 WtCom= 1.00D+00 WtEn= 0.00D+00
 Coeff-Com:  0.653D+00 0.347D+00
 Coeff:      0.653D+00 0.347D+00
 Gap=     0.224 Goal=   None    Shift=    0.000
 RMSDP=5.25D-06 MaxDP=2.21D-04 DE= 5.09D-07 OVMax= 4.93D-04

 Cycle   9  Pass 1  IDiag  1:
 RMSU=  2.47D-06    CP:  1.00D+00  4.34D-01
 CoulSu:  requested number of processors reduced to:  11 ShMem   1 Linda.
 CalDSu:  requested number of processors reduced to:  21 ShMem   1 Linda.
 E= -268.322126259316     Delta-E=       -0.000000721967 Rises=F Damp=F
 DIIS: error= 2.59D-06 at cycle   3 NSaved=   3.
 NSaved= 3 IEnMin= 3 EnMin= -268.322126259316     IErMin= 3 ErrMin= 2.59D-06
 ErrMax= 2.59D-06  0.00D+00 EMaxC= 1.00D-01 BMatC= 2.49D-09 BMatP= 2.28D-07
 IDIUse=1 WtCom= 1.00D+00 WtEn= 0.00D+00
 Coeff-Com:  0.783D-01 0.746D-01 0.847D+00
 Coeff:      0.783D-01 0.746D-01 0.847D+00
 Gap=     0.224 Goal=   None    Shift=    0.000
 RMSDP=3.95D-07 MaxDP=1.13D-05 DE=-7.22D-07 OVMax= 2.97D-05

 Cycle  10  Pass 1  IDiag  1:
 RMSU=  2.93D-07    CP:  1.00D+00  4.66D-01  9.73D-01
 CoulSu:  requested number of processors reduced to:  11 ShMem   1 Linda.
 CalDSu:  requested number of processors reduced to:  21 ShMem   1 Linda.
 E= -268.322126261387     Delta-E=       -0.000000002071 Rises=F Damp=F
 DIIS: error= 8.93D-07 at cycle   4 NSaved=   4.
 NSaved= 4 IEnMin= 4 EnMin= -268.322126261387     IErMin= 4 ErrMin= 8.93D-07
 ErrMax= 8.93D-07  0.00D+00 EMaxC= 1.00D-01 BMatC= 3.78D-10 BMatP= 2.49D-09
 IDIUse=1 WtCom= 1.00D+00 WtEn= 0.00D+00
 Coeff-Com: -0.308D-02 0.108D-01 0.341D+00 0.652D+00
 Coeff:     -0.308D-02 0.108D-01 0.341D+00 0.652D+00
 Gap=     0.224 Goal=   None    Shift=    0.000
 RMSDP=1.18D-07 MaxDP=3.90D-06 DE=-2.07D-09 OVMax= 5.36D-06

 Cycle  11  Pass 1  IDiag  1:
 RMSU=  6.50D-08    CP:  1.00D+00  4.63D-01  9.94D-01  7.21D-01
 CoulSu:  requested number of processors reduced to:  11 ShMem   1 Linda.
 CalDSu:  requested number of processors reduced to:  21 ShMem   1 Linda.
 E= -268.322126261665     Delta-E=       -0.000000000279 Rises=F Damp=F
 DIIS: error= 4.12D-07 at cycle   5 NSaved=   5.
 NSaved= 5 IEnMin= 5 EnMin= -268.322126261665     IErMin= 5 ErrMin= 4.12D-07
 ErrMax= 4.12D-07  0.00D+00 EMaxC= 1.00D-01 BMatC= 6.19D-11 BMatP= 3.78D-10
 IDIUse=1 WtCom= 1.00D+00 WtEn= 0.00D+00
 Coeff-Com: -0.540D-02 0.302D-02 0.163D+00 0.384D+00 0.455D+00
 Coeff:     -0.540D-02 0.302D-02 0.163D+00 0.384D+00 0.455D+00
 Gap=     0.224 Goal=   None    Shift=    0.000
 RMSDP=3.67D-08 MaxDP=1.19D-06 DE=-2.79D-10 OVMax= 1.59D-06

 Cycle  12  Pass 1  IDiag  1:
 RMSU=  1.85D-08    CP:  1.00D+00  4.64D-01  9.92D-01  7.37D-01  5.37D-01
 CoulSu:  requested number of processors reduced to:  11 ShMem   1 Linda.
 CalDSu:  requested number of processors reduced to:  21 ShMem   1 Linda.
 E= -268.322126261710     Delta-E=       -0.000000000045 Rises=F Damp=F
 DIIS: error= 3.56D-08 at cycle   6 NSaved=   6.
 NSaved= 6 IEnMin= 6 EnMin= -268.322126261710     IErMin= 6 ErrMin= 3.56D-08
 ErrMax= 3.56D-08  0.00D+00 EMaxC= 1.00D-01 BMatC= 6.17D-13 BMatP= 6.19D-11
 IDIUse=1 WtCom= 1.00D+00 WtEn= 0.00D+00
 Coeff-Com: -0.127D-02 0.246D-03 0.238D-01 0.658D-01 0.132D+00 0.779D+00
 Coeff:     -0.127D-02 0.246D-03 0.238D-01 0.658D-01 0.132D+00 0.779D+00
 Gap=     0.224 Goal=   None    Shift=    0.000
 RMSDP=5.45D-09 MaxDP=1.38D-07 DE=-4.45D-11 OVMax= 2.43D-07

 SCF Done:  E(RB3LYP) =  -268.322126262     A.U. after   12 cycles
            NFock= 12  Conv=0.55D-08     -V/T= 2.0072
 KE= 2.664094096300D+02 PE=-9.804869277811D+02 EE= 2.698582458674D+02
 Leave Link  502 at Tue Aug 30 09:23:48 2022, MaxMem=    23592960 cpu:        86.6
 (Enter /public/home/users/caep010/software/Gaussian09/g09/l601.exe)
 Copying SCF densities to generalized density rwf, IOpCl= 0 IROHF=0.

 **********************************************************************

            Population analysis using the SCF density.

 **********************************************************************

 Orbital symmetries:
       Occupied  (A) (A) (A) (A) (A) (A) (A) (A) (A) (A) (A) (A)
                 (A) (A) (A) (A) (A) (A) (A) (A)
       Virtual   (A) (A) (A) (A) (A) (A) (A) (A) (A) (A) (A) (A)
                 (A) (A) (A) (A) (A) (A) (A) (A) (A) (A) (A) (A)
                 (A) (A) (A) (A) (A) (A) (A) (A) (A) (A) (A) (A)
                 (A) (A) (A) (A) (A) (A) (A) (A) (A) (A) (A) (A)
                 (A) (A) (A) (A) (A) (A) (A) (A) (A) (A) (A) (A)
                 (A) (A) (A) (A) (A) (A) (A) (A) (A) (A) (A) (A)
                 (A) (A) (A) (A) (A) (A) (A) (A) (A) (A) (A) (A)
                 (A) (A) (A) (A) (A) (A) (A) (A) (A) (A) (A) (A)
                 (A) (A) (A) (A) (A) (A) (A) (A) (A) (A) (A) (A)
                 (A) (A) (A) (A) (A) (A) (A) (A) (A) (A) (A) (A)
                 (A) (A) (A) (A) (A) (A) (A) (A) (A) (A) (A) (A)
                 (A) (A) (A) (A) (A) (A) (A) (A) (A) (A) (A) (A)
                 (A) (A) (A) (A) (A) (A)
 The electronic state is 1-A.
 Alpha  occ. eigenvalues --  -19.15525 -19.15097 -10.21951 -10.20164 -10.19686
 Alpha  occ. eigenvalues --   -1.03883  -1.02824  -0.75816  -0.68446  -0.56639
 Alpha  occ. eigenvalues --   -0.52256  -0.47406  -0.45726  -0.42358  -0.38337
 Alpha  occ. eigenvalues --   -0.36245  -0.34378  -0.33642  -0.32669  -0.18022
 Alpha virt. eigenvalues --    0.04329   0.06345   0.07137   0.12282   0.13911
 Alpha virt. eigenvalues --    0.16641   0.17568   0.23114   0.26274   0.33199
 Alpha virt. eigenvalues --    0.37488   0.47948   0.49560   0.51000   0.52216
 Alpha virt. eigenvalues --    0.54500   0.55796   0.57821   0.60498   0.62668
 Alpha virt. eigenvalues --    0.66431   0.67016   0.68978   0.72311   0.74611
 Alpha virt. eigenvalues --    0.78130   0.80924   0.83028   0.85588   0.87850
 Alpha virt. eigenvalues --    0.89833   0.90755   0.94043   0.94777   0.95162
 Alpha virt. eigenvalues --    0.96908   1.01273   1.05996   1.07780   1.15510
 Alpha virt. eigenvalues --    1.17656   1.18313   1.27471   1.34644   1.37738
 Alpha virt. eigenvalues --    1.38940   1.41796   1.46158   1.50385   1.52662
 Alpha virt. eigenvalues --    1.53947   1.58484   1.64117   1.66284   1.75953
 Alpha virt. eigenvalues --    1.80982   1.84629   1.89294   1.96340   2.06811
 Alpha virt. eigenvalues --    2.14134   2.16542   2.21465   2.24288   2.32173
 Alpha virt. eigenvalues --    2.36251   2.40292   2.45455   2.47901   2.56875
 Alpha virt. eigenvalues --    2.59629   2.61340   2.65429   2.72612   2.75812
 Alpha virt. eigenvalues --    2.81745   2.88489   2.93663   2.94863   2.99412
 Alpha virt. eigenvalues --    3.02871   3.08596   3.10283   3.11949   3.13710
 Alpha virt. eigenvalues --    3.15951   3.21901   3.29312   3.32805   3.34791
 Alpha virt. eigenvalues --    3.43128   3.47677   3.53810   3.56453   3.61103
 Alpha virt. eigenvalues --    3.63276   3.75818   3.88203   3.90563   3.95633
 Alpha virt. eigenvalues --    4.10099   4.12830   4.18722   4.22752   4.28430
 Alpha virt. eigenvalues --    4.30688   4.35078   4.35889   4.38898   4.43210
 Alpha virt. eigenvalues --    4.45434   4.46760   4.49450   4.52636   4.57333
 Alpha virt. eigenvalues --    4.61798   4.62687   4.65867   4.67415   4.69211
 Alpha virt. eigenvalues --    4.71654   4.81297   4.92415   5.02713   5.16173
 Alpha virt. eigenvalues --    5.22619   5.23576   5.25304   5.38110   5.41175
 Alpha virt. eigenvalues --    5.43199   5.44924   5.47198   5.52490   5.58906
 Alpha virt. eigenvalues --    5.70345   5.79482   5.84107   5.89739   5.96057
 Alpha virt. eigenvalues --    6.11527   6.36090   6.42252   7.01499   7.06870
 Alpha virt. eigenvalues --   10.22958  11.13353  11.82392  13.14449  13.30601
          Condensed to atoms (all electrons):
               1          2          3          4          5          6
     1  C    5.185079   0.339119  -0.052557  -0.041207  -0.002643   0.340251
     2  C    0.339119   4.553134   0.415165   0.560592  -0.028736  -0.015411
     3  O   -0.052557   0.415165   7.802674  -0.026552   0.000493   0.001051
     4  C   -0.041207   0.560592  -0.026552   4.915975   0.362725  -0.010809
     5  O   -0.002643  -0.028736   0.000493   0.362725   7.783261   0.005424
     6  H    0.340251  -0.015411   0.001051  -0.010809   0.005424   0.590455
     7  H    0.333423  -0.018323  -0.005376   0.004267   0.000276  -0.006182
     8  H    0.377922  -0.014990   0.002185  -0.003259   0.001813  -0.042038
     9  H   -0.010070  -0.063308   0.308478   0.007457  -0.000033   0.000104
    10  H    0.009629  -0.047498  -0.003353   0.357041  -0.045325  -0.000256
    11  H   -0.000619   0.011193  -0.000008  -0.068375   0.324927  -0.000150
               7          8          9         10         11
     1  C    0.333423   0.377922  -0.010070   0.009629  -0.000619
     2  C   -0.018323  -0.014990  -0.063308  -0.047498   0.011193
     3  O   -0.005376   0.002185   0.308478  -0.003353  -0.000008
     4  C    0.004267  -0.003259   0.007457   0.357041  -0.068375
     5  O    0.000276   0.001813  -0.000033  -0.045325   0.324927
     6  H   -0.006182  -0.042038   0.000104  -0.000256  -0.000150
     7  H    0.640678  -0.048055   0.011635  -0.000175  -0.000008
     8  H   -0.048055   0.569852   0.000013   0.000005   0.000050
     9  H    0.011635   0.000013   0.446809  -0.000598   0.000010
    10  H   -0.000175   0.000005  -0.000598   0.647440  -0.012550
    11  H   -0.000008   0.000050   0.000010  -0.012550   0.451073
 Mulliken charges:
               1
     1  C   -0.478326
     2  C    0.309062
     3  O   -0.442199
     4  C   -0.057855
     5  O   -0.402180
     6  H    0.137560
     7  H    0.087839
     8  H    0.156501
     9  H    0.299501
    10  H    0.095640
    11  H    0.294457
 Sum of Mulliken charges =  -0.00000
 Mulliken charges with hydrogens summed into heavy atoms:
               1
     1  C   -0.096426
     2  C    0.309062
     3  O   -0.142698
     4  C    0.037785
     5  O   -0.107723
 Electronic spatial extent (au):  <R**2>=            445.9528
 Charge=             -0.0000 electrons
 Dipole moment (field-independent basis, Debye):
    X=             -0.3233    Y=              0.1791    Z=             -0.7144  Tot=              0.8043
 Quadrupole moment (field-independent basis, Debye-Ang):
   XX=            -22.2415   YY=            -29.9509   ZZ=            -31.3448
   XY=             -5.1578   XZ=              0.3454   YZ=             -0.1078
 Traceless Quadrupole moment (field-independent basis, Debye-Ang):
   XX=              5.6042   YY=             -2.1052   ZZ=             -3.4991
   XY=             -5.1578   XZ=              0.3454   YZ=             -0.1078
 Octapole moment (field-independent basis, Debye-Ang**2):
  XXX=              0.5486  YYY=             -3.0873  ZZZ=             -0.1560  XYY=              6.1707
  XXY=             -8.0666  XXZ=             -5.5044  XZZ=              0.8032  YZZ=             -0.0921
  YYZ=             -1.5679  XYZ=              1.6643
 Hexadecapole moment (field-independent basis, Debye-Ang**3):
 XXXX=           -216.7706 YYYY=           -186.0791 ZZZZ=            -35.3544 XXXY=            -12.6261
 XXXZ=             -2.6979 YYYX=              1.9426 YYYZ=             -3.9088 ZZZX=              0.4185
 ZZZY=             -0.5954 XXYY=            -84.5976 XXZZ=            -59.6972 YYZZ=            -37.0897
 XXYZ=              0.5064 YYXZ=              2.4023 ZZXY=              2.6793
 N-N= 1.758971460220D+02 E-N=-9.804869283711D+02  KE= 2.664094096300D+02
 PrsmSu:  requested number of processors reduced to:  11 ShMem   1 Linda.
 No NMR shielding tensors so no spin-rotation constants.
 Leave Link  601 at Tue Aug 30 09:23:49 2022, MaxMem=    23592960 cpu:         3.3
 (Enter /public/home/users/caep010/software/Gaussian09/g09/l701.exe)
 Compute integral first derivatives.
 ... and contract with generalized density number  0.
 PrsmSu:  requested number of processors reduced to:   3 ShMem   1 Linda.
 PrsmSu:  requested number of processors reduced to:   6 ShMem   1 Linda.
 Leave Link  701 at Tue Aug 30 09:23:49 2022, MaxMem=    23592960 cpu:         2.0
 (Enter /public/home/users/caep010/software/Gaussian09/g09/l702.exe)
 L702 exits ... SP integral derivatives will be done elsewhere.
 Leave Link  702 at Tue Aug 30 09:23:49 2022, MaxMem=    23592960 cpu:         0.6
 (Enter /public/home/users/caep010/software/Gaussian09/g09/l703.exe)
 Compute integral first derivatives, UseDBF=F ICtDFT=           0.
 Integral derivatives from FoFJK, PRISM(SPDF).
 Calling FoFJK, ICntrl=      2127 FMM=F ISym2X=0 I1Cent= 0 IOpClX= 0 NMat=1 NMatS=1 NMatT=0.
 FoFJK:  IHMeth= 1 ICntrl=    2127 DoSepK=F KAlg= 0 I1Cent=   0 FoldK=F
 IRaf=         0 NMat=   1 IRICut=       1 DoRegI=T DoRafI=F ISym2E= 0.
 FoFCou: FMM=F IPFlag=           0 FMFlag=      100000 FMFlg1=         800
         NFxFlg=           0 DoJE=F BraDBF=F KetDBF=F FulRan=T
         wScrn=  0.000000 ICntrl=    2127 IOpCl=  0 I1Cent=           0 NGrid=           0
         NMat0=    1 NMatS0=      1 NMatT0=    0 NMatD0=    1 NMtDS0=    0 NMtDT0=    0
 Symmetry not used in FoFCou.
 CoulSu:  requested number of processors reduced to:   6 ShMem   1 Linda.
 CalDSu:  requested number of processors reduced to:  18 ShMem   1 Linda.
 Leave Link  703 at Tue Aug 30 09:23:51 2022, MaxMem=    23592960 cpu:        15.9
 (Enter /public/home/users/caep010/software/Gaussian09/g09/l716.exe)
 Dipole        =-1.27191493D-01 7.04647884D-02-2.81056435D-01
 ***** Axes restored to original set *****
 -------------------------------------------------------------------
 Center     Atomic                   Forces (Hartrees/Bohr)
 Number     Number              X              Y              Z
 -------------------------------------------------------------------
      1        6          -0.028411387    0.049937522   -0.047885254
      2        6           0.003577523   -0.019060028    0.010441999
      3        8          -0.037430630    0.009040537    0.016270015
      4        6          -0.001220406   -0.008163244   -0.003945076
      5        8          -0.005512890    0.015341358    0.008056951
      6        1          -0.034080762    0.013273662    0.049894102
      7        1           0.023014539    0.000232305   -0.045543087
      8        1           0.034134338   -0.053681568    0.032399917
      9        1           0.035311934    0.000608230   -0.013938347
     10        1           0.000547713    0.000303332   -0.001449861
     11        1           0.010070028   -0.007832106   -0.004301359
 -------------------------------------------------------------------
 Cartesian Forces:  Max     0.053681568 RMS     0.025461723
 Leave Link  716 at Tue Aug 30 09:23:51 2022, MaxMem=    23592960 cpu:         1.0
 (Enter /public/home/users/caep010/software/Gaussian09/g09/l103.exe)

 GradGradGradGradGradGradGradGradGradGradGradGradGradGradGradGradGradGrad
 Berny optimization.
 FormGI is forming the generalized inverse of G from B-inverse, IUseBI=4.
 Internal  Forces:  Max     0.065749508 RMS     0.019983981
 Search for a local minimum.
 Step number   1 out of a maximum of   48
 All quantities printed in internal units (Hartrees-Bohrs-Radians)
 RMS Force = .19984D-01 SwitMx=.10000D-02 MixMth= 1
 Mixed Optimization -- RFO/linear search
 Second derivative matrix not updated -- first step.
 ITU=  0
     Eigenvalues ---    0.00656   0.01688   0.01700   0.02218   0.02603
     Eigenvalues ---    0.03012   0.06516   0.07300   0.15993   0.16000
     Eigenvalues ---    0.16000   0.16000   0.16000   0.16000   0.22002
     Eigenvalues ---    0.22954   0.24986   0.24992   0.25662   0.31520
     Eigenvalues ---    0.35555   0.45068   0.45725   0.47212   0.52902
     Eigenvalues ---    0.56935   0.59453
 RFO step:  Lambda=-5.14533449D-02 EMin= 6.55962739D-03
 Linear search not attempted -- first point.
 Maximum step size (   0.300) exceeded in Quadratic search.
    -- Step size scaled by   0.702
 Iteration  1 RMS(Cart)=  0.06024561 RMS(Int)=  0.00286291
 Iteration  2 RMS(Cart)=  0.00287819 RMS(Int)=  0.00078165
 Iteration  3 RMS(Cart)=  0.00000504 RMS(Int)=  0.00078163
 Iteration  4 RMS(Cart)=  0.00000000 RMS(Int)=  0.00078163
 ITry= 1 IFail=0 DXMaxC= 2.00D-01 DCOld= 1.00D+10 DXMaxT= 3.00D-01 DXLimC= 3.00D+00 Rises=F
 Variable       Old X    -DE/DX   Delta X   Delta X   Delta X     New X
                                 (Linear)    (Quad)   (Total)
    R1        2.85030  -0.00231   0.00000  -0.00443  -0.00443   2.84587
    R2        2.31414  -0.05604   0.00000  -0.14000  -0.14000   2.17414
    R3        2.24253  -0.04105   0.00000  -0.09355  -0.09355   2.14898
    R4        1.91897   0.06575   0.00000   0.09192   0.09192   2.01089
    R5        2.57046   0.00984   0.00000   0.01190   0.01190   2.58235
    R6        2.51376   0.00415   0.00000   0.00451   0.00451   2.51827
    R7        1.89488  -0.03767   0.00000  -0.05051  -0.05051   1.84437
    R8        2.64443  -0.00590   0.00000  -0.00814  -0.00814   2.63629
    R9        2.04782   0.00032   0.00000   0.00056   0.00056   2.04838
   R10        1.80151   0.00813   0.00000   0.00919   0.00919   1.81071
    A1        1.80542   0.02117   0.00000   0.06014   0.06162   1.86704
    A2        1.87251   0.00867   0.00000   0.02609   0.02756   1.90007
    A3        2.15956  -0.03829   0.00000  -0.11414  -0.11195   2.04761
    A4        2.23724  -0.03241   0.00000  -0.13596  -0.13570   2.10154
    A5        1.77820   0.00718   0.00000   0.03363   0.03597   1.81417
    A6        1.64850   0.02082   0.00000   0.09055   0.09296   1.74146
    A7        2.07851  -0.00164   0.00000  -0.00390  -0.00391   2.07460
    A8        2.14250  -0.00027   0.00000  -0.00070  -0.00071   2.14179
    A9        2.06146   0.00188   0.00000   0.00427   0.00426   2.06572
   A10        1.94464  -0.00891   0.00000  -0.02958  -0.02958   1.91505
   A11        2.09323  -0.00007   0.00000  -0.00025  -0.00026   2.09297
   A12        2.12958   0.00083   0.00000   0.00265   0.00264   2.13222
   A13        2.05945  -0.00080   0.00000  -0.00276  -0.00277   2.05667
   A14        1.78178   0.01933   0.00000   0.06417   0.06417   1.84595
    D1        2.16303  -0.00883   0.00000  -0.05166  -0.05083   2.11220
    D2       -0.93739  -0.00794   0.00000  -0.04229  -0.04149  -0.97888
    D3       -0.24094   0.01055   0.00000   0.05759   0.05675  -0.18419
    D4        2.94182   0.01143   0.00000   0.06696   0.06610   3.00792
    D5       -2.12229  -0.00313   0.00000  -0.02095  -0.02091  -2.14320
    D6        1.06047  -0.00224   0.00000  -0.01159  -0.01156   1.04891
    D7        0.21471   0.00014   0.00000   0.00157   0.00157   0.21628
    D8       -2.96613  -0.00076   0.00000  -0.00747  -0.00747  -2.97360
    D9        0.03148  -0.00041   0.00000  -0.00399  -0.00399   0.02748
   D10        3.12595  -0.00145   0.00000  -0.01328  -0.01330   3.11265
   D11       -3.06933   0.00054   0.00000   0.00548   0.00549  -3.06384
   D12        0.02514  -0.00049   0.00000  -0.00382  -0.00381   0.02133
   D13       -2.92254  -0.00061   0.00000  -0.00577  -0.00576  -2.92830
   D14        0.26430   0.00034   0.00000   0.00301   0.00301   0.26731
         Item               Value     Threshold  Converged?
 Maximum Force            0.065750     0.000450     NO 
 RMS     Force            0.019984     0.000300     NO 
 Maximum Displacement     0.199762     0.001800     NO 
 RMS     Displacement     0.060546     0.001200     NO 
 Predicted change in Energy=-2.605631D-02
 Lowest energy point so far.  Saving SCF results.
 GradGradGradGradGradGradGradGradGradGradGradGradGradGradGradGradGradGrad

 Leave Link  103 at Tue Aug 30 09:23:51 2022, MaxMem=    23592960 cpu:         1.8
 (Enter /public/home/users/caep010/software/Gaussian09/g09/l202.exe)
                          Input orientation:                          
 ---------------------------------------------------------------------
 Center     Atomic      Atomic             Coordinates (Angstroms)
 Number     Number       Type             X           Y           Z
 ---------------------------------------------------------------------
      1          6           0       -1.063115   -0.716059   -0.061846
      2          6           0       -0.141463    0.440433    0.222810
      3          8           0       -0.667229    1.591613    0.738309
      4          6           0        1.160620    0.410036   -0.059155
      5          8           0        1.713702   -0.714352   -0.672391
      6          1           0       -0.968701   -0.952503   -1.183827
      7          1           0       -2.080470   -0.496980    0.396631
      8          1           0       -0.845872   -1.642425    0.414598
      9          1           0       -1.581987    1.430599    1.038083
     10          1           0        1.810970    1.257367    0.125333
     11          1           0        2.663444   -0.607730   -0.603543
 ---------------------------------------------------------------------
                    Distance matrix (angstroms):
                    1          2          3          4          5
     1  C    0.000000
     2  C    1.505970   0.000000
     3  O    2.474333   1.366522   0.000000
     4  C    2.492609   1.332610   2.317996   0.000000
     5  O    2.843147   2.361473   3.602274   1.395065   0.000000
     6  H    1.150505   2.145512   3.202814   2.766842   2.741090
     7  H    1.137193   2.160719   2.544841   3.396334   3.947886
     8  H    1.064118   2.207096   3.255104   2.909132   2.931602
     9  H    2.467228   1.928784   0.975998   3.125280   4.288135
    10  H    3.491392   2.118697   2.574671   1.083956   2.129202
    11  H    3.767282   3.106285   4.210826   1.894910   0.958185
                    6          7          8          9         10
     6  H    0.000000
     7  H    1.985291   0.000000
     8  H    1.745292   1.684221   0.000000
     9  H    3.315446   2.091771   3.220881   0.000000
    10  H    3.784706   4.277224   3.943511   3.517851   0.000000
    11  H    3.694331   4.849468   3.797697   4.987324   2.176363
                   11
    11  H    0.000000
 Stoichiometry    C3H6O2
 Framework group  C1[X(C3H6O2)]
 Deg. of freedom    27
 Full point group                 C1      NOp   1
 RotChk:  IX=0 Diff= 1.47D-02
 Largest Abelian subgroup         C1      NOp   1
 Largest concise Abelian subgroup C1      NOp   1
                         Standard orientation:                         
 ---------------------------------------------------------------------
 Center     Atomic      Atomic             Coordinates (Angstroms)
 Number     Number       Type             X           Y           Z
 ---------------------------------------------------------------------
      1          6           0       -0.650736    1.382245    0.009843
      2          6           0       -0.445630   -0.109510   -0.013464
      3          8           0       -1.539891   -0.926688    0.033408
      4          6           0        0.763225   -0.670273   -0.021478
      5          8           0        1.903070    0.132714    0.025124
      6          1           0       -0.088838    1.784198    0.929824
      7          1           0       -1.757285    1.603524   -0.130845
      8          1           0       -0.249793    1.943072   -0.800753
      9          1           0       -2.349046   -0.402765   -0.119384
     10          1           0        0.900714   -1.745430   -0.011727
     11          1           0        2.637666   -0.445581   -0.184782
 ---------------------------------------------------------------------
 Rotational constants (GHZ):      8.9202841      3.9214285      2.7723420
 Leave Link  202 at Tue Aug 30 09:23:51 2022, MaxMem=    23592960 cpu:         0.2
 (Enter /public/home/users/caep010/software/Gaussian09/g09/l301.exe)
 Standard basis: GTBas3 (6D, 7F)
 Ernie: Thresh=  0.10000D-02 Tol=  0.10000D-05 Strict=F.
 There are   185 symmetry adapted cartesian basis functions of A   symmetry.
 There are   170 symmetry adapted basis functions of A   symmetry.
   170 basis functions,   262 primitive gaussians,   185 cartesian basis functions
    20 alpha electrons       20 beta electrons
       nuclear repulsion energy       176.0998830612 Hartrees.
 IExCor=  402 DFT=T Ex+Corr=B3LYP ExCW=0 ScaHFX=  0.200000
 ScaDFX=  0.800000  0.720000  1.000000  0.810000 ScalE2=  1.000000  1.000000
 IRadAn=      0 IRanWt=     -1 IRanGd=            0 ICorTp=0 IEmpDi=  4
 NAtoms=   11 NActive=   11 NUniq=   11 SFac= 1.00D+00 NAtFMM=   60 NAOKFM=F Big=F
 Integral buffers will be    131072 words long.
 Raffenetti 2 integral format.
 Two-electron integral symmetry is turned on.
 Leave Link  301 at Tue Aug 30 09:23:51 2022, MaxMem=    23592960 cpu:         1.8
 (Enter /public/home/users/caep010/software/Gaussian09/g09/l302.exe)
 NPDir=0 NMtPBC=     1 NCelOv=     1 NCel=       1 NClECP=     1 NCelD=      1
         NCelK=      1 NCelE2=     1 NClLst=     1 CellRange=     0.0.
 One-electron integrals computed using PRISM.
 PrsmSu:  requested number of processors reduced to:   3 ShMem   1 Linda.
 PrsmSu:  requested number of processors reduced to:  11 ShMem   1 Linda.
 NBasis=   170 RedAO= T EigKep=  8.60D-04  NBF=   170
 NBsUse=   170 1.00D-06 EigRej= -1.00D+00 NBFU=   170
 Precomputing XC quadrature grid using
 IXCGrd= 4 IRadAn=           0 IRanWt=          -1 IRanGd=           0 AccXCQ= 0.00D+00.
 Generated NRdTot=       0 NPtTot=           0 NUsed=           0 NTot=          32
 NSgBfM=   185   185   185   185   185 MxSgAt=    11 MxSgA2=    11.
 Leave Link  302 at Tue Aug 30 09:23:52 2022, MaxMem=    23592960 cpu:         3.9
 (Enter /public/home/users/caep010/software/Gaussian09/g09/l303.exe)
 DipDrv:  MaxL=1.
 Leave Link  303 at Tue Aug 30 09:23:52 2022, MaxMem=    23592960 cpu:         0.7
 (Enter /public/home/users/caep010/software/Gaussian09/g09/l401.exe)
 Initial guess from the checkpoint file:  "G4.Frag_1093.chk"
 B after Tr=     0.000000   -0.000000    0.000000
         Rot=    0.999995    0.001835    0.002437    0.001014 Ang=   0.37 deg.
 Guess basis will be translated and rotated to current coordinates.
 JPrj=2 DoOrth=T DoCkMO=T.
 Generating alternative initial guess.
 ExpMin= 1.61D-01 ExpMax= 5.48D+03 ExpMxC= 8.25D+02 IAcc=1 IRadAn=         1 AccDes= 0.00D+00
 Harris functional with IExCor=  402 and IRadAn=       1 diagonalized for initial guess.
 HarFok:  IExCor=  402 AccDes= 0.00D+00 IRadAn=         1 IDoV= 1 UseB2=F ITyADJ=14
 ICtDFT=  3500011 ScaDFX=  1.000000  1.000000  1.000000  1.000000
 CalDSu:  requested number of processors reduced to:  21 ShMem   1 Linda.
 FoFCou: FMM=F IPFlag=           0 FMFlag=      100000 FMFlg1=           0
         NFxFlg=           0 DoJE=T BraDBF=F KetDBF=T FulRan=T
         wScrn=  0.000000 ICntrl=     500 IOpCl=  0 I1Cent=   200000004 NGrid=           0
         NMat0=    1 NMatS0=      1 NMatT0=    0 NMatD0=    1 NMtDS0=    0 NMtDT0=    0
 Petite list used in FoFCou.
 CoulSu:  requested number of processors reduced to:  11 ShMem   1 Linda.
 CoulSu:  requested number of processors reduced to:  11 ShMem   1 Linda.
 CoulSu:  requested number of processors reduced to:  12 ShMem   1 Linda.
 CoulSu:  requested number of processors reduced to:  12 ShMem   1 Linda.
 Harris En= -268.393056822491    
 Leave Link  401 at Tue Aug 30 09:23:52 2022, MaxMem=    23592960 cpu:         6.4
 (Enter /public/home/users/caep010/software/Gaussian09/g09/l502.exe)
 Closed shell SCF:
 Using DIIS extrapolation, IDIIS=  1040.
 Integral symmetry usage will be decided dynamically.
 IVT=      128495 IEndB=      128495 NGot=    23592960 MDV=    23515516
 LenX=    23515516 LenY=    23480850
 Requested convergence on RMS density matrix=1.00D-08 within 128 cycles.
 Requested convergence on MAX density matrix=1.00D-06.
 Requested convergence on             energy=1.00D-06.
 No special actions if energy rises.
 Fock matrices will be formed incrementally for  20 cycles.
 Integral accuracy reduced to 1.0D-05 until final iterations.

 Cycle   1  Pass 0  IDiag  1:
 FoFJK:  IHMeth= 1 ICntrl=       0 DoSepK=F KAlg= 0 I1Cent=   0 FoldK=F
 IRaf= 980000000 NMat=   1 IRICut=       1 DoRegI=T DoRafI=F ISym2E= 0.
 FoFCou: FMM=F IPFlag=           0 FMFlag=      100000 FMFlg1=           0
         NFxFlg=           0 DoJE=F BraDBF=F KetDBF=F FulRan=T
         wScrn=  0.000000 ICntrl=       0 IOpCl=  0 I1Cent=           0 NGrid=           0
         NMat0=    1 NMatS0=      1 NMatT0=    0 NMatD0=    1 NMtDS0=    0 NMtDT0=    0
 Symmetry not used in FoFCou.
 CoulSu:  requested number of processors reduced to:  11 ShMem   1 Linda.
 CalDSu:  requested number of processors reduced to:  21 ShMem   1 Linda.
 E= -268.346415621869    
 DIIS: error= 2.30D-03 at cycle   1 NSaved=   1.
 NSaved= 1 IEnMin= 1 EnMin= -268.346415621869     IErMin= 1 ErrMin= 2.30D-03
 ErrMax= 2.30D-03  0.00D+00 EMaxC= 1.00D-01 BMatC= 2.54D-03 BMatP= 2.54D-03
 IDIUse=3 WtCom= 9.77D-01 WtEn= 2.30D-02
 Coeff-Com:  0.100D+01
 Coeff-En:   0.100D+01
 Coeff:      0.100D+01
 Gap=     0.910 Goal=   None    Shift=    0.000
 GapD=    0.910 DampG=2.000 DampE=1.000 DampFc=2.0000 IDamp=-1.
 RMSDP=4.44D-04 MaxDP=1.21D-02              OVMax= 2.21D-02

 Cycle   2  Pass 0  IDiag  1:
 RMSU=  4.44D-04    CP:  1.00D+00
 CoulSu:  requested number of processors reduced to:  11 ShMem   1 Linda.
 CalDSu:  requested number of processors reduced to:  21 ShMem   1 Linda.
 E= -268.349403285876     Delta-E=       -0.002987664007 Rises=F Damp=F
 DIIS: error= 1.08D-03 at cycle   2 NSaved=   2.
 NSaved= 2 IEnMin= 2 EnMin= -268.349403285876     IErMin= 2 ErrMin= 1.08D-03
 ErrMax= 1.08D-03  0.00D+00 EMaxC= 1.00D-01 BMatC= 2.82D-04 BMatP= 2.54D-03
 IDIUse=3 WtCom= 9.89D-01 WtEn= 1.08D-02
 Coeff-Com:  0.135D+00 0.865D+00
 Coeff-En:   0.000D+00 0.100D+01
 Coeff:      0.133D+00 0.867D+00
 Gap=     0.238 Goal=   None    Shift=    0.000
 RMSDP=1.81D-04 MaxDP=5.98D-03 DE=-2.99D-03 OVMax= 1.29D-02

 Cycle   3  Pass 0  IDiag  1:
 RMSU=  1.74D-04    CP:  9.99D-01  8.88D-01
 CoulSu:  requested number of processors reduced to:  11 ShMem   1 Linda.
 CalDSu:  requested number of processors reduced to:  21 ShMem   1 Linda.
 E= -268.349358595404     Delta-E=        0.000044690472 Rises=F Damp=F
 DIIS: error= 1.07D-03 at cycle   3 NSaved=   3.
 NSaved= 3 IEnMin= 2 EnMin= -268.349403285876     IErMin= 3 ErrMin= 1.07D-03
 ErrMax= 1.07D-03  0.00D+00 EMaxC= 1.00D-01 BMatC= 3.27D-04 BMatP= 2.82D-04
 IDIUse=3 WtCom= 2.34D-01 WtEn= 7.66D-01
 Coeff-Com: -0.402D-03 0.520D+00 0.481D+00
 Coeff-En:   0.000D+00 0.534D+00 0.466D+00
 Coeff:     -0.941D-04 0.530D+00 0.470D+00
 Gap=     0.237 Goal=   None    Shift=    0.000
 RMSDP=1.14D-04 MaxDP=4.49D-03 DE= 4.47D-05 OVMax= 1.00D-02

 Cycle   4  Pass 0  IDiag  1:
 RMSU=  4.41D-05    CP:  1.00D+00  9.86D-01  4.47D-01
 CoulSu:  requested number of processors reduced to:  11 ShMem   1 Linda.
 CalDSu:  requested number of processors reduced to:  21 ShMem   1 Linda.
 E= -268.349667103700     Delta-E=       -0.000308508296 Rises=F Damp=F
 DIIS: error= 2.33D-04 at cycle   4 NSaved=   4.
 NSaved= 4 IEnMin= 4 EnMin= -268.349667103700     IErMin= 4 ErrMin= 2.33D-04
 ErrMax= 2.33D-04  0.00D+00 EMaxC= 1.00D-01 BMatC= 1.91D-05 BMatP= 2.82D-04
 IDIUse=3 WtCom= 9.98D-01 WtEn= 2.33D-03
 Coeff-Com: -0.912D-02 0.242D+00 0.264D+00 0.503D+00
 Coeff-En:   0.000D+00 0.000D+00 0.000D+00 0.100D+01
 Coeff:     -0.910D-02 0.241D+00 0.263D+00 0.504D+00
 Gap=     0.237 Goal=   None    Shift=    0.000
 RMSDP=3.06D-05 MaxDP=1.33D-03 DE=-3.09D-04 OVMax= 2.69D-03

 Cycle   5  Pass 0  IDiag  1:
 RMSU=  1.54D-05    CP:  1.00D+00  9.83D-01  5.12D-01  4.57D-01
 CoulSu:  requested number of processors reduced to:  11 ShMem   1 Linda.
 CalDSu:  requested number of processors reduced to:  21 ShMem   1 Linda.
 E= -268.349684061883     Delta-E=       -0.000016958182 Rises=F Damp=F
 DIIS: error= 6.91D-05 at cycle   5 NSaved=   5.
 NSaved= 5 IEnMin= 5 EnMin= -268.349684061883     IErMin= 5 ErrMin= 6.91D-05
 ErrMax= 6.91D-05  0.00D+00 EMaxC= 1.00D-01 BMatC= 1.49D-06 BMatP= 1.91D-05
 IDIUse=1 WtCom= 1.00D+00 WtEn= 0.00D+00
 Coeff-Com: -0.401D-02 0.383D-01 0.552D-01 0.249D+00 0.662D+00
 Coeff:     -0.401D-02 0.383D-01 0.552D-01 0.249D+00 0.662D+00
 Gap=     0.237 Goal=   None    Shift=    0.000
 RMSDP=7.80D-06 MaxDP=2.59D-04 DE=-1.70D-05 OVMax= 5.22D-04

 Initial convergence to 1.0D-05 achieved.  Increase integral accuracy.
 Cycle   6  Pass 1  IDiag  1:
 CoulSu:  requested number of processors reduced to:  11 ShMem   1 Linda.
 CalDSu:  requested number of processors reduced to:  21 ShMem   1 Linda.
 E= -268.349714438149     Delta-E=       -0.000030376266 Rises=F Damp=F
 DIIS: error= 1.08D-05 at cycle   1 NSaved=   1.
 NSaved= 1 IEnMin= 1 EnMin= -268.349714438149     IErMin= 1 ErrMin= 1.08D-05
 ErrMax= 1.08D-05  0.00D+00 EMaxC= 1.00D-01 BMatC= 7.93D-08 BMatP= 7.93D-08
 IDIUse=1 WtCom= 1.00D+00 WtEn= 0.00D+00
 Coeff-Com:  0.100D+01
 Coeff:      0.100D+01
 Gap=     0.237 Goal=   None    Shift=    0.000
 RMSDP=7.80D-06 MaxDP=2.59D-04 DE=-3.04D-05 OVMax= 9.67D-05

 Cycle   7  Pass 1  IDiag  1:
 RMSU=  5.03D-06    CP:  1.00D+00
 CoulSu:  requested number of processors reduced to:  11 ShMem   1 Linda.
 CalDSu:  requested number of processors reduced to:  21 ShMem   1 Linda.
 E= -268.349714430466     Delta-E=        0.000000007683 Rises=F Damp=F
 DIIS: error= 1.69D-05 at cycle   2 NSaved=   2.
 NSaved= 2 IEnMin= 1 EnMin= -268.349714438149     IErMin= 1 ErrMin= 1.08D-05
 ErrMax= 1.69D-05  0.00D+00 EMaxC= 1.00D-01 BMatC= 9.56D-08 BMatP= 7.93D-08
 IDIUse=1 WtCom= 1.00D+00 WtEn= 0.00D+00
 Coeff-Com:  0.527D+00 0.473D+00
 Coeff:      0.527D+00 0.473D+00
 Gap=     0.237 Goal=   None    Shift=    0.000
 RMSDP=1.92D-06 MaxDP=7.19D-05 DE= 7.68D-09 OVMax= 5.88D-05

 Cycle   8  Pass 1  IDiag  1:
 RMSU=  1.42D-06    CP:  1.00D+00  7.43D-01
 CoulSu:  requested number of processors reduced to:  11 ShMem   1 Linda.
 CalDSu:  requested number of processors reduced to:  21 ShMem   1 Linda.
 E= -268.349714498806     Delta-E=       -0.000000068340 Rises=F Damp=F
 DIIS: error= 4.85D-06 at cycle   3 NSaved=   3.
 NSaved= 3 IEnMin= 3 EnMin= -268.349714498806     IErMin= 3 ErrMin= 4.85D-06
 ErrMax= 4.85D-06  0.00D+00 EMaxC= 1.00D-01 BMatC= 6.58D-09 BMatP= 7.93D-08
 IDIUse=1 WtCom= 1.00D+00 WtEn= 0.00D+00
 Coeff-Com:  0.578D-01 0.214D+00 0.728D+00
 Coeff:      0.578D-01 0.214D+00 0.728D+00
 Gap=     0.237 Goal=   None    Shift=    0.000
 RMSDP=5.72D-07 MaxDP=1.91D-05 DE=-6.83D-08 OVMax= 2.57D-05

 Cycle   9  Pass 1  IDiag  1:
 RMSU=  3.48D-07    CP:  1.00D+00  8.08D-01  7.81D-01
 CoulSu:  requested number of processors reduced to:  11 ShMem   1 Linda.
 CalDSu:  requested number of processors reduced to:  21 ShMem   1 Linda.
 E= -268.349714502906     Delta-E=       -0.000000004100 Rises=F Damp=F
 DIIS: error= 1.13D-06 at cycle   4 NSaved=   4.
 NSaved= 4 IEnMin= 4 EnMin= -268.349714502906     IErMin= 4 ErrMin= 1.13D-06
 ErrMax= 1.13D-06  0.00D+00 EMaxC= 1.00D-01 BMatC= 6.81D-10 BMatP= 6.58D-09
 IDIUse=1 WtCom= 1.00D+00 WtEn= 0.00D+00
 Coeff-Com: -0.546D-03 0.829D-01 0.368D+00 0.550D+00
 Coeff:     -0.546D-03 0.829D-01 0.368D+00 0.550D+00
 Gap=     0.237 Goal=   None    Shift=    0.000
 RMSDP=2.00D-07 MaxDP=9.95D-06 DE=-4.10D-09 OVMax= 1.79D-05

 Cycle  10  Pass 1  IDiag  1:
 RMSU=  1.13D-07    CP:  1.00D+00  8.06D-01  8.30D-01  5.71D-01
 CoulSu:  requested number of processors reduced to:  11 ShMem   1 Linda.
 CalDSu:  requested number of processors reduced to:  21 ShMem   1 Linda.
 E= -268.349714503439     Delta-E=       -0.000000000534 Rises=F Damp=F
 DIIS: error= 5.25D-07 at cycle   5 NSaved=   5.
 NSaved= 5 IEnMin= 5 EnMin= -268.349714503439     IErMin= 5 ErrMin= 5.25D-07
 ErrMax= 5.25D-07  0.00D+00 EMaxC= 1.00D-01 BMatC= 1.25D-10 BMatP= 6.81D-10
 IDIUse=1 WtCom= 1.00D+00 WtEn= 0.00D+00
 Coeff-Com: -0.588D-02 0.331D-01 0.165D+00 0.351D+00 0.457D+00
 Coeff:     -0.588D-02 0.331D-01 0.165D+00 0.351D+00 0.457D+00
 Gap=     0.237 Goal=   None    Shift=    0.000
 RMSDP=6.96D-08 MaxDP=3.23D-06 DE=-5.34D-10 OVMax= 6.79D-06

 Cycle  11  Pass 1  IDiag  1:
 RMSU=  2.51D-08    CP:  1.00D+00  8.09D-01  8.19D-01  6.21D-01  4.88D-01
 CoulSu:  requested number of processors reduced to:  11 ShMem   1 Linda.
 CalDSu:  requested number of processors reduced to:  21 ShMem   1 Linda.
 E= -268.349714503567     Delta-E=       -0.000000000127 Rises=F Damp=F
 DIIS: error= 7.97D-08 at cycle   6 NSaved=   6.
 NSaved= 6 IEnMin= 6 EnMin= -268.349714503567     IErMin= 6 ErrMin= 7.97D-08
 ErrMax= 7.97D-08  0.00D+00 EMaxC= 1.00D-01 BMatC= 2.70D-12 BMatP= 1.25D-10
 IDIUse=1 WtCom= 1.00D+00 WtEn= 0.00D+00
 Coeff-Com: -0.274D-02 0.116D-01 0.598D-01 0.137D+00 0.213D+00 0.581D+00
 Coeff:     -0.274D-02 0.116D-01 0.598D-01 0.137D+00 0.213D+00 0.581D+00
 Gap=     0.237 Goal=   None    Shift=    0.000
 RMSDP=1.08D-08 MaxDP=3.90D-07 DE=-1.27D-10 OVMax= 5.58D-07

 Cycle  12  Pass 1  IDiag  1:
 RMSU=  7.42D-09    CP:  1.00D+00  8.09D-01  8.20D-01  6.27D-01  5.17D-01
                    CP:  7.31D-01
 CoulSu:  requested number of processors reduced to:  11 ShMem   1 Linda.
 CalDSu:  requested number of processors reduced to:  21 ShMem   1 Linda.
 E= -268.349714503567     Delta-E=       -0.000000000001 Rises=F Damp=F
 DIIS: error= 1.64D-08 at cycle   7 NSaved=   7.
 NSaved= 7 IEnMin= 7 EnMin= -268.349714503567     IErMin= 7 ErrMin= 1.64D-08
 ErrMax= 1.64D-08  0.00D+00 EMaxC= 1.00D-01 BMatC= 1.29D-13 BMatP= 2.70D-12
 IDIUse=1 WtCom= 1.00D+00 WtEn= 0.00D+00
 Coeff-Com: -0.342D-03 0.548D-03 0.346D-02 0.999D-02 0.253D-01 0.197D+00
 Coeff-Com:  0.764D+00
 Coeff:     -0.342D-03 0.548D-03 0.346D-02 0.999D-02 0.253D-01 0.197D+00
 Coeff:      0.764D+00
 Gap=     0.237 Goal=   None    Shift=    0.000
 RMSDP=2.39D-09 MaxDP=7.57D-08 DE=-8.53D-13 OVMax= 8.36D-08

 SCF Done:  E(RB3LYP) =  -268.349714504     A.U. after   12 cycles
            NFock= 12  Conv=0.24D-08     -V/T= 2.0070
 KE= 2.664769957447D+02 PE=-9.809930355720D+02 EE= 2.700664422625D+02
 Leave Link  502 at Tue Aug 30 09:23:57 2022, MaxMem=    23592960 cpu:        77.8
 (Enter /public/home/users/caep010/software/Gaussian09/g09/l701.exe)
 Compute integral first derivatives.
 ... and contract with generalized density number  0.
 PrsmSu:  requested number of processors reduced to:   3 ShMem   1 Linda.
 PrsmSu:  requested number of processors reduced to:   6 ShMem   1 Linda.
 Leave Link  701 at Tue Aug 30 09:23:57 2022, MaxMem=    23592960 cpu:         1.7
 (Enter /public/home/users/caep010/software/Gaussian09/g09/l702.exe)
 L702 exits ... SP integral derivatives will be done elsewhere.
 Leave Link  702 at Tue Aug 30 09:23:57 2022, MaxMem=    23592960 cpu:         0.5
 (Enter /public/home/users/caep010/software/Gaussian09/g09/l703.exe)
 Compute integral first derivatives, UseDBF=F ICtDFT=           0.
 Integral derivatives from FoFJK, PRISM(SPDF).
 Calling FoFJK, ICntrl=      2127 FMM=F ISym2X=0 I1Cent= 0 IOpClX= 0 NMat=1 NMatS=1 NMatT=0.
 FoFJK:  IHMeth= 1 ICntrl=    2127 DoSepK=F KAlg= 0 I1Cent=   0 FoldK=F
 IRaf=         0 NMat=   1 IRICut=       1 DoRegI=T DoRafI=F ISym2E= 0.
 FoFCou: FMM=F IPFlag=           0 FMFlag=      100000 FMFlg1=         800
         NFxFlg=           0 DoJE=F BraDBF=F KetDBF=F FulRan=T
         wScrn=  0.000000 ICntrl=    2127 IOpCl=  0 I1Cent=           0 NGrid=           0
         NMat0=    1 NMatS0=      1 NMatT0=    0 NMatD0=    1 NMtDS0=    0 NMtDT0=    0
 Symmetry not used in FoFCou.
 CoulSu:  requested number of processors reduced to:   6 ShMem   1 Linda.
 CalDSu:  requested number of processors reduced to:  18 ShMem   1 Linda.
 Leave Link  703 at Tue Aug 30 09:23:59 2022, MaxMem=    23592960 cpu:        14.7
 (Enter /public/home/users/caep010/software/Gaussian09/g09/l716.exe)
 Dipole        =-7.70019694D-02 1.04714847D-01-2.42811401D-01
 ***** Axes restored to original set *****
 -------------------------------------------------------------------
 Center     Atomic                   Forces (Hartrees/Bohr)
 Number     Number              X              Y              Z
 -------------------------------------------------------------------
      1        6          -0.015570942    0.012757646   -0.019255604
      2        6           0.005438610   -0.010804457    0.003749594
      3        8          -0.016646223    0.005875372    0.007530844
      4        6           0.000735738   -0.006582690   -0.003411261
      5        8          -0.003064864    0.009830891    0.005225582
      6        1          -0.019937423    0.007795418    0.028315400
      7        1           0.013197050   -0.000659474   -0.027142325
      8        1           0.018581438   -0.016006271    0.012241670
      9        1           0.014609401    0.000827756   -0.005291462
     10        1           0.000143029    0.000235505   -0.000348992
     11        1           0.002514188   -0.003269695   -0.001613446
 -------------------------------------------------------------------
 Cartesian Forces:  Max     0.028315400 RMS     0.011906385
 Leave Link  716 at Tue Aug 30 09:23:59 2022, MaxMem=    23592960 cpu:         0.6
 (Enter /public/home/users/caep010/software/Gaussian09/g09/l103.exe)

 GradGradGradGradGradGradGradGradGradGradGradGradGradGradGradGradGradGrad
 Berny optimization.
 Using GEDIIS/GDIIS optimizer.
 FormGI is forming the generalized inverse of G from B-inverse, IUseBI=4.
 Internal  Forces:  Max     0.030849957 RMS     0.009938047
 Search for a local minimum.
 Step number   2 out of a maximum of   48
 All quantities printed in internal units (Hartrees-Bohrs-Radians)
 RMS Force = .99380D-02 SwitMx=.10000D-02 MixMth= 1
 Mixed Optimization -- RFO/linear search
 Update second derivatives using D2CorX and points    1    2
 DE= -2.76D-02 DEPred=-2.61D-02 R= 1.06D+00
 TightC=F SS=  1.41D+00  RLast= 3.21D-01 DXNew= 5.0454D-01 9.6266D-01
 Trust test= 1.06D+00 RLast= 3.21D-01 DXMaxT set to 5.05D-01
 ITU=  1  0
 Use linear search instead of GDIIS.
     Eigenvalues ---    0.00656   0.01697   0.01700   0.02218   0.02609
     Eigenvalues ---    0.03013   0.07016   0.07126   0.14162   0.15991
     Eigenvalues ---    0.16000   0.16000   0.16000   0.16503   0.21412
     Eigenvalues ---    0.22017   0.24987   0.24988   0.25123   0.31549
     Eigenvalues ---    0.35555   0.45094   0.46653   0.48083   0.52877
     Eigenvalues ---    0.57039   0.59521
 RFO step:  Lambda=-2.23257282D-03 EMin= 6.55949133D-03
 Quartic linear search produced a step of  0.94553.
 Iteration  1 RMS(Cart)=  0.06897467 RMS(Int)=  0.00480157
 Iteration  2 RMS(Cart)=  0.00440084 RMS(Int)=  0.00152262
 Iteration  3 RMS(Cart)=  0.00001743 RMS(Int)=  0.00152250
 Iteration  4 RMS(Cart)=  0.00000003 RMS(Int)=  0.00152250
 ITry= 1 IFail=0 DXMaxC= 2.43D-01 DCOld= 1.00D+10 DXMaxT= 5.05D-01 DXLimC= 3.00D+00 Rises=F
 Variable       Old X    -DE/DX   Delta X   Delta X   Delta X     New X
                                 (Linear)    (Quad)   (Total)
    R1        2.84587   0.00040  -0.00419   0.00942   0.00523   2.85110
    R2        2.17414  -0.03085  -0.13238  -0.02460  -0.15698   2.01716
    R3        2.14898  -0.02288  -0.08845  -0.01905  -0.10750   2.04148
    R4        2.01089   0.02321   0.08691  -0.03713   0.04978   2.06068
    R5        2.58235   0.00728   0.01125   0.00926   0.02051   2.60287
    R6        2.51827   0.00035   0.00427  -0.00537  -0.00111   2.51716
    R7        1.84437  -0.01545  -0.04776   0.01136  -0.03640   1.80797
    R8        2.63629  -0.00710  -0.00770  -0.01793  -0.02563   2.61066
    R9        2.04838   0.00021   0.00053   0.00029   0.00081   2.04919
   R10        1.81071   0.00201   0.00869  -0.00645   0.00224   1.81294
    A1        1.86704   0.01325   0.05826   0.02042   0.08166   1.94870
    A2        1.90007   0.00652   0.02606   0.01833   0.04716   1.94723
    A3        2.04761  -0.01975  -0.10585  -0.00554  -0.10668   1.94093
    A4        2.10154  -0.02036  -0.12831  -0.05848  -0.18583   1.91571
    A5        1.81417   0.00429   0.03401   0.00320   0.04188   1.85605
    A6        1.74146   0.01202   0.08789   0.01692   0.10912   1.85059
    A7        2.07460  -0.00044  -0.00370   0.00328  -0.00050   2.07410
    A8        2.14179  -0.00000  -0.00068   0.00144   0.00068   2.14247
    A9        2.06572   0.00043   0.00403  -0.00336   0.00058   2.06630
   A10        1.91505  -0.00334  -0.02797   0.01428  -0.01369   1.90136
   A11        2.09297  -0.00051  -0.00025  -0.00385  -0.00416   2.08882
   A12        2.13222   0.00037   0.00249  -0.00091   0.00153   2.13375
   A13        2.05667   0.00013  -0.00262   0.00605   0.00337   2.06004
   A14        1.84595   0.00714   0.06068  -0.03222   0.02845   1.87440
    D1        2.11220  -0.00520  -0.04807  -0.01970  -0.06628   2.04592
    D2       -0.97888  -0.00498  -0.03923  -0.05158  -0.08933  -1.06821
    D3       -0.18419   0.00646   0.05366   0.02690   0.07923  -0.10496
    D4        3.00792   0.00668   0.06250  -0.00497   0.05618   3.06410
    D5       -2.14320  -0.00185  -0.01977  -0.00410  -0.02400  -2.16719
    D6        1.04891  -0.00163  -0.01093  -0.03597  -0.04705   1.00186
    D7        0.21628   0.00009   0.00149  -0.00276  -0.00126   0.21502
    D8       -2.97360  -0.00013  -0.00706   0.02785   0.02078  -2.95283
    D9        0.02748  -0.00015  -0.00378   0.01014   0.00637   0.03385
   D10        3.11265  -0.00034  -0.01257   0.03796   0.02538   3.13803
   D11       -3.06384   0.00009   0.00519  -0.02176  -0.01656  -3.08040
   D12        0.02133  -0.00010  -0.00360   0.00606   0.00246   0.02379
   D13       -2.92830   0.00004  -0.00545   0.03430   0.02887  -2.89942
   D14        0.26731   0.00022   0.00284   0.00788   0.01070   0.27801
         Item               Value     Threshold  Converged?
 Maximum Force            0.030850     0.000450     NO 
 RMS     Force            0.009938     0.000300     NO 
 Maximum Displacement     0.243314     0.001800     NO 
 RMS     Displacement     0.069318     0.001200     NO 
 Predicted change in Energy=-1.132463D-02
 Lowest energy point so far.  Saving SCF results.
 GradGradGradGradGradGradGradGradGradGradGradGradGradGradGradGradGradGrad

 Leave Link  103 at Tue Aug 30 09:23:59 2022, MaxMem=    23592960 cpu:         1.5
 (Enter /public/home/users/caep010/software/Gaussian09/g09/l202.exe)
                          Input orientation:                          
 ---------------------------------------------------------------------
 Center     Atomic      Atomic             Coordinates (Angstroms)
 Number     Number       Type             X           Y           Z
 ---------------------------------------------------------------------
      1          6           0       -1.066272   -0.712427   -0.075089
      2          6           0       -0.143222    0.446320    0.210519
      3          8           0       -0.671296    1.599696    0.747202
      4          6           0        1.160064    0.413836   -0.062758
      5          8           0        1.704397   -0.702133   -0.668452
      6          1           0       -1.097458   -0.943657   -1.116712
      7          1           0       -2.066179   -0.522220    0.286946
      8          1           0       -0.730224   -1.618326    0.430408
      9          1           0       -1.563425    1.423678    1.044641
     10          1           0        1.815597    1.252788    0.142992
     11          1           0        2.657918   -0.637556   -0.584698
 ---------------------------------------------------------------------
                    Distance matrix (angstroms):
                    1          2          3          4          5
     1  C    0.000000
     2  C    1.508737   0.000000
     3  O    2.485574   1.377377   0.000000
     4  C    2.495034   1.332025   2.327268   0.000000
     5  O    2.833513   2.346322   3.598112   1.381503   0.000000
     6  H    1.067436   2.145727   3.181892   2.837255   2.847747
     7  H    1.080306   2.154454   2.580709   3.377446   3.893892
     8  H    1.090463   2.157704   3.234115   2.818881   2.823878
     9  H    2.462499   1.915193   0.956737   3.108618   4.258218
    10  H    3.494967   2.119415   2.582644   1.084387   2.119557
    11  H    3.759641   3.107015   4.226455   1.903001   0.959368
                    6          7          8          9         10
     6  H    0.000000
     7  H    1.756783   0.000000
     8  H    1.727315   1.734014   0.000000
     9  H    3.239267   2.147879   3.213300   0.000000
    10  H    3.859678   4.270779   3.848001   3.501423   0.000000
    11  H    3.805205   4.805222   3.670403   4.972240   2.193727
                   11
    11  H    0.000000
 Stoichiometry    C3H6O2
 Framework group  C1[X(C3H6O2)]
 Deg. of freedom    27
 Full point group                 C1      NOp   1
 RotChk:  IX=0 Diff= 1.51D-02
 Largest Abelian subgroup         C1      NOp   1
 Largest concise Abelian subgroup C1      NOp   1
                         Standard orientation:                         
 ---------------------------------------------------------------------
 Center     Atomic      Atomic             Coordinates (Angstroms)
 Number     Number       Type             X           Y           Z
 ---------------------------------------------------------------------
      1          6           0       -0.644210    1.387324    0.003962
      2          6           0       -0.441231   -0.107671   -0.004950
      3          8           0       -1.546950   -0.928424    0.025308
      4          6           0        0.765772   -0.671061   -0.010180
      5          8           0        1.893083    0.126338    0.033147
      6          1           0       -0.222203    1.836900    0.875288
      7          1           0       -1.690308    1.646515   -0.070601
      8          1           0       -0.155994    1.856796   -0.850643
      9          1           0       -2.328372   -0.403079   -0.144221
     10          1           0        0.902294   -1.746815   -0.013310
     11          1           0        2.643537   -0.425181   -0.197140
 ---------------------------------------------------------------------
 Rotational constants (GHZ):      8.8946465      3.9420620      2.7793698
 Leave Link  202 at Tue Aug 30 09:23:59 2022, MaxMem=    23592960 cpu:         0.2
 (Enter /public/home/users/caep010/software/Gaussian09/g09/l301.exe)
 Standard basis: GTBas3 (6D, 7F)
 Ernie: Thresh=  0.10000D-02 Tol=  0.10000D-05 Strict=F.
 There are   185 symmetry adapted cartesian basis functions of A   symmetry.
 There are   170 symmetry adapted basis functions of A   symmetry.
   170 basis functions,   262 primitive gaussians,   185 cartesian basis functions
    20 alpha electrons       20 beta electrons
       nuclear repulsion energy       176.6012915388 Hartrees.
 IExCor=  402 DFT=T Ex+Corr=B3LYP ExCW=0 ScaHFX=  0.200000
 ScaDFX=  0.800000  0.720000  1.000000  0.810000 ScalE2=  1.000000  1.000000
 IRadAn=      0 IRanWt=     -1 IRanGd=            0 ICorTp=0 IEmpDi=  4
 NAtoms=   11 NActive=   11 NUniq=   11 SFac= 1.00D+00 NAtFMM=   60 NAOKFM=F Big=F
 Integral buffers will be    131072 words long.
 Raffenetti 2 integral format.
 Two-electron integral symmetry is turned on.
 Leave Link  301 at Tue Aug 30 09:23:59 2022, MaxMem=    23592960 cpu:         1.7
 (Enter /public/home/users/caep010/software/Gaussian09/g09/l302.exe)
 NPDir=0 NMtPBC=     1 NCelOv=     1 NCel=       1 NClECP=     1 NCelD=      1
         NCelK=      1 NCelE2=     1 NClLst=     1 CellRange=     0.0.
 One-electron integrals computed using PRISM.
 PrsmSu:  requested number of processors reduced to:   3 ShMem   1 Linda.
 PrsmSu:  requested number of processors reduced to:  11 ShMem   1 Linda.
 NBasis=   170 RedAO= T EigKep=  8.58D-04  NBF=   170
 NBsUse=   170 1.00D-06 EigRej= -1.00D+00 NBFU=   170
 Precomputing XC quadrature grid using
 IXCGrd= 4 IRadAn=           0 IRanWt=          -1 IRanGd=           0 AccXCQ= 0.00D+00.
 Generated NRdTot=       0 NPtTot=           0 NUsed=           0 NTot=          32
 NSgBfM=   185   185   185   185   185 MxSgAt=    11 MxSgA2=    11.
 Leave Link  302 at Tue Aug 30 09:23:59 2022, MaxMem=    23592960 cpu:         4.3
 (Enter /public/home/users/caep010/software/Gaussian09/g09/l303.exe)
 DipDrv:  MaxL=1.
 Leave Link  303 at Tue Aug 30 09:24:00 2022, MaxMem=    23592960 cpu:         0.7
 (Enter /public/home/users/caep010/software/Gaussian09/g09/l401.exe)
 Initial guess from the checkpoint file:  "G4.Frag_1093.chk"
 B after Tr=     0.000000   -0.000000   -0.000000
         Rot=    0.999991    0.003044    0.002915    0.001090 Ang=   0.50 deg.
 Guess basis will be translated and rotated to current coordinates.
 JPrj=2 DoOrth=T DoCkMO=T.
 Generating alternative initial guess.
 ExpMin= 1.61D-01 ExpMax= 5.48D+03 ExpMxC= 8.25D+02 IAcc=1 IRadAn=         1 AccDes= 0.00D+00
 Harris functional with IExCor=  402 and IRadAn=       1 diagonalized for initial guess.
 HarFok:  IExCor=  402 AccDes= 0.00D+00 IRadAn=         1 IDoV= 1 UseB2=F ITyADJ=14
 ICtDFT=  3500011 ScaDFX=  1.000000  1.000000  1.000000  1.000000
 CalDSu:  requested number of processors reduced to:  21 ShMem   1 Linda.
 FoFCou: FMM=F IPFlag=           0 FMFlag=      100000 FMFlg1=           0
         NFxFlg=           0 DoJE=T BraDBF=F KetDBF=T FulRan=T
         wScrn=  0.000000 ICntrl=     500 IOpCl=  0 I1Cent=   200000004 NGrid=           0
         NMat0=    1 NMatS0=      1 NMatT0=    0 NMatD0=    1 NMtDS0=    0 NMtDT0=    0
 Petite list used in FoFCou.
 CoulSu:  requested number of processors reduced to:  11 ShMem   1 Linda.
 CoulSu:  requested number of processors reduced to:  11 ShMem   1 Linda.
 CoulSu:  requested number of processors reduced to:  12 ShMem   1 Linda.
 CoulSu:  requested number of processors reduced to:  12 ShMem   1 Linda.
 Harris En= -268.410231714339    
 Leave Link  401 at Tue Aug 30 09:24:00 2022, MaxMem=    23592960 cpu:         6.2
 (Enter /public/home/users/caep010/software/Gaussian09/g09/l502.exe)
 Closed shell SCF:
 Using DIIS extrapolation, IDIIS=  1040.
 Integral symmetry usage will be decided dynamically.
 IVT=      128495 IEndB=      128495 NGot=    23592960 MDV=    23515516
 LenX=    23515516 LenY=    23480850
 Requested convergence on RMS density matrix=1.00D-08 within 128 cycles.
 Requested convergence on MAX density matrix=1.00D-06.
 Requested convergence on             energy=1.00D-06.
 No special actions if energy rises.
 Fock matrices will be formed incrementally for  20 cycles.
 Integral accuracy reduced to 1.0D-05 until final iterations.

 Cycle   1  Pass 0  IDiag  1:
 FoFJK:  IHMeth= 1 ICntrl=       0 DoSepK=F KAlg= 0 I1Cent=   0 FoldK=F
 IRaf= 980000000 NMat=   1 IRICut=       1 DoRegI=T DoRafI=F ISym2E= 0.
 FoFCou: FMM=F IPFlag=           0 FMFlag=      100000 FMFlg1=           0
         NFxFlg=           0 DoJE=F BraDBF=F KetDBF=F FulRan=T
         wScrn=  0.000000 ICntrl=       0 IOpCl=  0 I1Cent=           0 NGrid=           0
         NMat0=    1 NMatS0=      1 NMatT0=    0 NMatD0=    1 NMtDS0=    0 NMtDT0=    0
 Symmetry not used in FoFCou.
 CoulSu:  requested number of processors reduced to:  11 ShMem   1 Linda.
[...]
 Alpha virt. eigenvalues --    4.22205   4.24170   4.26723   4.26984   4.30460
 Alpha virt. eigenvalues --    4.31676   4.33660   4.36783   4.38175   4.40756
 Alpha virt. eigenvalues --    4.42328   4.44984   4.50242   4.50931   4.52925
 Alpha virt. eigenvalues --    4.55784   4.57344   4.60607   4.63485   4.69275
 Alpha virt. eigenvalues --    4.70691   4.76385   4.78664   4.83726   4.84200
 Alpha virt. eigenvalues --    4.85743   4.89859   4.93345   4.97144   4.98948
 Alpha virt. eigenvalues --    5.03918   5.05433   5.07763   5.09954   5.12554
 Alpha virt. eigenvalues --    5.16005   5.17166   5.17820   5.21715   5.28896
 Alpha virt. eigenvalues --    5.30866   5.38741   5.39016   5.42135   5.48350
 Alpha virt. eigenvalues --    5.48702   5.50998   5.58242   5.60722   5.62040
 Alpha virt. eigenvalues --    5.68458   5.73545   5.80195   5.85459   5.90743
 Alpha virt. eigenvalues --    5.94336   5.99527   6.04632   6.08992   6.17109
 Alpha virt. eigenvalues --    6.21216   6.22055   6.29672   6.31047   6.36920
 Alpha virt. eigenvalues --    6.45472   6.45773   6.54120   6.55947   6.62069
 Alpha virt. eigenvalues --    6.68421   6.70496   6.75466   6.78670   6.85137
 Alpha virt. eigenvalues --    6.88398   6.91353   6.92076   6.95443   6.98933
 Alpha virt. eigenvalues --    7.07979   7.08709   7.11782   7.21178   7.25991
 Alpha virt. eigenvalues --    7.27499   7.31174   7.38432   7.42815   7.45427
 Alpha virt. eigenvalues --    7.47294   7.51343   7.55934   7.58498   7.60058
 Alpha virt. eigenvalues --    7.63833   7.68747   7.72989   7.77066   7.82622
 Alpha virt. eigenvalues --    7.86429   7.88614   7.89102   7.90987   7.93841
 Alpha virt. eigenvalues --    7.98176   8.02557   8.04616   8.06377   8.07564
 Alpha virt. eigenvalues --    8.09301   8.15382   8.17609   8.22185   8.26597
 Alpha virt. eigenvalues --    8.28937   8.29722   8.30892   8.35029   8.36494
 Alpha virt. eigenvalues --    8.39410   8.42373   8.45439   8.51002   8.52444
 Alpha virt. eigenvalues --    8.57996   8.59946   8.61377   8.62370   8.66871
 Alpha virt. eigenvalues --    8.69321   8.70089   8.76817   8.77815   8.79617
 Alpha virt. eigenvalues --    8.83555   8.85198   8.87532   8.88757   8.89738
 Alpha virt. eigenvalues --    8.93628   8.93854   8.95007   8.98266   8.99893
 Alpha virt. eigenvalues --    9.00650   9.03113   9.07187   9.09995   9.10751
 Alpha virt. eigenvalues --    9.15314   9.17569   9.21434   9.23739   9.26494
 Alpha virt. eigenvalues --    9.28174   9.33248   9.33630   9.36652   9.40218
 Alpha virt. eigenvalues --    9.42489   9.45410   9.47462   9.49234   9.52407
 Alpha virt. eigenvalues --    9.57636   9.58360   9.60300   9.61680   9.64645
 Alpha virt. eigenvalues --    9.67666   9.70961   9.74410   9.75290   9.80906
 Alpha virt. eigenvalues --    9.85412   9.88555   9.91086   9.94288  10.03144
 Alpha virt. eigenvalues --   10.06537  10.08551  10.14367  10.15776  10.19713
 Alpha virt. eigenvalues --   10.21542  10.23630  10.24737  10.26976  10.30974
 Alpha virt. eigenvalues --   10.33188  10.39156  10.42721  10.45487  10.47412
 Alpha virt. eigenvalues --   10.53330  10.53805  10.56640  10.60568  10.63423
 Alpha virt. eigenvalues --   10.65817  10.68968  10.72018  10.72147  10.77999
 Alpha virt. eigenvalues --   10.81011  10.82794  10.85096  10.87872  10.89804
 Alpha virt. eigenvalues --   10.96563  10.99009  11.06398  11.08594  11.11930
 Alpha virt. eigenvalues --   11.12264  11.14326  11.17407  11.21235  11.23454
 Alpha virt. eigenvalues --   11.24257  11.26745  11.36202  11.37567  11.38914
 Alpha virt. eigenvalues --   11.41799  11.48626  11.53747  11.55247  11.67280
 Alpha virt. eigenvalues --   11.67830  11.79149  11.81567  11.86302  11.88104
 Alpha virt. eigenvalues --   11.92745  11.96449  11.98490  11.99259  12.00760
 Alpha virt. eigenvalues --   12.07817  12.11001  12.14184  12.18356  12.21229
 Alpha virt. eigenvalues --   12.26329  12.27476  12.46982  12.52646  12.59693
 Alpha virt. eigenvalues --   12.64570  12.71401  12.82988  12.84881  12.89118
 Alpha virt. eigenvalues --   12.97133  13.07400  13.19682  13.24075  13.30165
 Alpha virt. eigenvalues --   13.39743  13.46138  13.54823  13.58609  13.76376
 Alpha virt. eigenvalues --   13.88278  13.97377  14.30318  14.35814  14.37520
 Alpha virt. eigenvalues --   14.40319  14.50597  14.59767  14.75364  14.76438
 Alpha virt. eigenvalues --   14.81851  14.94635  15.00353  15.04731  15.11227
 Alpha virt. eigenvalues --   15.12460  15.21661  15.29438  15.42038  15.50096
 Alpha virt. eigenvalues --   15.56056  15.62163  15.66064  15.73998  15.79550
 Alpha virt. eigenvalues --   15.83558  15.85075  15.93235  16.30091  16.49065
 Alpha virt. eigenvalues --   16.51991  16.52928  16.58393  16.71916  16.90701
 Alpha virt. eigenvalues --   17.50125  17.54142  17.60388  17.97756  18.07913
 Alpha virt. eigenvalues --   18.57929  18.61392  18.75555  18.77944  18.81179
 Alpha virt. eigenvalues --   18.83899  19.09200  19.10149  19.12885  19.13489
 Alpha virt. eigenvalues --   19.34744  19.37950  19.39771  19.41134  19.45412
 Alpha virt. eigenvalues --   19.48156  19.51826  19.56404  19.59192  19.62808
 Alpha virt. eigenvalues --   19.72052  19.74233  19.97676  20.01724  20.05064
 Alpha virt. eigenvalues --   20.07610  20.12139  20.13888  20.45492  20.55852
 Alpha virt. eigenvalues --   21.14608  21.20020  22.40108  22.41552  22.47934
 Alpha virt. eigenvalues --   22.51025  23.01399  23.08662  23.19993  23.24151
 Alpha virt. eigenvalues --   23.73808  23.82707  23.99330  24.12232  39.01339
 Alpha virt. eigenvalues --   40.52997  41.54373  63.23979  63.33268
          Condensed to atoms (all electrons):
               1          2          3          4          5          6
     1  C    5.046615   0.351639  -0.016773  -0.073058  -0.014020   0.423203
     2  C    0.351639   4.795790   0.189076   0.717747  -0.087495  -0.042988
     3  O   -0.016773   0.189076   8.199381  -0.090316   0.006271   0.006023
     4  C   -0.073058   0.717747  -0.090316   4.884133   0.211126  -0.002173
     5  O   -0.014020  -0.087495   0.006271   0.211126   8.196720   0.000322
     6  H    0.423203  -0.042988   0.006023  -0.002173   0.000322   0.482230
     7  H    0.404268  -0.032945  -0.015212  -0.002207   0.002259  -0.033648
     8  H    0.413946  -0.022789   0.004412  -0.001650  -0.008437  -0.016097
     9  H   -0.015234  -0.001314   0.273986   0.000116  -0.000146  -0.002911
    10  H    0.001324  -0.043782  -0.002649   0.424682  -0.032816  -0.000511
    11  H   -0.001197   0.000079  -0.000663  -0.016726   0.282678  -0.000357
               7          8          9         10         11
     1  C    0.404268   0.413946  -0.015234   0.001324  -0.001197
     2  C   -0.032945  -0.022789  -0.001314  -0.043782   0.000079
     3  O   -0.015212   0.004412   0.273986  -0.002649  -0.000663
     4  C   -0.002207  -0.001650   0.000116   0.424682  -0.016726
     5  O    0.002259  -0.008437  -0.000146  -0.032816   0.282678
     6  H   -0.033648  -0.016097  -0.002911  -0.000511  -0.000357
     7  H    0.522100  -0.019336   0.008883   0.000314   0.000649
     8  H   -0.019336   0.437070   0.000266  -0.000487  -0.000067
     9  H    0.008883   0.000266   0.364366   0.000522   0.000305
    10  H    0.000314  -0.000487   0.000522   0.463287  -0.003322
    11  H    0.000649  -0.000067   0.000305  -0.003322   0.362764
 Mulliken charges:
               1
     1  C   -0.520712
     2  C    0.176981
     3  O   -0.553535
     4  C   -0.051674
     5  O   -0.556462
     6  H    0.186906
     7  H    0.164873
     8  H    0.213169
     9  H    0.371159
    10  H    0.193436
    11  H    0.375858
 Sum of Mulliken charges =  -0.00000
 Mulliken charges with hydrogens summed into heavy atoms:
               1
     1  C    0.044237
     2  C    0.176981
     3  O   -0.182376
     4  C    0.141762
     5  O   -0.180604
 Electronic spatial extent (au):  <R**2>=            448.9141
 Charge=              0.0000 electrons
 Dipole moment (field-independent basis, Debye):
    X=             -0.2060    Y=              0.5479    Z=             -1.4209  Tot=              1.5368
 Quadrupole moment (field-independent basis, Debye-Ang):
   XX=            -23.5573   YY=            -31.0677   ZZ=            -31.7112
   XY=             -5.3571   XZ=             -1.1645   YZ=              0.6276
 Traceless Quadrupole moment (field-independent basis, Debye-Ang):
   XX=              5.2215   YY=             -2.2890   ZZ=             -2.9325
   XY=             -5.3571   XZ=             -1.1645   YZ=              0.6276
 Octapole moment (field-independent basis, Debye-Ang**2):
  XXX=              3.5282  YYY=             -1.7747  ZZZ=              0.1829  XYY=              5.7046
  XXY=             -5.3198  XXZ=            -11.3587  XZZ=             -0.0088  YZZ=              0.4023
  YYZ=             -0.1195  XYZ=             -0.2095
 Hexadecapole moment (field-independent basis, Debye-Ang**3):
 XXXX=           -234.3494 YYYY=           -187.1174 ZZZZ=            -40.5759 XXXY=             -8.1671
 XXXZ=            -11.3140 YYYX=             -0.9129 YYYZ=              0.2556 ZZZX=             -0.8980
 ZZZY=              0.5203 XXYY=            -88.0900 XXZZ=            -58.4827 YYZZ=            -38.5896
 XXYZ=              3.9379 YYXZ=             -0.1806 ZZXY=             -0.1685
 N-N= 1.762820131794D+02 E-N=-9.807808503805D+02  KE= 2.665952896664D+02
 PrsmSu:  requested number of processors reduced to:   1 ShMem   1 Linda.
 No NMR shielding tensors so no spin-rotation constants.
 Leave Link  601 at Tue Aug 30 11:30:57 2022, MaxMem=    23592960 cpu:         8.9
 (Enter /public/home/users/caep010/software/Gaussian09/g09/l9999.exe)
 1\1\GINC-B0933\SP\RHF\GFHFB2\C3H6O2\ROOT\30-Aug-2022\0\\#P Geom=AllChe
 ck Guess=TCheck SCRF=Check HF/GFHFB2 SCF=Tight\\Frag_1093\\0,1\C,0,-1.
 0687127699,-0.7185547354,-0.0751166852\C,0,-0.1463655024,0.4430679828,
 0.1194350539\O,0,-0.7199180659,1.656883658,0.4369054037\C,0,1.17526356
 21,0.4030981852,-0.0517245219\O,0,1.8046773745,-0.7215771172,-0.542795
 8699\H,0,-1.7625911529,-0.5408694514,-0.9061922782\H,0,-1.6758590992,-
 0.8927567423,0.8249597207\H,0,-0.4993418247,-1.6247440486,-0.284937821
 \H,0,-1.5651227031,1.4881418064,0.8641146453\H,0,1.7829668744,1.289626
 1208,0.109276878\H,0,2.674903307,-0.7823166583,-0.1389245254\\Version=
 ES64L-G09RevE.01\State=1-A\HF=-266.9124965\RMSD=4.521e-09\Dipole=-0.09
 94343,-0.2955801,0.5179855\Quadrupole=6.070748,-3.6851677,-2.3855802,0
 .0424471,-0.0514998,-0.3510023\PG=C01 [X(C3H6O2)]\\@


 VIRTUE IS LEARNED AT YOUR MOTHER'S KNEE,
 VICES ARE PICKED UP AT SOME OTHER JOINT.
 Diagonal vibrational polarizability:
        0.0000000       0.0000000       0.0000000

 Temperature=              298.150000 Pressure=                      1.000000
 E(ZPE)=                     0.087508 E(Thermal)=                    0.093919
 E(CCSD(T))=              -267.573808 E(Empiric)=                   -0.104205
 DE(Plus)=                  -0.023776 DE(2DF)=                      -0.226387
 E(Delta-G3XP)=             -0.337814 DE(HF)=                       -0.028369
 G4(0 K)=                 -268.206851 G4 Energy=                  -268.200440
 G4 Enthalpy=             -268.199496 G4 Free Energy=             -268.235999
 1\1\GINC-B0933\Mixed\G4\G4\C3H6O2\ROOT\30-Aug-2022\0\\#P Geom=AllCheck
  Guess=TCheck SCRF=Check HF/GFHFB2 SCF=Tight\\Frag_1093\\0,1\C,0,-1.06
 87127699,-0.7185547354,-0.0751166852\C,0,-0.1463655024,0.4430679828,0.
 1194350539\O,0,-0.7199180659,1.656883658,0.4369054037\C,0,1.1752635621
 ,0.4030981852,-0.0517245219\O,0,1.8046773745,-0.7215771172,-0.54279586
 99\H,0,-1.7625911529,-0.5408694514,-0.9061922782\H,0,-1.6758590992,-0.
 8927567423,0.8249597207\H,0,-0.4993418247,-1.6247440486,-0.284937821\H
 ,0,-1.5651227031,1.4881418064,0.8641146453\H,0,1.7829668744,1.28962612
 08,0.109276878\H,0,2.674903307,-0.7823166583,-0.1389245254\\Version=ES
 64L-G09RevE.01\State=1-A\MP2/GTBas1=-267.513292\MP4/GTBas1=-267.573761
 1\CCSD(T)/G3Bas1=-267.5738078\MP2/GTBas2=-267.5357169\MP4/GTBas2=-267.
 5975373\MP2/GTBas3=-267.7271493\MP4/GTBas3=-267.8001478\HF/GTLargeXP=-
 266.8852955\MP2/GTLargeXP=-268.0873883\HF/GFHFB1=-266.9077018\HF/GFHFB
 2=-266.9124965\G4=-268.2068507\FreqCoord=-2.0195744499,-1.3578716614,-
 0.1419499631,-0.2765907148,0.8372771458,0.2256995425,-1.3604479826,3.1
 310563476,0.825631559,2.2209262664,0.7617451747,-0.0977451807,3.410345
 9961,-1.3635831353,-1.0257355402,-3.3308145632,-1.0220951368,-1.712455
 2296,-3.1669147347,-1.6870657462,1.5589479428,-0.9436192953,-3.0703212
 88,-0.5384544465,-2.9576532732,2.812180461,1.632940027,3.3693190966,2.
 4370401822,0.2065033721,5.0548346821,-1.4783642335,-0.2625293061\PG=C0
 1 [X(C3H6O2)]\NImag=0\\0.53753168,-0.05184641,0.53117957,-0.00847426,0
 .00505249,0.52604473,-0.14463836,-0.05926557,-0.00814891,0.88274917,-0
 .06830699,-0.15579374,-0.01280211,-0.00709475,0.53072233,-0.00769397,-
 0.01423577,-0.07672037,-0.09906996,0.09054823,0.19302986,0.00876600,-0
 .01526802,-0.00238205,-0.13459247,0.08906136,0.03724610,0.54869645,0.0
 2150001,-0.03928942,-0.01075270,0.04400765,-0.24373064,-0.03373362,-0.
 01511163,0.35296156,0.00524618,-0.00954139,0.00085108,0.03360648,-0.05
 675730,-0.05410171,-0.24514963,0.02375671,0.14136146,-0.01980515,-0.00
 812914,0.00166230,-0.52937113,-0.00797793,0.05034892,-0.02044937,0.013
 56745,0.00744478,0.88272040,-0.02707510,0.00718112,0.00035967,-0.00961
 318,-0.10709299,-0.01030291,0.04759157,-0.00301291,-0.01010714,0.02805
 895,0.57402119,-0.00491857,0.00093606,0.00784924,0.06136740,-0.0180763
 5,-0.06274918,0.00967033,0.00253568,0.00368376,-0.07972737,0.13588126,
 0.16309101,0.00142367,0.00099515,0.00013184,-0.01560438,0.03744967,0.0
 1879307,-0.01107317,0.00666460,0.00257805,-0.14271393,0.09358410,0.038
 50246,0.58272037,-0.00124268,-0.00376333,0.00193418,0.00734042,0.00248
 887,-0.00671094,0.00583698,-0.00791345,-0.00073587,0.06286040,-0.22218
 749,-0.09102911,-0.13611874,0.28349507,-0.00181932,-0.00029106,-0.0040
 5151,0.00154155,-0.00080577,-0.00153937,0.00587559,-0.01088561,0.00688
 530,0.01720341,-0.07455615,-0.07168160,0.15563082,0.10838685,0.1743774
 1,-0.14311534,0.02973446,-0.12254826,-0.02075760,0.00173551,-0.0151394
 5,0.00202622,0.00045268,0.00139916,0.00208525,-0.00385884,-0.00181343,
 -0.00057531,0.00133332,0.00015226,0.15925257,0.02894222,-0.05418076,0.
 03249513,-0.02073101,0.00422623,-0.02202303,0.00129477,0.00210121,0.00
 205799,0.00095034,-0.00428332,-0.00139806,-0.00066768,0.00199981,-0.00
 015210,-0.02763671,0.05567346,-0.12191468,0.03430990,-0.19377402,-0.00
 396638,-0.00102995,0.00001979,0.00098923,-0.00036824,0.00069611,0.0016
 3453,-0.00112408,-0.00057960,-0.00052452,0.00080848,0.00047302,0.13544
 580,-0.03707885,0.21014992,-0.11669214,-0.01876941,0.11266654,-0.01934
 041,-0.00428982,0.01756608,0.00173722,0.00129351,-0.00165827,0.0018086
 6,-0.00343785,-0.00050388,-0.00098184,0.00046919,0.00056937,0.01136112
 ,0.00289355,-0.01665078,0.13068341,-0.01986092,-0.05295185,0.03161669,
 -0.01761968,-0.00548070,0.02240027,-0.00027670,0.00291323,-0.00014618,
 0.00049810,-0.00420128,-0.00151140,0.00039702,0.00097601,0.00135961,-0
 .00296817,-0.00141347,0.00532524,0.02621718,0.05458764,0.11194324,0.02
 896828,-0.21518467,-0.00115034,-0.00170406,0.00687056,-0.00152344,0.00
 162842,0.00110906,-0.00121616,0.00000350,-0.00011156,0.00034409,-0.000
 20776,0.00015304,0.01387281,0.00285909,-0.02152336,-0.12454605,-0.0341
 8019,0.23450665,-0.12323796,0.12267739,0.02785220,0.01534271,-0.015006
 42,-0.00399808,-0.00233282,-0.00616850,-0.00139258,0.00050242,-0.00084
 260,-0.00015728,-0.00237254,0.00004590,0.00067279,-0.01003718,0.015046
 77,0.00509498,-0.00873956,0.01298947,0.00178361,0.13132322,0.11671856,
 -0.23488156,-0.04360435,0.01726849,-0.02016949,-0.00479149,-0.00352251
 ,-0.00473439,-0.00162139,0.00076293,-0.00160381,-0.00082963,0.00036445
 ,0.00171739,0.00091670,0.00177211,-0.00359992,-0.00074995,-0.00369611,
 0.00584912,0.00111603,-0.12934904,0.25640842,0.02701698,-0.04407551,-0
 .05610377,0.00244755,-0.00325587,-0.00322465,-0.00016910,-0.00124879,0
 .00186623,-0.00000933,-0.00019074,-0.00005209,0.00039108,0.00084904,-0
 .00030039,-0.01257935,0.02173031,0.00561105,0.01332272,-0.02288955,-0.
 00497958,-0.02989606,0.04866595,0.05738310,0.00387209,-0.00176588,-0.0
 0201044,-0.02263765,-0.00258608,0.00750671,-0.39591103,-0.06273639,0.1
 9787243,0.00124593,0.00389952,0.00307362,0.00041071,-0.00163072,-0.001
 74765,0.00024416,0.00006218,-0.00039637,0.00076802,0.00115034,0.000860
 41,-0.00069170,-0.00105920,-0.00058114,0.41266178,0.00103612,0.0019724
 0,-0.00209923,0.04436949,-0.00131897,-0.02006945,-0.11089001,-0.060482
 01,0.05286936,-0.00004895,-0.00587385,-0.00210731,0.00145416,0.0001051
 2,0.00066565,-0.00017369,-0.00017649,-0.00014951,-0.00087211,-0.001100
 48,0.00137918,-0.00007154,0.00022149,0.00064740,0.06467581,0.06691139,
 -0.00161144,0.00115616,0.00204928,0.01061160,0.00358654,-0.00742389,0.
 19617850,0.02774478,-0.09783014,-0.00068408,-0.00020563,-0.00116204,0.
 00065711,-0.00085746,0.00201490,-0.00021976,-0.00052461,-0.00101242,0.
 00019043,-0.00035149,-0.00038899,0.00014947,0.00093328,-0.00015838,-0.
 20513517,-0.03091118,0.10451306,-0.00392468,0.00209788,0.00195703,-0.0
 1139364,-0.02807083,-0.00459453,0.00245851,-0.00070670,-0.00080798,-0.
 15511003,-0.12821100,-0.02020626,0.01061602,0.01941103,0.00551561,-0.0
 0051574,-0.00038684,0.00005813,-0.00085548,-0.00080755,-0.00029288,0.0
 0030384,0.00031872,0.00007376,0.00032404,0.00016200,-0.00016097,0.1554
 5551,0.00079571,0.00118625,-0.00303105,0.00167432,0.00063706,-0.000976
 23,-0.00002114,0.00136193,0.00185984,-0.13206539,-0.22378523,-0.036414
 73,-0.00595897,-0.02818791,-0.00679049,-0.00043717,-0.00053253,-0.0000
 0733,0.00037131,0.00064399,0.00020864,0.00028236,0.00010531,-0.0000190
 4,-0.00006807,0.00011030,0.00012869,0.13639173,0.24760832,0.00181833,-
 0.00257546,0.00944408,0.00154277,0.00400428,0.00646500,-0.00102847,0.0
 0010945,-0.00476173,-0.01753792,-0.03372348,-0.04089672,-0.00378390,-0
 .01543751,-0.00089808,0.00160787,0.00206033,0.00004832,-0.00105711,-0.
 00141168,-0.00049162,0.00007396,0.00008355,-0.00008165,0.00013055,-0.0
 0001674,-0.00097315,0.01852763,0.04615179,0.03206467,-0.00017981,-0.00
 046046,-0.00070600,0.00024377,0.00508629,-0.00096488,0.00067448,-0.002
 76268,0.00086136,-0.02091304,-0.00009558,-0.00528702,-0.42184958,0.041
 69489,-0.18359442,0.00003185,0.00023241,0.00023007,0.00025102,0.000280
 91,-0.00007530,-0.00006043,0.00042161,-0.00001712,-0.00028635,0.000358
 73,0.00002431,0.00264165,-0.00096469,-0.00029370,0.43944645,-0.0006605
 1,-0.00065867,0.00083130,-0.00033620,-0.00448796,-0.00010507,0.0013053
 2,-0.00017509,-0.00163463,0.04152325,-0.00916144,0.01201358,0.00183624
 ,-0.02873009,-0.01784763,0.00004648,0.00018577,0.00006428,-0.00017944,
 0.00017778,-0.00007114,0.00039622,0.00068745,-0.00021320,0.00005850,-0
 .00036891,-0.00069909,-0.00019844,0.00085250,0.00075547,-0.04379144,0.
 04167866,0.00040751,0.00029630,-0.00040408,0.00121826,-0.00370764,-0.0
 0062603,0.00029293,0.00121392,0.00024056,0.02088092,-0.00603431,0.0026
 0877,-0.21272010,0.00300009,-0.10543271,-0.00017765,-0.00002621,-0.000
 10881,0.00010095,-0.00021133,0.00004045,-0.00018302,-0.00011869,0.0000
 4012,0.00042705,-0.00020817,0.00037176,-0.00006954,-0.00111010,0.00008
 087,0.18982270,0.00690613,0.10318911\\0.00000792,-0.00001647,-0.000002
 78,-0.00000889,0.00004257,0.00000728,0.00001108,-0.00003304,-0.0000069
 3,-0.00000216,-0.00000046,-0.00000004,-0.00000152,-0.00000663,-0.00000
 231,-0.00000507,0.00000138,0.00000253,-0.00000053,0.00000438,0.0000037
 7,-0.00000623,0.00000565,0.00000545,0.00000359,0.00000407,-0.00000184,
 0.00000322,-0.00000186,-0.00000354,-0.00000139,0.00000041,-0.00000158\
 \\@
 Job cpu time:       0 days  1 hours 25 minutes 14.4 seconds.
 File lengths (MBytes):  RWF=   5593 Int=      0 D2E=      0 Chk=     23 Scr=      1
 Normal termination of Gaussian 09 at Tue Aug 30 11:30:58 2022.
