 Entering Gaussian System, Link 0=g09
 Input=G4.Frag_507.gjf
 Output=G4.Frag_507.log
 Initial command:
 /public/home/users/caep010/software/Gaussian09/g09/l1.exe "/public/home/users/caep010/.cache/gau_scr/Gau-176847.inp" -scrdir="/public/home/users/caep010/.cache/gau_scr/"
 Entering Link 1 = /public/home/users/caep010/software/Gaussian09/g09/l1.exe PID=    176848.
  
 Copyright (c) 1988,1990,1992,1993,1995,1998,2003,2009,2015,
            Gaussian, Inc.  All Rights Reserved.
  
 This is part of the Gaussian(R) 09 program.  It is based on
 the Gaussian(R) 03 system (copyright 2003, Gaussian, Inc.),
 the Gaussian(R) 98 system (copyright 1998, Gaussian, Inc.),
 the Gaussian(R) 94 system (copyright 1995, Gaussian, Inc.),
 the Gaussian 92(TM) system (copyright 1992, Gaussian, Inc.),
 the Gaussian 90(TM) system (copyright 1990, Gaussian, Inc.),
 the Gaussian 88(TM) system (copyright 1988, Gaussian, Inc.),
 the Gaussian 86(TM) system (copyright 1986, Carnegie Mellon
 University), and the Gaussian 82(TM) system (copyright 1983,
 Carnegie Mellon University). Gaussian is a federally registered
 trademark of Gaussian, Inc.
  
 This software contains proprietary and confidential information,
 including trade secrets, belonging to Gaussian, Inc.
  
 This software is provided under written license and may be
 used, copied, transmitted, or stored only in accord with that
 written license.
  
 The following legend is applicable only to US Government
 contracts under FAR:
  
                    RESTRICTED RIGHTS LEGEND
  
 Use, reproduction and disclosure by the US Government is
 subject to restrictions as set forth in subparagraphs (a)
 and (c) of the Commercial Computer Software - Restricted
 Rights clause in FAR 52.227-19.
  
 Gaussian, Inc.
 340 Quinnipiac St., Bldg. 40, Wallingford CT 06492
  
  
 ---------------------------------------------------------------
 Warning -- This program may not be used in any manner that
 competes with the business of Gaussian, Inc. or will provide
 assistance to any competitor of Gaussian, Inc.  The licensee
 of this program is prohibited from giving any competitor of
 Gaussian, Inc. access to this program.  By using this program,
 the user acknowledges that Gaussian, Inc. is engaged in the
 business of creating and licensing software in the field of
 computational chemistry and represents and warrants to the
 licensee that it is not a competitor of Gaussian, Inc. and that
 it will not use this program in any manner prohibited above.
 ---------------------------------------------------------------
  

 Cite this work as:
 Gaussian 09, Revision E.01,
 M. J. Frisch, G. W. Trucks, H. B. Schlegel, G. E. Scuseria, 
 M. A. Robb, J. R. Cheeseman, G. Scalmani, V. Barone, B. Mennucci, 
 G. A. Petersson, H. Nakatsuji, M. Caricato, X. Li, H. P. Hratchian, 
 A. F. Izmaylov, J. Bloino, G. Zheng, J. L. Sonnenberg, M. Hada, 
 M. Ehara, K. Toyota, R. Fukuda, J. Hasegawa, M. Ishida, T. Nakajima, 
 Y. Honda, O. Kitao, H. Nakai, T. Vreven, J. A. Montgomery, Jr., 
 J. E. Peralta, F. Ogliaro, M. Bearpark, J. J. Heyd, E. Brothers, 
 K. N. Kudin, V. N. Staroverov, T. Keith, R. Kobayashi, J. Normand, 
 K. Raghavachari, A. Rendell, J. C. Burant, S. S. Iyengar, J. Tomasi, 
 M. Cossi, N. Rega, J. M. Millam, M. Klene, J. E. Knox, J. B. Cross, 
 V. Bakken, C. Adamo, J. Jaramillo, R. Gomperts, R. E. Stratmann, 
 O. Yazyev, A. J. Austin, R. Cammi, C. Pomelli, J. W. Ochterski, 
 R. L. Martin, K. Morokuma, V. G. Zakrzewski, G. A. Voth, 
 P. Salvador, J. J. Dannenberg, S. Dapprich, A. D. Daniels, 
 O. Farkas, J. B. Foresman, J. V. Ortiz, J. Cioslowski, 
 and D. J. Fox, Gaussian, Inc., Wallingford CT, 2013.
 
 ******************************************
 Gaussian 09:  ES64L-G09RevE.01 30-Nov-2015
                26-Aug-2022 
 ******************************************
 %nproc=32
 Will use up to   32 processors via shared memory.
 %mem=180GB
 %chk=G4.Frag_507.chk
 -----
 #P G4
 -----
 1/14=-1,18=20,19=15,26=3,38=1/1,3;
 2/9=110,12=2,17=6,18=5,40=1/2;
 3/5=35,7=104,11=2,16=1,25=1,30=1,71=1,74=-5/1,2,3;
 4//1;
 5/5=2,38=5/2;
 6/7=2,8=2,9=2,10=2,28=1/1;
 7//1,2,3,16;
 1/14=-1,18=20,19=15,26=3/3(2);
 2/9=110/2;
 99//99;
 2/9=110/2;
 3/5=35,7=104,11=2,16=1,25=1,30=1,71=1,74=-5/1,2,3;
 4/5=5,16=3,69=1/1;
 5/5=2,38=5/2;
 7//1,2,3,16;
 1/14=-1,18=20,19=15,26=3/3(-5);
 2/9=110/2;
 6/7=2,8=2,9=2,10=2,19=2,28=1/1;
 99/9=1/99;
 Leave Link    1 at Fri Aug 26 14:40:51 2022, MaxMem= 24159191040 cpu:         2.5
 (Enter /public/home/users/caep010/software/Gaussian09/g09/l101.exe)
 --------
 Frag_507
 --------
 Symbolic Z-matrix:
 Charge =  0 Multiplicity = 1
 C                     1.4021    0.2511   -0.3752 
 C                     0.4021   -0.6263   -0.3357 
 C                    -0.9202   -0.2832    0.2076 
 O                    -1.83     -1.1542    0.2198 
 O                    -1.1773    0.9909    0.7077 
 H                     2.3605   -0.042    -0.7836 
 H                     1.2834    1.262    -0.0063 
 H                     0.5676   -1.6268   -0.7166 
 H                    -2.0881    1.2283    1.0823 
 
 NAtoms=      9 NQM=        9 NQMF=       0 NMMI=      0 NMMIF=      0
                NMic=       0 NMicF=      0.
                    Isotopes and Nuclear Properties:
 (Nuclear quadrupole moments (NQMom) in fm**2, nuclear magnetic moments (NMagM)
  in nuclear magnetons)

  Atom         1           2           3           4           5           6           7           8           9
 IAtWgt=          12          12          12          16          16           1           1           1           1
 AtmWgt=  12.0000000  12.0000000  12.0000000  15.9949146  15.9949146   1.0078250   1.0078250   1.0078250   1.0078250
 NucSpn=           0           0           0           0           0           1           1           1           1
 AtZEff=   0.0000000   0.0000000   0.0000000   0.0000000   0.0000000   0.0000000   0.0000000   0.0000000   0.0000000
 NQMom=    0.0000000   0.0000000   0.0000000   0.0000000   0.0000000   0.0000000   0.0000000   0.0000000   0.0000000
 NMagM=    0.0000000   0.0000000   0.0000000   0.0000000   0.0000000   2.7928460   2.7928460   2.7928460   2.7928460
 AtZNuc=   6.0000000   6.0000000   6.0000000   8.0000000   8.0000000   1.0000000   1.0000000   1.0000000   1.0000000
 Leave Link  101 at Fri Aug 26 14:40:52 2022, MaxMem= 24159191040 cpu:         9.8
 (Enter /public/home/users/caep010/software/Gaussian09/g09/l103.exe)

 GradGradGradGradGradGradGradGradGradGradGradGradGradGradGradGradGradGrad
 Berny optimization.
 Initialization pass.
                           ----------------------------
                           !    Initial Parameters    !
                           ! (Angstroms and Degrees)  !
 --------------------------                            --------------------------
 ! Name  Definition              Value          Derivative Info.                !
 --------------------------------------------------------------------------------
 ! R1    R(1,2)                  1.3309         estimate D2E/DX2                !
 ! R2    R(1,6)                  1.0822         estimate D2E/DX2                !
 ! R3    R(1,7)                  1.0826         estimate D2E/DX2                !
 ! R4    R(2,3)                  1.4702         estimate D2E/DX2                !
 ! R5    R(2,8)                  1.0833         estimate D2E/DX2                !
 ! R6    R(3,4)                  1.2596         estimate D2E/DX2                !
 ! R7    R(3,5)                  1.3927         estimate D2E/DX2                !
 ! R8    R(5,9)                  1.013          estimate D2E/DX2                !
 ! A1    A(2,1,6)              119.8703         estimate D2E/DX2                !
 ! A2    A(2,1,7)              121.538          estimate D2E/DX2                !
 ! A3    A(6,1,7)              118.5917         estimate D2E/DX2                !
 ! A4    A(1,2,3)              122.2018         estimate D2E/DX2                !
 ! A5    A(1,2,8)              118.9233         estimate D2E/DX2                !
 ! A6    A(3,2,8)              118.8749         estimate D2E/DX2                !
 ! A7    A(2,3,4)              119.463          estimate D2E/DX2                !
 ! A8    A(2,3,5)              120.814          estimate D2E/DX2                !
 ! A9    A(4,3,5)              119.723          estimate D2E/DX2                !
 ! A10   A(3,5,9)              120.8744         estimate D2E/DX2                !
 ! D1    D(6,1,2,3)           -179.9941         estimate D2E/DX2                !
 ! D2    D(6,1,2,8)              0.0004         estimate D2E/DX2                !
 ! D3    D(7,1,2,3)             -0.0019         estimate D2E/DX2                !
 ! D4    D(7,1,2,8)            179.9925         estimate D2E/DX2                !
 ! D5    D(1,2,3,4)           -179.9988         estimate D2E/DX2                !
 ! D6    D(1,2,3,5)             -0.0023         estimate D2E/DX2                !
 ! D7    D(8,2,3,4)              0.0067         estimate D2E/DX2                !
 ! D8    D(8,2,3,5)           -179.9968         estimate D2E/DX2                !
 ! D9    D(2,3,5,9)           -179.9985         estimate D2E/DX2                !
 ! D10   D(4,3,5,9)             -0.002          estimate D2E/DX2                !
 --------------------------------------------------------------------------------
 Trust Radius=3.00D-01 FncErr=1.00D-07 GrdErr=1.00D-06
 Number of steps in this run=     38 maximum allowed number of steps=    100.
 GradGradGradGradGradGradGradGradGradGradGradGradGradGradGradGradGradGrad

 Leave Link  103 at Fri Aug 26 14:40:52 2022, MaxMem= 24159191040 cpu:         0.4
 (Enter /public/home/users/caep010/software/Gaussian09/g09/l202.exe)
                          Input orientation:                          
 ---------------------------------------------------------------------
 Center     Atomic      Atomic             Coordinates (Angstroms)
 Number     Number       Type             X           Y           Z
 ---------------------------------------------------------------------
      1          6           0        1.402100    0.251100   -0.375200
      2          6           0        0.402100   -0.626300   -0.335700
      3          6           0       -0.920200   -0.283200    0.207600
      4          8           0       -1.830000   -1.154200    0.219800
      5          8           0       -1.177300    0.990900    0.707700
      6          1           0        2.360500   -0.042000   -0.783600
      7          1           0        1.283400    1.262000   -0.006300
      8          1           0        0.567600   -1.626800   -0.716600
      9          1           0       -2.088100    1.228300    1.082300
 ---------------------------------------------------------------------
                    Distance matrix (angstroms):
                    1          2          3          4          5
     1  C    0.000000
     2  C    1.330936   0.000000
     3  C    2.453204   1.470160   0.000000
     4  O    3.574264   2.359985   1.259574   0.000000
     5  O    2.893662   2.489683   1.392671   2.294672   0.000000
     6  H    1.082233   2.092212   3.435644   4.450179   3.975788
     7  H    1.082634   2.109709   2.699861   3.947455   2.576497
     8  H    2.083135   1.083271   2.207477   2.616999   3.453355
     9  H    3.906497   3.413409   2.100886   2.546925   1.013035
                    6          7          8          9
     6  H    0.000000
     7  H    1.861385   0.000000
     8  H    2.393861   3.059749   0.000000
     9  H    4.988515   3.543049   4.294226   0.000000
 Stoichiometry    C3H4O2
 Framework group  C1[X(C3H4O2)]
 Deg. of freedom    21
 Full point group                 C1      NOp   1
 Largest Abelian subgroup         C1      NOp   1
 Largest concise Abelian subgroup C1      NOp   1
                         Standard orientation:                         
 ---------------------------------------------------------------------
 Center     Atomic      Atomic             Coordinates (Angstroms)
 Number     Number       Type             X           Y           Z
 ---------------------------------------------------------------------
      1          6           0       -1.926200    0.199983   -0.000018
      2          6           0       -0.878973   -0.621422   -0.000016
      3          6           0        0.505235   -0.126106    0.000017
      4          8           0        1.458035   -0.949937   -0.000005
      5          8           0        0.773954    1.240394   -0.000001
      6          1           0       -2.929484   -0.205786    0.000054
      7          1           0       -1.802304    1.275504    0.000036
      8          1           0       -1.051906   -1.690800    0.000053
      9          1           0        1.727402    1.582703   -0.000000
 ---------------------------------------------------------------------
 Rotational constants (GHZ):      9.8500004      4.3425518      3.0138439
 Leave Link  202 at Fri Aug 26 14:40:52 2022, MaxMem= 24159191040 cpu:         0.7
 (Enter /public/home/users/caep010/software/Gaussian09/g09/l301.exe)
 Standard basis: GTBas3 (6D, 7F)
 Ernie: Thresh=  0.10000D-02 Tol=  0.10000D-05 Strict=F.
 There are   175 symmetry adapted cartesian basis functions of A   symmetry.
 There are   160 symmetry adapted basis functions of A   symmetry.
   160 basis functions,   248 primitive gaussians,   175 cartesian basis functions
    19 alpha electrons       19 beta electrons
       nuclear repulsion energy       159.6608279493 Hartrees.
 IExCor=  402 DFT=T Ex+Corr=B3LYP ExCW=0 ScaHFX=  0.200000
 ScaDFX=  0.800000  0.720000  1.000000  0.810000 ScalE2=  1.000000  1.000000
 IRadAn=      0 IRanWt=     -1 IRanGd=            0 ICorTp=0 IEmpDi=  4
 NAtoms=    9 NActive=    9 NUniq=    9 SFac= 1.00D+00 NAtFMM=   60 NAOKFM=F Big=F
 Integral buffers will be    131072 words long.
 Raffenetti 2 integral format.
 Two-electron integral symmetry is turned on.
 Leave Link  301 at Fri Aug 26 14:40:52 2022, MaxMem= 24159191040 cpu:         1.9
 (Enter /public/home/users/caep010/software/Gaussian09/g09/l302.exe)
 NPDir=0 NMtPBC=     1 NCelOv=     1 NCel=       1 NClECP=     1 NCelD=      1
         NCelK=      1 NCelE2=     1 NClLst=     1 CellRange=     0.0.
 One-electron integrals computed using PRISM.
 NBasis=   160 RedAO= T EigKep=  8.73D-04  NBF=   160
 NBsUse=   160 1.00D-06 EigRej= -1.00D+00 NBFU=   160
 Precomputing XC quadrature grid using
 IXCGrd= 4 IRadAn=           0 IRanWt=          -1 IRanGd=           0 AccXCQ= 0.00D+00.
 Generated NRdTot=       0 NPtTot=           0 NUsed=           0 NTot=          32
 NSgBfM=   175   175   175   175   175 MxSgAt=     9 MxSgA2=     9.
 Leave Link  302 at Fri Aug 26 14:40:53 2022, MaxMem= 24159191040 cpu:        19.9
 (Enter /public/home/users/caep010/software/Gaussian09/g09/l303.exe)
 DipDrv:  MaxL=1.
 Leave Link  303 at Fri Aug 26 14:40:53 2022, MaxMem= 24159191040 cpu:         1.0
 (Enter /public/home/users/caep010/software/Gaussian09/g09/l401.exe)
 ExpMin= 1.61D-01 ExpMax= 5.48D+03 ExpMxC= 8.25D+02 IAcc=1 IRadAn=         1 AccDes= 0.00D+00
 Harris functional with IExCor=  402 and IRadAn=       1 diagonalized for initial guess.
 HarFok:  IExCor=  402 AccDes= 0.00D+00 IRadAn=         1 IDoV= 1 UseB2=F ITyADJ=14
 ICtDFT=  3500011 ScaDFX=  1.000000  1.000000  1.000000  1.000000
 FoFCou: FMM=F IPFlag=           0 FMFlag=      100000 FMFlg1=           0
         NFxFlg=           0 DoJE=T BraDBF=F KetDBF=T FulRan=T
         wScrn=  0.000000 ICntrl=     500 IOpCl=  0 I1Cent=   200000004 NGrid=           0
         NMat0=    1 NMatS0=      1 NMatT0=    0 NMatD0=    1 NMtDS0=    0 NMtDT0=    0
 Petite list used in FoFCou.
 Harris En= -267.209188511629    
 JPrj=0 DoOrth=F DoCkMO=F.
 Leave Link  401 at Fri Aug 26 14:40:54 2022, MaxMem= 24159191040 cpu:        12.3
 (Enter /public/home/users/caep010/software/Gaussian09/g09/l502.exe)
 Closed shell SCF:
 Using DIIS extrapolation, IDIIS=  1040.
 Integral symmetry usage will be decided dynamically.
 Keep R1 ints in memory in canonical form, NReq=85796735.
 IVT=      117295 IEndB=      117295 NGot= 24159191040 MDV= 24076120106
 LenX= 24076120106 LenY= 24076089040
 Requested convergence on RMS density matrix=1.00D-08 within 128 cycles.
 Requested convergence on MAX density matrix=1.00D-06.
 Requested convergence on             energy=1.00D-06.
 No special actions if energy rises.
 FoFCou: FMM=F IPFlag=           0 FMFlag=           0 FMFlg1=           0
         NFxFlg=           0 DoJE=F BraDBF=F KetDBF=F FulRan=T
         wScrn=  0.000000 ICntrl=     600 IOpCl=  0 I1Cent=           0 NGrid=           0
         NMat0=    1 NMatS0=  12880 NMatT0=    0 NMatD0=    1 NMtDS0=    0 NMtDT0=    0
 Symmetry not used in FoFCou.
 Integral accuracy reduced to 1.0D-05 until final iterations.

 Cycle   1  Pass 0  IDiag  1:
 E= -267.004885393821    
 DIIS: error= 3.18D-02 at cycle   1 NSaved=   1.
 NSaved= 1 IEnMin= 1 EnMin= -267.004885393821     IErMin= 1 ErrMin= 3.18D-02
 ErrMax= 3.18D-02  0.00D+00 EMaxC= 1.00D-01 BMatC= 1.98D-01 BMatP= 1.98D-01
 IDIUse=3 WtCom= 6.82D-01 WtEn= 3.18D-01
 Coeff-Com:  0.100D+01
 Coeff-En:   0.100D+01
 Coeff:      0.100D+01
 Gap=     0.124 Goal=   None    Shift=    0.000
 GapD=    0.124 DampG=1.000 DampE=0.500 DampFc=0.5000 IDamp=-1.
 Damping current iteration by 5.00D-01
 RMSDP=5.91D-03 MaxDP=2.24D-01              OVMax= 2.69D-01

 Cycle   2  Pass 0  IDiag  1:
 E= -267.039376063528     Delta-E=       -0.034490669707 Rises=F Damp=T
 DIIS: error= 1.12D-02 at cycle   2 NSaved=   2.
 NSaved= 2 IEnMin= 2 EnMin= -267.039376063528     IErMin= 2 ErrMin= 1.12D-02
 ErrMax= 1.12D-02  0.00D+00 EMaxC= 1.00D-01 BMatC= 3.88D-02 BMatP= 1.98D-01
 IDIUse=3 WtCom= 8.88D-01 WtEn= 1.12D-01
 Coeff-Com:  0.255D+00 0.745D+00
 Coeff-En:   0.392D+00 0.608D+00
 Coeff:      0.270D+00 0.730D+00
 Gap=     0.216 Goal=   None    Shift=    0.000
 RMSDP=1.87D-03 MaxDP=6.39D-02 DE=-3.45D-02 OVMax= 2.17D-01

 Cycle   3  Pass 0  IDiag  1:
 E= -267.134941228257     Delta-E=       -0.095565164729 Rises=F Damp=F
 DIIS: error= 1.22D-02 at cycle   3 NSaved=   3.
 NSaved= 3 IEnMin= 3 EnMin= -267.134941228257     IErMin= 2 ErrMin= 1.12D-02
 ErrMax= 1.22D-02  0.00D+00 EMaxC= 1.00D-01 BMatC= 3.80D-02 BMatP= 3.88D-02
 IDIUse=3 WtCom= 8.78D-01 WtEn= 1.22D-01
 Coeff-Com:  0.108D+00 0.486D+00 0.407D+00
 Coeff-En:   0.000D+00 0.000D+00 0.100D+01
 Coeff:      0.947D-01 0.426D+00 0.479D+00
 Gap=     0.242 Goal=   None    Shift=    0.000
 RMSDP=1.32D-03 MaxDP=5.45D-02 DE=-9.56D-02 OVMax= 1.03D-01

 Cycle   4  Pass 0  IDiag  1:
 E= -267.161441150793     Delta-E=       -0.026499922536 Rises=F Damp=F
 DIIS: error= 4.84D-03 at cycle   4 NSaved=   4.
 NSaved= 4 IEnMin= 4 EnMin= -267.161441150793     IErMin= 4 ErrMin= 4.84D-03
 ErrMax= 4.84D-03  0.00D+00 EMaxC= 1.00D-01 BMatC= 7.67D-03 BMatP= 3.80D-02
 IDIUse=3 WtCom= 9.52D-01 WtEn= 4.84D-02
 Coeff-Com:  0.268D-01 0.106D+00 0.311D+00 0.556D+00
 Coeff-En:   0.000D+00 0.000D+00 0.195D+00 0.805D+00
 Coeff:      0.255D-01 0.101D+00 0.305D+00 0.568D+00
 Gap=     0.206 Goal=   None    Shift=    0.000
 RMSDP=4.83D-04 MaxDP=1.77D-02 DE=-2.65D-02 OVMax= 3.37D-02

 Cycle   5  Pass 0  IDiag  1:
 E= -267.166871808989     Delta-E=       -0.005430658196 Rises=F Damp=F
 DIIS: error= 1.29D-03 at cycle   5 NSaved=   5.
 NSaved= 5 IEnMin= 5 EnMin= -267.166871808989     IErMin= 5 ErrMin= 1.29D-03
 ErrMax= 1.29D-03  0.00D+00 EMaxC= 1.00D-01 BMatC= 5.26D-04 BMatP= 7.67D-03
 IDIUse=3 WtCom= 9.87D-01 WtEn= 1.29D-02
 Coeff-Com:  0.422D-02-0.148D-02 0.130D+00 0.346D+00 0.521D+00
 Coeff-En:   0.000D+00 0.000D+00 0.000D+00 0.120D-01 0.988D+00
 Coeff:      0.417D-02-0.147D-02 0.129D+00 0.342D+00 0.527D+00
 Gap=     0.206 Goal=   None    Shift=    0.000
 RMSDP=1.35D-04 MaxDP=4.87D-03 DE=-5.43D-03 OVMax= 8.78D-03

 Cycle   6  Pass 0  IDiag  1:
 E= -267.167326980490     Delta-E=       -0.000455171501 Rises=F Damp=F
 DIIS: error= 3.60D-04 at cycle   6 NSaved=   6.
 NSaved= 6 IEnMin= 6 EnMin= -267.167326980490     IErMin= 6 ErrMin= 3.60D-04
 ErrMax= 3.60D-04  0.00D+00 EMaxC= 1.00D-01 BMatC= 2.02D-05 BMatP= 5.26D-04
 IDIUse=3 WtCom= 9.96D-01 WtEn= 3.60D-03
 Coeff-Com:  0.125D-02-0.477D-02 0.487D-01 0.131D+00 0.261D+00 0.563D+00
 Coeff-En:   0.000D+00 0.000D+00 0.000D+00 0.000D+00 0.000D+00 0.100D+01
 Coeff:      0.125D-02-0.475D-02 0.485D-01 0.130D+00 0.260D+00 0.565D+00
 Gap=     0.207 Goal=   None    Shift=    0.000
 RMSDP=2.99D-05 MaxDP=1.40D-03 DE=-4.55D-04 OVMax= 2.78D-03

 Cycle   7  Pass 0  IDiag  1:
 E= -267.167344320135     Delta-E=       -0.000017339645 Rises=F Damp=F
 DIIS: error= 1.19D-04 at cycle   7 NSaved=   7.
 NSaved= 7 IEnMin= 7 EnMin= -267.167344320135     IErMin= 7 ErrMin= 1.19D-04
 ErrMax= 1.19D-04  0.00D+00 EMaxC= 1.00D-01 BMatC= 3.22D-06 BMatP= 2.02D-05
 IDIUse=3 WtCom= 9.99D-01 WtEn= 1.19D-03
 Coeff-Com:  0.275D-03-0.258D-02 0.118D-01 0.292D-01 0.868D-01 0.336D+00
 Coeff-Com:  0.539D+00
 Coeff-En:   0.000D+00 0.000D+00 0.000D+00 0.000D+00 0.000D+00 0.849D-01
 Coeff-En:   0.915D+00
 Coeff:      0.275D-03-0.258D-02 0.118D-01 0.292D-01 0.867D-01 0.335D+00
 Coeff:      0.539D+00
 Gap=     0.206 Goal=   None    Shift=    0.000
 RMSDP=9.78D-06 MaxDP=4.83D-04 DE=-1.73D-05 OVMax= 8.18D-04

 Initial convergence to 1.0D-05 achieved.  Increase integral accuracy.
 Cycle   8  Pass 1  IDiag  1:
 E= -267.167336335364     Delta-E=        0.000007984771 Rises=F Damp=F
 DIIS: error= 3.28D-05 at cycle   1 NSaved=   1.
 NSaved= 1 IEnMin= 1 EnMin= -267.167336335364     IErMin= 1 ErrMin= 3.28D-05
 ErrMax= 3.28D-05  0.00D+00 EMaxC= 1.00D-01 BMatC= 1.65D-07 BMatP= 1.65D-07
 IDIUse=1 WtCom= 1.00D+00 WtEn= 0.00D+00
 Coeff-Com:  0.100D+01
 Coeff:      0.100D+01
 Gap=     0.207 Goal=   None    Shift=    0.000
 RMSDP=9.78D-06 MaxDP=4.83D-04 DE= 7.98D-06 OVMax= 5.37D-04

 Cycle   9  Pass 1  IDiag  1:
 E= -267.167336085218     Delta-E=        0.000000250146 Rises=F Damp=F
 DIIS: error= 5.11D-05 at cycle   2 NSaved=   2.
 NSaved= 2 IEnMin= 1 EnMin= -267.167336335364     IErMin= 1 ErrMin= 3.28D-05
 ErrMax= 5.11D-05  0.00D+00 EMaxC= 1.00D-01 BMatC= 4.05D-07 BMatP= 1.65D-07
 IDIUse=1 WtCom= 1.00D+00 WtEn= 0.00D+00
 Coeff-Com:  0.617D+00 0.383D+00
 Coeff:      0.617D+00 0.383D+00
 Gap=     0.207 Goal=   None    Shift=    0.000
 RMSDP=4.19D-06 MaxDP=1.66D-04 DE= 2.50D-07 OVMax= 4.16D-04

 Cycle  10  Pass 1  IDiag  1:
 E= -267.167336479472     Delta-E=       -0.000000394254 Rises=F Damp=F
 DIIS: error= 8.36D-06 at cycle   3 NSaved=   3.
 NSaved= 3 IEnMin= 3 EnMin= -267.167336479472     IErMin= 3 ErrMin= 8.36D-06
 ErrMax= 8.36D-06  0.00D+00 EMaxC= 1.00D-01 BMatC= 2.26D-08 BMatP= 1.65D-07
 IDIUse=1 WtCom= 1.00D+00 WtEn= 0.00D+00
 Coeff-Com:  0.304D+00 0.235D+00 0.461D+00
 Coeff:      0.304D+00 0.235D+00 0.461D+00
 Gap=     0.207 Goal=   None    Shift=    0.000
 RMSDP=8.89D-07 MaxDP=3.39D-05 DE=-3.94D-07 OVMax= 5.96D-05

 Cycle  11  Pass 1  IDiag  1:
 E= -267.167336496111     Delta-E=       -0.000000016639 Rises=F Damp=F
 DIIS: error= 3.33D-06 at cycle   4 NSaved=   4.
 NSaved= 4 IEnMin= 4 EnMin= -267.167336496111     IErMin= 4 ErrMin= 3.33D-06
 ErrMax= 3.33D-06  0.00D+00 EMaxC= 1.00D-01 BMatC= 3.00D-09 BMatP= 2.26D-08
 IDIUse=1 WtCom= 1.00D+00 WtEn= 0.00D+00
 Coeff-Com:  0.564D-01 0.667D-01 0.284D+00 0.593D+00
 Coeff:      0.564D-01 0.667D-01 0.284D+00 0.593D+00
 Gap=     0.207 Goal=   None    Shift=    0.000
 RMSDP=3.23D-07 MaxDP=1.42D-05 DE=-1.66D-08 OVMax= 2.70D-05

 Cycle  12  Pass 1  IDiag  1:
 E= -267.167336497903     Delta-E=       -0.000000001793 Rises=F Damp=F
 DIIS: error= 1.66D-06 at cycle   5 NSaved=   5.
 NSaved= 5 IEnMin= 5 EnMin= -267.167336497903     IErMin= 5 ErrMin= 1.66D-06
 ErrMax= 1.66D-06  0.00D+00 EMaxC= 1.00D-01 BMatC= 6.86D-10 BMatP= 3.00D-09
 IDIUse=1 WtCom= 1.00D+00 WtEn= 0.00D+00
 Coeff-Com: -0.628D-02 0.113D-01 0.125D+00 0.401D+00 0.469D+00
 Coeff:     -0.628D-02 0.113D-01 0.125D+00 0.401D+00 0.469D+00
 Gap=     0.207 Goal=   None    Shift=    0.000
 RMSDP=1.41D-07 MaxDP=5.57D-06 DE=-1.79D-09 OVMax= 8.27D-06

 Cycle  13  Pass 1  IDiag  1:
 E= -267.167336498486     Delta-E=       -0.000000000583 Rises=F Damp=F
 DIIS: error= 2.26D-07 at cycle   6 NSaved=   6.
 NSaved= 6 IEnMin= 6 EnMin= -267.167336498486     IErMin= 6 ErrMin= 2.26D-07
 ErrMax= 2.26D-07  0.00D+00 EMaxC= 1.00D-01 BMatC= 1.37D-11 BMatP= 6.86D-10
 IDIUse=1 WtCom= 1.00D+00 WtEn= 0.00D+00
 Coeff-Com: -0.545D-02 0.196D-02 0.410D-01 0.155D+00 0.211D+00 0.596D+00
 Coeff:     -0.545D-02 0.196D-02 0.410D-01 0.155D+00 0.211D+00 0.596D+00
 Gap=     0.207 Goal=   None    Shift=    0.000
 RMSDP=2.45D-08 MaxDP=7.39D-07 DE=-5.83D-10 OVMax= 1.26D-06

 Cycle  14  Pass 1  IDiag  1:
 E= -267.167336498497     Delta-E=       -0.000000000011 Rises=F Damp=F
 DIIS: error= 9.28D-08 at cycle   7 NSaved=   7.
 NSaved= 7 IEnMin= 7 EnMin= -267.167336498497     IErMin= 7 ErrMin= 9.28D-08
 ErrMax= 9.28D-08  0.00D+00 EMaxC= 1.00D-01 BMatC= 2.83D-12 BMatP= 1.37D-11
 IDIUse=1 WtCom= 1.00D+00 WtEn= 0.00D+00
 Coeff-Com: -0.244D-02 0.243D-03 0.115D-01 0.519D-01 0.729D-01 0.344D+00
 Coeff-Com:  0.522D+00
 Coeff:     -0.244D-02 0.243D-03 0.115D-01 0.519D-01 0.729D-01 0.344D+00
 Coeff:      0.522D+00
 Gap=     0.207 Goal=   None    Shift=    0.000
 RMSDP=7.21D-09 MaxDP=3.50D-07 DE=-1.08D-11 OVMax= 5.78D-07

 SCF Done:  E(RB3LYP) =  -267.167336498     A.U. after   14 cycles
            NFock= 14  Conv=0.72D-08     -V/T= 2.0079
 KE= 2.650627758861D+02 PE=-9.452135903181D+02 EE= 2.533226499842D+02
 Leave Link  502 at Fri Aug 26 14:40:57 2022, MaxMem= 24159191040 cpu:        56.4
 (Enter /public/home/users/caep010/software/Gaussian09/g09/l601.exe)
 Copying SCF densities to generalized density rwf, IOpCl= 0 IROHF=0.

 **********************************************************************

            Population analysis using the SCF density.

 **********************************************************************

 Orbital symmetries:
       Occupied  (A) (A) (A) (A) (A) (A) (A) (A) (A) (A) (A) (A)
                 (A) (A) (A) (A) (A) (A) (A)
       Virtual   (A) (A) (A) (A) (A) (A) (A) (A) (A) (A) (A) (A)
                 (A) (A) (A) (A) (A) (A) (A) (A) (A) (A) (A) (A)
                 (A) (A) (A) (A) (A) (A) (A) (A) (A) (A) (A) (A)
                 (A) (A) (A) (A) (A) (A) (A) (A) (A) (A) (A) (A)
                 (A) (A) (A) (A) (A) (A) (A) (A) (A) (A) (A) (A)
                 (A) (A) (A) (A) (A) (A) (A) (A) (A) (A) (A) (A)
                 (A) (A) (A) (A) (A) (A) (A) (A) (A) (A) (A) (A)
                 (A) (A) (A) (A) (A) (A) (A) (A) (A) (A) (A) (A)
                 (A) (A) (A) (A) (A) (A) (A) (A) (A) (A) (A) (A)
                 (A) (A) (A) (A) (A) (A) (A) (A) (A) (A) (A) (A)
                 (A) (A) (A) (A) (A) (A) (A) (A) (A) (A) (A) (A)
                 (A) (A) (A) (A) (A) (A) (A) (A) (A)
 The electronic state is 1-A.
 Alpha  occ. eigenvalues --  -19.18278 -19.12001 -10.31974 -10.21341 -10.21012
 Alpha  occ. eigenvalues --   -1.06784  -0.98211  -0.80279  -0.65705  -0.59368
 Alpha  occ. eigenvalues --   -0.50285  -0.47178  -0.44278  -0.42661  -0.39332
 Alpha  occ. eigenvalues --   -0.36910  -0.31285  -0.28662  -0.26131
 Alpha virt. eigenvalues --   -0.05477   0.04802   0.07535   0.11341   0.13922
 Alpha virt. eigenvalues --    0.17599   0.24019   0.26408   0.30335   0.34196
 Alpha virt. eigenvalues --    0.41329   0.45937   0.48470   0.50748   0.51624
 Alpha virt. eigenvalues --    0.55095   0.58582   0.59093   0.64693   0.68244
 Alpha virt. eigenvalues --    0.68704   0.73601   0.75323   0.76786   0.77418
 Alpha virt. eigenvalues --    0.80111   0.83488   0.86383   0.87665   0.89984
 Alpha virt. eigenvalues --    0.90825   0.95010   0.96622   0.98204   1.01663
 Alpha virt. eigenvalues --    1.04497   1.07572   1.09346   1.11716   1.24996
 Alpha virt. eigenvalues --    1.26990   1.33325   1.37289   1.38070   1.39808
 Alpha virt. eigenvalues --    1.44707   1.49642   1.57354   1.59147   1.66340
 Alpha virt. eigenvalues --    1.66652   1.67927   1.72895   1.75457   1.85245
 Alpha virt. eigenvalues --    1.93440   1.99157   2.06628   2.08918   2.15783
 Alpha virt. eigenvalues --    2.20482   2.23716   2.42744   2.52432   2.57713
 Alpha virt. eigenvalues --    2.64174   2.75017   2.79851   2.82241   2.83590
 Alpha virt. eigenvalues --    2.88367   2.90886   2.91249   2.96247   3.05630
 Alpha virt. eigenvalues --    3.12977   3.13136   3.14295   3.19102   3.24480
 Alpha virt. eigenvalues --    3.29014   3.33650   3.35955   3.42851   3.47595
 Alpha virt. eigenvalues --    3.51078   3.56777   3.68960   3.81953   3.86470
 Alpha virt. eigenvalues --    3.94494   4.00322   4.06283   4.09202   4.14463
 Alpha virt. eigenvalues --    4.17425   4.19297   4.22739   4.24788   4.29328
 Alpha virt. eigenvalues --    4.34311   4.35940   4.42250   4.44325   4.46214
 Alpha virt. eigenvalues --    4.49438   4.52869   4.53655   4.55126   4.63457
 Alpha virt. eigenvalues --    4.65985   4.76680   4.89098   4.97747   5.04740
 Alpha virt. eigenvalues --    5.06756   5.06841   5.11551   5.13047   5.17244
 Alpha virt. eigenvalues --    5.25136   5.35314   5.37772   5.47381   5.49732
 Alpha virt. eigenvalues --    5.64868   5.70284   5.73623   5.77461   6.01702
 Alpha virt. eigenvalues --    6.07215   6.27608   6.43276   6.57307   6.71935
 Alpha virt. eigenvalues --    7.05813  10.07788  10.99524  11.65718  12.96910
 Alpha virt. eigenvalues --   13.24742
          Condensed to atoms (all electrons):
               1          2          3          4          5          6
     1  C    5.090207   0.510703   0.014880   0.003728   0.001092   0.353549
     2  C    0.510703   4.911928   0.380045  -0.049331  -0.044792  -0.005905
     3  C    0.014880   0.380045   4.168406   0.709625   0.364783   0.002419
     4  O    0.003728  -0.049331   0.709625   7.779849  -0.069168  -0.000069
     5  O    0.001092  -0.044792   0.364783  -0.069168   7.894537   0.000167
     6  H    0.353549  -0.005905   0.002419  -0.000069   0.000167   0.564268
     7  H    0.363563  -0.012307  -0.016067   0.000174   0.009476  -0.038026
     8  H   -0.057976   0.388788  -0.032479  -0.001993   0.001506  -0.007113
     9  H   -0.000897   0.007060  -0.031397   0.006136   0.280268   0.000007
               7          8          9
     1  C    0.363563  -0.057976  -0.000897
     2  C   -0.012307   0.388788   0.007060
     3  C   -0.016067  -0.032479  -0.031397
     4  O    0.000174  -0.001993   0.006136
     5  O    0.009476   0.001506   0.280268
     6  H   -0.038026  -0.007113   0.000007
     7  H    0.543680   0.005457  -0.000393
     8  H    0.005457   0.569314  -0.000082
     9  H   -0.000393  -0.000082   0.406954
 Mulliken charges:
               1
     1  C   -0.278848
     2  C   -0.086187
     3  C    0.439785
     4  O   -0.378951
     5  O   -0.437869
     6  H    0.130705
     7  H    0.144444
     8  H    0.134578
     9  H    0.332343
 Sum of Mulliken charges =  -0.00000
 Mulliken charges with hydrogens summed into heavy atoms:
               1
     1  C   -0.003700
     2  C    0.048391
     3  C    0.439785
     4  O   -0.378951
     5  O   -0.105525
 Electronic spatial extent (au):  <R**2>=            401.6586
 Charge=             -0.0000 electrons
 Dipole moment (field-independent basis, Debye):
    X=             -1.6617    Y=              1.6119    Z=              0.0001  Tot=              2.3151
 Quadrupole moment (field-independent basis, Debye-Ang):
   XX=            -25.2187   YY=            -27.5740   ZZ=            -29.4124
   XY=              6.1610   XZ=             -0.0002   YZ=             -0.0001
 Traceless Quadrupole moment (field-independent basis, Debye-Ang):
   XX=              2.1830   YY=             -0.1723   ZZ=             -2.0107
   XY=              6.1610   XZ=             -0.0002   YZ=             -0.0001
 Octapole moment (field-independent basis, Debye-Ang**2):
  XXX=              3.1852  YYY=              5.7251  ZZZ=              0.0001  XYY=              3.3846
  XXY=             12.2726  XXZ=              0.0006  XZZ=              5.0147  YZZ=              0.6983
  YYZ=              0.0002  XYZ=              0.0000
 Hexadecapole moment (field-independent basis, Debye-Ang**3):
 XXXX=           -290.8013 YYYY=           -132.9289 ZZZZ=            -25.8484 XXXY=             26.4742
 XXXZ=             -0.0018 YYYX=             16.5028 YYYZ=             -0.0003 ZZZX=             -0.0003
 ZZZY=             -0.0000 XXYY=            -64.3405 XXZZ=            -60.8995 YYZZ=            -28.9791
 XXYZ=             -0.0001 YYXZ=             -0.0005 ZZXY=             -0.1230
 N-N= 1.596608279493D+02 E-N=-9.452135920458D+02  KE= 2.650627758861D+02
 No NMR shielding tensors so no spin-rotation constants.
 Leave Link  601 at Fri Aug 26 14:40:57 2022, MaxMem= 24159191040 cpu:        12.9
 (Enter /public/home/users/caep010/software/Gaussian09/g09/l701.exe)
 Compute integral first derivatives.
 ... and contract with generalized density number  0.
 Leave Link  701 at Fri Aug 26 14:40:58 2022, MaxMem= 24159191040 cpu:        14.3
 (Enter /public/home/users/caep010/software/Gaussian09/g09/l702.exe)
 L702 exits ... SP integral derivatives will be done elsewhere.
 Leave Link  702 at Fri Aug 26 14:40:58 2022, MaxMem= 24159191040 cpu:         0.4
 (Enter /public/home/users/caep010/software/Gaussian09/g09/l703.exe)
 Compute integral first derivatives, UseDBF=F ICtDFT=           0.
 Integral derivatives from FoFJK, PRISM(SPDF).
 Calling FoFJK, ICntrl=      2127 FMM=F ISym2X=0 I1Cent= 0 IOpClX= 0 NMat=1 NMatS=1 NMatT=0.
 FoFJK:  IHMeth= 1 ICntrl=    2127 DoSepK=F KAlg= 0 I1Cent=   0 FoldK=F
 IRaf=         0 NMat=   1 IRICut=       1 DoRegI=T DoRafI=F ISym2E= 0.
 FoFCou: FMM=F IPFlag=           0 FMFlag=      100000 FMFlg1=         800
         NFxFlg=           0 DoJE=F BraDBF=F KetDBF=F FulRan=T
         wScrn=  0.000000 ICntrl=    2127 IOpCl=  0 I1Cent=           0 NGrid=           0
         NMat0=    1 NMatS0=      1 NMatT0=    0 NMatD0=    1 NMtDS0=    0 NMtDT0=    0
 Symmetry not used in FoFCou.
 Leave Link  703 at Fri Aug 26 14:40:59 2022, MaxMem= 24159191040 cpu:        27.2
 (Enter /public/home/users/caep010/software/Gaussian09/g09/l716.exe)
 Dipole        =-6.53754834D-01 6.34186120D-01 5.63016593D-05
 ***** Axes restored to original set *****
 -------------------------------------------------------------------
 Center     Atomic                   Forces (Hartrees/Bohr)
 Number     Number              X              Y              Z
 -------------------------------------------------------------------
      1        6           0.002212734    0.000465111   -0.000578834
      2        6           0.007583605    0.023704568    0.005263069
      3        6          -0.092535206   -0.040168837    0.017068965
      4        8           0.047125951    0.044529004   -0.000827719
      5        8           0.010603855    0.001983192   -0.002812778
      6        1           0.002778046    0.002300471   -0.000150634
      7        1           0.000843966    0.000912220    0.000027169
      8        1          -0.010910978   -0.001483859    0.003077599
      9        1           0.032298027   -0.032241870   -0.021066838
 -------------------------------------------------------------------
 Cartesian Forces:  Max     0.092535206 RMS     0.025906303
 Leave Link  716 at Fri Aug 26 14:40:59 2022, MaxMem= 24159191040 cpu:         1.0
 (Enter /public/home/users/caep010/software/Gaussian09/g09/l103.exe)

 GradGradGradGradGradGradGradGradGradGradGradGradGradGradGradGradGradGrad
 Berny optimization.
 FormGI is forming the generalized inverse of G from B-inverse, IUseBI=4.
 Internal  Forces:  Max     0.064837945 RMS     0.021056454
 Search for a local minimum.
 Step number   1 out of a maximum of   38
 All quantities printed in internal units (Hartrees-Bohrs-Radians)
 RMS Force = .21056D-01 SwitMx=.10000D-02 MixMth= 1
 Mixed Optimization -- RFO/linear search
 Second derivative matrix not updated -- first step.
 ITU=  0
     Eigenvalues ---    0.01161   0.01371   0.01789   0.02082   0.03002
     Eigenvalues ---    0.03002   0.16000   0.16000   0.16000   0.16000
     Eigenvalues ---    0.22000   0.25000   0.25000   0.35602   0.35678
     Eigenvalues ---    0.35721   0.35726   0.45468   0.46857   0.59285
     Eigenvalues ---    0.79797
 RFO step:  Lambda=-3.19865389D-02 EMin= 1.16067629D-02
 Linear search not attempted -- first point.
 Maximum step size (   0.300) exceeded in Quadratic search.
    -- Step size scaled by   0.906
 Iteration  1 RMS(Cart)=  0.08564643 RMS(Int)=  0.00345979
 Iteration  2 RMS(Cart)=  0.00508819 RMS(Int)=  0.00001381
 Iteration  3 RMS(Cart)=  0.00001840 RMS(Int)=  0.00000040
 Iteration  4 RMS(Cart)=  0.00000000 RMS(Int)=  0.00000040
 ITry= 1 IFail=0 DXMaxC= 2.59D-01 DCOld= 1.00D+10 DXMaxT= 3.00D-01 DXLimC= 3.00D+00 Rises=F
 Variable       Old X    -DE/DX   Delta X   Delta X   Delta X     New X
                                 (Linear)    (Quad)   (Total)
    R1        2.51510   0.00684   0.00000   0.00992   0.00992   2.52502
    R2        2.04512   0.00189   0.00000   0.00441   0.00441   2.04953
    R3        2.04588   0.00077   0.00000   0.00180   0.00180   2.04768
    R4        2.77820  -0.00661   0.00000  -0.01540  -0.01540   2.76279
    R5        2.04708  -0.00138   0.00000  -0.00322  -0.00322   2.04386
    R6        2.38025  -0.06484   0.00000  -0.07081  -0.07081   2.30943
    R7        2.63177  -0.04419   0.00000  -0.08002  -0.08002   2.55175
    R8        1.91436  -0.04438   0.00000  -0.08267  -0.08267   1.83169
    A1        2.09213   0.00354   0.00000   0.01670   0.01670   2.10883
    A2        2.12124  -0.00077   0.00000  -0.00365  -0.00365   2.11759
    A3        2.06982  -0.00276   0.00000  -0.01305  -0.01305   2.05676
    A4        2.13282   0.00684   0.00000   0.02462   0.02462   2.15744
    A5        2.07560   0.00819   0.00000   0.04251   0.04251   2.11812
    A6        2.07476  -0.01503   0.00000  -0.06713  -0.06713   2.00763
    A7        2.08502   0.01670   0.00000   0.05370   0.05370   2.13872
    A8        2.10860  -0.03454   0.00000  -0.11103  -0.11103   1.99757
    A9        2.08956   0.01784   0.00000   0.05733   0.05733   2.14689
   A10        2.10966  -0.04518   0.00000  -0.21331  -0.21331   1.89635
    D1       -3.14149  -0.00000   0.00000  -0.00007  -0.00007  -3.14156
    D2        0.00001  -0.00000   0.00000  -0.00003  -0.00002  -0.00002
    D3       -0.00003   0.00000   0.00000   0.00003   0.00003  -0.00000
    D4        3.14146   0.00000   0.00000   0.00008   0.00008   3.14154
    D5       -3.14157  -0.00000   0.00000  -0.00002  -0.00002   3.14159
    D6       -0.00004   0.00000   0.00000   0.00006   0.00006   0.00001
    D7        0.00012  -0.00000   0.00000  -0.00007  -0.00007   0.00005
    D8       -3.14154  -0.00000   0.00000   0.00000   0.00001  -3.14153
    D9       -3.14157  -0.00000   0.00000  -0.00004  -0.00004   3.14158
   D10       -0.00004   0.00000   0.00000   0.00004   0.00004   0.00000
         Item               Value     Threshold  Converged?
 Maximum Force            0.064838     0.000450     NO 
 RMS     Force            0.021056     0.000300     NO 
 Maximum Displacement     0.259401     0.001800     NO 
 RMS     Displacement     0.089396     0.001200     NO 
 Predicted change in Energy=-1.729275D-02
 Lowest energy point so far.  Saving SCF results.
 GradGradGradGradGradGradGradGradGradGradGradGradGradGradGradGradGradGrad

 Leave Link  103 at Fri Aug 26 14:40:59 2022, MaxMem= 24159191040 cpu:         1.7
 (Enter /public/home/users/caep010/software/Gaussian09/g09/l202.exe)
                          Input orientation:                          
 ---------------------------------------------------------------------
 Center     Atomic      Atomic             Coordinates (Angstroms)
 Number     Number       Type             X           Y           Z
 ---------------------------------------------------------------------
      1          6           0        1.383946    0.272514   -0.362314
      2          6           0        0.376107   -0.603757   -0.319879
      3          6           0       -0.947834   -0.289251    0.214662
      4          8           0       -1.856051   -1.106451    0.243903
      5          8           0       -1.080623    0.974719    0.670874
      6          1           0        2.348909   -0.009552   -0.769211
      7          1           0        1.266511    1.284574    0.006611
      8          1           0        0.492772   -1.614026   -0.688021
      9          1           0       -1.983638    1.091031    1.003375
 ---------------------------------------------------------------------
                    Distance matrix (angstroms):
                    1          2          3          4          5
     1  C    0.000000
     2  C    1.336185   0.000000
     3  C    2.466917   1.462008   0.000000
     4  O    3.573041   2.356498   1.222100   0.000000
     5  O    2.763090   2.365425   1.350327   2.261605   0.000000
     6  H    1.084565   2.108773   3.451775   4.462206   3.847639
     7  H    1.083588   2.113104   2.724616   3.940013   2.458921
     8  H    2.111708   1.081565   2.155275   2.577419   3.320206
     9  H    3.725010   3.192445   1.897403   2.328519   0.969290
                    6          7          8          9
     6  H    0.000000
     7  H    1.856946   0.000000
     8  H    2.454826   3.079459   0.000000
     9  H    4.808775   3.405065   4.038659   0.000000
 Stoichiometry    C3H4O2
 Framework group  C1[X(C3H4O2)]
 Deg. of freedom    21
 Full point group                 C1      NOp   1
 RotChk:  IX=0 Diff= 7.42D-02
 Largest Abelian subgroup         C1      NOp   1
 Largest concise Abelian subgroup C1      NOp   1
                         Standard orientation:                         
 ---------------------------------------------------------------------
 Center     Atomic      Atomic             Coordinates (Angstroms)
 Number     Number       Type             X           Y           Z
 ---------------------------------------------------------------------
      1          6           0       -1.912046    0.113160   -0.000007
      2          6           0       -0.815063   -0.649741   -0.000004
      3          6           0        0.544553   -0.112234   -0.000006
      4          8           0        1.534633   -0.828663   -0.000002
      5          8           0        0.612441    1.236385    0.000005
      6          1           0       -2.900083   -0.334123    0.000025
      7          1           0       -1.846127    1.194741   -0.000009
      8          1           0       -0.880294   -1.729337    0.000048
      9          1           0        1.545243    1.499833    0.000013
 ---------------------------------------------------------------------
 Rotational constants (GHZ):     10.6319566      4.4315892      3.1278468
 Leave Link  202 at Fri Aug 26 14:41:00 2022, MaxMem= 24159191040 cpu:         0.3
 (Enter /public/home/users/caep010/software/Gaussian09/g09/l301.exe)
 Standard basis: GTBas3 (6D, 7F)
 Ernie: Thresh=  0.10000D-02 Tol=  0.10000D-05 Strict=F.
 There are   175 symmetry adapted cartesian basis functions of A   symmetry.
 There are   160 symmetry adapted basis functions of A   symmetry.
   160 basis functions,   248 primitive gaussians,   175 cartesian basis functions
    19 alpha electrons       19 beta electrons
       nuclear repulsion energy       162.7994287325 Hartrees.
 IExCor=  402 DFT=T Ex+Corr=B3LYP ExCW=0 ScaHFX=  0.200000
 ScaDFX=  0.800000  0.720000  1.000000  0.810000 ScalE2=  1.000000  1.000000
 IRadAn=      0 IRanWt=     -1 IRanGd=            0 ICorTp=0 IEmpDi=  4
 NAtoms=    9 NActive=    9 NUniq=    9 SFac= 1.00D+00 NAtFMM=   60 NAOKFM=F Big=F
 Integral buffers will be    131072 words long.
 Raffenetti 2 integral format.
 Two-electron integral symmetry is turned on.
 Leave Link  301 at Fri Aug 26 14:41:00 2022, MaxMem= 24159191040 cpu:         1.8
 (Enter /public/home/users/caep010/software/Gaussian09/g09/l302.exe)
 NPDir=0 NMtPBC=     1 NCelOv=     1 NCel=       1 NClECP=     1 NCelD=      1
         NCelK=      1 NCelE2=     1 NClLst=     1 CellRange=     0.0.
 One-electron integrals computed using PRISM.
 NBasis=   160 RedAO= T EigKep=  8.47D-04  NBF=   160
 NBsUse=   160 1.00D-06 EigRej= -1.00D+00 NBFU=   160
 Precomputing XC quadrature grid using
 IXCGrd= 4 IRadAn=           0 IRanWt=          -1 IRanGd=           0 AccXCQ= 0.00D+00.
 Generated NRdTot=       0 NPtTot=           0 NUsed=           0 NTot=          32
 NSgBfM=   175   175   175   175   175 MxSgAt=     9 MxSgA2=     9.
 Leave Link  302 at Fri Aug 26 14:41:00 2022, MaxMem= 24159191040 cpu:        14.1
 (Enter /public/home/users/caep010/software/Gaussian09/g09/l303.exe)
 DipDrv:  MaxL=1.
 Leave Link  303 at Fri Aug 26 14:41:00 2022, MaxMem= 24159191040 cpu:         1.6
 (Enter /public/home/users/caep010/software/Gaussian09/g09/l401.exe)
 Initial guess from the checkpoint file:  "G4.Frag_507.chk"
 B after Tr=     0.000000    0.000000    0.000000
         Rot=    0.999470   -0.000000    0.000000   -0.032545 Ang=  -3.73 deg.
 Guess basis will be translated and rotated to current coordinates.
 JPrj=2 DoOrth=T DoCkMO=T.
 Generating alternative initial guess.
 ExpMin= 1.61D-01 ExpMax= 5.48D+03 ExpMxC= 8.25D+02 IAcc=1 IRadAn=         1 AccDes= 0.00D+00
 Harris functional with IExCor=  402 and IRadAn=       1 diagonalized for initial guess.
 HarFok:  IExCor=  402 AccDes= 0.00D+00 IRadAn=         1 IDoV= 1 UseB2=F ITyADJ=14
 ICtDFT=  3500011 ScaDFX=  1.000000  1.000000  1.000000  1.000000
 FoFCou: FMM=F IPFlag=           0 FMFlag=      100000 FMFlg1=           0
         NFxFlg=           0 DoJE=T BraDBF=F KetDBF=T FulRan=T
         wScrn=  0.000000 ICntrl=     500 IOpCl=  0 I1Cent=   200000004 NGrid=           0
         NMat0=    1 NMatS0=      1 NMatT0=    0 NMatD0=    1 NMtDS0=    0 NMtDT0=    0
 Petite list used in FoFCou.
 Harris En= -267.220653098484    
 Leave Link  401 at Fri Aug 26 14:41:01 2022, MaxMem= 24159191040 cpu:        14.6
 (Enter /public/home/users/caep010/software/Gaussian09/g09/l502.exe)
 Closed shell SCF:
 Using DIIS extrapolation, IDIIS=  1040.
 Integral symmetry usage will be decided dynamically.
 Keep R1 ints in memory in canonical form, NReq=85796735.
 IVT=      117295 IEndB=      117295 NGot= 24159191040 MDV= 24076120106
 LenX= 24076120106 LenY= 24076089040
 Requested convergence on RMS density matrix=1.00D-08 within 128 cycles.
 Requested convergence on MAX density matrix=1.00D-06.
 Requested convergence on             energy=1.00D-06.
 No special actions if energy rises.
 FoFCou: FMM=F IPFlag=           0 FMFlag=           0 FMFlg1=           0
         NFxFlg=           0 DoJE=F BraDBF=F KetDBF=F FulRan=T
         wScrn=  0.000000 ICntrl=     600 IOpCl=  0 I1Cent=           0 NGrid=           0
         NMat0=    1 NMatS0=  12880 NMatT0=    0 NMatD0=    1 NMtDS0=    0 NMtDT0=    0
 Symmetry not used in FoFCou.
 Integral accuracy reduced to 1.0D-05 until final iterations.

 Cycle   1  Pass 0  IDiag  1:
 E= -267.179395265513    
 DIIS: error= 4.11D-03 at cycle   1 NSaved=   1.
 NSaved= 1 IEnMin= 1 EnMin= -267.179395265513     IErMin= 1 ErrMin= 4.11D-03
 ErrMax= 4.11D-03  0.00D+00 EMaxC= 1.00D-01 BMatC= 5.40D-03 BMatP= 5.40D-03
 IDIUse=3 WtCom= 9.59D-01 WtEn= 4.11D-02
 Coeff-Com:  0.100D+01
 Coeff-En:   0.100D+01
 Coeff:      0.100D+01
 Gap=     0.996 Goal=   None    Shift=    0.000
 GapD=    0.996 DampG=2.000 DampE=1.000 DampFc=2.0000 IDamp=-1.
 RMSDP=7.26D-04 MaxDP=1.37D-02              OVMax= 1.84D-02

 Cycle   2  Pass 0  IDiag  1:
 E= -267.183799809556     Delta-E=       -0.004404544043 Rises=F Damp=F
 DIIS: error= 1.89D-03 at cycle   2 NSaved=   2.
 NSaved= 2 IEnMin= 2 EnMin= -267.183799809556     IErMin= 2 ErrMin= 1.89D-03
 ErrMax= 1.89D-03  0.00D+00 EMaxC= 1.00D-01 BMatC= 9.81D-04 BMatP= 5.40D-03
 IDIUse=3 WtCom= 9.81D-01 WtEn= 1.89D-02
 Coeff-Com:  0.205D+00 0.795D+00
 Coeff-En:   0.000D+00 0.100D+01
 Coeff:      0.201D+00 0.799D+00
 Gap=     0.211 Goal=   None    Shift=    0.000
 RMSDP=3.99D-04 MaxDP=1.68D-02 DE=-4.40D-03 OVMax= 3.07D-02

 Cycle   3  Pass 0  IDiag  1:
 E= -267.183033737879     Delta-E=        0.000766071677 Rises=F Damp=F
 DIIS: error= 2.66D-03 at cycle   3 NSaved=   3.
 NSaved= 3 IEnMin= 2 EnMin= -267.183799809556     IErMin= 2 ErrMin= 1.89D-03
 ErrMax= 2.66D-03  0.00D+00 EMaxC= 1.00D-01 BMatC= 1.88D-03 BMatP= 9.81D-04
 IDIUse=3 WtCom= 1.63D-01 WtEn= 8.37D-01
 Coeff-Com:  0.187D-01 0.578D+00 0.403D+00
 Coeff-En:   0.000D+00 0.630D+00 0.370D+00
 Coeff:      0.303D-02 0.622D+00 0.375D+00
 Gap=     0.220 Goal=   None    Shift=    0.000
 RMSDP=2.16D-04 MaxDP=9.95D-03 DE= 7.66D-04 OVMax= 1.64D-02

 Cycle   4  Pass 0  IDiag  1:
 E= -267.184558392987     Delta-E=       -0.001524655108 Rises=F Damp=F
 DIIS: error= 3.76D-04 at cycle   4 NSaved=   4.
 NSaved= 4 IEnMin= 4 EnMin= -267.184558392987     IErMin= 4 ErrMin= 3.76D-04
 ErrMax= 3.76D-04  0.00D+00 EMaxC= 1.00D-01 BMatC= 4.56D-05 BMatP= 9.81D-04
 IDIUse=3 WtCom= 9.96D-01 WtEn= 3.76D-03
 Coeff-Com: -0.109D-01 0.276D+00 0.178D+00 0.557D+00
 Coeff-En:   0.000D+00 0.000D+00 0.000D+00 0.100D+01
 Coeff:     -0.108D-01 0.275D+00 0.178D+00 0.558D+00
 Gap=     0.221 Goal=   None    Shift=    0.000
 RMSDP=4.40D-05 MaxDP=1.33D-03 DE=-1.52D-03 OVMax= 2.14D-03

 Cycle   5  Pass 0  IDiag  1:
 E= -267.184593241094     Delta-E=       -0.000034848107 Rises=F Damp=F
 DIIS: error= 1.38D-04 at cycle   5 NSaved=   5.
 NSaved= 5 IEnMin= 5 EnMin= -267.184593241094     IErMin= 5 ErrMin= 1.38D-04
 ErrMax= 1.38D-04  0.00D+00 EMaxC= 1.00D-01 BMatC= 2.81D-06 BMatP= 4.56D-05
 IDIUse=3 WtCom= 9.99D-01 WtEn= 1.38D-03
 Coeff-Com: -0.557D-02 0.979D-01 0.664D-01 0.273D+00 0.569D+00
 Coeff-En:   0.000D+00 0.000D+00 0.000D+00 0.000D+00 0.100D+01
 Coeff:     -0.556D-02 0.978D-01 0.663D-01 0.272D+00 0.569D+00
 Gap=     0.220 Goal=   None    Shift=    0.000
 RMSDP=1.25D-05 MaxDP=5.81D-04 DE=-3.48D-05 OVMax= 1.16D-03

 Cycle   6  Pass 0  IDiag  1:
 E= -267.184595562149     Delta-E=       -0.000002321055 Rises=F Damp=F
 DIIS: error= 5.53D-05 at cycle   6 NSaved=   6.
 NSaved= 6 IEnMin= 6 EnMin= -267.184595562149     IErMin= 6 ErrMin= 5.53D-05
 ErrMax= 5.53D-05  0.00D+00 EMaxC= 1.00D-01 BMatC= 6.01D-07 BMatP= 2.81D-06
 IDIUse=1 WtCom= 1.00D+00 WtEn= 0.00D+00
 Coeff-Com: -0.197D-02 0.209D-01 0.163D-01 0.911D-01 0.353D+00 0.521D+00
 Coeff:     -0.197D-02 0.209D-01 0.163D-01 0.911D-01 0.353D+00 0.521D+00
 Gap=     0.220 Goal=   None    Shift=    0.000
 RMSDP=4.48D-06 MaxDP=2.02D-04 DE=-2.32D-06 OVMax= 4.02D-04

 Initial convergence to 1.0D-05 achieved.  Increase integral accuracy.
 Cycle   7  Pass 1  IDiag  1:
 E= -267.184599864282     Delta-E=       -0.000004302133 Rises=F Damp=F
 DIIS: error= 1.29D-05 at cycle   1 NSaved=   1.
 NSaved= 1 IEnMin= 1 EnMin= -267.184599864282     IErMin= 1 ErrMin= 1.29D-05
 ErrMax= 1.29D-05  0.00D+00 EMaxC= 1.00D-01 BMatC= 4.81D-08 BMatP= 4.81D-08
 IDIUse=1 WtCom= 1.00D+00 WtEn= 0.00D+00
 Coeff-Com:  0.100D+01
 Coeff:      0.100D+01
 Gap=     0.220 Goal=   None    Shift=    0.000
 RMSDP=4.48D-06 MaxDP=2.02D-04 DE=-4.30D-06 OVMax= 1.64D-04

 Cycle   8  Pass 1  IDiag  1:
 E= -267.184599841947     Delta-E=        0.000000022335 Rises=F Damp=F
 DIIS: error= 1.92D-05 at cycle   2 NSaved=   2.
 NSaved= 2 IEnMin= 1 EnMin= -267.184599864282     IErMin= 1 ErrMin= 1.29D-05
 ErrMax= 1.92D-05  0.00D+00 EMaxC= 1.00D-01 BMatC= 7.05D-08 BMatP= 4.81D-08
 IDIUse=1 WtCom= 1.00D+00 WtEn= 0.00D+00
 Coeff-Com:  0.556D+00 0.444D+00
 Coeff:      0.556D+00 0.444D+00
 Gap=     0.220 Goal=   None    Shift=    0.000
 RMSDP=1.64D-06 MaxDP=7.80D-05 DE= 2.23D-08 OVMax= 1.42D-04

 Cycle   9  Pass 1  IDiag  1:
 E= -267.184599902972     Delta-E=       -0.000000061026 Rises=F Damp=F
 DIIS: error= 7.02D-06 at cycle   3 NSaved=   3.
 NSaved= 3 IEnMin= 3 EnMin= -267.184599902972     IErMin= 3 ErrMin= 7.02D-06
 ErrMax= 7.02D-06  0.00D+00 EMaxC= 1.00D-01 BMatC= 5.52D-09 BMatP= 4.81D-08
 IDIUse=1 WtCom= 1.00D+00 WtEn= 0.00D+00
 Coeff-Com:  0.892D-01 0.225D+00 0.686D+00
 Coeff:      0.892D-01 0.225D+00 0.686D+00
 Gap=     0.220 Goal=   None    Shift=    0.000
 RMSDP=4.50D-07 MaxDP=2.20D-05 DE=-6.10D-08 OVMax= 4.23D-05

 Cycle  10  Pass 1  IDiag  1:
 E= -267.184599907556     Delta-E=       -0.000000004583 Rises=F Damp=F
 DIIS: error= 2.42D-06 at cycle   4 NSaved=   4.
 NSaved= 4 IEnMin= 4 EnMin= -267.184599907556     IErMin= 4 ErrMin= 2.42D-06
 ErrMax= 2.42D-06  0.00D+00 EMaxC= 1.00D-01 BMatC= 7.16D-10 BMatP= 5.52D-09
 IDIUse=1 WtCom= 1.00D+00 WtEn= 0.00D+00
 Coeff-Com: -0.192D-02 0.805D-01 0.367D+00 0.555D+00
 Coeff:     -0.192D-02 0.805D-01 0.367D+00 0.555D+00
 Gap=     0.220 Goal=   None    Shift=    0.000
 RMSDP=1.70D-07 MaxDP=6.19D-06 DE=-4.58D-09 OVMax= 1.23D-05

 Cycle  11  Pass 1  IDiag  1:
 E= -267.184599908242     Delta-E=       -0.000000000686 Rises=F Damp=F
 DIIS: error= 3.95D-07 at cycle   5 NSaved=   5.
 NSaved= 5 IEnMin= 5 EnMin= -267.184599908242     IErMin= 5 ErrMin= 3.95D-07
 ErrMax= 3.95D-07  0.00D+00 EMaxC= 1.00D-01 BMatC= 4.10D-11 BMatP= 7.16D-10
 IDIUse=1 WtCom= 1.00D+00 WtEn= 0.00D+00
 Coeff-Com: -0.593D-02 0.311D-01 0.157D+00 0.291D+00 0.527D+00
 Coeff:     -0.593D-02 0.311D-01 0.157D+00 0.291D+00 0.527D+00
 Gap=     0.220 Goal=   None    Shift=    0.000
 RMSDP=3.26D-08 MaxDP=1.52D-06 DE=-6.86D-10 OVMax= 2.08D-06

 Cycle  12  Pass 1  IDiag  1:
 E= -267.184599908274     Delta-E=       -0.000000000032 Rises=F Damp=F
 DIIS: error= 1.02D-07 at cycle   6 NSaved=   6.
 NSaved= 6 IEnMin= 6 EnMin= -267.184599908274     IErMin= 6 ErrMin= 1.02D-07
 ErrMax= 1.02D-07  0.00D+00 EMaxC= 1.00D-01 BMatC= 3.06D-12 BMatP= 4.10D-11
 IDIUse=1 WtCom= 1.00D+00 WtEn= 0.00D+00
 Coeff-Com: -0.346D-02 0.145D-01 0.755D-01 0.145D+00 0.306D+00 0.462D+00
 Coeff:     -0.346D-02 0.145D-01 0.755D-01 0.145D+00 0.306D+00 0.462D+00
 Gap=     0.220 Goal=   None    Shift=    0.000
 RMSDP=9.83D-09 MaxDP=3.32D-07 DE=-3.22D-11 OVMax= 5.84D-07

 SCF Done:  E(RB3LYP) =  -267.184599908     A.U. after   12 cycles
            NFock= 12  Conv=0.98D-08     -V/T= 2.0068
 KE= 2.653881137574D+02 PE=-9.515786799955D+02 EE= 2.562065375973D+02
 Leave Link  502 at Fri Aug 26 14:41:05 2022, MaxMem= 24159191040 cpu:        63.3
 (Enter /public/home/users/caep010/software/Gaussian09/g09/l701.exe)
 Compute integral first derivatives.
 ... and contract with generalized density number  0.
 Leave Link  701 at Fri Aug 26 14:41:05 2022, MaxMem= 24159191040 cpu:        13.8
 (Enter /public/home/users/caep010/software/Gaussian09/g09/l702.exe)
 L702 exits ... SP integral derivatives will be done elsewhere.
 Leave Link  702 at Fri Aug 26 14:41:05 2022, MaxMem= 24159191040 cpu:         0.5
 (Enter /public/home/users/caep010/software/Gaussian09/g09/l703.exe)
 Compute integral first derivatives, UseDBF=F ICtDFT=           0.
 Integral derivatives from FoFJK, PRISM(SPDF).
 Calling FoFJK, ICntrl=      2127 FMM=F ISym2X=0 I1Cent= 0 IOpClX= 0 NMat=1 NMatS=1 NMatT=0.
 FoFJK:  IHMeth= 1 ICntrl=    2127 DoSepK=F KAlg= 0 I1Cent=   0 FoldK=F
 IRaf=         0 NMat=   1 IRICut=       1 DoRegI=T DoRafI=F ISym2E= 0.
 FoFCou: FMM=F IPFlag=           0 FMFlag=      100000 FMFlg1=         800
         NFxFlg=           0 DoJE=F BraDBF=F KetDBF=F FulRan=T
         wScrn=  0.000000 ICntrl=    2127 IOpCl=  0 I1Cent=           0 NGrid=           0
         NMat0=    1 NMatS0=      1 NMatT0=    0 NMatD0=    1 NMtDS0=    0 NMtDT0=    0
 Symmetry not used in FoFCou.
 Leave Link  703 at Fri Aug 26 14:41:06 2022, MaxMem= 24159191040 cpu:        26.8
 (Enter /public/home/users/caep010/software/Gaussian09/g09/l716.exe)
 Dipole        =-6.32199191D-01 5.35051627D-01 2.01249015D-05
 ***** Axes restored to original set *****
 -------------------------------------------------------------------
 Center     Atomic                   Forces (Hartrees/Bohr)
 Number     Number              X              Y              Z
 -------------------------------------------------------------------
      1        6          -0.002362020   -0.004152071   -0.000588224
      2        6           0.013555480    0.008447992   -0.001663748
      3        6          -0.024829605   -0.018061085    0.002196521
      4        8           0.011561991    0.014892146    0.001094606
      5        8           0.001938297    0.004229023    0.000750030
      6        1           0.000483123    0.000939412    0.000150068
      7        1           0.000477395    0.000036778   -0.000142127
      8        1          -0.002141836   -0.001690519    0.000148550
      9        1           0.001317175   -0.004641675   -0.001945675
 -------------------------------------------------------------------
 Cartesian Forces:  Max     0.024829605 RMS     0.007801634
 Leave Link  716 at Fri Aug 26 14:41:06 2022, MaxMem= 24159191040 cpu:         0.5
 (Enter /public/home/users/caep010/software/Gaussian09/g09/l103.exe)

 GradGradGradGradGradGradGradGradGradGradGradGradGradGradGradGradGradGrad
 Berny optimization.
 Using GEDIIS/GDIIS optimizer.
 FormGI is forming the generalized inverse of G from B-inverse, IUseBI=4.
 Internal  Forces:  Max     0.018524611 RMS     0.004617232
 Search for a local minimum.
 Step number   2 out of a maximum of   38
 All quantities printed in internal units (Hartrees-Bohrs-Radians)
 RMS Force = .46172D-02 SwitMx=.10000D-02 MixMth= 1
 Mixed Optimization -- RFO/linear search
 Update second derivatives using D2CorX and points    1    2
 DE= -1.73D-02 DEPred=-1.73D-02 R= 9.98D-01
 TightC=F SS=  1.41D+00  RLast= 3.00D-01 DXNew= 5.0454D-01 9.0000D-01
 Trust test= 9.98D-01 RLast= 3.00D-01 DXMaxT set to 5.05D-01
 ITU=  1  0
 Use linear search instead of GDIIS.
     Eigenvalues ---    0.01161   0.01372   0.01789   0.02136   0.03002
     Eigenvalues ---    0.03002   0.15925   0.16000   0.16000   0.16173
     Eigenvalues ---    0.21834   0.24548   0.26388   0.35605   0.35677
     Eigenvalues ---    0.35719   0.36273   0.45925   0.49553   0.59712
     Eigenvalues ---    0.75035
 RFO step:  Lambda=-9.85781231D-04 EMin= 1.16067629D-02
 Quartic linear search produced a step of  0.13783.
 Iteration  1 RMS(Cart)=  0.02310281 RMS(Int)=  0.00037586
 Iteration  2 RMS(Cart)=  0.00037654 RMS(Int)=  0.00000040
 Iteration  3 RMS(Cart)=  0.00000004 RMS(Int)=  0.00000040
 ITry= 1 IFail=0 DXMaxC= 7.74D-02 DCOld= 1.00D+10 DXMaxT= 5.05D-01 DXLimC= 3.00D+00 Rises=F
 Variable       Old X    -DE/DX   Delta X   Delta X   Delta X     New X
                                 (Linear)    (Quad)   (Total)
    R1        2.52502  -0.00312   0.00137  -0.00736  -0.00599   2.51903
    R2        2.04953   0.00013   0.00061  -0.00026   0.00035   2.04988
    R3        2.04768  -0.00007   0.00025  -0.00049  -0.00024   2.04745
    R4        2.76279   0.00906  -0.00212   0.03113   0.02901   2.79180
    R5        2.04386   0.00130  -0.00044   0.00463   0.00418   2.04804
    R6        2.30943  -0.01852  -0.00976  -0.01694  -0.02670   2.28273
    R7        2.55175  -0.00111  -0.01103   0.00885  -0.00218   2.54957
    R8        1.83169  -0.00245  -0.01139   0.00586  -0.00553   1.82616
    A1        2.10883   0.00111   0.00230   0.00457   0.00687   2.11570
    A2        2.11759  -0.00005  -0.00050   0.00038  -0.00012   2.11748
    A3        2.05676  -0.00106  -0.00180  -0.00496  -0.00675   2.05001
    A4        2.15744   0.00361   0.00339   0.01431   0.01770   2.17515
    A5        2.11812   0.00065   0.00586  -0.00046   0.00540   2.12352
    A6        2.00763  -0.00426  -0.00925  -0.01385  -0.02310   1.98452
    A7        2.13872   0.00568   0.00740   0.01675   0.02415   2.16287
    A8        1.99757  -0.00286  -0.01530   0.00558  -0.00972   1.98785
    A9        2.14689  -0.00281   0.00790  -0.02233  -0.01443   2.13246
   A10        1.89635  -0.00840  -0.02940  -0.01783  -0.04723   1.84912
    D1       -3.14156  -0.00000  -0.00001  -0.00002  -0.00003  -3.14159
    D2       -0.00002   0.00000  -0.00000   0.00002   0.00002  -0.00000
    D3       -0.00000   0.00000   0.00000   0.00000   0.00000   0.00000
    D4        3.14154   0.00000   0.00001   0.00004   0.00005   3.14159
    D5        3.14159   0.00000  -0.00000   0.00007   0.00007  -3.14152
    D6        0.00001  -0.00000   0.00001  -0.00007  -0.00007  -0.00005
    D7        0.00005  -0.00000  -0.00001   0.00004   0.00003   0.00008
    D8       -3.14153  -0.00000   0.00000  -0.00011  -0.00011   3.14155
    D9        3.14158   0.00000  -0.00001   0.00008   0.00008  -3.14153
   D10        0.00000  -0.00000   0.00001  -0.00007  -0.00006  -0.00006
         Item               Value     Threshold  Converged?
 Maximum Force            0.018525     0.000450     NO 
 RMS     Force            0.004617     0.000300     NO 
 Maximum Displacement     0.077439     0.001800     NO 
 RMS     Displacement     0.023000     0.001200     NO 
 Predicted change in Energy=-8.535885D-04
 Lowest energy point so far.  Saving SCF results.
 GradGradGradGradGradGradGradGradGradGradGradGradGradGradGradGradGradGrad

 Leave Link  103 at Fri Aug 26 14:41:06 2022, MaxMem= 24159191040 cpu:         2.1
 (Enter /public/home/users/caep010/software/Gaussian09/g09/l202.exe)
                          Input orientation:                          
 ---------------------------------------------------------------------
 Center     Atomic      Atomic             Coordinates (Angstroms)
 Number     Number       Type             X           Y           Z
 ---------------------------------------------------------------------
      1          6           0        1.396020    0.271894   -0.366468
      2          6           0        0.383251   -0.593532   -0.318896
      3          6           0       -0.958271   -0.287106    0.218702
      4          8           0       -1.867361   -1.081701    0.255679
      5          8           0       -1.089081    0.976133    0.674100
      6          1           0        2.360196   -0.012778   -0.773905
      7          1           0        1.288170    1.285805   -0.000077
      8          1           0        0.484910   -1.608967   -0.683771
      9          1           0       -1.997735    1.050052    0.994636
 ---------------------------------------------------------------------
                    Distance matrix (angstroms):
                    1          2          3          4          5
     1  C    0.000000
     2  C    1.333015   0.000000
     3  C    2.489496   1.477359   0.000000
     4  O    3.587331   2.373541   1.207971   0.000000
     5  O    2.784684   2.370158   1.349174   2.239526   0.000000
     6  H    1.084748   2.110124   3.474586   4.480500   3.869390
     7  H    1.083462   2.110079   2.751075   3.953211   2.490329
     8  H    2.113869   1.083778   2.155121   2.587229   3.317228
     9  H    3.738410   3.177393   1.862941   2.259962   0.966363
                    6          7          8          9
     6  H    0.000000
     7  H    1.853205   0.000000
     8  H    2.464273   3.080969   0.000000
     9  H    4.821712   3.441251   4.006364   0.000000
 Stoichiometry    C3H4O2
 Framework group  C1[X(C3H4O2)]
 Deg. of freedom    21
 Full point group                 C1      NOp   1
 RotChk:  IX=2 Diff= 1.17D-02
 Largest Abelian subgroup         C1      NOp   1
 Largest concise Abelian subgroup C1      NOp   1
                         Standard orientation:                         
 ---------------------------------------------------------------------
 Center     Atomic      Atomic             Coordinates (Angstroms)
 Number     Number       Type             X           Y           Z
 ---------------------------------------------------------------------
      1          6           0       -1.925878    0.119525   -0.000009
      2          6           0       -0.830638   -0.640330    0.000005
      3          6           0        0.552067   -0.120025    0.000042
      4          8           0        1.536038   -0.820736   -0.000018
      5          8           0        0.629133    1.226946   -0.000004
      6          1           0       -2.916635   -0.322152   -0.000030
      7          1           0       -1.861061    1.201046    0.000007
      8          1           0       -0.888938   -1.722539   -0.000004
      9          1           0        1.571957    1.438940   -0.000035
 ---------------------------------------------------------------------
 Rotational constants (GHZ):     10.8307004      4.3671174      3.1122192
 Leave Link  202 at Fri Aug 26 14:41:06 2022, MaxMem= 24159191040 cpu:         0.2
 (Enter /public/home/users/caep010/software/Gaussian09/g09/l301.exe)
 Standard basis: GTBas3 (6D, 7F)
 Ernie: Thresh=  0.10000D-02 Tol=  0.10000D-05 Strict=F.
 There are   175 symmetry adapted cartesian basis functions of A   symmetry.
 There are   160 symmetry adapted basis functions of A   symmetry.
   160 basis functions,   248 primitive gaussians,   175 cartesian basis functions
    19 alpha electrons       19 beta electrons
       nuclear repulsion energy       162.8719688728 Hartrees.
 IExCor=  402 DFT=T Ex+Corr=B3LYP ExCW=0 ScaHFX=  0.200000
 ScaDFX=  0.800000  0.720000  1.000000  0.810000 ScalE2=  1.000000  1.000000
 IRadAn=      0 IRanWt=     -1 IRanGd=            0 ICorTp=0 IEmpDi=  4
 NAtoms=    9 NActive=    9 NUniq=    9 SFac= 1.00D+00 NAtFMM=   60 NAOKFM=F Big=F
 Integral buffers will be    131072 words long.
 Raffenetti 2 integral format.
 Two-electron integral symmetry is turned on.
 Leave Link  301 at Fri Aug 26 14:41:07 2022, MaxMem= 24159191040 cpu:         1.6
 (Enter /public/home/users/caep010/software/Gaussian09/g09/l302.exe)
 NPDir=0 NMtPBC=     1 NCelOv=     1 NCel=       1 NClECP=     1 NCelD=      1
         NCelK=      1 NCelE2=     1 NClLst=     1 CellRange=     0.0.
 One-electron integrals computed using PRISM.
 NBasis=   160 RedAO= T EigKep=  8.62D-04  NBF=   160
 NBsUse=   160 1.00D-06 EigRej= -1.00D+00 NBFU=   160
 Precomputing XC quadrature grid using
 IXCGrd= 4 IRadAn=           0 IRanWt=          -1 IRanGd=           0 AccXCQ= 0.00D+00.
 Generated NRdTot=       0 NPtTot=           0 NUsed=           0 NTot=          32
 NSgBfM=   175   175   175   175   175 MxSgAt=     9 MxSgA2=     9.
 Leave Link  302 at Fri Aug 26 14:41:07 2022, MaxMem= 24159191040 cpu:        13.4
 (Enter /public/home/users/caep010/software/Gaussian09/g09/l303.exe)
 DipDrv:  MaxL=1.
 Leave Link  303 at Fri Aug 26 14:41:07 2022, MaxMem= 24159191040 cpu:         0.6
 (Enter /public/home/users/caep010/software/Gaussian09/g09/l401.exe)
 Initial guess from the checkpoint file:  "G4.Frag_507.chk"
 B after Tr=     0.000000    0.000000    0.000000
         Rot=    0.999997   -0.000000   -0.000000    0.002636 Ang=  -0.30 deg.
 Guess basis will be translated and rotated to current coordinates.
 JPrj=2 DoOrth=T DoCkMO=T.
 Generating alternative initial guess.
 ExpMin= 1.61D-01 ExpMax= 5.48D+03 ExpMxC= 8.25D+02 IAcc=1 IRadAn=         1 AccDes= 0.00D+00
 Harris functional with IExCor=  402 and IRadAn=       1 diagonalized for initial guess.
 HarFok:  IExCor=  402 AccDes= 0.00D+00 IRadAn=         1 IDoV= 1 UseB2=F ITyADJ=14
 ICtDFT=  3500011 ScaDFX=  1.000000  1.000000  1.000000  1.000000
 FoFCou: FMM=F IPFlag=           0 FMFlag=      100000 FMFlg1=           0
         NFxFlg=           0 DoJE=T BraDBF=F KetDBF=T FulRan=T
         wScrn=  0.000000 ICntrl=     500 IOpCl=  0 I1Cent=   200000004 NGrid=           0
         NMat0=    1 NMatS0=      1 NMatT0=    0 NMatD0=    1 NMtDS0=    0 NMtDT0=    0
 Petite list used in FoFCou.
 Harris En= -267.220968158641    
 Leave Link  401 at Fri Aug 26 14:41:08 2022, MaxMem= 24159191040 cpu:        13.8
 (Enter /public/home/users/caep010/software/Gaussian09/g09/l502.exe)
 Closed shell SCF:
 Using DIIS extrapolation, IDIIS=  1040.
 Integral symmetry usage will be decided dynamically.
 Keep R1 ints in memory in canonical form, NReq=85796735.
 IVT=      117295 IEndB=      117295 NGot= 24159191040 MDV= 24076120106
 LenX= 24076120106 LenY= 24076089040
 Requested convergence on RMS density matrix=1.00D-08 within 128 cycles.
 Requested convergence on MAX density matrix=1.00D-06.
 Requested convergence on             energy=1.00D-06.
 No special actions if energy rises.
 FoFCou: FMM=F IPFlag=           0 FMFlag=           0 FMFlg1=           0
         NFxFlg=           0 DoJE=F BraDBF=F KetDBF=F FulRan=T
         wScrn=  0.000000 ICntrl=     600 IOpCl=  0 I1Cent=           0 NGrid=           0
         NMat0=    1 NMatS0=  12880 NMatT0=    0 NMatD0=    1 NMtDS0=    0 NMtDT0=    0
 Symmetry not used in FoFCou.
 Integral accuracy reduced to 1.0D-05 until final iterations.

 Cycle   1  Pass 0  IDiag  1:
 E= -267.184792609443    
 DIIS: error= 1.29D-03 at cycle   1 NSaved=   1.
 NSaved= 1 IEnMin= 1 EnMin= -267.184792609443     IErMin= 1 ErrMin= 1.29D-03
 ErrMax= 1.29D-03  0.00D+00 EMaxC= 1.00D-01 BMatC= 5.45D-04 BMatP= 5.45D-04
 IDIUse=3 WtCom= 9.87D-01 WtEn= 1.29D-02
 Coeff-Com:  0.100D+01
 Coeff-En:   0.100D+01
 Coeff:      0.100D+01
 Gap=     0.986 Goal=   None    Shift=    0.000
 GapD=    0.986 DampG=2.000 DampE=1.000 DampFc=2.0000 IDamp=-1.
 RMSDP=2.51D-04 MaxDP=6.10D-03              OVMax= 7.72D-03

 Cycle   2  Pass 0  IDiag  1:
 E= -267.185275214394     Delta-E=       -0.000482604952 Rises=F Damp=F
 DIIS: error= 7.22D-04 at cycle   2 NSaved=   2.
 NSaved= 2 IEnMin= 2 EnMin= -267.185275214394     IErMin= 2 ErrMin= 7.22D-04
 ErrMax= 7.22D-04  0.00D+00 EMaxC= 1.00D-01 BMatC= 1.50D-04 BMatP= 5.45D-04
 IDIUse=3 WtCom= 9.93D-01 WtEn= 7.22D-03
 Coeff-Com:  0.264D+00 0.736D+00
 Coeff-En:   0.000D+00 0.100D+01
 Coeff:      0.262D+00 0.738D+00
 Gap=     0.222 Goal=   None    Shift=    0.000
 RMSDP=1.26D-04 MaxDP=6.16D-03 DE=-4.83D-04 OVMax= 8.01D-03

 Cycle   3  Pass 0  IDiag  1:
 E= -267.185196584395     Delta-E=        0.000078629999 Rises=F Damp=F
 DIIS: error= 9.94D-04 at cycle   3 NSaved=   3.
 NSaved= 3 IEnMin= 2 EnMin= -267.185275214394     IErMin= 2 ErrMin= 7.22D-04
 ErrMax= 9.94D-04  0.00D+00 EMaxC= 1.00D-01 BMatC= 2.48D-04 BMatP= 1.50D-04
 IDIUse=3 WtCom= 2.41D-01 WtEn= 7.59D-01
 Coeff-Com:  0.246D-02 0.563D+00 0.434D+00
 Coeff-En:   0.000D+00 0.603D+00 0.397D+00
 Coeff:      0.591D-03 0.593D+00 0.406D+00
 Gap=     0.225 Goal=   None    Shift=    0.000
 RMSDP=7.05D-05 MaxDP=3.47D-03 DE= 7.86D-05 OVMax= 5.22D-03

 Cycle   4  Pass 0  IDiag  1:
 E= -267.185381231140     Delta-E=       -0.000184646744 Rises=F Damp=F
 DIIS: error= 8.43D-05 at cycle   4 NSaved=   4.
 NSaved= 4 IEnMin= 4 EnMin= -267.185381231140     IErMin= 4 ErrMin= 8.43D-05
 ErrMax= 8.43D-05  0.00D+00 EMaxC= 1.00D-01 BMatC= 2.86D-06 BMatP= 1.50D-04
 IDIUse=1 WtCom= 1.00D+00 WtEn= 0.00D+00
 Coeff-Com: -0.125D-01 0.235D+00 0.162D+00 0.616D+00
 Coeff:     -0.125D-01 0.235D+00 0.162D+00 0.616D+00
 Gap=     0.225 Goal=   None    Shift=    0.000
 RMSDP=1.12D-05 MaxDP=4.34D-04 DE=-1.85D-04 OVMax= 7.07D-04

 Cycle   5  Pass 0  IDiag  1:
 E= -267.185383250200     Delta-E=       -0.000002019060 Rises=F Damp=F
 DIIS: error= 4.78D-05 at cycle   5 NSaved=   5.
 NSaved= 5 IEnMin= 5 EnMin= -267.185383250200     IErMin= 5 ErrMin= 4.78D-05
 ErrMax= 4.78D-05  0.00D+00 EMaxC= 1.00D-01 BMatC= 4.04D-07 BMatP= 2.86D-06
 IDIUse=1 WtCom= 1.00D+00 WtEn= 0.00D+00
 Coeff-Com: -0.640D-02 0.832D-01 0.586D-01 0.331D+00 0.534D+00
 Coeff:     -0.640D-02 0.832D-01 0.586D-01 0.331D+00 0.534D+00
 Gap=     0.225 Goal=   None    Shift=    0.000
 RMSDP=4.18D-06 MaxDP=2.11D-04 DE=-2.02D-06 OVMax= 4.23D-04

 Initial convergence to 1.0D-05 achieved.  Increase integral accuracy.
 Cycle   6  Pass 1  IDiag  1:
 E= -267.185391457836     Delta-E=       -0.000008207636 Rises=F Damp=F
 DIIS: error= 1.56D-05 at cycle   1 NSaved=   1.
 NSaved= 1 IEnMin= 1 EnMin= -267.185391457836     IErMin= 1 ErrMin= 1.56D-05
 ErrMax= 1.56D-05  0.00D+00 EMaxC= 1.00D-01 BMatC= 7.75D-08 BMatP= 7.75D-08
 IDIUse=1 WtCom= 1.00D+00 WtEn= 0.00D+00
 Coeff-Com:  0.100D+01
 Coeff:      0.100D+01
 Gap=     0.225 Goal=   None    Shift=    0.000
 RMSDP=4.18D-06 MaxDP=2.11D-04 DE=-8.21D-06 OVMax= 3.79D-04

 Cycle   7  Pass 1  IDiag  1:
 E= -267.185391321786     Delta-E=        0.000000136050 Rises=F Damp=F
 DIIS: error= 3.12D-05 at cycle   2 NSaved=   2.
 NSaved= 2 IEnMin= 1 EnMin= -267.185391457836     IErMin= 1 ErrMin= 1.56D-05
 ErrMax= 3.12D-05  0.00D+00 EMaxC= 1.00D-01 BMatC= 2.04D-07 BMatP= 7.75D-08
 IDIUse=1 WtCom= 1.00D+00 WtEn= 0.00D+00
 Coeff-Com:  0.629D+00 0.371D+00
 Coeff:      0.629D+00 0.371D+00
 Gap=     0.225 Goal=   None    Shift=    0.000
 RMSDP=2.69D-06 MaxDP=1.22D-04 DE= 1.36D-07 OVMax= 2.90D-04

 Cycle   8  Pass 1  IDiag  1:
 E= -267.185391528470     Delta-E=       -0.000000206684 Rises=F Damp=F
 DIIS: error= 3.93D-06 at cycle   3 NSaved=   3.
 NSaved= 3 IEnMin= 3 EnMin= -267.185391528470     IErMin= 3 ErrMin= 3.93D-06
 ErrMax= 3.93D-06  0.00D+00 EMaxC= 1.00D-01 BMatC= 4.54D-09 BMatP= 7.75D-08
 IDIUse=1 WtCom= 1.00D+00 WtEn= 0.00D+00
 Coeff-Com:  0.110D+00 0.147D+00 0.743D+00
 Coeff:      0.110D+00 0.147D+00 0.743D+00
 Gap=     0.225 Goal=   None    Shift=    0.000
 RMSDP=4.53D-07 MaxDP=1.61D-05 DE=-2.07D-07 OVMax= 2.76D-05

 Cycle   9  Pass 1  IDiag  1:
 E= -267.185391530889     Delta-E=       -0.000000002419 Rises=F Damp=F
 DIIS: error= 2.89D-06 at cycle   4 NSaved=   4.
 NSaved= 4 IEnMin= 4 EnMin= -267.185391530889     IErMin= 4 ErrMin= 2.89D-06
 ErrMax= 2.89D-06  0.00D+00 EMaxC= 1.00D-01 BMatC= 2.13D-09 BMatP= 4.54D-09
 IDIUse=1 WtCom= 1.00D+00 WtEn= 0.00D+00
 Coeff-Com:  0.182D-02 0.576D-01 0.491D+00 0.449D+00
 Coeff:      0.182D-02 0.576D-01 0.491D+00 0.449D+00
 Gap=     0.225 Goal=   None    Shift=    0.000
 RMSDP=2.33D-07 MaxDP=1.04D-05 DE=-2.42D-09 OVMax= 1.77D-05

 Cycle  10  Pass 1  IDiag  1:
 E= -267.185391532400     Delta-E=       -0.000000001511 Rises=F Damp=F
 DIIS: error= 7.99D-07 at cycle   5 NSaved=   5.
 NSaved= 5 IEnMin= 5 EnMin= -267.185391532400     IErMin= 5 ErrMin= 7.99D-07
 ErrMax= 7.99D-07  0.00D+00 EMaxC= 1.00D-01 BMatC= 1.83D-10 BMatP= 2.13D-09
 IDIUse=1 WtCom= 1.00D+00 WtEn= 0.00D+00
 Coeff-Com: -0.892D-02 0.238D-01 0.248D+00 0.288D+00 0.448D+00
 Coeff:     -0.892D-02 0.238D-01 0.248D+00 0.288D+00 0.448D+00
 Gap=     0.225 Goal=   None    Shift=    0.000
 RMSDP=7.20D-08 MaxDP=2.89D-06 DE=-1.51D-09 OVMax= 3.93D-06

 Cycle  11  Pass 1  IDiag  1:
 E= -267.185391532542     Delta-E=       -0.000000000141 Rises=F Damp=F
 DIIS: error= 7.51D-08 at cycle   6 NSaved=   6.
 NSaved= 6 IEnMin= 6 EnMin= -267.185391532542     IErMin= 6 ErrMin= 7.51D-08
 ErrMax= 7.51D-08  0.00D+00 EMaxC= 1.00D-01 BMatC= 1.23D-12 BMatP= 1.83D-10
 IDIUse=1 WtCom= 1.00D+00 WtEn= 0.00D+00
 Coeff-Com: -0.331D-02 0.734D-02 0.792D-01 0.955D-01 0.169D+00 0.653D+00
 Coeff:     -0.331D-02 0.734D-02 0.792D-01 0.955D-01 0.169D+00 0.653D+00
 Gap=     0.225 Goal=   None    Shift=    0.000
 RMSDP=7.90D-09 MaxDP=3.13D-07 DE=-1.41D-10 OVMax= 3.67D-07

 SCF Done:  E(RB3LYP) =  -267.185391533     A.U. after   11 cycles
            NFock= 11  Conv=0.79D-08     -V/T= 2.0066
 KE= 2.654305103606D+02 PE=-9.517242952362D+02 EE= 2.562364244703D+02
 Leave Link  502 at Fri Aug 26 14:41:11 2022, MaxMem= 24159191040 cpu:        55.7
 (Enter /public/home/users/caep010/software/Gaussian09/g09/l701.exe)
 Compute integral first derivatives.
 ... and contract with generalized density number  0.
 Leave Link  701 at Fri Aug 26 14:41:12 2022, MaxMem= 24159191040 cpu:        14.0
 (Enter /public/home/users/caep010/software/Gaussian09/g09/l702.exe)
 L702 exits ... SP integral derivatives will be done elsewhere.
 Leave Link  702 at Fri Aug 26 14:41:12 2022, MaxMem= 24159191040 cpu:         0.5
 (Enter /public/home/users/caep010/software/Gaussian09/g09/l703.exe)
 Compute integral first derivatives, UseDBF=F ICtDFT=           0.
 Integral derivatives from FoFJK, PRISM(SPDF).
 Calling FoFJK, ICntrl=      2127 FMM=F ISym2X=0 I1Cent= 0 IOpClX= 0 NMat=1 NMatS=1 NMatT=0.
 FoFJK:  IHMeth= 1 ICntrl=    2127 DoSepK=F KAlg= 0 I1Cent=   0 FoldK=F
 IRaf=         0 NMat=   1 IRICut=       1 DoRegI=T DoRafI=F ISym2E= 0.
 FoFCou: FMM=F IPFlag=           0 FMFlag=      100000 FMFlg1=         800
         NFxFlg=           0 DoJE=F BraDBF=F KetDBF=F FulRan=T
         wScrn=  0.000000 ICntrl=    2127 IOpCl=  0 I1Cent=           0 NGrid=           0
         NMat0=    1 NMatS0=      1 NMatT0=    0 NMatD0=    1 NMtDS0=    0 NMtDT0=    0
 Symmetry not used in FoFCou.
 Leave Link  703 at Fri Aug 26 14:41:13 2022, MaxMem= 24159191040 cpu:        27.6
 (Enter /public/home/users/caep010/software/Gaussian09/g09/l716.exe)
 Dipole        =-6.18737240D-01 4.83463034D-01 1.56002702D-05
 ***** Axes restored to original set *****
 -------------------------------------------------------------------
 Center     Atomic                   Forces (Hartrees/Bohr)
 Number     Number              X              Y              Z
 -------------------------------------------------------------------
      1        6          -0.001917319   -0.001248889    0.000216745
      2        6           0.003184502    0.001817500   -0.000451378
      3        6          -0.001492912   -0.003553364   -0.000654696
      4        8          -0.000519796   -0.001627608   -0.000369398
      5        8           0.002843426    0.004611442    0.000573464
      6        1           0.000023819    0.000235656    0.000070076
      7        1           0.000199632    0.000356731    0.000051335
      8        1          -0.000804657   -0.000520395    0.000092489
      9        1          -0.001516695   -0.000071072    0.000471364
 -------------------------------------------------------------------
 Cartesian Forces:  Max     0.004611442 RMS     0.001617440
 Leave Link  716 at Fri Aug 26 14:41:13 2022, MaxMem= 24159191040 cpu:         0.5
 (Enter /public/home/users/caep010/software/Gaussian09/g09/l103.exe)

 GradGradGradGradGradGradGradGradGradGradGradGradGradGradGradGradGradGrad
 Berny optimization.
 Using GEDIIS/GDIIS optimizer.
 FormGI is forming the generalized inverse of G from B-inverse, IUseBI=4.
 Internal  Forces:  Max     0.004471627 RMS     0.001192974
 Search for a local minimum.
 Step number   3 out of a maximum of   38
 All quantities printed in internal units (Hartrees-Bohrs-Radians)
 RMS Force = .11930D-02 SwitMx=.10000D-02 MixMth= 1
 Mixed Optimization -- RFO/linear search
 Update second derivatives using D2CorX and points    1    2    3
 DE= -7.92D-04 DEPred=-8.54D-04 R= 9.27D-01
 TightC=F SS=  1.41D+00  RLast= 7.57D-02 DXNew= 8.4853D-01 2.2708D-01
 Trust test= 9.27D-01 RLast= 7.57D-02 DXMaxT set to 5.05D-01
 ITU=  1  1  0
 Use linear search instead of GDIIS.
     Eigenvalues ---    0.01161   0.01365   0.01789   0.02149   0.03002
     Eigenvalues ---    0.03002   0.15263   0.16000   0.16006   0.16875
     Eigenvalues ---    0.21987   0.23920   0.26721   0.35570   0.35648
     Eigenvalues ---    0.35728   0.36356   0.45782   0.52752   0.59079
     Eigenvalues ---    0.79617
 RFO step:  Lambda=-1.07533760D-04 EMin= 1.16067630D-02
 Quartic linear search produced a step of -0.00595.
 Iteration  1 RMS(Cart)=  0.00584223 RMS(Int)=  0.00001679
 Iteration  2 RMS(Cart)=  0.00002566 RMS(Int)=  0.00000028
 Iteration  3 RMS(Cart)=  0.00000000 RMS(Int)=  0.00000028
 ITry= 1 IFail=0 DXMaxC= 1.44D-02 DCOld= 1.00D+10 DXMaxT= 5.05D-01 DXLimC= 3.00D+00 Rises=F
 Variable       Old X    -DE/DX   Delta X   Delta X   Delta X     New X
                                 (Linear)    (Quad)   (Total)
    R1        2.51903  -0.00172   0.00004  -0.00321  -0.00317   2.51586
    R2        2.04988  -0.00007  -0.00000  -0.00016  -0.00016   2.04972
    R3        2.04745   0.00033   0.00000   0.00092   0.00092   2.04836
    R4        2.79180   0.00050  -0.00017   0.00301   0.00284   2.79464
    R5        2.04804   0.00038  -0.00002   0.00129   0.00127   2.04931
    R6        2.28273   0.00145   0.00016   0.00014   0.00030   2.28303
    R7        2.54957   0.00447   0.00001   0.00918   0.00919   2.55876
    R8        1.82616   0.00158   0.00003   0.00296   0.00299   1.82915
    A1        2.11570   0.00016  -0.00004   0.00145   0.00141   2.11711
    A2        2.11748   0.00017   0.00000   0.00103   0.00103   2.11850
    A3        2.05001  -0.00033   0.00004  -0.00247  -0.00243   2.04758
    A4        2.17515  -0.00052  -0.00011  -0.00125  -0.00135   2.17379
    A5        2.12352   0.00116  -0.00003   0.00718   0.00715   2.13067
[...]
 Alpha virt. eigenvalues --    0.03605   0.04352   0.04957   0.05491   0.06938
 Alpha virt. eigenvalues --    0.07087   0.07622   0.08561   0.09577   0.10337
 Alpha virt. eigenvalues --    0.10369   0.13996   0.15383   0.15526   0.16028
 Alpha virt. eigenvalues --    0.16542   0.17913   0.18487   0.19061   0.21562
 Alpha virt. eigenvalues --    0.21710   0.23785   0.23808   0.25036   0.26471
 Alpha virt. eigenvalues --    0.28210   0.30150   0.30908   0.33378   0.34578
 Alpha virt. eigenvalues --    0.37053   0.38034   0.38678   0.41141   0.42172
 Alpha virt. eigenvalues --    0.42630   0.44808   0.47147   0.47270   0.48775
 Alpha virt. eigenvalues --    0.50118   0.51313   0.53590   0.53655   0.55998
 Alpha virt. eigenvalues --    0.56903   0.57815   0.58307   0.59410   0.60518
 Alpha virt. eigenvalues --    0.60936   0.62162   0.63175   0.68476   0.71024
 Alpha virt. eigenvalues --    0.71100   0.72350   0.76722   0.78183   0.82968
 Alpha virt. eigenvalues --    0.84694   0.86001   0.87748   0.88828   0.90653
 Alpha virt. eigenvalues --    0.92399   0.93750   0.96511   0.97651   1.00045
 Alpha virt. eigenvalues --    1.00099   1.00458   1.01439   1.03837   1.05052
 Alpha virt. eigenvalues --    1.06195   1.07717   1.08599   1.11548   1.12219
 Alpha virt. eigenvalues --    1.15526   1.16324   1.16932   1.21329   1.23545
 Alpha virt. eigenvalues --    1.25054   1.27163   1.28555   1.28836   1.31274
 Alpha virt. eigenvalues --    1.33940   1.37050   1.38570   1.42169   1.42467
 Alpha virt. eigenvalues --    1.44247   1.46541   1.46832   1.49211   1.50758
 Alpha virt. eigenvalues --    1.51099   1.54277   1.54930   1.56765   1.60699
 Alpha virt. eigenvalues --    1.61563   1.63945   1.64201   1.64787   1.66908
 Alpha virt. eigenvalues --    1.67887   1.68952   1.71273   1.76053   1.76492
 Alpha virt. eigenvalues --    1.78009   1.79277   1.80537   1.82211   1.90560
 Alpha virt. eigenvalues --    1.92670   1.94938   1.95003   1.97880   2.00491
 Alpha virt. eigenvalues --    2.04634   2.08307   2.09088   2.10056   2.12637
 Alpha virt. eigenvalues --    2.14047   2.15216   2.21413   2.22472   2.22792
 Alpha virt. eigenvalues --    2.25703   2.30535   2.30657   2.35179   2.36093
 Alpha virt. eigenvalues --    2.39022   2.41613   2.45913   2.46240   2.50450
 Alpha virt. eigenvalues --    2.56580   2.59542   2.61789   2.62234   2.62700
 Alpha virt. eigenvalues --    2.66257   2.67956   2.68029   2.70811   2.71711
 Alpha virt. eigenvalues --    2.74829   2.78130   2.78205   2.80029   2.84486
 Alpha virt. eigenvalues --    2.88344   2.90034   2.90653   2.92282   2.93791
 Alpha virt. eigenvalues --    2.95632   2.98501   3.00530   3.05905   3.09052
 Alpha virt. eigenvalues --    3.10291   3.12312   3.12398   3.14281   3.16530
 Alpha virt. eigenvalues --    3.18077   3.18937   3.22177   3.24636   3.25157
 Alpha virt. eigenvalues --    3.26765   3.30203   3.31932   3.32159   3.34929
 Alpha virt. eigenvalues --    3.37623   3.37788   3.40394   3.40969   3.44113
 Alpha virt. eigenvalues --    3.47107   3.47208   3.50041   3.50570   3.53484
 Alpha virt. eigenvalues --    3.56686   3.58324   3.59981   3.62201   3.64511
 Alpha virt. eigenvalues --    3.66571   3.70294   3.71575   3.73067   3.73627
 Alpha virt. eigenvalues --    3.74678   3.79325   3.79684   3.85093   3.88715
 Alpha virt. eigenvalues --    3.89448   3.92727   3.93702   3.95191   3.95963
 Alpha virt. eigenvalues --    3.98307   4.01835   4.04466   4.07223   4.09256
 Alpha virt. eigenvalues --    4.10797   4.11375   4.15922   4.16897   4.20106
 Alpha virt. eigenvalues --    4.23128   4.27608   4.30512   4.30687   4.34237
 Alpha virt. eigenvalues --    4.37319   4.39497   4.41022   4.49305   4.51121
 Alpha virt. eigenvalues --    4.52074   4.53854   4.59977   4.62192   4.64663
 Alpha virt. eigenvalues --    4.64818   4.71545   4.73621   4.75333   4.76393
 Alpha virt. eigenvalues --    4.78864   4.86255   4.93324   4.94404   4.94504
 Alpha virt. eigenvalues --    4.99690   5.03345   5.05710   5.05931   5.08916
 Alpha virt. eigenvalues --    5.14146   5.14181   5.18951   5.23437   5.33228
 Alpha virt. eigenvalues --    5.34157   5.34305   5.37917   5.43714   5.44746
 Alpha virt. eigenvalues --    5.55904   5.56350   5.61731   5.63241   5.73277
 Alpha virt. eigenvalues --    5.79063   5.81954   5.90442   6.02846   6.03449
 Alpha virt. eigenvalues --    6.09878   6.12679   6.13676   6.24761   6.29663
 Alpha virt. eigenvalues --    6.32543   6.39008   6.44290   6.45523   6.50648
 Alpha virt. eigenvalues --    6.58020   6.64132   6.68374   6.74376   6.76004
 Alpha virt. eigenvalues --    6.81375   6.83060   6.86935   6.93342   6.95674
 Alpha virt. eigenvalues --    7.06809   7.09510   7.13114   7.16389   7.21759
 Alpha virt. eigenvalues --    7.22892   7.31205   7.34240   7.36031   7.42228
 Alpha virt. eigenvalues --    7.45521   7.50384   7.56089   7.58217   7.59009
 Alpha virt. eigenvalues --    7.61708   7.64936   7.68088   7.77052   7.77155
 Alpha virt. eigenvalues --    7.79415   7.80452   7.82427   7.88836   7.89207
 Alpha virt. eigenvalues --    7.95045   7.96528   8.01791   8.08845   8.12272
 Alpha virt. eigenvalues --    8.12844   8.15325   8.16361   8.19031   8.23157
 Alpha virt. eigenvalues --    8.26713   8.27555   8.30721   8.36876   8.41055
 Alpha virt. eigenvalues --    8.43115   8.49312   8.54325   8.57971   8.62728
 Alpha virt. eigenvalues --    8.63215   8.64375   8.70288   8.72477   8.74463
 Alpha virt. eigenvalues --    8.76386   8.81076   8.85419   8.85779   8.86897
 Alpha virt. eigenvalues --    8.89594   8.90357   8.94687   8.95339   8.96842
 Alpha virt. eigenvalues --    9.01641   9.02769   9.04052   9.07756   9.13227
 Alpha virt. eigenvalues --    9.16985   9.17873   9.19815   9.22945   9.23653
 Alpha virt. eigenvalues --    9.26456   9.32404   9.36873   9.38718   9.40814
 Alpha virt. eigenvalues --    9.42594   9.44758   9.49641   9.52988   9.53961
 Alpha virt. eigenvalues --    9.62457   9.65618   9.66030   9.72499   9.73748
 Alpha virt. eigenvalues --    9.76853   9.82989   9.84179   9.85195   9.88130
 Alpha virt. eigenvalues --    9.98478  10.00661  10.05091  10.07085  10.14143
 Alpha virt. eigenvalues --   10.14823  10.17007  10.19794  10.23163  10.25017
 Alpha virt. eigenvalues --   10.26375  10.30146  10.32547  10.34912  10.37424
 Alpha virt. eigenvalues --   10.38961  10.42141  10.48537  10.54524  10.56129
 Alpha virt. eigenvalues --   10.58796  10.59370  10.63279  10.63538  10.68615
 Alpha virt. eigenvalues --   10.80199  10.80363  10.84004  10.87495  10.90424
 Alpha virt. eigenvalues --   10.91184  10.95456  10.96480  11.00311  11.02139
 Alpha virt. eigenvalues --   11.04075  11.08103  11.16670  11.18841  11.22790
 Alpha virt. eigenvalues --   11.30864  11.31115  11.34003  11.45537  11.47093
 Alpha virt. eigenvalues --   11.48854  11.54105  11.61086  11.62759  11.63748
 Alpha virt. eigenvalues --   11.75068  11.82022  11.82814  11.88767  11.94603
 Alpha virt. eigenvalues --   11.96508  11.99009  12.05834  12.06713  12.17441
 Alpha virt. eigenvalues --   12.24343  12.29678  12.41906  12.46279  12.56980
 Alpha virt. eigenvalues --   12.63980  12.78102  12.89717  13.04246  13.16272
 Alpha virt. eigenvalues --   13.18746  13.19498  13.24607  13.32215  13.36877
 Alpha virt. eigenvalues --   13.42207  13.48234  13.61017  13.64759  13.93239
 Alpha virt. eigenvalues --   14.09199  14.28976  14.29054  14.32124  14.35548
 Alpha virt. eigenvalues --   14.40077  14.42446  14.46722  14.66134  14.69914
 Alpha virt. eigenvalues --   14.75795  14.77975  14.83808  15.04481  15.08144
 Alpha virt. eigenvalues --   15.21006  15.33964  15.40052  15.47875  15.50191
 Alpha virt. eigenvalues --   15.61074  15.72504  15.75330  15.86736  16.09208
 Alpha virt. eigenvalues --   16.09775  16.17745  16.24437  16.43874  16.47653
 Alpha virt. eigenvalues --   16.82802  16.87793  17.18987  17.24974  17.28861
 Alpha virt. eigenvalues --   17.50577  17.91059  18.03367  18.37876  18.54674
 Alpha virt. eigenvalues --   18.56337  18.58295  18.72088  18.85721  18.88205
 Alpha virt. eigenvalues --   18.95974  19.04381  19.11978  19.12895  19.21681
 Alpha virt. eigenvalues --   19.26983  19.36562  19.38935  19.46330  19.46562
 Alpha virt. eigenvalues --   19.51049  19.54402  19.62608  19.64523  19.71692
 Alpha virt. eigenvalues --   19.82130  19.84227  19.91078  20.07578  20.08856
 Alpha virt. eigenvalues --   20.27828  20.73146  21.02307  21.19772  21.50677
 Alpha virt. eigenvalues --   22.26821  22.30232  22.35713  22.40773  22.45688
 Alpha virt. eigenvalues --   23.14221  23.19144  23.45594  23.74554  23.83846
 Alpha virt. eigenvalues --   24.13880  24.30789  38.71673  40.79724  41.35843
 Alpha virt. eigenvalues --   63.37486  64.14506
          Condensed to atoms (all electrons):
               1          2          3          4          5          6
     1  C    4.940229   0.682066  -0.076477   0.004057  -0.020878   0.405734
     2  C    0.682066   4.845992   0.476581  -0.058846  -0.065140  -0.024454
     3  C   -0.076477   0.476581   4.142983   0.516857   0.341003   0.003725
     4  O    0.004057  -0.058846   0.516857   8.215871  -0.101722  -0.000551
     5  O   -0.020878  -0.065140   0.341003  -0.101722   8.112073  -0.000428
     6  H    0.405734  -0.024454   0.003725  -0.000551  -0.000428   0.428145
     7  H    0.409528  -0.016146  -0.005394   0.000047  -0.003796  -0.021819
     8  H   -0.032936   0.407317  -0.023179   0.001188   0.004367  -0.005070
     9  H   -0.000531   0.007379  -0.016003   0.007465   0.302276   0.000074
               7          8          9
     1  C    0.409528  -0.032936  -0.000531
     2  C   -0.016146   0.407317   0.007379
     3  C   -0.005394  -0.023179  -0.016003
     4  O    0.000047   0.001188   0.007465
     5  O   -0.003796   0.004367   0.302276
     6  H   -0.021819  -0.005070   0.000074
     7  H    0.414533   0.003556  -0.000075
     8  H    0.003556   0.415932  -0.000195
     9  H   -0.000075  -0.000195   0.285081
 Mulliken charges:
               1
     1  C   -0.310794
     2  C   -0.254750
     3  C    0.639903
     4  O   -0.584366
     5  O   -0.567754
     6  H    0.214643
     7  H    0.219567
     8  H    0.229020
     9  H    0.414529
 Sum of Mulliken charges =  -0.00000
 Mulliken charges with hydrogens summed into heavy atoms:
               1
     1  C    0.123417
     2  C   -0.025730
     3  C    0.639903
     4  O   -0.584366
     5  O   -0.153224
 Electronic spatial extent (au):  <R**2>=            393.2728
 Charge=             -0.0000 electrons
 Dipole moment (field-independent basis, Debye):
    X=             -2.1687    Y=              1.4123    Z=             -0.0000  Tot=              2.5880
 Quadrupole moment (field-independent basis, Debye-Ang):
   XX=            -26.8071   YY=            -28.8773   ZZ=            -30.6168
   XY=              5.4528   XZ=              0.0000   YZ=             -0.0000
 Traceless Quadrupole moment (field-independent basis, Debye-Ang):
   XX=              1.9600   YY=             -0.1102   ZZ=             -1.8498
   XY=              5.4528   XZ=              0.0000   YZ=             -0.0000
 Octapole moment (field-independent basis, Debye-Ang**2):
  XXX=             -4.7731  YYY=              4.3183  ZZZ=             -0.0000  XYY=              2.0790
  XXY=             12.4571  XXZ=              0.0000  XZZ=              5.4339  YZZ=              1.3372
  YYZ=              0.0000  XYZ=              0.0000
 Hexadecapole moment (field-independent basis, Debye-Ang**3):
 XXXX=           -297.9022 YYYY=           -130.9599 ZZZZ=            -31.3721 XXXY=             22.5456
 XXXZ=              0.0000 YYYX=             11.7705 YYYZ=             -0.0000 ZZZX=              0.0000
 ZZZY=             -0.0000 XXYY=            -68.4636 XXZZ=            -64.1149 YYZZ=            -29.8538
 XXYZ=             -0.0000 YYXZ=             -0.0000 ZZXY=             -0.4761
 N-N= 1.627398312143D+02 E-N=-9.507338730800D+02  KE= 2.654310853949D+02
 No NMR shielding tensors so no spin-rotation constants.
 Leave Link  601 at Fri Aug 26 14:48:35 2022, MaxMem= 24159191040 cpu:        27.5
 (Enter /public/home/users/caep010/software/Gaussian09/g09/l9999.exe)
 1\1\GINC-B1567\SP\RHF\GFHFB2\C3H4O2\ROOT\26-Aug-2022\0\\#P Geom=AllChe
 ck Guess=TCheck SCRF=Check HF/GFHFB2 SCF=Tight\\Frag_507\\0,1\C,0,1.39
 31968727,0.2721107619,-0.3654781775\C,0,0.3849012366,-0.5958552673,-0.
 3201841238\C,0,-0.959181896,-0.2919458981,0.2174699068\O,0,-1.86826948
 39,-1.0861468042,0.2545083606\O,0,-1.0823996148,0.9788327328,0.6728040
 516\H,0,2.3596556675,-0.0065107141,-0.7717087846\H,0,1.282493429,1.285
 8151345,0.0017973593\H,0,0.481740203,-1.6128343443,-0.684007242\H,0,-1
 .992036414,1.0563343988,0.9947986498\\Version=ES64L-G09RevE.01\State=1
 -A\HF=-265.7810116\RMSD=9.045e-09\Dipole=0.7884081,0.6425841,-0.047209
 9\Quadrupole=1.5620024,-1.2216802,-0.3403221,-3.3134804,-2.04045,1.130
 8623\PG=C01 [X(C3H4O2)]\\@


 IF IT HAPPENS, IT MUST BE POSSIBLE.

 -- THE UNNAMED LAW FROM PAUL DICKSON'S 
    "THE OFFICIAL RULES"
 Diagonal vibrational polarizability:
        0.0000000       0.0000000       0.0000000

 Temperature=              298.150000 Pressure=                      1.000000
 E(ZPE)=                     0.066487 E(Thermal)=                    0.071550
 E(CCSD(T))=              -266.432374 E(Empiric)=                   -0.097258
 DE(Plus)=                  -0.020563 DE(2DF)=                      -0.202538
 E(Delta-G3XP)=             -0.333111 DE(HF)=                       -0.027125
 G4(0 K)=                 -267.046483 G4 Energy=                  -267.041419
 G4 Enthalpy=             -267.040475 G4 Free Energy=             -267.074536
 1\1\GINC-B1567\Mixed\G4\G4\C3H4O2\ROOT\26-Aug-2022\0\\#P Geom=AllCheck
  Guess=TCheck SCRF=Check HF/GFHFB2 SCF=Tight\\Frag_507\\0,1\C,0,1.3931
 968727,0.2721107619,-0.3654781775\C,0,0.3849012366,-0.5958552673,-0.32
 01841238\C,0,-0.959181896,-0.2919458981,0.2174699068\O,0,-1.8682694839
 ,-1.0861468042,0.2545083606\O,0,-1.0823996148,0.9788327328,0.672804051
 6\H,0,2.3596556675,-0.0065107141,-0.7717087846\H,0,1.282493429,1.28581
 51345,0.0017973593\H,0,0.481740203,-1.6128343443,-0.684007242\H,0,-1.9
 92036414,1.0563343988,0.9947986498\\Version=ES64L-G09RevE.01\State=1-A
 \MP2/GTBas1=-266.3789339\MP4/GTBas1=-266.4351197\CCSD(T)/G3Bas1=-266.4
 323745\MP2/GTBas2=-266.3984594\MP4/GTBas2=-266.4556828\MP2/GTBas3=-266
 .5698046\MP4/GTBas3=-266.6376577\HF/GTLargeXP=-265.7549648\MP2/GTLarge
 XP=-266.9224415\HF/GFHFB1=-265.7765881\HF/GFHFB2=-265.7810116\G4=-267.
 046483\FreqCoord=2.6327605385,0.5142148178,-0.6906536631,0.7273579254,
 -1.1260032701,-0.6050603061,-1.8125910951,-0.551697793,0.410958566,-3.
 5305176669,-2.0525200001,0.4809511001,-2.0454388383,1.8497257949,1.271
 4153986,4.4591029794,-0.0123034667,-1.4583182573,2.423561348,2.4298384
 618,0.0033965168,0.9103570509,-3.0478152084,-1.2925863603,-3.764403269
 2,1.9961827185,1.8798970054\PG=C01 [X(C3H4O2)]\NImag=0\\0.72213615,0.1
 4903747,0.68717967,-0.14829727,0.13728854,0.21137170,-0.35555754,-0.22
 137064,0.02735803,0.65301039,-0.22633263,-0.30203450,-0.00854191,0.180
 87754,0.72999522,0.02573705,-0.01016023,-0.06164687,-0.11423140,0.1397
 7038,0.20450288,-0.03017454,-0.00943613,0.00780156,-0.17389636,0.04370
 017,0.04347072,0.81063114,-0.02124179,0.01151876,0.00964638,0.03716023
 ,-0.10209528,-0.01790580,0.21887101,0.70834777,0.00394468,0.00579598,0
 .00380464,0.04133402,-0.02003877,-0.10441171,-0.12448899,0.09151898,0.
 28019922,-0.00269714,0.00903044,0.00434026,-0.05097929,-0.04291760,0.0
 1036446,-0.47653368,-0.30234551,0.03154672,0.51375054,0.00309722,0.003
 68787,-0.00031663,-0.01805435,0.00494514,-0.00026756,-0.30443475,-0.36
 384895,0.00556649,0.37978802,0.43105750,0.00240193,-0.00225173,0.00004
 601,0.01848711,0.00784153,0.02032063,0.03086411,0.00488504,-0.08542958
 ,-0.03303383,0.00648646,0.04493809,-0.00247239,0.00260987,0.00187764,-
 0.00907059,0.03582676,0.01813238,-0.12373272,0.03429142,0.03078939,0.0
 1900694,-0.05315936,-0.01410105,0.56407287,-0.00158418,-0.00409878,-0.
 00104141,0.01475152,-0.01311033,-0.01256975,0.00030693,-0.23332903,-0.
 05552316,-0.03640424,-0.08309686,-0.02475386,-0.01916257,0.37459153,0.
 00050749,-0.00240926,-0.00028213,0.01124739,-0.01944342,0.00061874,0.0
 1968709,-0.06660705,-0.09185809,-0.00862737,-0.01928929,0.02553146,-0.
 17817654,0.11654981,0.13314755,-0.27831435,0.06450510,0.09916820,-0.01
 706720,0.00896934,0.01103933,0.00220406,-0.00442102,0.00283211,-0.0023
 8944,-0.00008453,-0.00031637,-0.00017639,0.00043817,-0.00023794,0.2946
 6924,0.06944068,-0.07602841,-0.03478818,-0.02225494,0.00892160,0.00762
 605,-0.00214459,-0.00278905,-0.00521534,-0.00137356,0.00008181,0.00154
 456,0.00060915,0.00075763,0.00048818,-0.06816156,0.07072034,0.10078060
 ,-0.03317845,-0.08257547,0.00083861,-0.00255763,0.00668712,0.00357580,
 -0.00447290,0.01268855,-0.00073750,0.00112415,-0.00266702,-0.00018207,
 0.00054394,-0.00110774,-0.11048333,0.03743138,0.07245349,-0.05834844,0
 .03188214,0.01653735,0.00639367,-0.02493013,-0.00829376,0.00119194,-0.
 00132076,-0.00391575,0.00044273,0.00097379,0.00066720,-0.00186275,0.00
 063905,0.00108921,0.00059991,0.02280570,0.00852818,0.05363410,0.025228
 10,-0.30510070,-0.09497219,0.00423971,-0.01667338,-0.00876908,0.001748
 55,-0.00233112,0.00176888,-0.00009546,0.00085128,-0.00018505,0.0012125
 2,0.00093916,-0.00036202,-0.00189522,-0.00232429,-0.00141671,-0.026793
 79,0.32350319,0.01436352,-0.09714238,-0.07599907,0.00123581,0.00074454
 ,0.00577618,-0.00291304,0.00276992,-0.00763623,0.00031790,-0.00053378,
 0.00123496,0.00127655,-0.00017498,0.00036330,0.00045856,-0.00947284,0.
 00066002,-0.01807724,0.10624252,0.06565055,0.00513607,-0.02594945,-0.0
 0839028,-0.05556244,0.02404451,0.01295353,-0.00022601,0.02834375,0.009
 99858,0.00172076,-0.00194798,-0.00165761,-0.00621913,0.00097596,0.0028
 8091,0.00039652,0.00110592,-0.00230345,-0.00223894,-0.00369515,0.00345
 191,0.05706780,0.00333643,-0.01493574,-0.00773283,0.02627515,-0.303363
 16,-0.09463104,-0.00389088,-0.00686917,-0.00164139,0.00035297,0.001770
 94,0.00092419,0.00128373,0.00084362,-0.00067770,0.00073345,0.00041466,
 0.00243592,-0.00362401,0.00063739,-0.00254525,-0.02438594,0.32167083,0
 .00117719,0.00181865,0.00561367,0.01368227,-0.09390349,-0.07507043,-0.
 00053225,-0.01215465,-0.00175771,-0.00090589,0.00167465,-0.00056782,0.
 00298145,-0.00057731,0.00047544,-0.00242513,0.00231444,-0.00622681,0.0
 0347514,-0.00252205,0.01008895,-0.01766569,0.10411241,0.06710407,0.000
 29220,-0.00030878,-0.00039550,0.00272936,0.00076204,0.00082769,-0.0094
 6383,0.01066268,0.00795924,-0.00232141,-0.00617806,-0.00331149,-0.4395
 4585,0.04003937,0.15162975,0.00007766,-0.00002680,-0.00001685,0.000187
 79,0.00005075,-0.00011397,-0.00007463,-0.00008090,0.00021291,0.4481187
 1,-0.00098128,-0.00018816,0.00045823,-0.00162421,-0.00658531,-0.003092
 97,0.05527969,-0.00860393,-0.02223167,-0.00603504,0.00455126,0.0055088
 5,-0.00351153,-0.04349692,-0.00824924,-0.00008372,0.00024572,0.0000903
 1,0.00036800,0.00049847,0.00011225,0.00150838,-0.00016937,-0.00076265,
 -0.04492029,0.05374824,-0.00061519,0.00023889,-0.00033246,0.00004816,-
 0.00387123,0.00322348,0.02253499,-0.00767992,-0.00559908,-0.00326475,0
 .00555551,-0.00340674,0.13740224,-0.02245329,-0.06688853,-0.00003544,0
 .00007175,0.00008786,-0.00001032,0.00021571,-0.00013865,0.00073211,-0.
 00024431,0.00034064,-0.15679179,0.02816689,0.07271349\\-0.00001370,-0.
 00000664,0.00000228,0.00003439,0.00001168,-0.00000759,-0.00002221,0.00
 000502,0.00000948,0.00000613,-0.00000405,-0.00000353,-0.00000598,-0.00
 000918,-0.00000125,0.00000051,-0.00000025,-0.00000022,0.00000197,0.000
 00086,-0.00000036,-0.00000470,-0.00000313,0.00000049,0.00000360,0.0000
 0570,0.00000069\\\@
 Job cpu time:       0 days  0 hours 33 minutes 42.2 seconds.
 File lengths (MBytes):  RWF=   1596 Int=      0 D2E=      0 Chk=     20 Scr=      1
 Normal termination of Gaussian 09 at Fri Aug 26 14:48:35 2022.
