 Entering Gaussian System, Link 0=g09
 Input=G4.Frag_804.gjf
 Output=G4.Frag_804.log
 Initial command:
 /public/home/users/caep010/software/Gaussian09/g09/l1.exe "/public/home/users/caep010/.cache/gau_scr/Gau-161959.inp" -scrdir="/public/home/users/caep010/.cache/gau_scr/"
 Entering Link 1 = /public/home/users/caep010/software/Gaussian09/g09/l1.exe PID=    161960.
  
 Copyright (c) 1988,1990,1992,1993,1995,1998,2003,2009,2015,
            Gaussian, Inc.  All Rights Reserved.
  
 This is part of the Gaussian(R) 09 program.  It is based on
 the Gaussian(R) 03 system (copyright 2003, Gaussian, Inc.),
 the Gaussian(R) 98 system (copyright 1998, Gaussian, Inc.),
 the Gaussian(R) 94 system (copyright 1995, Gaussian, Inc.),
 the Gaussian 92(TM) system (copyright 1992, Gaussian, Inc.),
 the Gaussian 90(TM) system (copyright 1990, Gaussian, Inc.),
 the Gaussian 88(TM) system (copyright 1988, Gaussian, Inc.),
 the Gaussian 86(TM) system (copyright 1986, Carnegie Mellon
 University), and the Gaussian 82(TM) system (copyright 1983,
 Carnegie Mellon University). Gaussian is a federally registered
 trademark of Gaussian, Inc.
  
 This software contains proprietary and confidential information,
 including trade secrets, belonging to Gaussian, Inc.
  
 This software is provided under written license and may be
 used, copied, transmitted, or stored only in accord with that
 written license.
  
 The following legend is applicable only to US Government
 contracts under FAR:
  
                    RESTRICTED RIGHTS LEGEND
  
 Use, reproduction and disclosure by the US Government is
 subject to restrictions as set forth in subparagraphs (a)
 and (c) of the Commercial Computer Software - Restricted
 Rights clause in FAR 52.227-19.
  
 Gaussian, Inc.
 340 Quinnipiac St., Bldg. 40, Wallingford CT 06492
  
  
 ---------------------------------------------------------------
 Warning -- This program may not be used in any manner that
 competes with the business of Gaussian, Inc. or will provide
 assistance to any competitor of Gaussian, Inc.  The licensee
 of this program is prohibited from giving any competitor of
 Gaussian, Inc. access to this program.  By using this program,
 the user acknowledges that Gaussian, Inc. is engaged in the
 business of creating and licensing software in the field of
 computational chemistry and represents and warrants to the
 licensee that it is not a competitor of Gaussian, Inc. and that
 it will not use this program in any manner prohibited above.
 ---------------------------------------------------------------
  

 Cite this work as:
 Gaussian 09, Revision E.01,
 M. J. Frisch, G. W. Trucks, H. B. Schlegel, G. E. Scuseria, 
 M. A. Robb, J. R. Cheeseman, G. Scalmani, V. Barone, B. Mennucci, 
 G. A. Petersson, H. Nakatsuji, M. Caricato, X. Li, H. P. Hratchian, 
 A. F. Izmaylov, J. Bloino, G. Zheng, J. L. Sonnenberg, M. Hada, 
 M. Ehara, K. Toyota, R. Fukuda, J. Hasegawa, M. Ishida, T. Nakajima, 
 Y. Honda, O. Kitao, H. Nakai, T. Vreven, J. A. Montgomery, Jr., 
 J. E. Peralta, F. Ogliaro, M. Bearpark, J. J. Heyd, E. Brothers, 
 K. N. Kudin, V. N. Staroverov, T. Keith, R. Kobayashi, J. Normand, 
 K. Raghavachari, A. Rendell, J. C. Burant, S. S. Iyengar, J. Tomasi, 
 M. Cossi, N. Rega, J. M. Millam, M. Klene, J. E. Knox, J. B. Cross, 
 V. Bakken, C. Adamo, J. Jaramillo, R. Gomperts, R. E. Stratmann, 
 O. Yazyev, A. J. Austin, R. Cammi, C. Pomelli, J. W. Ochterski, 
 R. L. Martin, K. Morokuma, V. G. Zakrzewski, G. A. Voth, 
 P. Salvador, J. J. Dannenberg, S. Dapprich, A. D. Daniels, 
 O. Farkas, J. B. Foresman, J. V. Ortiz, J. Cioslowski, 
 and D. J. Fox, Gaussian, Inc., Wallingford CT, 2013.
 
 ******************************************
 Gaussian 09:  ES64L-G09RevE.01 30-Nov-2015
                30-Aug-2022 
 ******************************************
 %nproc=32
 Will use up to   32 processors via shared memory.
 %mem=180GB
 %chk=G4.Frag_804.chk
 -----
 #P G4
 -----
 1/14=-1,18=20,19=15,26=3,38=1/1,3;
 2/9=110,12=2,17=6,18=5,40=1/2;
 3/5=35,7=104,11=2,16=1,25=1,30=1,71=1,74=-5/1,2,3;
 4//1;
 5/5=2,38=5/2;
 6/7=2,8=2,9=2,10=2,28=1/1;
 7//1,2,3,16;
 1/14=-1,18=20,19=15,26=3/3(2);
 2/9=110/2;
 99//99;
 2/9=110/2;
 3/5=35,7=104,11=2,16=1,25=1,30=1,71=1,74=-5/1,2,3;
 4/5=5,16=3,69=1/1;
 5/5=2,38=5/2;
 7//1,2,3,16;
 1/14=-1,18=20,19=15,26=3/3(-5);
 2/9=110/2;
 6/7=2,8=2,9=2,10=2,19=2,28=1/1;
 99/9=1/99;
 Leave Link    1 at Tue Aug 30 12:28:20 2022, MaxMem= 24159191040 cpu:         2.3
 (Enter /public/home/users/caep010/software/Gaussian09/g09/l101.exe)
 --------
 Frag_804
 --------
 Symbolic Z-matrix:
 Charge =  0 Multiplicity = 1
 C                     1.31156  -0.82123  -0.32037 
 C                     0.10508   0.13877  -0.09593 
 C                    -0.08859   0.41791   1.41373 
 C                    -1.22054  -0.35386  -0.82912 
 N                     0.4807    1.74977  -0.73651 
 O                    -0.38132   2.08515  -0.63974 
 H                     1.13444  -1.82786   0.10682 
 H                     1.50109  -0.95074  -1.40383 
 H                     2.22291  -0.41246   0.16251 
 H                    -0.84689   1.13203   1.44826 
 H                    -0.3063   -0.49668   1.99531 
 H                     0.72893   0.80287   1.92481 
 H                    -0.95712  -0.51686  -1.91172 
 H                    -2.09576   0.3549   -0.63515 
 H                    -1.58829  -1.2917   -0.48398 
 
 Add virtual bond connecting atoms N5         and C2         Dist= 3.35D+00.
 NAtoms=     15 NQM=       15 NQMF=       0 NMMI=      0 NMMIF=      0
                NMic=       0 NMicF=      0.
                    Isotopes and Nuclear Properties:
 (Nuclear quadrupole moments (NQMom) in fm**2, nuclear magnetic moments (NMagM)
  in nuclear magnetons)

  Atom         1           2           3           4           5           6           7           8           9          10
 IAtWgt=          12          12          12          12          14          16           1           1           1           1
 AtmWgt=  12.0000000  12.0000000  12.0000000  12.0000000  14.0030740  15.9949146   1.0078250   1.0078250   1.0078250   1.0078250
 NucSpn=           0           0           0           0           2           0           1           1           1           1
 AtZEff=   0.0000000   0.0000000   0.0000000   0.0000000   0.0000000   0.0000000   0.0000000   0.0000000   0.0000000   0.0000000
 NQMom=    0.0000000   0.0000000   0.0000000   0.0000000   2.0440000   0.0000000   0.0000000   0.0000000   0.0000000   0.0000000
 NMagM=    0.0000000   0.0000000   0.0000000   0.0000000   0.4037610   0.0000000   2.7928460   2.7928460   2.7928460   2.7928460
 AtZNuc=   6.0000000   6.0000000   6.0000000   6.0000000   7.0000000   8.0000000   1.0000000   1.0000000   1.0000000   1.0000000

  Atom        11          12          13          14          15
 IAtWgt=           1           1           1           1           1
 AtmWgt=   1.0078250   1.0078250   1.0078250   1.0078250   1.0078250
 NucSpn=           1           1           1           1           1
 AtZEff=   0.0000000   0.0000000   0.0000000   0.0000000   0.0000000
 NQMom=    0.0000000   0.0000000   0.0000000   0.0000000   0.0000000
 NMagM=    2.7928460   2.7928460   2.7928460   2.7928460   2.7928460
 AtZNuc=   1.0000000   1.0000000   1.0000000   1.0000000   1.0000000
 Leave Link  101 at Tue Aug 30 12:28:20 2022, MaxMem= 24159191040 cpu:        10.1
 (Enter /public/home/users/caep010/software/Gaussian09/g09/l103.exe)

 GradGradGradGradGradGradGradGradGradGradGradGradGradGradGradGradGradGrad
 Berny optimization.
 Initialization pass.
                           ----------------------------
                           !    Initial Parameters    !
                           ! (Angstroms and Degrees)  !
 --------------------------                            --------------------------
 ! Name  Definition              Value          Derivative Info.                !
 --------------------------------------------------------------------------------
 ! R1    R(1,2)                  1.5581         estimate D2E/DX2                !
 ! R2    R(1,7)                  1.1078         estimate D2E/DX2                !
 ! R3    R(1,8)                  1.1075         estimate D2E/DX2                !
 ! R4    R(1,9)                  1.1094         estimate D2E/DX2                !
 ! R5    R(2,3)                  1.5474         estimate D2E/DX2                !
 ! R6    R(2,4)                  1.593          estimate D2E/DX2                !
 ! R7    R(2,5)                  1.7739         estimate D2E/DX2                !
 ! R8    R(3,10)                 1.0422         estimate D2E/DX2                !
 ! R9    R(3,11)                 1.1055         estimate D2E/DX2                !
 ! R10   R(3,12)                 1.0381         estimate D2E/DX2                !
 ! R11   R(4,13)                 1.126          estimate D2E/DX2                !
 ! R12   R(4,14)                 1.1428         estimate D2E/DX2                !
 ! R13   R(4,15)                 1.0648         estimate D2E/DX2                !
 ! R14   R(5,6)                  0.93           estimate D2E/DX2                !
 ! A1    A(2,1,7)              112.367          estimate D2E/DX2                !
 ! A2    A(2,1,8)              110.2118         estimate D2E/DX2                !
 ! A3    A(2,1,9)              110.2652         estimate D2E/DX2                !
 ! A4    A(7,1,8)              107.3589         estimate D2E/DX2                !
 ! A5    A(7,1,9)              107.3564         estimate D2E/DX2                !
 ! A6    A(8,1,9)              109.1656         estimate D2E/DX2                !
 ! A7    A(1,2,3)              110.4013         estimate D2E/DX2                !
 ! A8    A(1,2,4)              112.8011         estimate D2E/DX2                !
 ! A9    A(1,2,5)              110.0955         estimate D2E/DX2                !
 ! A10   A(3,2,4)              113.6203         estimate D2E/DX2                !
 ! A11   A(3,2,5)              102.4146         estimate D2E/DX2                !
 ! A12   A(4,2,5)              106.9092         estimate D2E/DX2                !
 ! A13   A(2,3,10)             104.299          estimate D2E/DX2                !
 ! A14   A(2,3,11)             112.8712         estimate D2E/DX2                !
 ! A15   A(2,3,12)             116.6557         estimate D2E/DX2                !
 ! A16   A(10,3,11)            113.9636         estimate D2E/DX2                !
 ! A17   A(10,3,12)            107.6122         estimate D2E/DX2                !
 ! A18   A(11,3,12)            101.7055         estimate D2E/DX2                !
 ! A19   A(2,4,13)             107.0141         estimate D2E/DX2                !
 ! A20   A(2,4,14)             111.5554         estimate D2E/DX2                !
 ! A21   A(2,4,15)             114.2418         estimate D2E/DX2                !
 ! A22   A(13,4,14)            115.6019         estimate D2E/DX2                !
 ! A23   A(13,4,15)            105.3619         estimate D2E/DX2                !
 ! A24   A(14,4,15)            103.104          estimate D2E/DX2                !
 ! A25   A(2,5,6)               95.3739         estimate D2E/DX2                !
 ! D1    D(7,1,2,3)             65.0978         estimate D2E/DX2                !
 ! D2    D(7,1,2,4)            -63.2239         estimate D2E/DX2                !
 ! D3    D(7,1,2,5)            177.4509         estimate D2E/DX2                !
 ! D4    D(8,1,2,3)           -175.2129         estimate D2E/DX2                !
 ! D5    D(8,1,2,4)             56.4654         estimate D2E/DX2                !
 ! D6    D(8,1,2,5)            -62.8598         estimate D2E/DX2                !
 ! D7    D(9,1,2,3)            -54.625          estimate D2E/DX2                !
 ! D8    D(9,1,2,4)            177.0533         estimate D2E/DX2                !
 ! D9    D(9,1,2,5)             57.7281         estimate D2E/DX2                !
 ! D10   D(1,2,3,10)           174.6464         estimate D2E/DX2                !
 ! D11   D(1,2,3,11)           -61.1303         estimate D2E/DX2                !
 ! D12   D(1,2,3,12)            56.1358         estimate D2E/DX2                !
 ! D13   D(4,2,3,10)           -57.4799         estimate D2E/DX2                !
 ! D14   D(4,2,3,11)            66.7433         estimate D2E/DX2                !
 ! D15   D(4,2,3,12)          -175.9905         estimate D2E/DX2                !
 ! D16   D(5,2,3,10)            57.4379         estimate D2E/DX2                !
 ! D17   D(5,2,3,11)          -178.3388         estimate D2E/DX2                !
 ! D18   D(5,2,3,12)           -61.0727         estimate D2E/DX2                !
 ! D19   D(1,2,4,13)           -53.6715         estimate D2E/DX2                !
 ! D20   D(1,2,4,14)           178.9733         estimate D2E/DX2                !
 ! D21   D(1,2,4,15)            62.5359         estimate D2E/DX2                !
 ! D22   D(3,2,4,13)           179.7046         estimate D2E/DX2                !
 ! D23   D(3,2,4,14)            52.3495         estimate D2E/DX2                !
 ! D24   D(3,2,4,15)           -64.088          estimate D2E/DX2                !
 ! D25   D(5,2,4,13)            67.4832         estimate D2E/DX2                !
 ! D26   D(5,2,4,14)           -59.872          estimate D2E/DX2                !
 ! D27   D(5,2,4,15)          -176.3094         estimate D2E/DX2                !
 ! D28   D(1,2,5,6)            170.7121         estimate D2E/DX2                !
 ! D29   D(3,2,5,6)            -71.861          estimate D2E/DX2                !
 ! D30   D(4,2,5,6)             47.8566         estimate D2E/DX2                !
 --------------------------------------------------------------------------------
 Trust Radius=3.00D-01 FncErr=1.00D-07 GrdErr=1.00D-06
 Number of steps in this run=     79 maximum allowed number of steps=    100.
 GradGradGradGradGradGradGradGradGradGradGradGradGradGradGradGradGradGrad

 Leave Link  103 at Tue Aug 30 12:28:20 2022, MaxMem= 24159191040 cpu:         0.6
 (Enter /public/home/users/caep010/software/Gaussian09/g09/l202.exe)
                          Input orientation:                          
 ---------------------------------------------------------------------
 Center     Atomic      Atomic             Coordinates (Angstroms)
 Number     Number       Type             X           Y           Z
 ---------------------------------------------------------------------
      1          6           0        1.311557   -0.821234   -0.320367
      2          6           0        0.105082    0.138773   -0.095928
      3          6           0       -0.088585    0.417905    1.413731
      4          6           0       -1.220536   -0.353864   -0.829117
      5          7           0        0.480697    1.749772   -0.736513
      6          8           0       -0.381323    2.085146   -0.639739
      7          1           0        1.134438   -1.827858    0.106820
      8          1           0        1.501094   -0.950744   -1.403830
      9          1           0        2.222909   -0.412455    0.162509
     10          1           0       -0.846894    1.132025    1.448256
     11          1           0       -0.306300   -0.496682    1.995312
     12          1           0        0.728930    0.802874    1.924813
     13          1           0       -0.957122   -0.516863   -1.911718
     14          1           0       -2.095759    0.354903   -0.635147
     15          1           0       -1.588288   -1.291697   -0.483982
 ---------------------------------------------------------------------
                    Distance matrix (angstroms):
                    1          2          3          4          5
     1  C    0.000000
     2  C    1.558066   0.000000
     3  C    2.550090   1.547415   0.000000
     4  C    2.624644   1.592960   2.628176   0.000000
     5  N    2.733784   1.773909   2.592586   2.707038   0.000000
     6  O    3.378592   2.078626   2.661227   2.586293   0.930010
     7  H    1.107769   2.228972   2.871803   2.931644   3.733366
     8  H    1.107515   2.201478   3.512681   2.844966   2.962990
     9  H    1.109429   2.203596   2.756458   3.583862   2.918693
    10  H    3.406194   2.068166   1.042205   2.744795   2.630081
    11  H    2.843442   2.224033   1.105489   2.972141   3.623367
    12  H    2.831610   2.216667   1.038141   3.566874   2.835647
    13  H    2.787821   2.203458   3.561848   1.126046   2.930199
    14  H    3.618313   2.276218   2.868905   1.142799   2.931563
    15  H    2.942313   2.250407   2.961953   1.064843   3.687140
                    6          7          8          9         10
     6  O    0.000000
     7  H    4.262216   0.000000
     8  H    3.652938   1.784889   0.000000
     9  H    3.696436   1.786403   1.806707   0.000000
    10  H    2.341990   3.806052   4.240916   3.669094   0.000000
    11  H    3.689845   2.722895   3.876469   3.124605   1.801166
    12  H    3.074705   3.223397   3.840739   2.610501   1.678889
    13  H    2.952952   3.188703   2.547357   3.798146   3.744383
    14  H    2.435786   3.968518   3.902940   4.458249   2.550324
    15  H    3.589442   2.837209   3.241396   3.964371   3.187105
                   11         12         13         14         15
    11  H    0.000000
    12  H    1.662984   0.000000
    13  H    3.960917   4.393569   0.000000
    14  H    3.293429   3.838351   1.919923   0.000000
    15  H    2.902144   3.944492   1.742747   1.729644   0.000000
 Stoichiometry    C4H9NO
 Framework group  C1[X(C4H9NO)]
 Deg. of freedom    39
 Full point group                 C1      NOp   1
 Largest Abelian subgroup         C1      NOp   1
 Largest concise Abelian subgroup C1      NOp   1
                         Standard orientation:                         
 ---------------------------------------------------------------------
 Center     Atomic      Atomic             Coordinates (Angstroms)
 Number     Number       Type             X           Y           Z
 ---------------------------------------------------------------------
      1          6           0       -1.565555   -0.208939   -0.919723
      2          6           0       -0.339130    0.015466    0.014671
      3          6           0       -0.342615   -1.017539    1.166791
      4          6           0       -0.208358    1.523745    0.510164
      5          7           0        1.162026   -0.377177   -0.845048
      6          8           0        1.728745   -0.040853   -0.188820
      7          1           0       -2.527897   -0.017646   -0.405471
      8          1           0       -1.514080    0.474736   -1.789510
      9          1           0       -1.586301   -1.257549   -1.281412
     10          1           0        0.553131   -0.844264    1.670584
     11          1           0       -1.240070   -0.943007    1.807980
     12          1           0       -0.361062   -2.019099    0.894259
     13          1           0       -0.211789    2.174032   -0.409126
     14          1           0        0.686043    1.660288    1.208300
     15          1           0       -1.028171    1.863183    1.098873
 ---------------------------------------------------------------------
 Rotational constants (GHZ):      4.3548997      2.9984244      2.8806394
 Leave Link  202 at Tue Aug 30 12:28:21 2022, MaxMem= 24159191040 cpu:         0.6
 (Enter /public/home/users/caep010/software/Gaussian09/g09/l301.exe)
 Standard basis: GTBas3 (6D, 7F)
 Ernie: Thresh=  0.10000D-02 Tol=  0.10000D-05 Strict=F.
 There are   231 symmetry adapted cartesian basis functions of A   symmetry.
 There are   213 symmetry adapted basis functions of A   symmetry.
   213 basis functions,   327 primitive gaussians,   231 cartesian basis functions
    24 alpha electrons       24 beta electrons
       nuclear repulsion energy       254.3223488037 Hartrees.
 IExCor=  402 DFT=T Ex+Corr=B3LYP ExCW=0 ScaHFX=  0.200000
 ScaDFX=  0.800000  0.720000  1.000000  0.810000 ScalE2=  1.000000  1.000000
 IRadAn=      0 IRanWt=     -1 IRanGd=            0 ICorTp=0 IEmpDi=  4
 NAtoms=   15 NActive=   15 NUniq=   15 SFac= 1.00D+00 NAtFMM=   60 NAOKFM=F Big=F
 Integral buffers will be    131072 words long.
 Raffenetti 2 integral format.
 Two-electron integral symmetry is turned on.
 Leave Link  301 at Tue Aug 30 12:28:21 2022, MaxMem= 24159191040 cpu:         1.9
 (Enter /public/home/users/caep010/software/Gaussian09/g09/l302.exe)
 NPDir=0 NMtPBC=     1 NCelOv=     1 NCel=       1 NClECP=     1 NCelD=      1
         NCelK=      1 NCelE2=     1 NClLst=     1 CellRange=     0.0.
 One-electron integrals computed using PRISM.
 NBasis=   213 RedAO= T EigKep=  8.30D-04  NBF=   213
 NBsUse=   213 1.00D-06 EigRej= -1.00D+00 NBFU=   213
 Precomputing XC quadrature grid using
 IXCGrd= 4 IRadAn=           0 IRanWt=          -1 IRanGd=           0 AccXCQ= 0.00D+00.
 Generated NRdTot=       0 NPtTot=           0 NUsed=           0 NTot=          32
 NSgBfM=   231   231   231   231   231 MxSgAt=    15 MxSgA2=    15.
 Leave Link  302 at Tue Aug 30 12:28:21 2022, MaxMem= 24159191040 cpu:        16.9
 (Enter /public/home/users/caep010/software/Gaussian09/g09/l303.exe)
 DipDrv:  MaxL=1.
 Leave Link  303 at Tue Aug 30 12:28:21 2022, MaxMem= 24159191040 cpu:         1.0
 (Enter /public/home/users/caep010/software/Gaussian09/g09/l401.exe)
 ExpMin= 1.61D-01 ExpMax= 5.48D+03 ExpMxC= 8.25D+02 IAcc=1 IRadAn=         1 AccDes= 0.00D+00
 Harris functional with IExCor=  402 and IRadAn=       1 diagonalized for initial guess.
 HarFok:  IExCor=  402 AccDes= 0.00D+00 IRadAn=         1 IDoV= 1 UseB2=F ITyADJ=14
 ICtDFT=  3500011 ScaDFX=  1.000000  1.000000  1.000000  1.000000
 FoFCou: FMM=F IPFlag=           0 FMFlag=      100000 FMFlg1=           0
         NFxFlg=           0 DoJE=T BraDBF=F KetDBF=T FulRan=T
         wScrn=  0.000000 ICntrl=     500 IOpCl=  0 I1Cent=   200000004 NGrid=           0
         NMat0=    1 NMatS0=      1 NMatT0=    0 NMatD0=    1 NMtDS0=    0 NMtDT0=    0
 Petite list used in FoFCou.
 Harris En= -287.601170657995    
 JPrj=0 DoOrth=F DoCkMO=F.
 Leave Link  401 at Tue Aug 30 12:28:22 2022, MaxMem= 24159191040 cpu:        13.8
 (Enter /public/home/users/caep010/software/Gaussian09/g09/l502.exe)
 Closed shell SCF:
 Using DIIS extrapolation, IDIIS=  1040.
 Integral symmetry usage will be decided dynamically.
 Keep R1 ints in memory in canonical form, NReq=266157421.
 IVT=      187717 IEndB=      187717 NGot= 24159191040 MDV= 23899277088
 LenX= 23899277088 LenY= 23899223286
 Requested convergence on RMS density matrix=1.00D-08 within 128 cycles.
 Requested convergence on MAX density matrix=1.00D-06.
 Requested convergence on             energy=1.00D-06.
 No special actions if energy rises.
 FoFCou: FMM=F IPFlag=           0 FMFlag=           0 FMFlg1=           0
         NFxFlg=           0 DoJE=F BraDBF=F KetDBF=F FulRan=T
         wScrn=  0.000000 ICntrl=     600 IOpCl=  0 I1Cent=           0 NGrid=           0
         NMat0=    1 NMatS0=  22791 NMatT0=    0 NMatD0=    1 NMtDS0=    0 NMtDT0=    0
 Symmetry not used in FoFCou.
 Integral accuracy reduced to 1.0D-05 until final iterations.

 Cycle   1  Pass 0  IDiag  1:
 E= -287.257744573978    
 DIIS: error= 2.46D-02 at cycle   1 NSaved=   1.
 NSaved= 1 IEnMin= 1 EnMin= -287.257744573978     IErMin= 1 ErrMin= 2.46D-02
 ErrMax= 2.46D-02  0.00D+00 EMaxC= 1.00D-01 BMatC= 2.44D-01 BMatP= 2.44D-01
 IDIUse=3 WtCom= 7.54D-01 WtEn= 2.46D-01
 Coeff-Com:  0.100D+01
 Coeff-En:   0.100D+01
 Coeff:      0.100D+01
 Gap=     0.051 Goal=   None    Shift=    0.000
 GapD=    0.051 DampG=0.500 DampE=0.500 DampFc=0.2500 IDamp=-1.
 Damping current iteration by 2.50D-01
 RMSDP=6.56D-03 MaxDP=2.06D-01              OVMax= 3.75D-01

 Cycle   2  Pass 0  IDiag  1:
 E= -287.353199726247     Delta-E=       -0.095455152269 Rises=F Damp=T
 DIIS: error= 1.17D-02 at cycle   2 NSaved=   2.
 NSaved= 2 IEnMin= 2 EnMin= -287.353199726247     IErMin= 2 ErrMin= 1.17D-02
 ErrMax= 1.17D-02  0.00D+00 EMaxC= 1.00D-01 BMatC= 5.64D-02 BMatP= 2.44D-01
 IDIUse=3 WtCom= 8.83D-01 WtEn= 1.17D-01
 Coeff-Com: -0.680D+00 0.168D+01
 Coeff-En:   0.000D+00 0.100D+01
 Coeff:     -0.600D+00 0.160D+01
 Gap=     0.156 Goal=   None    Shift=    0.000
 RMSDP=1.75D-03 MaxDP=6.82D-02 DE=-9.55D-02 OVMax= 3.09D-01

 Cycle   3  Pass 0  IDiag  1:
 E= -287.499677612476     Delta-E=       -0.146477886229 Rises=F Damp=F
 DIIS: error= 9.19D-03 at cycle   3 NSaved=   3.
 NSaved= 3 IEnMin= 3 EnMin= -287.499677612476     IErMin= 3 ErrMin= 9.19D-03
 ErrMax= 9.19D-03  0.00D+00 EMaxC= 1.00D-01 BMatC= 2.25D-02 BMatP= 5.64D-02
 IDIUse=3 WtCom= 9.08D-01 WtEn= 9.19D-02
 Coeff-Com: -0.383D+00 0.899D+00 0.483D+00
 Coeff-En:   0.000D+00 0.000D+00 0.100D+01
 Coeff:     -0.348D+00 0.817D+00 0.531D+00
 Gap=     0.135 Goal=   None    Shift=    0.000
 RMSDP=1.21D-03 MaxDP=5.78D-02 DE=-1.46D-01 OVMax= 1.12D-01

 Cycle   4  Pass 0  IDiag  1:
 E= -287.516503557026     Delta-E=       -0.016825944550 Rises=F Damp=F
 DIIS: error= 4.20D-03 at cycle   4 NSaved=   4.
 NSaved= 4 IEnMin= 4 EnMin= -287.516503557026     IErMin= 4 ErrMin= 4.20D-03
 ErrMax= 4.20D-03  0.00D+00 EMaxC= 1.00D-01 BMatC= 4.60D-03 BMatP= 2.25D-02
 IDIUse=3 WtCom= 9.58D-01 WtEn= 4.20D-02
 Coeff-Com: -0.543D-01 0.131D+00 0.317D+00 0.606D+00
 Coeff-En:   0.000D+00 0.000D+00 0.199D+00 0.801D+00
 Coeff:     -0.520D-01 0.126D+00 0.312D+00 0.615D+00
 Gap=     0.148 Goal=   None    Shift=    0.000
 RMSDP=4.06D-04 MaxDP=2.26D-02 DE=-1.68D-02 OVMax= 3.41D-02

 Cycle   5  Pass 0  IDiag  1:
 E= -287.520578734622     Delta-E=       -0.004075177596 Rises=F Damp=F
 DIIS: error= 8.15D-04 at cycle   5 NSaved=   5.
 NSaved= 5 IEnMin= 5 EnMin= -287.520578734622     IErMin= 5 ErrMin= 8.15D-04
 ErrMax= 8.15D-04  0.00D+00 EMaxC= 1.00D-01 BMatC= 2.30D-04 BMatP= 4.60D-03
 IDIUse=3 WtCom= 9.92D-01 WtEn= 8.15D-03
 Coeff-Com: -0.627D-02 0.174D-01 0.137D+00 0.329D+00 0.522D+00
 Coeff-En:   0.000D+00 0.000D+00 0.000D+00 0.000D+00 0.100D+01
 Coeff:     -0.622D-02 0.173D-01 0.136D+00 0.327D+00 0.526D+00
 Gap=     0.149 Goal=   None    Shift=    0.000
 RMSDP=6.82D-05 MaxDP=2.91D-03 DE=-4.08D-03 OVMax= 4.53D-03

 Cycle   6  Pass 0  IDiag  1:
 E= -287.520742905398     Delta-E=       -0.000164170776 Rises=F Damp=F
 DIIS: error= 2.04D-04 at cycle   6 NSaved=   6.
 NSaved= 6 IEnMin= 6 EnMin= -287.520742905398     IErMin= 6 ErrMin= 2.04D-04
 ErrMax= 2.04D-04  0.00D+00 EMaxC= 1.00D-01 BMatC= 1.72D-05 BMatP= 2.30D-04
 IDIUse=3 WtCom= 9.98D-01 WtEn= 2.04D-03
 Coeff-Com:  0.290D-02-0.595D-02 0.307D-01 0.889D-01 0.264D+00 0.620D+00
 Coeff-En:   0.000D+00 0.000D+00 0.000D+00 0.000D+00 0.000D+00 0.100D+01
 Coeff:      0.289D-02-0.594D-02 0.306D-01 0.887D-01 0.263D+00 0.621D+00
 Gap=     0.149 Goal=   None    Shift=    0.000
 RMSDP=1.67D-05 MaxDP=8.16D-04 DE=-1.64D-04 OVMax= 1.17D-03

 Cycle   7  Pass 0  IDiag  1:
 E= -287.520753964825     Delta-E=       -0.000011059428 Rises=F Damp=F
 DIIS: error= 6.68D-05 at cycle   7 NSaved=   7.
 NSaved= 7 IEnMin= 7 EnMin= -287.520753964825     IErMin= 7 ErrMin= 6.68D-05
 ErrMax= 6.68D-05  0.00D+00 EMaxC= 1.00D-01 BMatC= 1.04D-06 BMatP= 1.72D-05
 IDIUse=1 WtCom= 1.00D+00 WtEn= 0.00D+00
 Coeff-Com:  0.157D-02-0.313D-02 0.428D-02 0.137D-01 0.832D-01 0.278D+00
 Coeff-Com:  0.623D+00
 Coeff:      0.157D-02-0.313D-02 0.428D-02 0.137D-01 0.832D-01 0.278D+00
 Coeff:      0.623D+00
 Gap=     0.149 Goal=   None    Shift=    0.000
 RMSDP=6.72D-06 MaxDP=1.99D-04 DE=-1.11D-05 OVMax= 3.43D-04

 Initial convergence to 1.0D-05 achieved.  Increase integral accuracy.
 Cycle   8  Pass 1  IDiag  1:
 E= -287.520792171523     Delta-E=       -0.000038206698 Rises=F Damp=F
 DIIS: error= 2.30D-05 at cycle   1 NSaved=   1.
 NSaved= 1 IEnMin= 1 EnMin= -287.520792171523     IErMin= 1 ErrMin= 2.30D-05
 ErrMax= 2.30D-05  0.00D+00 EMaxC= 1.00D-01 BMatC= 2.59D-07 BMatP= 2.59D-07
 IDIUse=1 WtCom= 1.00D+00 WtEn= 0.00D+00
 Coeff-Com:  0.100D+01
 Coeff:      0.100D+01
 Gap=     0.149 Goal=   None    Shift=    0.000
 RMSDP=6.72D-06 MaxDP=1.99D-04 DE=-3.82D-05 OVMax= 3.91D-04

 Cycle   9  Pass 1  IDiag  1:
 E= -287.520792236202     Delta-E=       -0.000000064679 Rises=F Damp=F
 DIIS: error= 1.69D-05 at cycle   2 NSaved=   2.
 NSaved= 2 IEnMin= 2 EnMin= -287.520792236202     IErMin= 2 ErrMin= 1.69D-05
 ErrMax= 1.69D-05  0.00D+00 EMaxC= 1.00D-01 BMatC= 1.97D-07 BMatP= 2.59D-07
 IDIUse=1 WtCom= 1.00D+00 WtEn= 0.00D+00
 Coeff-Com:  0.455D+00 0.545D+00
 Coeff:      0.455D+00 0.545D+00
 Gap=     0.149 Goal=   None    Shift=    0.000
 RMSDP=4.21D-06 MaxDP=1.79D-04 DE=-6.47D-08 OVMax= 3.85D-04

 Cycle  10  Pass 1  IDiag  1:
 E= -287.520792362843     Delta-E=       -0.000000126640 Rises=F Damp=F
 DIIS: error= 1.53D-05 at cycle   3 NSaved=   3.
 NSaved= 3 IEnMin= 3 EnMin= -287.520792362843     IErMin= 3 ErrMin= 1.53D-05
 ErrMax= 1.53D-05  0.00D+00 EMaxC= 1.00D-01 BMatC= 6.85D-08 BMatP= 1.97D-07
 IDIUse=1 WtCom= 1.00D+00 WtEn= 0.00D+00
 Coeff-Com:  0.473D-01 0.364D+00 0.589D+00
 Coeff:      0.473D-01 0.364D+00 0.589D+00
 Gap=     0.149 Goal=   None    Shift=    0.000
 RMSDP=1.70D-06 MaxDP=8.51D-05 DE=-1.27D-07 OVMax= 1.48D-04

 Cycle  11  Pass 1  IDiag  1:
 E= -287.520792419799     Delta-E=       -0.000000056956 Rises=F Damp=F
 DIIS: error= 6.85D-06 at cycle   4 NSaved=   4.
 NSaved= 4 IEnMin= 4 EnMin= -287.520792419799     IErMin= 4 ErrMin= 6.85D-06
 ErrMax= 6.85D-06  0.00D+00 EMaxC= 1.00D-01 BMatC= 6.49D-09 BMatP= 6.85D-08
 IDIUse=1 WtCom= 1.00D+00 WtEn= 0.00D+00
 Coeff-Com: -0.146D-01 0.167D+00 0.344D+00 0.503D+00
 Coeff:     -0.146D-01 0.167D+00 0.344D+00 0.503D+00
 Gap=     0.149 Goal=   None    Shift=    0.000
 RMSDP=5.06D-07 MaxDP=1.91D-05 DE=-5.70D-08 OVMax= 2.63D-05

 Cycle  12  Pass 1  IDiag  1:
 E= -287.520792426103     Delta-E=       -0.000000006305 Rises=F Damp=F
 DIIS: error= 6.85D-07 at cycle   5 NSaved=   5.
 NSaved= 5 IEnMin= 5 EnMin= -287.520792426103     IErMin= 5 ErrMin= 6.85D-07
 ErrMax= 6.85D-07  0.00D+00 EMaxC= 1.00D-01 BMatC= 9.67D-11 BMatP= 6.49D-09
 IDIUse=1 WtCom= 1.00D+00 WtEn= 0.00D+00
 Coeff-Com: -0.684D-02 0.569D-01 0.113D+00 0.203D+00 0.633D+00
 Coeff:     -0.684D-02 0.569D-01 0.113D+00 0.203D+00 0.633D+00
 Gap=     0.149 Goal=   None    Shift=    0.000
 RMSDP=6.04D-08 MaxDP=3.06D-06 DE=-6.30D-09 OVMax= 4.20D-06

 Cycle  13  Pass 1  IDiag  1:
 E= -287.520792426173     Delta-E=       -0.000000000070 Rises=F Damp=F
 DIIS: error= 1.99D-07 at cycle   6 NSaved=   6.
 NSaved= 6 IEnMin= 6 EnMin= -287.520792426173     IErMin= 6 ErrMin= 1.99D-07
 ErrMax= 1.99D-07  0.00D+00 EMaxC= 1.00D-01 BMatC= 1.29D-11 BMatP= 9.67D-11
 IDIUse=1 WtCom= 1.00D+00 WtEn= 0.00D+00
 Coeff-Com: -0.231D-02 0.153D-01 0.279D-01 0.624D-01 0.315D+00 0.581D+00
 Coeff:     -0.231D-02 0.153D-01 0.279D-01 0.624D-01 0.315D+00 0.581D+00
 Gap=     0.149 Goal=   None    Shift=    0.000
 RMSDP=1.69D-08 MaxDP=7.87D-07 DE=-6.96D-11 OVMax= 1.15D-06

 Cycle  14  Pass 1  IDiag  1:
 E= -287.520792426184     Delta-E=       -0.000000000011 Rises=F Damp=F
 DIIS: error= 6.80D-08 at cycle   7 NSaved=   7.
 NSaved= 7 IEnMin= 7 EnMin= -287.520792426184     IErMin= 7 ErrMin= 6.80D-08
 ErrMax= 6.80D-08  0.00D+00 EMaxC= 1.00D-01 BMatC= 1.24D-12 BMatP= 1.29D-11
 IDIUse=1 WtCom= 1.00D+00 WtEn= 0.00D+00
 Coeff-Com: -0.206D-03 0.138D-04-0.156D-02 0.426D-02 0.600D-01 0.273D+00
 Coeff-Com:  0.665D+00
 Coeff:     -0.206D-03 0.138D-04-0.156D-02 0.426D-02 0.600D-01 0.273D+00
 Coeff:      0.665D+00
 Gap=     0.149 Goal=   None    Shift=    0.000
 RMSDP=6.42D-09 MaxDP=2.49D-07 DE=-1.07D-11 OVMax= 4.77D-07

 SCF Done:  E(RB3LYP) =  -287.520792426     A.U. after   14 cycles
            NFock= 14  Conv=0.64D-08     -V/T= 2.0014
 KE= 2.871222673369D+02 PE=-1.179083649813D+03 EE= 3.501182412465D+02
 Leave Link  502 at Tue Aug 30 12:28:30 2022, MaxMem= 24159191040 cpu:        98.3
 (Enter /public/home/users/caep010/software/Gaussian09/g09/l601.exe)
 Copying SCF densities to generalized density rwf, IOpCl= 0 IROHF=0.

 **********************************************************************

            Population analysis using the SCF density.

 **********************************************************************

 Orbital symmetries:
       Occupied  (A) (A) (A) (A) (A) (A) (A) (A) (A) (A) (A) (A)
                 (A) (A) (A) (A) (A) (A) (A) (A) (A) (A) (A) (A)
       Virtual   (A) (A) (A) (A) (A) (A) (A) (A) (A) (A) (A) (A)
                 (A) (A) (A) (A) (A) (A) (A) (A) (A) (A) (A) (A)
                 (A) (A) (A) (A) (A) (A) (A) (A) (A) (A) (A) (A)
                 (A) (A) (A) (A) (A) (A) (A) (A) (A) (A) (A) (A)
                 (A) (A) (A) (A) (A) (A) (A) (A) (A) (A) (A) (A)
                 (A) (A) (A) (A) (A) (A) (A) (A) (A) (A) (A) (A)
                 (A) (A) (A) (A) (A) (A) (A) (A) (A) (A) (A) (A)
                 (A) (A) (A) (A) (A) (A) (A) (A) (A) (A) (A) (A)
                 (A) (A) (A) (A) (A) (A) (A) (A) (A) (A) (A) (A)
                 (A) (A) (A) (A) (A) (A) (A) (A) (A) (A) (A) (A)
                 (A) (A) (A) (A) (A) (A) (A) (A) (A) (A) (A) (A)
                 (A) (A) (A) (A) (A) (A) (A) (A) (A) (A) (A) (A)
                 (A) (A) (A) (A) (A) (A) (A) (A) (A) (A) (A) (A)
                 (A) (A) (A) (A) (A) (A) (A) (A) (A) (A) (A) (A)
                 (A) (A) (A) (A) (A) (A) (A) (A) (A) (A) (A) (A)
                 (A) (A) (A) (A) (A) (A) (A) (A) (A)
 The electronic state is 1-A.
 Alpha  occ. eigenvalues --  -19.25005 -14.46505 -10.17890 -10.17067 -10.16176
 Alpha  occ. eigenvalues --  -10.15977  -1.43771  -0.78547  -0.68702  -0.67214
 Alpha  occ. eigenvalues --   -0.65274  -0.62892  -0.62171  -0.53107  -0.48796
 Alpha  occ. eigenvalues --   -0.42845  -0.41971  -0.39565  -0.37896  -0.36813
 Alpha  occ. eigenvalues --   -0.36118  -0.31749  -0.30833  -0.15245
 Alpha virt. eigenvalues --   -0.00380   0.08466   0.09249   0.14784   0.15029
 Alpha virt. eigenvalues --    0.16050   0.16164   0.18013   0.19162   0.19797
 Alpha virt. eigenvalues --    0.20281   0.22995   0.25634   0.26227   0.34917
 Alpha virt. eigenvalues --    0.44427   0.45231   0.46295   0.46460   0.47838
 Alpha virt. eigenvalues --    0.51008   0.54977   0.56953   0.59535   0.61520
 Alpha virt. eigenvalues --    0.63476   0.65289   0.69556   0.69684   0.70327
 Alpha virt. eigenvalues --    0.72150   0.72468   0.74736   0.75005   0.76306
 Alpha virt. eigenvalues --    0.77470   0.79414   0.80857   0.84719   0.87056
 Alpha virt. eigenvalues --    0.87308   0.87892   0.91061   0.91819   0.93216
 Alpha virt. eigenvalues --    1.00202   1.03000   1.08398   1.11482   1.11805
 Alpha virt. eigenvalues --    1.16982   1.17450   1.26107   1.29777   1.35751
 Alpha virt. eigenvalues --    1.37018   1.39284   1.42968   1.47010   1.48386
 Alpha virt. eigenvalues --    1.51895   1.53258   1.54330   1.58297   1.60192
 Alpha virt. eigenvalues --    1.62106   1.65653   1.70100   1.72017   1.77264
 Alpha virt. eigenvalues --    1.79215   1.80917   1.82257   1.83615   1.87244
 Alpha virt. eigenvalues --    1.89279   1.94346   1.97048   1.99446   2.01727
 Alpha virt. eigenvalues --    2.07905   2.25283   2.27311   2.27840   2.31930
 Alpha virt. eigenvalues --    2.32762   2.36689   2.41336   2.48649   2.50435
 Alpha virt. eigenvalues --    2.63303   2.65280   2.67241   2.72257   2.76801
 Alpha virt. eigenvalues --    2.80073   2.82339   2.87838   2.89897   2.90940
 Alpha virt. eigenvalues --    2.92705   2.94925   2.97089   2.98961   3.03484
 Alpha virt. eigenvalues --    3.06271   3.10109   3.10990   3.13077   3.22964
 Alpha virt. eigenvalues --    3.25373   3.33632   3.35705   3.38880   3.40056
 Alpha virt. eigenvalues --    3.41766   3.45129   3.48447   3.50260   3.52886
 Alpha virt. eigenvalues --    3.56844   3.61496   3.64903   3.66892   3.69681
 Alpha virt. eigenvalues --    3.70766   3.77171   3.79842   3.82636   3.84468
 Alpha virt. eigenvalues --    3.88514   3.97302   3.98746   4.03192   4.04769
 Alpha virt. eigenvalues --    4.07565   4.11952   4.16611   4.25062   4.28281
 Alpha virt. eigenvalues --    4.30898   4.33961   4.39480   4.41111   4.42494
 Alpha virt. eigenvalues --    4.45964   4.50152   4.51083   4.57233   4.59008
 Alpha virt. eigenvalues --    4.63740   4.64360   4.65361   4.67989   4.71028
 Alpha virt. eigenvalues --    4.72635   4.74989   4.76380   4.81758   4.84082
 Alpha virt. eigenvalues --    4.86845   4.89824   4.94561   4.98627   4.99695
 Alpha virt. eigenvalues --    5.06682   5.15502   5.20193   5.29317   5.30450
 Alpha virt. eigenvalues --    5.39363   5.44472   5.47845   5.56608   5.63649
 Alpha virt. eigenvalues --    5.72465   5.96611   6.02047   6.18116   6.35725
 Alpha virt. eigenvalues --    6.50222   6.89480   9.65206  11.28726  11.44888
 Alpha virt. eigenvalues --   11.84231  11.90756  12.59870  13.47983
          Condensed to atoms (all electrons):
               1          2          3          4          5          6
     1  C    5.121797   0.341326  -0.051219  -0.047811  -0.018658   0.007293
     2  C    0.341326   4.875575   0.393468   0.372482   0.302107  -0.256005
     3  C   -0.051219   0.393468   5.022230  -0.042226  -0.022250  -0.000319
     4  C   -0.047811   0.372482  -0.042226   5.085786  -0.027436   0.006199
     5  N   -0.018658   0.302107  -0.022250  -0.027436   6.254912   0.577716
     6  O    0.007293  -0.256005  -0.000319   0.006199   0.577716   7.463864
     7  H    0.353212  -0.010683  -0.006214  -0.004907   0.002093  -0.000432
     8  H    0.363484  -0.025666   0.005581  -0.002382  -0.001808   0.000751
     9  H    0.366327  -0.022862  -0.002388   0.004669  -0.001522   0.000689
    10  H    0.008778  -0.039545   0.354879  -0.004042  -0.009641   0.019178
    11  H   -0.006724  -0.016342   0.377156  -0.002734   0.002499  -0.001189
    12  H   -0.002533  -0.027661   0.375162   0.005161  -0.001755   0.002349
    13  H   -0.001465  -0.029038   0.004345   0.362087  -0.002103   0.003032
    14  H    0.005339  -0.023778  -0.003876   0.351141  -0.005800   0.012780
    15  H   -0.003528  -0.015359  -0.002352   0.381176   0.001972  -0.001091
               7          8          9         10         11         12
     1  C    0.353212   0.363484   0.366327   0.008778  -0.006724  -0.002533
     2  C   -0.010683  -0.025666  -0.022862  -0.039545  -0.016342  -0.027661
     3  C   -0.006214   0.005581  -0.002388   0.354879   0.377156   0.375162
     4  C   -0.004907  -0.002382   0.004669  -0.004042  -0.002734   0.005161
     5  N    0.002093  -0.001808  -0.001522  -0.009641   0.002499  -0.001755
     6  O   -0.000432   0.000751   0.000689   0.019178  -0.001189   0.002349
     7  H    0.641456  -0.038409  -0.038166  -0.000353   0.004463  -0.000736
     8  H   -0.038409   0.625454  -0.028069  -0.000236  -0.000153   0.000046
     9  H   -0.038166  -0.028069   0.613248   0.000112  -0.000457   0.004352
    10  H   -0.000353  -0.000236   0.000112   0.625533  -0.029961  -0.033962
    11  H    0.004463  -0.000153  -0.000457  -0.029961   0.604975  -0.045976
    12  H   -0.000736   0.000046   0.004352  -0.033962  -0.045976   0.609722
    13  H   -0.000570   0.004988  -0.000035   0.000037  -0.000087  -0.000136
    14  H   -0.000221   0.000016  -0.000124   0.005897  -0.000508  -0.000014
    15  H    0.002733  -0.000267  -0.000095  -0.000533   0.002041  -0.000141
              13         14         15
     1  C   -0.001465   0.005339  -0.003528
     2  C   -0.029038  -0.023778  -0.015359
     3  C    0.004345  -0.003876  -0.002352
     4  C    0.362087   0.351141   0.381176
     5  N   -0.002103  -0.005800   0.001972
     6  O    0.003032   0.012780  -0.001091
     7  H   -0.000570  -0.000221   0.002733
     8  H    0.004988   0.000016  -0.000267
     9  H   -0.000035  -0.000124  -0.000095
    10  H    0.000037   0.005897  -0.000533
    11  H   -0.000087  -0.000508   0.002041
    12  H   -0.000136  -0.000014  -0.000141
    13  H    0.605673  -0.019945  -0.036264
    14  H   -0.019945   0.611891  -0.039686
    15  H   -0.036264  -0.039686   0.580551
 Mulliken charges:
               1
     1  C   -0.435618
     2  C    0.181981
     3  C   -0.401976
     4  C   -0.437163
     5  N   -0.050324
     6  O    0.165184
     7  H    0.096736
     8  H    0.096668
     9  H    0.104321
    10  H    0.103859
    11  H    0.112997
    12  H    0.116122
    13  H    0.109482
    14  H    0.106888
    15  H    0.130842
 Sum of Mulliken charges =  -0.00000
 Mulliken charges with hydrogens summed into heavy atoms:
               1
     1  C   -0.137893
     2  C    0.181981
     3  C   -0.068997
     4  C   -0.089951
     5  N   -0.050324
     6  O    0.165184
 Electronic spatial extent (au):  <R**2>=            580.6649
 Charge=             -0.0000 electrons
 Dipole moment (field-independent basis, Debye):
    X=              0.6235    Y=              0.1110    Z=              0.3912  Tot=              0.7444
 Quadrupole moment (field-independent basis, Debye-Ang):
   XX=            -37.4888   YY=            -36.7812   ZZ=            -38.5385
   XY=             -0.1893   XZ=             -0.6553   YZ=             -0.8207
 Traceless Quadrupole moment (field-independent basis, Debye-Ang):
   XX=              0.1140   YY=              0.8217   ZZ=             -0.9357
   XY=             -0.1893   XZ=             -0.6553   YZ=             -0.8207
 Octapole moment (field-independent basis, Debye-Ang**2):
  XXX=             15.0632  YYY=             -3.7365  ZZZ=             -1.2237  XYY=              3.9641
  XXY=             -0.4983  XXZ=              1.3213  XZZ=              4.1227  YZZ=              2.4110
  YYZ=             -1.2370  XYZ=             -0.8744
 Hexadecapole moment (field-independent basis, Debye-Ang**3):
 XXXX=           -321.9785 YYYY=           -232.7629 ZZZZ=           -212.8779 XXXY=             -3.4390
 XXXZ=            -11.9611 YYYX=             -2.5706 YYYZ=             -0.7643 ZZZX=             -4.2145
 ZZZY=             -1.0243 XXYY=            -89.7975 XXZZ=            -87.2034 YYZZ=            -72.2220
 XXYZ=             -1.0345 YYXZ=             -1.6738 ZZXY=              1.0766
 N-N= 2.543223488037D+02 E-N=-1.179083653813D+03  KE= 2.871222673369D+02
 No NMR shielding tensors so no spin-rotation constants.
 Leave Link  601 at Tue Aug 30 12:28:31 2022, MaxMem= 24159191040 cpu:        13.3
 (Enter /public/home/users/caep010/software/Gaussian09/g09/l701.exe)
 Compute integral first derivatives.
 ... and contract with generalized density number  0.
 Leave Link  701 at Tue Aug 30 12:28:31 2022, MaxMem= 24159191040 cpu:        14.4
 (Enter /public/home/users/caep010/software/Gaussian09/g09/l702.exe)
 L702 exits ... SP integral derivatives will be done elsewhere.
 Leave Link  702 at Tue Aug 30 12:28:31 2022, MaxMem= 24159191040 cpu:         0.6
 (Enter /public/home/users/caep010/software/Gaussian09/g09/l703.exe)
 Compute integral first derivatives, UseDBF=F ICtDFT=           0.
 Integral derivatives from FoFJK, PRISM(SPDF).
 Calling FoFJK, ICntrl=      2127 FMM=F ISym2X=0 I1Cent= 0 IOpClX= 0 NMat=1 NMatS=1 NMatT=0.
 FoFJK:  IHMeth= 1 ICntrl=    2127 DoSepK=F KAlg= 0 I1Cent=   0 FoldK=F
 IRaf=         0 NMat=   1 IRICut=       1 DoRegI=T DoRafI=F ISym2E= 0.
 FoFCou: FMM=F IPFlag=           0 FMFlag=      100000 FMFlg1=         800
         NFxFlg=           0 DoJE=F BraDBF=F KetDBF=F FulRan=T
         wScrn=  0.000000 ICntrl=    2127 IOpCl=  0 I1Cent=           0 NGrid=           0
         NMat0=    1 NMatS0=      1 NMatT0=    0 NMatD0=    1 NMtDS0=    0 NMtDT0=    0
 Symmetry not used in FoFCou.
 Leave Link  703 at Tue Aug 30 12:28:33 2022, MaxMem= 24159191040 cpu:        51.3
 (Enter /public/home/users/caep010/software/Gaussian09/g09/l716.exe)
 Dipole        = 2.45294468D-01 4.36693608D-02 1.53904132D-01
 ***** Axes restored to original set *****
 -------------------------------------------------------------------
 Center     Atomic                   Forces (Hartrees/Bohr)
 Number     Number              X              Y              Z
 -------------------------------------------------------------------
      1        6          -0.013252017    0.001218320   -0.000013641
      2        6           0.050326631   -0.080144909    0.012682420
      3        6          -0.008218409   -0.041986888   -0.033193998
      4        6           0.020824199    0.036647299   -0.002257938
      5        7           0.930544063   -0.433725502   -0.084584962
      6        8          -0.982910867    0.491777192    0.076198848
      7        1           0.002729711    0.003562864   -0.002353206
      8        1           0.001387226    0.000414510    0.006873548
      9        1          -0.006828846   -0.002346701   -0.005331282
     10        1          -0.035149978    0.022118935    0.014916973
     11        1          -0.011176611    0.004504976   -0.006526435
     12        1           0.041204458    0.019687962    0.010895328
     13        1          -0.012326700    0.009192472    0.014099078
     14        1           0.022879837   -0.010937228   -0.014102908
     15        1          -0.000032697   -0.019983303    0.012698175
 -------------------------------------------------------------------
 Cartesian Forces:  Max     0.982910867 RMS     0.225846069
 Leave Link  716 at Tue Aug 30 12:28:33 2022, MaxMem= 24159191040 cpu:         0.7
 (Enter /public/home/users/caep010/software/Gaussian09/g09/l103.exe)

 GradGradGradGradGradGradGradGradGradGradGradGradGradGradGradGradGradGrad
 Berny optimization.
 FormGI is forming the generalized inverse of G from B-inverse, IUseBI=4.
 Internal  Forces:  Max     1.096321449 RMS     0.134551202
 Search for a local minimum.
 Step number   1 out of a maximum of   79
 All quantities printed in internal units (Hartrees-Bohrs-Radians)
 RMS Force = .13455D+00 SwitMx=.10000D-02 MixMth= 1
 Mixed Optimization -- RFO/linear search
 Second derivative matrix not updated -- first step.
 ITU=  0
     Eigenvalues ---    0.00230   0.00230   0.00230   0.00230   0.03728
     Eigenvalues ---    0.04991   0.05260   0.05364   0.05517   0.05583
     Eigenvalues ---    0.05701   0.05872   0.06900   0.14879   0.16000
     Eigenvalues ---    0.16000   0.16000   0.16000   0.16000   0.16000
     Eigenvalues ---    0.16000   0.16000   0.16000   0.16035   0.16867
     Eigenvalues ---    0.24299   0.25000   0.26977   0.27872   0.29360
     Eigenvalues ---    0.30958   0.32661   0.32837   0.32865   0.33082
     Eigenvalues ---    0.37890   0.40976   0.41565   5.70217
 RFO step:  Lambda=-2.88162684D-01 EMin= 2.30000000D-03
 Linear search not attempted -- first point.
 Maximum step size (   0.300) exceeded in Quadratic search.
    -- Step size scaled by   0.678
 Iteration  1 RMS(Cart)=  0.05191356 RMS(Int)=  0.00786170
 Iteration  2 RMS(Cart)=  0.01301730 RMS(Int)=  0.00038569
 Iteration  3 RMS(Cart)=  0.00038703 RMS(Int)=  0.00004356
 Iteration  4 RMS(Cart)=  0.00000026 RMS(Int)=  0.00004356
 ITry= 1 IFail=0 DXMaxC= 4.38D-01 DCOld= 1.00D+10 DXMaxT= 3.00D-01 DXLimC= 3.00D+00 Rises=F
 Variable       Old X    -DE/DX   Delta X   Delta X   Delta X     New X
                                 (Linear)    (Quad)   (Total)
    R1        2.94432  -0.01400   0.00000  -0.01702  -0.01702   2.92730
    R2        2.09338  -0.00458   0.00000  -0.00504  -0.00504   2.08834
    R3        2.09290  -0.00654   0.00000  -0.00719  -0.00719   2.08571
    R4        2.09652  -0.00879   0.00000  -0.00970  -0.00970   2.08681
    R5        2.92419  -0.01112   0.00000  -0.01330  -0.01330   2.91089
    R6        3.01026  -0.03550   0.00000  -0.04534  -0.04534   2.96491
    R7        3.35220   0.04466   0.00000   0.06934   0.06934   3.42154
    R8        1.96948   0.04123   0.00000   0.04007   0.04007   2.00955
    R9        2.08907  -0.00496   0.00000  -0.00543  -0.00543   2.08364
   R10        1.96180   0.04511   0.00000   0.04348   0.04348   2.00528
   R11        2.12792  -0.01777   0.00000  -0.02016  -0.02016   2.10776
   R12        2.15958  -0.02670   0.00000  -0.03113  -0.03113   2.12844
   R13        2.01226   0.02172   0.00000   0.02209   0.02209   2.03435
   R14        1.75747   1.09632   0.00000   0.12415   0.12415   1.88161
    A1        1.96117   0.00317   0.00000   0.00505   0.00504   1.96622
    A2        1.92356   0.00256   0.00000   0.00383   0.00382   1.92738
    A3        1.92449  -0.00140   0.00000  -0.00231  -0.00231   1.92218
    A4        1.87377  -0.00201   0.00000  -0.00266  -0.00268   1.87109
    A5        1.87372  -0.00060   0.00000  -0.00080  -0.00080   1.87292
    A6        1.90530  -0.00195   0.00000  -0.00344  -0.00343   1.90187
    A7        1.92687   0.00381   0.00000   0.00666   0.00665   1.93351
    A8        1.96875  -0.00328   0.00000  -0.00500  -0.00498   1.96377
    A9        1.92153   0.00490   0.00000   0.00884   0.00883   1.93036
   A10        1.98305  -0.00071   0.00000  -0.00199  -0.00199   1.98106
   A11        1.78747  -0.00173   0.00000  -0.00245  -0.00250   1.78497
   A12        1.86592  -0.00276   0.00000  -0.00568  -0.00568   1.86024
   A13        1.82036   0.01920   0.00000   0.02898   0.02911   1.84947
   A14        1.96997  -0.00363   0.00000  -0.00597  -0.00600   1.96397
   A15        2.03603  -0.01789   0.00000  -0.02652  -0.02646   2.00956
   A16        1.98904  -0.01207   0.00000  -0.01946  -0.01944   1.96960
   A17        1.87819  -0.00013   0.00000   0.00083   0.00105   1.87924
   A18        1.77510   0.01237   0.00000   0.01889   0.01881   1.79391
   A19        1.86775   0.00971   0.00000   0.01437   0.01442   1.88217
   A20        1.94701   0.00053   0.00000   0.00034   0.00034   1.94735
   A21        1.99390  -0.01309   0.00000  -0.01902  -0.01898   1.97492
   A22        2.01763  -0.01002   0.00000  -0.01668  -0.01667   2.00096
   A23        1.83891   0.00345   0.00000   0.00623   0.00632   1.84523
   A24        1.79950   0.00813   0.00000   0.01294   0.01294   1.81245
   A25        1.66459   0.19117   0.00000   0.24097   0.24097   1.90556
    D1        1.13617  -0.00150   0.00000  -0.00318  -0.00320   1.13297
    D2       -1.10347  -0.00105   0.00000  -0.00199  -0.00199  -1.10546
    D3        3.09710   0.00123   0.00000   0.00242   0.00244   3.09954
    D4       -3.05804  -0.00020   0.00000  -0.00061  -0.00063  -3.05867
    D5        0.98551   0.00025   0.00000   0.00058   0.00058   0.98609
    D6       -1.09711   0.00253   0.00000   0.00499   0.00501  -1.09210
    D7       -0.95339  -0.00187   0.00000  -0.00391  -0.00393  -0.95732
    D8        3.09016  -0.00142   0.00000  -0.00272  -0.00272   3.08744
    D9        1.00755   0.00086   0.00000   0.00169   0.00171   1.00925
   D10        3.04816   0.00501   0.00000   0.00926   0.00920   3.05736
   D11       -1.06693   0.00103   0.00000   0.00142   0.00139  -1.06554
   D12        0.97976   0.00162   0.00000   0.00258   0.00266   0.98241
   D13       -1.00321   0.00319   0.00000   0.00646   0.00641  -0.99681
   D14        1.16489  -0.00080   0.00000  -0.00138  -0.00141   1.16348
   D15       -3.07161  -0.00021   0.00000  -0.00021  -0.00014  -3.07175
   D16        1.00248  -0.00139   0.00000  -0.00256  -0.00260   0.99988
   D17       -3.11260  -0.00538   0.00000  -0.01040  -0.01042  -3.12302
   D18       -1.06592  -0.00479   0.00000  -0.00923  -0.00915  -1.07507
   D19       -0.93674  -0.00259   0.00000  -0.00500  -0.00499  -0.94173
   D20        3.12367   0.00274   0.00000   0.00554   0.00553   3.12921
   D21        1.09146   0.00065   0.00000   0.00135   0.00132   1.09278
   D22        3.13644  -0.00444   0.00000  -0.00824  -0.00822   3.12822
   D23        0.91367   0.00089   0.00000   0.00230   0.00230   0.91597
   D24       -1.11855  -0.00120   0.00000  -0.00188  -0.00191  -1.12045
   D25        1.17780  -0.00035   0.00000  -0.00089  -0.00086   1.17694
   D26       -1.04496   0.00497   0.00000   0.00965   0.00966  -1.03530
   D27       -3.07718   0.00288   0.00000   0.00547   0.00545  -3.07173
   D28        2.97949  -0.00114   0.00000  -0.00099  -0.00099   2.97850
   D29       -1.25421   0.00448   0.00000   0.00926   0.00925  -1.24496
   D30        0.83525   0.00168   0.00000   0.00342   0.00344   0.83869
         Item               Value     Threshold  Converged?
 Maximum Force            1.096321     0.000450     NO 
 RMS     Force            0.134551     0.000300     NO 
 Maximum Displacement     0.438144     0.001800     NO 
 RMS     Displacement     0.061671     0.001200     NO 
 Predicted change in Energy=-1.422518D-01
 Lowest energy point so far.  Saving SCF results.
 GradGradGradGradGradGradGradGradGradGradGradGradGradGradGradGradGradGrad

 Leave Link  103 at Tue Aug 30 12:28:33 2022, MaxMem= 24159191040 cpu:         3.6
 (Enter /public/home/users/caep010/software/Gaussian09/g09/l202.exe)
                          Input orientation:                          
 ---------------------------------------------------------------------
 Center     Atomic      Atomic             Coordinates (Angstroms)
 Number     Number       Type             X           Y           Z
 ---------------------------------------------------------------------
      1          6           0        1.299852   -0.836067   -0.318174
      2          6           0        0.100364    0.117214   -0.089984
      3          6           0       -0.099738    0.394016    1.412046
      4          6           0       -1.202178   -0.371852   -0.815139
      5          7           0        0.465253    1.767207   -0.740098
      6          8           0       -0.364697    2.317002   -0.721625
      7          1           0        1.129789   -1.842925    0.104395
      8          1           0        1.491065   -0.963117   -1.397744
      9          1           0        2.206764   -0.427359    0.161341
     10          1           0       -0.878497    1.115380    1.475356
     11          1           0       -0.317406   -0.522453    1.985164
     12          1           0        0.747255    0.789437    1.914323
     13          1           0       -0.955545   -0.529009   -1.891494
     14          1           0       -2.066841    0.325333   -0.628329
     15          1           0       -1.555541   -1.322806   -0.454937
 ---------------------------------------------------------------------
                    Distance matrix (angstroms):
                    1          2          3          4          5
     1  C    0.000000
     2  C    1.549059   0.000000
     3  C    2.542757   1.540375   0.000000
     4  C    2.592803   1.568965   2.600438   0.000000
     5  N    2.766154   1.810600   2.614688   2.713214   0.000000
     6  O    3.588222   2.335448   2.884550   2.817810   0.995708
     7  H    1.105102   2.222531   2.868029   2.906487   3.766674
     8  H    1.103711   2.193490   3.502482   2.818258   2.989892
     9  H    1.104294   2.190124   2.749340   3.546474   2.943055
    10  H    3.430758   2.098760   1.063409   2.750090   2.671850
    11  H    2.831827   2.211322   1.102614   2.940612   3.644469
    12  H    2.816321   2.210791   1.061149   3.549484   2.842800
    13  H    2.767027   2.185860   3.535216   1.115377   2.935470
    14  H    3.574866   2.242745   2.835020   1.126324   2.915989
    15  H    2.899809   2.224605   2.924460   1.076533   3.703121
                    6          7          8          9         10
     6  O    0.000000
     7  H    4.496753   0.000000
     8  H    3.828860   1.777922   0.000000
     9  H    3.863102   1.779592   1.797222   0.000000
    10  H    2.556288   3.829402   4.264936   3.691275   0.000000
    11  H    3.923192   2.715753   3.861194   3.115575   1.804778
    12  H    3.243163   3.217375   3.820273   2.585286   1.715225
    13  H    3.133284   3.171524   2.533404   3.771559   3.747750
    14  H    2.621591   3.931497   3.861450   4.410649   2.542013
    15  H    3.838936   2.791840   3.209372   3.916192   3.182636
                   11         12         13         14         15
    11  H    0.000000
    12  H    1.691028   0.000000
    13  H    3.928834   4.372878   0.000000
    14  H    3.257239   3.820943   1.886919   0.000000
    15  H    2.850901   3.921457   1.747514   1.734317   0.000000
 Stoichiometry    C4H9NO
 Framework group  C1[X(C4H9NO)]
 Deg. of freedom    39
 Full point group                 C1      NOp   1
 RotChk:  IX=0 Diff= 1.04D-01
 Largest Abelian subgroup         C1      NOp   1
 Largest concise Abelian subgroup C1      NOp   1
                         Standard orientation:                         
 ---------------------------------------------------------------------
 Center     Atomic      Atomic             Coordinates (Angstroms)
 Number     Number       Type             X           Y           Z
 ---------------------------------------------------------------------
      1          6           0       -1.539177   -0.224683   -0.999681
      2          6           0       -0.388728    0.011780    0.010338
      3          6           0       -0.424735   -1.039421    1.135697
      4          6           0       -0.344619    1.489556    0.535585
      5          7           0        1.215701   -0.309222   -0.764927
      6          8           0        1.940932   -0.007917   -0.152808
      7          1           0       -2.537750   -0.079242   -0.549182
      8          1           0       -1.458039    0.477455   -1.847381
      9          1           0       -1.500043   -1.258791   -1.385110
     10          1           0        0.437924   -0.860190    1.731125
     11          1           0       -1.361048   -1.004135    1.716929
     12          1           0       -0.387903   -2.048970    0.810902
     13          1           0       -0.306739    2.166115   -0.350360
     14          1           0        0.488920    1.640570    1.277887
     15          1           0       -1.229133    1.771693    1.080522
 ---------------------------------------------------------------------
 Rotational constants (GHZ):      4.4148045      2.7512830      2.6704018
 Leave Link  202 at Tue Aug 30 12:28:33 2022, MaxMem= 24159191040 cpu:         0.2
 (Enter /public/home/users/caep010/software/Gaussian09/g09/l301.exe)
 Standard basis: GTBas3 (6D, 7F)
 Ernie: Thresh=  0.10000D-02 Tol=  0.10000D-05 Strict=F.
 There are   231 symmetry adapted cartesian basis functions of A   symmetry.
 There are   213 symmetry adapted basis functions of A   symmetry.
   213 basis functions,   327 primitive gaussians,   231 cartesian basis functions
    24 alpha electrons       24 beta electrons
       nuclear repulsion energy       248.3033678665 Hartrees.
 IExCor=  402 DFT=T Ex+Corr=B3LYP ExCW=0 ScaHFX=  0.200000
 ScaDFX=  0.800000  0.720000  1.000000  0.810000 ScalE2=  1.000000  1.000000
 IRadAn=      0 IRanWt=     -1 IRanGd=            0 ICorTp=0 IEmpDi=  4
 NAtoms=   15 NActive=   15 NUniq=   15 SFac= 1.00D+00 NAtFMM=   60 NAOKFM=F Big=F
 Integral buffers will be    131072 words long.
 Raffenetti 2 integral format.
 Two-electron integral symmetry is turned on.
 Leave Link  301 at Tue Aug 30 12:28:34 2022, MaxMem= 24159191040 cpu:         1.7
 (Enter /public/home/users/caep010/software/Gaussian09/g09/l302.exe)
 NPDir=0 NMtPBC=     1 NCelOv=     1 NCel=       1 NClECP=     1 NCelD=      1
         NCelK=      1 NCelE2=     1 NClLst=     1 CellRange=     0.0.
 One-electron integrals computed using PRISM.
 NBasis=   213 RedAO= T EigKep=  8.81D-04  NBF=   213
 NBsUse=   213 1.00D-06 EigRej= -1.00D+00 NBFU=   213
 Precomputing XC quadrature grid using
 IXCGrd= 4 IRadAn=           0 IRanWt=          -1 IRanGd=           0 AccXCQ= 0.00D+00.
 Generated NRdTot=       0 NPtTot=           0 NUsed=           0 NTot=          32
 NSgBfM=   231   231   231   231   231 MxSgAt=    15 MxSgA2=    15.
 Leave Link  302 at Tue Aug 30 12:28:34 2022, MaxMem= 24159191040 cpu:        14.0
 (Enter /public/home/users/caep010/software/Gaussian09/g09/l303.exe)
 DipDrv:  MaxL=1.
 Leave Link  303 at Tue Aug 30 12:28:34 2022, MaxMem= 24159191040 cpu:         0.7
 (Enter /public/home/users/caep010/software/Gaussian09/g09/l401.exe)
 Initial guess from the checkpoint file:  "G4.Frag_804.chk"
 B after Tr=     0.000000    0.000000    0.000000
         Rot=    0.999443   -0.011475    0.027356   -0.015257 Ang=  -3.82 deg.
 Guess basis will be translated and rotated to current coordinates.
 JPrj=2 DoOrth=T DoCkMO=T.
 Generating alternative initial guess.
 ExpMin= 1.61D-01 ExpMax= 5.48D+03 ExpMxC= 8.25D+02 IAcc=1 IRadAn=         1 AccDes= 0.00D+00
 Harris functional with IExCor=  402 and IRadAn=       1 diagonalized for initial guess.
 HarFok:  IExCor=  402 AccDes= 0.00D+00 IRadAn=         1 IDoV= 1 UseB2=F ITyADJ=14
 ICtDFT=  3500011 ScaDFX=  1.000000  1.000000  1.000000  1.000000
 FoFCou: FMM=F IPFlag=           0 FMFlag=      100000 FMFlg1=           0
         NFxFlg=           0 DoJE=T BraDBF=F KetDBF=T FulRan=T
         wScrn=  0.000000 ICntrl=     500 IOpCl=  0 I1Cent=   200000004 NGrid=           0
         NMat0=    1 NMatS0=      1 NMatT0=    0 NMatD0=    1 NMtDS0=    0 NMtDT0=    0
 Petite list used in FoFCou.
 Harris En= -287.725164642093    
 Leave Link  401 at Tue Aug 30 12:28:35 2022, MaxMem= 24159191040 cpu:        21.3
 (Enter /public/home/users/caep010/software/Gaussian09/g09/l502.exe)
 Closed shell SCF:
 Using DIIS extrapolation, IDIIS=  1040.
 Integral symmetry usage will be decided dynamically.
 Keep R1 ints in memory in canonical form, NReq=266157421.
 IVT=      187717 IEndB=      187717 NGot= 24159191040 MDV= 23899277088
 LenX= 23899277088 LenY= 23899223286
 Requested convergence on RMS density matrix=1.00D-08 within 128 cycles.
 Requested convergence on MAX density matrix=1.00D-06.
 Requested convergence on             energy=1.00D-06.
 No special actions if energy rises.
 FoFCou: FMM=F IPFlag=           0 FMFlag=           0 FMFlg1=           0
         NFxFlg=           0 DoJE=F BraDBF=F KetDBF=F FulRan=T
         wScrn=  0.000000 ICntrl=     600 IOpCl=  0 I1Cent=           0 NGrid=           0
         NMat0=    1 NMatS0=  22791 NMatT0=    0 NMatD0=    1 NMtDS0=    0 NMtDT0=    0
 Symmetry not used in FoFCou.
 Integral accuracy reduced to 1.0D-05 until final iterations.

 Cycle   1  Pass 0  IDiag  1:
 E= -287.603562787674    
 DIIS: error= 1.87D-02 at cycle   1 NSaved=   1.
 NSaved= 1 IEnMin= 1 EnMin= -287.603562787674     IErMin= 1 ErrMin= 1.87D-02
 ErrMax= 1.87D-02  0.00D+00 EMaxC= 1.00D-01 BMatC= 5.94D-02 BMatP= 5.94D-02
 IDIUse=3 WtCom= 8.13D-01 WtEn= 1.87D-01
 Coeff-Com:  0.100D+01
 Coeff-En:   0.100D+01
 Coeff:      0.100D+01
 Recover alternate guess density for next cycle.
 RMSDP=3.14D-03 MaxDP=7.96D-02              OVMax= 0.00D+00

 Cycle   2  Pass 0  IDiag  1:
 E= -287.402245736859     Delta-E=        0.201317050815 Rises=F Damp=F
 Switch densities from cycles 1 and 2 for lowest energy.
 DIIS: error= 2.86D-02 at cycle   2 NSaved=   2.
 NSaved= 2 IEnMin= 1 EnMin= -287.603562787674     IErMin= 1 ErrMin= 1.87D-02
 ErrMax= 2.86D-02  0.00D+00 EMaxC= 1.00D+00 BMatC= 2.33D-01 BMatP= 5.94D-02
 IDIUse=1 WtCom= 1.00D+00 WtEn= 0.00D+00
 Coeff-Com:  0.807D+00 0.193D+00
 Coeff:      0.807D+00 0.193D+00
 Gap=     0.122 Goal=   None    Shift=    0.000
 RMSDP=1.62D-03 MaxDP=9.74D-02 DE= 2.01D-01 OVMax= 2.05D-01

 Cycle   3  Pass 0  IDiag  1:
 E= -287.640088664540     Delta-E=       -0.237842927681 Rises=F Damp=F
 DIIS: error= 7.89D-03 at cycle   3 NSaved=   3.
 NSaved= 3 IEnMin= 3 EnMin= -287.640088664540     IErMin= 3 ErrMin= 7.89D-03
 ErrMax= 7.89D-03  0.00D+00 EMaxC= 1.00D+00 BMatC= 1.71D-02 BMatP= 5.94D-02
 IDIUse=1 WtCom= 1.00D+00 WtEn= 0.00D+00
 Coeff-Com: -0.261D-02 0.204D+00 0.799D+00
 Coeff:     -0.261D-02 0.204D+00 0.799D+00
 Gap=     0.147 Goal=   None    Shift=    0.000
 RMSDP=8.75D-04 MaxDP=3.13D-02 DE=-2.38D-01 OVMax= 6.82D-02

 Cycle   4  Pass 0  IDiag  1:
 E= -287.656114501225     Delta-E=       -0.016025836685 Rises=F Damp=F
 DIIS: error= 3.59D-03 at cycle   4 NSaved=   4.
 NSaved= 4 IEnMin= 4 EnMin= -287.656114501225     IErMin= 4 ErrMin= 3.59D-03
 ErrMax= 3.59D-03  0.00D+00 EMaxC= 1.00D+00 BMatC= 2.26D-03 BMatP= 1.71D-02
 IDIUse=1 WtCom= 1.00D+00 WtEn= 0.00D+00
 Coeff-Com: -0.104D-01 0.900D-01 0.418D+00 0.502D+00
 Coeff:     -0.104D-01 0.900D-01 0.418D+00 0.502D+00
 Gap=     0.141 Goal=   None    Shift=    0.000
 RMSDP=3.17D-04 MaxDP=1.50D-02 DE=-1.60D-02 OVMax= 2.98D-02

 Cycle   5  Pass 0  IDiag  1:
 E= -287.658026808315     Delta-E=       -0.001912307090 Rises=F Damp=F
 DIIS: error= 1.08D-03 at cycle   5 NSaved=   5.
 NSaved= 5 IEnMin= 5 EnMin= -287.658026808315     IErMin= 5 ErrMin= 1.08D-03
 ErrMax= 1.08D-03  0.00D+00 EMaxC= 1.00D+00 BMatC= 2.79D-04 BMatP= 2.26D-03
 IDIUse=1 WtCom= 1.00D+00 WtEn= 0.00D+00
 Coeff-Com: -0.520D-02 0.117D-01 0.821D-01 0.282D+00 0.629D+00
 Coeff:     -0.520D-02 0.117D-01 0.821D-01 0.282D+00 0.629D+00
 Gap=     0.144 Goal=   None    Shift=    0.000
 RMSDP=1.02D-04 MaxDP=5.66D-03 DE=-1.91D-03 OVMax= 9.31D-03

 Cycle   6  Pass 0  IDiag  1:
 E= -287.658270153185     Delta-E=       -0.000243344870 Rises=F Damp=F
 DIIS: error= 2.73D-04 at cycle   6 NSaved=   6.
 NSaved= 6 IEnMin= 6 EnMin= -287.658270153185     IErMin= 6 ErrMin= 2.73D-04
 ErrMax= 2.73D-04  0.00D+00 EMaxC= 1.00D+00 BMatC= 2.78D-05 BMatP= 2.79D-04
 IDIUse=1 WtCom= 1.00D+00 WtEn= 0.00D+00
 Coeff-Com: -0.157D-02 0.279D-02 0.298D-01 0.145D+00 0.373D+00 0.451D+00
 Coeff:     -0.157D-02 0.279D-02 0.298D-01 0.145D+00 0.373D+00 0.451D+00
 Gap=     0.143 Goal=   None    Shift=    0.000
 RMSDP=2.50D-05 MaxDP=1.18D-03 DE=-2.43D-04 OVMax= 1.96D-03

 Cycle   7  Pass 0  IDiag  1:
 E= -287.658289510188     Delta-E=       -0.000019357003 Rises=F Damp=F
 DIIS: error= 1.04D-04 at cycle   7 NSaved=   7.
 NSaved= 7 IEnMin= 7 EnMin= -287.658289510188     IErMin= 7 ErrMin= 1.04D-04
 ErrMax= 1.04D-04  0.00D+00 EMaxC= 1.00D+00 BMatC= 2.37D-06 BMatP= 2.78D-05
 IDIUse=1 WtCom= 1.00D+00 WtEn= 0.00D+00
 Coeff-Com: -0.306D-03-0.232D-03 0.345D-02 0.367D-01 0.110D+00 0.255D+00
 Coeff-Com:  0.595D+00
 Coeff:     -0.306D-03-0.232D-03 0.345D-02 0.367D-01 0.110D+00 0.255D+00
 Coeff:      0.595D+00
 Gap=     0.143 Goal=   None    Shift=    0.000
 RMSDP=5.55D-06 MaxDP=2.56D-04 DE=-1.94D-05 OVMax= 4.28D-04

 Initial convergence to 1.0D-05 achieved.  Increase integral accuracy.
 Cycle   8  Pass 1  IDiag  1:
 E= -287.658297497671     Delta-E=       -0.000007987482 Rises=F Damp=F
 DIIS: error= 2.16D-05 at cycle   1 NSaved=   1.
 NSaved= 1 IEnMin= 1 EnMin= -287.658297497671     IErMin= 1 ErrMin= 2.16D-05
 ErrMax= 2.16D-05  0.00D+00 EMaxC= 1.00D+00 BMatC= 1.73D-07 BMatP= 1.73D-07
 IDIUse=1 WtCom= 1.00D+00 WtEn= 0.00D+00
 Coeff-Com:  0.100D+01
 Coeff:      0.100D+01
 Gap=     0.143 Goal=   None    Shift=    0.000
 RMSDP=5.55D-06 MaxDP=2.56D-04 DE=-7.99D-06 OVMax= 1.80D-04

 Cycle   9  Pass 1  IDiag  1:
 E= -287.658297576750     Delta-E=       -0.000000079079 Rises=F Damp=F
 DIIS: error= 1.58D-05 at cycle   2 NSaved=   2.
 NSaved= 2 IEnMin= 2 EnMin= -287.658297576750     IErMin= 2 ErrMin= 1.58D-05
 ErrMax= 1.58D-05  0.00D+00 EMaxC= 1.00D+00 BMatC= 8.37D-08 BMatP= 1.73D-07
 IDIUse=1 WtCom= 1.00D+00 WtEn= 0.00D+00
 Coeff-Com:  0.380D+00 0.620D+00
 Coeff:      0.380D+00 0.620D+00
 Gap=     0.143 Goal=   None    Shift=    0.000
 RMSDP=2.05D-06 MaxDP=8.26D-05 DE=-7.91D-08 OVMax= 1.51D-04

 Cycle  10  Pass 1  IDiag  1:
 E= -287.658297631227     Delta-E=       -0.000000054477 Rises=F Damp=F
 DIIS: error= 9.97D-06 at cycle   3 NSaved=   3.
 NSaved= 3 IEnMin= 3 EnMin= -287.658297631227     IErMin= 3 ErrMin= 9.97D-06
 ErrMax= 9.97D-06  0.00D+00 EMaxC= 1.00D+00 BMatC= 2.61D-08 BMatP= 8.37D-08
 IDIUse=1 WtCom= 1.00D+00 WtEn= 0.00D+00
 Coeff-Com:  0.184D-01 0.354D+00 0.628D+00
 Coeff:      0.184D-01 0.354D+00 0.628D+00
 Gap=     0.143 Goal=   None    Shift=    0.000
 RMSDP=8.70D-07 MaxDP=3.63D-05 DE=-5.45D-08 OVMax= 7.56D-05

 Cycle  11  Pass 1  IDiag  1:
 E= -287.658297651797     Delta-E=       -0.000000020570 Rises=F Damp=F
 DIIS: error= 4.29D-06 at cycle   4 NSaved=   4.
 NSaved= 4 IEnMin= 4 EnMin= -287.658297651797     IErMin= 4 ErrMin= 4.29D-06
 ErrMax= 4.29D-06  0.00D+00 EMaxC= 1.00D+00 BMatC= 3.01D-09 BMatP= 2.61D-08
 IDIUse=1 WtCom= 1.00D+00 WtEn= 0.00D+00
 Coeff-Com: -0.144D-01 0.174D+00 0.378D+00 0.463D+00
 Coeff:     -0.144D-01 0.174D+00 0.378D+00 0.463D+00
 Gap=     0.143 Goal=   None    Shift=    0.000
 RMSDP=2.98D-07 MaxDP=1.29D-05 DE=-2.06D-08 OVMax= 2.27D-05

 Cycle  12  Pass 1  IDiag  1:
 E= -287.658297654539     Delta-E=       -0.000000002742 Rises=F Damp=F
 DIIS: error= 5.74D-07 at cycle   5 NSaved=   5.
 NSaved= 5 IEnMin= 5 EnMin= -287.658297654539     IErMin= 5 ErrMin= 5.74D-07
 ErrMax= 5.74D-07  0.00D+00 EMaxC= 1.00D+00 BMatC= 1.15D-10 BMatP= 3.01D-09
 IDIUse=1 WtCom= 1.00D+00 WtEn= 0.00D+00
 Coeff-Com: -0.822D-02 0.777D-01 0.177D+00 0.251D+00 0.503D+00
 Coeff:     -0.822D-02 0.777D-01 0.177D+00 0.251D+00 0.503D+00
 Gap=     0.143 Goal=   None    Shift=    0.000
 RMSDP=7.28D-08 MaxDP=3.61D-06 DE=-2.74D-09 OVMax= 6.60D-06

 Cycle  13  Pass 1  IDiag  1:
 E= -287.658297654648     Delta-E=       -0.000000000109 Rises=F Damp=F
 DIIS: error= 2.06D-07 at cycle   6 NSaved=   6.
 NSaved= 6 IEnMin= 6 EnMin= -287.658297654648     IErMin= 6 ErrMin= 2.06D-07
 ErrMax= 2.06D-07  0.00D+00 EMaxC= 1.00D+00 BMatC= 2.04D-11 BMatP= 1.15D-10
 IDIUse=1 WtCom= 1.00D+00 WtEn= 0.00D+00
 Coeff-Com: -0.325D-02 0.257D-01 0.608D-01 0.966D-01 0.313D+00 0.507D+00
 Coeff:     -0.325D-02 0.257D-01 0.608D-01 0.966D-01 0.313D+00 0.507D+00
 Gap=     0.143 Goal=   None    Shift=    0.000
 RMSDP=2.63D-08 MaxDP=1.13D-06 DE=-1.09D-10 OVMax= 2.63D-06

 Cycle  14  Pass 1  IDiag  1:
 E= -287.658297654651     Delta-E=       -0.000000000002 Rises=F Damp=F
 DIIS: error= 5.22D-08 at cycle   7 NSaved=   7.
 NSaved= 7 IEnMin= 7 EnMin= -287.658297654651     IErMin= 7 ErrMin= 5.22D-08
 ErrMax= 5.22D-08  0.00D+00 EMaxC= 1.00D+00 BMatC= 1.59D-12 BMatP= 2.04D-11
 IDIUse=1 WtCom= 1.00D+00 WtEn= 0.00D+00
 Coeff-Com:  0.162D-03-0.465D-02-0.935D-02-0.824D-02 0.375D-01 0.230D+00
 Coeff-Com:  0.755D+00
 Coeff:      0.162D-03-0.465D-02-0.935D-02-0.824D-02 0.375D-01 0.230D+00
 Coeff:      0.755D+00
 Gap=     0.143 Goal=   None    Shift=    0.000
 RMSDP=1.42D-08 MaxDP=3.80D-07 DE=-2.39D-12 OVMax= 1.74D-06

 Cycle  15  Pass 1  IDiag  1:
 E= -287.658297654653     Delta-E=       -0.000000000002 Rises=F Damp=F
 DIIS: error= 2.08D-08 at cycle   8 NSaved=   8.
 NSaved= 8 IEnMin= 8 EnMin= -287.658297654653     IErMin= 8 ErrMin= 2.08D-08
 ErrMax= 2.08D-08  0.00D+00 EMaxC= 1.00D+00 BMatC= 1.32D-13 BMatP= 1.59D-12
 IDIUse=1 WtCom= 1.00D+00 WtEn= 0.00D+00
 Coeff-Com:  0.358D-03-0.367D-02-0.822D-02-0.114D-01-0.214D-01 0.584D-02
 Coeff-Com:  0.212D+00 0.826D+00
 Coeff:      0.358D-03-0.367D-02-0.822D-02-0.114D-01-0.214D-01 0.584D-02
 Coeff:      0.212D+00 0.826D+00
 Gap=     0.143 Goal=   None    Shift=    0.000
 RMSDP=6.61D-09 MaxDP=1.58D-07 DE=-2.05D-12 OVMax= 8.31D-07

 SCF Done:  E(RB3LYP) =  -287.658297655     A.U. after   15 cycles
            NFock= 15  Conv=0.66D-08     -V/T= 2.0046
 KE= 2.863446434459D+02 PE=-1.166799802523D+03 EE= 3.444934935562D+02
 Leave Link  502 at Tue Aug 30 12:28:44 2022, MaxMem= 24159191040 cpu:        96.3
 (Enter /public/home/users/caep010/software/Gaussian09/g09/l701.exe)
 Compute integral first derivatives.
 ... and contract with generalized density number  0.
 Leave Link  701 at Tue Aug 30 12:28:44 2022, MaxMem= 24159191040 cpu:        14.5
 (Enter /public/home/users/caep010/software/Gaussian09/g09/l702.exe)
 L702 exits ... SP integral derivatives will be done elsewhere.
 Leave Link  702 at Tue Aug 30 12:28:44 2022, MaxMem= 24159191040 cpu:         0.5
 (Enter /public/home/users/caep010/software/Gaussian09/g09/l703.exe)
 Compute integral first derivatives, UseDBF=F ICtDFT=           0.
 Integral derivatives from FoFJK, PRISM(SPDF).
 Calling FoFJK, ICntrl=      2127 FMM=F ISym2X=0 I1Cent= 0 IOpClX= 0 NMat=1 NMatS=1 NMatT=0.
 FoFJK:  IHMeth= 1 ICntrl=    2127 DoSepK=F KAlg= 0 I1Cent=   0 FoldK=F
 IRaf=         0 NMat=   1 IRICut=       1 DoRegI=T DoRafI=F ISym2E= 0.
 FoFCou: FMM=F IPFlag=           0 FMFlag=      100000 FMFlg1=         800
         NFxFlg=           0 DoJE=F BraDBF=F KetDBF=F FulRan=T
         wScrn=  0.000000 ICntrl=    2127 IOpCl=  0 I1Cent=           0 NGrid=           0
         NMat0=    1 NMatS0=      1 NMatT0=    0 NMatD0=    1 NMtDS0=    0 NMtDT0=    0
 Symmetry not used in FoFCou.
 Leave Link  703 at Tue Aug 30 12:28:46 2022, MaxMem= 24159191040 cpu:        47.7
 (Enter /public/home/users/caep010/software/Gaussian09/g09/l716.exe)
 Dipole        =-3.75937323D-02 4.93905554D-02 1.61530720D-01
 ***** Axes restored to original set *****
 -------------------------------------------------------------------
 Center     Atomic                   Forces (Hartrees/Bohr)
 Number     Number              X              Y              Z
 -------------------------------------------------------------------
      1        6          -0.006638734    0.010945660   -0.004866248
      2        6           0.007949692   -0.024887197    0.005342190
      3        6          -0.005091900   -0.022593461   -0.021106303
      4        6           0.014792854    0.023109979    0.002056723
      5        7           0.486559186   -0.349973764   -0.003463642
      6        8          -0.495815243    0.344869944    0.005658174
      7        1          -0.001041297    0.005016403   -0.001000795
      8        1           0.001680601    0.000189875    0.004817327
      9        1          -0.003630429   -0.001983868   -0.004191656
     10        1          -0.020824329    0.011220253    0.011393532
     11        1          -0.009040228    0.003176214   -0.004472291
     12        1           0.024356480    0.012316534    0.003725629
     13        1          -0.009883314    0.007411580    0.009299858
     14        1           0.016293698   -0.005807055   -0.011486859
     15        1           0.000332962   -0.013011096    0.008294361
 -------------------------------------------------------------------
 Cartesian Forces:  Max     0.495815243 RMS     0.127299091
 Leave Link  716 at Tue Aug 30 12:28:46 2022, MaxMem= 24159191040 cpu:         0.6
 (Enter /public/home/users/caep010/software/Gaussian09/g09/l103.exe)

 GradGradGradGradGradGradGradGradGradGradGradGradGradGradGradGradGradGrad
 Berny optimization.
 Using GEDIIS/GDIIS optimizer.
 FormGI is forming the generalized inverse of G from B-inverse, IUseBI=4.
 Internal  Forces:  Max     0.603809491 RMS     0.073164102
 Search for a local minimum.
 Step number   2 out of a maximum of   79
 All quantities printed in internal units (Hartrees-Bohrs-Radians)
 RMS Force = .73164D-01 SwitMx=.10000D-02 MixMth= 1
 Mixed Optimization -- RFO/linear search
 Update second derivatives using D2CorX and points    1    2
 DE= -1.38D-01 DEPred=-1.42D-01 R= 9.67D-01
 TightC=F SS=  1.41D+00  RLast= 3.01D-01 DXNew= 5.0454D-01 9.0378D-01
 Trust test= 9.67D-01 RLast= 3.01D-01 DXMaxT set to 5.05D-01
 ITU=  1  0
 Use linear search instead of GDIIS.
     Eigenvalues ---    0.00230   0.00230   0.00230   0.00230   0.03732
     Eigenvalues ---    0.05124   0.05296   0.05323   0.05512   0.05585
     Eigenvalues ---    0.05623   0.05870   0.06903   0.15173   0.15913
     Eigenvalues ---    0.16000   0.16000   0.16000   0.16000   0.16000
     Eigenvalues ---    0.16000   0.16000   0.16003   0.16107   0.16896
     Eigenvalues ---    0.24169   0.26910   0.27854   0.29249   0.30902
     Eigenvalues ---    0.32643   0.32829   0.32857   0.33077   0.37561
     Eigenvalues ---    0.39227   0.41265   0.45976   3.30346
 RFO step:  Lambda=-6.67659810D-02 EMin= 2.29994380D-03
 Quartic linear search produced a step of  1.68164.
 Iteration  1 RMS(Cart)=  0.10991152 RMS(Int)=  0.03042484
 Iteration  2 RMS(Cart)=  0.04716883 RMS(Int)=  0.00699449
 Iteration  3 RMS(Cart)=  0.00983378 RMS(Int)=  0.00197147
 Iteration  4 RMS(Cart)=  0.00024348 RMS(Int)=  0.00196094
 Iteration  5 RMS(Cart)=  0.00000011 RMS(Int)=  0.00196094
 ITry= 1 IFail=0 DXMaxC= 5.11D-01 DCOld= 1.00D+10 DXMaxT= 5.05D-01 DXLimC= 3.00D+00 Rises=F
 Variable       Old X    -DE/DX   Delta X   Delta X   Delta X     New X
                                 (Linear)    (Quad)   (Total)
    R1        2.92730  -0.01541  -0.02862  -0.10451  -0.13313   2.79417
    R2        2.08834  -0.00480  -0.00848  -0.02610  -0.03458   2.05376
    R3        2.08571  -0.00444  -0.01209  -0.02105  -0.03314   2.05257
    R4        2.08681  -0.00554  -0.01632  -0.02562  -0.04194   2.04487
    R5        2.91089  -0.00808  -0.02237  -0.04828  -0.07065   2.84024
    R6        2.96491  -0.02530  -0.07625  -0.17714  -0.25339   2.71152
    R7        3.42154  -0.00731   0.11660  -0.10315   0.01345   3.43499
    R8        2.00955   0.02354   0.06738   0.07395   0.14133   2.15088
    R9        2.08364  -0.00318  -0.00914  -0.01456  -0.02369   2.05995
   R10        2.00528   0.02579   0.07311   0.07937   0.15248   2.15776
   R11        2.10776  -0.01220  -0.03391  -0.06282  -0.09673   2.01103
   R12        2.12844  -0.01801  -0.05235  -0.09850  -0.15086   1.97759
   R13        2.03435   0.01416   0.03715   0.05439   0.09154   2.12589
   R14        1.88161   0.60381   0.20877  -0.01581   0.19297   2.07458
    A1        1.96622  -0.00357   0.00848  -0.04055  -0.03190   1.93432
    A2        1.92738   0.00334   0.00643   0.03811   0.04462   1.97201
    A3        1.92218   0.00130  -0.00388   0.01309   0.00917   1.93135
    A4        1.87109   0.00034  -0.00450   0.01008   0.00586   1.87695
    A5        1.87292   0.00105  -0.00135   0.01246   0.01115   1.88407
    A6        1.90187  -0.00259  -0.00577  -0.03469  -0.04059   1.86128
    A7        1.93351   0.00523   0.01118   0.08461   0.09622   2.02973
    A8        1.96377   0.00098  -0.00838   0.01658   0.00814   1.97191
    A9        1.93036  -0.00309   0.01484  -0.03648  -0.02243   1.90792
   A10        1.98106  -0.00404  -0.00335  -0.04485  -0.04995   1.93111
   A11        1.78497   0.00056  -0.00420   0.00596   0.00008   1.78505
   A12        1.86024  -0.00006  -0.00955  -0.03404  -0.04440   1.81583
   A13        1.84947   0.01440   0.04896   0.15568   0.21102   2.06050
   A14        1.96397  -0.00248  -0.01009  -0.03726  -0.04728   1.91669
   A15        2.00956  -0.01329  -0.04450  -0.13327  -0.17419   1.83538
   A16        1.96960  -0.00928  -0.03269  -0.13230  -0.16170   1.80790
   A17        1.87924  -0.00006   0.00176   0.02069   0.03173   1.91097
   A18        1.79391   0.00938   0.03164   0.11216   0.13939   1.93330
   A19        1.88217   0.00810   0.02425   0.07981   0.10592   1.98809
   A20        1.94735  -0.00070   0.00058  -0.02182  -0.02059   1.92676
   A21        1.97492  -0.00816  -0.03192  -0.06599  -0.09654   1.87837
   A22        2.00096  -0.00841  -0.02803  -0.13831  -0.16513   1.83583
   A23        1.84523   0.00212   0.01063   0.05164   0.06473   1.90996
   A24        1.81245   0.00635   0.02176   0.09080   0.11252   1.92497
   A25        1.90556   0.02778   0.40522   0.01317   0.41839   2.32395
    D1        1.13297  -0.00105  -0.00539  -0.01547  -0.01976   1.11320
    D2       -1.10546  -0.00071  -0.00335  -0.03824  -0.04238  -1.14784
    D3        3.09954   0.00083   0.00410   0.01890   0.02287   3.12241
    D4       -3.05867  -0.00068  -0.00105  -0.00328  -0.00340  -3.06207
    D5        0.98609  -0.00034   0.00098  -0.02605  -0.02601   0.96008
    D6       -1.09210   0.00120   0.00843   0.03109   0.03923  -1.05286
    D7       -0.95732  -0.00092  -0.00661  -0.01352  -0.01905  -0.97637
    D8        3.08744  -0.00057  -0.00458  -0.03629  -0.04167   3.04577
    D9        1.00925   0.00096   0.00287   0.02085   0.02358   1.03283
   D10        3.05736   0.00051   0.01548   0.01896   0.03370   3.09105
   D11       -1.06554  -0.00267   0.00233  -0.06189  -0.06083  -1.12636
   D12        0.98241  -0.00163   0.00447  -0.03687  -0.02799   0.95442
   D13       -0.99681   0.00296   0.01078   0.07629   0.08511  -0.91170
   D14        1.16348  -0.00022  -0.00237  -0.00456  -0.00941   1.15407
   D15       -3.07175   0.00083  -0.00023   0.02047   0.02342  -3.04833
   D16        0.99988   0.00145  -0.00438   0.02018   0.01390   1.01377
   D17       -3.12302  -0.00173  -0.01752  -0.06066  -0.08063   3.07954
   D18       -1.07507  -0.00068  -0.01538  -0.03564  -0.04779  -1.12286
[...]
    11  H    0.000911  -0.000015   0.000558  -0.019744   0.483581  -0.019515
    12  H    0.000558  -0.000157   0.000586  -0.016901  -0.019515   0.464113
    13  H    0.000295   0.001481  -0.000147  -0.000032  -0.000114  -0.000517
    14  H   -0.000114  -0.000031  -0.000517   0.001480   0.000295  -0.000147
    15  H   -0.000125   0.000582  -0.000016   0.000582  -0.000126  -0.000016
              13         14         15
     1  C   -0.004825   0.008624  -0.007752
     2  C   -0.017501  -0.017490  -0.020585
     3  C    0.008625  -0.004819  -0.007758
     4  C    0.399456   0.399448   0.414722
     5  N   -0.006033  -0.006038   0.002862
     6  O   -0.003620  -0.003623   0.001338
     7  H    0.000295  -0.000114  -0.000125
     8  H    0.001481  -0.000031   0.000582
     9  H   -0.000147  -0.000517  -0.000016
    10  H   -0.000032   0.001480   0.000582
    11  H   -0.000114   0.000295  -0.000126
    12  H   -0.000517  -0.000147  -0.000016
    13  H    0.478214  -0.013228  -0.021822
    14  H   -0.013228   0.478202  -0.021822
    15  H   -0.021822  -0.021822   0.481455
 Mulliken charges:
               1
     1  C   -0.554232
     2  C    0.310770
     3  C   -0.554206
     4  C   -0.573053
     5  N    0.034368
     6  O   -0.293177
     7  H    0.176442
     8  H    0.178783
     9  H    0.190529
    10  H    0.178793
    11  H    0.176444
    12  H    0.190510
    13  H    0.179767
    14  H    0.179781
    15  H    0.178481
 Sum of Mulliken charges =  -0.00000
 Mulliken charges with hydrogens summed into heavy atoms:
               1
     1  C   -0.008478
     2  C    0.310770
     3  C   -0.008459
     4  C   -0.035024
     5  N    0.034368
     6  O   -0.293177
 Electronic spatial extent (au):  <R**2>=            581.7946
 Charge=             -0.0000 electrons
 Dipole moment (field-independent basis, Debye):
    X=             -2.6643    Y=             -0.0042    Z=              0.8752  Tot=              2.8043
 Quadrupole moment (field-independent basis, Debye-Ang):
   XX=            -42.0717   YY=            -36.5019   ZZ=            -39.1624
   XY=             -0.0061   XZ=              1.2925   YZ=              0.0126
 Traceless Quadrupole moment (field-independent basis, Debye-Ang):
   XX=             -2.8264   YY=              2.7435   ZZ=              0.0830
   XY=             -0.0061   XZ=              1.2925   YZ=              0.0126
 Octapole moment (field-independent basis, Debye-Ang**2):
  XXX=             -4.2017  YYY=              0.0033  ZZZ=              0.1191  XYY=              4.8219
  XXY=             -0.0125  XXZ=              2.4755  XZZ=              0.2646  YZZ=             -0.0023
  YYZ=             -0.1855  XYZ=              0.0218
 Hexadecapole moment (field-independent basis, Debye-Ang**3):
 XXXX=           -346.0056 YYYY=           -214.4126 ZZZZ=           -222.4022 XXXY=              0.0109
 XXXZ=             -2.2150 YYYX=             -0.0071 YYYZ=              0.0170 ZZZX=              3.1120
 ZZZY=              0.0237 XXYY=            -90.8017 XXZZ=            -91.3401 YYZZ=            -72.5226
 XXYZ=              0.0015 YYXZ=              0.4540 ZZXY=             -0.0092
 N-N= 2.504400568737D+02 E-N=-1.170229862527D+03  KE= 2.856636915848D+02
 No NMR shielding tensors so no spin-rotation constants.
 Leave Link  601 at Tue Aug 30 12:51:11 2022, MaxMem= 24159191040 cpu:        29.0
 (Enter /public/home/users/caep010/software/Gaussian09/g09/l9999.exe)
 1\1\GINC-B0874\SP\RHF\GFHFB2\C4H9N1O1\ROOT\30-Aug-2022\0\\#P Geom=AllC
 heck Guess=TCheck SCRF=Check HF/GFHFB2 SCF=Tight\\Frag_804\\0,1\C,0,1.
 279199047,-0.7318025199,-0.3357695759\C,0,0.0679188122,0.170633929,-0.
 0470351337\C,0,-0.1356385569,0.3291217874,1.4690392424\C,0,-1.19428657
 38,-0.3022835247,-0.7584677023\N,0,0.5205902036,1.5472412109,-0.501385
 7479\O,0,-0.1703630163,2.0570302437,-1.3424668836\H,0,1.1160884758,-1.
 724083936,0.0953617691\H,0,1.4348610881,-0.8472376461,-1.4127613458\H,
 0,2.1896728016,-0.3099918488,0.099123009\H,0,-0.9930269643,0.973982911
 ,1.6846842201\H,0,-0.3187575091,-0.648537242,1.9247992474\H,0,0.750304
 7948,0.7689798068,1.935572946\H,0,-1.0410344276,-0.3592621128,-1.83933
 35493\H,0,-2.0283919323,0.3813138658,-0.5797114942\H,0,-1.4772362427,-
 1.2951039244,-0.3965490012\\Version=ES64L-G09RevE.01\State=1-A\HF=-286
 .0665289\RMSD=8.233e-09\Dipole=-0.0787783,-0.9745996,0.5111154\Quadrup
 ole=0.8978493,-1.59091,0.6930607,-0.6607657,-0.5064753,1.6160268\PG=C0
 1 [X(C4H9N1O1)]\\@


 IBM COMPATIBILITY IS LIKE PREGNANCY. YOU ARE OR
 OR YOU ARE NOT. -- ADAM OSBORNE
 Diagonal vibrational polarizability:
        0.0000000       0.0000000       0.0000000

 Temperature=              298.150000 Pressure=                      1.000000
 E(ZPE)=                     0.125520 E(Thermal)=                    0.133264
 E(CCSD(T))=              -286.892776 E(Empiric)=                   -0.125046
 DE(Plus)=                  -0.019096 DE(2DF)=                      -0.246045
 E(Delta-G3XP)=             -0.380324 DE(HF)=                       -0.028838
 G4(0 K)=                 -287.566605 G4 Energy=                  -287.558861
 G4 Enthalpy=             -287.557917 G4 Free Energy=             -287.597696
 1\1\GINC-B0874\Mixed\G4\G4\C4H9N1O1\ROOT\30-Aug-2022\0\\#P Geom=AllChe
 ck Guess=TCheck SCRF=Check HF/GFHFB2 SCF=Tight\\Frag_804\\0,1\C,0,1.27
 9199047,-0.7318025199,-0.3357695759\C,0,0.0679188122,0.170633929,-0.04
 70351337\C,0,-0.1356385569,0.3291217874,1.4690392424\C,0,-1.1942865738
 ,-0.3022835247,-0.7584677023\N,0,0.5205902036,1.5472412109,-0.50138574
 79\O,0,-0.1703630163,2.0570302437,-1.3424668836\H,0,1.1160884758,-1.72
 4083936,0.0953617691\H,0,1.4348610881,-0.8472376461,-1.4127613458\H,0,
 2.1896728016,-0.3099918488,0.099123009\H,0,-0.9930269643,0.973982911,1
 .6846842201\H,0,-0.3187575091,-0.648537242,1.9247992474\H,0,0.75030479
 48,0.7689798068,1.935572946\H,0,-1.0410344276,-0.3592621128,-1.8393335
 493\H,0,-2.0283919323,0.3813138658,-0.5797114942\H,0,-1.4772362427,-1.
 2951039244,-0.3965490012\\Version=ES64L-G09RevE.01\State=1-A\MP2/GTBas
 1=-286.8078808\MP4/GTBas1=-286.8943367\CCSD(T)/G3Bas1=-286.8927763\MP2
 /GTBas2=-286.8255388\MP4/GTBas2=-286.913433\MP2/GTBas3=-287.039277\MP4
 /GTBas3=-287.1403816\HF/GTLargeXP=-286.0388404\MP2/GTLargeXP=-287.4372
 586\HF/GFHFB1=-286.0618106\HF/GFHFB2=-286.0665289\G4=-287.566605\FreqC
 oord=2.4173358682,-1.382906346,-0.6345125423,0.1283479543,0.3224513947
 ,-0.0888835214,-0.2563197256,0.6219500426,2.7760818467,-2.2568745486,-
 0.5712330761,-1.4332962379,0.9837729123,2.9238621501,-0.9474817505,-0.
 321939444,3.8872238077,-2.5368947525,2.1091015594,-3.2580464692,0.1802
 076271,2.7114944952,-1.6010471206,-2.6697320348,4.1378819156,-0.585799
 6977,0.1873153405,-1.8765490051,1.84056096,3.1835917965,-0.602364395,-
 1.2255577743,3.6373434383,1.4178705783,1.4531612366,3.6577027782,-1.96
 7269963,-0.678907003,-3.4758366752,-3.8331052422,0.720578777,-1.095495
 9601,-2.7915719323,-2.4473917307,-0.7493690106\PG=C01 [X(C4H9N1O1)]\NI
 mag=0\\0.49172639,0.05895095,0.52996986,0.02057528,-0.00984620,0.57028
 610,-0.13273760,0.04760465,0.00992286,0.49481765,0.03009355,-0.1039305
 8,-0.01036483,-0.00144426,0.38213751,0.01219682,-0.02060916,-0.0705448
 7,0.05056857,0.02778434,0.45463961,-0.00815285,0.00533912,0.02938549,-
 0.07800170,-0.00182588,0.01348074,0.57597365,0.00815328,-0.00187966,-0
 .02520122,-0.00831366,-0.06884991,-0.00256387,0.00204267,0.56802475,0.
 00629246,-0.00429578,-0.01330884,0.00926256,-0.02147730,-0.16033454,0.
 01475666,-0.01347747,0.44798037,-0.02899002,-0.00606371,-0.01179439,-0
 .14854555,-0.02051651,-0.04198677,0.00307486,0.00056344,-0.00179860,0.
 49999686,0.01807345,0.00840992,0.00906379,-0.02052932,-0.08385570,-0.0
 1359539,-0.00168322,0.00022285,-0.00390667,-0.03017755,0.56357563,0.00
 286269,0.00149588,0.00287092,-0.04198365,-0.01358109,-0.10451173,-0.02
 933115,-0.01350143,-0.02101429,-0.04301642,-0.01540200,0.55291507,0.00
 393412,0.02511494,-0.00803330,-0.10511716,-0.04405822,-0.02609096,0.00
 018895,-0.00207251,0.00186170,-0.00907894,-0.03817471,0.00961695,0.425
 97333,0.01508455,-0.02962920,0.00601064,-0.06390367,-0.06546916,-0.034
 41226,0.00149675,0.00305785,0.01950365,-0.01806916,-0.02705399,0.00602
 147,-0.07293888,0.28981001,-0.00996789,0.00274058,0.00191063,-0.014418
 09,-0.01884370,-0.03903208,0.00759226,0.02782073,-0.02701634,-0.002203
 55,-0.00974300,0.01127770,0.33752997,-0.19812068,0.43091509,0.00331619
 ,-0.00295614,0.00020312,0.02179165,0.02518669,-0.00471603,-0.00009690,
 0.00234316,0.00566873,-0.00306673,0.00021708,0.00141493,-0.30694299,0.
 14239394,-0.31867249,0.28011470,-0.00469170,-0.00513094,0.00380406,0.0
 3757015,-0.03730007,0.05660555,-0.00104102,-0.00992288,-0.00168960,0.0
 0365590,0.00224694,-0.00141574,0.12496244,-0.17517904,0.19672744,-0.16
 283385,0.22562053,0.00821062,0.00198634,-0.00432842,-0.01199865,0.0468
 9668,-0.02805171,0.00066734,0.00414315,0.00387715,-0.00060412,-0.00410
 387,-0.00309483,-0.30843004,0.21038638,-0.37242782,0.31298394,-0.25853
 677,0.40006791,-0.05015251,-0.03928428,0.01640336,0.00133162,0.0284448
 6,-0.00809971,0.00122055,-0.00108146,-0.00125521,0.00123717,-0.0001028
 7,0.00000236,-0.00314183,-0.00250362,0.00174593,-0.00044270,0.00269445
 ,-0.00245863,0.05507152,-0.03902474,-0.26188353,0.09555359,-0.00351973
 ,-0.01987597,0.00595335,-0.00121764,0.00110361,0.00092180,-0.00080668,
 0.00023649,0.00002351,0.00411626,0.00100621,-0.00128085,-0.00010345,-0
 .00136115,0.00140502,0.04008286,0.28567412,0.01684981,0.09623291,-0.08
 794492,-0.00061391,-0.00666908,0.00110726,-0.00053047,-0.00086758,0.00
 092902,-0.00005185,0.00027620,-0.00025977,0.00098402,-0.00056685,-0.00
 119858,0.00012105,-0.00068126,0.00148145,-0.01981205,-0.10430124,0.091
 96312,-0.05184560,0.00263730,0.03252027,-0.00363979,0.00251847,0.02465
 538,-0.00415187,0.00372324,0.00022415,0.00141765,-0.00049561,0.0012888
 8,0.00032910,-0.00177926,0.00166987,-0.00039618,0.00025438,-0.00084855
 ,-0.00142517,0.00056125,0.00507152,0.05501964,0.00309170,-0.04947300,-
 0.02439076,0.00198179,-0.00430823,-0.01905396,0.00316263,-0.00264627,-
 0.00008808,-0.00108211,0.00036175,-0.00004354,-0.00053269,0.00199850,-
 0.00218148,0.00055458,-0.00001085,0.00087673,-0.00342088,0.00402999,0.
 02932567,-0.00647163,0.05087271,0.03407319,-0.02517468,-0.30393382,0.0
 0012939,-0.00144098,-0.00535620,0.00127107,-0.00095214,0.00078372,-0.0
 0067372,0.00021502,0.00048989,-0.00015992,0.00149729,-0.00074269,0.000
 80882,-0.00098809,0.00116706,0.00080074,-0.00192306,-0.01162176,-0.038
 44551,0.02879609,0.32956949,-0.22756206,-0.08588647,-0.08733223,-0.022
 31361,-0.00946156,-0.01071076,0.00070195,-0.00110718,-0.00115401,-0.00
 294954,0.00456664,0.00209239,0.00114654,-0.00292256,-0.00032982,-0.000
 05085,0.00056101,0.00034528,-0.00343272,-0.00110408,-0.00165239,0.0046
 8977,0.00215657,0.00208302,0.25005034,-0.08750319,-0.08736472,-0.04372
 346,0.01586963,0.00836201,0.00882290,-0.00014007,0.00042680,0.00062806
 ,0.00245446,-0.00292228,-0.00079787,0.00136859,0.00082620,0.00169336,-
 0.00088598,-0.00012918,-0.00120575,-0.02370423,-0.01036867,-0.01293254
 ,-0.00158516,-0.00170787,-0.00013932,0.09304470,0.09231127,-0.08825233
 ,-0.04266200,-0.09061261,0.00498376,0.00424204,0.00096099,0.00064261,0
 .00040585,0.00088807,0.00069456,-0.00052249,0.00007690,-0.00018215,-0.
 00122213,-0.00057517,0.00004230,0.00038698,0.00018387,0.01203748,0.004
 91148,0.00516571,-0.02670119,-0.01262366,-0.01148354,0.09635479,0.0476
 1679,0.09447473,0.00060146,-0.00035099,0.00112182,-0.00441004,0.000832
 30,0.00117027,-0.21025983,0.12240836,0.03785161,0.00056145,-0.00065061
 ,-0.00051856,-0.00020303,0.00143233,-0.00106806,0.00077753,-0.00071392
 ,0.00100669,0.00001129,0.00004908,-0.00016172,0.00009257,0.00041440,0.
 00007154,0.00041462,-0.00007553,-0.00015363,0.22609358,-0.00030033,0.0
 0033261,-0.00088799,0.00144285,-0.00220021,-0.00000949,0.12211351,-0.1
 3946161,-0.02855685,0.00030509,-0.00008013,0.00036680,-0.00038815,-0.0
 0022200,0.00019656,-0.00021021,0.00062983,-0.00066308,-0.00025886,0.00
 050209,0.00013223,0.00042394,0.00034442,-0.00006378,0.00020918,-0.0000
 3699,0.00006525,-0.13508916,0.14758426,0.00037238,0.00037158,-0.006949
 10,0.02565191,-0.01769635,-0.00668794,0.03620715,-0.02789523,-0.055526
 20,0.00121578,-0.00018264,0.00178837,0.00109893,-0.00303668,0.00200351
 ,-0.00112502,0.00057200,-0.00064363,-0.00033738,0.00001262,0.00005659,
 0.00177987,-0.00133194,-0.00026642,0.00003454,0.00018162,0.00000290,-0
 .04266244,0.03225132,0.06179486,0.00009373,-0.00105161,-0.00010193,-0.
 00200489,-0.00381925,0.00111786,-0.05286429,-0.03900699,0.01804291,-0.
 00000292,0.00032696,-0.00014202,-0.00057856,0.00068418,0.00180551,0.00
 061412,-0.00072774,-0.00000495,0.00009393,0.00041178,0.00021820,0.0000
 1792,0.00015600,-0.00022711,-0.00006096,-0.00013535,0.00005927,0.00482
 384,0.02329563,-0.01120384,0.05348605,-0.00006261,0.00085056,-0.000334
 88,0.00114788,0.00268477,-0.00371870,-0.03981193,-0.26020223,0.0977274
 0,0.00014246,-0.00009824,0.00010505,0.00070444,-0.00026617,0.00057531,
 -0.00066470,0.00103190,-0.00073154,-0.00037211,0.00027639,0.00022629,-
 0.00003915,0.00025380,0.00003663,0.00006118,-0.00003872,0.00004629,-0.
 00418134,-0.01598959,0.00714873,0.04355650,0.28160693,-0.00132799,0.00
 077245,0.00230783,0.00949943,0.03007179,-0.01812602,0.01793477,0.09749
 267,-0.08692153,0.00043592,0.00054978,0.00131617,-0.00133320,-0.005345
 63,-0.00248807,-0.00097805,0.00349718,-0.00196804,0.00067579,-0.001111
 25,0.00012532,-0.00046914,-0.00017186,0.00029795,0.00009349,-0.0000793
 1,0.00000037,-0.00167450,-0.00568939,0.00213974,-0.02104641,-0.1060707
 1,0.09764299,0.00077845,0.00006334,0.00048917,0.00369601,0.00337150,0.
 00021043,-0.22427929,-0.08644931,-0.09042519,0.00055875,-0.00005072,0.
 00053233,-0.00027369,-0.00077984,0.00174153,-0.00016706,0.00028222,-0.
 00058925,0.00000235,0.00001067,-0.00005564,0.00013237,0.00001116,-0.00
 007273,0.00018611,-0.00001239,0.00018597,-0.01911460,-0.01100904,-0.01
 005254,-0.00374131,-0.00065904,-0.00138003,0.24162205,-0.00082362,0.00
 001944,0.00018957,-0.00185462,-0.00258792,-0.00161709,-0.08677671,-0.0
 8917520,-0.04542613,0.00052402,0.00001468,-0.00052253,0.00155065,-0.00
 011785,0.00126042,-0.00083906,0.00011046,-0.00045100,-0.00007414,-0.00
 008098,-0.00010436,0.00021088,0.00005521,0.00016694,0.00046111,0.00013
 679,-0.00034514,0.01616346,0.00825929,0.00911521,-0.02360118,-0.010598
 59,-0.01299479,0.09548415,0.09319629,-0.00136512,0.00034487,0.00122449
 ,-0.02730109,-0.01278327,-0.01408885,-0.08835986,-0.04496305,-0.092112
 56,0.00283287,0.00040820,-0.00636851,-0.00229516,-0.00101025,0.0017926
 6,0.00122136,-0.00003062,0.00005952,0.00014358,-0.00001250,-0.00001958
 ,0.00016492,0.00034958,0.00019324,0.00091105,-0.00028311,-0.00007973,0
 .00495653,0.00321944,0.00235519,0.01171112,0.00486309,0.00571018,0.098
 86727,0.05062477,0.10201790,0.00163791,-0.00034641,-0.00100694,0.00467
 838,-0.00020619,-0.02811035,-0.00475425,-0.00218048,-0.00149443,-0.053
 60867,0.00251864,0.04059001,0.00035870,0.00172548,0.00049479,0.0000073
 8,-0.00162909,0.00015484,-0.00011079,0.00003816,0.00005676,-0.00044911
 ,0.00017872,0.00040415,0.00023256,-0.00011719,0.00027612,0.00007210,-0
 .00025943,-0.00003842,-0.00008151,0.00015248,0.00019820,0.00035895,-0.
 00038019,-0.00180086,0.05738762,0.00001445,0.00006628,0.00046010,0.002
 83988,-0.00231996,-0.01010921,-0.00194491,-0.00110391,-0.00065219,0.00
 147069,-0.04497895,-0.01299693,0.00026139,0.00147691,-0.00084057,0.000
 25213,-0.00060783,0.00065231,0.00005415,-0.00000957,0.00012306,0.00012
 538,0.00031174,0.00004815,0.00001565,-0.00008542,-0.00003205,-0.000166
 04,0.00015666,0.00036900,-0.00002717,0.00020857,-0.00018419,-0.0002156
 1,0.00038059,-0.00078286,-0.00099463,0.04536817,0.00118921,-0.00006295
 ,0.00025348,0.00172769,-0.00168571,-0.01544635,-0.00362326,-0.00135875
 ,-0.00011921,0.03922588,-0.01391625,-0.30571926,-0.00035889,0.00192201
 ,-0.00168225,0.00158998,0.00056616,0.00213174,-0.00004450,-0.00005012,
 0.00001065,-0.00063725,0.00032948,0.00062052,-0.00005984,-0.00009470,0
 .00041059,0.00003307,0.00011141,0.00029832,0.00011353,0.00012277,0.000
 33433,0.00016569,0.00000643,-0.00104113,-0.04150407,0.01481279,0.33386
 139,-0.00398844,-0.00361757,-0.00299654,-0.02158039,0.01702511,0.00564
 133,0.00055127,0.00061616,0.00134374,-0.19856316,0.12667718,0.03324003
 ,0.00009209,0.00278178,-0.00171690,0.00197160,-0.00087790,0.00133947,0
 .00034020,0.00003375,-0.00011917,0.00034016,-0.00020767,-0.00006771,-0
 .00141665,0.00122834,0.00014427,0.00052138,-0.00038347,-0.00079927,0.0
 0003622,-0.00009631,-0.00002566,0.00027503,-0.00033142,0.00012415,-0.0
 0347940,0.00272110,0.00066950,0.21759755,-0.00177033,-0.00058787,-0.00
 048056,-0.00754453,0.00733397,0.00296787,-0.00027657,0.00017292,0.0001
 0632,0.12820497,-0.15156550,-0.03042930,0.00105282,0.00023893,0.000060
 03,-0.00162706,-0.00087592,0.00028574,-0.00016490,0.00016324,-0.000174
 26,-0.00004262,-0.00012561,-0.00002310,-0.00057965,0.00044525,-0.00007
 952,0.00001098,0.00026555,0.00015539,0.00010350,-0.00002831,-0.0000186
 2,-0.00007698,0.00012064,0.00015917,0.00021209,-0.00139746,0.00037782,
 -0.13962210,0.16315028,-0.00209262,-0.00140717,-0.00140081,-0.01154309
 ,0.01142189,0.00118081,-0.00053922,0.00105038,0.00123444,0.03432257,-0
 .02989181,-0.05414970,0.00101563,-0.00020128,-0.00018266,-0.00076391,-
 0.00051137,0.00043527,0.00018835,-0.00018489,-0.00004271,-0.00029072,0
 .00003199,0.00031292,-0.00085575,0.00041930,0.00066903,0.00003816,-0.0
 0039811,-0.00031591,-0.00005087,-0.00001463,-0.00011921,0.00023247,-0.
 00008161,0.00016175,0.02417403,-0.02044854,-0.00478691,-0.03473815,0.0
 3325264,0.05584210,0.00134084,-0.00015312,0.00064395,-0.00796459,-0.02
 614062,0.01067316,0.00084975,0.00036130,0.00082294,-0.06204120,-0.0605
 1534,0.02335124,-0.00668663,-0.00270201,-0.00420307,0.00257025,0.00253
 466,0.00022600,-0.00060292,0.00047250,-0.00030414,-0.00013146,0.000007
 43,0.00000478,0.00036450,0.00019339,-0.00013183,0.00001768,0.00010844,
 -0.00014165,0.00016866,0.00012225,-0.00060262,-0.00003413,0.00028667,0
 .00018922,-0.00224985,-0.00440647,0.00151324,0.00730254,0.02212040,-0.
 00909689,0.06709656,0.00071457,0.00023084,0.00014815,-0.00134704,-0.00
 982056,0.00355512,0.00056329,0.00023289,0.00068282,-0.06060531,-0.2645
 1347,0.08067773,-0.00096635,-0.00047721,-0.00006416,-0.00082714,0.0008
 7820,-0.00094034,-0.00030895,0.00058775,-0.00001918,-0.00004140,0.0000
 4372,-0.00005497,-0.00001454,0.00014551,-0.00018770,-0.00008333,-0.000
 08418,-0.00003462,-0.00016526,0.00030894,-0.00071813,0.00002988,0.0002
 6715,-0.00010347,0.00128803,0.00253418,-0.00108039,-0.00594698,-0.0173
 1011,0.00696322,0.06771053,0.28697634,0.00038348,0.00011333,0.00016994
 ,-0.00388771,-0.01587444,0.00429164,0.00044587,-0.00013205,0.00066074,
 0.02340184,0.08075111,-0.07561692,-0.00522358,-0.00142568,-0.00255392,
 0.00220127,0.00169408,0.00111049,0.00000988,0.00008253,0.00024820,0.00
 001750,0.00017572,-0.00003038,0.00018024,-0.00010596,-0.00008212,-0.00
 001078,-0.00007432,-0.00005028,-0.00029126,0.00001892,-0.00025202,0.00
 015052,0.00017930,0.00019543,0.00760616,0.02958113,-0.00912590,-0.0020
 3911,-0.00615961,0.00116158,-0.02294433,-0.08882405,0.07987353\\-0.000
 00806,0.00000323,-0.00000343,-0.00000741,-0.00000122,-0.00000817,-0.00
 000648,-0.00001264,0.00001467,0.00000575,0.00000587,-0.00000320,0.0000
 1046,-0.00000256,0.00000662,0.00001371,0.00000729,0.00000914,-0.000002
 65,-0.00001015,0.00000052,-0.00000143,-0.00000341,-0.00000094,-0.00000
 260,-0.00000922,0.00000398,-0.00000058,-0.00000266,0.00000034,-0.00000
 907,-0.00000090,-0.00000805,0.00000205,-0.00000697,0.00000424,0.000003
 66,0.00001131,-0.00000511,0.00001109,0.00001345,0.00000037,-0.00000844
 ,0.00000857,-0.00001099\\\@
 Job cpu time:       0 days  3 hours 50 minutes 28.8 seconds.
 File lengths (MBytes):  RWF=   5336 Int=      0 D2E=      0 Chk=     39 Scr=      1
 Normal termination of Gaussian 09 at Tue Aug 30 12:51:12 2022.
