 Entering Gaussian System, Link 0=g09
 Input=G4.Frag_603.gjf
 Output=G4.Frag_603.log
 Initial command:
 /public/home/users/caep010/software/Gaussian09/g09/l1.exe "/public/home/users/caep010/.cache/gau_scr/Gau-155891.inp" -scrdir="/public/home/users/caep010/.cache/gau_scr/"
 Entering Link 1 = /public/home/users/caep010/software/Gaussian09/g09/l1.exe PID=    155892.
  
 Copyright (c) 1988,1990,1992,1993,1995,1998,2003,2009,2015,
            Gaussian, Inc.  All Rights Reserved.
  
 This is part of the Gaussian(R) 09 program.  It is based on
 the Gaussian(R) 03 system (copyright 2003, Gaussian, Inc.),
 the Gaussian(R) 98 system (copyright 1998, Gaussian, Inc.),
 the Gaussian(R) 94 system (copyright 1995, Gaussian, Inc.),
 the Gaussian 92(TM) system (copyright 1992, Gaussian, Inc.),
 the Gaussian 90(TM) system (copyright 1990, Gaussian, Inc.),
 the Gaussian 88(TM) system (copyright 1988, Gaussian, Inc.),
 the Gaussian 86(TM) system (copyright 1986, Carnegie Mellon
 University), and the Gaussian 82(TM) system (copyright 1983,
 Carnegie Mellon University). Gaussian is a federally registered
 trademark of Gaussian, Inc.
  
 This software contains proprietary and confidential information,
 including trade secrets, belonging to Gaussian, Inc.
  
 This software is provided under written license and may be
 used, copied, transmitted, or stored only in accord with that
 written license.
  
 The following legend is applicable only to US Government
 contracts under FAR:
  
                    RESTRICTED RIGHTS LEGEND
  
 Use, reproduction and disclosure by the US Government is
 subject to restrictions as set forth in subparagraphs (a)
 and (c) of the Commercial Computer Software - Restricted
 Rights clause in FAR 52.227-19.
  
 Gaussian, Inc.
 340 Quinnipiac St., Bldg. 40, Wallingford CT 06492
  
  
 ---------------------------------------------------------------
 Warning -- This program may not be used in any manner that
 competes with the business of Gaussian, Inc. or will provide
 assistance to any competitor of Gaussian, Inc.  The licensee
 of this program is prohibited from giving any competitor of
 Gaussian, Inc. access to this program.  By using this program,
 the user acknowledges that Gaussian, Inc. is engaged in the
 business of creating and licensing software in the field of
 computational chemistry and represents and warrants to the
 licensee that it is not a competitor of Gaussian, Inc. and that
 it will not use this program in any manner prohibited above.
 ---------------------------------------------------------------
  

 Cite this work as:
 Gaussian 09, Revision E.01,
 M. J. Frisch, G. W. Trucks, H. B. Schlegel, G. E. Scuseria, 
 M. A. Robb, J. R. Cheeseman, G. Scalmani, V. Barone, B. Mennucci, 
 G. A. Petersson, H. Nakatsuji, M. Caricato, X. Li, H. P. Hratchian, 
 A. F. Izmaylov, J. Bloino, G. Zheng, J. L. Sonnenberg, M. Hada, 
 M. Ehara, K. Toyota, R. Fukuda, J. Hasegawa, M. Ishida, T. Nakajima, 
 Y. Honda, O. Kitao, H. Nakai, T. Vreven, J. A. Montgomery, Jr., 
 J. E. Peralta, F. Ogliaro, M. Bearpark, J. J. Heyd, E. Brothers, 
 K. N. Kudin, V. N. Staroverov, T. Keith, R. Kobayashi, J. Normand, 
 K. Raghavachari, A. Rendell, J. C. Burant, S. S. Iyengar, J. Tomasi, 
 M. Cossi, N. Rega, J. M. Millam, M. Klene, J. E. Knox, J. B. Cross, 
 V. Bakken, C. Adamo, J. Jaramillo, R. Gomperts, R. E. Stratmann, 
 O. Yazyev, A. J. Austin, R. Cammi, C. Pomelli, J. W. Ochterski, 
 R. L. Martin, K. Morokuma, V. G. Zakrzewski, G. A. Voth, 
 P. Salvador, J. J. Dannenberg, S. Dapprich, A. D. Daniels, 
 O. Farkas, J. B. Foresman, J. V. Ortiz, J. Cioslowski, 
 and D. J. Fox, Gaussian, Inc., Wallingford CT, 2013.
 
 ******************************************
 Gaussian 09:  ES64L-G09RevE.01 30-Nov-2015
                21-Aug-2022 
 ******************************************
 %nproc=32
 Will use up to   32 processors via shared memory.
 %mem=180MB
 %chk=G4.Frag_603.chk
 -----
 #P G4
 -----
 1/14=-1,18=20,19=15,26=3,38=1/1,3;
 2/9=110,12=2,17=6,18=5,40=1/2;
 3/5=35,7=104,11=2,16=1,25=1,30=1,71=1,74=-5/1,2,3;
 4//1;
 5/5=2,38=5/2;
 6/7=2,8=2,9=2,10=2,28=1/1;
 7//1,2,3,16;
 1/14=-1,18=20,19=15,26=3/3(2);
 2/9=110/2;
 99//99;
 2/9=110/2;
 3/5=35,7=104,11=2,16=1,25=1,30=1,71=1,74=-5/1,2,3;
 4/5=5,16=3,69=1/1;
 5/5=2,38=5/2;
 7//1,2,3,16;
 1/14=-1,18=20,19=15,26=3/3(-5);
 2/9=110/2;
 6/7=2,8=2,9=2,10=2,19=2,28=1/1;
 99/9=1/99;
 Leave Link    1 at Sun Aug 21 07:45:38 2022, MaxMem=    23592960 cpu:         2.7
 (Enter /public/home/users/caep010/software/Gaussian09/g09/l101.exe)
 --------
 Frag_603
 --------
 Symbolic Z-matrix:
 Charge =  0 Multiplicity = 1
 C                     2.1567   -0.0976    0.0624 
 C                     0.923    -0.262    -0.7832 
 O                     1.0694   -0.603    -1.9484 
 C                    -0.4793    0.0022   -0.2387 
 C                    -0.6007    1.485     0.1589 
 C                    -0.7519   -0.8954    0.9875 
 N                    -1.4765   -0.2829   -1.2831 
 H                     1.918     0.2482    1.0875 
 H                     2.8304    0.6486   -0.4085 
 H                     2.6879   -1.0697    0.1331 
 H                    -0.3944    2.1359   -0.718 
 H                    -1.6269    1.7072    0.5231 
 H                     0.1117    1.7479    0.969 
 H                    -0.0788   -0.6448    1.8337 
 H                    -1.7982   -0.7648    1.3384 
 H                    -0.6035   -1.9649    0.7248 
 H                    -1.4495   -1.3017   -1.5226 
 H                    -2.4373   -0.0882   -0.9159 
 
 NAtoms=     18 NQM=       18 NQMF=       0 NMMI=      0 NMMIF=      0
                NMic=       0 NMicF=      0.
                    Isotopes and Nuclear Properties:
 (Nuclear quadrupole moments (NQMom) in fm**2, nuclear magnetic moments (NMagM)
  in nuclear magnetons)

  Atom         1           2           3           4           5           6           7           8           9          10
 IAtWgt=          12          12          16          12          12          12          14           1           1           1
 AtmWgt=  12.0000000  12.0000000  15.9949146  12.0000000  12.0000000  12.0000000  14.0030740   1.0078250   1.0078250   1.0078250
 NucSpn=           0           0           0           0           0           0           2           1           1           1
 AtZEff=   0.0000000   0.0000000   0.0000000   0.0000000   0.0000000   0.0000000   0.0000000   0.0000000   0.0000000   0.0000000
 NQMom=    0.0000000   0.0000000   0.0000000   0.0000000   0.0000000   0.0000000   2.0440000   0.0000000   0.0000000   0.0000000
 NMagM=    0.0000000   0.0000000   0.0000000   0.0000000   0.0000000   0.0000000   0.4037610   2.7928460   2.7928460   2.7928460
 AtZNuc=   6.0000000   6.0000000   8.0000000   6.0000000   6.0000000   6.0000000   7.0000000   1.0000000   1.0000000   1.0000000

  Atom        11          12          13          14          15          16          17          18
 IAtWgt=           1           1           1           1           1           1           1           1
 AtmWgt=   1.0078250   1.0078250   1.0078250   1.0078250   1.0078250   1.0078250   1.0078250   1.0078250
 NucSpn=           1           1           1           1           1           1           1           1
 AtZEff=   0.0000000   0.0000000   0.0000000   0.0000000   0.0000000   0.0000000   0.0000000   0.0000000
 NQMom=    0.0000000   0.0000000   0.0000000   0.0000000   0.0000000   0.0000000   0.0000000   0.0000000
 NMagM=    2.7928460   2.7928460   2.7928460   2.7928460   2.7928460   2.7928460   2.7928460   2.7928460
 AtZNuc=   1.0000000   1.0000000   1.0000000   1.0000000   1.0000000   1.0000000   1.0000000   1.0000000
 Leave Link  101 at Sun Aug 21 07:45:38 2022, MaxMem=    23592960 cpu:         2.2
 (Enter /public/home/users/caep010/software/Gaussian09/g09/l103.exe)

 GradGradGradGradGradGradGradGradGradGradGradGradGradGradGradGradGradGrad
 Berny optimization.
 Initialization pass.
                           ----------------------------
                           !    Initial Parameters    !
                           ! (Angstroms and Degrees)  !
 --------------------------                            --------------------------
 ! Name  Definition              Value          Derivative Info.                !
 --------------------------------------------------------------------------------
 ! R1    R(1,2)                  1.5047         estimate D2E/DX2                !
 ! R2    R(1,8)                  1.1079         estimate D2E/DX2                !
 ! R3    R(1,9)                  1.1101         estimate D2E/DX2                !
 ! R4    R(1,10)                 1.11           estimate D2E/DX2                !
 ! R5    R(2,3)                  1.2229         estimate D2E/DX2                !
 ! R6    R(2,4)                  1.5273         estimate D2E/DX2                !
 ! R7    R(4,5)                  1.54           estimate D2E/DX2                !
 ! R8    R(4,6)                  1.5439         estimate D2E/DX2                !
 ! R9    R(4,7)                  1.4719         estimate D2E/DX2                !
 ! R10   R(5,11)                 1.1114         estimate D2E/DX2                !
 ! R11   R(5,12)                 1.1114         estimate D2E/DX2                !
 ! R12   R(5,13)                 1.1104         estimate D2E/DX2                !
 ! R13   R(6,14)                 1.1099         estimate D2E/DX2                !
 ! R14   R(6,15)                 1.1113         estimate D2E/DX2                !
 ! R15   R(6,16)                 1.1112         estimate D2E/DX2                !
 ! R16   R(7,17)                 1.0469         estimate D2E/DX2                !
 ! R17   R(7,18)                 1.0468         estimate D2E/DX2                !
 ! A1    A(2,1,8)              112.1751         estimate D2E/DX2                !
 ! A2    A(2,1,9)              109.4282         estimate D2E/DX2                !
 ! A3    A(2,1,10)             109.4191         estimate D2E/DX2                !
 ! A4    A(8,1,9)              108.2664         estimate D2E/DX2                !
 ! A5    A(8,1,10)             108.513          estimate D2E/DX2                !
 ! A6    A(9,1,10)             108.9808         estimate D2E/DX2                !
 ! A7    A(1,2,3)              117.8906         estimate D2E/DX2                !
 ! A8    A(1,2,4)              122.2449         estimate D2E/DX2                !
 ! A9    A(3,2,4)              119.8577         estimate D2E/DX2                !
 ! A10   A(2,4,5)              109.3285         estimate D2E/DX2                !
 ! A11   A(2,4,6)              110.163          estimate D2E/DX2                !
 ! A12   A(2,4,7)              109.607          estimate D2E/DX2                !
 ! A13   A(5,4,6)              109.9273         estimate D2E/DX2                !
 ! A14   A(5,4,7)              108.4391         estimate D2E/DX2                !
 ! A15   A(6,4,7)              109.349          estimate D2E/DX2                !
 ! A16   A(4,5,11)             110.2169         estimate D2E/DX2                !
 ! A17   A(4,5,12)             110.4822         estimate D2E/DX2                !
 ! A18   A(4,5,13)             111.455          estimate D2E/DX2                !
 ! A19   A(11,5,12)            108.2324         estimate D2E/DX2                !
 ! A20   A(11,5,13)            108.5353         estimate D2E/DX2                !
 ! A21   A(12,5,13)            107.8187         estimate D2E/DX2                !
 ! A22   A(4,6,14)             111.5415         estimate D2E/DX2                !
 ! A23   A(4,6,15)             110.4083         estimate D2E/DX2                !
 ! A24   A(4,6,16)             110.3782         estimate D2E/DX2                !
 ! A25   A(14,6,15)            107.6806         estimate D2E/DX2                !
 ! A26   A(14,6,16)            108.4542         estimate D2E/DX2                !
 ! A27   A(15,6,16)            108.2697         estimate D2E/DX2                !
 ! A28   A(4,7,17)             109.472          estimate D2E/DX2                !
 ! A29   A(4,7,18)             109.6877         estimate D2E/DX2                !
 ! A30   A(17,7,18)            106.5532         estimate D2E/DX2                !
 ! D1    D(8,1,2,3)            177.9092         estimate D2E/DX2                !
 ! D2    D(8,1,2,4)             -1.1473         estimate D2E/DX2                !
 ! D3    D(9,1,2,3)             57.7327         estimate D2E/DX2                !
 ! D4    D(9,1,2,4)           -121.3237         estimate D2E/DX2                !
 ! D5    D(10,1,2,3)           -61.61           estimate D2E/DX2                !
 ! D6    D(10,1,2,4)           119.3335         estimate D2E/DX2                !
 ! D7    D(1,2,4,5)             63.0062         estimate D2E/DX2                !
 ! D8    D(1,2,4,6)            -57.8951         estimate D2E/DX2                !
 ! D9    D(1,2,4,7)           -178.2583         estimate D2E/DX2                !
 ! D10   D(3,2,4,5)           -116.0322         estimate D2E/DX2                !
 ! D11   D(3,2,4,6)            123.0665         estimate D2E/DX2                !
 ! D12   D(3,2,4,7)              2.7032         estimate D2E/DX2                !
 ! D13   D(2,4,5,11)            58.3395         estimate D2E/DX2                !
 ! D14   D(2,4,5,12)           177.9085         estimate D2E/DX2                !
 ! D15   D(2,4,5,13)           -62.2385         estimate D2E/DX2                !
 ! D16   D(6,4,5,11)           179.384          estimate D2E/DX2                !
 ! D17   D(6,4,5,12)           -61.0469         estimate D2E/DX2                !
 ! D18   D(6,4,5,13)            58.8061         estimate D2E/DX2                !
 ! D19   D(7,4,5,11)           -61.1196         estimate D2E/DX2                !
 ! D20   D(7,4,5,12)            58.4494         estimate D2E/DX2                !
 ! D21   D(7,4,5,13)           178.3025         estimate D2E/DX2                !
 ! D22   D(2,4,6,14)            64.7466         estimate D2E/DX2                !
 ! D23   D(2,4,6,15)          -175.5668         estimate D2E/DX2                !
 ! D24   D(2,4,6,16)           -55.8954         estimate D2E/DX2                !
 ! D25   D(5,4,6,14)           -55.7954         estimate D2E/DX2                !
 ! D26   D(5,4,6,15)            63.8913         estimate D2E/DX2                !
 ! D27   D(5,4,6,16)          -176.4374         estimate D2E/DX2                !
 ! D28   D(7,4,6,14)          -174.7349         estimate D2E/DX2                !
 ! D29   D(7,4,6,15)           -55.0483         estimate D2E/DX2                !
 ! D30   D(7,4,6,16)            64.6231         estimate D2E/DX2                !
 ! D31   D(2,4,7,17)            64.2798         estimate D2E/DX2                !
 ! D32   D(2,4,7,18)          -179.1392         estimate D2E/DX2                !
 ! D33   D(5,4,7,17)          -176.436          estimate D2E/DX2                !
 ! D34   D(5,4,7,18)           -59.8551         estimate D2E/DX2                !
 ! D35   D(6,4,7,17)           -56.5775         estimate D2E/DX2                !
 ! D36   D(6,4,7,18)            60.0034         estimate D2E/DX2                !
 --------------------------------------------------------------------------------
 Trust Radius=3.00D-01 FncErr=1.00D-07 GrdErr=1.00D-06
 Number of steps in this run=     93 maximum allowed number of steps=    108.
 GradGradGradGradGradGradGradGradGradGradGradGradGradGradGradGradGradGrad

 Leave Link  103 at Sun Aug 21 07:45:38 2022, MaxMem=    23592960 cpu:         0.6
 (Enter /public/home/users/caep010/software/Gaussian09/g09/l202.exe)
                          Input orientation:                          
 ---------------------------------------------------------------------
 Center     Atomic      Atomic             Coordinates (Angstroms)
 Number     Number       Type             X           Y           Z
 ---------------------------------------------------------------------
      1          6           0        2.156700   -0.097600    0.062400
      2          6           0        0.923000   -0.262000   -0.783200
      3          8           0        1.069400   -0.603000   -1.948400
      4          6           0       -0.479300    0.002200   -0.238700
      5          6           0       -0.600700    1.485000    0.158900
      6          6           0       -0.751900   -0.895400    0.987500
      7          7           0       -1.476500   -0.282900   -1.283100
      8          1           0        1.918000    0.248200    1.087500
      9          1           0        2.830400    0.648600   -0.408500
     10          1           0        2.687900   -1.069700    0.133100
     11          1           0       -0.394400    2.135900   -0.718000
     12          1           0       -1.626900    1.707200    0.523100
     13          1           0        0.111700    1.747900    0.969000
     14          1           0       -0.078800   -0.644800    1.833700
     15          1           0       -1.798200   -0.764800    1.338400
     16          1           0       -0.603500   -1.964900    0.724800
     17          1           0       -1.449500   -1.301700   -1.522600
     18          1           0       -2.437300   -0.088200   -0.915900
 ---------------------------------------------------------------------
                    Distance matrix (angstroms):
                    1          2          3          4          5
     1  C    0.000000
     2  C    1.504687   0.000000
     3  O    2.341147   1.222868   0.000000
     4  C    2.655017   1.527327   2.384914   0.000000
     5  C    3.180753   2.502244   3.404364   1.539974   0.000000
     6  C    3.154718   2.518306   3.467296   1.543879   2.525023
     7  N    3.878769   2.451109   2.650791   1.471890   2.443739
     8  H    1.107874   2.179414   3.265173   2.750703   2.955642
     9  H    1.110150   2.146571   2.653095   3.376504   3.576864
    10  H    1.110023   2.146359   2.677684   3.364277   4.164378
    11  H    3.479319   2.736735   3.340384   2.188518   1.111388
    12  H    4.217248   3.476515   4.326126   2.191883   1.111351
    13  H    2.899969   2.787133   3.867188   2.203472   1.110357
    14  H    2.904202   2.828127   3.952770   2.207680   2.759236
    15  H    4.208868   3.486965   4.364901   2.194318   2.808349
    16  H    3.397688   2.739368   3.435020   2.193910   3.496006
    17  H    4.119073   2.693779   2.648461   2.071193   3.363570
    18  H    4.697020   3.367407   3.691615   2.073773   2.646366
                    6          7          8          9         10
     6  C    0.000000
     7  N    2.460859   0.000000
     8  H    2.906232   4.174259   0.000000
     9  H    4.143142   4.492439   1.797445   0.000000
    10  H    3.548606   4.468434   1.800135   1.807261   0.000000
    11  H    3.496472   2.709404   3.488615   3.564714   4.527783
    12  H    2.784748   2.691742   3.874732   4.675044   5.145947
    13  H    2.780860   3.423227   2.350715   3.239953   3.908248
    14  H    1.109918   3.434964   2.311163   3.894071   3.275242
    15  H    1.111274   2.684768   3.859956   5.145221   4.655191
    16  H    1.111244   2.760963   3.374511   4.461661   3.461908
    17  H    2.636727   1.046921   4.533748   4.833470   4.462426
    18  H    2.667410   1.046843   4.805769   5.343126   5.322727
                   11         12         13         14         15
    11  H    0.000000
    12  H    1.800880   0.000000
    13  H    1.803511   1.795331   0.000000
    14  H    3.787224   3.105832   2.551276   0.000000
    15  H    3.822760   2.608609   3.177709   1.793337   0.000000
    16  H    4.352236   3.817375   3.788935   1.802119   1.801125
    17  H    3.684795   3.642779   4.236210   3.684438   2.931753
    18  H    3.026421   2.439453   3.663538   3.665055   2.438874
                   16         17         18
    16  H    0.000000
    17  H    2.491256   0.000000
    18  H    3.094628   1.678218   0.000000
 Stoichiometry    C5H11NO
 Framework group  C1[X(C5H11NO)]
 Deg. of freedom    48
 Full point group                 C1      NOp   1
 Largest Abelian subgroup         C1      NOp   1
 Largest concise Abelian subgroup C1      NOp   1
                         Standard orientation:                         
 ---------------------------------------------------------------------
 Center     Atomic      Atomic             Coordinates (Angstroms)
 Number     Number       Type             X           Y           Z
 ---------------------------------------------------------------------
      1          6           0        1.946852   -0.819553   -0.066896
      2          6           0        0.912424    0.270784    0.005269
      3          8           0        1.304044    1.427270    0.072919
      4          6           0       -0.585606   -0.026678    0.017526
      5          6           0       -0.934306   -0.835666    1.280644
      6          6           0       -0.980056   -0.824596   -1.243941
      7          7           0       -1.339808    1.236857    0.050978
      8          1           0        1.490020   -1.828640   -0.087738
      9          1           0        2.611874   -0.756911    0.819814
     10          1           0        2.556541   -0.689642   -0.985347
     11          1           0       -0.642077   -0.270219    2.191718
     12          1           0       -2.027386   -1.030663    1.328112
     13          1           0       -0.413453   -1.816220    1.291572
     14          1           0       -0.502889   -1.826609   -1.258115
     15          1           0       -2.080626   -0.974344   -1.279346
     16          1           0       -0.673466   -0.275990   -2.160401
     17          1           0       -1.161502    1.773153   -0.830291
     18          1           0       -2.366583    1.034190    0.074214
 ---------------------------------------------------------------------
 Rotational constants (GHZ):      3.2959292      2.2599531      1.9217453
 Leave Link  202 at Sun Aug 21 07:45:38 2022, MaxMem=    23592960 cpu:         1.2
 (Enter /public/home/users/caep010/software/Gaussian09/g09/l301.exe)
 Standard basis: GTBas3 (6D, 7F)
 Ernie: Thresh=  0.10000D-02 Tol=  0.10000D-05 Strict=F.
 There are   272 symmetry adapted cartesian basis functions of A   symmetry.
 There are   251 symmetry adapted basis functions of A   symmetry.
   251 basis functions,   385 primitive gaussians,   272 cartesian basis functions
    28 alpha electrons       28 beta electrons
       nuclear repulsion energy       325.6024795764 Hartrees.
 IExCor=  402 DFT=T Ex+Corr=B3LYP ExCW=0 ScaHFX=  0.200000
 ScaDFX=  0.800000  0.720000  1.000000  0.810000 ScalE2=  1.000000  1.000000
 IRadAn=      0 IRanWt=     -1 IRanGd=            0 ICorTp=0 IEmpDi=  4
 NAtoms=   18 NActive=   18 NUniq=   18 SFac= 1.00D+00 NAtFMM=   60 NAOKFM=F Big=F
 Integral buffers will be    131072 words long.
 Raffenetti 2 integral format.
 Two-electron integral symmetry is turned on.
 Leave Link  301 at Sun Aug 21 07:45:38 2022, MaxMem=    23592960 cpu:         1.9
 (Enter /public/home/users/caep010/software/Gaussian09/g09/l302.exe)
 NPDir=0 NMtPBC=     1 NCelOv=     1 NCel=       1 NClECP=     1 NCelD=      1
         NCelK=      1 NCelE2=     1 NClLst=     1 CellRange=     0.0.
 One-electron integrals computed using PRISM.
 PrsmSu:  requested number of processors reduced to:   3 ShMem   1 Linda.
 PrsmSu:  requested number of processors reduced to:  11 ShMem   1 Linda.
 NBasis=   251 RedAO= T EigKep=  3.90D-04  NBF=   251
 NBsUse=   251 1.00D-06 EigRej= -1.00D+00 NBFU=   251
 Precomputing XC quadrature grid using
 IXCGrd= 4 IRadAn=           0 IRanWt=          -1 IRanGd=           0 AccXCQ= 0.00D+00.
 Generated NRdTot=       0 NPtTot=           0 NUsed=           0 NTot=          32
 NSgBfM=   272   272   272   272   272 MxSgAt=    18 MxSgA2=    18.
 Leave Link  302 at Sun Aug 21 07:45:39 2022, MaxMem=    23592960 cpu:         5.1
 (Enter /public/home/users/caep010/software/Gaussian09/g09/l303.exe)
 DipDrv:  MaxL=1.
 Leave Link  303 at Sun Aug 21 07:45:39 2022, MaxMem=    23592960 cpu:         1.3
 (Enter /public/home/users/caep010/software/Gaussian09/g09/l401.exe)
 ExpMin= 1.61D-01 ExpMax= 5.48D+03 ExpMxC= 8.25D+02 IAcc=1 IRadAn=         1 AccDes= 0.00D+00
 Harris functional with IExCor=  402 and IRadAn=       1 diagonalized for initial guess.
 HarFok:  IExCor=  402 AccDes= 0.00D+00 IRadAn=         1 IDoV= 1 UseB2=F ITyADJ=14
 ICtDFT=  3500011 ScaDFX=  1.000000  1.000000  1.000000  1.000000
 CalDSu:  requested number of processors reduced to:  18 ShMem   1 Linda.
 FoFCou: FMM=F IPFlag=           0 FMFlag=      100000 FMFlg1=           0
         NFxFlg=           0 DoJE=T BraDBF=F KetDBF=T FulRan=T
         wScrn=  0.000000 ICntrl=     500 IOpCl=  0 I1Cent=   200000004 NGrid=           0
         NMat0=    1 NMatS0=      1 NMatT0=    0 NMatD0=    1 NMtDS0=    0 NMtDT0=    0
 Petite list used in FoFCou.
 CoulSu:  requested number of processors reduced to:  11 ShMem   1 Linda.
 CoulSu:  requested number of processors reduced to:  11 ShMem   1 Linda.
 CoulSu:  requested number of processors reduced to:  12 ShMem   1 Linda.
 CoulSu:  requested number of processors reduced to:  12 ShMem   1 Linda.
 Harris En= -327.195675614229    
 JPrj=0 DoOrth=F DoCkMO=F.
 Leave Link  401 at Sun Aug 21 07:45:39 2022, MaxMem=    23592960 cpu:         5.7
 (Enter /public/home/users/caep010/software/Gaussian09/g09/l502.exe)
 Closed shell SCF:
 Using DIIS extrapolation, IDIIS=  1040.
 Integral symmetry usage will be decided dynamically.
 IVT=      251200 IEndB=      251200 NGot=    23592960 MDV=    23432657
 LenX=    23432657 LenY=    23358232
 Requested convergence on RMS density matrix=1.00D-08 within 128 cycles.
 Requested convergence on MAX density matrix=1.00D-06.
 Requested convergence on             energy=1.00D-06.
 No special actions if energy rises.
 Fock matrices will be formed incrementally for  20 cycles.
 Integral accuracy reduced to 1.0D-05 until final iterations.

 Cycle   1  Pass 0  IDiag  1:
 FoFJK:  IHMeth= 1 ICntrl=       0 DoSepK=F KAlg= 0 I1Cent=   0 FoldK=F
 IRaf= 970000000 NMat=   1 IRICut=       1 DoRegI=T DoRafI=F ISym2E= 0.
 FoFCou: FMM=F IPFlag=           0 FMFlag=      100000 FMFlg1=           0
         NFxFlg=           0 DoJE=F BraDBF=F KetDBF=F FulRan=T
         wScrn=  0.000000 ICntrl=       0 IOpCl=  0 I1Cent=           0 NGrid=           0
         NMat0=    1 NMatS0=      1 NMatT0=    0 NMatD0=    1 NMtDS0=    0 NMtDT0=    0
 Symmetry not used in FoFCou.
 CoulSu:  requested number of processors reduced to:  11 ShMem   1 Linda.
 CalDSu:  requested number of processors reduced to:  18 ShMem   1 Linda.
 E= -326.874736831859    
 DIIS: error= 2.32D-02 at cycle   1 NSaved=   1.
 NSaved= 1 IEnMin= 1 EnMin= -326.874736831859     IErMin= 1 ErrMin= 2.32D-02
 ErrMax= 2.32D-02  0.00D+00 EMaxC= 1.00D-01 BMatC= 2.87D-01 BMatP= 2.87D-01
 IDIUse=3 WtCom= 7.68D-01 WtEn= 2.32D-01
 Coeff-Com:  0.100D+01
 Coeff-En:   0.100D+01
 Coeff:      0.100D+01
 Gap=     0.143 Goal=   None    Shift=    0.000
 GapD=    0.143 DampG=1.000 DampE=0.500 DampFc=0.5000 IDamp=-1.
 Damping current iteration by 5.00D-01
 RMSDP=5.47D-03 MaxDP=1.91D-01              OVMax= 2.46D-01

 Cycle   2  Pass 0  IDiag  1:
 RMSU=  2.71D-03    CP:  9.76D-01
 CoulSu:  requested number of processors reduced to:  11 ShMem   1 Linda.
 CalDSu:  requested number of processors reduced to:  18 ShMem   1 Linda.
 E= -326.973110335519     Delta-E=       -0.098373503660 Rises=F Damp=T
 DIIS: error= 7.03D-03 at cycle   2 NSaved=   2.
 NSaved= 2 IEnMin= 2 EnMin= -326.973110335519     IErMin= 2 ErrMin= 7.03D-03
 ErrMax= 7.03D-03  0.00D+00 EMaxC= 1.00D-01 BMatC= 2.98D-02 BMatP= 2.87D-01
 IDIUse=3 WtCom= 9.30D-01 WtEn= 7.03D-02
 Coeff-Com:  0.174D+00 0.826D+00
 Coeff-En:   0.258D+00 0.742D+00
 Coeff:      0.180D+00 0.820D+00
 Gap=     0.227 Goal=   None    Shift=    0.000
 RMSDP=1.39D-03 MaxDP=8.33D-02 DE=-9.84D-02 OVMax= 1.85D-01

 Cycle   3  Pass 0  IDiag  1:
 RMSU=  1.18D-03    CP:  9.68D-01  7.32D-01
 CoulSu:  requested number of processors reduced to:  11 ShMem   1 Linda.
 CalDSu:  requested number of processors reduced to:  18 ShMem   1 Linda.
 E= -327.119996610326     Delta-E=       -0.146886274807 Rises=F Damp=F
 DIIS: error= 1.08D-02 at cycle   3 NSaved=   3.
 NSaved= 3 IEnMin= 3 EnMin= -327.119996610326     IErMin= 2 ErrMin= 7.03D-03
 ErrMax= 1.08D-02  0.00D+00 EMaxC= 1.00D-01 BMatC= 3.09D-02 BMatP= 2.98D-02
 IDIUse=3 WtCom= 8.92D-01 WtEn= 1.08D-01
 Coeff-Com:  0.637D-01 0.504D+00 0.432D+00
 Coeff-En:   0.000D+00 0.000D+00 0.100D+01
 Coeff:      0.568D-01 0.449D+00 0.494D+00
 Gap=     0.218 Goal=   None    Shift=    0.000
 RMSDP=7.91D-04 MaxDP=5.41D-02 DE=-1.47D-01 OVMax= 8.89D-02

 Cycle   4  Pass 0  IDiag  1:
 RMSU=  4.88D-04    CP:  9.72D-01  7.74D-01  4.83D-01
 CoulSu:  requested number of processors reduced to:  11 ShMem   1 Linda.
 CalDSu:  requested number of processors reduced to:  18 ShMem   1 Linda.
 E= -327.140174478573     Delta-E=       -0.020177868247 Rises=F Damp=F
 DIIS: error= 4.76D-03 at cycle   4 NSaved=   4.
 NSaved= 4 IEnMin= 4 EnMin= -327.140174478573     IErMin= 4 ErrMin= 4.76D-03
 ErrMax= 4.76D-03  0.00D+00 EMaxC= 1.00D-01 BMatC= 7.05D-03 BMatP= 2.98D-02
 IDIUse=3 WtCom= 9.52D-01 WtEn= 4.76D-02
 Coeff-Com:  0.798D-02 0.510D-01 0.322D+00 0.619D+00
 Coeff-En:   0.000D+00 0.000D+00 0.226D+00 0.774D+00
 Coeff:      0.760D-02 0.486D-01 0.318D+00 0.626D+00
 Gap=     0.221 Goal=   None    Shift=    0.000
 RMSDP=2.93D-04 MaxDP=1.82D-02 DE=-2.02D-02 OVMax= 2.66D-02

 Cycle   5  Pass 0  IDiag  1:
 RMSU=  1.09D-04    CP:  9.71D-01  7.55D-01  6.48D-01  6.25D-01
 CoulSu:  requested number of processors reduced to:  11 ShMem   1 Linda.
 CalDSu:  requested number of processors reduced to:  18 ShMem   1 Linda.
 E= -327.145620408922     Delta-E=       -0.005445930349 Rises=F Damp=F
 DIIS: error= 6.53D-04 at cycle   5 NSaved=   5.
 NSaved= 5 IEnMin= 5 EnMin= -327.145620408922     IErMin= 5 ErrMin= 6.53D-04
 ErrMax= 6.53D-04  0.00D+00 EMaxC= 1.00D-01 BMatC= 1.79D-04 BMatP= 7.05D-03
 IDIUse=3 WtCom= 9.93D-01 WtEn= 6.53D-03
 Coeff-Com:  0.188D-02 0.402D-02 0.144D+00 0.321D+00 0.529D+00
 Coeff-En:   0.000D+00 0.000D+00 0.000D+00 0.000D+00 0.100D+01
 Coeff:      0.186D-02 0.399D-02 0.143D+00 0.319D+00 0.532D+00
 Gap=     0.218 Goal=   None    Shift=    0.000
 RMSDP=6.56D-05 MaxDP=2.94D-03 DE=-5.45D-03 OVMax= 3.19D-03

 Cycle   6  Pass 0  IDiag  1:
 RMSU=  2.94D-05    CP:  9.71D-01  7.56D-01  6.42D-01  6.66D-01  4.98D-01
 CoulSu:  requested number of processors reduced to:  11 ShMem   1 Linda.
 CalDSu:  requested number of processors reduced to:  18 ShMem   1 Linda.
 E= -327.145768482493     Delta-E=       -0.000148073571 Rises=F Damp=F
 DIIS: error= 1.45D-04 at cycle   6 NSaved=   6.
 NSaved= 6 IEnMin= 6 EnMin= -327.145768482493     IErMin= 6 ErrMin= 1.45D-04
 ErrMax= 1.45D-04  0.00D+00 EMaxC= 1.00D-01 BMatC= 1.12D-05 BMatP= 1.79D-04
 IDIUse=3 WtCom= 9.99D-01 WtEn= 1.45D-03
 Coeff-Com:  0.447D-03-0.331D-02 0.355D-01 0.845D-01 0.249D+00 0.633D+00
 Coeff-En:   0.000D+00 0.000D+00 0.000D+00 0.000D+00 0.000D+00 0.100D+01
 Coeff:      0.447D-03-0.330D-02 0.355D-01 0.844D-01 0.249D+00 0.634D+00
 Gap=     0.217 Goal=   None    Shift=    0.000
 RMSDP=1.40D-05 MaxDP=5.97D-04 DE=-1.48D-04 OVMax= 6.96D-04

 Cycle   7  Pass 0  IDiag  1:
 RMSU=  5.41D-06    CP:  9.71D-01  7.56D-01  6.44D-01  6.62D-01  5.73D-01
                    CP:  6.71D-01
 CoulSu:  requested number of processors reduced to:  11 ShMem   1 Linda.
 CalDSu:  requested number of processors reduced to:  18 ShMem   1 Linda.
 E= -327.145777938521     Delta-E=       -0.000009456028 Rises=F Damp=F
 DIIS: error= 2.47D-05 at cycle   7 NSaved=   7.
 NSaved= 7 IEnMin= 7 EnMin= -327.145777938521     IErMin= 7 ErrMin= 2.47D-05
 ErrMax= 2.47D-05  0.00D+00 EMaxC= 1.00D-01 BMatC= 3.25D-07 BMatP= 1.12D-05
 IDIUse=1 WtCom= 1.00D+00 WtEn= 0.00D+00
 Coeff-Com:  0.197D-03-0.141D-02 0.865D-02 0.199D-01 0.763D-01 0.240D+00
 Coeff-Com:  0.656D+00
 Coeff:      0.197D-03-0.141D-02 0.865D-02 0.199D-01 0.763D-01 0.240D+00
 Coeff:      0.656D+00
 Gap=     0.217 Goal=   None    Shift=    0.000
 RMSDP=3.69D-06 MaxDP=1.63D-04 DE=-9.46D-06 OVMax= 1.53D-04

 Initial convergence to 1.0D-05 achieved.  Increase integral accuracy.
 Cycle   8  Pass 1  IDiag  1:
 CoulSu:  requested number of processors reduced to:  11 ShMem   1 Linda.
 CalDSu:  requested number of processors reduced to:  18 ShMem   1 Linda.
 E= -327.145755609314     Delta-E=        0.000022329207 Rises=F Damp=F
 DIIS: error= 3.16D-05 at cycle   1 NSaved=   1.
 NSaved= 1 IEnMin= 1 EnMin= -327.145755609314     IErMin= 1 ErrMin= 3.16D-05
 ErrMax= 3.16D-05  0.00D+00 EMaxC= 1.00D-01 BMatC= 2.91D-07 BMatP= 2.91D-07
 IDIUse=1 WtCom= 1.00D+00 WtEn= 0.00D+00
 Coeff-Com:  0.100D+01
 Coeff:      0.100D+01
 Gap=     0.217 Goal=   None    Shift=    0.000
 RMSDP=3.69D-06 MaxDP=1.63D-04 DE= 2.23D-05 OVMax= 1.25D-04

 Cycle   9  Pass 1  IDiag  1:
 RMSU=  5.59D-06    CP:  1.00D+00
 CoulSu:  requested number of processors reduced to:  11 ShMem   1 Linda.
 CalDSu:  requested number of processors reduced to:  18 ShMem   1 Linda.
 E= -327.145755741430     Delta-E=       -0.000000132116 Rises=F Damp=F
 DIIS: error= 1.51D-05 at cycle   2 NSaved=   2.
 NSaved= 2 IEnMin= 2 EnMin= -327.145755741430     IErMin= 2 ErrMin= 1.51D-05
 ErrMax= 1.51D-05  0.00D+00 EMaxC= 1.00D-01 BMatC= 8.67D-08 BMatP= 2.91D-07
 IDIUse=1 WtCom= 1.00D+00 WtEn= 0.00D+00
 Coeff-Com:  0.286D+00 0.714D+00
 Coeff:      0.286D+00 0.714D+00
 Gap=     0.217 Goal=   None    Shift=    0.000
 RMSDP=1.68D-06 MaxDP=8.78D-05 DE=-1.32D-07 OVMax= 1.03D-04

 Cycle  10  Pass 1  IDiag  1:
 RMSU=  1.61D-06    CP:  1.00D+00  9.18D-01
 CoulSu:  requested number of processors reduced to:  11 ShMem   1 Linda.
 CalDSu:  requested number of processors reduced to:  18 ShMem   1 Linda.
 E= -327.145755767147     Delta-E=       -0.000000025717 Rises=F Damp=F
 DIIS: error= 1.57D-05 at cycle   3 NSaved=   3.
 NSaved= 3 IEnMin= 3 EnMin= -327.145755767147     IErMin= 2 ErrMin= 1.51D-05
 ErrMax= 1.57D-05  0.00D+00 EMaxC= 1.00D-01 BMatC= 6.48D-08 BMatP= 8.67D-08
 IDIUse=1 WtCom= 1.00D+00 WtEn= 0.00D+00
 Coeff-Com:  0.839D-02 0.461D+00 0.531D+00
 Coeff:      0.839D-02 0.461D+00 0.531D+00
 Gap=     0.217 Goal=   None    Shift=    0.000
 RMSDP=8.38D-07 MaxDP=6.23D-05 DE=-2.57D-08 OVMax= 8.28D-05

 Cycle  11  Pass 1  IDiag  1:
 RMSU=  6.10D-07    CP:  1.00D+00  9.48D-01  6.60D-01
 CoulSu:  requested number of processors reduced to:  11 ShMem   1 Linda.
 CalDSu:  requested number of processors reduced to:  18 ShMem   1 Linda.
 E= -327.145755814340     Delta-E=       -0.000000047193 Rises=F Damp=F
 DIIS: error= 5.17D-06 at cycle   4 NSaved=   4.
 NSaved= 4 IEnMin= 4 EnMin= -327.145755814340     IErMin= 4 ErrMin= 5.17D-06
 ErrMax= 5.17D-06  0.00D+00 EMaxC= 1.00D-01 BMatC= 8.77D-09 BMatP= 6.48D-08
 IDIUse=1 WtCom= 1.00D+00 WtEn= 0.00D+00
 Coeff-Com: -0.119D-01 0.269D+00 0.361D+00 0.382D+00
 Coeff:     -0.119D-01 0.269D+00 0.361D+00 0.382D+00
 Gap=     0.217 Goal=   None    Shift=    0.000
 RMSDP=3.84D-07 MaxDP=2.22D-05 DE=-4.72D-08 OVMax= 3.36D-05

 Cycle  12  Pass 1  IDiag  1:
 RMSU=  1.15D-07    CP:  1.00D+00  9.65D-01  6.25D-01  4.29D-01
 CoulSu:  requested number of processors reduced to:  11 ShMem   1 Linda.
 CalDSu:  requested number of processors reduced to:  18 ShMem   1 Linda.
 E= -327.145755821160     Delta-E=       -0.000000006820 Rises=F Damp=F
 DIIS: error= 3.55D-07 at cycle   5 NSaved=   5.
 NSaved= 5 IEnMin= 5 EnMin= -327.145755821160     IErMin= 5 ErrMin= 3.55D-07
 ErrMax= 3.55D-07  0.00D+00 EMaxC= 1.00D-01 BMatC= 8.17D-11 BMatP= 8.77D-09
 IDIUse=1 WtCom= 1.00D+00 WtEn= 0.00D+00
 Coeff-Com: -0.512D-02 0.897D-01 0.124D+00 0.163D+00 0.629D+00
 Coeff:     -0.512D-02 0.897D-01 0.124D+00 0.163D+00 0.629D+00
 Gap=     0.217 Goal=   None    Shift=    0.000
 RMSDP=4.19D-08 MaxDP=1.78D-06 DE=-6.82D-09 OVMax= 2.56D-06

 Cycle  13  Pass 1  IDiag  1:
 RMSU=  3.25D-08    CP:  1.00D+00  9.65D-01  6.26D-01  4.34D-01  7.72D-01
 CoulSu:  requested number of processors reduced to:  11 ShMem   1 Linda.
 CalDSu:  requested number of processors reduced to:  18 ShMem   1 Linda.
 E= -327.145755821222     Delta-E=       -0.000000000062 Rises=F Damp=F
 DIIS: error= 1.51D-07 at cycle   6 NSaved=   6.
 NSaved= 6 IEnMin= 6 EnMin= -327.145755821222     IErMin= 6 ErrMin= 1.51D-07
 ErrMax= 1.51D-07  0.00D+00 EMaxC= 1.00D-01 BMatC= 1.05D-11 BMatP= 8.17D-11
 IDIUse=1 WtCom= 1.00D+00 WtEn= 0.00D+00
 Coeff-Com: -0.125D-02 0.157D-01 0.230D-01 0.401D-01 0.305D+00 0.618D+00
 Coeff:     -0.125D-02 0.157D-01 0.230D-01 0.401D-01 0.305D+00 0.618D+00
 Gap=     0.217 Goal=   None    Shift=    0.000
 RMSDP=1.54D-08 MaxDP=6.19D-07 DE=-6.18D-11 OVMax= 6.39D-07

 Cycle  14  Pass 1  IDiag  1:
 RMSU=  8.17D-09    CP:  1.00D+00  9.65D-01  6.27D-01  4.45D-01  8.28D-01
                    CP:  7.19D-01
 CoulSu:  requested number of processors reduced to:  11 ShMem   1 Linda.
 CalDSu:  requested number of processors reduced to:  18 ShMem   1 Linda.
 E= -327.145755821225     Delta-E=       -0.000000000003 Rises=F Damp=F
 DIIS: error= 3.58D-08 at cycle   7 NSaved=   7.
 NSaved= 7 IEnMin= 7 EnMin= -327.145755821225     IErMin= 7 ErrMin= 3.58D-08
 ErrMax= 3.58D-08  0.00D+00 EMaxC= 1.00D-01 BMatC= 6.16D-13 BMatP= 1.05D-11
 IDIUse=1 WtCom= 1.00D+00 WtEn= 0.00D+00
 Coeff-Com: -0.408D-04-0.210D-02-0.231D-02 0.986D-03 0.552D-01 0.238D+00
 Coeff-Com:  0.710D+00
 Coeff:     -0.408D-04-0.210D-02-0.231D-02 0.986D-03 0.552D-01 0.238D+00
 Coeff:      0.710D+00
 Gap=     0.217 Goal=   None    Shift=    0.000
 RMSDP=3.77D-09 MaxDP=2.15D-07 DE=-2.73D-12 OVMax= 3.13D-07

 SCF Done:  E(RB3LYP) =  -327.145755821     A.U. after   14 cycles
            NFock= 14  Conv=0.38D-08     -V/T= 2.0086
 KE= 3.243461458305D+02 PE=-1.412578582452D+03 EE= 4.354842012234D+02
 Leave Link  502 at Sun Aug 21 07:45:54 2022, MaxMem=    23592960 cpu:       216.5
 (Enter /public/home/users/caep010/software/Gaussian09/g09/l601.exe)
 Copying SCF densities to generalized density rwf, IOpCl= 0 IROHF=0.

 **********************************************************************

            Population analysis using the SCF density.

 **********************************************************************

 Orbital symmetries:
       Occupied  (A) (A) (A) (A) (A) (A) (A) (A) (A) (A) (A) (A)
                 (A) (A) (A) (A) (A) (A) (A) (A) (A) (A) (A) (A)
                 (A) (A) (A) (A)
       Virtual   (A) (A) (A) (A) (A) (A) (A) (A) (A) (A) (A) (A)
                 (A) (A) (A) (A) (A) (A) (A) (A) (A) (A) (A) (A)
                 (A) (A) (A) (A) (A) (A) (A) (A) (A) (A) (A) (A)
                 (A) (A) (A) (A) (A) (A) (A) (A) (A) (A) (A) (A)
                 (A) (A) (A) (A) (A) (A) (A) (A) (A) (A) (A) (A)
                 (A) (A) (A) (A) (A) (A) (A) (A) (A) (A) (A) (A)
                 (A) (A) (A) (A) (A) (A) (A) (A) (A) (A) (A) (A)
                 (A) (A) (A) (A) (A) (A) (A) (A) (A) (A) (A) (A)
                 (A) (A) (A) (A) (A) (A) (A) (A) (A) (A) (A) (A)
                 (A) (A) (A) (A) (A) (A) (A) (A) (A) (A) (A) (A)
                 (A) (A) (A) (A) (A) (A) (A) (A) (A) (A) (A) (A)
                 (A) (A) (A) (A) (A) (A) (A) (A) (A) (A) (A) (A)
                 (A) (A) (A) (A) (A) (A) (A) (A) (A) (A) (A) (A)
                 (A) (A) (A) (A) (A) (A) (A) (A) (A) (A) (A) (A)
                 (A) (A) (A) (A) (A) (A) (A) (A) (A) (A) (A) (A)
                 (A) (A) (A) (A) (A) (A) (A) (A) (A) (A) (A) (A)
                 (A) (A) (A) (A) (A) (A) (A) (A) (A) (A) (A) (A)
                 (A) (A) (A) (A) (A) (A) (A) (A) (A) (A) (A) (A)
                 (A) (A) (A) (A) (A) (A) (A)
 The electronic state is 1-A.
 Alpha  occ. eigenvalues --  -19.11876 -14.30859 -10.26290 -10.22734 -10.19312
 Alpha  occ. eigenvalues --  -10.19000 -10.18926  -1.02666  -0.88320  -0.76857
 Alpha  occ. eigenvalues --   -0.72463  -0.69318  -0.61895  -0.51364  -0.48608
 Alpha  occ. eigenvalues --   -0.46176  -0.45268  -0.43278  -0.41545  -0.40592
 Alpha  occ. eigenvalues --   -0.39737  -0.39092  -0.37473  -0.36037  -0.35290
 Alpha  occ. eigenvalues --   -0.33180  -0.23665  -0.23165
 Alpha virt. eigenvalues --   -0.01483   0.05873   0.10288   0.11452   0.12015
 Alpha virt. eigenvalues --    0.14029   0.14923   0.16240   0.16787   0.18424
 Alpha virt. eigenvalues --    0.19440   0.19927   0.20342   0.22185   0.23602
 Alpha virt. eigenvalues --    0.24355   0.31567   0.34715   0.43684   0.45034
 Alpha virt. eigenvalues --    0.47336   0.48179   0.48815   0.52966   0.54594
 Alpha virt. eigenvalues --    0.55307   0.56760   0.58134   0.59459   0.62912
 Alpha virt. eigenvalues --    0.63235   0.64718   0.65364   0.66216   0.70588
 Alpha virt. eigenvalues --    0.71847   0.72472   0.73080   0.73635   0.75961
 Alpha virt. eigenvalues --    0.76335   0.77605   0.80074   0.81395   0.82987
 Alpha virt. eigenvalues --    0.83472   0.84647   0.85811   0.86942   0.88312
 Alpha virt. eigenvalues --    0.90625   0.91437   0.97709   1.00809   1.02772
 Alpha virt. eigenvalues --    1.05074   1.07935   1.12249   1.16298   1.19701
 Alpha virt. eigenvalues --    1.26167   1.28107   1.32187   1.33485   1.35189
 Alpha virt. eigenvalues --    1.37426   1.38872   1.41998   1.44051   1.44973
 Alpha virt. eigenvalues --    1.45747   1.46937   1.48669   1.52784   1.55363
 Alpha virt. eigenvalues --    1.58262   1.61973   1.66354   1.67233   1.69081
 Alpha virt. eigenvalues --    1.70483   1.78442   1.79437   1.81387   1.83685
 Alpha virt. eigenvalues --    1.85403   1.87566   1.89772   1.90410   1.93273
 Alpha virt. eigenvalues --    1.94902   1.97009   2.04201   2.10786   2.12522
 Alpha virt. eigenvalues --    2.21419   2.25026   2.29432   2.31525   2.31949
 Alpha virt. eigenvalues --    2.33638   2.34647   2.38464   2.45700   2.46478
 Alpha virt. eigenvalues --    2.49389   2.57003   2.59088   2.65549   2.70575
 Alpha virt. eigenvalues --    2.71942   2.79333   2.80927   2.81664   2.81771
 Alpha virt. eigenvalues --    2.83493   2.86177   2.87935   2.89247   2.90140
 Alpha virt. eigenvalues --    2.92377   2.93162   2.94519   2.96227   3.00518
 Alpha virt. eigenvalues --    3.02197   3.04951   3.05651   3.10784   3.12942
 Alpha virt. eigenvalues --    3.20574   3.21455   3.24284   3.28134   3.30075
 Alpha virt. eigenvalues --    3.35213   3.37647   3.38720   3.43963   3.46921
 Alpha virt. eigenvalues --    3.47486   3.54682   3.61664   3.61940   3.63384
 Alpha virt. eigenvalues --    3.64257   3.66099   3.73286   3.75444   3.79763
 Alpha virt. eigenvalues --    3.80461   3.88494   3.94353   3.95631   3.97947
 Alpha virt. eigenvalues --    4.04411   4.05886   4.10399   4.11343   4.13826
 Alpha virt. eigenvalues --    4.19378   4.23432   4.26270   4.29191   4.30931
 Alpha virt. eigenvalues --    4.31747   4.33558   4.38516   4.41183   4.43602
 Alpha virt. eigenvalues --    4.45478   4.45827   4.49854   4.52616   4.53472
 Alpha virt. eigenvalues --    4.58188   4.59571   4.61153   4.62531   4.64738
 Alpha virt. eigenvalues --    4.65302   4.67238   4.69730   4.71706   4.72571
 Alpha virt. eigenvalues --    4.76587   4.80326   4.80587   4.81700   4.84106
 Alpha virt. eigenvalues --    4.86030   4.89018   4.91137   4.95230   4.97910
 Alpha virt. eigenvalues --    5.02578   5.03888   5.13090   5.14013   5.18268
 Alpha virt. eigenvalues --    5.21288   5.25358   5.36077   5.39956   5.51792
 Alpha virt. eigenvalues --    5.53645   5.56127   5.58847   5.63228   5.75068
 Alpha virt. eigenvalues --    5.90146   6.06943   6.41323   6.50357   6.85424
 Alpha virt. eigenvalues --   10.40472  11.27509  11.44068  11.82145  11.91110
 Alpha virt. eigenvalues --   12.09090  13.11006  13.51281
          Condensed to atoms (all electrons):
               1          2          3          4          5          6
     1  C    5.264889   0.332697  -0.078005  -0.116878  -0.000798   0.000906
     2  C    0.332697   4.289530   0.788806   0.304266  -0.022255  -0.043827
     3  O   -0.078005   0.788806   7.678296  -0.074703  -0.000341   0.000447
     4  C   -0.116878   0.304266  -0.074703   4.829311   0.363012   0.384848
     5  C   -0.000798  -0.022255  -0.000341   0.363012   5.063115  -0.053415
     6  C    0.000906  -0.043827   0.000447   0.384848  -0.053415   5.152969
     7  N    0.003874  -0.027950  -0.003112   0.379500  -0.035262  -0.077282
     8  H    0.338991  -0.013827   0.003676   0.004771  -0.001662  -0.001259
     9  H    0.362301  -0.008756  -0.001964   0.002820  -0.000101   0.000165
    10  H    0.360414  -0.007899  -0.001947   0.002498   0.000195  -0.000157
    11  H    0.000864  -0.001581   0.000775  -0.020415   0.365537   0.005652
    12  H   -0.000288   0.002027  -0.000066  -0.017541   0.365764  -0.005844
    13  H    0.002183  -0.004959   0.000059  -0.021881   0.366240  -0.001665
    14  H    0.000364   0.000208   0.000035  -0.017389  -0.003823   0.335862
    15  H   -0.000276   0.002110  -0.000070  -0.017429  -0.005197   0.363542
    16  H    0.000797  -0.001953   0.000491  -0.023284   0.005225   0.361504
    17  H    0.000279  -0.000625   0.006806  -0.056328   0.006910  -0.003680
    18  H   -0.000151   0.005977   0.000221  -0.046218  -0.006937  -0.005016
               7          8          9         10         11         12
     1  C    0.003874   0.338991   0.362301   0.360414   0.000864  -0.000288
     2  C   -0.027950  -0.013827  -0.008756  -0.007899  -0.001581   0.002027
     3  O   -0.003112   0.003676  -0.001964  -0.001947   0.000775  -0.000066
     4  C    0.379500   0.004771   0.002820   0.002498  -0.020415  -0.017541
     5  C   -0.035262  -0.001662  -0.000101   0.000195   0.365537   0.365764
     6  C   -0.077282  -0.001259   0.000165  -0.000157   0.005652  -0.005844
     7  N    6.614298   0.000034  -0.000057  -0.000063   0.000772  -0.004256
     8  H    0.000034   0.601931  -0.027862  -0.027782  -0.000051  -0.000007
     9  H   -0.000057  -0.027862   0.539263  -0.020219  -0.000001   0.000020
    10  H   -0.000063  -0.027782  -0.020219   0.543163  -0.000015  -0.000003
    11  H    0.000772  -0.000051  -0.000001  -0.000015   0.568462  -0.028997
    12  H   -0.004256  -0.000007   0.000020  -0.000003  -0.028997   0.593495
    13  H    0.002989   0.002930  -0.000026  -0.000015  -0.028152  -0.028954
    14  H    0.006362   0.002900  -0.000005   0.000122  -0.000168   0.000332
    15  H   -0.001508  -0.000001  -0.000003   0.000021  -0.000113   0.004124
    16  H   -0.000443  -0.000076  -0.000015   0.000048  -0.000196  -0.000063
    17  H    0.331920  -0.000023  -0.000004  -0.000008  -0.000178  -0.000115
    18  H    0.328071  -0.000010   0.000003   0.000003  -0.000331   0.004395
              13         14         15         16         17         18
     1  C    0.002183   0.000364  -0.000276   0.000797   0.000279  -0.000151
     2  C   -0.004959   0.000208   0.002110  -0.001953  -0.000625   0.005977
     3  O    0.000059   0.000035  -0.000070   0.000491   0.006806   0.000221
     4  C   -0.021881  -0.017389  -0.017429  -0.023284  -0.056328  -0.046218
     5  C    0.366240  -0.003823  -0.005197   0.005225   0.006910  -0.006937
     6  C   -0.001665   0.335862   0.363542   0.361504  -0.003680  -0.005016
     7  N    0.002989   0.006362  -0.001508  -0.000443   0.331920   0.328071
     8  H    0.002930   0.002900  -0.000001  -0.000076  -0.000023  -0.000010
     9  H   -0.000026  -0.000005  -0.000003  -0.000015  -0.000004   0.000003
    10  H   -0.000015   0.000122   0.000021   0.000048  -0.000008   0.000003
    11  H   -0.028152  -0.000168  -0.000113  -0.000196  -0.000178  -0.000331
    12  H   -0.028954   0.000332   0.004124  -0.000063  -0.000115   0.004395
    13  H    0.593642   0.001013   0.000075  -0.000032  -0.000235  -0.000210
    14  H    0.001013   0.619072  -0.027138  -0.027326   0.000098   0.000106
    15  H    0.000075  -0.027138   0.593174  -0.030342  -0.000008   0.004749
    16  H   -0.000032  -0.027326  -0.030342   0.594453   0.004869   0.000009
    17  H   -0.000235   0.000098  -0.000008   0.004869   0.510590  -0.027913
    18  H   -0.000210   0.000106   0.004749   0.000009  -0.027913   0.525057
 Mulliken charges:
               1
     1  C   -0.472163
     2  C    0.408011
     3  O   -0.319404
     4  C    0.141039
     5  C   -0.406207
     6  C   -0.413750
     7  N   -0.517885
     8  H    0.117328
     9  H    0.154442
    10  H    0.151643
    11  H    0.138135
    12  H    0.115976
    13  H    0.116998
    14  H    0.109373
    15  H    0.114290
    16  H    0.116335
    17  H    0.227645
    18  H    0.218192
 Sum of Mulliken charges =  -0.00000
 Mulliken charges with hydrogens summed into heavy atoms:
               1
     1  C   -0.048750
     2  C    0.408011
     3  O   -0.319404
     4  C    0.141039
     5  C   -0.035098
     6  C   -0.073752
     7  N   -0.072047
 Electronic spatial extent (au):  <R**2>=            791.5096
 Charge=             -0.0000 electrons
 Dipole moment (field-independent basis, Debye):
    X=             -1.2151    Y=             -2.9579    Z=             -1.0175  Tot=              3.3557
 Quadrupole moment (field-independent basis, Debye-Ang):
   XX=            -41.0708   YY=            -48.7448   ZZ=            -42.7052
   XY=             -3.5963   XZ=              0.8422   YZ=             -2.8210
 Traceless Quadrupole moment (field-independent basis, Debye-Ang):
   XX=              3.1028   YY=             -4.5713   ZZ=              1.4684
   XY=             -3.5963   XZ=              0.8422   YZ=             -2.8210
 Octapole moment (field-independent basis, Debye-Ang**2):
  XXX=             -6.3378  YYY=              0.1132  ZZZ=              0.1358  XYY=             -3.7013
  XXY=             -1.1677  XXZ=             -0.8287  XZZ=              3.4685  YZZ=              4.6953
  YYZ=             -4.7000  XYZ=              2.5104
 Hexadecapole moment (field-independent basis, Debye-Ang**3):
 XXXX=           -464.1726 YYYY=           -310.0051 ZZZZ=           -222.8911 XXXY=            -11.1273
 XXXZ=              0.4567 YYYX=             -4.5045 YYYZ=            -10.5185 ZZZX=              0.5239
 ZZZY=             -2.8216 XXYY=           -142.8709 XXZZ=           -117.5428 YYZZ=            -88.7782
 XXYZ=             -3.9567 YYXZ=              5.3547 ZZXY=             -0.5242
 N-N= 3.256024795764D+02 E-N=-1.412578588324D+03  KE= 3.243461458305D+02
 PrsmSu:  requested number of processors reduced to:  11 ShMem   1 Linda.
 No NMR shielding tensors so no spin-rotation constants.
 Leave Link  601 at Sun Aug 21 07:45:54 2022, MaxMem=    23592960 cpu:         4.6
 (Enter /public/home/users/caep010/software/Gaussian09/g09/l701.exe)
 Compute integral first derivatives.
 ... and contract with generalized density number  0.
 PrsmSu:  requested number of processors reduced to:   3 ShMem   1 Linda.
 PrsmSu:  requested number of processors reduced to:   6 ShMem   1 Linda.
 Leave Link  701 at Sun Aug 21 07:45:54 2022, MaxMem=    23592960 cpu:         3.0
 (Enter /public/home/users/caep010/software/Gaussian09/g09/l702.exe)
 L702 exits ... SP integral derivatives will be done elsewhere.
 Leave Link  702 at Sun Aug 21 07:45:54 2022, MaxMem=    23592960 cpu:         0.5
 (Enter /public/home/users/caep010/software/Gaussian09/g09/l703.exe)
 Compute integral first derivatives, UseDBF=F ICtDFT=           0.
 Integral derivatives from FoFJK, PRISM(SPDF).
 Calling FoFJK, ICntrl=      2127 FMM=F ISym2X=0 I1Cent= 0 IOpClX= 0 NMat=1 NMatS=1 NMatT=0.
 FoFJK:  IHMeth= 1 ICntrl=    2127 DoSepK=F KAlg= 0 I1Cent=   0 FoldK=F
 IRaf=         0 NMat=   1 IRICut=       1 DoRegI=T DoRafI=F ISym2E= 0.
 FoFCou: FMM=F IPFlag=           0 FMFlag=      100000 FMFlg1=         800
         NFxFlg=           0 DoJE=F BraDBF=F KetDBF=F FulRan=T
         wScrn=  0.000000 ICntrl=    2127 IOpCl=  0 I1Cent=           0 NGrid=           0
         NMat0=    1 NMatS0=      1 NMatT0=    0 NMatD0=    1 NMtDS0=    0 NMtDT0=    0
 Symmetry not used in FoFCou.
 CoulSu:  requested number of processors reduced to:   6 ShMem   1 Linda.
 CalDSu:  requested number of processors reduced to:  15 ShMem   1 Linda.
 Leave Link  703 at Sun Aug 21 07:46:01 2022, MaxMem=    23592960 cpu:        45.3
 (Enter /public/home/users/caep010/software/Gaussian09/g09/l716.exe)
 Dipole        =-4.78053451D-01-1.16372314D+00-4.00333790D-01
 ***** Axes restored to original set *****
 -------------------------------------------------------------------
 Center     Atomic                   Forces (Hartrees/Bohr)
 Number     Number              X              Y              Z
 -------------------------------------------------------------------
      1        6           0.005528743    0.006239823    0.020442295
      2        6           0.003020613   -0.008305894   -0.038773004
      3        8          -0.003579658    0.001665923    0.016232125
      4        6          -0.018813590   -0.003289192    0.008872586
      5        6           0.002390008    0.011256280   -0.000383445
      6        6           0.006057586   -0.004533627    0.012338070
      7        7          -0.013727461   -0.011880539   -0.004004560
      8        1           0.005109076   -0.003205826   -0.007460155
      9        1          -0.005807783   -0.009015556    0.003183086
     10        1          -0.004027729    0.009778494   -0.002040873
     11        1          -0.003063256   -0.006009079    0.008873827
     12        1           0.009292505   -0.002570457   -0.003171869
     13        1          -0.007249324   -0.002038589   -0.007452862
     14        1          -0.005898691   -0.004880091   -0.004690159
     15        1           0.010013589   -0.000502270   -0.004063445
     16        1          -0.001954047    0.009033905    0.003498797
     17        1          -0.000041473    0.023889726    0.004060757
     18        1           0.022750895   -0.005633030   -0.005461171
 -------------------------------------------------------------------
 Cartesian Forces:  Max     0.038773004 RMS     0.010195727
 Leave Link  716 at Sun Aug 21 07:46:01 2022, MaxMem=    23592960 cpu:         0.8
 (Enter /public/home/users/caep010/software/Gaussian09/g09/l103.exe)

 GradGradGradGradGradGradGradGradGradGradGradGradGradGradGradGradGradGrad
 Berny optimization.
 FormGI is forming the generalized inverse of G from B-inverse, IUseBI=4.
 Internal  Forces:  Max     0.024174704 RMS     0.006171882
 Search for a local minimum.
 Step number   1 out of a maximum of   93
 All quantities printed in internal units (Hartrees-Bohrs-Radians)
 RMS Force = .61719D-02 SwitMx=.10000D-02 MixMth= 1
 Mixed Optimization -- RFO/linear search
 Second derivative matrix not updated -- first step.
 ITU=  0
     Eigenvalues ---    0.00230   0.00237   0.00404   0.00552   0.00704
     Eigenvalues ---    0.00741   0.04390   0.05028   0.05410   0.05427
     Eigenvalues ---    0.05536   0.05541   0.05550   0.06131   0.07176
     Eigenvalues ---    0.07478   0.15591   0.15790   0.16000   0.16000
     Eigenvalues ---    0.16000   0.16000   0.16000   0.16000   0.16000
     Eigenvalues ---    0.16000   0.16000   0.16000   0.16000   0.24997
     Eigenvalues ---    0.25000   0.28178   0.28521   0.29672   0.31891
     Eigenvalues ---    0.32453   0.32457   0.32465   0.32469   0.32562
     Eigenvalues ---    0.32584   0.32598   0.32609   0.32826   0.35515
     Eigenvalues ---    0.40306   0.40317   0.94124
 RFO step:  Lambda=-1.13546028D-02 EMin= 2.30000000D-03
 Linear search not attempted -- first point.
 Iteration  1 RMS(Cart)=  0.05302941 RMS(Int)=  0.00150033
 Iteration  2 RMS(Cart)=  0.00190275 RMS(Int)=  0.00023650
 Iteration  3 RMS(Cart)=  0.00000251 RMS(Int)=  0.00023649
 Iteration  4 RMS(Cart)=  0.00000000 RMS(Int)=  0.00023649
 ITry= 1 IFail=0 DXMaxC= 1.87D-01 DCOld= 1.00D+10 DXMaxT= 3.00D-01 DXLimC= 3.00D+00 Rises=F
 Variable       Old X    -DE/DX   Delta X   Delta X   Delta X     New X
                                 (Linear)    (Quad)   (Total)
    R1        2.84345   0.00901   0.00000   0.02727   0.02727   2.87072
    R2        2.09358  -0.00901   0.00000  -0.02652  -0.02652   2.06706
    R3        2.09788  -0.01093   0.00000  -0.03242  -0.03242   2.06546
    R4        2.09764  -0.01062   0.00000  -0.03149  -0.03149   2.06615
    R5        2.31088  -0.01636   0.00000  -0.01717  -0.01717   2.29371
    R6        2.88623   0.00372   0.00000   0.01207   0.01207   2.89829
    R7        2.91013  -0.00005   0.00000  -0.00016  -0.00016   2.90997
    R8        2.91751   0.00469   0.00000   0.01600   0.01600   2.93351
    R9        2.78147  -0.00349   0.00000  -0.00952  -0.00952   2.77195
   R10        2.10022  -0.01109   0.00000  -0.03301  -0.03301   2.06721
   R11        2.10015  -0.01013   0.00000  -0.03017  -0.03017   2.06998
   R12        2.09827  -0.01057   0.00000  -0.03138  -0.03138   2.06689
   R13        2.09744  -0.00825   0.00000  -0.02445  -0.02445   2.07299
   R14        2.10000  -0.01077   0.00000  -0.03206  -0.03206   2.06795
   R15        2.09995  -0.00978   0.00000  -0.02912  -0.02912   2.07083
   R16        1.97839  -0.02417   0.00000  -0.05833  -0.05833   1.92006
   R17        1.97825  -0.02384   0.00000  -0.05752  -0.05752   1.92073
    A1        1.95782   0.00597   0.00000   0.04146   0.04135   1.99917
    A2        1.90988  -0.00175   0.00000  -0.01304  -0.01326   1.89662
    A3        1.90972  -0.00108   0.00000  -0.00999  -0.01021   1.89951
    A4        1.88960  -0.00053   0.00000   0.00417   0.00406   1.89367
    A5        1.89391  -0.00125   0.00000  -0.00165  -0.00176   1.89215
    A6        1.90207  -0.00151   0.00000  -0.02240  -0.02275   1.87933
    A7        2.05758   0.00885   0.00000   0.03416   0.03351   2.09109
    A8        2.13358  -0.01441   0.00000  -0.05484  -0.05548   2.07809
    A9        2.09191   0.00558   0.00000   0.02162   0.02099   2.11290
   A10        1.90814   0.00290   0.00000  -0.00376  -0.00420   1.90394
   A11        1.92271  -0.00327   0.00000  -0.02123  -0.02081   1.90189
   A12        1.91300  -0.00313   0.00000  -0.03053  -0.03049   1.88251
   A13        1.91859  -0.00100   0.00000   0.00377   0.00348   1.92207
   A14        1.89262  -0.00334   0.00000  -0.01744  -0.01840   1.87422
   A15        1.90850   0.00782   0.00000   0.06908   0.06919   1.97769
   A16        1.92365   0.00100   0.00000   0.00730   0.00726   1.93090
   A17        1.92828  -0.00130   0.00000  -0.01040  -0.01038   1.91789
   A18        1.94526   0.00098   0.00000   0.00714   0.00710   1.95236
   A19        1.88901  -0.00023   0.00000  -0.00409  -0.00408   1.88494
   A20        1.89430  -0.00032   0.00000   0.00351   0.00342   1.89772
   A21        1.88179  -0.00019   0.00000  -0.00378  -0.00377   1.87802
   A22        1.94677   0.00517   0.00000   0.03340   0.03333   1.98009
   A23        1.92699  -0.00273   0.00000  -0.01842  -0.01835   1.90864
   A24        1.92646   0.00131   0.00000   0.00694   0.00676   1.93323
   A25        1.87938  -0.00103   0.00000  -0.00461  -0.00447   1.87492
   A26        1.89288  -0.00278   0.00000  -0.01154  -0.01182   1.88106
   A27        1.88966  -0.00013   0.00000  -0.00703  -0.00705   1.88261
   A28        1.91065   0.00160   0.00000   0.00677   0.00675   1.91739
   A29        1.91441  -0.00468   0.00000  -0.02990  -0.02992   1.88449
   A30        1.85970   0.00082   0.00000  -0.00060  -0.00065   1.85906
    D1        3.10510   0.00064   0.00000   0.03161   0.03170   3.13680
    D2       -0.02002  -0.00047   0.00000  -0.03467  -0.03477  -0.05479
    D3        1.00763  -0.00135   0.00000   0.00844   0.00864   1.01627
    D4       -2.11750  -0.00246   0.00000  -0.05784  -0.05783  -2.17533
    D5       -1.07530   0.00220   0.00000   0.04964   0.04964  -1.02566
    D6        2.08276   0.00109   0.00000  -0.01664  -0.01683   2.06593
    D7        1.09967   0.00054   0.00000  -0.01798  -0.01804   1.08162
    D8       -1.01046   0.00198   0.00000  -0.00690  -0.00691  -1.01737
    D9       -3.11120  -0.00365   0.00000  -0.05963  -0.05987   3.11212
   D10       -2.02514  -0.00062   0.00000  -0.08563  -0.08548  -2.11062
   D11        2.14791   0.00083   0.00000  -0.07454  -0.07435   2.07357
   D12        0.04718  -0.00480   0.00000  -0.12727  -0.12730  -0.08012
   D13        1.01822   0.00023   0.00000   0.01210   0.01215   1.03037
   D14        3.10509  -0.00024   0.00000   0.00507   0.00509   3.11018
   D15       -1.08627  -0.00070   0.00000  -0.00194  -0.00195  -1.08822
   D16        3.13084  -0.00260   0.00000  -0.01414  -0.01394   3.11691
   D17       -1.06547  -0.00307   0.00000  -0.02117  -0.02099  -1.08646
   D18        1.02636  -0.00353   0.00000  -0.02819  -0.02804   0.99832
   D19       -1.06674   0.00429   0.00000   0.06149   0.06132  -1.00542
   D20        1.02014   0.00383   0.00000   0.05446   0.05426   1.07440
   D21        3.11196   0.00337   0.00000   0.04744   0.04722  -3.12400
   D22        1.13004   0.00051   0.00000  -0.02103  -0.02088   1.10916
   D23       -3.06422   0.00077   0.00000  -0.01729  -0.01730  -3.08152
   D24       -0.97556  -0.00031   0.00000  -0.03337  -0.03341  -1.00897
   D25       -0.97381  -0.00037   0.00000  -0.00524  -0.00481  -0.97863
   D26        1.11511  -0.00011   0.00000  -0.00150  -0.00123   1.11388
   D27       -3.07941  -0.00118   0.00000  -0.01758  -0.01733  -3.09675
   D28       -3.04970  -0.00044   0.00000  -0.02822  -0.02846  -3.07816
   D29       -0.96077  -0.00019   0.00000  -0.02449  -0.02488  -0.98565
   D30        1.12789  -0.00126   0.00000  -0.04057  -0.04098   1.08690
   D31        1.12189  -0.00097   0.00000  -0.04089  -0.04128   1.08061
   D32       -3.12657  -0.00174   0.00000  -0.05488  -0.05525   3.10137
   D33       -3.07939  -0.00126   0.00000  -0.07359  -0.07338   3.13042
   D34       -1.04467  -0.00204   0.00000  -0.08758  -0.08734  -1.13201
   D35       -0.98746   0.00012   0.00000  -0.03894  -0.03879  -1.02626
   D36        1.04726  -0.00065   0.00000  -0.05293  -0.05276   0.99450
         Item               Value     Threshold  Converged?
 Maximum Force            0.024175     0.000450     NO 
 RMS     Force            0.006172     0.000300     NO 
 Maximum Displacement     0.187028     0.001800     NO 
 RMS     Displacement     0.053109     0.001200     NO 
 Predicted change in Energy=-6.309502D-03
 Lowest energy point so far.  Saving SCF results.
 GradGradGradGradGradGradGradGradGradGradGradGradGradGradGradGradGradGrad

 Leave Link  103 at Sun Aug 21 07:46:01 2022, MaxMem=    23592960 cpu:         3.9
 (Enter /public/home/users/caep010/software/Gaussian09/g09/l202.exe)
                          Input orientation:                          
 ---------------------------------------------------------------------
 Center     Atomic      Atomic             Coordinates (Angstroms)
 Number     Number       Type             X           Y           Z
 ---------------------------------------------------------------------
      1          6           0        2.114936   -0.074826    0.080875
      2          6           0        0.901365   -0.278501   -0.809904
      3          8           0        1.045340   -0.701971   -1.938268
      4          6           0       -0.495892   -0.005618   -0.239398
      5          6           0       -0.595899    1.478305    0.159634
      6          6           0       -0.718936   -0.909069    1.003105
      7          7           0       -1.472014   -0.238522   -1.309261
      8          1           0        1.886921    0.314201    1.077448
      9          1           0        2.799617    0.618770   -0.413870
     10          1           0        2.634342   -1.030299    0.193656
     11          1           0       -0.415143    2.123097   -0.705369
     12          1           0       -1.600179    1.695156    0.539467
     13          1           0        0.118390    1.737541    0.946324
     14          1           0       -0.030027   -0.693322    1.829070
     15          1           0       -1.736497   -0.764377    1.378807
     16          1           0       -0.604946   -1.966713    0.739945
     17          1           0       -1.430169   -1.208282   -1.609552
     18          1           0       -2.401110   -0.095569   -0.922707
 ---------------------------------------------------------------------
                    Distance matrix (angstroms):
                    1          2          3          4          5
     1  C    0.000000
     2  C    1.519119   0.000000
     3  O    2.369448   1.213780   0.000000
     4  C    2.631309   1.533711   2.397178   0.000000
     5  C    3.125228   2.503632   3.442160   1.539889   0.000000
     6  C    3.094722   2.511970   3.436166   1.552348   2.534983
     7  N    3.850387   2.425672   2.635812   1.466855   2.423371
     8  H    1.093842   2.210139   3.291718   2.741198   2.891698
     9  H    1.092994   2.136655   2.673131   3.358673   3.549259
    10  H    1.093358   2.139052   2.679147   3.322029   4.090075
    11  H    3.442433   2.740765   3.410874   2.180614   1.093919
    12  H    4.140679   3.460325   4.345591   2.172260   1.095388
    13  H    2.831938   2.786003   3.889901   2.195879   1.093752
    14  H    2.835417   2.829090   3.917821   2.229019   2.796997
    15  H    4.122335   3.461914   4.329607   2.175638   2.795885
    16  H    3.378072   2.742456   3.390552   2.194744   3.493565
    17  H    4.087792   2.634385   2.548049   2.048560   3.323218
    18  H    4.626259   3.309461   3.643776   2.026044   2.628179
                    6          7          8          9         10
     6  C    0.000000
     7  N    2.522656   0.000000
     8  H    2.879654   4.157442   0.000000
     9  H    4.089294   4.447865   1.774769   0.000000
    10  H    3.451721   4.443853   1.774094   1.765172   0.000000
    11  H    3.493595   2.656860   3.427833   3.561271   4.477891
    12  H    2.788106   2.678308   3.788975   4.628786   5.047659
    13  H    2.776487   3.394388   2.273938   3.207921   3.815425
    14  H    1.096978   3.483574   2.292319   3.841777   3.144359
    15  H    1.094311   2.751760   3.792533   5.069824   4.536466
    16  H    1.095837   2.817392   3.394979   4.427986   3.415888
    17  H    2.724217   1.016051   4.532220   4.760133   4.450112
    18  H    2.683326   1.016405   4.749288   5.274159   5.241733
                   11         12         13         14         15
    11  H    0.000000
    12  H    1.771175   0.000000
    13  H    1.778033   1.766581   0.000000
    14  H    3.808400   3.135806   2.590437   0.000000
    15  H    3.798325   2.602380   3.144398   1.766303   0.000000
    16  H    4.341832   3.799996   3.779855   1.771511   1.770357
    17  H    3.598043   3.616233   4.196238   3.748293   3.036639
    18  H    2.985595   2.446658   3.633379   3.681252   2.487163
                   16         17         18
    16  H    0.000000
    17  H    2.603142   0.000000
    18  H    3.080876   1.628684   0.000000
 Stoichiometry    C5H11NO
 Framework group  C1[X(C5H11NO)]
 Deg. of freedom    48
 Full point group                 C1      NOp   1
 RotChk:  IX=2 Diff= 3.76D-02
 Largest Abelian subgroup         C1      NOp   1
 Largest concise Abelian subgroup C1      NOp   1
                         Standard orientation:                         
 ---------------------------------------------------------------------
 Center     Atomic      Atomic             Coordinates (Angstroms)
 Number     Number       Type             X           Y           Z
 ---------------------------------------------------------------------
      1          6           0        1.901808   -0.849144   -0.003196
      2          6           0        0.903809    0.295635    0.031489
      3          8           0        1.300879    1.442624    0.027887
      4          6           0       -0.596280   -0.022525    0.003614
      5          6           0       -0.959751   -0.845745    1.253196
      6          6           0       -0.916571   -0.832449   -1.281384
      7          7           0       -1.326970    1.246643    0.087097
      8          1           0        1.450788   -1.845616    0.007612
      9          1           0        2.566595   -0.759995    0.859790
     10          1           0        2.513688   -0.756789   -0.904586
     11          1           0       -0.714003   -0.292370    2.164263
     12          1           0       -2.035276   -1.053173    1.262887
     13          1           0       -0.437398   -1.806476    1.274109
     14          1           0       -0.420256   -1.810108   -1.316268
     15          1           0       -1.994837   -1.010101   -1.338822
     16          1           0       -0.619646   -0.274372   -2.176507
     17          1           0       -1.105324    1.826090   -0.717561
     18          1           0       -2.320671    1.040788    0.029998
 ---------------------------------------------------------------------
 Rotational constants (GHZ):      3.2423259      2.3093211      1.9387287
 Leave Link  202 at Sun Aug 21 07:46:01 2022, MaxMem=    23592960 cpu:         0.3
 (Enter /public/home/users/caep010/software/Gaussian09/g09/l301.exe)
 Standard basis: GTBas3 (6D, 7F)
 Ernie: Thresh=  0.10000D-02 Tol=  0.10000D-05 Strict=F.
 There are   272 symmetry adapted cartesian basis functions of A   symmetry.
 There are   251 symmetry adapted basis functions of A   symmetry.
   251 basis functions,   385 primitive gaussians,   272 cartesian basis functions
    28 alpha electrons       28 beta electrons
       nuclear repulsion energy       326.7185074283 Hartrees.
 IExCor=  402 DFT=T Ex+Corr=B3LYP ExCW=0 ScaHFX=  0.200000
 ScaDFX=  0.800000  0.720000  1.000000  0.810000 ScalE2=  1.000000  1.000000
 IRadAn=      0 IRanWt=     -1 IRanGd=            0 ICorTp=0 IEmpDi=  4
 NAtoms=   18 NActive=   18 NUniq=   18 SFac= 1.00D+00 NAtFMM=   60 NAOKFM=F Big=F
 Integral buffers will be    131072 words long.
 Raffenetti 2 integral format.
 Two-electron integral symmetry is turned on.
 Leave Link  301 at Sun Aug 21 07:46:01 2022, MaxMem=    23592960 cpu:         1.7
 (Enter /public/home/users/caep010/software/Gaussian09/g09/l302.exe)
 NPDir=0 NMtPBC=     1 NCelOv=     1 NCel=       1 NClECP=     1 NCelD=      1
         NCelK=      1 NCelE2=     1 NClLst=     1 CellRange=     0.0.
 One-electron integrals computed using PRISM.
 PrsmSu:  requested number of processors reduced to:   3 ShMem   1 Linda.
 PrsmSu:  requested number of processors reduced to:  11 ShMem   1 Linda.
 NBasis=   251 RedAO= T EigKep=  3.84D-04  NBF=   251
 NBsUse=   251 1.00D-06 EigRej= -1.00D+00 NBFU=   251
 Precomputing XC quadrature grid using
 IXCGrd= 4 IRadAn=           0 IRanWt=          -1 IRanGd=           0 AccXCQ= 0.00D+00.
 Generated NRdTot=       0 NPtTot=           0 NUsed=           0 NTot=          32
 NSgBfM=   272   272   272   272   272 MxSgAt=    18 MxSgA2=    18.
 Leave Link  302 at Sun Aug 21 07:46:02 2022, MaxMem=    23592960 cpu:         5.0
 (Enter /public/home/users/caep010/software/Gaussian09/g09/l303.exe)
 DipDrv:  MaxL=1.
 Leave Link  303 at Sun Aug 21 07:46:02 2022, MaxMem=    23592960 cpu:         0.8
 (Enter /public/home/users/caep010/software/Gaussian09/g09/l401.exe)
 Initial guess from the checkpoint file:  "G4.Frag_603.chk"
 B after Tr=    -0.000000   -0.000000    0.000000
         Rot=    0.999958   -0.000198    0.009106    0.001339 Ang=  -1.05 deg.
 Guess basis will be translated and rotated to current coordinates.
 JPrj=2 DoOrth=T DoCkMO=T.
 Generating alternative initial guess.
 ExpMin= 1.61D-01 ExpMax= 5.48D+03 ExpMxC= 8.25D+02 IAcc=1 IRadAn=         1 AccDes= 0.00D+00
 Harris functional with IExCor=  402 and IRadAn=       1 diagonalized for initial guess.
 HarFok:  IExCor=  402 AccDes= 0.00D+00 IRadAn=         1 IDoV= 1 UseB2=F ITyADJ=14
 ICtDFT=  3500011 ScaDFX=  1.000000  1.000000  1.000000  1.000000
 CalDSu:  requested number of processors reduced to:  18 ShMem   1 Linda.
 FoFCou: FMM=F IPFlag=           0 FMFlag=      100000 FMFlg1=           0
         NFxFlg=           0 DoJE=T BraDBF=F KetDBF=T FulRan=T
         wScrn=  0.000000 ICntrl=     500 IOpCl=  0 I1Cent=   200000004 NGrid=           0
         NMat0=    1 NMatS0=      1 NMatT0=    0 NMatD0=    1 NMtDS0=    0 NMtDT0=    0
 Petite list used in FoFCou.
 CoulSu:  requested number of processors reduced to:  11 ShMem   1 Linda.
 CoulSu:  requested number of processors reduced to:  11 ShMem   1 Linda.
 CoulSu:  requested number of processors reduced to:  12 ShMem   1 Linda.
 CoulSu:  requested number of processors reduced to:  12 ShMem   1 Linda.
 Harris En= -327.213045781093    
 Leave Link  401 at Sun Aug 21 07:46:02 2022, MaxMem=    23592960 cpu:         9.1
 (Enter /public/home/users/caep010/software/Gaussian09/g09/l502.exe)
 Closed shell SCF:
 Using DIIS extrapolation, IDIIS=  1040.
 Integral symmetry usage will be decided dynamically.
 IVT=      251200 IEndB=      251200 NGot=    23592960 MDV=    23432657
 LenX=    23432657 LenY=    23358232
 Requested convergence on RMS density matrix=1.00D-08 within 128 cycles.
 Requested convergence on MAX density matrix=1.00D-06.
 Requested convergence on             energy=1.00D-06.
 No special actions if energy rises.
 Fock matrices will be formed incrementally for  20 cycles.
 Integral accuracy reduced to 1.0D-05 until final iterations.

 Cycle   1  Pass 0  IDiag  1:
 FoFJK:  IHMeth= 1 ICntrl=       0 DoSepK=F KAlg= 0 I1Cent=   0 FoldK=F
 IRaf= 970000000 NMat=   1 IRICut=       1 DoRegI=T DoRafI=F ISym2E= 0.
 FoFCou: FMM=F IPFlag=           0 FMFlag=      100000 FMFlg1=           0
         NFxFlg=           0 DoJE=F BraDBF=F KetDBF=F FulRan=T
         wScrn=  0.000000 ICntrl=       0 IOpCl=  0 I1Cent=           0 NGrid=           0
         NMat0=    1 NMatS0=      1 NMatT0=    0 NMatD0=    1 NMtDS0=    0 NMtDT0=    0
 Symmetry not used in FoFCou.
 CoulSu:  requested number of processors reduced to:  11 ShMem   1 Linda.
 CalDSu:  requested number of processors reduced to:  18 ShMem   1 Linda.
 E= -327.144885383172    
 DIIS: error= 4.76D-03 at cycle   1 NSaved=   1.
 NSaved= 1 IEnMin= 1 EnMin= -327.144885383172     IErMin= 1 ErrMin= 4.76D-03
 ErrMax= 4.76D-03  0.00D+00 EMaxC= 1.00D-01 BMatC= 4.92D-03 BMatP= 4.92D-03
 IDIUse=3 WtCom= 9.52D-01 WtEn= 4.76D-02
 Coeff-Com:  0.100D+01
 Coeff-En:   0.100D+01
 Coeff:      0.100D+01
 Gap=     1.042 Goal=   None    Shift=    0.000
 GapD=    1.042 DampG=2.000 DampE=1.000 DampFc=2.0000 IDamp=-1.
 RMSDP=4.57D-04 MaxDP=2.05D-02              OVMax= 2.37D-02

 Cycle   2  Pass 0  IDiag  1:
 RMSU=  4.57D-04    CP:  9.99D-01
 CoulSu:  requested number of processors reduced to:  11 ShMem   1 Linda.
 CalDSu:  requested number of processors reduced to:  18 ShMem   1 Linda.
 E= -327.151505017622     Delta-E=       -0.006619634449 Rises=F Damp=F
 DIIS: error= 8.31D-04 at cycle   2 NSaved=   2.
 NSaved= 2 IEnMin= 2 EnMin= -327.151505017622     IErMin= 2 ErrMin= 8.31D-04
 ErrMax= 8.31D-04  0.00D+00 EMaxC= 1.00D-01 BMatC= 4.83D-04 BMatP= 4.92D-03
 IDIUse=3 WtCom= 9.92D-01 WtEn= 8.31D-03
 Coeff-Com:  0.843D-01 0.916D+00
 Coeff-En:   0.000D+00 0.100D+01
 Coeff:      0.836D-01 0.916D+00
 Gap=     0.225 Goal=   None    Shift=    0.000
 RMSDP=1.73D-04 MaxDP=9.96D-03 DE=-6.62D-03 OVMax= 1.27D-02

 Cycle   3  Pass 0  IDiag  1:
 RMSU=  1.73D-04    CP:  9.99D-01  9.87D-01
 CoulSu:  requested number of processors reduced to:  11 ShMem   1 Linda.
 CalDSu:  requested number of processors reduced to:  18 ShMem   1 Linda.
 E= -327.151149897460     Delta-E=        0.000355120162 Rises=F Damp=F
 DIIS: error= 2.29D-03 at cycle   3 NSaved=   3.
 NSaved= 3 IEnMin= 2 EnMin= -327.151505017622     IErMin= 2 ErrMin= 8.31D-04
 ErrMax= 2.29D-03  0.00D+00 EMaxC= 1.00D-01 BMatC= 1.03D-03 BMatP= 4.83D-04
 IDIUse=3 WtCom= 1.73D-01 WtEn= 8.27D-01
 Coeff-Com: -0.266D-01 0.611D+00 0.415D+00
 Coeff-En:   0.000D+00 0.634D+00 0.366D+00
 Coeff:     -0.460D-02 0.630D+00 0.375D+00
 Gap=     0.227 Goal=   None    Shift=    0.000
 RMSDP=1.05D-04 MaxDP=7.34D-03 DE= 3.55D-04 OVMax= 9.25D-03

 Cycle   4  Pass 0  IDiag  1:
 RMSU=  4.06D-05    CP:  9.99D-01  1.04D+00  4.60D-01
 CoulSu:  requested number of processors reduced to:  11 ShMem   1 Linda.
 CalDSu:  requested number of processors reduced to:  18 ShMem   1 Linda.
 E= -327.151902933188     Delta-E=       -0.000753035729 Rises=F Damp=F
 DIIS: error= 4.20D-04 at cycle   4 NSaved=   4.
 NSaved= 4 IEnMin= 4 EnMin= -327.151902933188     IErMin= 4 ErrMin= 4.20D-04
 ErrMax= 4.20D-04  0.00D+00 EMaxC= 1.00D-01 BMatC= 3.12D-05 BMatP= 4.83D-04
 IDIUse=3 WtCom= 9.96D-01 WtEn= 4.20D-03
 Coeff-Com: -0.201D-01 0.290D+00 0.209D+00 0.520D+00
 Coeff-En:   0.000D+00 0.000D+00 0.000D+00 0.100D+01
 Coeff:     -0.200D-01 0.289D+00 0.209D+00 0.522D+00
 Gap=     0.227 Goal=   None    Shift=    0.000
 RMSDP=2.45D-05 MaxDP=9.08D-04 DE=-7.53D-04 OVMax= 1.71D-03

 Cycle   5  Pass 0  IDiag  1:
 RMSU=  1.48D-05    CP:  9.99D-01  1.05D+00  4.52D-01  5.44D-01
 CoulSu:  requested number of processors reduced to:  11 ShMem   1 Linda.
 CalDSu:  requested number of processors reduced to:  18 ShMem   1 Linda.
 E= -327.151930487835     Delta-E=       -0.000027554647 Rises=F Damp=F
 DIIS: error= 6.19D-05 at cycle   5 NSaved=   5.
 NSaved= 5 IEnMin= 5 EnMin= -327.151930487835     IErMin= 5 ErrMin= 6.19D-05
 ErrMax= 6.19D-05  0.00D+00 EMaxC= 1.00D-01 BMatC= 2.13D-06 BMatP= 3.12D-05
 IDIUse=1 WtCom= 1.00D+00 WtEn= 0.00D+00
 Coeff-Com: -0.566D-02 0.559D-01 0.429D-01 0.231D+00 0.676D+00
 Coeff:     -0.566D-02 0.559D-01 0.429D-01 0.231D+00 0.676D+00
 Gap=     0.227 Goal=   None    Shift=    0.000
 RMSDP=6.08D-06 MaxDP=2.59D-04 DE=-2.76D-05 OVMax= 3.04D-04

 Initial convergence to 1.0D-05 achieved.  Increase integral accuracy.
 Cycle   6  Pass 1  IDiag  1:
 CoulSu:  requested number of processors reduced to:  11 ShMem   1 Linda.
 CalDSu:  requested number of processors reduced to:  18 ShMem   1 Linda.
 E= -327.151913318640     Delta-E=        0.000017169195 Rises=F Damp=F
 DIIS: error= 5.15D-05 at cycle   1 NSaved=   1.
 NSaved= 1 IEnMin= 1 EnMin= -327.151913318640     IErMin= 1 ErrMin= 5.15D-05
 ErrMax= 5.15D-05  0.00D+00 EMaxC= 1.00D-01 BMatC= 4.60D-07 BMatP= 4.60D-07
 IDIUse=1 WtCom= 1.00D+00 WtEn= 0.00D+00
 Coeff-Com:  0.100D+01
 Coeff:      0.100D+01
 Gap=     0.227 Goal=   None    Shift=    0.000
 RMSDP=6.08D-06 MaxDP=2.59D-04 DE= 1.72D-05 OVMax= 2.45D-04

 Cycle   7  Pass 1  IDiag  1:
 RMSU=  6.64D-06    CP:  1.00D+00
 CoulSu:  requested number of processors reduced to:  11 ShMem   1 Linda.
 CalDSu:  requested number of processors reduced to:  18 ShMem   1 Linda.
 E= -327.151913418200     Delta-E=       -0.000000099560 Rises=F Damp=F
 DIIS: error= 2.03D-05 at cycle   2 NSaved=   2.
 NSaved= 2 IEnMin= 2 EnMin= -327.151913418200     IErMin= 2 ErrMin= 2.03D-05
 ErrMax= 2.03D-05  0.00D+00 EMaxC= 1.00D-01 BMatC= 2.74D-07 BMatP= 4.60D-07
 IDIUse=1 WtCom= 1.00D+00 WtEn= 0.00D+00
 Coeff-Com:  0.417D+00 0.583D+00
 Coeff:      0.417D+00 0.583D+00
 Gap=     0.227 Goal=   None    Shift=    0.000
 RMSDP=2.84D-06 MaxDP=1.56D-04 DE=-9.96D-08 OVMax= 1.55D-04

 Cycle   8  Pass 1  IDiag  1:
 RMSU=  2.52D-06    CP:  1.00D+00  8.04D-01
 CoulSu:  requested number of processors reduced to:  11 ShMem   1 Linda.
 CalDSu:  requested number of processors reduced to:  18 ShMem   1 Linda.
 E= -327.151913608719     Delta-E=       -0.000000190520 Rises=F Damp=F
 DIIS: error= 8.30D-06 at cycle   3 NSaved=   3.
 NSaved= 3 IEnMin= 3 EnMin= -327.151913608719     IErMin= 3 ErrMin= 8.30D-06
 ErrMax= 8.30D-06  0.00D+00 EMaxC= 1.00D-01 BMatC= 5.07D-08 BMatP= 2.74D-07
 IDIUse=1 WtCom= 1.00D+00 WtEn= 0.00D+00
 Coeff-Com:  0.601D-02 0.298D+00 0.696D+00
 Coeff:      0.601D-02 0.298D+00 0.696D+00
 Gap=     0.227 Goal=   None    Shift=    0.000
 RMSDP=9.03D-07 MaxDP=5.37D-05 DE=-1.91D-07 OVMax= 5.40D-05

 Cycle   9  Pass 1  IDiag  1:
 RMSU=  3.65D-07    CP:  1.00D+00  8.75D-01  7.31D-01
 CoulSu:  requested number of processors reduced to:  11 ShMem   1 Linda.
 CalDSu:  requested number of processors reduced to:  18 ShMem   1 Linda.
 E= -327.151913649084     Delta-E=       -0.000000040365 Rises=F Damp=F
 DIIS: error= 5.16D-06 at cycle   4 NSaved=   4.
[...]
 ,0,2.3061062205,1.0493640697,-0.2604935115\H,0,2.9707471002,-0.6001831
 111,-0.3142488536\H,0,-0.2028776006,2.103327884,-0.6607122944\H,0,-1.4
 945276694,1.7852798431,0.4981743247\H,0,0.1884974915,1.6844295848,1.02
 77204126\H,0,-0.1355673892,-0.7518764449,1.8512961874\H,0,-1.838123452
 5,-0.5968587294,1.4090944612\H,0,-0.8758509543,-1.9379198359,0.7560685
 304\H,0,-1.1784872233,-1.0053199794,-1.8354520072\H,0,-2.3891487968,-0
 .3536900769,-0.9355952667\\Version=ES64L-G09RevE.01\State=1-A\MP2/GTBa
 s1=-326.0442771\MP4/GTBas1=-326.142175\CCSD(T)/G3Bas1=-326.1404344\MP2
 /GTBas2=-326.0672768\MP4/GTBas2=-326.1667096\MP2/GTBas3=-326.319092\MP
 4/GTBas3=-326.4338783\HF/GTLargeXP=-325.1692349\MP2/GTLargeXP=-326.781
 466\HF/GFHFB1=-325.1944575\HF/GFHFB2=-325.1998314\G4=-326.9186747\Freq
 Coord=4.0038714021,0.0043879036,0.0046519007,1.6472820339,-0.920664065
 5,-1.3402855804,1.7906966188,-2.3894330545,-3.0889772325,-0.9571557752
 ,-0.0087797128,-0.3871028808,-0.9220521568,2.8004996238,0.3633544824,-
 1.6050893837,-1.6610817221,1.9471982637,-2.7551993425,-0.3518235075,-2
 .4613815751,3.8041590365,-0.074414028,2.0602029941,4.3579091901,1.9830
 107054,-0.4922613962,5.6138984294,-1.1341817095,-0.593844271,-0.383383
 1037,3.9747136684,-1.248565289,-2.8242479932,3.373689974,0.9414130401,
 0.3562086356,3.1831106054,1.9421101209,-0.2561852382,-1.4208405666,3.4
 984427851,-3.4735499236,-1.1278995386,2.662802627,-1.6551184368,-3.662
 1377573,1.4287624601,-2.2270181032,-1.899779437,-3.4685016236,-4.51483
 69167,-0.6683773812,-1.7680188254\PG=C01 [X(C5H11N1O1)]\NImag=0\\0.501
 25552,-0.05177367,0.53375609,-0.04814377,0.01479570,0.53787608,-0.1699
 5402,-0.01205473,-0.02781656,0.47945582,-0.01777635,-0.08405786,-0.001
 79989,-0.01845408,0.53580792,-0.02877691,-0.00075570,-0.09515127,0.003
 51752,0.34409533,0.66220515,0.00962308,-0.02376974,-0.03204133,-0.1096
 7959,0.02624032,0.02737031,0.11327110,-0.00868196,-0.00759607,-0.03801
 863,0.02981465,-0.34765084,-0.33122934,-0.03478424,0.36050941,-0.01377
 394,-0.03871527,-0.02167237,0.02866719,-0.33207085,-0.46483312,-0.0295
 0147,0.40067812,0.50590756,-0.01519864,0.00603218,0.00537584,-0.142270
 96,0.01219966,0.00736914,-0.00020393,0.01439085,0.01489240,0.47713564,
 -0.00661541,0.01306550,-0.00322323,0.00954386,-0.08147539,0.00139878,0
 .02617981,-0.00393538,-0.03202860,0.00065256,0.46638218,-0.01353784,-0
 .00069574,0.01401876,-0.00248258,0.00318317,-0.07142845,0.02626428,-0.
 03171237,-0.02002814,0.01693524,0.04911415,0.45057709,-0.00259536,-0.0
 0162924,0.00162019,0.00721746,0.02998917,0.00520564,-0.00663474,0.0008
 4493,0.00628244,-0.07667746,0.01058063,0.00127778,0.56974775,0.0007259
 1,0.00088126,0.00013110,0.00832604,-0.01465538,-0.00722463,-0.00055322
 ,0.00172904,0.00292838,-0.00220725,-0.16446376,-0.01862311,0.00426965,
 0.46007802,0.00091410,0.00050184,-0.00024996,0.00299404,-0.01209901,-0
 .00484651,0.00175562,0.00001851,-0.00036487,-0.00020649,-0.01947022,-0
 .07290918,0.00501346,-0.03319675,0.57549645,-0.00106085,0.00160218,-0.
 00291198,-0.00576266,-0.01738137,0.02694642,-0.00235765,0.00404009,-0.
 00058720,-0.08243007,-0.02272824,0.03003765,0.00189783,-0.00067081,0.0
 0114189,0.55655510,0.00034928,-0.00055290,0.00075343,-0.00676867,0.008
 60876,-0.00097036,0.00199295,-0.00565948,-0.00274237,-0.00810397,-0.09
 723501,0.02805530,-0.01146981,-0.02899821,0.02834128,-0.01602261,0.530
 34959,0.00018057,-0.00021723,0.00110233,0.01684588,0.00343787,-0.01785
 025,-0.00061691,0.00144588,0.00350070,0.01104978,0.03500660,-0.1111075
 9,0.00015035,0.00038355,0.00585947,0.02809286,0.06667022,0.48193124,-0
 .00324789,0.00267474,0.00310336,-0.04042610,0.00082394,-0.02354927,-0.
 00454397,-0.00352510,-0.00513900,-0.13486522,0.01276808,-0.06000915,-0
 .00279331,-0.00434248,-0.00556073,-0.00161755,0.00196876,-0.00602726,0
 .62388048,0.00079597,0.00065948,-0.00072045,0.00181308,0.00149245,0.00
 657937,0.00343828,0.00079858,-0.00064124,-0.01614197,-0.07380484,-0.04
 589116,-0.02412511,-0.00697430,-0.02889610,0.01105160,0.00336848,0.013
 85590,-0.00821079,0.39210868,0.00280280,-0.00015415,-0.00127691,0.0005
 0421,0.00252448,0.00498442,0.00404895,-0.00156371,0.00163957,-0.035175
 97,-0.00847980,-0.14357820,-0.01695921,-0.01073545,-0.01845008,-0.0296
 1434,-0.00124104,-0.03657532,-0.09645969,0.20370845,0.41604396,-0.0523
 4917,0.00280437,0.02522840,0.01056897,0.00585272,-0.02700121,-0.004985
 26,-0.00570764,-0.00198789,-0.00015359,-0.00107965,0.00201900,-0.00003
 367,0.00011900,-0.00004178,-0.00161378,0.00007301,-0.00043306,0.000408
 26,-0.00014638,0.00019861,0.05070582,0.00238170,-0.03957414,0.00968866
 ,0.00267334,-0.00180995,-0.01224957,-0.00390250,-0.00166863,-0.0011365
 1,0.00023859,0.00001532,0.00064639,0.00027635,-0.00002379,0.00081621,-
 0.00031226,-0.00012589,-0.00020736,0.00003854,-0.00023495,0.00000170,0
 .00118375,0.04398872,0.02619065,0.01158790,-0.30924458,0.00552018,0.00
 001000,-0.01432753,-0.00419991,-0.00106662,-0.00032489,-0.00089185,-0.
 00078805,-0.00015110,-0.00011731,-0.00033418,-0.00051652,0.00045305,0.
 00010081,-0.00056859,-0.00004368,0.00025271,0.00035745,-0.02983261,-0.
 01152986,0.33736763,-0.05340783,-0.04578457,0.01236987,-0.00123501,-0.
 02700272,0.01045745,-0.00198881,0.00097128,-0.00397197,-0.00037800,0.0
 0161264,-0.00163623,-0.00118208,-0.00008079,0.00050320,0.00049285,0.00
 010290,-0.00022806,-0.00028994,0.00065101,0.00019641,-0.00085700,-0.00
 244738,0.00101566,0.05367829,-0.04137476,-0.28528341,0.06385521,-0.001
 47142,-0.01156912,0.00024698,-0.00214445,0.00158586,-0.00066805,-0.000
 70627,-0.00015311,-0.00055093,0.00095683,-0.00035712,-0.00054840,0.000
 41438,-0.00001744,-0.00009424,-0.00020549,0.00021769,0.00007941,0.0003
 0379,-0.00129595,-0.00013416,0.04713908,0.31133387,0.01038578,0.059290
 74,-0.05301951,-0.00109208,-0.01762639,0.00356146,-0.00232632,0.001201
 58,-0.00379692,0.00000705,0.00157479,-0.00095356,-0.00036158,0.0001730
 0,0.00099504,0.00063250,-0.00019942,-0.00050520,-0.00003746,-0.0000201
 9,0.00003995,0.00612353,0.03194331,-0.00780545,-0.01116422,-0.06718310
 ,0.06009150,-0.21099141,0.11894026,0.06161863,-0.02676029,0.01768702,0
 .01025243,0.00590007,-0.00054410,0.00172266,-0.00116431,-0.00234319,-0
 .00361023,0.00047839,-0.00068661,-0.00032787,-0.00009093,0.00029209,-0
 .00016894,-0.00148283,0.00014904,0.00057535,-0.00119405,-0.00001421,-0
 .00010226,0.00551868,-0.00390187,-0.00243212,0.23021372,0.12208830,-0.
 13184039,-0.04454131,-0.01168303,0.00571159,0.00270687,0.00049107,0.00
 024963,0.00200864,-0.00109607,-0.00070104,-0.00208016,0.00025236,-0.00
 017061,-0.00043470,0.00018527,0.00003318,0.00000864,-0.00073926,0.0002
 1267,0.00029283,-0.00354111,0.00112248,0.00138533,0.02371585,-0.014913
 78,-0.00943535,-0.12951828,0.13986340,0.06472868,-0.04572474,-0.072584
 02,-0.01325449,0.01019122,0.00469583,0.00152676,0.00069763,0.00036340,
 -0.00113543,-0.00198330,-0.00094015,-0.00009149,-0.00043312,-0.0005543
 7,-0.00045910,0.00015625,-0.00023375,-0.00066213,0.00002202,0.00030109
 ,0.02404479,-0.01788824,-0.00662706,-0.00735571,0.00494620,0.00176986,
 -0.06752344,0.04992935,0.07275488,0.00015649,0.00014965,-0.00035678,0.
 00035439,0.00036548,-0.00043785,0.00003741,-0.00027578,-0.00024832,-0.
 00077767,0.00152606,-0.00084688,-0.06512058,-0.03942192,0.05529111,0.0
 0018430,-0.00000887,-0.00013811,-0.00029058,0.00034107,0.00017192,0.00
 007787,0.00003839,0.00015067,-0.00044017,0.00006545,-0.00006326,-0.000
 02657,-0.00017734,0.00015042,0.06671124,0.00006485,-0.00041725,0.00008
 031,-0.00156923,0.00100302,0.00169018,0.00021708,-0.00040639,-0.000675
 30,-0.00735111,-0.01860718,0.02545383,-0.03963969,-0.12841853,0.115754
 47,0.00045849,-0.00641934,-0.00326805,0.00118328,0.00279701,0.00029095
 ,-0.00008439,0.00007413,-0.00006753,0.00035669,0.00016261,0.00008878,0
 .00009087,0.00013210,-0.00006492,0.04194938,0.14223229,0.00008464,0.00
 025157,-0.00027623,0.00074555,0.00033935,0.00070508,-0.00045767,0.0002
 0740,0.00007162,-0.00347356,-0.00553514,0.00626431,0.05605370,0.118471
 61,-0.21329429,-0.00033870,-0.00145162,-0.00003710,0.00027972,-0.00006
 759,0.00128923,0.00007756,-0.00009981,0.00010909,-0.00037519,-0.000164
 86,0.00004598,-0.00007791,-0.00013872,0.00013906,-0.06162533,-0.128013
 84,0.22819927,-0.00021819,-0.00003150,0.00017713,0.00069058,-0.0011727
 7,-0.00057565,0.00042590,0.00039293,0.00014407,-0.00102120,-0.00068668
 ,-0.00010130,-0.27111971,0.06461716,0.06742296,0.00049028,-0.00027361,
 -0.00026083,0.00160950,-0.00038965,-0.00033150,-0.00001334,-0.00019620
 ,0.00011483,0.00019583,0.00028999,-0.00024038,0.00011898,0.00018127,0.
 00003728,-0.00767725,0.00204647,0.00133893,0.29344645,-0.00003523,0.00
 056109,-0.00012240,-0.00513885,-0.00503963,0.00020890,0.00248892,-0.00
 094828,-0.00262033,0.03237578,-0.01355959,-0.00929971,0.06343673,-0.06
 256375,-0.01876984,0.00100336,0.00221041,-0.00091552,-0.00003642,0.002
 16372,0.00210123,-0.00000221,-0.00004831,0.00006885,0.00045130,0.00012
 374,0.00001674,0.00002411,0.00014792,0.00000436,-0.01725847,0.00483423
 ,0.00440635,-0.07051939,0.07149238,-0.00006492,0.00052654,-0.00010959,
 -0.00218235,-0.00111754,0.00042989,0.00077252,-0.00029355,-0.00067886,
 0.00871473,-0.00421850,-0.00322666,0.06744421,-0.01831336,-0.06562344,
 -0.00094934,0.00081569,0.00002288,-0.00006817,0.00100419,0.00059510,0.
 00003173,-0.00026533,0.00020428,-0.00000182,0.00001863,-0.00017961,0.0
 0005018,0.00009575,0.00015878,0.02382106,-0.00725527,-0.00700960,-0.07
 406626,0.02220899,0.06772525,-0.00096506,0.00075747,0.00017431,-0.0001
 3316,-0.00048958,0.00022022,0.00033252,-0.00011929,-0.00022915,-0.0007
 5812,0.00108834,0.00129275,-0.14814627,-0.02967130,-0.12510800,-0.0000
 8374,0.00011537,-0.00019898,0.00164422,-0.00077106,-0.00068063,-0.0003
 9712,0.00035656,0.00034114,-0.00051887,0.00042495,0.00019626,0.0000681
 0,0.00015608,0.00017544,0.00566073,0.00250491,0.00769606,-0.01761865,-
 0.00549479,-0.02330307,0.16059472,0.00050814,-0.00000960,-0.00028526,-
 0.00112832,0.00091574,-0.00014904,0.00039471,0.00014511,0.00027700,-0.
 01932944,-0.00041149,-0.02129817,-0.02793868,-0.05761404,-0.03283064,-
 0.00026331,0.00121493,-0.00034504,0.00034577,-0.00599350,-0.00440129,0
 .00069246,-0.00044605,0.00025195,0.00021526,0.00009794,-0.00003334,0.0
 0001814,0.00001349,0.00022194,0.01254819,0.00336800,0.01248319,0.00483
 190,0.00084261,0.00719165,0.03086986,0.05960992,-0.00039279,0.00023285
 ,0.00029178,-0.00203622,-0.00011465,-0.00054573,0.00078336,0.00022820,
 0.00030236,-0.00335798,0.00161628,-0.00693328,-0.12390430,-0.03506317,
 -0.20027243,-0.00003916,0.00064687,-0.00004989,-0.00016337,-0.00275150
 ,-0.00064543,-0.00000173,-0.00031092,0.00054707,0.00055155,0.00026118,
 -0.00060248,0.00014046,0.00041363,0.00024936,-0.01586698,-0.00541191,-
 0.01703920,0.00615925,0.00226662,0.00739731,0.13863750,0.03895199,0.21
 630101,-0.00044542,-0.00032232,0.00039866,0.00002182,0.00048995,0.0001
 8114,0.00013973,-0.00022012,0.00003549,0.00453327,0.00193533,0.0049170
 6,-0.00012070,0.00012059,-0.00028806,-0.15955205,-0.02190910,-0.127348
 49,0.00132081,-0.00067112,0.00190076,-0.00068857,-0.00037037,0.0007363
 5,0.00000562,0.00002718,0.00002783,0.00002157,0.00000891,0.00001937,0.
 00002692,0.00018349,0.00014206,0.00001194,-0.00005822,-0.00011887,0.00
 041798,0.00010722,0.00026654,0.17275981,-0.00005374,-0.00018797,0.0004
 2216,-0.00001499,0.00019961,-0.00051333,0.00001832,0.00011557,0.000031
 49,0.01287295,0.00268463,0.00914159,0.00035579,0.00051720,-0.00017875,
 -0.02194640,-0.05264848,-0.02389053,0.00033179,0.00001840,0.00478126,-
 0.00028529,0.00019251,0.00015861,-0.00004454,-0.00002794,0.00002155,0.
 00000646,0.00001072,-0.00011247,-0.00010981,0.00020896,-0.00022420,-0.
 00000004,-0.00008485,0.00007957,-0.00019589,-0.00056459,0.00024984,0.0
 2468458,0.05179876,0.00018137,-0.00034520,-0.00064955,-0.00252591,-0.0
 0031247,-0.00053041,0.00098000,0.00017755,0.00010930,-0.01632612,-0.00
 733600,-0.01458229,-0.00034102,-0.00101472,0.00044934,-0.12655911,-0.0
 2284974,-0.18933333,-0.00012199,0.00450762,-0.00697288,0.00102343,0.00
 044660,0.00062300,-0.00011737,0.00000195,0.00036453,0.00007023,-0.0000
 5848,0.00029612,0.00026768,-0.00011381,0.00015005,0.00011908,0.0000646
 4,0.00003518,0.00030169,0.00061778,0.00057230,0.14001494,0.02518907,0.
 20619786,-0.00003029,0.00006743,-0.00044173,0.00151618,-0.00184084,0.0
 0046371,0.00002042,0.00052933,0.00027411,-0.00948634,0.00183237,0.0029
 1608,0.00037207,0.00045597,-0.00047433,-0.25895718,0.06383969,0.078462
 75,0.00189714,-0.00037416,-0.00090436,0.00003383,0.00010388,0.00025881
 ,-0.00002548,0.00000291,0.00018575,-0.00002647,-0.00003329,0.00001160,
 0.00036055,-0.00007691,-0.00017561,0.00029219,-0.00076408,-0.00002234,
 -0.00007648,-0.00002134,0.00010772,-0.01864605,0.00590695,0.00742603,0
 .28093339,-0.00031275,0.00026709,-0.00055380,0.00176380,-0.00365173,0.
 00165610,-0.00069755,0.00215148,0.00068623,-0.01906458,0.00222616,0.01
 015877,-0.00084875,0.00161024,-0.00017547,0.06389104,-0.06374696,-0.02
 481945,-0.00065411,-0.00015983,-0.00209882,-0.00017658,-0.00005257,0.0
 0005724,0.00001102,0.00008973,0.00014756,-0.00008947,0.00000714,-0.000
 06932,0.00025528,0.00024530,-0.00018018,0.00043423,-0.00019544,0.00010
 182,-0.00006727,-0.00013253,-0.00005134,-0.00438281,0.00049108,0.00145
 179,-0.06919431,0.06763487,0.00022211,-0.00076521,0.00027838,-0.003014
 14,0.00442013,-0.00315928,0.00117905,-0.00172239,-0.00063985,0.0264225
 9,-0.00367177,-0.01417532,-0.00065883,-0.00162254,0.00096018,0.0786268
 1,-0.02549351,-0.07260195,0.00089804,-0.00013719,0.00292856,0.00034884
 ,0.00016309,0.00036659,-0.00015380,-0.00003339,0.00005769,0.00013226,-
 0.00005115,0.00019610,-0.00030617,-0.00026830,0.00001119,-0.00034701,0
 .00068373,0.00041884,-0.00012681,0.00012792,0.00005503,-0.02213684,0.0
 0701526,0.00851242,-0.08746436,0.02362316,0.08088764,-0.00021551,0.000
 11044,-0.00002173,0.00024304,-0.00208799,-0.00088466,0.00010837,0.0007
 4612,0.00003003,-0.00209073,-0.00803233,-0.00246162,-0.00028129,-0.000
 61389,0.00143360,-0.04744751,-0.00458524,-0.00130985,-0.00023055,0.000
 52295,-0.00022834,0.00013462,-0.00008138,0.00008710,0.00002634,0.00000
 812,0.00000146,-0.00007709,-0.00004808,0.00010204,0.00062454,-0.000612
 54,-0.00000027,0.00027377,-0.00039822,-0.00001028,0.00008494,0.0003287
 4,0.00019537,-0.00039663,-0.02120141,-0.00490944,0.00149784,0.02868201
 ,0.00748641,0.04750038,-0.00017657,-0.00000065,0.00008859,0.00125282,-
 0.00174277,-0.00175826,-0.00007060,0.00161335,0.00089663,-0.00197391,-
 0.01780714,-0.00538278,-0.00146887,-0.00102754,0.00428770,-0.00446641,
 -0.29242504,-0.06737906,0.00018481,0.00285735,-0.00110967,0.00004512,-
 0.00006974,0.00007855,0.00005746,0.00002923,0.00000298,-0.00008129,0.0
 0001290,0.00002967,-0.00000058,-0.00125589,-0.00030049,0.00000121,0.00
 039026,-0.00004684,0.00004829,0.00032600,-0.00009212,0.00030961,-0.002
 09975,-0.00045260,-0.00084482,-0.00723024,-0.00187160,0.00659653,0.318
 84288,-0.00006718,0.00008855,-0.00028111,-0.00043162,0.00167265,0.0015
 7779,-0.00041506,-0.00071757,-0.00003582,0.00093441,0.02532014,0.00553
 218,0.00151765,0.00262314,-0.00467200,-0.00254643,-0.06928792,-0.06533
 427,0.00073015,-0.00115360,0.00286850,0.00008760,-0.00004160,-0.000020
 18,-0.00001413,-0.00000629,0.00001876,0.00001164,-0.00001146,0.0000792
 0,0.00006180,0.00179891,0.00063954,-0.00010827,-0.00010497,-0.00012528
 ,0.00022675,0.00001181,0.00012776,0.00106308,-0.02265040,-0.00575908,-
 0.00111371,-0.00955006,-0.00338203,0.00044028,0.07194040,0.06926253,0.
 00034120,0.00148624,0.00097960,-0.00152992,-0.00593840,-0.00756446,0.0
 0010659,0.00256058,0.00391703,0.00942761,-0.02210412,-0.01120004,-0.00
 456658,-0.00052425,-0.00408967,-0.00128610,0.00038153,-0.00052312,-0.0
 8541369,0.07895703,0.05079778,0.00036019,0.00006120,0.00038610,0.00040
 918,0.00019896,0.00017187,-0.00022320,-0.00005374,-0.00008537,0.000081
 87,0.00017050,0.00012866,-0.00003537,0.00039323,0.00003503,-0.00016625
 ,-0.00200708,-0.00089530,0.00000255,0.00015848,-0.00047020,-0.00019606
 ,-0.00007352,0.00027502,0.00037653,0.00009691,0.00004031,0.09208221,-0
 .00004512,-0.00008245,-0.00045528,0.00097350,-0.00040537,-0.00239358,0
 .00269319,-0.00143799,0.00248366,-0.00184701,-0.00846171,0.00277329,-0
 .00220780,0.00005456,-0.00328891,0.00100997,0.00113577,0.00138550,0.09
 004006,-0.28041474,-0.19524721,-0.00007756,-0.00008660,-0.00004069,0.0
 0002758,-0.00002960,-0.00003783,0.00005493,0.00009533,0.00009036,0.000
 06122,0.00024054,0.00004160,0.00009884,0.00026303,0.00030860,-0.000167
 64,-0.00098534,-0.00057879,0.00018576,-0.00058145,0.00058694,0.0002250
 4,0.00001641,-0.00015695,0.00016518,-0.00004622,-0.00001151,-0.0851767
 2,0.28680148,0.00027454,-0.00068797,-0.00006123,-0.00048717,-0.0019343
 8,0.00060764,0.00318581,0.00147563,-0.00136201,0.00237618,-0.02506768,
 -0.02214108,-0.00192343,0.00107563,-0.00217227,-0.00001177,-0.00135909
 ,-0.00054026,0.04320836,-0.14783451,-0.12275021,-0.00001897,0.00000895
 ,-0.00000121,-0.00006528,-0.00001659,-0.00007741,0.00013009,0.00008434
 ,0.00008139,-0.00011497,-0.00001726,0.00011676,0.00016679,0.00009466,-
 0.00013813,0.00022130,-0.00067516,0.00035095,-0.00017706,0.00064897,0.
 00025486,-0.00011043,0.00003524,0.00002486,-0.00002338,0.00084360,-0.0
 0038634,-0.05085103,0.18437541,0.15659172,-0.00069663,0.00074081,0.000
 68790,-0.00231655,-0.00150416,-0.00319397,0.00042878,-0.00043253,-0.00
 052647,-0.02362029,-0.00413005,0.01022601,-0.00044173,0.00013820,-0.00
 037305,0.00263972,0.00002633,0.00247142,-0.35555877,-0.04688978,0.1191
 5726,-0.00000401,-0.00002800,-0.00006692,-0.00000360,-0.00002739,-0.00
 001459,-0.00028237,-0.00018890,-0.00022920,0.00005651,0.00010788,-0.00
 002265,0.00014829,-0.00046756,-0.00008203,0.00006051,-0.00017222,-0.00
 018392,0.00058737,-0.00048321,0.00098669,0.00052074,0.00052431,-0.0013
 8319,-0.00013107,0.00049030,-0.00041727,-0.00977076,-0.00601344,0.0042
 2042,0.38838386,-0.00006857,0.00041218,-0.00009491,0.00212222,-0.00168
 105,-0.00133871,0.00176767,0.00040503,0.00130835,-0.00094097,-0.003758
 15,0.00700762,-0.00163448,0.00039671,0.00016877,0.00013503,0.00090761,
 -0.00105767,-0.09264611,-0.03911236,0.01125083,0.00002661,0.00004340,0
 .00000914,0.00004794,0.00000678,0.00007461,-0.00008391,0.00001327,-0.0
 0001288,-0.00004741,0.00022638,-0.00002461,0.00037584,-0.00058954,-0.0
 0084102,0.00065502,-0.00037659,-0.00049303,-0.00011857,-0.00004239,-0.
 00056089,0.00018617,0.00042980,-0.00023928,0.00050100,-0.00036699,0.00
 007978,0.03141314,0.00392434,-0.01104979,0.05830940,0.03916159,-0.0012
 0792,0.00078554,0.00100899,-0.00347146,-0.00279900,-0.00609473,0.00169
 203,0.00019369,0.00184234,-0.03350994,-0.00222844,0.00576267,-0.000208
 27,0.00077460,0.00016544,-0.00191407,0.00005522,0.00232088,0.14962229,
 -0.00181673,-0.10079880,0.00013376,0.00001430,0.00001201,-0.00001037,-
 0.00000956,-0.00000462,-0.00046114,-0.00017405,-0.00014571,0.00008998,
 -0.00000123,-0.00008476,0.00035088,-0.00029229,0.00010366,0.00016321,-
 0.00011729,-0.00010649,0.00036605,-0.00016968,0.00026258,0.00060030,-0
 .00041945,-0.00073904,0.00007329,0.00022531,-0.00011017,0.01894781,0.0
 1016540,-0.00839804,-0.13125644,-0.00418632,0.10500379\\0.00002183,0.0
 0003767,-0.00002199,0.00001292,-0.00003601,-0.00002971,0.00001011,0.00
 001142,0.00001286,-0.00000469,0.00004411,0.00000838,-0.00000281,-0.000
 01958,-0.00000327,0.00001058,-0.00000086,0.00000056,-0.00002621,0.0000
 1232,-0.00000319,-0.00001083,-0.00001040,0.00000068,-0.00001027,-0.000
 00381,0.00000241,-0.00000517,-0.00000090,0.00001077,-0.00000234,-0.000
 00963,0.00000141,-0.00000403,-0.00000170,0.00000267,-0.00000321,0.0000
 0662,0.00000705,0.00000390,-0.00000136,0.00000886,0.00000597,-0.000004
 15,0.00000116,0.00000345,-0.00000105,0.00000201,0.00000420,-0.00001481
 ,0.00000339,-0.00000339,-0.00000789,-0.00000405\\\@
 Job cpu time:       0 days  5 hours 22 minutes 31.0 seconds.
 File lengths (MBytes):  RWF=  25057 Int=      0 D2E=      0 Chk=     54 Scr=      1
 Normal termination of Gaussian 09 at Sun Aug 21 19:30:39 2022.
