 Entering Gaussian System, Link 0=g09
 Input=G4.Frag_1140.gjf
 Output=G4.Frag_1140.log
 Initial command:
 /public/home/users/caep010/software/Gaussian09/g09/l1.exe "/public/home/users/caep010/.cache/gau_scr/Gau-21055.inp" -scrdir="/public/home/users/caep010/.cache/gau_scr/"
 Entering Link 1 = /public/home/users/caep010/software/Gaussian09/g09/l1.exe PID=     21056.
  
 Copyright (c) 1988,1990,1992,1993,1995,1998,2003,2009,2015,
            Gaussian, Inc.  All Rights Reserved.
  
 This is part of the Gaussian(R) 09 program.  It is based on
 the Gaussian(R) 03 system (copyright 2003, Gaussian, Inc.),
 the Gaussian(R) 98 system (copyright 1998, Gaussian, Inc.),
 the Gaussian(R) 94 system (copyright 1995, Gaussian, Inc.),
 the Gaussian 92(TM) system (copyright 1992, Gaussian, Inc.),
 the Gaussian 90(TM) system (copyright 1990, Gaussian, Inc.),
 the Gaussian 88(TM) system (copyright 1988, Gaussian, Inc.),
 the Gaussian 86(TM) system (copyright 1986, Carnegie Mellon
 University), and the Gaussian 82(TM) system (copyright 1983,
 Carnegie Mellon University). Gaussian is a federally registered
 trademark of Gaussian, Inc.
  
 This software contains proprietary and confidential information,
 including trade secrets, belonging to Gaussian, Inc.
  
 This software is provided under written license and may be
 used, copied, transmitted, or stored only in accord with that
 written license.
  
 The following legend is applicable only to US Government
 contracts under FAR:
  
                    RESTRICTED RIGHTS LEGEND
  
 Use, reproduction and disclosure by the US Government is
 subject to restrictions as set forth in subparagraphs (a)
 and (c) of the Commercial Computer Software - Restricted
 Rights clause in FAR 52.227-19.
  
 Gaussian, Inc.
 340 Quinnipiac St., Bldg. 40, Wallingford CT 06492
  
  
 ---------------------------------------------------------------
 Warning -- This program may not be used in any manner that
 competes with the business of Gaussian, Inc. or will provide
 assistance to any competitor of Gaussian, Inc.  The licensee
 of this program is prohibited from giving any competitor of
 Gaussian, Inc. access to this program.  By using this program,
 the user acknowledges that Gaussian, Inc. is engaged in the
 business of creating and licensing software in the field of
 computational chemistry and represents and warrants to the
 licensee that it is not a competitor of Gaussian, Inc. and that
 it will not use this program in any manner prohibited above.
 ---------------------------------------------------------------
  

 Cite this work as:
 Gaussian 09, Revision E.01,
 M. J. Frisch, G. W. Trucks, H. B. Schlegel, G. E. Scuseria, 
 M. A. Robb, J. R. Cheeseman, G. Scalmani, V. Barone, B. Mennucci, 
 G. A. Petersson, H. Nakatsuji, M. Caricato, X. Li, H. P. Hratchian, 
 A. F. Izmaylov, J. Bloino, G. Zheng, J. L. Sonnenberg, M. Hada, 
 M. Ehara, K. Toyota, R. Fukuda, J. Hasegawa, M. Ishida, T. Nakajima, 
 Y. Honda, O. Kitao, H. Nakai, T. Vreven, J. A. Montgomery, Jr., 
 J. E. Peralta, F. Ogliaro, M. Bearpark, J. J. Heyd, E. Brothers, 
 K. N. Kudin, V. N. Staroverov, T. Keith, R. Kobayashi, J. Normand, 
 K. Raghavachari, A. Rendell, J. C. Burant, S. S. Iyengar, J. Tomasi, 
 M. Cossi, N. Rega, J. M. Millam, M. Klene, J. E. Knox, J. B. Cross, 
 V. Bakken, C. Adamo, J. Jaramillo, R. Gomperts, R. E. Stratmann, 
 O. Yazyev, A. J. Austin, R. Cammi, C. Pomelli, J. W. Ochterski, 
 R. L. Martin, K. Morokuma, V. G. Zakrzewski, G. A. Voth, 
 P. Salvador, J. J. Dannenberg, S. Dapprich, A. D. Daniels, 
 O. Farkas, J. B. Foresman, J. V. Ortiz, J. Cioslowski, 
 and D. J. Fox, Gaussian, Inc., Wallingford CT, 2013.
 
 ******************************************
 Gaussian 09:  ES64L-G09RevE.01 30-Nov-2015
                23-Aug-2022 
 ******************************************
 %nproc=32
 Will use up to   32 processors via shared memory.
 %mem=180MB
 %chk=G4.Frag_1140.chk
 -----
 #P G4
 -----
 1/14=-1,18=20,19=15,26=3,38=1/1,3;
 2/9=110,12=2,17=6,18=5,40=1/2;
 3/5=35,7=104,11=2,16=1,25=1,30=1,71=1,74=-5/1,2,3;
 4//1;
 5/5=2,38=5/2;
 6/7=2,8=2,9=2,10=2,28=1/1;
 7//1,2,3,16;
 1/14=-1,18=20,19=15,26=3/3(2);
 2/9=110/2;
 99//99;
 2/9=110/2;
 3/5=35,7=104,11=2,16=1,25=1,30=1,71=1,74=-5/1,2,3;
 4/5=5,16=3,69=1/1;
 5/5=2,38=5/2;
 7//1,2,3,16;
 1/14=-1,18=20,19=15,26=3/3(-5);
 2/9=110/2;
 6/7=2,8=2,9=2,10=2,19=2,28=1/1;
 99/9=1/99;
 Leave Link    1 at Tue Aug 23 18:27:49 2022, MaxMem=    23592960 cpu:         3.1
 (Enter /public/home/users/caep010/software/Gaussian09/g09/l101.exe)
 ---------
 Frag_1140
 ---------
 Symbolic Z-matrix:
 Charge =  0 Multiplicity = 1
 N                    -1.2941    1.7351   -0.2927 
 C                    -0.6514    0.6381   -0.0553 
 N                    -1.3309   -0.4516    0.5735 
 N                     0.7295    0.5341   -0.4264 
 N                     1.4959   -0.62     -0.2036 
 H                    -0.8272    2.5497   -0.7504 
 H                    -2.3371   -0.3605    0.838 
 H                    -0.8456   -1.3515    0.7807 
 H                     1.0693   -1.4189   -0.7255 
 H                     1.531    -0.8133    0.823 
 H                     2.4606   -0.4412   -0.5613 
 
 NAtoms=     11 NQM=       11 NQMF=       0 NMMI=      0 NMMIF=      0
                NMic=       0 NMicF=      0.
                    Isotopes and Nuclear Properties:
 (Nuclear quadrupole moments (NQMom) in fm**2, nuclear magnetic moments (NMagM)
  in nuclear magnetons)

  Atom         1           2           3           4           5           6           7           8           9          10
 IAtWgt=          14          12          14          14          14           1           1           1           1           1
 AtmWgt=  14.0030740  12.0000000  14.0030740  14.0030740  14.0030740   1.0078250   1.0078250   1.0078250   1.0078250   1.0078250
 NucSpn=           2           0           2           2           2           1           1           1           1           1
 AtZEff=   0.0000000   0.0000000   0.0000000   0.0000000   0.0000000   0.0000000   0.0000000   0.0000000   0.0000000   0.0000000
 NQMom=    2.0440000   0.0000000   2.0440000   2.0440000   2.0440000   0.0000000   0.0000000   0.0000000   0.0000000   0.0000000
 NMagM=    0.4037610   0.0000000   0.4037610   0.4037610   0.4037610   2.7928460   2.7928460   2.7928460   2.7928460   2.7928460
 AtZNuc=   7.0000000   6.0000000   7.0000000   7.0000000   7.0000000   1.0000000   1.0000000   1.0000000   1.0000000   1.0000000

  Atom        11
 IAtWgt=           1
 AtmWgt=   1.0078250
 NucSpn=           1
 AtZEff=   0.0000000
 NQMom=    0.0000000
 NMagM=    2.7928460
 AtZNuc=   1.0000000
 Leave Link  101 at Tue Aug 23 18:27:49 2022, MaxMem=    23592960 cpu:         2.5
 (Enter /public/home/users/caep010/software/Gaussian09/g09/l103.exe)

 GradGradGradGradGradGradGradGradGradGradGradGradGradGradGradGradGradGrad
 Berny optimization.
 Initialization pass.
                           ----------------------------
                           !    Initial Parameters    !
                           ! (Angstroms and Degrees)  !
 --------------------------                            --------------------------
 ! Name  Definition              Value          Derivative Info.                !
 --------------------------------------------------------------------------------
 ! R1    R(1,2)                  1.2934         estimate D2E/DX2                !
 ! R2    R(1,6)                  1.0445         estimate D2E/DX2                !
 ! R3    R(2,3)                  1.4299         estimate D2E/DX2                !
 ! R4    R(2,4)                  1.4337         estimate D2E/DX2                !
 ! R5    R(3,7)                  1.0444         estimate D2E/DX2                !
 ! R6    R(3,8)                  1.0432         estimate D2E/DX2                !
 ! R7    R(4,5)                  1.4032         estimate D2E/DX2                !
 ! R8    R(5,9)                  1.0453         estimate D2E/DX2                !
 ! R9    R(5,10)                 1.0452         estimate D2E/DX2                !
 ! R10   R(5,11)                 1.0443         estimate D2E/DX2                !
 ! A1    A(2,1,6)              121.3167         estimate D2E/DX2                !
 ! A2    A(1,2,3)              119.4035         estimate D2E/DX2                !
 ! A3    A(1,2,4)              119.5142         estimate D2E/DX2                !
 ! A4    A(3,2,4)              121.0823         estimate D2E/DX2                !
 ! A5    A(2,3,7)              120.1818         estimate D2E/DX2                !
 ! A6    A(2,3,8)              121.5794         estimate D2E/DX2                !
 ! A7    A(7,3,8)              118.2388         estimate D2E/DX2                !
 ! A8    A(2,4,5)              123.0002         estimate D2E/DX2                !
 ! A9    A(4,5,9)              109.0522         estimate D2E/DX2                !
 ! A10   A(4,5,10)             109.0503         estimate D2E/DX2                !
 ! A11   A(4,5,11)             108.0196         estimate D2E/DX2                !
 ! A12   A(9,5,10)             111.2694         estimate D2E/DX2                !
 ! A13   A(9,5,11)             109.6851         estimate D2E/DX2                !
 ! A14   A(10,5,11)            109.698          estimate D2E/DX2                !
 ! D1    D(6,1,2,3)            179.9934         estimate D2E/DX2                !
 ! D2    D(6,1,2,4)             -0.0072         estimate D2E/DX2                !
 ! D3    D(1,2,3,7)             -0.0057         estimate D2E/DX2                !
 ! D4    D(1,2,3,8)            179.9973         estimate D2E/DX2                !
 ! D5    D(4,2,3,7)            179.995          estimate D2E/DX2                !
 ! D6    D(4,2,3,8)             -0.002          estimate D2E/DX2                !
 ! D7    D(1,2,4,5)           -179.998          estimate D2E/DX2                !
 ! D8    D(3,2,4,5)              0.0013         estimate D2E/DX2                !
 ! D9    D(2,4,5,9)             60.8444         estimate D2E/DX2                !
 ! D10   D(2,4,5,10)           -60.8416         estimate D2E/DX2                !
 ! D11   D(2,4,5,11)           179.9942         estimate D2E/DX2                !
 --------------------------------------------------------------------------------
 Trust Radius=3.00D-01 FncErr=1.00D-07 GrdErr=1.00D-06
 Number of steps in this run=     45 maximum allowed number of steps=    100.
 GradGradGradGradGradGradGradGradGradGradGradGradGradGradGradGradGradGrad

 Leave Link  103 at Tue Aug 23 18:27:49 2022, MaxMem=    23592960 cpu:         0.4
 (Enter /public/home/users/caep010/software/Gaussian09/g09/l202.exe)
                          Input orientation:                          
 ---------------------------------------------------------------------
 Center     Atomic      Atomic             Coordinates (Angstroms)
 Number     Number       Type             X           Y           Z
 ---------------------------------------------------------------------
      1          7           0       -1.294100    1.735100   -0.292700
      2          6           0       -0.651400    0.638100   -0.055300
      3          7           0       -1.330900   -0.451600    0.573500
      4          7           0        0.729500    0.534100   -0.426400
      5          7           0        1.495900   -0.620000   -0.203600
      6          1           0       -0.827200    2.549700   -0.750400
      7          1           0       -2.337100   -0.360500    0.838000
      8          1           0       -0.845600   -1.351500    0.780700
      9          1           0        1.069300   -1.418900   -0.725500
     10          1           0        1.531000   -0.813300    0.823000
     11          1           0        2.460600   -0.441200   -0.561300
 ---------------------------------------------------------------------
                    Distance matrix (angstroms):
                    1          2          3          4          5
     1  N    0.000000
     2  C    1.293380   0.000000
     3  N    2.352300   1.429880   0.000000
     4  N    2.356954   1.433672   2.493322   0.000000
     5  N    3.652196   2.493132   2.936502   1.403195   0.000000
     6  H    1.044537   2.041638   3.318769   2.567281   3.967717
     7  H    2.599591   2.153316   1.044365   3.435557   3.980472
     8  H    3.298551   2.166822   1.043201   2.737429   2.643210
     9  H    3.964933   2.764277   2.895519   2.004778   1.045279
    10  H    3.964886   2.764207   2.895436   2.004717   1.045229
    11  H    4.348126   3.332487   3.957695   1.991511   1.044301
                    6          7          8          9         10
     6  H    0.000000
     7  H    3.643086   0.000000
     8  H    4.190939   1.791630   0.000000
     9  H    4.398536   3.894651   2.437216   0.000000
    10  H    4.398462   3.894541   2.437145   1.725622   0.000000
    11  H    4.448693   4.998248   3.682468   1.708384   1.708479
                   11
    11  H    0.000000
 Stoichiometry    CH6N4
 Framework group  C1[X(CH6N4)]
 Deg. of freedom    27
 Full point group                 C1      NOp   1
 Largest Abelian subgroup         C1      NOp   1
 Largest concise Abelian subgroup C1      NOp   1
                         Standard orientation:                         
 ---------------------------------------------------------------------
 Center     Atomic      Atomic             Coordinates (Angstroms)
 Number     Number       Type             X           Y           Z
 ---------------------------------------------------------------------
      1          7           0       -1.701810   -0.815354    0.000028
      2          6           0       -0.628273   -0.094002   -0.000001
      3          7           0       -0.740343    1.331479    0.000003
      4          7           0        0.653796   -0.735651   -0.000021
      5          7           0        1.863912   -0.025317   -0.000011
      6          1           0       -1.654754   -1.858831   -0.000076
      7          1           0       -1.681502    1.784157   -0.000061
      8          1           0        0.102825    1.945756    0.000022
      9          1           0        1.914507    0.562507    0.862840
     10          1           0        1.914443    0.562541   -0.862782
     11          1           0        2.645231   -0.718215    0.000071
 ---------------------------------------------------------------------
 Rotational constants (GHZ):      9.2024899      3.9168304      2.7930117
 Leave Link  202 at Tue Aug 23 18:27:49 2022, MaxMem=    23592960 cpu:         0.8
 (Enter /public/home/users/caep010/software/Gaussian09/g09/l301.exe)
 Standard basis: GTBas3 (6D, 7F)
 Ernie: Thresh=  0.10000D-02 Tol=  0.10000D-05 Strict=F.
 There are   185 symmetry adapted cartesian basis functions of A   symmetry.
 There are   170 symmetry adapted basis functions of A   symmetry.
   170 basis functions,   262 primitive gaussians,   185 cartesian basis functions
    20 alpha electrons       20 beta electrons
       nuclear repulsion energy       178.3841913566 Hartrees.
 IExCor=  402 DFT=T Ex+Corr=B3LYP ExCW=0 ScaHFX=  0.200000
 ScaDFX=  0.800000  0.720000  1.000000  0.810000 ScalE2=  1.000000  1.000000
 IRadAn=      0 IRanWt=     -1 IRanGd=            0 ICorTp=0 IEmpDi=  4
 NAtoms=   11 NActive=   11 NUniq=   11 SFac= 1.00D+00 NAtFMM=   60 NAOKFM=F Big=F
 Integral buffers will be    131072 words long.
 Raffenetti 2 integral format.
 Two-electron integral symmetry is turned on.
 Leave Link  301 at Tue Aug 23 18:27:49 2022, MaxMem=    23592960 cpu:         8.6
 (Enter /public/home/users/caep010/software/Gaussian09/g09/l302.exe)
 NPDir=0 NMtPBC=     1 NCelOv=     1 NCel=       1 NClECP=     1 NCelD=      1
         NCelK=      1 NCelE2=     1 NClLst=     1 CellRange=     0.0.
 One-electron integrals computed using PRISM.
 PrsmSu:  requested number of processors reduced to:   3 ShMem   1 Linda.
 PrsmSu:  requested number of processors reduced to:  11 ShMem   1 Linda.
 NBasis=   170 RedAO= T EigKep=  3.02D-04  NBF=   170
 NBsUse=   170 1.00D-06 EigRej= -1.00D+00 NBFU=   170
 Precomputing XC quadrature grid using
 IXCGrd= 4 IRadAn=           0 IRanWt=          -1 IRanGd=           0 AccXCQ= 0.00D+00.
 Generated NRdTot=       0 NPtTot=           0 NUsed=           0 NTot=          32
 NSgBfM=   185   185   185   185   185 MxSgAt=    11 MxSgA2=    11.
 Leave Link  302 at Tue Aug 23 18:27:50 2022, MaxMem=    23592960 cpu:         9.9
 (Enter /public/home/users/caep010/software/Gaussian09/g09/l303.exe)
 DipDrv:  MaxL=1.
 Leave Link  303 at Tue Aug 23 18:27:50 2022, MaxMem=    23592960 cpu:         1.2
 (Enter /public/home/users/caep010/software/Gaussian09/g09/l401.exe)
 ExpMin= 1.61D-01 ExpMax= 4.17D+03 ExpMxC= 6.27D+02 IAcc=1 IRadAn=         1 AccDes= 0.00D+00
 Harris functional with IExCor=  402 and IRadAn=       1 diagonalized for initial guess.
 HarFok:  IExCor=  402 AccDes= 0.00D+00 IRadAn=         1 IDoV= 1 UseB2=F ITyADJ=14
 ICtDFT=  3500011 ScaDFX=  1.000000  1.000000  1.000000  1.000000
 CalDSu:  requested number of processors reduced to:  21 ShMem   1 Linda.
 FoFCou: FMM=F IPFlag=           0 FMFlag=      100000 FMFlg1=           0
         NFxFlg=           0 DoJE=T BraDBF=F KetDBF=T FulRan=T
         wScrn=  0.000000 ICntrl=     500 IOpCl=  0 I1Cent=   200000004 NGrid=           0
         NMat0=    1 NMatS0=      1 NMatT0=    0 NMatD0=    1 NMtDS0=    0 NMtDT0=    0
 Petite list used in FoFCou.
 CoulSu:  requested number of processors reduced to:  11 ShMem   1 Linda.
 CoulSu:  requested number of processors reduced to:  11 ShMem   1 Linda.
 CoulSu:  requested number of processors reduced to:  12 ShMem   1 Linda.
 CoulSu:  requested number of processors reduced to:  12 ShMem   1 Linda.
 Harris En= -260.659630703163    
 JPrj=0 DoOrth=F DoCkMO=F.
 Leave Link  401 at Tue Aug 23 18:27:50 2022, MaxMem=    23592960 cpu:         4.3
 (Enter /public/home/users/caep010/software/Gaussian09/g09/l502.exe)
 Closed shell SCF:
 Using DIIS extrapolation, IDIIS=  1040.
 Integral symmetry usage will be decided dynamically.
 IVT=      128495 IEndB=      128495 NGot=    23592960 MDV=    23515516
 LenX=    23515516 LenY=    23480850
 Requested convergence on RMS density matrix=1.00D-08 within 128 cycles.
 Requested convergence on MAX density matrix=1.00D-06.
 Requested convergence on             energy=1.00D-06.
 No special actions if energy rises.
 Fock matrices will be formed incrementally for  20 cycles.
 Integral accuracy reduced to 1.0D-05 until final iterations.

 Cycle   1  Pass 0  IDiag  1:
 FoFJK:  IHMeth= 1 ICntrl=       0 DoSepK=F KAlg= 0 I1Cent=   0 FoldK=F
 IRaf= 980000000 NMat=   1 IRICut=       1 DoRegI=T DoRafI=F ISym2E= 0.
 FoFCou: FMM=F IPFlag=           0 FMFlag=      100000 FMFlg1=           0
         NFxFlg=           0 DoJE=F BraDBF=F KetDBF=F FulRan=T
         wScrn=  0.000000 ICntrl=       0 IOpCl=  0 I1Cent=           0 NGrid=           0
         NMat0=    1 NMatS0=      1 NMatT0=    0 NMatD0=    1 NMtDS0=    0 NMtDT0=    0
 Symmetry not used in FoFCou.
 CoulSu:  requested number of processors reduced to:  11 ShMem   1 Linda.
 CalDSu:  requested number of processors reduced to:  21 ShMem   1 Linda.
 E= -260.398303961222    
 DIIS: error= 2.83D-02 at cycle   1 NSaved=   1.
 NSaved= 1 IEnMin= 1 EnMin= -260.398303961222     IErMin= 1 ErrMin= 2.83D-02
 ErrMax= 2.83D-02  0.00D+00 EMaxC= 1.00D-01 BMatC= 2.30D-01 BMatP= 2.30D-01
 IDIUse=3 WtCom= 7.17D-01 WtEn= 2.83D-01
 Coeff-Com:  0.100D+01
 Coeff-En:   0.100D+01
 Coeff:      0.100D+01
 Gap=     0.258 Goal=   None    Shift=    0.000
 GapD=    0.258 DampG=1.000 DampE=0.500 DampFc=0.5000 IDamp=-1.
 Damping current iteration by 5.00D-01
 RMSDP=3.18D-02 MaxDP=2.81D+00              OVMax= 9.61D-01

 Cycle   2  Pass 0  IDiag  1:
 RMSU=  1.59D-02    CP:  9.87D-01
 CoulSu:  requested number of processors reduced to:  11 ShMem   1 Linda.
 CalDSu:  requested number of processors reduced to:  21 ShMem   1 Linda.
 E= -259.951124007061     Delta-E=        0.447179954161 Rises=F Damp=T
 DIIS: error= 3.26D-02 at cycle   2 NSaved=   2.
 NSaved= 2 IEnMin= 1 EnMin= -260.398303961222     IErMin= 1 ErrMin= 2.83D-02
 ErrMax= 3.26D-02  0.00D+00 EMaxC= 1.00D-01 BMatC= 1.80D-01 BMatP= 2.30D-01
 IDIUse=3 WtCom= 6.74D-01 WtEn= 3.26D-01
 Coeff-Com:  0.461D+00 0.539D+00
 Coeff-En:   0.795D+00 0.205D+00
 Coeff:      0.570D+00 0.430D+00
 Gap=    -0.078 Goal=   None    Shift=    0.000
 RMSDP=1.56D-02 MaxDP=1.40D+00 DE= 4.47D-01 OVMax= 9.48D-01

 Cycle   3  Pass 0  IDiag  1:
 RMSU=  3.41D-03    CP:  9.69D-01  3.95D-02
 CoulSu:  requested number of processors reduced to:  11 ShMem   1 Linda.
 CalDSu:  requested number of processors reduced to:  21 ShMem   1 Linda.
 E= -260.510510789697     Delta-E=       -0.559386782636 Rises=F Damp=F
 DIIS: error= 1.80D-02 at cycle   3 NSaved=   3.
 NSaved= 3 IEnMin= 3 EnMin= -260.510510789697     IErMin= 3 ErrMin= 1.80D-02
 ErrMax= 1.80D-02  0.00D+00 EMaxC= 1.00D-01 BMatC= 9.88D-02 BMatP= 1.80D-01
 IDIUse=3 WtCom= 8.20D-01 WtEn= 1.80D-01
 EnCoef did     1 forward-backward iterations
 Coeff-Com:  0.247D+00 0.364D+00 0.388D+00
 Coeff-En:   0.157D+00 0.298D-01 0.813D+00
 Coeff:      0.231D+00 0.304D+00 0.465D+00
 Gap=     0.195 Goal=   None    Shift=    0.000
 RMSDP=2.13D-03 MaxDP=7.17D-02 DE=-5.59D-01 OVMax= 1.39D-01

 Cycle   4  Pass 0  IDiag  1:
 RMSU=  1.68D-03    CP:  9.85D-01  4.19D-02  6.25D-01
 CoulSu:  requested number of processors reduced to:  11 ShMem   1 Linda.
 CalDSu:  requested number of processors reduced to:  21 ShMem   1 Linda.
 E= -260.602059754814     Delta-E=       -0.091548965117 Rises=F Damp=F
 DIIS: error= 7.04D-03 at cycle   4 NSaved=   4.
 NSaved= 4 IEnMin= 4 EnMin= -260.602059754814     IErMin= 4 ErrMin= 7.04D-03
 ErrMax= 7.04D-03  0.00D+00 EMaxC= 1.00D-01 BMatC= 1.06D-02 BMatP= 9.88D-02
 IDIUse=3 WtCom= 9.30D-01 WtEn= 7.04D-02
 Coeff-Com: -0.144D-01 0.138D+00 0.199D+00 0.678D+00
 Coeff-En:   0.000D+00 0.000D+00 0.000D+00 0.100D+01
 Coeff:     -0.134D-01 0.128D+00 0.185D+00 0.700D+00
 Gap=     0.157 Goal=   None    Shift=    0.000
 RMSDP=8.27D-04 MaxDP=2.65D-02 DE=-9.15D-02 OVMax= 2.89D-02

 Cycle   5  Pass 0  IDiag  1:
 RMSU=  5.68D-04    CP:  9.85D-01  5.69D-02  7.86D-01  9.76D-01
 CoulSu:  requested number of processors reduced to:  11 ShMem   1 Linda.
 CalDSu:  requested number of processors reduced to:  21 ShMem   1 Linda.
 E= -260.609178190666     Delta-E=       -0.007118435852 Rises=F Damp=F
 DIIS: error= 3.00D-03 at cycle   5 NSaved=   5.
 NSaved= 5 IEnMin= 5 EnMin= -260.609178190666     IErMin= 5 ErrMin= 3.00D-03
 ErrMax= 3.00D-03  0.00D+00 EMaxC= 1.00D-01 BMatC= 3.45D-03 BMatP= 1.06D-02
 IDIUse=3 WtCom= 9.70D-01 WtEn= 3.00D-02
 Coeff-Com: -0.601D-01 0.566D-01 0.519D-02 0.351D+00 0.648D+00
 Coeff-En:   0.000D+00 0.000D+00 0.000D+00 0.149D-01 0.985D+00
 Coeff:     -0.583D-01 0.549D-01 0.503D-02 0.341D+00 0.658D+00
 Gap=     0.157 Goal=   None    Shift=    0.000
 RMSDP=4.10D-04 MaxDP=1.37D-02 DE=-7.12D-03 OVMax= 2.92D-02

 Cycle   6  Pass 0  IDiag  1:
 RMSU=  2.21D-04    CP:  9.85D-01  5.88D-02  7.81D-01  1.18D+00  8.77D-01
 CoulSu:  requested number of processors reduced to:  11 ShMem   1 Linda.
 CalDSu:  requested number of processors reduced to:  21 ShMem   1 Linda.
 E= -260.612276944978     Delta-E=       -0.003098754312 Rises=F Damp=F
 DIIS: error= 1.71D-03 at cycle   6 NSaved=   6.
 NSaved= 6 IEnMin= 6 EnMin= -260.612276944978     IErMin= 6 ErrMin= 1.71D-03
 ErrMax= 1.71D-03  0.00D+00 EMaxC= 1.00D-01 BMatC= 6.47D-04 BMatP= 3.45D-03
 IDIUse=3 WtCom= 9.83D-01 WtEn= 1.71D-02
 Coeff-Com: -0.339D-01 0.204D-01-0.523D-01 0.287D-01 0.397D+00 0.640D+00
 Coeff-En:   0.000D+00 0.000D+00 0.000D+00 0.000D+00 0.000D+00 0.100D+01
 Coeff:     -0.333D-01 0.201D-01-0.514D-01 0.282D-01 0.390D+00 0.646D+00
 Gap=     0.153 Goal=   None    Shift=    0.000
 RMSDP=1.71D-04 MaxDP=6.24D-03 DE=-3.10D-03 OVMax= 6.26D-03

 Cycle   7  Pass 0  IDiag  1:
 RMSU=  6.20D-05    CP:  9.86D-01  6.24D-02  8.04D-01  1.20D+00  1.05D+00
                    CP:  7.01D-01
 CoulSu:  requested number of processors reduced to:  11 ShMem   1 Linda.
 CalDSu:  requested number of processors reduced to:  21 ShMem   1 Linda.
 E= -260.612803934940     Delta-E=       -0.000526989961 Rises=F Damp=F
 DIIS: error= 4.52D-04 at cycle   7 NSaved=   7.
 NSaved= 7 IEnMin= 7 EnMin= -260.612803934940     IErMin= 7 ErrMin= 4.52D-04
 ErrMax= 4.52D-04  0.00D+00 EMaxC= 1.00D-01 BMatC= 7.25D-05 BMatP= 6.47D-04
 IDIUse=3 WtCom= 9.95D-01 WtEn= 4.52D-03
 Coeff-Com: -0.809D-02 0.567D-02-0.244D-01-0.324D-01 0.304D-01 0.210D+00
 Coeff-Com:  0.819D+00
 Coeff-En:   0.000D+00 0.000D+00 0.000D+00 0.000D+00 0.000D+00 0.000D+00
 Coeff-En:   0.100D+01
 Coeff:     -0.805D-02 0.564D-02-0.243D-01-0.323D-01 0.302D-01 0.209D+00
 Coeff:      0.820D+00
 Gap=     0.152 Goal=   None    Shift=    0.000
 RMSDP=6.48D-05 MaxDP=2.20D-03 DE=-5.27D-04 OVMax= 4.35D-03

 Cycle   8  Pass 0  IDiag  1:
 RMSU=  2.04D-05    CP:  9.86D-01  6.34D-02  8.05D-01  1.23D+00  1.09D+00
                    CP:  8.07D-01  8.98D-01
 CoulSu:  requested number of processors reduced to:  11 ShMem   1 Linda.
 CalDSu:  requested number of processors reduced to:  21 ShMem   1 Linda.
 E= -260.612883201443     Delta-E=       -0.000079266503 Rises=F Damp=F
 DIIS: error= 2.31D-04 at cycle   8 NSaved=   8.
 NSaved= 8 IEnMin= 8 EnMin= -260.612883201443     IErMin= 8 ErrMin= 2.31D-04
 ErrMax= 2.31D-04  0.00D+00 EMaxC= 1.00D-01 BMatC= 8.60D-06 BMatP= 7.25D-05
 IDIUse=3 WtCom= 9.98D-01 WtEn= 2.31D-03
 Coeff-Com: -0.540D-03 0.841D-03-0.816D-02-0.229D-01-0.423D-01 0.296D-01
 Coeff-Com:  0.440D+00 0.603D+00
 Coeff-En:   0.000D+00 0.000D+00 0.000D+00 0.000D+00 0.000D+00 0.000D+00
 Coeff-En:   0.000D+00 0.100D+01
 Coeff:     -0.538D-03 0.839D-03-0.814D-02-0.228D-01-0.422D-01 0.296D-01
 Coeff:      0.439D+00 0.604D+00
 Gap=     0.151 Goal=   None    Shift=    0.000
 RMSDP=2.96D-05 MaxDP=8.57D-04 DE=-7.93D-05 OVMax= 1.22D-03

 Cycle   9  Pass 0  IDiag  1:
 RMSU=  7.96D-06    CP:  9.86D-01  6.40D-02  8.08D-01  1.24D+00  1.10D+00
                    CP:  8.24D-01  1.02D+00  7.28D-01
 CoulSu:  requested number of processors reduced to:  11 ShMem   1 Linda.
 CalDSu:  requested number of processors reduced to:  21 ShMem   1 Linda.
 E= -260.612893055097     Delta-E=       -0.000009853655 Rises=F Damp=F
 DIIS: error= 2.54D-05 at cycle   9 NSaved=   9.
 NSaved= 9 IEnMin= 9 EnMin= -260.612893055097     IErMin= 9 ErrMin= 2.54D-05
 ErrMax= 2.54D-05  0.00D+00 EMaxC= 1.00D-01 BMatC= 2.36D-07 BMatP= 8.60D-06
 IDIUse=1 WtCom= 1.00D+00 WtEn= 0.00D+00
 Coeff-Com:  0.183D-03 0.720D-04-0.856D-03-0.355D-02-0.145D-01-0.471D-02
 Coeff-Com:  0.570D-01 0.163D+00 0.804D+00
 Coeff:      0.183D-03 0.720D-04-0.856D-03-0.355D-02-0.145D-01-0.471D-02
 Coeff:      0.570D-01 0.163D+00 0.804D+00
 Gap=     0.151 Goal=   None    Shift=    0.000
 RMSDP=4.36D-06 MaxDP=1.46D-04 DE=-9.85D-06 OVMax= 2.85D-04

 Initial convergence to 1.0D-05 achieved.  Increase integral accuracy.
 Cycle  10  Pass 1  IDiag  1:
 CoulSu:  requested number of processors reduced to:  11 ShMem   1 Linda.
 CalDSu:  requested number of processors reduced to:  21 ShMem   1 Linda.
 E= -260.612866442061     Delta-E=        0.000026613037 Rises=F Damp=F
 DIIS: error= 1.06D-05 at cycle   1 NSaved=   1.
 NSaved= 1 IEnMin= 1 EnMin= -260.612866442061     IErMin= 1 ErrMin= 1.06D-05
 ErrMax= 1.06D-05  0.00D+00 EMaxC= 1.00D-01 BMatC= 3.74D-08 BMatP= 3.74D-08
 IDIUse=1 WtCom= 1.00D+00 WtEn= 0.00D+00
 Coeff-Com:  0.100D+01
 Coeff:      0.100D+01
 Gap=     0.151 Goal=   None    Shift=    0.000
 RMSDP=4.36D-06 MaxDP=1.46D-04 DE= 2.66D-05 OVMax= 8.15D-05

 Cycle  11  Pass 1  IDiag  1:
 RMSU=  3.50D-06    CP:  1.00D+00
 CoulSu:  requested number of processors reduced to:  11 ShMem   1 Linda.
 CalDSu:  requested number of processors reduced to:  21 ShMem   1 Linda.
 E= -260.612866449475     Delta-E=       -0.000000007414 Rises=F Damp=F
 DIIS: error= 1.02D-05 at cycle   2 NSaved=   2.
 NSaved= 2 IEnMin= 2 EnMin= -260.612866449475     IErMin= 2 ErrMin= 1.02D-05
 ErrMax= 1.02D-05  0.00D+00 EMaxC= 1.00D-01 BMatC= 2.75D-08 BMatP= 3.74D-08
 IDIUse=1 WtCom= 1.00D+00 WtEn= 0.00D+00
 Coeff-Com:  0.448D+00 0.552D+00
 Coeff:      0.448D+00 0.552D+00
 Gap=     0.151 Goal=   None    Shift=    0.000
 RMSDP=1.18D-06 MaxDP=4.72D-05 DE=-7.41D-09 OVMax= 7.76D-05

 Cycle  12  Pass 1  IDiag  1:
 RMSU=  1.12D-06    CP:  1.00D+00  9.04D-01
 CoulSu:  requested number of processors reduced to:  11 ShMem   1 Linda.
 CalDSu:  requested number of processors reduced to:  21 ShMem   1 Linda.
 E= -260.612866466330     Delta-E=       -0.000000016855 Rises=F Damp=F
 DIIS: error= 6.42D-06 at cycle   3 NSaved=   3.
 NSaved= 3 IEnMin= 3 EnMin= -260.612866466330     IErMin= 3 ErrMin= 6.42D-06
 ErrMax= 6.42D-06  0.00D+00 EMaxC= 1.00D-01 BMatC= 9.09D-09 BMatP= 2.75D-08
 IDIUse=1 WtCom= 1.00D+00 WtEn= 0.00D+00
 Coeff-Com:  0.135D-01 0.362D+00 0.625D+00
 Coeff:      0.135D-01 0.362D+00 0.625D+00
 Gap=     0.151 Goal=   None    Shift=    0.000
 RMSDP=6.08D-07 MaxDP=2.36D-05 DE=-1.69D-08 OVMax= 3.15D-05

 Cycle  13  Pass 1  IDiag  1:
 RMSU=  3.11D-07    CP:  1.00D+00  9.76D-01  5.98D-01
 CoulSu:  requested number of processors reduced to:  11 ShMem   1 Linda.
 CalDSu:  requested number of processors reduced to:  21 ShMem   1 Linda.
 E= -260.612866473685     Delta-E=       -0.000000007355 Rises=F Damp=F
 DIIS: error= 1.29D-06 at cycle   4 NSaved=   4.
 NSaved= 4 IEnMin= 4 EnMin= -260.612866473685     IErMin= 4 ErrMin= 1.29D-06
 ErrMax= 1.29D-06  0.00D+00 EMaxC= 1.00D-01 BMatC= 6.43D-10 BMatP= 9.09D-09
 IDIUse=1 WtCom= 1.00D+00 WtEn= 0.00D+00
 Coeff-Com: -0.759D-02 0.205D+00 0.382D+00 0.420D+00
 Coeff:     -0.759D-02 0.205D+00 0.382D+00 0.420D+00
 Gap=     0.151 Goal=   None    Shift=    0.000
 RMSDP=2.11D-07 MaxDP=6.30D-06 DE=-7.36D-09 OVMax= 1.22D-05

 Cycle  14  Pass 1  IDiag  1:
 RMSU=  8.70D-08    CP:  1.00D+00  9.75D-01  6.59D-01  4.29D-01
 CoulSu:  requested number of processors reduced to:  11 ShMem   1 Linda.
 CalDSu:  requested number of processors reduced to:  21 ShMem   1 Linda.
 E= -260.612866474254     Delta-E=       -0.000000000568 Rises=F Damp=F
 DIIS: error= 4.00D-07 at cycle   5 NSaved=   5.
 NSaved= 5 IEnMin= 5 EnMin= -260.612866474254     IErMin= 5 ErrMin= 4.00D-07
 ErrMax= 4.00D-07  0.00D+00 EMaxC= 1.00D-01 BMatC= 3.54D-11 BMatP= 6.43D-10
 IDIUse=1 WtCom= 1.00D+00 WtEn= 0.00D+00
 Coeff-Com: -0.500D-02 0.730D-01 0.137D+00 0.230D+00 0.565D+00
 Coeff:     -0.500D-02 0.730D-01 0.137D+00 0.230D+00 0.565D+00
 Gap=     0.151 Goal=   None    Shift=    0.000
 RMSDP=4.44D-08 MaxDP=1.92D-06 DE=-5.68D-10 OVMax= 2.88D-06

 Cycle  15  Pass 1  IDiag  1:
 RMSU=  3.26D-08    CP:  1.00D+00  9.76D-01  6.57D-01  4.97D-01  7.58D-01
 CoulSu:  requested number of processors reduced to:  11 ShMem   1 Linda.
 CalDSu:  requested number of processors reduced to:  21 ShMem   1 Linda.
 E= -260.612866474284     Delta-E=       -0.000000000030 Rises=F Damp=F
 DIIS: error= 9.63D-08 at cycle   6 NSaved=   6.
 NSaved= 6 IEnMin= 6 EnMin= -260.612866474284     IErMin= 6 ErrMin= 9.63D-08
 ErrMax= 9.63D-08  0.00D+00 EMaxC= 1.00D-01 BMatC= 2.73D-12 BMatP= 3.54D-11
 IDIUse=1 WtCom= 1.00D+00 WtEn= 0.00D+00
 Coeff-Com: -0.180D-02 0.172D-01 0.309D-01 0.730D-01 0.280D+00 0.601D+00
 Coeff:     -0.180D-02 0.172D-01 0.309D-01 0.730D-01 0.280D+00 0.601D+00
 Gap=     0.151 Goal=   None    Shift=    0.000
 RMSDP=1.42D-08 MaxDP=3.72D-07 DE=-2.97D-11 OVMax= 5.05D-07

 Cycle  16  Pass 1  IDiag  1:
 RMSU=  8.11D-09    CP:  1.00D+00  9.77D-01  6.55D-01  5.05D-01  8.38D-01
                    CP:  7.51D-01
 CoulSu:  requested number of processors reduced to:  11 ShMem   1 Linda.
 CalDSu:  requested number of processors reduced to:  21 ShMem   1 Linda.
 E= -260.612866474283     Delta-E=        0.000000000001 Rises=F Damp=F
 DIIS: error= 3.36D-08 at cycle   7 NSaved=   7.
 NSaved= 7 IEnMin= 6 EnMin= -260.612866474284     IErMin= 7 ErrMin= 3.36D-08
 ErrMax= 3.36D-08  0.00D+00 EMaxC= 1.00D-01 BMatC= 2.79D-13 BMatP= 2.73D-12
 IDIUse=1 WtCom= 1.00D+00 WtEn= 0.00D+00
 Coeff-Com: -0.235D-03-0.694D-03-0.242D-02 0.597D-02 0.666D-01 0.292D+00
 Coeff-Com:  0.639D+00
 Coeff:     -0.235D-03-0.694D-03-0.242D-02 0.597D-02 0.666D-01 0.292D+00
 Coeff:      0.639D+00
 Gap=     0.151 Goal=   None    Shift=    0.000
 RMSDP=4.15D-09 MaxDP=1.63D-07 DE= 5.12D-13 OVMax= 1.67D-07

 SCF Done:  E(RB3LYP) =  -260.612866474     A.U. after   16 cycles
            NFock= 16  Conv=0.42D-08     -V/T= 2.0086
 KE= 2.583804943066D+02 PE=-9.655176301827D+02 EE= 2.681400780452D+02
 Leave Link  502 at Tue Aug 23 18:27:56 2022, MaxMem=    23592960 cpu:        97.1
 (Enter /public/home/users/caep010/software/Gaussian09/g09/l601.exe)
 Copying SCF densities to generalized density rwf, IOpCl= 0 IROHF=0.

 **********************************************************************

            Population analysis using the SCF density.

 **********************************************************************

 Orbital symmetries:
       Occupied  (A) (A) (A) (A) (A) (A) (A) (A) (A) (A) (A) (A)
                 (A) (A) (A) (A) (A) (A) (A) (A)
       Virtual   (A) (A) (A) (A) (A) (A) (A) (A) (A) (A) (A) (A)
                 (A) (A) (A) (A) (A) (A) (A) (A) (A) (A) (A) (A)
                 (A) (A) (A) (A) (A) (A) (A) (A) (A) (A) (A) (A)
                 (A) (A) (A) (A) (A) (A) (A) (A) (A) (A) (A) (A)
                 (A) (A) (A) (A) (A) (A) (A) (A) (A) (A) (A) (A)
                 (A) (A) (A) (A) (A) (A) (A) (A) (A) (A) (A) (A)
                 (A) (A) (A) (A) (A) (A) (A) (A) (A) (A) (A) (A)
                 (A) (A) (A) (A) (A) (A) (A) (A) (A) (A) (A) (A)
                 (A) (A) (A) (A) (A) (A) (A) (A) (A) (A) (A) (A)
                 (A) (A) (A) (A) (A) (A) (A) (A) (A) (A) (A) (A)
                 (A) (A) (A) (A) (A) (A) (A) (A) (A) (A) (A) (A)
                 (A) (A) (A) (A) (A) (A) (A) (A) (A) (A) (A) (A)
                 (A) (A) (A) (A) (A) (A)
 The electronic state is 1-A.
 Alpha  occ. eigenvalues --  -14.48387 -14.31927 -14.26892 -14.22052 -10.23595
 Alpha  occ. eigenvalues --   -1.02652  -0.88354  -0.78997  -0.73539  -0.59421
 Alpha  occ. eigenvalues --   -0.58924  -0.54796  -0.50378  -0.46460  -0.40465
 Alpha  occ. eigenvalues --   -0.33064  -0.23024  -0.20839  -0.19461  -0.15195
 Alpha virt. eigenvalues --   -0.00093   0.06753   0.06845   0.09852   0.12941
 Alpha virt. eigenvalues --    0.14623   0.16921   0.18155   0.27321   0.35693
 Alpha virt. eigenvalues --    0.39777   0.43366   0.51193   0.51339   0.54753
 Alpha virt. eigenvalues --    0.56551   0.59219   0.59251   0.62941   0.66436
 Alpha virt. eigenvalues --    0.67731   0.68758   0.72411   0.72486   0.74614
 Alpha virt. eigenvalues --    0.74748   0.76794   0.78049   0.79819   0.81001
 Alpha virt. eigenvalues --    0.83824   0.85028   0.86379   0.90670   0.94442
 Alpha virt. eigenvalues --    1.01564   1.02191   1.05861   1.09125   1.21322
 Alpha virt. eigenvalues --    1.26523   1.29092   1.35110   1.36883   1.38572
 Alpha virt. eigenvalues --    1.38676   1.43019   1.53080   1.58155   1.64294
 Alpha virt. eigenvalues --    1.65252   1.68055   1.70725   1.75222   1.79872
 Alpha virt. eigenvalues --    1.83488   1.89098   1.90723   1.95646   2.01599
 Alpha virt. eigenvalues --    2.07109   2.11395   2.15508   2.33550   2.36391
 Alpha virt. eigenvalues --    2.38956   2.40966   2.49712   2.50074   2.51227
 Alpha virt. eigenvalues --    2.63751   2.70437   2.74324   2.82750   2.85515
 Alpha virt. eigenvalues --    2.87150   2.90294   2.95721   2.98942   2.99924
 Alpha virt. eigenvalues --    3.02713   3.12457   3.14515   3.17274   3.21055
 Alpha virt. eigenvalues --    3.25083   3.51563   3.58877   3.62109   3.62209
 Alpha virt. eigenvalues --    3.72750   3.75512   3.78666   3.86519   3.86817
 Alpha virt. eigenvalues --    3.91722   3.99879   4.00126   4.07722   4.07970
 Alpha virt. eigenvalues --    4.11086   4.12291   4.12549   4.13122   4.18297
 Alpha virt. eigenvalues --    4.19459   4.22319   4.25574   4.26026   4.32125
 Alpha virt. eigenvalues --    4.34810   4.36964   4.37905   4.41011   4.44755
 Alpha virt. eigenvalues --    4.45921   4.51402   4.52191   4.52793   4.56880
 Alpha virt. eigenvalues --    4.57598   4.59592   4.64179   4.64825   4.70338
 Alpha virt. eigenvalues --    4.74574   4.78187   4.79746   4.80711   4.86768
 Alpha virt. eigenvalues --    4.99059   5.03254   5.06401   5.20001   5.20789
 Alpha virt. eigenvalues --    5.34200   5.39313   5.47793   5.68485   5.76170
 Alpha virt. eigenvalues --    5.96853   7.80540   9.96574  11.03468  11.16244
 Alpha virt. eigenvalues --   11.33867  11.50341  11.69501  12.54895  16.69019
          Condensed to atoms (all electrons):
               1          2          3          4          5          6
     1  N    6.707589   0.631877  -0.032742  -0.084821   0.008789   0.335981
     2  C    0.631877   4.252784   0.341668   0.559153  -0.058596  -0.077468
     3  N   -0.032742   0.341668   6.671107  -0.067507  -0.003944   0.005722
     4  N   -0.084821   0.559153  -0.067507   7.045301   0.134296  -0.003841
     5  N    0.008789  -0.058596  -0.003944   0.134296   6.351081   0.000398
     6  H    0.335981  -0.077468   0.005722  -0.003841   0.000398   0.530893
     7  H    0.004362  -0.006655   0.316332   0.005012  -0.000158  -0.000741
     8  H    0.001714  -0.037498   0.338811  -0.000282  -0.000617  -0.000290
     9  H   -0.000501  -0.001699   0.005556  -0.035533   0.282604   0.000025
    10  H   -0.000501  -0.001699   0.005558  -0.035527   0.282626   0.000025
    11  H   -0.000256   0.000467  -0.000073  -0.029128   0.343925  -0.000067
               7          8          9         10         11
     1  N    0.004362   0.001714  -0.000501  -0.000501  -0.000256
     2  C   -0.006655  -0.037498  -0.001699  -0.001699   0.000467
     3  N    0.316332   0.338811   0.005556   0.005558  -0.000073
     4  N    0.005012  -0.000282  -0.035533  -0.035527  -0.029128
     5  N   -0.000158  -0.000617   0.282604   0.282626   0.343925
     6  H   -0.000741  -0.000290   0.000025   0.000025  -0.000067
     7  H    0.449292  -0.026897  -0.000194  -0.000194   0.000012
     8  H   -0.026897   0.509772   0.002553   0.002554   0.000087
     9  H   -0.000194   0.002553   0.516675  -0.032837  -0.024204
    10  H   -0.000194   0.002554  -0.032837   0.516618  -0.024194
    11  H    0.000012   0.000087  -0.024204  -0.024194   0.406000
 Mulliken charges:
               1
     1  N   -0.571492
     2  C    0.397666
     3  N   -0.580489
     4  N   -0.487123
     5  N   -0.340405
     6  H    0.209362
     7  H    0.259829
     8  H    0.210093
     9  H    0.287555
    10  H    0.287571
    11  H    0.327431
 Sum of Mulliken charges =  -0.00000
 Mulliken charges with hydrogens summed into heavy atoms:
               1
     1  N   -0.362130
     2  C    0.397666
     3  N   -0.110566
     4  N   -0.487123
     5  N    0.562153
 Electronic spatial extent (au):  <R**2>=            444.3689
 Charge=             -0.0000 electrons
 Dipole moment (field-independent basis, Debye):
    X=              7.1724    Y=              3.5142    Z=             -0.0001  Tot=              7.9871
 Quadrupole moment (field-independent basis, Debye-Ang):
   XX=            -22.2814   YY=            -27.0667   ZZ=            -31.2075
   XY=             -0.6657   XZ=              0.0009   YZ=             -0.0001
 Traceless Quadrupole moment (field-independent basis, Debye-Ang):
   XX=              4.5705   YY=             -0.2149   ZZ=             -4.3556
   XY=             -0.6657   XZ=              0.0009   YZ=             -0.0001
 Octapole moment (field-independent basis, Debye-Ang**2):
  XXX=             50.7068  YYY=              7.4626  ZZZ=             -0.0001  XYY=             -3.0872
  XXY=              4.3895  XXZ=              0.0001  XZZ=              7.3785  YZZ=              1.6438
  YYZ=             -0.0007  XYZ=             -0.0006
 Hexadecapole moment (field-independent basis, Debye-Ang**3):
 XXXX=           -299.0031 YYYY=           -144.1481 ZZZZ=            -32.7745 XXXY=            -32.8751
 XXXZ=              0.0052 YYYX=              4.4156 YYYZ=              0.0000 ZZZX=              0.0006
 ZZZY=             -0.0002 XXYY=            -63.7258 XXZZ=            -60.4019 YYZZ=            -37.3047
 XXYZ=             -0.0008 YYXZ=              0.0016 ZZXY=              2.3576
 N-N= 1.783841913566D+02 E-N=-9.655176293977D+02  KE= 2.583804943066D+02
 PrsmSu:  requested number of processors reduced to:  11 ShMem   1 Linda.
 No NMR shielding tensors so no spin-rotation constants.
 Leave Link  601 at Tue Aug 23 18:27:56 2022, MaxMem=    23592960 cpu:         3.5
 (Enter /public/home/users/caep010/software/Gaussian09/g09/l701.exe)
 Compute integral first derivatives.
 ... and contract with generalized density number  0.
 PrsmSu:  requested number of processors reduced to:   3 ShMem   1 Linda.
 PrsmSu:  requested number of processors reduced to:   6 ShMem   1 Linda.
 Leave Link  701 at Tue Aug 23 18:27:57 2022, MaxMem=    23592960 cpu:         2.0
 (Enter /public/home/users/caep010/software/Gaussian09/g09/l702.exe)
 L702 exits ... SP integral derivatives will be done elsewhere.
 Leave Link  702 at Tue Aug 23 18:27:57 2022, MaxMem=    23592960 cpu:         0.7
 (Enter /public/home/users/caep010/software/Gaussian09/g09/l703.exe)
 Compute integral first derivatives, UseDBF=F ICtDFT=           0.
 Integral derivatives from FoFJK, PRISM(SPDF).
 Calling FoFJK, ICntrl=      2127 FMM=F ISym2X=0 I1Cent= 0 IOpClX= 0 NMat=1 NMatS=1 NMatT=0.
 FoFJK:  IHMeth= 1 ICntrl=    2127 DoSepK=F KAlg= 0 I1Cent=   0 FoldK=F
 IRaf=         0 NMat=   1 IRICut=       1 DoRegI=T DoRafI=F ISym2E= 0.
 FoFCou: FMM=F IPFlag=           0 FMFlag=      100000 FMFlg1=         800
         NFxFlg=           0 DoJE=F BraDBF=F KetDBF=F FulRan=T
         wScrn=  0.000000 ICntrl=    2127 IOpCl=  0 I1Cent=           0 NGrid=           0
         NMat0=    1 NMatS0=      1 NMatT0=    0 NMatD0=    1 NMtDS0=    0 NMtDT0=    0
 Symmetry not used in FoFCou.
 CoulSu:  requested number of processors reduced to:   6 ShMem   1 Linda.
 CalDSu:  requested number of processors reduced to:  18 ShMem   1 Linda.
 Leave Link  703 at Tue Aug 23 18:27:59 2022, MaxMem=    23592960 cpu:        15.8
 (Enter /public/home/users/caep010/software/Gaussian09/g09/l716.exe)
 Dipole        = 2.82183579D+00 1.38260564D+00-4.42315249D-05
 ***** Axes restored to original set *****
 -------------------------------------------------------------------
 Center     Atomic                   Forces (Hartrees/Bohr)
 Number     Number              X              Y              Z
 -------------------------------------------------------------------
      1        7          -0.011302543   -0.003610589    0.004789356
      2        6           0.033571329    0.001377844   -0.010550101
      3        7           0.005055000   -0.006995149    0.001228612
      4        7          -0.029264078    0.049456783   -0.010616076
      5        7          -0.020505586   -0.013886991    0.011503253
      6        1           0.003157745   -0.031739064    0.011465835
      7        1           0.032131838   -0.000303856   -0.009465662
      8        1          -0.017981987    0.027811998   -0.005514240
      9        1           0.014714718   -0.005459234    0.009999640
     10        1           0.008846783   -0.013180598   -0.009707743
     11        1          -0.018423218   -0.003471145    0.006867126
 -------------------------------------------------------------------
 Cartesian Forces:  Max     0.049456783 RMS     0.017520601
 Leave Link  716 at Tue Aug 23 18:27:59 2022, MaxMem=    23592960 cpu:         1.1
 (Enter /public/home/users/caep010/software/Gaussian09/g09/l103.exe)

 GradGradGradGradGradGradGradGradGradGradGradGradGradGradGradGradGradGrad
 Berny optimization.
 FormGI is forming the generalized inverse of G from B-inverse, IUseBI=4.
 Internal  Forces:  Max     0.063182245 RMS     0.021093470
 Search for a local minimum.
 Step number   1 out of a maximum of   45
 All quantities printed in internal units (Hartrees-Bohrs-Radians)
 RMS Force = .21093D-01 SwitMx=.10000D-02 MixMth= 1
 Mixed Optimization -- RFO/linear search
 Second derivative matrix not updated -- first step.
 ITU=  0
     Eigenvalues ---    0.01246   0.01253   0.01297   0.01297   0.01724
     Eigenvalues ---    0.03102   0.10373   0.10551   0.16000   0.16000
     Eigenvalues ---    0.16000   0.16000   0.16000   0.16000   0.25000
     Eigenvalues ---    0.25000   0.25000   0.40466   0.40538   0.40545
     Eigenvalues ---    0.40643   0.40667   0.40677   0.40833   0.41007
     Eigenvalues ---    0.45095   0.69066
 RFO step:  Lambda=-4.66789219D-02 EMin= 1.24636145D-02
 Linear search not attempted -- first point.
 Maximum step size (   0.300) exceeded in Quadratic search.
    -- Step size scaled by   0.758
 Iteration  1 RMS(Cart)=  0.13858883 RMS(Int)=  0.00456509
 Iteration  2 RMS(Cart)=  0.00792017 RMS(Int)=  0.00098656
 Iteration  3 RMS(Cart)=  0.00000983 RMS(Int)=  0.00098655
 Iteration  4 RMS(Cart)=  0.00000000 RMS(Int)=  0.00098655
 ITry= 1 IFail=0 DXMaxC= 3.34D-01 DCOld= 1.00D+10 DXMaxT= 3.00D-01 DXLimC= 3.00D+00 Rises=F
 Variable       Old X    -DE/DX   Delta X   Delta X   Delta X     New X
                                 (Linear)    (Quad)   (Total)
    R1        2.44413  -0.02892   0.00000  -0.02971  -0.02971   2.41442
    R2        1.97389  -0.02837   0.00000  -0.04744  -0.04744   1.92645
    R3        2.70208  -0.03079   0.00000  -0.05108  -0.05108   2.65100
    R4        2.70925  -0.04604   0.00000  -0.07728  -0.07728   2.63197
    R5        1.97356  -0.03338   0.00000  -0.05579  -0.05579   1.91777
    R6        1.97136  -0.03345   0.00000  -0.05569  -0.05569   1.91567
    R7        2.65165   0.02416   0.00000   0.03678   0.03678   2.68844
    R8        1.97529  -0.00683   0.00000  -0.01145  -0.01145   1.96385
    R9        1.97520  -0.00680   0.00000  -0.01140  -0.01140   1.96380
   R10        1.97344  -0.01996   0.00000  -0.03335  -0.03335   1.94009
    A1        2.11738  -0.03661   0.00000  -0.13419  -0.13419   1.98319
    A2        2.08398  -0.00883   0.00000  -0.02254  -0.02254   2.06144
    A3        2.08592   0.02128   0.00000   0.05434   0.05434   2.14026
    A4        2.11329  -0.01245   0.00000  -0.03180  -0.03180   2.08148
    A5        2.09757  -0.00555   0.00000  -0.02034  -0.02034   2.07723
    A6        2.12196   0.00560   0.00000   0.02052   0.02052   2.14248
    A7        2.06366  -0.00005   0.00000  -0.00018  -0.00018   2.06348
    A8        2.14676  -0.06318   0.00000  -0.16135  -0.16135   1.98541
    A9        1.90332   0.02179   0.00000   0.08157   0.07961   1.98293
   A10        1.90329   0.02179   0.00000   0.08158   0.07962   1.98290
   A11        1.88530  -0.00872   0.00000  -0.03530  -0.03506   1.85024
   A12        1.94202  -0.01594   0.00000  -0.05181  -0.05524   1.88678
   A13        1.91437  -0.00916   0.00000  -0.03704  -0.03681   1.87755
   A14        1.91459  -0.00918   0.00000  -0.03713  -0.03690   1.87769
    D1        3.14148   0.00000   0.00000   0.00003   0.00003   3.14151
    D2       -0.00013   0.00000   0.00000   0.00003   0.00003  -0.00010
    D3       -0.00010   0.00000   0.00000   0.00001   0.00001  -0.00009
    D4        3.14155  -0.00000   0.00000  -0.00000  -0.00000   3.14154
    D5        3.14151   0.00000   0.00000   0.00000   0.00000   3.14151
    D6       -0.00004  -0.00000   0.00000  -0.00001  -0.00001  -0.00004
    D7       -3.14156  -0.00000   0.00000  -0.00002  -0.00002  -3.14158
    D8        0.00002  -0.00000   0.00000  -0.00002  -0.00002   0.00000
    D9        1.06194   0.00372   0.00000   0.01873   0.02142   1.08335
   D10       -1.06189  -0.00372   0.00000  -0.01876  -0.02145  -1.08333
   D11        3.14149   0.00001   0.00000   0.00004   0.00004   3.14153
         Item               Value     Threshold  Converged?
 Maximum Force            0.063182     0.000450     NO 
 RMS     Force            0.021093     0.000300     NO 
 Maximum Displacement     0.334364     0.001800     NO 
 RMS     Displacement     0.142583     0.001200     NO 
 Predicted change in Energy=-2.409198D-02
 Lowest energy point so far.  Saving SCF results.
 GradGradGradGradGradGradGradGradGradGradGradGradGradGradGradGradGradGrad

 Leave Link  103 at Tue Aug 23 18:27:59 2022, MaxMem=    23592960 cpu:         2.9
 (Enter /public/home/users/caep010/software/Gaussian09/g09/l202.exe)
                          Input orientation:                          
 ---------------------------------------------------------------------
 Center     Atomic      Atomic             Coordinates (Angstroms)
 Number     Number       Type             X           Y           Z
 ---------------------------------------------------------------------
      1          7           0       -1.333814    1.711752   -0.271708
      2          6           0       -0.602955    0.680316   -0.086261
      3          7           0       -1.184223   -0.440404    0.525374
      4          7           0        0.736095    0.630625   -0.466135
      5          7           0        1.370033   -0.608241   -0.170676
      6          1           0       -0.843359    2.484772   -0.720189
      7          1           0       -2.160162   -0.400130    0.800735
      8          1           0       -0.669875   -1.295041    0.706193
      9          1           0        0.949397   -1.419533   -0.665503
     10          1           0        1.399617   -0.829018    0.844366
     11          1           0        2.339247   -0.515099   -0.496195
 ---------------------------------------------------------------------
                    Distance matrix (angstroms):
                    1          2          3          4          5
     1  N    0.000000
     2  C    1.277656   0.000000
     3  N    2.299891   1.402849   0.000000
     4  N    2.343323   1.392778   2.412014   0.000000
     5  N    3.564178   2.358005   2.652711   1.422660   0.000000
     6  H    1.019432   1.927620   3.197542   2.448894   3.842889
     7  H    2.508592   2.092611   1.014842   3.325014   3.667319
     8  H    3.230775   2.129436   1.013731   2.656933   2.324181
     9  H    3.895263   2.674824   2.632340   2.070843   1.039222
    10  H    3.895225   2.674781   2.632300   2.070804   1.039196
    11  H    4.301238   3.202128   3.669335   1.970706   1.026652
                    6          7          8          9         10
     6  H    0.000000
     7  H    3.517078   0.000000
     8  H    4.043717   1.740907   0.000000
     9  H    4.296575   3.585860   2.125815   0.000000
    10  H    4.296507   3.585788   2.125810   1.682591   0.000000
    11  H    4.379313   4.684008   3.332996   1.666838   1.666899
                   11
    11  H    0.000000
 Stoichiometry    CH6N4
 Framework group  C1[X(CH6N4)]
 Deg. of freedom    27
 Full point group                 C1      NOp   1
 RotChk:  IX=0 Diff= 1.09D-01
 Largest Abelian subgroup         C1      NOp   1
 Largest concise Abelian subgroup C1      NOp   1
                         Standard orientation:                         
 ---------------------------------------------------------------------
 Center     Atomic      Atomic             Coordinates (Angstroms)
 Number     Number       Type             X           Y           Z
 ---------------------------------------------------------------------
      1          7           0       -1.774335   -0.614504    0.000018
      2          6           0       -0.607967   -0.092976    0.000002
      3          7           0       -0.509603    1.306420    0.000003
      4          7           0        0.556381   -0.857255   -0.000006
      5          7           0        1.750018   -0.083180   -0.000010
      6          1           0       -1.766096   -1.633903   -0.000065
      7          1           0       -1.360363    1.859694   -0.000067
      8          1           0        0.379296    1.793770    0.000032
      9          1           0        1.856627    0.517503    0.841297
     10          1           0        1.856580    0.517498   -0.841294
     11          1           0        2.524539   -0.757072    0.000048
 ---------------------------------------------------------------------
 Rotational constants (GHZ):      9.8033075      4.2402476      3.0102721
 Leave Link  202 at Tue Aug 23 18:27:59 2022, MaxMem=    23592960 cpu:         0.4
 (Enter /public/home/users/caep010/software/Gaussian09/g09/l301.exe)
 Standard basis: GTBas3 (6D, 7F)
 Ernie: Thresh=  0.10000D-02 Tol=  0.10000D-05 Strict=F.
 There are   185 symmetry adapted cartesian basis functions of A   symmetry.
 There are   170 symmetry adapted basis functions of A   symmetry.
   170 basis functions,   262 primitive gaussians,   185 cartesian basis functions
    20 alpha electrons       20 beta electrons
       nuclear repulsion energy       183.0647026863 Hartrees.
 IExCor=  402 DFT=T Ex+Corr=B3LYP ExCW=0 ScaHFX=  0.200000
 ScaDFX=  0.800000  0.720000  1.000000  0.810000 ScalE2=  1.000000  1.000000
 IRadAn=      0 IRanWt=     -1 IRanGd=            0 ICorTp=0 IEmpDi=  4
 NAtoms=   11 NActive=   11 NUniq=   11 SFac= 1.00D+00 NAtFMM=   60 NAOKFM=F Big=F
 Integral buffers will be    131072 words long.
 Raffenetti 2 integral format.
 Two-electron integral symmetry is turned on.
 Leave Link  301 at Tue Aug 23 18:27:59 2022, MaxMem=    23592960 cpu:         1.6
 (Enter /public/home/users/caep010/software/Gaussian09/g09/l302.exe)
 NPDir=0 NMtPBC=     1 NCelOv=     1 NCel=       1 NClECP=     1 NCelD=      1
         NCelK=      1 NCelE2=     1 NClLst=     1 CellRange=     0.0.
 One-electron integrals computed using PRISM.
 PrsmSu:  requested number of processors reduced to:   3 ShMem   1 Linda.
 PrsmSu:  requested number of processors reduced to:  11 ShMem   1 Linda.
 NBasis=   170 RedAO= T EigKep=  2.75D-04  NBF=   170
 NBsUse=   170 1.00D-06 EigRej= -1.00D+00 NBFU=   170
 Precomputing XC quadrature grid using
 IXCGrd= 4 IRadAn=           0 IRanWt=          -1 IRanGd=           0 AccXCQ= 0.00D+00.
 Generated NRdTot=       0 NPtTot=           0 NUsed=           0 NTot=          32
 NSgBfM=   185   185   185   185   185 MxSgAt=    11 MxSgA2=    11.
 Leave Link  302 at Tue Aug 23 18:28:00 2022, MaxMem=    23592960 cpu:         4.1
 (Enter /public/home/users/caep010/software/Gaussian09/g09/l303.exe)
 DipDrv:  MaxL=1.
 Leave Link  303 at Tue Aug 23 18:28:00 2022, MaxMem=    23592960 cpu:         0.7
 (Enter /public/home/users/caep010/software/Gaussian09/g09/l401.exe)
 Initial guess from the checkpoint file:  "G4.Frag_1140.chk"
 B after Tr=     0.000000   -0.000000   -0.000000
         Rot=    0.999071    0.000002    0.000000    0.043091 Ang=   4.94 deg.
 Guess basis will be translated and rotated to current coordinates.
 JPrj=2 DoOrth=T DoCkMO=T.
 Generating alternative initial guess.
 ExpMin= 1.61D-01 ExpMax= 4.17D+03 ExpMxC= 6.27D+02 IAcc=1 IRadAn=         1 AccDes= 0.00D+00
 Harris functional with IExCor=  402 and IRadAn=       1 diagonalized for initial guess.
 HarFok:  IExCor=  402 AccDes= 0.00D+00 IRadAn=         1 IDoV= 1 UseB2=F ITyADJ=14
 ICtDFT=  3500011 ScaDFX=  1.000000  1.000000  1.000000  1.000000
 CalDSu:  requested number of processors reduced to:  21 ShMem   1 Linda.
 FoFCou: FMM=F IPFlag=           0 FMFlag=      100000 FMFlg1=           0
         NFxFlg=           0 DoJE=T BraDBF=F KetDBF=T FulRan=T
         wScrn=  0.000000 ICntrl=     500 IOpCl=  0 I1Cent=   200000004 NGrid=           0
         NMat0=    1 NMatS0=      1 NMatT0=    0 NMatD0=    1 NMtDS0=    0 NMtDT0=    0
 Petite list used in FoFCou.
 CoulSu:  requested number of processors reduced to:  11 ShMem   1 Linda.
 CoulSu:  requested number of processors reduced to:  11 ShMem   1 Linda.
 CoulSu:  requested number of processors reduced to:  12 ShMem   1 Linda.
 CoulSu:  requested number of processors reduced to:  12 ShMem   1 Linda.
 Harris En= -260.681891861723    
 Leave Link  401 at Tue Aug 23 18:28:00 2022, MaxMem=    23592960 cpu:         6.6
 (Enter /public/home/users/caep010/software/Gaussian09/g09/l502.exe)
 Closed shell SCF:
 Using DIIS extrapolation, IDIIS=  1040.
 Integral symmetry usage will be decided dynamically.
 IVT=      128495 IEndB=      128495 NGot=    23592960 MDV=    23515516
 LenX=    23515516 LenY=    23480850
 Requested convergence on RMS density matrix=1.00D-08 within 128 cycles.
 Requested convergence on MAX density matrix=1.00D-06.
 Requested convergence on             energy=1.00D-06.
 No special actions if energy rises.
 Fock matrices will be formed incrementally for  20 cycles.
 Integral accuracy reduced to 1.0D-05 until final iterations.

 Cycle   1  Pass 0  IDiag  1:
 FoFJK:  IHMeth= 1 ICntrl=       0 DoSepK=F KAlg= 0 I1Cent=   0 FoldK=F
 IRaf= 980000000 NMat=   1 IRICut=       1 DoRegI=T DoRafI=F ISym2E= 0.
 FoFCou: FMM=F IPFlag=           0 FMFlag=      100000 FMFlg1=           0
         NFxFlg=           0 DoJE=F BraDBF=F KetDBF=F FulRan=T
         wScrn=  0.000000 ICntrl=       0 IOpCl=  0 I1Cent=           0 NGrid=           0
         NMat0=    1 NMatS0=      1 NMatT0=    0 NMatD0=    1 NMtDS0=    0 NMtDT0=    0
 Symmetry not used in FoFCou.
 CoulSu:  requested number of processors reduced to:  11 ShMem   1 Linda.
 CalDSu:  requested number of processors reduced to:  21 ShMem   1 Linda.
 E= -260.622227578470    
 DIIS: error= 4.91D-03 at cycle   1 NSaved=   1.
 NSaved= 1 IEnMin= 1 EnMin= -260.622227578470     IErMin= 1 ErrMin= 4.91D-03
 ErrMax= 4.91D-03  0.00D+00 EMaxC= 1.00D-01 BMatC= 1.19D-02 BMatP= 1.19D-02
 IDIUse=3 WtCom= 9.51D-01 WtEn= 4.91D-02
 Coeff-Com:  0.100D+01
 Coeff-En:   0.100D+01
 Coeff:      0.100D+01
 Gap=     0.931 Goal=   None    Shift=    0.000
 GapD=    0.931 DampG=2.000 DampE=1.000 DampFc=2.0000 IDamp=-1.
 RMSDP=9.37D-04 MaxDP=2.05D-02              OVMax= 4.32D-02

 Cycle   2  Pass 0  IDiag  1:
 RMSU=  9.36D-04    CP:  9.98D-01
 CoulSu:  requested number of processors reduced to:  11 ShMem   1 Linda.
 CalDSu:  requested number of processors reduced to:  21 ShMem   1 Linda.
 E= -260.635350548348     Delta-E=       -0.013122969878 Rises=F Damp=F
 DIIS: error= 1.37D-03 at cycle   2 NSaved=   2.
 NSaved= 2 IEnMin= 2 EnMin= -260.635350548348     IErMin= 2 ErrMin= 1.37D-03
 ErrMax= 1.37D-03  0.00D+00 EMaxC= 1.00D-01 BMatC= 5.63D-04 BMatP= 1.19D-02
 IDIUse=3 WtCom= 9.86D-01 WtEn= 1.37D-02
 Coeff-Com:  0.377D-01 0.962D+00
 Coeff-En:   0.000D+00 0.100D+01
 Coeff:      0.372D-01 0.963D+00
 Gap=     0.162 Goal=   None    Shift=    0.000
 RMSDP=3.54D-04 MaxDP=1.16D-02 DE=-1.31D-02 OVMax= 2.07D-02

 Cycle   3  Pass 0  IDiag  1:
 RMSU=  3.47D-04    CP:  9.96D-01  1.06D+00
 CoulSu:  requested number of processors reduced to:  11 ShMem   1 Linda.
 CalDSu:  requested number of processors reduced to:  21 ShMem   1 Linda.
 E= -260.634655667754     Delta-E=        0.000694880594 Rises=F Damp=F
 DIIS: error= 2.57D-03 at cycle   3 NSaved=   3.
 NSaved= 3 IEnMin= 2 EnMin= -260.635350548348     IErMin= 2 ErrMin= 1.37D-03
 ErrMax= 2.57D-03  0.00D+00 EMaxC= 1.00D-01 BMatC= 1.42D-03 BMatP= 5.63D-04
 IDIUse=3 WtCom= 1.65D-01 WtEn= 8.35D-01
 Coeff-Com: -0.246D-01 0.631D+00 0.393D+00
 Coeff-En:   0.000D+00 0.670D+00 0.330D+00
 Coeff:     -0.405D-02 0.663D+00 0.341D+00
 Gap=     0.161 Goal=   None    Shift=    0.000
 RMSDP=2.08D-04 MaxDP=7.51D-03 DE= 6.95D-04 OVMax= 1.33D-02

 Cycle   4  Pass 0  IDiag  1:
 RMSU=  7.50D-05    CP:  9.97D-01  1.08D+00  4.47D-01
 CoulSu:  requested number of processors reduced to:  11 ShMem   1 Linda.
 CalDSu:  requested number of processors reduced to:  21 ShMem   1 Linda.
 E= -260.635911045370     Delta-E=       -0.001255377616 Rises=F Damp=F
 DIIS: error= 2.55D-04 at cycle   4 NSaved=   4.
 NSaved= 4 IEnMin= 4 EnMin= -260.635911045370     IErMin= 4 ErrMin= 2.55D-04
 ErrMax= 2.55D-04  0.00D+00 EMaxC= 1.00D-01 BMatC= 2.17D-05 BMatP= 5.63D-04
 IDIUse=3 WtCom= 9.97D-01 WtEn= 2.55D-03
 Coeff-Com: -0.140D-01 0.248D+00 0.116D+00 0.650D+00
 Coeff-En:   0.000D+00 0.000D+00 0.000D+00 0.100D+01
 Coeff:     -0.140D-01 0.248D+00 0.115D+00 0.651D+00
 Gap=     0.161 Goal=   None    Shift=    0.000
 RMSDP=3.88D-05 MaxDP=1.33D-03 DE=-1.26D-03 OVMax= 1.31D-03

 Cycle   5  Pass 0  IDiag  1:
 RMSU=  3.04D-05    CP:  9.97D-01  1.08D+00  4.33D-01  6.90D-01
 CoulSu:  requested number of processors reduced to:  11 ShMem   1 Linda.
 CalDSu:  requested number of processors reduced to:  21 ShMem   1 Linda.
 E= -260.635927095610     Delta-E=       -0.000016050240 Rises=F Damp=F
 DIIS: error= 1.31D-04 at cycle   5 NSaved=   5.
 NSaved= 5 IEnMin= 5 EnMin= -260.635927095610     IErMin= 5 ErrMin= 1.31D-04
 ErrMax= 1.31D-04  0.00D+00 EMaxC= 1.00D-01 BMatC= 4.21D-06 BMatP= 2.17D-05
 IDIUse=3 WtCom= 9.99D-01 WtEn= 1.31D-03
 Coeff-Com: -0.393D-02 0.447D-01 0.638D-02 0.343D+00 0.610D+00
 Coeff-En:   0.000D+00 0.000D+00 0.000D+00 0.916D-01 0.908D+00
 Coeff:     -0.393D-02 0.446D-01 0.637D-02 0.343D+00 0.610D+00
 Gap=     0.161 Goal=   None    Shift=    0.000
 RMSDP=1.69D-05 MaxDP=4.67D-04 DE=-1.61D-05 OVMax= 7.28D-04

 Cycle   6  Pass 0  IDiag  1:
 RMSU=  8.32D-06    CP:  9.97D-01  1.08D+00  4.22D-01  8.38D-01  7.23D-01
 CoulSu:  requested number of processors reduced to:  11 ShMem   1 Linda.
 CalDSu:  requested number of processors reduced to:  21 ShMem   1 Linda.
 E= -260.635930578197     Delta-E=       -0.000003482586 Rises=F Damp=F
 DIIS: error= 3.36D-05 at cycle   6 NSaved=   6.
 NSaved= 6 IEnMin= 6 EnMin= -260.635930578197     IErMin= 6 ErrMin= 3.36D-05
 ErrMax= 3.36D-05  0.00D+00 EMaxC= 1.00D-01 BMatC= 3.35D-07 BMatP= 4.21D-06
 IDIUse=1 WtCom= 1.00D+00 WtEn= 0.00D+00
 Coeff-Com: -0.868D-03 0.227D-02-0.589D-02 0.120D+00 0.311D+00 0.573D+00
 Coeff:     -0.868D-03 0.227D-02-0.589D-02 0.120D+00 0.311D+00 0.573D+00
 Gap=     0.161 Goal=   None    Shift=    0.000
 RMSDP=4.70D-06 MaxDP=1.73D-04 DE=-3.48D-06 OVMax= 1.90D-04

 Initial convergence to 1.0D-05 achieved.  Increase integral accuracy.
 Cycle   7  Pass 1  IDiag  1:
 CoulSu:  requested number of processors reduced to:  11 ShMem   1 Linda.
 CalDSu:  requested number of processors reduced to:  21 ShMem   1 Linda.
 E= -260.635973532673     Delta-E=       -0.000042954477 Rises=F Damp=F
 DIIS: error= 1.14D-05 at cycle   1 NSaved=   1.
 NSaved= 1 IEnMin= 1 EnMin= -260.635973532673     IErMin= 1 ErrMin= 1.14D-05
 ErrMax= 1.14D-05  0.00D+00 EMaxC= 1.00D-01 BMatC= 6.54D-08 BMatP= 6.54D-08
 IDIUse=1 WtCom= 1.00D+00 WtEn= 0.00D+00
 Coeff-Com:  0.100D+01
 Coeff:      0.100D+01
 Gap=     0.161 Goal=   None    Shift=    0.000
 RMSDP=4.70D-06 MaxDP=1.73D-04 DE=-4.30D-05 OVMax= 1.24D-04

 Cycle   8  Pass 1  IDiag  1:
 RMSU=  3.71D-06    CP:  1.00D+00
 CoulSu:  requested number of processors reduced to:  11 ShMem   1 Linda.
 CalDSu:  requested number of processors reduced to:  21 ShMem   1 Linda.
 E= -260.635973514442     Delta-E=        0.000000018231 Rises=F Damp=F
 DIIS: error= 1.36D-05 at cycle   2 NSaved=   2.
 NSaved= 2 IEnMin= 1 EnMin= -260.635973532673     IErMin= 1 ErrMin= 1.14D-05
 ErrMax= 1.36D-05  0.00D+00 EMaxC= 1.00D-01 BMatC= 7.82D-08 BMatP= 6.54D-08
 IDIUse=1 WtCom= 1.00D+00 WtEn= 0.00D+00
 Coeff-Com:  0.526D+00 0.474D+00
 Coeff:      0.526D+00 0.474D+00
 Gap=     0.161 Goal=   None    Shift=    0.000
 RMSDP=2.34D-06 MaxDP=8.99D-05 DE= 1.82D-08 OVMax= 9.53D-05

 Cycle   9  Pass 1  IDiag  1:
 RMSU=  1.78D-06    CP:  1.00D+00  5.95D-01
 CoulSu:  requested number of processors reduced to:  11 ShMem   1 Linda.
 CalDSu:  requested number of processors reduced to:  21 ShMem   1 Linda.
 E= -260.635973579234     Delta-E=       -0.000000064791 Rises=F Damp=F
 DIIS: error= 4.48D-06 at cycle   3 NSaved=   3.
 NSaved= 3 IEnMin= 3 EnMin= -260.635973579234     IErMin= 3 ErrMin= 4.48D-06
 ErrMax= 4.48D-06  0.00D+00 EMaxC= 1.00D-01 BMatC= 5.74D-09 BMatP= 6.54D-08
 IDIUse=1 WtCom= 1.00D+00 WtEn= 0.00D+00
 Coeff-Com:  0.504D-01 0.217D+00 0.732D+00
 Coeff:      0.504D-01 0.217D+00 0.732D+00
 Gap=     0.161 Goal=   None    Shift=    0.000
 RMSDP=5.68D-07 MaxDP=2.11D-05 DE=-6.48D-08 OVMax= 2.67D-05

 Cycle  10  Pass 1  IDiag  1:
 RMSU=  4.58D-07    CP:  1.00D+00  6.74D-01  9.08D-01
 CoulSu:  requested number of processors reduced to:  11 ShMem   1 Linda.
 CalDSu:  requested number of processors reduced to:  21 ShMem   1 Linda.
 E= -260.635973583312     Delta-E=       -0.000000004078 Rises=F Damp=F
 DIIS: error= 1.75D-06 at cycle   4 NSaved=   4.
 NSaved= 4 IEnMin= 4 EnMin= -260.635973583312     IErMin= 4 ErrMin= 1.75D-06
 ErrMax= 1.75D-06  0.00D+00 EMaxC= 1.00D-01 BMatC= 9.94D-10 BMatP= 5.74D-09
 IDIUse=1 WtCom= 1.00D+00 WtEn= 0.00D+00
 Coeff-Com: -0.449D-02 0.983D-01 0.430D+00 0.477D+00
 Coeff:     -0.449D-02 0.983D-01 0.430D+00 0.477D+00
 Gap=     0.161 Goal=   None    Shift=    0.000
 RMSDP=2.53D-07 MaxDP=8.34D-06 DE=-4.08D-09 OVMax= 1.32D-05

 Cycle  11  Pass 1  IDiag  1:
 RMSU=  7.94D-08    CP:  1.00D+00  6.76D-01  8.87D-01  4.84D-01
 CoulSu:  requested number of processors reduced to:  11 ShMem   1 Linda.
 CalDSu:  requested number of processors reduced to:  21 ShMem   1 Linda.
 E= -260.635973584165     Delta-E=       -0.000000000853 Rises=F Damp=F
 DIIS: error= 4.24D-07 at cycle   5 NSaved=   5.
 NSaved= 5 IEnMin= 5 EnMin= -260.635973584165     IErMin= 5 ErrMin= 4.24D-07
 ErrMax= 4.24D-07  0.00D+00 EMaxC= 1.00D-01 BMatC= 5.41D-11 BMatP= 9.94D-10
 IDIUse=1 WtCom= 1.00D+00 WtEn= 0.00D+00
 Coeff-Com: -0.526D-02 0.475D-01 0.216D+00 0.278D+00 0.464D+00
 Coeff:     -0.526D-02 0.475D-01 0.216D+00 0.278D+00 0.464D+00
 Gap=     0.161 Goal=   None    Shift=    0.000
 RMSDP=4.96D-08 MaxDP=2.04D-06 DE=-8.53D-10 OVMax= 3.10D-06

 Cycle  12  Pass 1  IDiag  1:
 RMSU=  3.11D-08    CP:  1.00D+00  6.78D-01  8.88D-01  5.44D-01  6.80D-01
 CoulSu:  requested number of processors reduced to:  11 ShMem   1 Linda.
 CalDSu:  requested number of processors reduced to:  21 ShMem   1 Linda.
 E= -260.635973584207     Delta-E=       -0.000000000042 Rises=F Damp=F
 DIIS: error= 1.19D-07 at cycle   6 NSaved=   6.
 NSaved= 6 IEnMin= 6 EnMin= -260.635973584207     IErMin= 6 ErrMin= 1.19D-07
 ErrMax= 1.19D-07  0.00D+00 EMaxC= 1.00D-01 BMatC= 4.56D-12 BMatP= 5.41D-11
 IDIUse=1 WtCom= 1.00D+00 WtEn= 0.00D+00
 Coeff-Com: -0.225D-02 0.132D-01 0.610D-01 0.904D-01 0.258D+00 0.580D+00
 Coeff:     -0.225D-02 0.132D-01 0.610D-01 0.904D-01 0.258D+00 0.580D+00
 Gap=     0.161 Goal=   None    Shift=    0.000
 RMSDP=1.38D-08 MaxDP=3.97D-07 DE=-4.16D-11 OVMax= 9.06D-07

 Cycle  13  Pass 1  IDiag  1:
 RMSU=  6.72D-09    CP:  1.00D+00  6.78D-01  8.89D-01  5.35D-01  7.50D-01
                    CP:  6.97D-01
 CoulSu:  requested number of processors reduced to:  11 ShMem   1 Linda.
 CalDSu:  requested number of processors reduced to:  21 ShMem   1 Linda.
 E= -260.635973584214     Delta-E=       -0.000000000007 Rises=F Damp=F
 DIIS: error= 1.77D-08 at cycle   7 NSaved=   7.
 NSaved= 7 IEnMin= 7 EnMin= -260.635973584214     IErMin= 7 ErrMin= 1.77D-08
 ErrMax= 1.77D-08  0.00D+00 EMaxC= 1.00D-01 BMatC= 1.04D-13 BMatP= 4.56D-12
 IDIUse=1 WtCom= 1.00D+00 WtEn= 0.00D+00
 Coeff-Com: -0.141D-03-0.800D-04-0.913D-03 0.249D-02 0.102D-01 0.133D+00
 Coeff-Com:  0.855D+00
 Coeff:     -0.141D-03-0.800D-04-0.913D-03 0.249D-02 0.102D-01 0.133D+00
 Coeff:      0.855D+00
 Gap=     0.161 Goal=   None    Shift=    0.000
 RMSDP=3.65D-09 MaxDP=1.36D-07 DE=-6.88D-12 OVMax= 1.35D-07

 SCF Done:  E(RB3LYP) =  -260.635973584     A.U. after   13 cycles
            NFock= 13  Conv=0.37D-08     -V/T= 2.0071
 KE= 2.588049182152D+02 PE=-9.749995886233D+02 EE= 2.724939941375D+02
 Leave Link  502 at Tue Aug 23 18:28:06 2022, MaxMem=    23592960 cpu:       115.8
 (Enter /public/home/users/caep010/software/Gaussian09/g09/l701.exe)
 Compute integral first derivatives.
 ... and contract with generalized density number  0.
 PrsmSu:  requested number of processors reduced to:   3 ShMem   1 Linda.
 PrsmSu:  requested number of processors reduced to:   6 ShMem   1 Linda.
 Leave Link  701 at Tue Aug 23 18:28:06 2022, MaxMem=    23592960 cpu:         1.7
 (Enter /public/home/users/caep010/software/Gaussian09/g09/l702.exe)
 L702 exits ... SP integral derivatives will be done elsewhere.
 Leave Link  702 at Tue Aug 23 18:28:06 2022, MaxMem=    23592960 cpu:         0.5
 (Enter /public/home/users/caep010/software/Gaussian09/g09/l703.exe)
 Compute integral first derivatives, UseDBF=F ICtDFT=           0.
 Integral derivatives from FoFJK, PRISM(SPDF).
 Calling FoFJK, ICntrl=      2127 FMM=F ISym2X=0 I1Cent= 0 IOpClX= 0 NMat=1 NMatS=1 NMatT=0.
 FoFJK:  IHMeth= 1 ICntrl=    2127 DoSepK=F KAlg= 0 I1Cent=   0 FoldK=F
 IRaf=         0 NMat=   1 IRICut=       1 DoRegI=T DoRafI=F ISym2E= 0.
 FoFCou: FMM=F IPFlag=           0 FMFlag=      100000 FMFlg1=         800
         NFxFlg=           0 DoJE=F BraDBF=F KetDBF=F FulRan=T
         wScrn=  0.000000 ICntrl=    2127 IOpCl=  0 I1Cent=           0 NGrid=           0
         NMat0=    1 NMatS0=      1 NMatT0=    0 NMatD0=    1 NMtDS0=    0 NMtDT0=    0
 Symmetry not used in FoFCou.
 CoulSu:  requested number of processors reduced to:   6 ShMem   1 Linda.
 CalDSu:  requested number of processors reduced to:  18 ShMem   1 Linda.
 Leave Link  703 at Tue Aug 23 18:28:08 2022, MaxMem=    23592960 cpu:        17.0
 (Enter /public/home/users/caep010/software/Gaussian09/g09/l716.exe)
 Dipole        = 2.91295738D+00 1.28157540D+00-5.64785637D-05
 ***** Axes restored to original set *****
 -------------------------------------------------------------------
 Center     Atomic                   Forces (Hartrees/Bohr)
 Number     Number              X              Y              Z
 -------------------------------------------------------------------
      1        7          -0.016008531    0.006490782    0.002239761
      2        6           0.020213192   -0.004953354   -0.004091070
      3        7           0.004396856   -0.007110289    0.001469668
      4        7          -0.011702258    0.017336911   -0.003292122
      5        7          -0.000545563   -0.006405608    0.002646115
      6        1           0.004258717   -0.007343898    0.001599123
      7        1           0.009940527    0.001278831   -0.003465842
      8        1          -0.010963364    0.008240864    0.000046452
      9        1           0.003893693   -0.001940229    0.003459254
     10        1           0.002048826   -0.004376487   -0.002746431
     11        1          -0.005532094   -0.001217522    0.002135092
 -------------------------------------------------------------------
 Cartesian Forces:  Max     0.020213192 RMS     0.007376505
 Leave Link  716 at Tue Aug 23 18:28:08 2022, MaxMem=    23592960 cpu:         0.5
 (Enter /public/home/users/caep010/software/Gaussian09/g09/l103.exe)

 GradGradGradGradGradGradGradGradGradGradGradGradGradGradGradGradGradGrad
 Berny optimization.
 Using GEDIIS/GDIIS optimizer.
 FormGI is forming the generalized inverse of G from B-inverse, IUseBI=4.
 Internal  Forces:  Max     0.014521554 RMS     0.006194528
 Search for a local minimum.
 Step number   2 out of a maximum of   45
 All quantities printed in internal units (Hartrees-Bohrs-Radians)
 RMS Force = .61945D-02 SwitMx=.10000D-02 MixMth= 1
 Mixed Optimization -- RFO/linear search
 Update second derivatives using D2CorX and points    1    2
 DE= -2.31D-02 DEPred=-2.41D-02 R= 9.59D-01
 TightC=F SS=  1.41D+00  RLast= 3.01D-01 DXNew= 5.0454D-01 9.0297D-01
 Trust test= 9.59D-01 RLast= 3.01D-01 DXMaxT set to 5.05D-01
 ITU=  1  0
 Use linear search instead of GDIIS.
     Eigenvalues ---    0.01246   0.01253   0.01297   0.01297   0.01748
     Eigenvalues ---    0.03102   0.09608   0.10450   0.14937   0.16000
     Eigenvalues ---    0.16000   0.16000   0.16000   0.16781   0.24565
     Eigenvalues ---    0.25000   0.28519   0.39210   0.40532   0.40542
     Eigenvalues ---    0.40560   0.40674   0.40725   0.40824   0.42449
     Eigenvalues ---    0.45118   0.72438
 RFO step:  Lambda=-2.16530027D-03 EMin= 1.24636146D-02
 Quartic linear search produced a step of  0.27678.
 Iteration  1 RMS(Cart)=  0.03159528 RMS(Int)=  0.00081792
 Iteration  2 RMS(Cart)=  0.00092948 RMS(Int)=  0.00032879
 Iteration  3 RMS(Cart)=  0.00000050 RMS(Int)=  0.00032879
 ITry= 1 IFail=0 DXMaxC= 8.29D-02 DCOld= 1.00D+10 DXMaxT= 5.05D-01 DXLimC= 3.00D+00 Rises=F
 Variable       Old X    -DE/DX   Delta X   Delta X   Delta X     New X
                                 (Linear)    (Quad)   (Total)
    R1        2.41442   0.00547  -0.00822   0.02069   0.01246   2.42688
    R2        1.92645  -0.00422  -0.01313   0.00553  -0.00760   1.91884
    R3        2.65100  -0.00418  -0.01414   0.00718  -0.00696   2.64404
    R4        2.63197  -0.01211  -0.02139  -0.00747  -0.02886   2.60311
    R5        1.91777  -0.01045  -0.01544  -0.01061  -0.02606   1.89172
    R6        1.91567  -0.01250  -0.01541  -0.01693  -0.03235   1.88333
    R7        2.68844   0.01322   0.01018   0.02307   0.03325   2.72169
    R8        1.96385  -0.00171  -0.00317  -0.00083  -0.00400   1.95985
    R9        1.96380  -0.00169  -0.00316  -0.00080  -0.00396   1.95984
   R10        1.94009  -0.00601  -0.00923  -0.00561  -0.01484   1.92525
    A1        1.98319  -0.01452  -0.03714  -0.04269  -0.07983   1.90335
    A2        2.06144  -0.00719  -0.00624  -0.02624  -0.03248   2.02896
    A3        2.14026   0.00511   0.01504   0.00133   0.01637   2.15663
    A4        2.08148   0.00209  -0.00880   0.02492   0.01611   2.09760
    A5        2.07723  -0.00592  -0.00563  -0.03574  -0.04137   2.03586
    A6        2.14248   0.00836   0.00568   0.05487   0.06055   2.20303
    A7        2.06348  -0.00244  -0.00005  -0.01913  -0.01918   2.04430
    A8        1.98541  -0.01134  -0.04466   0.01542  -0.02924   1.95617
    A9        1.98293   0.00580   0.02204   0.00398   0.02532   2.00825
   A10        1.98290   0.00580   0.02204   0.00400   0.02534   2.00824
   A11        1.85024  -0.00144  -0.00970   0.00737  -0.00228   1.84796
   A12        1.88678  -0.00552  -0.01529  -0.01194  -0.02838   1.85840
   A13        1.87755  -0.00269  -0.01019  -0.00169  -0.01183   1.86573
   A14        1.87769  -0.00270  -0.01021  -0.00176  -0.01193   1.86576
    D1        3.14151   0.00000   0.00001   0.00004   0.00005   3.14156
    D2       -0.00010   0.00000   0.00001   0.00005   0.00006  -0.00003
    D3       -0.00009   0.00000   0.00000   0.00004   0.00004  -0.00005
    D4        3.14154  -0.00000  -0.00000  -0.00002  -0.00002   3.14152
    D5        3.14151   0.00000   0.00000   0.00003   0.00003   3.14154
    D6       -0.00004  -0.00000  -0.00000  -0.00003  -0.00004  -0.00008
    D7       -3.14158  -0.00000  -0.00001  -0.00004  -0.00005   3.14155
    D8        0.00000  -0.00000  -0.00001  -0.00003  -0.00004  -0.00003
    D9        1.08335   0.00100   0.00593  -0.00486   0.00192   1.08528
   D10       -1.08333  -0.00101  -0.00594   0.00489  -0.00190  -1.08524
   D11        3.14153   0.00000   0.00001   0.00006   0.00007  -3.14159
         Item               Value     Threshold  Converged?
 Maximum Force            0.014522     0.000450     NO 
 RMS     Force            0.006195     0.000300     NO 
 Maximum Displacement     0.082924     0.001800     NO 
 RMS     Displacement     0.031767     0.001200     NO 
 Predicted change in Energy=-2.788738D-03
 Lowest energy point so far.  Saving SCF results.
 GradGradGradGradGradGradGradGradGradGradGradGradGradGradGradGradGradGrad

 Leave Link  103 at Tue Aug 23 18:28:09 2022, MaxMem=    23592960 cpu:         0.8
 (Enter /public/home/users/caep010/software/Gaussian09/g09/l202.exe)
                          Input orientation:                          
 ---------------------------------------------------------------------
 Center     Atomic      Atomic             Coordinates (Angstroms)
 Number     Number       Type             X           Y           Z
 ---------------------------------------------------------------------
      1          7           0       -1.360217    1.695687   -0.257509
      2          6           0       -0.589508    0.682001   -0.090931
      3          7           0       -1.164047   -0.438682    0.518690
      4          7           0        0.732790    0.659121   -0.476332
      5          7           0        1.363647   -0.599403   -0.172239
      6          1           0       -0.835653    2.440890   -0.705345
      7          1           0       -2.128277   -0.364243    0.777198
      8          1           0       -0.705118   -1.300422    0.718763
      9          1           0        0.957493   -1.422472   -0.655132
     10          1           0        1.402161   -0.839266    0.836007
     11          1           0        2.326729   -0.513210   -0.493170
 ---------------------------------------------------------------------
                    Distance matrix (angstroms):
                    1          2          3          4          5
     1  N    0.000000
     2  C    1.284251   0.000000
     3  N    2.279582   1.399164   0.000000
     4  N    2.345854   1.377508   2.406912   0.000000
     5  N    3.562884   2.337396   2.625348   1.440255   0.000000
     6  H    1.015408   1.879305   3.146115   2.384778   3.790054
     7  H    2.429783   2.053311   1.001053   3.286992   3.626330
     8  H    3.218529   2.144521   0.996615   2.708439   2.359047
     9  H    3.905483   2.672142   2.616607   2.101307   1.037106
    10  H    3.905444   2.672117   2.616597   2.101298   1.037101
    11  H    4.304455   3.177226   3.635235   1.978708   1.018799
                    6          7          8          9         10
     6  H    0.000000
     7  H    3.426016   0.000000
     8  H    4.005314   1.704473   0.000000
     9  H    4.259515   3.562779   2.160269   0.000000
    10  H    4.259460   3.562737   2.160332   1.661733   0.000000
    11  H    4.332712   4.634987   3.358658   1.651604   1.651621
                   11
    11  H    0.000000
 Stoichiometry    CH6N4
 Framework group  C1[X(CH6N4)]
 Deg. of freedom    27
 Full point group                 C1      NOp   1
 RotChk:  IX=2 Diff= 5.93D-03
 Largest Abelian subgroup         C1      NOp   1
 Largest concise Abelian subgroup C1      NOp   1
                         Standard orientation:                         
 ---------------------------------------------------------------------
 Center     Atomic      Atomic             Coordinates (Angstroms)
 Number     Number       Type             X           Y           Z
 ---------------------------------------------------------------------
      1          7           0       -1.783300   -0.587974   -0.000005
      2          6           0       -0.594470   -0.102193    0.000008
      3          7           0       -0.496260    1.293520    0.000003
      4          7           0        0.544726   -0.876636    0.000022
      5          7           0        1.742793   -0.077280   -0.000016
      6          1           0       -1.727115   -1.601827   -0.000034
      7          1           0       -1.357274    1.804168   -0.000057
      8          1           0        0.347076    1.824581    0.000071
      9          1           0        1.864955    0.531280    0.830840
     10          1           0        1.864912    0.531250   -0.830893
     11          1           0        2.518550   -0.737700   -0.000004
 ---------------------------------------------------------------------
 Rotational constants (GHZ):      9.9332559      4.2632246      3.0327893
 Leave Link  202 at Tue Aug 23 18:28:09 2022, MaxMem=    23592960 cpu:         0.2
 (Enter /public/home/users/caep010/software/Gaussian09/g09/l301.exe)
 Standard basis: GTBas3 (6D, 7F)
 Ernie: Thresh=  0.10000D-02 Tol=  0.10000D-05 Strict=F.
 There are   185 symmetry adapted cartesian basis functions of A   symmetry.
 There are   170 symmetry adapted basis functions of A   symmetry.
   170 basis functions,   262 primitive gaussians,   185 cartesian basis functions
    20 alpha electrons       20 beta electrons
       nuclear repulsion energy       183.5907398088 Hartrees.
 IExCor=  402 DFT=T Ex+Corr=B3LYP ExCW=0 ScaHFX=  0.200000
 ScaDFX=  0.800000  0.720000  1.000000  0.810000 ScalE2=  1.000000  1.000000
 IRadAn=      0 IRanWt=     -1 IRanGd=            0 ICorTp=0 IEmpDi=  4
[...]
 Alpha virt. eigenvalues --    4.55232   4.59218   4.61340   4.64765   4.68497
 Alpha virt. eigenvalues --    4.70867   4.80883   4.87451   4.94971   4.97018
 Alpha virt. eigenvalues --    5.06166   5.09053   5.13169   5.19586   5.24397
 Alpha virt. eigenvalues --    5.28205   5.29010   5.33473   5.35407   5.37693
 Alpha virt. eigenvalues --    5.40257   5.41359   5.46023   5.49390   5.51283
 Alpha virt. eigenvalues --    5.57072   5.59472   5.64203   5.66179   5.68005
 Alpha virt. eigenvalues --    5.72003   5.74765   5.77261   5.79716   5.81379
 Alpha virt. eigenvalues --    5.85280   5.87332   5.87977   5.88639   5.92015
 Alpha virt. eigenvalues --    5.92735   5.94985   6.00941   6.02416   6.04205
 Alpha virt. eigenvalues --    6.09678   6.11267   6.11576   6.13257   6.17114
 Alpha virt. eigenvalues --    6.18711   6.20449   6.21017   6.24257   6.24569
 Alpha virt. eigenvalues --    6.26415   6.28654   6.31131   6.34356   6.37660
 Alpha virt. eigenvalues --    6.40966   6.45714   6.46538   6.50475   6.51933
 Alpha virt. eigenvalues --    6.56894   6.58460   6.60305   6.61934   6.62735
 Alpha virt. eigenvalues --    6.66761   6.70696   6.73161   6.77936   6.80798
 Alpha virt. eigenvalues --    6.85006   6.88635   6.92210   6.95237   7.00452
 Alpha virt. eigenvalues --    7.02562   7.12315   7.18702   7.21149   7.23153
 Alpha virt. eigenvalues --    7.28230   7.38224   7.40594   7.47755   7.55625
 Alpha virt. eigenvalues --    7.56144   7.57161   7.66709   7.71105   7.74578
 Alpha virt. eigenvalues --    7.81053   7.82337   7.87748   7.97250   8.02420
 Alpha virt. eigenvalues --    8.06491   8.11253   8.12749   8.17000   8.18811
 Alpha virt. eigenvalues --    8.27612   8.31060   8.32212   8.34205   8.36936
 Alpha virt. eigenvalues --    8.39301   8.41242   8.44972   8.48314   8.49839
 Alpha virt. eigenvalues --    8.53097   8.54313   8.54823   8.57116   8.59207
 Alpha virt. eigenvalues --    8.60606   8.63920   8.64425   8.67792   8.71672
 Alpha virt. eigenvalues --    8.73965   8.77126   8.80340   8.81949   8.82597
 Alpha virt. eigenvalues --    8.84329   8.88030   8.92225   8.95320   8.97688
 Alpha virt. eigenvalues --    9.01830   9.02348   9.05024   9.08879   9.14541
 Alpha virt. eigenvalues --    9.17402   9.17982   9.22108   9.28459   9.31442
 Alpha virt. eigenvalues --    9.33319   9.35089   9.38361   9.44951   9.47339
 Alpha virt. eigenvalues --    9.51103   9.53265   9.57561   9.63041   9.63763
 Alpha virt. eigenvalues --    9.75073   9.78197   9.81181   9.86416   9.88828
 Alpha virt. eigenvalues --    9.94373   9.98073  10.02945  10.05213  10.11066
 Alpha virt. eigenvalues --   10.15287  10.18840  10.23704  10.25432  10.28853
 Alpha virt. eigenvalues --   10.31443  10.34780  10.36579  10.43167  10.44634
 Alpha virt. eigenvalues --   10.47354  10.50200  10.50988  10.60964  10.67850
 Alpha virt. eigenvalues --   10.76505  10.80368  10.83129  10.87145  10.90602
 Alpha virt. eigenvalues --   10.97614  11.05180  11.10054  11.17997  11.21019
 Alpha virt. eigenvalues --   11.27512  11.32106  11.39812  11.41781  11.46563
 Alpha virt. eigenvalues --   11.60366  11.68694  11.69984  11.75814  11.79497
 Alpha virt. eigenvalues --   11.86655  11.89231  11.93131  12.00688  12.03867
 Alpha virt. eigenvalues --   12.15694  12.16838  12.25187  12.35723  12.39658
 Alpha virt. eigenvalues --   12.43494  12.47168  12.51115  12.60067  12.67050
 Alpha virt. eigenvalues --   12.68825  12.72315  12.73347  12.80189  12.86276
 Alpha virt. eigenvalues --   12.88426  12.93384  12.99277  13.04140  13.13655
 Alpha virt. eigenvalues --   13.15776  13.18732  13.23918  13.27584  13.29537
 Alpha virt. eigenvalues --   13.40384  13.44255  13.50747  13.58689  13.66884
 Alpha virt. eigenvalues --   13.71230  13.76624  13.78444  13.82600  13.85502
 Alpha virt. eigenvalues --   13.89180  13.92910  13.96360  14.01060  14.10386
 Alpha virt. eigenvalues --   14.13529  14.19397  14.27363  14.29209  14.38294
 Alpha virt. eigenvalues --   14.47867  14.51195  14.51595  14.55993  14.56676
 Alpha virt. eigenvalues --   14.60148  14.65018  14.66913  14.68055  14.71346
 Alpha virt. eigenvalues --   14.72490  14.74314  14.76657  14.77480  14.82855
 Alpha virt. eigenvalues --   14.84885  14.87441  14.90580  14.92127  14.93897
 Alpha virt. eigenvalues --   14.96799  15.00705  15.01463  15.03857  15.07024
 Alpha virt. eigenvalues --   15.08151  15.09287  15.13417  15.16670  15.17292
 Alpha virt. eigenvalues --   15.18539  15.21860  15.24141  15.31320  15.32120
 Alpha virt. eigenvalues --   15.33999  15.35193  15.40608  15.42191  15.46286
 Alpha virt. eigenvalues --   15.48371  15.49772  15.55618  15.61892  15.62567
 Alpha virt. eigenvalues --   15.66442  15.70778  15.72987  15.75963  15.78808
 Alpha virt. eigenvalues --   15.83310  15.99532  16.01383  16.09979  16.14133
 Alpha virt. eigenvalues --   16.21103  16.32137  16.57556  16.69401  16.75753
 Alpha virt. eigenvalues --   16.94044  17.26490  17.32919  17.48191  17.68097
 Alpha virt. eigenvalues --   17.87071  17.99330  18.07543  18.20078  18.26345
 Alpha virt. eigenvalues --   18.34175  18.38811  18.45245  18.48422  18.54757
 Alpha virt. eigenvalues --   18.66975  18.72234  18.76817  18.78624  18.88181
 Alpha virt. eigenvalues --   19.08813  19.15310  19.16781  19.31998  19.43381
 Alpha virt. eigenvalues --   19.57661  19.68886  19.81219  19.94466  20.01086
 Alpha virt. eigenvalues --   20.09035  20.17440  20.32021  20.34910  40.58710
 Alpha virt. eigenvalues --   50.67695  50.79132  50.86618  51.67836
          Condensed to atoms (all electrons):
               1          2          3          4          5          6
     1  N    7.126838   0.566743  -0.140671  -0.096477  -0.002309   0.312789
     2  C    0.566743   4.411101   0.224789   0.347099   0.005934  -0.017466
     3  N   -0.140671   0.224789   7.077702  -0.022015  -0.141928   0.013780
     4  N   -0.096477   0.347099  -0.022015   7.447963   0.023107  -0.014801
     5  N   -0.002309   0.005934  -0.141928   0.023107   6.487101   0.000567
     6  H    0.312789  -0.017466   0.013780  -0.014801   0.000567   0.426509
     7  H    0.009207  -0.017127   0.344399   0.000549   0.003680  -0.000431
     8  H   -0.003913  -0.012412   0.321391  -0.003156   0.010063  -0.000141
     9  H   -0.000826  -0.000115   0.009703  -0.068339   0.376602  -0.000332
    10  H   -0.004878  -0.026913   0.048925   0.010687   0.323179   0.000299
    11  H    0.004930   0.001470   0.001279  -0.035620   0.343373   0.000214
               7          8          9         10         11
     1  N    0.009207  -0.003913  -0.000826  -0.004878   0.004930
     2  C   -0.017127  -0.012412  -0.000115  -0.026913   0.001470
     3  N    0.344399   0.321391   0.009703   0.048925   0.001279
     4  N    0.000549  -0.003156  -0.068339   0.010687  -0.035620
     5  N    0.003680   0.010063   0.376602   0.323179   0.343373
     6  H   -0.000431  -0.000141  -0.000332   0.000299   0.000214
     7  H    0.320318  -0.002906  -0.000290  -0.001318   0.000195
     8  H   -0.002906   0.387650  -0.000900  -0.002983  -0.000044
     9  H   -0.000290  -0.000900   0.391483  -0.017676  -0.041170
    10  H   -0.001318  -0.002983  -0.017676   0.308553  -0.009759
    11  H    0.000195  -0.000044  -0.041170  -0.009759   0.378708
 Mulliken charges:
               1
     1  N   -0.771433
     2  C    0.516896
     3  N   -0.737355
     4  N   -0.588997
     5  N   -0.429369
     6  H    0.279013
     7  H    0.343725
     8  H    0.307351
     9  H    0.351859
    10  H    0.371886
    11  H    0.356423
 Sum of Mulliken charges =  -0.00000
 Mulliken charges with hydrogens summed into heavy atoms:
               1
     1  N   -0.492420
     2  C    0.516896
     3  N   -0.086279
     4  N   -0.588997
     5  N    0.650798
 Electronic spatial extent (au):  <R**2>=            412.5856
 Charge=             -0.0000 electrons
 Dipole moment (field-independent basis, Debye):
    X=              6.1978    Y=              3.1179    Z=             -0.0455  Tot=              6.9380
 Quadrupole moment (field-independent basis, Debye-Ang):
   XX=            -27.5159   YY=            -31.0625   ZZ=            -29.7454
   XY=             -0.6122   XZ=             -0.3866   YZ=              1.9150
 Traceless Quadrupole moment (field-independent basis, Debye-Ang):
   XX=              1.9254   YY=             -1.6212   ZZ=             -0.3042
   XY=             -0.6122   XZ=             -0.3866   YZ=              1.9150
 Octapole moment (field-independent basis, Debye-Ang**2):
  XXX=             54.3829  YYY=              8.7744  ZZZ=              0.2366  XYY=             -8.0218
  XXY=              0.5406  XXZ=             -1.5166  XZZ=              7.7480  YZZ=              4.6742
  YYZ=              0.6518  XYZ=              1.8150
 Hexadecapole moment (field-independent basis, Debye-Ang**3):
 XXXX=           -312.5411 YYYY=           -161.9486 ZZZZ=            -39.0335 XXXY=             -9.5231
 XXXZ=              0.3197 YYYX=              1.9744 YYYZ=              5.6898 ZZZX=             -1.9469
 ZZZY=              4.2053 XXYY=            -68.1660 XXZZ=            -53.4129 YYZZ=            -31.9031
 XXYZ=              1.2762 YYXZ=              0.4655 ZZXY=             -4.2127
 N-N= 1.836629207265D+02 E-N=-9.753377314334D+02  KE= 2.587832842143D+02
 PrsmSu:  requested number of processors reduced to:   1 ShMem   1 Linda.
 No NMR shielding tensors so no spin-rotation constants.
 Leave Link  601 at Tue Aug 23 20:39:20 2022, MaxMem=    23592960 cpu:         7.3
 (Enter /public/home/users/caep010/software/Gaussian09/g09/l9999.exe)
 1\1\GINC-B1936\SP\RHF\GFHFB2\C1H6N4\ROOT\23-Aug-2022\0\\#P Geom=AllChe
 ck Guess=TCheck SCRF=Check HF/GFHFB2 SCF=Tight\\Frag_1140\\0,1\N,0,-1.
 3733769921,1.5794161932,-0.2646200183\C,0,-0.5336612929,0.6123951569,-
 0.1581080457\N,0,-0.8987770149,-0.4896252707,0.744250269\N,0,0.6688352
 152,0.5001276061,-0.7860656926\N,0,1.4024031669,-0.6200989082,-0.20446
 04858\H,0,-0.9643957617,2.3079597006,-0.8526533132\H,0,-1.4996631498,-
 0.0908357524,1.4586546148\H,0,-1.4763975072,-1.1543171564,0.2335720186
 \H,0,1.61020765,-1.3386639013,-0.903073167\H,0,0.7703821859,-1.0057078
 464,0.5517012429\H,0,2.2944435007,-0.3006498213,0.1808025774\\Version=
 ES64L-G09RevE.01\State=1-A\HF=-259.179696\RMSD=7.185e-09\Dipole=1.5780
 717,-2.1484604,0.587065\Quadrupole=1.6932694,0.2469068,-1.9401762,-0.1
 465499,0.1894824,0.8306099\PG=C01 [X(C1H6N4)]\\@


 A COMPLEXITY IS MERELY A DISARRANGEMENT OF SIMPLICITIES.

                                    -- G. O. ABELL IN "EXPLORATION OF THE UNIVERSE"
 Diagonal vibrational polarizability:
        0.0000000       0.0000000       0.0000000

 Temperature=              298.150000 Pressure=                      1.000000
 E(ZPE)=                     0.091152 E(Thermal)=                    0.096737
 E(CCSD(T))=              -259.891440 E(Empiric)=                   -0.104205
 DE(Plus)=                  -0.028196 DE(2DF)=                      -0.213637
 E(Delta-G3XP)=             -0.330473 DE(HF)=                       -0.025177
 G4(0 K)=                 -260.501977 G4 Energy=                  -260.496392
 G4 Enthalpy=             -260.495448 G4 Free Energy=             -260.530462
 1\1\GINC-B1936\Mixed\G4\G4\C1H6N4\ROOT\23-Aug-2022\0\\#P Geom=AllCheck
  Guess=TCheck SCRF=Check HF/GFHFB2 SCF=Tight\\Frag_1140\\0,1\N,0,-1.37
 33769921,1.5794161932,-0.2646200183\C,0,-0.5336612929,0.6123951569,-0.
 1581080457\N,0,-0.8987770149,-0.4896252707,0.744250269\N,0,0.668835215
 2,0.5001276061,-0.7860656926\N,0,1.4024031669,-0.6200989082,-0.2044604
 858\H,0,-0.9643957617,2.3079597006,-0.8526533132\H,0,-1.4996631498,-0.
 0908357524,1.4586546148\H,0,-1.4763975072,-1.1543171564,0.2335720186\H
 ,0,1.61020765,-1.3386639013,-0.903073167\H,0,0.7703821859,-1.005707846
 4,0.5517012429\H,0,2.2944435007,-0.3006498213,0.1808025774\\Version=ES
 64L-G09RevE.01\State=1-A\MP2/GTBas1=-259.8305495\MP4/GTBas1=-259.89242
 11\CCSD(T)/G3Bas1=-259.8914396\MP2/GTBas2=-259.8577353\MP4/GTBas2=-259
 .9206175\MP2/GTBas3=-260.032352\MP4/GTBas3=-260.1060584\HF/GTLargeXP=-
 259.1555578\MP2/GTLargeXP=-260.3900111\HF/GFHFB1=-259.1754315\HF/GFHFB
 2=-259.179696\G4=-260.5019769\FreqCoord=-2.5953063923,2.984664055,-0.5
 000593639,-1.0084736914,1.1572591316,-0.2987809058,-1.6984424126,-0.92
 52576694,1.4064291827,1.2639153847,0.9451042071,-1.4854488814,2.650157
 9134,-1.1718171118,-0.3863743231,-1.8224438733,4.3614117598,-1.6112812
 483,-2.8339526448,-0.1716546952,2.7564577444,-2.7899869519,-2.18134329
 61,0.4413871474,3.0428514756,-2.5297081575,-1.7065609636,1.4558113489,
 -1.9005123995,1.0425642563,4.3358698437,-0.5681458241,0.3416673555\PG=
 C01 [X(C1H6N4)]\NImag=0\\0.40168188,-0.15422942,0.62080651,-0.08203535
 ,-0.22138322,0.22532568,-0.26955295,0.23509282,-0.02354190,0.66736967,
 0.19068054,-0.35232276,0.06217838,-0.24883353,0.64585312,-0.00456372,0
 .04171144,-0.09104068,-0.11261143,-0.12261009,0.35602568,0.01227567,0.
 01809330,-0.01665073,-0.09192485,-0.02975612,0.03865962,0.45504098,-0.
 00214907,-0.05351667,0.03134941,0.00956849,-0.12365121,0.02297533,0.07
 727822,0.47010272,-0.00360356,0.02195707,-0.00856570,0.00452327,0.0270
 7893,-0.11803369,-0.11793959,0.16626603,0.50628737,-0.04140789,0.03026
 352,0.00866550,-0.25954691,-0.00968205,0.14096412,-0.01260910,-0.00805
 467,0.02369750,0.41721929,0.03777094,-0.00269041,-0.01051448,0.0507338
 8,-0.08364907,-0.00070991,-0.01803524,0.00315393,0.01987542,-0.0897495
 7,0.21137471,0.00979032,-0.00647215,0.01749393,0.08647039,0.03359121,-
 0.12703809,0.01965253,0.01678478,-0.00924313,-0.14508676,-0.08424256,0
 .20063780,-0.00093329,0.00071972,0.00993879,-0.04484709,0.04288803,-0.
 02196052,-0.03258109,0.01267354,0.01558843,-0.08010446,-0.01283990,0.0
 2307750,0.65302743,0.00505564,0.01061166,-0.00061813,0.01375117,-0.030
 81603,0.00417023,-0.00154784,0.00438382,0.00556586,0.02804189,-0.08777
 172,0.00659786,0.09712624,0.47801923,0.00551739,0.00054643,0.00939847,
 0.00747660,-0.01315894,-0.00779173,0.02043888,-0.00332417,-0.00433252,
 -0.01660296,0.03426802,-0.07696846,-0.05703761,0.14767388,0.58699552,-
 0.09481471,-0.13110270,0.10190155,0.00154099,0.03093729,-0.01879792,0.
 00357404,0.00276170,0.00461437,-0.00142595,0.00038219,0.00003183,-0.00
 014600,-0.00224141,-0.00054117,0.09198357,-0.08206505,-0.21894439,0.14
 087919,-0.01909703,-0.03227870,0.02595418,0.00782009,-0.00358355,0.005
 70481,-0.00050506,-0.00027551,-0.00083688,-0.00125452,0.00232903,-0.00
 250764,0.09713333,0.25100715,0.07570050,0.16305186,-0.15278239,0.00673
 892,0.00212517,-0.00645276,0.00302087,0.00626198,0.00841321,0.00214418
 ,-0.00237830,-0.00170863,-0.00181287,-0.00103104,-0.00202318,-0.085677
 67,-0.16908826,0.15395126,0.00099096,0.00182186,-0.00191121,-0.0104713
 1,0.00324785,0.00680852,-0.17563954,0.08763004,0.18716686,-0.00147253,
 0.00062964,0.00109374,-0.00432212,-0.00265238,0.00347492,-0.00051409,-
 0.00000754,-0.00037641,0.17467463,0.00023359,-0.00112285,-0.00132430,-
 0.02021473,0.01335197,0.02486253,0.08138401,-0.11134755,-0.12397966,-0
 .00148199,-0.00534899,0.00249875,0.00217492,0.00088057,0.00047314,0.00
 032302,-0.00018673,-0.00108296,-0.07879958,0.11489539,-0.00178922,-0.0
 0309195,0.00188305,0.02044977,-0.00927150,-0.02085588,0.14486471,-0.10
 079942,-0.21640547,0.00079869,0.00477589,-0.00048794,-0.00622939,-0.00
 097055,0.00195759,-0.00043939,-0.00028856,0.00188968,-0.17615377,0.118
 34816,0.24764648,0.00024003,0.00121565,-0.00136118,-0.00601119,-0.0009
 3051,-0.00634302,-0.15904306,-0.17034906,-0.10663501,-0.00097079,0.000
 35688,0.00329979,-0.00077892,-0.00007071,0.00267481,-0.00026623,0.0002
 1365,-0.00032853,0.01139371,0.01796707,0.01333286,0.15795169,-0.000402
 21,-0.00039586,0.00052584,-0.01787666,-0.02377089,-0.01065020,-0.12954
 155,-0.17926559,-0.11929714,0.00214121,0.00041623,0.00029893,-0.000229
 11,-0.00054867,-0.00239370,0.00194171,0.00145064,0.00291941,-0.0112133
 7,-0.01038711,-0.00882081,0.15515993,0.21019008,0.00008472,0.00147143,
 -0.00041752,0.01505718,0.01912333,0.01390112,-0.09216287,-0.13576680,-
 0.14791266,-0.00088792,0.00011114,-0.00351729,0.00020860,-0.00000980,0
 .00130724,-0.00077966,-0.00031837,-0.00117565,-0.02109557,-0.01883865,
 -0.01520037,0.09952515,0.13474283,0.15346962,-0.00303453,-0.00026962,-
 0.00095496,0.00205062,0.00570213,0.00052509,-0.00118226,-0.00014226,-0
 .00013364,-0.00881970,0.01483642,0.00671076,-0.06723219,0.03385234,0.0
 5001030,0.00043047,0.00003088,0.00066844,-0.00035816,-0.00008981,-0.00
 008856,-0.00076608,0.00020983,0.00025811,0.07144631,0.00406500,0.00055
 097,0.00132787,-0.00647299,-0.00722676,0.00108765,-0.00245251,0.000387
 07,-0.00084292,0.01996548,-0.01851481,-0.00187794,0.02816693,-0.197025
 45,-0.16870736,-0.00053974,-0.00002443,-0.00105604,-0.00028548,0.00001
 135,-0.00019525,-0.00019626,0.00020825,-0.00000614,-0.04543531,0.21771
 757,-0.00180261,-0.00044552,-0.00011116,0.00151600,0.00410086,-0.00122
 339,0.00119813,0.00005404,0.00063519,-0.00273894,0.01022406,0.01948525
 ,0.04074528,-0.16180825,-0.22730133,0.00008440,-0.00017441,0.00003262,
 0.00022678,-0.00007107,0.00001289,0.00024452,-0.00013151,0.00011072,-0
 .04217950,0.17534745,0.23280746,-0.00528094,-0.00279528,0.00403214,0.0
 1223503,0.01605372,-0.01720962,0.00324690,-0.00914950,-0.00868030,0.00
 317882,0.00158665,-0.00055340,-0.12086046,-0.05495404,0.08525525,-0.00
 008910,-0.00189445,0.00054751,0.00586778,-0.00145958,0.00581737,-0.001
 53587,-0.00024446,-0.00031363,0.00030978,0.00251338,-0.00058799,0.1151
 9891,-0.00047212,-0.00053732,0.00049078,0.00282638,-0.00468868,0.00509
 505,-0.00201813,-0.00748120,-0.00351738,-0.00165554,-0.02234765,0.0253
 8359,-0.06418096,-0.08822831,0.05641884,0.00011236,0.00009336,-0.00013
 823,-0.00023141,-0.00074328,0.00052227,-0.00356653,0.00221047,-0.00047
 591,0.01544417,0.01311340,-0.01826979,0.05828745,0.11267794,0.00336719
 ,0.00146658,-0.00240982,-0.00748555,-0.00321112,0.00717210,-0.00487926
 ,-0.00159812,-0.00780405,0.00177081,0.02201555,-0.01876506,0.09485851,
 0.05147110,-0.18000062,-0.00004739,0.00092104,0.00002623,0.00004770,-0
 .00076022,-0.00109888,-0.00408401,0.00262742,-0.00049512,0.01104228,0.
 00871115,-0.01348879,-0.08504589,-0.07380127,0.19912219,-0.00016423,0.
 00119013,0.00191736,-0.00084201,-0.00030735,-0.00547111,-0.00115769,-0
 .00006743,0.00140166,-0.01404077,0.01432811,-0.00448671,-0.30122180,-0
 .11636091,-0.10066639,-0.00027298,-0.00037430,-0.00062494,-0.00014933,
 -0.00003693,-0.00056308,-0.00021329,0.00005468,0.00010590,0.00715576,0
 .00067149,0.00329392,-0.01227085,-0.00454568,-0.00954440,0.32317719,0.
 00151214,-0.00243888,-0.00291134,0.00052220,-0.00080098,0.00811379,-0.
 00122423,0.00081823,0.00118897,0.03071677,0.00565328,0.00827440,-0.105
 24492,-0.09183413,-0.04928849,0.00029226,0.00041313,0.00041639,-0.0001
 3963,-0.00000278,-0.00020828,0.00019989,-0.00010756,-0.00003306,-0.024
 13878,-0.00919716,-0.00882586,-0.00794389,-0.00406873,-0.00784211,0.10
 544818,0.10156558,-0.00066566,0.00118803,0.00122613,0.00140676,0.00005
 378,-0.00466267,0.00379773,-0.00220306,-0.00303855,-0.01272422,0.00657
 516,0.00011161,-0.09737673,-0.05104117,-0.10124098,-0.00034895,-0.0002
 4510,-0.00017038,0.00071843,-0.00012572,0.00065886,-0.00032540,0.00017
 893,-0.00007009,-0.02585832,-0.01378847,-0.01095948,0.01673855,0.00829
 205,0.01774181,0.11463779,0.05111558,0.10040374\\0.00000796,-0.0000071
 5,0.00000452,-0.00000123,0.00000670,-0.00000820,-0.00000442,0.00000313
 ,-0.00000647,0.00000957,-0.00000462,0.00000514,-0.00001676,-0.00000087
 ,0.00000965,0.00000353,0.00000286,0.00001559,-0.00000033,-0.00000299,0
 .00000538,0.00000120,0.00000733,0.00000400,-0.00000073,-0.00000293,-0.
 00000950,-0.00000105,0.00000127,-0.00001009,0.00000227,-0.00000274,-0.
 00001002\\\@
 Job cpu time:       0 days  1 hours 27 minutes 23.1 seconds.
 File lengths (MBytes):  RWF=   5689 Int=      0 D2E=      0 Chk=     23 Scr=      1
 Normal termination of Gaussian 09 at Tue Aug 23 20:39:20 2022.
