 Entering Gaussian System, Link 0=g09
 Input=G4.Frag_479.gjf
 Output=G4.Frag_479.log
 Initial command:
 /public/home/users/caep010/software/Gaussian09/g09/l1.exe "/public/home/users/caep010/.cache/gau_scr/Gau-143372.inp" -scrdir="/public/home/users/caep010/.cache/gau_scr/"
 Entering Link 1 = /public/home/users/caep010/software/Gaussian09/g09/l1.exe PID=    143373.
  
 Copyright (c) 1988,1990,1992,1993,1995,1998,2003,2009,2015,
            Gaussian, Inc.  All Rights Reserved.
  
 This is part of the Gaussian(R) 09 program.  It is based on
 the Gaussian(R) 03 system (copyright 2003, Gaussian, Inc.),
 the Gaussian(R) 98 system (copyright 1998, Gaussian, Inc.),
 the Gaussian(R) 94 system (copyright 1995, Gaussian, Inc.),
 the Gaussian 92(TM) system (copyright 1992, Gaussian, Inc.),
 the Gaussian 90(TM) system (copyright 1990, Gaussian, Inc.),
 the Gaussian 88(TM) system (copyright 1988, Gaussian, Inc.),
 the Gaussian 86(TM) system (copyright 1986, Carnegie Mellon
 University), and the Gaussian 82(TM) system (copyright 1983,
 Carnegie Mellon University). Gaussian is a federally registered
 trademark of Gaussian, Inc.
  
 This software contains proprietary and confidential information,
 including trade secrets, belonging to Gaussian, Inc.
  
 This software is provided under written license and may be
 used, copied, transmitted, or stored only in accord with that
 written license.
  
 The following legend is applicable only to US Government
 contracts under FAR:
  
                    RESTRICTED RIGHTS LEGEND
  
 Use, reproduction and disclosure by the US Government is
 subject to restrictions as set forth in subparagraphs (a)
 and (c) of the Commercial Computer Software - Restricted
 Rights clause in FAR 52.227-19.
  
 Gaussian, Inc.
 340 Quinnipiac St., Bldg. 40, Wallingford CT 06492
  
  
 ---------------------------------------------------------------
 Warning -- This program may not be used in any manner that
 competes with the business of Gaussian, Inc. or will provide
 assistance to any competitor of Gaussian, Inc.  The licensee
 of this program is prohibited from giving any competitor of
 Gaussian, Inc. access to this program.  By using this program,
 the user acknowledges that Gaussian, Inc. is engaged in the
 business of creating and licensing software in the field of
 computational chemistry and represents and warrants to the
 licensee that it is not a competitor of Gaussian, Inc. and that
 it will not use this program in any manner prohibited above.
 ---------------------------------------------------------------
  

 Cite this work as:
 Gaussian 09, Revision E.01,
 M. J. Frisch, G. W. Trucks, H. B. Schlegel, G. E. Scuseria, 
 M. A. Robb, J. R. Cheeseman, G. Scalmani, V. Barone, B. Mennucci, 
 G. A. Petersson, H. Nakatsuji, M. Caricato, X. Li, H. P. Hratchian, 
 A. F. Izmaylov, J. Bloino, G. Zheng, J. L. Sonnenberg, M. Hada, 
 M. Ehara, K. Toyota, R. Fukuda, J. Hasegawa, M. Ishida, T. Nakajima, 
 Y. Honda, O. Kitao, H. Nakai, T. Vreven, J. A. Montgomery, Jr., 
 J. E. Peralta, F. Ogliaro, M. Bearpark, J. J. Heyd, E. Brothers, 
 K. N. Kudin, V. N. Staroverov, T. Keith, R. Kobayashi, J. Normand, 
 K. Raghavachari, A. Rendell, J. C. Burant, S. S. Iyengar, J. Tomasi, 
 M. Cossi, N. Rega, J. M. Millam, M. Klene, J. E. Knox, J. B. Cross, 
 V. Bakken, C. Adamo, J. Jaramillo, R. Gomperts, R. E. Stratmann, 
 O. Yazyev, A. J. Austin, R. Cammi, C. Pomelli, J. W. Ochterski, 
 R. L. Martin, K. Morokuma, V. G. Zakrzewski, G. A. Voth, 
 P. Salvador, J. J. Dannenberg, S. Dapprich, A. D. Daniels, 
 O. Farkas, J. B. Foresman, J. V. Ortiz, J. Cioslowski, 
 and D. J. Fox, Gaussian, Inc., Wallingford CT, 2013.
 
 ******************************************
 Gaussian 09:  ES64L-G09RevE.01 30-Nov-2015
                26-Aug-2022 
 ******************************************
 %nproc=32
 Will use up to   32 processors via shared memory.
 %mem=180GB
 %chk=G4.Frag_479.chk
 -----
 #P G4
 -----
 1/14=-1,18=20,19=15,26=3,38=1/1,3;
 2/9=110,12=2,17=6,18=5,40=1/2;
 3/5=35,7=104,11=2,16=1,25=1,30=1,71=1,74=-5/1,2,3;
 4//1;
 5/5=2,38=5/2;
 6/7=2,8=2,9=2,10=2,28=1/1;
 7//1,2,3,16;
 1/14=-1,18=20,19=15,26=3/3(2);
 2/9=110/2;
 99//99;
 2/9=110/2;
 3/5=35,7=104,11=2,16=1,25=1,30=1,71=1,74=-5/1,2,3;
 4/5=5,16=3,69=1/1;
 5/5=2,38=5/2;
 7//1,2,3,16;
 1/14=-1,18=20,19=15,26=3/3(-5);
 2/9=110/2;
 6/7=2,8=2,9=2,10=2,19=2,28=1/1;
 99/9=1/99;
 Leave Link    1 at Fri Aug 26 13:52:17 2022, MaxMem= 24159191040 cpu:         2.8
 (Enter /public/home/users/caep010/software/Gaussian09/g09/l101.exe)
 --------
 Frag_479
 --------
 Symbolic Z-matrix:
 Charge =  0 Multiplicity = 1
 C                    -1.4777    0.0909    0.2679 
 N                    -0.2348   -0.239     0.4184 
 C                     0.8104    0.3498   -0.3591 
 N                     2.038    -0.0099   -0.1752 
 H                    -1.7778    0.8343   -0.4613 
 H                    -2.2344   -0.3816    0.8791 
 H                     0.5857    1.1003   -1.1074 
 H                     2.2906   -0.7305    0.5376 
 
 Add atom      1 valence  3 ND=      2 dihedral       2      1      5      6
 NAtoms=      8 NQM=        8 NQMF=       0 NMMI=      0 NMMIF=      0
                NMic=       0 NMicF=      0.
                    Isotopes and Nuclear Properties:
 (Nuclear quadrupole moments (NQMom) in fm**2, nuclear magnetic moments (NMagM)
  in nuclear magnetons)

  Atom         1           2           3           4           5           6           7           8
 IAtWgt=          12          14          12          14           1           1           1           1
 AtmWgt=  12.0000000  14.0030740  12.0000000  14.0030740   1.0078250   1.0078250   1.0078250   1.0078250
 NucSpn=           0           2           0           2           1           1           1           1
 AtZEff=   0.0000000   0.0000000   0.0000000   0.0000000   0.0000000   0.0000000   0.0000000   0.0000000
 NQMom=    0.0000000   2.0440000   0.0000000   2.0440000   0.0000000   0.0000000   0.0000000   0.0000000
 NMagM=    0.0000000   0.4037610   0.0000000   0.4037610   2.7928460   2.7928460   2.7928460   2.7928460
 AtZNuc=   6.0000000   7.0000000   6.0000000   7.0000000   1.0000000   1.0000000   1.0000000   1.0000000
 Leave Link  101 at Fri Aug 26 13:52:17 2022, MaxMem= 24159191040 cpu:        10.4
 (Enter /public/home/users/caep010/software/Gaussian09/g09/l103.exe)

 GradGradGradGradGradGradGradGradGradGradGradGradGradGradGradGradGradGrad
 Berny optimization.
 Initialization pass.
                           ----------------------------
                           !    Initial Parameters    !
                           ! (Angstroms and Degrees)  !
 --------------------------                            --------------------------
 ! Name  Definition              Value          Derivative Info.                !
 --------------------------------------------------------------------------------
 ! R1    R(1,2)                  1.2947         estimate D2E/DX2                !
 ! R2    R(1,5)                  1.0837         estimate D2E/DX2                !
 ! R3    R(1,6)                  1.0814         estimate D2E/DX2                !
 ! R4    R(2,3)                  1.4296         estimate D2E/DX2                !
 ! R5    R(3,4)                  1.2924         estimate D2E/DX2                !
 ! R6    R(3,7)                  1.0834         estimate D2E/DX2                !
 ! R7    R(4,8)                  1.0446         estimate D2E/DX2                !
 ! A1    A(2,1,5)              121.2546         estimate D2E/DX2                !
 ! A2    A(2,1,6)              119.6505         estimate D2E/DX2                !
 ! A3    A(5,1,6)              119.095          estimate D2E/DX2                !
 ! A4    A(1,2,3)              122.2562         estimate D2E/DX2                !
 ! A5    A(2,3,4)              120.1634         estimate D2E/DX2                !
 ! A6    A(2,3,7)              120.6201         estimate D2E/DX2                !
 ! A7    A(4,3,7)              119.2165         estimate D2E/DX2                !
 ! A8    A(3,4,8)              121.252          estimate D2E/DX2                !
 ! D1    D(5,1,2,3)              0.0053         estimate D2E/DX2                !
 ! D2    D(6,1,2,3)           -179.9972         estimate D2E/DX2                !
 ! D3    D(2,1,5,6)            179.9975         estimate D2E/DX2                !
 ! D4    D(1,2,3,4)           -179.9969         estimate D2E/DX2                !
 ! D5    D(1,2,3,7)             -0.0024         estimate D2E/DX2                !
 ! D6    D(2,3,4,8)             -0.0082         estimate D2E/DX2                !
 ! D7    D(7,3,4,8)            179.9972         estimate D2E/DX2                !
 --------------------------------------------------------------------------------
 Trust Radius=3.00D-01 FncErr=1.00D-07 GrdErr=1.00D-06
 Number of steps in this run=     32 maximum allowed number of steps=    100.
 GradGradGradGradGradGradGradGradGradGradGradGradGradGradGradGradGradGrad

 Leave Link  103 at Fri Aug 26 13:52:17 2022, MaxMem= 24159191040 cpu:         0.4
 (Enter /public/home/users/caep010/software/Gaussian09/g09/l202.exe)
                          Input orientation:                          
 ---------------------------------------------------------------------
 Center     Atomic      Atomic             Coordinates (Angstroms)
 Number     Number       Type             X           Y           Z
 ---------------------------------------------------------------------
      1          6           0       -1.477700    0.090900    0.267900
      2          7           0       -0.234800   -0.239000    0.418400
      3          6           0        0.810400    0.349800   -0.359100
      4          7           0        2.038000   -0.009900   -0.175200
      5          1           0       -1.777800    0.834300   -0.461300
      6          1           0       -2.234400   -0.381600    0.879100
      7          1           0        0.585700    1.100300   -1.107400
      8          1           0        2.290600   -0.730500    0.537600
 ---------------------------------------------------------------------
                    Distance matrix (angstroms):
                    1          2          3          4          5
     1  C    0.000000
     2  N    1.294714   0.000000
     3  C    2.386537   1.429558   0.000000
     4  N    3.544946   2.360184   1.292364   0.000000
     5  H    1.083714   2.075258   2.635140   3.918527   0.000000
     6  H    1.081396   2.056934   3.367327   4.416233   1.866432
     7  H    2.677304   2.189751   1.083371   2.052003   2.464616
     8  H    3.866202   2.575544   2.040125   1.044584   4.471944
                    6          7          8
     6  H    0.000000
     7  H    3.754354   0.000000
     8  H    4.551261   2.994084   0.000000
 Stoichiometry    C2H4N2
 Framework group  C1[X(C2H4N2)]
 Deg. of freedom    18
 Full point group                 C1      NOp   1
 Largest Abelian subgroup         C1      NOp   1
 Largest concise Abelian subgroup C1      NOp   1
                         Standard orientation:                         
 ---------------------------------------------------------------------
 Center     Atomic      Atomic             Coordinates (Angstroms)
 Number     Number       Type             X           Y           Z
 ---------------------------------------------------------------------
      1          6           0       -1.743019    0.030493   -0.000004
      2          7           0       -0.533450   -0.431274    0.000000
      3          6           0        0.610511    0.426039    0.000033
      4          7           0        1.800247   -0.078674   -0.000025
      5          1           0       -1.937898    1.096541   -0.000068
      6          1           0       -2.577995   -0.656697    0.000017
      7          1           0        0.492969    1.503015    0.000016
      8          1           0        1.950393   -1.112411    0.000032
 ---------------------------------------------------------------------
 Rotational constants (GHZ):     50.5304924      4.8213836      4.4014206
 Leave Link  202 at Fri Aug 26 13:52:17 2022, MaxMem= 24159191040 cpu:         0.4
 (Enter /public/home/users/caep010/software/Gaussian09/g09/l301.exe)
 Standard basis: GTBas3 (6D, 7F)
 Ernie: Thresh=  0.10000D-02 Tol=  0.10000D-05 Strict=F.
 There are   144 symmetry adapted cartesian basis functions of A   symmetry.
 There are   132 symmetry adapted basis functions of A   symmetry.
   132 basis functions,   204 primitive gaussians,   144 cartesian basis functions
    15 alpha electrons       15 beta electrons
       nuclear repulsion energy       104.5587030391 Hartrees.
 IExCor=  402 DFT=T Ex+Corr=B3LYP ExCW=0 ScaHFX=  0.200000
 ScaDFX=  0.800000  0.720000  1.000000  0.810000 ScalE2=  1.000000  1.000000
 IRadAn=      0 IRanWt=     -1 IRanGd=            0 ICorTp=0 IEmpDi=  4
 NAtoms=    8 NActive=    8 NUniq=    8 SFac= 1.00D+00 NAtFMM=   60 NAOKFM=F Big=F
 Integral buffers will be    131072 words long.
 Raffenetti 2 integral format.
 Two-electron integral symmetry is turned on.
 Leave Link  301 at Fri Aug 26 13:52:17 2022, MaxMem= 24159191040 cpu:         1.9
 (Enter /public/home/users/caep010/software/Gaussian09/g09/l302.exe)
 NPDir=0 NMtPBC=     1 NCelOv=     1 NCel=       1 NClECP=     1 NCelD=      1
         NCelK=      1 NCelE2=     1 NClLst=     1 CellRange=     0.0.
 One-electron integrals computed using PRISM.
 NBasis=   132 RedAO= T EigKep=  3.83D-04  NBF=   132
 NBsUse=   132 1.00D-06 EigRej= -1.00D+00 NBFU=   132
 Precomputing XC quadrature grid using
 IXCGrd= 4 IRadAn=           0 IRanWt=          -1 IRanGd=           0 AccXCQ= 0.00D+00.
 Generated NRdTot=       0 NPtTot=           0 NUsed=           0 NTot=          32
 NSgBfM=   144   144   144   144   144 MxSgAt=     8 MxSgA2=     8.
 Leave Link  302 at Fri Aug 26 13:52:18 2022, MaxMem= 24159191040 cpu:        13.4
 (Enter /public/home/users/caep010/software/Gaussian09/g09/l303.exe)
 DipDrv:  MaxL=1.
 Leave Link  303 at Fri Aug 26 13:52:18 2022, MaxMem= 24159191040 cpu:         0.6
 (Enter /public/home/users/caep010/software/Gaussian09/g09/l401.exe)
 ExpMin= 1.61D-01 ExpMax= 4.17D+03 ExpMxC= 6.27D+02 IAcc=1 IRadAn=         1 AccDes= 0.00D+00
 Harris functional with IExCor=  402 and IRadAn=       1 diagonalized for initial guess.
 HarFok:  IExCor=  402 AccDes= 0.00D+00 IRadAn=         1 IDoV= 1 UseB2=F ITyADJ=14
 ICtDFT=  3500011 ScaDFX=  1.000000  1.000000  1.000000  1.000000
 FoFCou: FMM=F IPFlag=           0 FMFlag=      100000 FMFlg1=           0
         NFxFlg=           0 DoJE=T BraDBF=F KetDBF=T FulRan=T
         wScrn=  0.000000 ICntrl=     500 IOpCl=  0 I1Cent=   200000004 NGrid=           0
         NMat0=    1 NMatS0=      1 NMatT0=    0 NMatD0=    1 NMtDS0=    0 NMtDT0=    0
 Petite list used in FoFCou.
 Harris En= -188.068635825226    
 JPrj=0 DoOrth=F DoCkMO=F.
 Leave Link  401 at Fri Aug 26 13:52:18 2022, MaxMem= 24159191040 cpu:        12.3
 (Enter /public/home/users/caep010/software/Gaussian09/g09/l502.exe)
 Closed shell SCF:
 Using DIIS extrapolation, IDIIS=  1040.
 Integral symmetry usage will be decided dynamically.
 Keep R1 ints in memory in canonical form, NReq=40603868.
 IVT=       86414 IEndB=       86414 NGot= 24159191040 MDV= 24120573596
 LenX= 24120573596 LenY= 24120552419
 Requested convergence on RMS density matrix=1.00D-08 within 128 cycles.
 Requested convergence on MAX density matrix=1.00D-06.
 Requested convergence on             energy=1.00D-06.
 No special actions if energy rises.
 FoFCou: FMM=F IPFlag=           0 FMFlag=           0 FMFlg1=           0
         NFxFlg=           0 DoJE=F BraDBF=F KetDBF=F FulRan=T
         wScrn=  0.000000 ICntrl=     600 IOpCl=  0 I1Cent=           0 NGrid=           0
         NMat0=    1 NMatS0=   8778 NMatT0=    0 NMatD0=    1 NMtDS0=    0 NMtDT0=    0
 Symmetry not used in FoFCou.
 Integral accuracy reduced to 1.0D-05 until final iterations.

 Cycle   1  Pass 0  IDiag  1:
 E= -187.993698390975    
 DIIS: error= 2.44D-02 at cycle   1 NSaved=   1.
 NSaved= 1 IEnMin= 1 EnMin= -187.993698390975     IErMin= 1 ErrMin= 2.44D-02
 ErrMax= 2.44D-02  0.00D+00 EMaxC= 1.00D-01 BMatC= 9.18D-02 BMatP= 9.18D-02
 IDIUse=3 WtCom= 7.56D-01 WtEn= 2.44D-01
 Coeff-Com:  0.100D+01
 Coeff-En:   0.100D+01
 Coeff:      0.100D+01
 Gap=     0.198 Goal=   None    Shift=    0.000
 GapD=    0.198 DampG=1.000 DampE=0.500 DampFc=0.5000 IDamp=-1.
 Damping current iteration by 5.00D-01
 RMSDP=5.72D-03 MaxDP=1.67D-01              OVMax= 2.82D-01

 Cycle   2  Pass 0  IDiag  1:
 E= -188.018020016128     Delta-E=       -0.024321625153 Rises=F Damp=T
 DIIS: error= 7.79D-03 at cycle   2 NSaved=   2.
 NSaved= 2 IEnMin= 2 EnMin= -188.018020016128     IErMin= 2 ErrMin= 7.79D-03
 ErrMax= 7.79D-03  0.00D+00 EMaxC= 1.00D-01 BMatC= 1.54D-02 BMatP= 9.18D-02
 IDIUse=3 WtCom= 9.22D-01 WtEn= 7.79D-02
 Coeff-Com:  0.200D+00 0.800D+00
 Coeff-En:   0.329D+00 0.671D+00
 Coeff:      0.210D+00 0.790D+00
 Gap=     0.216 Goal=   None    Shift=    0.000
 RMSDP=1.61D-03 MaxDP=4.13D-02 DE=-2.43D-02 OVMax= 2.39D-01

 Cycle   3  Pass 0  IDiag  1:
 E= -188.065248516391     Delta-E=       -0.047228500263 Rises=F Damp=F
 DIIS: error= 8.54D-03 at cycle   3 NSaved=   3.
 NSaved= 3 IEnMin= 3 EnMin= -188.065248516391     IErMin= 2 ErrMin= 7.79D-03
 ErrMax= 8.54D-03  0.00D+00 EMaxC= 1.00D-01 BMatC= 1.27D-02 BMatP= 1.54D-02
 IDIUse=3 WtCom= 9.15D-01 WtEn= 8.54D-02
 Coeff-Com:  0.181D-01 0.471D+00 0.511D+00
 Coeff-En:   0.000D+00 0.000D+00 0.100D+01
 Coeff:      0.166D-01 0.431D+00 0.552D+00
 Gap=     0.203 Goal=   None    Shift=    0.000
 RMSDP=9.96D-04 MaxDP=3.50D-02 DE=-4.72D-02 OVMax= 8.82D-02

 Cycle   4  Pass 0  IDiag  1:
 E= -188.076705681616     Delta-E=       -0.011457165225 Rises=F Damp=F
 DIIS: error= 2.99D-03 at cycle   4 NSaved=   4.
 NSaved= 4 IEnMin= 4 EnMin= -188.076705681616     IErMin= 4 ErrMin= 2.99D-03
 ErrMax= 2.99D-03  0.00D+00 EMaxC= 1.00D-01 BMatC= 1.79D-03 BMatP= 1.27D-02
 IDIUse=3 WtCom= 9.70D-01 WtEn= 2.99D-02
 Coeff-Com: -0.898D-03 0.371D-01 0.285D+00 0.679D+00
 Coeff-En:   0.000D+00 0.000D+00 0.149D+00 0.851D+00
 Coeff:     -0.871D-03 0.360D-01 0.281D+00 0.684D+00
 Gap=     0.198 Goal=   None    Shift=    0.000
 RMSDP=2.94D-04 MaxDP=8.89D-03 DE=-1.15D-02 OVMax= 2.39D-02

 Cycle   5  Pass 0  IDiag  1:
 E= -188.078530956500     Delta-E=       -0.001825274885 Rises=F Damp=F
 DIIS: error= 4.32D-04 at cycle   5 NSaved=   5.
 NSaved= 5 IEnMin= 5 EnMin= -188.078530956500     IErMin= 5 ErrMin= 4.32D-04
 ErrMax= 4.32D-04  0.00D+00 EMaxC= 1.00D-01 BMatC= 2.47D-05 BMatP= 1.79D-03
 IDIUse=3 WtCom= 9.96D-01 WtEn= 4.32D-03
 Coeff-Com: -0.445D-03 0.482D-02 0.111D+00 0.299D+00 0.586D+00
 Coeff-En:   0.000D+00 0.000D+00 0.000D+00 0.000D+00 0.100D+01
 Coeff:     -0.443D-03 0.480D-02 0.110D+00 0.297D+00 0.588D+00
 Gap=     0.197 Goal=   None    Shift=    0.000
 RMSDP=4.58D-05 MaxDP=9.91D-04 DE=-1.83D-03 OVMax= 1.81D-03

 Cycle   6  Pass 0  IDiag  1:
 E= -188.078552451885     Delta-E=       -0.000021495385 Rises=F Damp=F
 DIIS: error= 1.51D-04 at cycle   6 NSaved=   6.
 NSaved= 6 IEnMin= 6 EnMin= -188.078552451885     IErMin= 6 ErrMin= 1.51D-04
 ErrMax= 1.51D-04  0.00D+00 EMaxC= 1.00D-01 BMatC= 3.14D-06 BMatP= 2.47D-05
 IDIUse=3 WtCom= 9.98D-01 WtEn= 1.51D-03
 Coeff-Com:  0.142D-03-0.208D-02 0.239D-01 0.692D-01 0.289D+00 0.619D+00
 Coeff-En:   0.000D+00 0.000D+00 0.000D+00 0.000D+00 0.518D-01 0.948D+00
 Coeff:      0.141D-03-0.207D-02 0.239D-01 0.690D-01 0.289D+00 0.620D+00
 Gap=     0.197 Goal=   None    Shift=    0.000
 RMSDP=1.28D-05 MaxDP=2.92D-04 DE=-2.15D-05 OVMax= 4.57D-04

 Cycle   7  Pass 0  IDiag  1:
 E= -188.078555395824     Delta-E=       -0.000002943938 Rises=F Damp=F
 DIIS: error= 1.64D-05 at cycle   7 NSaved=   7.
 NSaved= 7 IEnMin= 7 EnMin= -188.078555395824     IErMin= 7 ErrMin= 1.64D-05
 ErrMax= 1.64D-05  0.00D+00 EMaxC= 1.00D-01 BMatC= 5.46D-08 BMatP= 3.14D-06
 IDIUse=1 WtCom= 1.00D+00 WtEn= 0.00D+00
 Coeff-Com:  0.125D-03-0.844D-03 0.224D-02 0.587D-02 0.515D-01 0.155D+00
 Coeff-Com:  0.786D+00
 Coeff:      0.125D-03-0.844D-03 0.224D-02 0.587D-02 0.515D-01 0.155D+00
 Coeff:      0.786D+00
 Gap=     0.197 Goal=   None    Shift=    0.000
 RMSDP=2.88D-06 MaxDP=1.01D-04 DE=-2.94D-06 OVMax= 1.88D-04

 Initial convergence to 1.0D-05 achieved.  Increase integral accuracy.
 Cycle   8  Pass 1  IDiag  1:
 E= -188.078586833601     Delta-E=       -0.000031437777 Rises=F Damp=F
 DIIS: error= 2.35D-05 at cycle   1 NSaved=   1.
 NSaved= 1 IEnMin= 1 EnMin= -188.078586833601     IErMin= 1 ErrMin= 2.35D-05
 ErrMax= 2.35D-05  0.00D+00 EMaxC= 1.00D-01 BMatC= 7.18D-08 BMatP= 7.18D-08
 IDIUse=1 WtCom= 1.00D+00 WtEn= 0.00D+00
 Coeff-Com:  0.100D+01
 Coeff:      0.100D+01
 Gap=     0.197 Goal=   None    Shift=    0.000
 RMSDP=2.88D-06 MaxDP=1.01D-04 DE=-3.14D-05 OVMax= 3.05D-04

 Cycle   9  Pass 1  IDiag  1:
 E= -188.078586622054     Delta-E=        0.000000211547 Rises=F Damp=F
 DIIS: error= 4.79D-05 at cycle   2 NSaved=   2.
 NSaved= 2 IEnMin= 1 EnMin= -188.078586833601     IErMin= 1 ErrMin= 2.35D-05
 ErrMax= 4.79D-05  0.00D+00 EMaxC= 1.00D-01 BMatC= 3.07D-07 BMatP= 7.18D-08
 IDIUse=1 WtCom= 1.00D+00 WtEn= 0.00D+00
 Coeff-Com:  0.679D+00 0.321D+00
 Coeff:      0.679D+00 0.321D+00
 Gap=     0.197 Goal=   None    Shift=    0.000
 RMSDP=3.28D-06 MaxDP=1.20D-04 DE= 2.12D-07 OVMax= 2.01D-04

 Cycle  10  Pass 1  IDiag  1:
 E= -188.078586899687     Delta-E=       -0.000000277634 Rises=F Damp=F
 DIIS: error= 1.30D-06 at cycle   3 NSaved=   3.
 NSaved= 3 IEnMin= 3 EnMin= -188.078586899687     IErMin= 3 ErrMin= 1.30D-06
 ErrMax= 1.30D-06  0.00D+00 EMaxC= 1.00D-01 BMatC= 2.85D-10 BMatP= 7.18D-08
 IDIUse=1 WtCom= 1.00D+00 WtEn= 0.00D+00
 Coeff-Com:  0.234D-01 0.283D-01 0.948D+00
 Coeff:      0.234D-01 0.283D-01 0.948D+00
 Gap=     0.197 Goal=   None    Shift=    0.000
 RMSDP=2.50D-07 MaxDP=5.95D-06 DE=-2.78D-07 OVMax= 9.82D-06

 Cycle  11  Pass 1  IDiag  1:
 E= -188.078586899665     Delta-E=        0.000000000022 Rises=F Damp=F
 DIIS: error= 1.62D-06 at cycle   4 NSaved=   4.
 NSaved= 4 IEnMin= 3 EnMin= -188.078586899687     IErMin= 3 ErrMin= 1.30D-06
 ErrMax= 1.62D-06  0.00D+00 EMaxC= 1.00D-01 BMatC= 2.75D-10 BMatP= 2.85D-10
 IDIUse=1 WtCom= 1.00D+00 WtEn= 0.00D+00
 Coeff-Com: -0.115D-01 0.498D-02 0.555D+00 0.452D+00
 Coeff:     -0.115D-01 0.498D-02 0.555D+00 0.452D+00
 Gap=     0.197 Goal=   None    Shift=    0.000
 RMSDP=1.38D-07 MaxDP=3.89D-06 DE= 2.23D-11 OVMax= 9.56D-06

 Cycle  12  Pass 1  IDiag  1:
 E= -188.078586899928     Delta-E=       -0.000000000263 Rises=F Damp=F
 DIIS: error= 3.18D-07 at cycle   5 NSaved=   5.
 NSaved= 5 IEnMin= 5 EnMin= -188.078586899928     IErMin= 5 ErrMin= 3.18D-07
 ErrMax= 3.18D-07  0.00D+00 EMaxC= 1.00D-01 BMatC= 1.93D-11 BMatP= 2.75D-10
 IDIUse=1 WtCom= 1.00D+00 WtEn= 0.00D+00
 Coeff-Com: -0.977D-02 0.123D-02 0.305D+00 0.286D+00 0.418D+00
 Coeff:     -0.977D-02 0.123D-02 0.305D+00 0.286D+00 0.418D+00
 Gap=     0.197 Goal=   None    Shift=    0.000
 RMSDP=2.96D-08 MaxDP=1.21D-06 DE=-2.63D-10 OVMax= 2.73D-06

 Cycle  13  Pass 1  IDiag  1:
 E= -188.078586899945     Delta-E=       -0.000000000017 Rises=F Damp=F
 DIIS: error= 7.51D-08 at cycle   6 NSaved=   6.
 NSaved= 6 IEnMin= 6 EnMin= -188.078586899945     IErMin= 6 ErrMin= 7.51D-08
 ErrMax= 7.51D-08  0.00D+00 EMaxC= 1.00D-01 BMatC= 1.22D-12 BMatP= 1.93D-11
 IDIUse=1 WtCom= 1.00D+00 WtEn= 0.00D+00
 Coeff-Com: -0.302D-02 0.138D-03 0.814D-01 0.884D-01 0.226D+00 0.607D+00
 Coeff:     -0.302D-02 0.138D-03 0.814D-01 0.884D-01 0.226D+00 0.607D+00
 Gap=     0.197 Goal=   None    Shift=    0.000
 RMSDP=7.83D-09 MaxDP=2.65D-07 DE=-1.67D-11 OVMax= 4.81D-07

 SCF Done:  E(RB3LYP) =  -188.078586900     A.U. after   13 cycles
            NFock= 13  Conv=0.78D-08     -V/T= 2.0088
 KE= 1.864325158685D+02 PE=-6.467649476599D+02 EE= 1.676951418524D+02
 Leave Link  502 at Fri Aug 26 13:52:20 2022, MaxMem= 24159191040 cpu:        39.0
 (Enter /public/home/users/caep010/software/Gaussian09/g09/l601.exe)
 Copying SCF densities to generalized density rwf, IOpCl= 0 IROHF=0.

 **********************************************************************

            Population analysis using the SCF density.

 **********************************************************************

 Orbital symmetries:
       Occupied  (A) (A) (A) (A) (A) (A) (A) (A) (A) (A) (A) (A)
                 (A) (A) (A)
       Virtual   (A) (A) (A) (A) (A) (A) (A) (A) (A) (A) (A) (A)
                 (A) (A) (A) (A) (A) (A) (A) (A) (A) (A) (A) (A)
                 (A) (A) (A) (A) (A) (A) (A) (A) (A) (A) (A) (A)
                 (A) (A) (A) (A) (A) (A) (A) (A) (A) (A) (A) (A)
                 (A) (A) (A) (A) (A) (A) (A) (A) (A) (A) (A) (A)
                 (A) (A) (A) (A) (A) (A) (A) (A) (A) (A) (A) (A)
                 (A) (A) (A) (A) (A) (A) (A) (A) (A) (A) (A) (A)
                 (A) (A) (A) (A) (A) (A) (A) (A) (A) (A) (A) (A)
                 (A) (A) (A) (A) (A) (A) (A) (A) (A) (A) (A) (A)
                 (A) (A) (A) (A) (A) (A) (A) (A) (A)
 The electronic state is 1-A.
 Alpha  occ. eigenvalues --  -14.34792 -14.32263 -10.26045 -10.24943  -0.94216
 Alpha  occ. eigenvalues --   -0.86502  -0.66703  -0.59069  -0.51163  -0.48176
 Alpha  occ. eigenvalues --   -0.44064  -0.38625  -0.29064  -0.27097  -0.26173
 Alpha virt. eigenvalues --   -0.06456   0.04063   0.09552   0.12212   0.15084
 Alpha virt. eigenvalues --    0.16678   0.20928   0.31081   0.35044   0.42794
 Alpha virt. eigenvalues --    0.47772   0.49696   0.53995   0.54083   0.54410
 Alpha virt. eigenvalues --    0.57776   0.63236   0.67315   0.69793   0.71390
 Alpha virt. eigenvalues --    0.73460   0.74573   0.77241   0.79159   0.79984
 Alpha virt. eigenvalues --    0.84008   0.84422   0.89477   0.92629   0.97883
 Alpha virt. eigenvalues --    1.03181   1.06408   1.07353   1.18805   1.28362
 Alpha virt. eigenvalues --    1.33365   1.36621   1.36698   1.50474   1.53276
 Alpha virt. eigenvalues --    1.54163   1.56653   1.57278   1.66814   1.69898
 Alpha virt. eigenvalues --    1.86443   1.90527   2.04282   2.06727   2.17557
 Alpha virt. eigenvalues --    2.25205   2.33511   2.37902   2.42306   2.53646
 Alpha virt. eigenvalues --    2.55198   2.66183   2.78208   2.80662   2.93544
 Alpha virt. eigenvalues --    2.94723   2.97900   2.99539   3.01283   3.01463
 Alpha virt. eigenvalues --    3.03886   3.12781   3.24557   3.27642   3.32228
 Alpha virt. eigenvalues --    3.34855   3.39865   3.40057   3.61344   3.68155
 Alpha virt. eigenvalues --    3.73375   3.79942   3.82451   3.85397   3.92292
 Alpha virt. eigenvalues --    3.95197   3.98781   4.02114   4.03799   4.14704
 Alpha virt. eigenvalues --    4.17143   4.19847   4.24021   4.25634   4.29074
 Alpha virt. eigenvalues --    4.35091   4.36258   4.41426   4.41907   4.47302
 Alpha virt. eigenvalues --    4.47484   4.52750   4.61591   4.67999   4.74845
 Alpha virt. eigenvalues --    4.89954   4.91516   4.95078   5.03970   5.17433
 Alpha virt. eigenvalues --    5.20588   5.25089   5.40088   5.52777   5.64375
 Alpha virt. eigenvalues --    5.85147   8.42822   9.54789  10.78696  11.29045
 Alpha virt. eigenvalues --   11.40879  11.92398
          Condensed to atoms (all electrons):
               1          2          3          4          5          6
     1  C    4.899158   0.625155  -0.083833   0.005444   0.359958   0.367308
     2  N    0.625155   6.233148   0.477604  -0.063074  -0.044685  -0.018614
     3  C   -0.083833   0.477604   4.565900   0.650251  -0.009688   0.004714
     4  N    0.005444  -0.063074   0.650251   6.549282  -0.000383  -0.000194
     5  H    0.359958  -0.044685  -0.009688  -0.000383   0.618965  -0.055298
     6  H    0.367308  -0.018614   0.004714  -0.000194  -0.055298   0.561173
     7  H   -0.001885  -0.061260   0.346614  -0.036744   0.014364  -0.000570
     8  H    0.000482  -0.003053  -0.067054   0.316781   0.000091  -0.000048
               7          8
     1  C   -0.001885   0.000482
     2  N   -0.061260  -0.003053
     3  C    0.346614  -0.067054
     4  N   -0.036744   0.316781
     5  H    0.014364   0.000091
     6  H   -0.000570  -0.000048
     7  H    0.614272   0.007616
     8  H    0.007616   0.498105
 Mulliken charges:
               1
     1  C   -0.171788
     2  N   -0.145221
     3  C    0.115492
     4  N   -0.421363
     5  H    0.116677
     6  H    0.141529
     7  H    0.117594
     8  H    0.247079
 Sum of Mulliken charges =  -0.00000
 Mulliken charges with hydrogens summed into heavy atoms:
               1
     1  C    0.086419
     2  N   -0.145221
     3  C    0.233086
     4  N   -0.174284
 Electronic spatial extent (au):  <R**2>=            292.0230
 Charge=             -0.0000 electrons
 Dipole moment (field-independent basis, Debye):
    X=             -2.4902    Y=              0.5079    Z=              0.0001  Tot=              2.5415
 Quadrupole moment (field-independent basis, Debye-Ang):
   XX=            -23.6353   YY=            -22.0819   ZZ=            -24.4714
   XY=             -2.9638   XZ=              0.0002   YZ=             -0.0001
 Traceless Quadrupole moment (field-independent basis, Debye-Ang):
   XX=             -0.2391   YY=              1.3143   ZZ=             -1.0752
   XY=             -2.9638   XZ=              0.0002   YZ=             -0.0001
 Octapole moment (field-independent basis, Debye-Ang**2):
  XXX=            -19.2884  YYY=              0.6020  ZZZ=             -0.0000  XYY=              2.8832
  XXY=             -8.3783  XXZ=              0.0004  XZZ=              0.4245  YZZ=             -0.3916
  YYZ=              0.0000  XYZ=              0.0000
 Hexadecapole moment (field-independent basis, Debye-Ang**3):
 XXXX=           -308.2555 YYYY=            -51.8852 ZZZZ=            -22.4340 XXXY=            -11.3837
 XXXZ=              0.0009 YYYX=             -5.3411 YYYZ=             -0.0002 ZZZX=              0.0000
 ZZZY=             -0.0000 XXYY=            -50.7163 XXZZ=            -56.4766 YYZZ=            -13.5014
 XXYZ=             -0.0005 YYXZ=              0.0003 ZZXY=             -0.7830
 N-N= 1.045587030391D+02 E-N=-6.467649437228D+02  KE= 1.864325158685D+02
 No NMR shielding tensors so no spin-rotation constants.
 Leave Link  601 at Fri Aug 26 13:52:21 2022, MaxMem= 24159191040 cpu:        14.5
 (Enter /public/home/users/caep010/software/Gaussian09/g09/l701.exe)
 Compute integral first derivatives.
 ... and contract with generalized density number  0.
 Leave Link  701 at Fri Aug 26 13:52:21 2022, MaxMem= 24159191040 cpu:        14.3
 (Enter /public/home/users/caep010/software/Gaussian09/g09/l702.exe)
 L702 exits ... SP integral derivatives will be done elsewhere.
 Leave Link  702 at Fri Aug 26 13:52:21 2022, MaxMem= 24159191040 cpu:         0.6
 (Enter /public/home/users/caep010/software/Gaussian09/g09/l703.exe)
 Compute integral first derivatives, UseDBF=F ICtDFT=           0.
 Integral derivatives from FoFJK, PRISM(SPDF).
 Calling FoFJK, ICntrl=      2127 FMM=F ISym2X=0 I1Cent= 0 IOpClX= 0 NMat=1 NMatS=1 NMatT=0.
 FoFJK:  IHMeth= 1 ICntrl=    2127 DoSepK=F KAlg= 0 I1Cent=   0 FoldK=F
 IRaf=         0 NMat=   1 IRICut=       1 DoRegI=T DoRafI=F ISym2E= 0.
 FoFCou: FMM=F IPFlag=           0 FMFlag=      100000 FMFlg1=         800
         NFxFlg=           0 DoJE=F BraDBF=F KetDBF=F FulRan=T
         wScrn=  0.000000 ICntrl=    2127 IOpCl=  0 I1Cent=           0 NGrid=           0
         NMat0=    1 NMatS0=      1 NMatT0=    0 NMatD0=    1 NMtDS0=    0 NMtDT0=    0
 Symmetry not used in FoFCou.
 Leave Link  703 at Fri Aug 26 13:52:22 2022, MaxMem= 24159191040 cpu:        20.7
 (Enter /public/home/users/caep010/software/Gaussian09/g09/l716.exe)
 Dipole        =-9.79719719D-01 1.99836942D-01 3.26067470D-05
 ***** Axes restored to original set *****
 -------------------------------------------------------------------
 Center     Atomic                   Forces (Hartrees/Bohr)
 Number     Number              X              Y              Z
 -------------------------------------------------------------------
      1        6           0.045006212   -0.001990853   -0.004946193
      2        7          -0.022050143    0.003179052    0.000136158
      3        6           0.024778604   -0.037988016    0.035763161
      4        7          -0.011271208    0.014765074   -0.013637547
      5        1          -0.007108564    0.006094132   -0.005248678
      6        1          -0.002589715   -0.002091044    0.002584767
      7        1          -0.002557388    0.005043090   -0.004863583
      8        1          -0.024207798    0.012988566   -0.009788086
 -------------------------------------------------------------------
 Cartesian Forces:  Max     0.045006212 RMS     0.017626397
 Leave Link  716 at Fri Aug 26 13:52:22 2022, MaxMem= 24159191040 cpu:         0.7
 (Enter /public/home/users/caep010/software/Gaussian09/g09/l103.exe)

 GradGradGradGradGradGradGradGradGradGradGradGradGradGradGradGradGradGrad
 Berny optimization.
 FormGI is forming the generalized inverse of G from B-inverse, IUseBI=4.
 Internal  Forces:  Max     0.044759527 RMS     0.017339567
 Search for a local minimum.
 Step number   1 out of a maximum of   32
 All quantities printed in internal units (Hartrees-Bohrs-Radians)
 RMS Force = .17340D-01 SwitMx=.10000D-02 MixMth= 1
 Mixed Optimization -- RFO/linear search
 Second derivative matrix not updated -- first step.
 ITU=  0
     Eigenvalues ---    0.01247   0.01301   0.02195   0.03085   0.03116
     Eigenvalues ---    0.16000   0.16000   0.16000   0.16000   0.22000
     Eigenvalues ---    0.25000   0.35549   0.35590   0.35826   0.40636
     Eigenvalues ---    0.41053   0.68683   0.69359
 RFO step:  Lambda=-1.94268037D-02 EMin= 1.24687930D-02
 Linear search not attempted -- first point.
 Iteration  1 RMS(Cart)=  0.10623264 RMS(Int)=  0.00487553
 Iteration  2 RMS(Cart)=  0.00927766 RMS(Int)=  0.00004740
 Iteration  3 RMS(Cart)=  0.00004830 RMS(Int)=  0.00000013
 Iteration  4 RMS(Cart)=  0.00000000 RMS(Int)=  0.00000013
 ITry= 1 IFail=0 DXMaxC= 2.85D-01 DCOld= 1.00D+10 DXMaxT= 3.00D-01 DXLimC= 3.00D+00 Rises=F
 Variable       Old X    -DE/DX   Delta X   Delta X   Delta X     New X
                                 (Linear)    (Quad)   (Total)
    R1        2.44666  -0.03250   0.00000  -0.04602  -0.04602   2.40064
    R2        2.04792   0.00968   0.00000   0.02582   0.02582   2.07374
    R3        2.04354   0.00419   0.00000   0.01109   0.01109   2.05463
    R4        2.70147  -0.01589   0.00000  -0.03696  -0.03696   2.66451
    R5        2.44221  -0.04476   0.00000  -0.06277  -0.06277   2.37944
    R6        2.04727   0.00738   0.00000   0.01967   0.01967   2.06695
    R7        1.97398  -0.02150   0.00000  -0.05048  -0.05048   1.92349
    A1        2.11629   0.00666   0.00000   0.03714   0.03714   2.15343
    A2        2.08829  -0.00383   0.00000  -0.02133  -0.02133   2.06697
    A3        2.07860  -0.00284   0.00000  -0.01581  -0.01581   2.06279
    A4        2.13377  -0.02837   0.00000  -0.10531  -0.10531   2.02846
    A5        2.09725   0.01381   0.00000   0.05769   0.05769   2.15494
    A6        2.10522  -0.00799   0.00000  -0.03488  -0.03488   2.07034
    A7        2.08072  -0.00582   0.00000  -0.02282  -0.02282   2.05790
    A8        2.11625  -0.03891   0.00000  -0.21684  -0.21684   1.89940
    D1        0.00009  -0.00000   0.00000  -0.00008  -0.00008   0.00001
    D2       -3.14154  -0.00000   0.00000  -0.00005  -0.00005   3.14159
    D3        3.14155   0.00000   0.00000   0.00003   0.00003   3.14158
    D4       -3.14154  -0.00000   0.00000  -0.00007  -0.00007   3.14157
    D5       -0.00004   0.00000   0.00000   0.00008   0.00008   0.00004
    D6       -0.00014   0.00001   0.00000   0.00016   0.00016   0.00002
    D7        3.14154   0.00000   0.00000   0.00001   0.00001   3.14155
         Item               Value     Threshold  Converged?
 Maximum Force            0.044760     0.000450     NO 
 RMS     Force            0.017340     0.000300     NO 
 Maximum Displacement     0.284934     0.001800     NO 
 RMS     Displacement     0.112457     0.001200     NO 
 Predicted change in Energy=-1.045561D-02
 Lowest energy point so far.  Saving SCF results.
 GradGradGradGradGradGradGradGradGradGradGradGradGradGradGradGradGradGrad

 Leave Link  103 at Fri Aug 26 13:52:22 2022, MaxMem= 24159191040 cpu:         2.5
 (Enter /public/home/users/caep010/software/Gaussian09/g09/l202.exe)
                          Input orientation:                          
 ---------------------------------------------------------------------
 Center     Atomic      Atomic             Coordinates (Angstroms)
 Number     Number       Type             X           Y           Z
 ---------------------------------------------------------------------
      1          6           0       -1.395918    0.088783    0.257355
      2          7           0       -0.204006   -0.294822    0.471868
      3          6           0        0.796587    0.310417   -0.315909
      4          7           0        2.020782    0.032873   -0.217104
      5          1           0       -1.661032    0.845847   -0.491511
      6          1           0       -2.196059   -0.354643    0.844969
      7          1           0        0.499827    1.061526   -1.053560
      8          1           0        2.139820   -0.675680    0.503894
 ---------------------------------------------------------------------
                    Distance matrix (angstroms):
                    1          2          3          4          5
     1  C    0.000000
     2  N    1.270363   0.000000
     3  C    2.277023   1.409998   0.000000
     4  N    3.449939   2.351967   1.259145   0.000000
     5  H    1.097375   2.086181   2.521391   3.780474   0.000000
     6  H    1.087263   2.027574   3.278090   4.365766   1.874462
     7  H    2.501714   2.159164   1.093783   2.017695   2.243151
     8  H    3.625828   2.374784   1.857078   1.017869   4.213354
                    6          7          8
     6  H    0.000000
     7  H    3.588557   0.000000
     8  H    4.361105   2.851864   0.000000
 Stoichiometry    C2H4N2
 Framework group  C1[X(C2H4N2)]
 Deg. of freedom    18
 Full point group                 C1      NOp   1
 RotChk:  IX=0 Diff= 2.59D-02
 Largest Abelian subgroup         C1      NOp   1
 Largest concise Abelian subgroup C1      NOp   1
                         Standard orientation:                         
 ---------------------------------------------------------------------
 Center     Atomic      Atomic             Coordinates (Angstroms)
 Number     Number       Type             X           Y           Z
 ---------------------------------------------------------------------
      1          6           0       -1.672331    0.072516    0.000003
      2          7           0       -0.532314   -0.488004   -0.000002
      3          6           0        0.584883    0.372208   -0.000011
      4          7           0        1.775888   -0.036393    0.000004
      5          1           0       -1.809871    1.161238   -0.000007
      6          1           0       -2.558709   -0.557148    0.000006
      7          1           0        0.414277    1.452603    0.000023
      8          1           0        1.773972   -1.054259    0.000004
 ---------------------------------------------------------------------
 Rotational constants (GHZ):     50.8620459      5.1048581      4.6392333
 Leave Link  202 at Fri Aug 26 13:52:22 2022, MaxMem= 24159191040 cpu:         0.2
 (Enter /public/home/users/caep010/software/Gaussian09/g09/l301.exe)
 Standard basis: GTBas3 (6D, 7F)
 Ernie: Thresh=  0.10000D-02 Tol=  0.10000D-05 Strict=F.
 There are   144 symmetry adapted cartesian basis functions of A   symmetry.
 There are   132 symmetry adapted basis functions of A   symmetry.
   132 basis functions,   204 primitive gaussians,   144 cartesian basis functions
    15 alpha electrons       15 beta electrons
       nuclear repulsion energy       106.8208950497 Hartrees.
 IExCor=  402 DFT=T Ex+Corr=B3LYP ExCW=0 ScaHFX=  0.200000
 ScaDFX=  0.800000  0.720000  1.000000  0.810000 ScalE2=  1.000000  1.000000
 IRadAn=      0 IRanWt=     -1 IRanGd=            0 ICorTp=0 IEmpDi=  4
 NAtoms=    8 NActive=    8 NUniq=    8 SFac= 1.00D+00 NAtFMM=   60 NAOKFM=F Big=F
 Integral buffers will be    131072 words long.
 Raffenetti 2 integral format.
 Two-electron integral symmetry is turned on.
 Leave Link  301 at Fri Aug 26 13:52:23 2022, MaxMem= 24159191040 cpu:         1.6
 (Enter /public/home/users/caep010/software/Gaussian09/g09/l302.exe)
 NPDir=0 NMtPBC=     1 NCelOv=     1 NCel=       1 NClECP=     1 NCelD=      1
         NCelK=      1 NCelE2=     1 NClLst=     1 CellRange=     0.0.
 One-electron integrals computed using PRISM.
 NBasis=   132 RedAO= T EigKep=  3.17D-04  NBF=   132
 NBsUse=   132 1.00D-06 EigRej= -1.00D+00 NBFU=   132
 Precomputing XC quadrature grid using
 IXCGrd= 4 IRadAn=           0 IRanWt=          -1 IRanGd=           0 AccXCQ= 0.00D+00.
 Generated NRdTot=       0 NPtTot=           0 NUsed=           0 NTot=          32
 NSgBfM=   144   144   144   144   144 MxSgAt=     8 MxSgA2=     8.
 Leave Link  302 at Fri Aug 26 13:52:23 2022, MaxMem= 24159191040 cpu:        13.9
 (Enter /public/home/users/caep010/software/Gaussian09/g09/l303.exe)
 DipDrv:  MaxL=1.
 Leave Link  303 at Fri Aug 26 13:52:23 2022, MaxMem= 24159191040 cpu:         0.6
 (Enter /public/home/users/caep010/software/Gaussian09/g09/l401.exe)
 Initial guess from the checkpoint file:  "G4.Frag_479.chk"
 B after Tr=     0.000000    0.000000   -0.000000
         Rot=    0.999996   -0.000001    0.000000    0.002672 Ang=  -0.31 deg.
 Guess basis will be translated and rotated to current coordinates.
 JPrj=2 DoOrth=T DoCkMO=T.
 Generating alternative initial guess.
 ExpMin= 1.61D-01 ExpMax= 4.17D+03 ExpMxC= 6.27D+02 IAcc=1 IRadAn=         1 AccDes= 0.00D+00
 Harris functional with IExCor=  402 and IRadAn=       1 diagonalized for initial guess.
 HarFok:  IExCor=  402 AccDes= 0.00D+00 IRadAn=         1 IDoV= 1 UseB2=F ITyADJ=14
 ICtDFT=  3500011 ScaDFX=  1.000000  1.000000  1.000000  1.000000
 FoFCou: FMM=F IPFlag=           0 FMFlag=      100000 FMFlg1=           0
         NFxFlg=           0 DoJE=T BraDBF=F KetDBF=T FulRan=T
         wScrn=  0.000000 ICntrl=     500 IOpCl=  0 I1Cent=   200000004 NGrid=           0
         NMat0=    1 NMatS0=      1 NMatT0=    0 NMatD0=    1 NMtDS0=    0 NMtDT0=    0
 Petite list used in FoFCou.
 Harris En= -188.078772536865    
 Leave Link  401 at Fri Aug 26 13:52:24 2022, MaxMem= 24159191040 cpu:        14.3
 (Enter /public/home/users/caep010/software/Gaussian09/g09/l502.exe)
 Closed shell SCF:
 Using DIIS extrapolation, IDIIS=  1040.
 Integral symmetry usage will be decided dynamically.
 Keep R1 ints in memory in canonical form, NReq=40604239.
 IVT=       86414 IEndB=       86414 NGot= 24159191040 MDV= 24120573596
 LenX= 24120573596 LenY= 24120552419
 Requested convergence on RMS density matrix=1.00D-08 within 128 cycles.
 Requested convergence on MAX density matrix=1.00D-06.
 Requested convergence on             energy=1.00D-06.
 No special actions if energy rises.
 FoFCou: FMM=F IPFlag=           0 FMFlag=           0 FMFlg1=           0
         NFxFlg=           0 DoJE=F BraDBF=F KetDBF=F FulRan=T
         wScrn=  0.000000 ICntrl=     600 IOpCl=  0 I1Cent=           0 NGrid=           0
         NMat0=    1 NMatS0=   8778 NMatT0=    0 NMatD0=    1 NMtDS0=    0 NMtDT0=    0
 Symmetry not used in FoFCou.
 Integral accuracy reduced to 1.0D-05 until final iterations.

 Cycle   1  Pass 0  IDiag  1:
 E= -188.080315672069    
 DIIS: error= 4.83D-03 at cycle   1 NSaved=   1.
 NSaved= 1 IEnMin= 1 EnMin= -188.080315672069     IErMin= 1 ErrMin= 4.83D-03
 ErrMax= 4.83D-03  0.00D+00 EMaxC= 1.00D-01 BMatC= 7.11D-03 BMatP= 7.11D-03
 IDIUse=3 WtCom= 9.52D-01 WtEn= 4.83D-02
 Coeff-Com:  0.100D+01
 Coeff-En:   0.100D+01
 Coeff:      0.100D+01
 Gap=     1.162 Goal=   None    Shift=    0.000
 GapD=    1.162 DampG=2.000 DampE=1.000 DampFc=2.0000 IDamp=-1.
 RMSDP=8.21D-04 MaxDP=1.39D-02              OVMax= 2.38D-02

 Cycle   2  Pass 0  IDiag  1:
 E= -188.087843113334     Delta-E=       -0.007527441265 Rises=F Damp=F
 DIIS: error= 9.37D-04 at cycle   2 NSaved=   2.
 NSaved= 2 IEnMin= 2 EnMin= -188.087843113334     IErMin= 2 ErrMin= 9.37D-04
 ErrMax= 9.37D-04  0.00D+00 EMaxC= 1.00D-01 BMatC= 2.62D-04 BMatP= 7.11D-03
 IDIUse=3 WtCom= 9.91D-01 WtEn= 9.37D-03
 Coeff-Com:  0.285D-01 0.971D+00
 Coeff-En:   0.000D+00 0.100D+01
 Coeff:      0.283D-01 0.972D+00
 Gap=     0.214 Goal=   None    Shift=    0.000
 RMSDP=2.46D-04 MaxDP=7.80D-03 DE=-7.53D-03 OVMax= 1.10D-02

 Cycle   3  Pass 0  IDiag  1:
 E= -188.087645540966     Delta-E=        0.000197572368 Rises=F Damp=F
 DIIS: error= 1.69D-03 at cycle   3 NSaved=   3.
 NSaved= 3 IEnMin= 2 EnMin= -188.087843113334     IErMin= 2 ErrMin= 9.37D-04
 ErrMax= 1.69D-03  0.00D+00 EMaxC= 1.00D-01 BMatC= 4.86D-04 BMatP= 2.62D-04
 IDIUse=3 WtCom= 1.96D-01 WtEn= 8.04D-01
 Coeff-Com: -0.140D-01 0.590D+00 0.424D+00
 Coeff-En:   0.000D+00 0.640D+00 0.360D+00
 Coeff:     -0.275D-02 0.630D+00 0.372D+00
 Gap=     0.216 Goal=   None    Shift=    0.000
 RMSDP=1.53D-04 MaxDP=5.78D-03 DE= 1.98D-04 OVMax= 9.11D-03

 Cycle   4  Pass 0  IDiag  1:
 E= -188.088073715958     Delta-E=       -0.000428174992 Rises=F Damp=F
 DIIS: error= 2.89D-04 at cycle   4 NSaved=   4.
 NSaved= 4 IEnMin= 4 EnMin= -188.088073715958     IErMin= 4 ErrMin= 2.89D-04
 ErrMax= 2.89D-04  0.00D+00 EMaxC= 1.00D-01 BMatC= 1.28D-05 BMatP= 2.62D-04
 IDIUse=3 WtCom= 9.97D-01 WtEn= 2.89D-03
 Coeff-Com: -0.123D-01 0.206D+00 0.178D+00 0.629D+00
 Coeff-En:   0.000D+00 0.000D+00 0.000D+00 0.100D+01
 Coeff:     -0.123D-01 0.206D+00 0.177D+00 0.630D+00
 Gap=     0.215 Goal=   None    Shift=    0.000
 RMSDP=2.57D-05 MaxDP=1.00D-03 DE=-4.28D-04 OVMax= 1.53D-03

 Cycle   5  Pass 0  IDiag  1:
 E= -188.088084752216     Delta-E=       -0.000011036258 Rises=F Damp=F
 DIIS: error= 8.56D-05 at cycle   5 NSaved=   5.
 NSaved= 5 IEnMin= 5 EnMin= -188.088084752216     IErMin= 5 ErrMin= 8.56D-05
 ErrMax= 8.56D-05  0.00D+00 EMaxC= 1.00D-01 BMatC= 9.30D-07 BMatP= 1.28D-05
 IDIUse=1 WtCom= 1.00D+00 WtEn= 0.00D+00
 Coeff-Com: -0.389D-02 0.422D-01 0.476D-01 0.257D+00 0.657D+00
 Coeff:     -0.389D-02 0.422D-01 0.476D-01 0.257D+00 0.657D+00
 Gap=     0.215 Goal=   None    Shift=    0.000
 RMSDP=9.75D-06 MaxDP=2.59D-04 DE=-1.10D-05 OVMax= 4.37D-04

 Initial convergence to 1.0D-05 achieved.  Increase integral accuracy.
 Cycle   6  Pass 1  IDiag  1:
 E= -188.088087014979     Delta-E=       -0.000002262763 Rises=F Damp=F
 DIIS: error= 2.24D-05 at cycle   1 NSaved=   1.
 NSaved= 1 IEnMin= 1 EnMin= -188.088087014979     IErMin= 1 ErrMin= 2.24D-05
 ErrMax= 2.24D-05  0.00D+00 EMaxC= 1.00D-01 BMatC= 9.09D-08 BMatP= 9.09D-08
 IDIUse=1 WtCom= 1.00D+00 WtEn= 0.00D+00
 Coeff-Com:  0.100D+01
 Coeff:      0.100D+01
 Gap=     0.215 Goal=   None    Shift=    0.000
 RMSDP=9.75D-06 MaxDP=2.59D-04 DE=-2.26D-06 OVMax= 4.13D-04

 Cycle   7  Pass 1  IDiag  1:
 E= -188.088086831890     Delta-E=        0.000000183089 Rises=F Damp=F
 DIIS: error= 4.41D-05 at cycle   2 NSaved=   2.
 NSaved= 2 IEnMin= 1 EnMin= -188.088087014979     IErMin= 1 ErrMin= 2.24D-05
 ErrMax= 4.41D-05  0.00D+00 EMaxC= 1.00D-01 BMatC= 2.76D-07 BMatP= 9.09D-08
 IDIUse=1 WtCom= 1.00D+00 WtEn= 0.00D+00
 Coeff-Com:  0.642D+00 0.358D+00
 Coeff:      0.642D+00 0.358D+00
 Gap=     0.215 Goal=   None    Shift=    0.000
 RMSDP=3.89D-06 MaxDP=1.46D-04 DE= 1.83D-07 OVMax= 3.05D-04

 Cycle   8  Pass 1  IDiag  1:
 E= -188.088087100094     Delta-E=       -0.000000268205 Rises=F Damp=F
 DIIS: error= 5.66D-06 at cycle   3 NSaved=   3.
 NSaved= 3 IEnMin= 3 EnMin= -188.088087100094     IErMin= 3 ErrMin= 5.66D-06
 ErrMax= 5.66D-06  0.00D+00 EMaxC= 1.00D-01 BMatC= 6.37D-09 BMatP= 9.09D-08
 IDIUse=1 WtCom= 1.00D+00 WtEn= 0.00D+00
 Coeff-Com:  0.262D+00 0.183D+00 0.555D+00
 Coeff:      0.262D+00 0.183D+00 0.555D+00
 Gap=     0.215 Goal=   None    Shift=    0.000
 RMSDP=5.78D-07 MaxDP=2.06D-05 DE=-2.68D-07 OVMax= 3.19D-05

 Cycle   9  Pass 1  IDiag  1:
 E= -188.088087104818     Delta-E=       -0.000000004723 Rises=F Damp=F
 DIIS: error= 1.76D-06 at cycle   4 NSaved=   4.
 NSaved= 4 IEnMin= 4 EnMin= -188.088087104818     IErMin= 4 ErrMin= 1.76D-06
 ErrMax= 1.76D-06  0.00D+00 EMaxC= 1.00D-01 BMatC= 7.52D-10 BMatP= 6.37D-09
 IDIUse=1 WtCom= 1.00D+00 WtEn= 0.00D+00
 Coeff-Com:  0.114D-01 0.268D-01 0.278D+00 0.684D+00
 Coeff:      0.114D-01 0.268D-01 0.278D+00 0.684D+00
 Gap=     0.215 Goal=   None    Shift=    0.000
 RMSDP=1.81D-07 MaxDP=5.94D-06 DE=-4.72D-09 OVMax= 9.03D-06

 Cycle  10  Pass 1  IDiag  1:
 E= -188.088087105480     Delta-E=       -0.000000000662 Rises=F Damp=F
 DIIS: error= 4.57D-07 at cycle   5 NSaved=   5.
 NSaved= 5 IEnMin= 5 EnMin= -188.088087105480     IErMin= 5 ErrMin= 4.57D-07
 ErrMax= 4.57D-07  0.00D+00 EMaxC= 1.00D-01 BMatC= 1.34D-11 BMatP= 7.52D-10
 IDIUse=1 WtCom= 1.00D+00 WtEn= 0.00D+00
 Coeff-Com: -0.617D-02 0.187D-02 0.659D-01 0.227D+00 0.711D+00
 Coeff:     -0.617D-02 0.187D-02 0.659D-01 0.227D+00 0.711D+00
 Gap=     0.215 Goal=   None    Shift=    0.000
 RMSDP=2.87D-08 MaxDP=5.43D-07 DE=-6.62D-10 OVMax= 1.04D-06

 Cycle  11  Pass 1  IDiag  1:
 E= -188.088087105492     Delta-E=       -0.000000000013 Rises=F Damp=F
 DIIS: error= 4.69D-08 at cycle   6 NSaved=   6.
 NSaved= 6 IEnMin= 6 EnMin= -188.088087105492     IErMin= 6 ErrMin= 4.69D-08
 ErrMax= 4.69D-08  0.00D+00 EMaxC= 1.00D-01 BMatC= 4.47D-13 BMatP= 1.34D-11
 IDIUse=1 WtCom= 1.00D+00 WtEn= 0.00D+00
 Coeff-Com: -0.246D-02 0.149D-03 0.180D-01 0.684D-01 0.264D+00 0.652D+00
 Coeff:     -0.246D-02 0.149D-03 0.180D-01 0.684D-01 0.264D+00 0.652D+00
 Gap=     0.215 Goal=   None    Shift=    0.000
 RMSDP=5.63D-09 MaxDP=1.72D-07 DE=-1.26D-11 OVMax= 2.45D-07

 SCF Done:  E(RB3LYP) =  -188.088087105     A.U. after   11 cycles
            NFock= 11  Conv=0.56D-08     -V/T= 2.0073
 KE= 1.867323799996D+02 PE=-6.514049076320D+02 EE= 1.697635454771D+02
 Leave Link  502 at Fri Aug 26 13:52:27 2022, MaxMem= 24159191040 cpu:        78.7
 (Enter /public/home/users/caep010/software/Gaussian09/g09/l701.exe)
 Compute integral first derivatives.
 ... and contract with generalized density number  0.
 Leave Link  701 at Fri Aug 26 13:52:28 2022, MaxMem= 24159191040 cpu:        16.3
 (Enter /public/home/users/caep010/software/Gaussian09/g09/l702.exe)
 L702 exits ... SP integral derivatives will be done elsewhere.
 Leave Link  702 at Fri Aug 26 13:52:28 2022, MaxMem= 24159191040 cpu:         0.5
 (Enter /public/home/users/caep010/software/Gaussian09/g09/l703.exe)
 Compute integral first derivatives, UseDBF=F ICtDFT=           0.
 Integral derivatives from FoFJK, PRISM(SPDF).
 Calling FoFJK, ICntrl=      2127 FMM=F ISym2X=0 I1Cent= 0 IOpClX= 0 NMat=1 NMatS=1 NMatT=0.
 FoFJK:  IHMeth= 1 ICntrl=    2127 DoSepK=F KAlg= 0 I1Cent=   0 FoldK=F
 IRaf=         0 NMat=   1 IRICut=       1 DoRegI=T DoRafI=F ISym2E= 0.
 FoFCou: FMM=F IPFlag=           0 FMFlag=      100000 FMFlg1=         800
         NFxFlg=           0 DoJE=F BraDBF=F KetDBF=F FulRan=T
         wScrn=  0.000000 ICntrl=    2127 IOpCl=  0 I1Cent=           0 NGrid=           0
         NMat0=    1 NMatS0=      1 NMatT0=    0 NMatD0=    1 NMtDS0=    0 NMtDT0=    0
 Symmetry not used in FoFCou.
 Leave Link  703 at Fri Aug 26 13:52:28 2022, MaxMem= 24159191040 cpu:        19.7
 (Enter /public/home/users/caep010/software/Gaussian09/g09/l716.exe)
 Dipole        =-1.07496118D+00 2.16247714D-01-1.16667588D-06
 ***** Axes restored to original set *****
 -------------------------------------------------------------------
 Center     Atomic                   Forces (Hartrees/Bohr)
 Number     Number              X              Y              Z
 -------------------------------------------------------------------
      1        6           0.000416402   -0.001376901    0.001370548
      2        7          -0.000919236    0.001137965   -0.001046222
      3        6          -0.002359727    0.000735541   -0.000391867
      4        7           0.009753198    0.001032140   -0.002599941
      5        1          -0.001090160    0.000169900   -0.000006790
      6        1          -0.002660750    0.000809505   -0.000429284
      7        1          -0.004541063    0.001704474   -0.001074158
      8        1           0.001401336   -0.004212624    0.004177714
 -------------------------------------------------------------------
 Cartesian Forces:  Max     0.009753198 RMS     0.002794153
 Leave Link  716 at Fri Aug 26 13:52:29 2022, MaxMem= 24159191040 cpu:         0.9
 (Enter /public/home/users/caep010/software/Gaussian09/g09/l103.exe)

 GradGradGradGradGradGradGradGradGradGradGradGradGradGradGradGradGradGrad
 Berny optimization.
 Using GEDIIS/GDIIS optimizer.
 FormGI is forming the generalized inverse of G from B-inverse, IUseBI=4.
 Internal  Forces:  Max     0.011669731 RMS     0.003415405
 Search for a local minimum.
 Step number   2 out of a maximum of   32
 All quantities printed in internal units (Hartrees-Bohrs-Radians)
 RMS Force = .34154D-02 SwitMx=.10000D-02 MixMth= 1
 Mixed Optimization -- RFO/linear search
 Update second derivatives using D2CorX and points    1    2
 DE= -9.50D-03 DEPred=-1.05D-02 R= 9.09D-01
 TightC=F SS=  1.41D+00  RLast= 2.76D-01 DXNew= 5.0454D-01 8.2928D-01
 Trust test= 9.09D-01 RLast= 2.76D-01 DXMaxT set to 5.05D-01
 ITU=  1  0
 Use linear search instead of GDIIS.
     Eigenvalues ---    0.01243   0.01301   0.02202   0.03085   0.03116
     Eigenvalues ---    0.15168   0.16000   0.16000   0.17566   0.21661
     Eigenvalues ---    0.25527   0.35266   0.35608   0.35805   0.40916
     Eigenvalues ---    0.42309   0.68476   0.75245
 RFO step:  Lambda=-5.12678593D-04 EMin= 1.24292738D-02
 Quartic linear search produced a step of -0.06168.
 Iteration  1 RMS(Cart)=  0.01587171 RMS(Int)=  0.00014948
 Iteration  2 RMS(Cart)=  0.00016480 RMS(Int)=  0.00000037
 Iteration  3 RMS(Cart)=  0.00000002 RMS(Int)=  0.00000037
 ITry= 1 IFail=0 DXMaxC= 4.17D-02 DCOld= 1.00D+10 DXMaxT= 5.05D-01 DXLimC= 3.00D+00 Rises=F
 Variable       Old X    -DE/DX   Delta X   Delta X   Delta X     New X
                                 (Linear)    (Quad)   (Total)
    R1        2.40064   0.00285   0.00284  -0.00025   0.00258   2.40322
    R2        2.07374   0.00038  -0.00159   0.00346   0.00187   2.07561
    R3        2.05463   0.00140  -0.00068   0.00470   0.00402   2.05865
    R4        2.66451   0.00264   0.00228   0.00257   0.00485   2.66936
    R5        2.37944   0.01167   0.00387   0.01012   0.01400   2.39344
    R6        2.06695   0.00313  -0.00121   0.01010   0.00889   2.07584
    R7        1.92349   0.00605   0.00311   0.00923   0.01235   1.93584
    A1        2.15343  -0.00024  -0.00229   0.00257   0.00028   2.15371
    A2        2.06697   0.00263   0.00132   0.01308   0.01440   2.08137
    A3        2.06279  -0.00239   0.00098  -0.01565  -0.01468   2.04811
    A4        2.02846   0.00195   0.00650  -0.00314   0.00336   2.03182
    A5        2.15494   0.00211  -0.00356   0.01480   0.01124   2.16619
    A6        2.07034  -0.00504   0.00215  -0.03137  -0.02922   2.04112
    A7        2.05790   0.00294   0.00141   0.01657   0.01798   2.07588
    A8        1.89940   0.00135   0.01338  -0.01535  -0.00197   1.89743
    D1        0.00001  -0.00000   0.00001  -0.00003  -0.00003  -0.00002
    D2        3.14159   0.00000   0.00000   0.00001   0.00002  -3.14158
    D3        3.14158   0.00000  -0.00000   0.00005   0.00005  -3.14156
    D4        3.14157   0.00000   0.00000   0.00006   0.00006  -3.14155
    D5        0.00004  -0.00000  -0.00000  -0.00006  -0.00007  -0.00003
    D6        0.00002  -0.00000  -0.00001  -0.00003  -0.00004  -0.00002
    D7        3.14155   0.00000  -0.00000   0.00009   0.00009  -3.14154
         Item               Value     Threshold  Converged?
 Maximum Force            0.011670     0.000450     NO 
 RMS     Force            0.003415     0.000300     NO 
 Maximum Displacement     0.041670     0.001800     NO 
 RMS     Displacement     0.015919     0.001200     NO 
 Predicted change in Energy=-2.973847D-04
 Lowest energy point so far.  Saving SCF results.
 GradGradGradGradGradGradGradGradGradGradGradGradGradGradGradGradGradGrad

 Leave Link  103 at Fri Aug 26 13:52:29 2022, MaxMem= 24159191040 cpu:         1.7
 (Enter /public/home/users/caep010/software/Gaussian09/g09/l202.exe)
                          Input orientation:                          
 ---------------------------------------------------------------------
 Center     Atomic      Atomic             Coordinates (Angstroms)
 Number     Number       Type             X           Y           Z
 ---------------------------------------------------------------------
      1          6           0       -1.397526    0.088981    0.257385
      2          7           0       -0.204721   -0.295766    0.472986
      3          6           0        0.801913    0.307260   -0.313388
      4          7           0        2.035104    0.033872   -0.220383
      5          1           0       -1.662178    0.846811   -0.492320
      6          1           0       -2.210306   -0.345837    0.837982
      7          1           0        0.477776    1.058186   -1.046679
      8          1           0        2.159937   -0.679207    0.504417
 ---------------------------------------------------------------------
                    Distance matrix (angstroms):
                    1          2          3          4          5
     1  C    0.000000
     2  N    1.271730   0.000000
     3  C    2.282752   1.412563   0.000000
     4  N    3.466158   2.367749   1.266552   0.000000
     5  H    1.098365   2.088416   2.528809   3.795355   0.000000
     6  H    1.089390   2.039142   3.290236   4.391790   1.868839
     7  H    2.481270   2.146711   1.098485   2.038935   2.220675
     8  H    3.647832   2.395751   1.867124   1.024402   4.234476
                    6          7          8
     6  H    0.000000
     7  H    3.570576   0.000000
     8  H    4.395614   2.872995   0.000000
 Stoichiometry    C2H4N2
 Framework group  C1[X(C2H4N2)]
 Deg. of freedom    18
 Full point group                 C1      NOp   1
 RotChk:  IX=2 Diff= 2.38D-03
 Largest Abelian subgroup         C1      NOp   1
 Largest concise Abelian subgroup C1      NOp   1
                         Standard orientation:                         
 ---------------------------------------------------------------------
 Center     Atomic      Atomic             Coordinates (Angstroms)
 Number     Number       Type             X           Y           Z
 ---------------------------------------------------------------------
      1          6           0       -1.677340    0.070725   -0.000010
      2          7           0       -0.535676   -0.489543    0.000009
      3          6           0        0.585801    0.369308    0.000018
      4          7           0        1.787315   -0.031339   -0.000009
      5          1           0       -1.816121    1.160288   -0.000001
      6          1           0       -2.573981   -0.547988   -0.000005
      7          1           0        0.385653    1.449405   -0.000019
      8          1           0        1.792211   -1.055729   -0.000018
 ---------------------------------------------------------------------
 Rotational constants (GHZ):     51.0403223      5.0548298      4.5993305
 Leave Link  202 at Fri Aug 26 13:52:29 2022, MaxMem= 24159191040 cpu:         0.2
 (Enter /public/home/users/caep010/software/Gaussian09/g09/l301.exe)
 Standard basis: GTBas3 (6D, 7F)
 Ernie: Thresh=  0.10000D-02 Tol=  0.10000D-05 Strict=F.
 There are   144 symmetry adapted cartesian basis functions of A   symmetry.
 There are   132 symmetry adapted basis functions of A   symmetry.
   132 basis functions,   204 primitive gaussians,   144 cartesian basis functions
    15 alpha electrons       15 beta electrons
       nuclear repulsion energy       106.4474470449 Hartrees.
 IExCor=  402 DFT=T Ex+Corr=B3LYP ExCW=0 ScaHFX=  0.200000
 ScaDFX=  0.800000  0.720000  1.000000  0.810000 ScalE2=  1.000000  1.000000
 IRadAn=      0 IRanWt=     -1 IRanGd=            0 ICorTp=0 IEmpDi=  4
 NAtoms=    8 NActive=    8 NUniq=    8 SFac= 1.00D+00 NAtFMM=   60 NAOKFM=F Big=F
 Integral buffers will be    131072 words long.
 Raffenetti 2 integral format.
 Two-electron integral symmetry is turned on.
 Leave Link  301 at Fri Aug 26 13:52:29 2022, MaxMem= 24159191040 cpu:         1.7
 (Enter /public/home/users/caep010/software/Gaussian09/g09/l302.exe)
 NPDir=0 NMtPBC=     1 NCelOv=     1 NCel=       1 NClECP=     1 NCelD=      1
         NCelK=      1 NCelE2=     1 NClLst=     1 CellRange=     0.0.
 One-electron integrals computed using PRISM.
 NBasis=   132 RedAO= T EigKep=  3.24D-04  NBF=   132
 NBsUse=   132 1.00D-06 EigRej= -1.00D+00 NBFU=   132
 Precomputing XC quadrature grid using
 IXCGrd= 4 IRadAn=           0 IRanWt=          -1 IRanGd=           0 AccXCQ= 0.00D+00.
 Generated NRdTot=       0 NPtTot=           0 NUsed=           0 NTot=          32
 NSgBfM=   144   144   144   144   144 MxSgAt=     8 MxSgA2=     8.
 Leave Link  302 at Fri Aug 26 13:52:29 2022, MaxMem= 24159191040 cpu:        14.4
 (Enter /public/home/users/caep010/software/Gaussian09/g09/l303.exe)
 DipDrv:  MaxL=1.
 Leave Link  303 at Fri Aug 26 13:52:29 2022, MaxMem= 24159191040 cpu:         0.7
 (Enter /public/home/users/caep010/software/Gaussian09/g09/l401.exe)
 Initial guess from the checkpoint file:  "G4.Frag_479.chk"
 B after Tr=    -0.000000   -0.000000    0.000000
         Rot=    1.000000   -0.000000    0.000000   -0.000799 Ang=  -0.09 deg.
 Guess basis will be translated and rotated to current coordinates.
 JPrj=2 DoOrth=T DoCkMO=T.
 Generating alternative initial guess.
 ExpMin= 1.61D-01 ExpMax= 4.17D+03 ExpMxC= 6.27D+02 IAcc=1 IRadAn=         1 AccDes= 0.00D+00
 Harris functional with IExCor=  402 and IRadAn=       1 diagonalized for initial guess.
 HarFok:  IExCor=  402 AccDes= 0.00D+00 IRadAn=         1 IDoV= 1 UseB2=F ITyADJ=14
 ICtDFT=  3500011 ScaDFX=  1.000000  1.000000  1.000000  1.000000
 FoFCou: FMM=F IPFlag=           0 FMFlag=      100000 FMFlg1=           0
         NFxFlg=           0 DoJE=T BraDBF=F KetDBF=T FulRan=T
         wScrn=  0.000000 ICntrl=     500 IOpCl=  0 I1Cent=   200000004 NGrid=           0
         NMat0=    1 NMatS0=      1 NMatT0=    0 NMatD0=    1 NMtDS0=    0 NMtDT0=    0
 Petite list used in FoFCou.
 Harris En= -188.077471916737    
 Leave Link  401 at Fri Aug 26 13:52:30 2022, MaxMem= 24159191040 cpu:        14.2
 (Enter /public/home/users/caep010/software/Gaussian09/g09/l502.exe)
 Closed shell SCF:
 Using DIIS extrapolation, IDIIS=  1040.
 Integral symmetry usage will be decided dynamically.
 Keep R1 ints in memory in canonical form, NReq=40604181.
 IVT=       86414 IEndB=       86414 NGot= 24159191040 MDV= 24120573596
 LenX= 24120573596 LenY= 24120552419
 Requested convergence on RMS density matrix=1.00D-08 within 128 cycles.
 Requested convergence on MAX density matrix=1.00D-06.
 Requested convergence on             energy=1.00D-06.
 No special actions if energy rises.
 FoFCou: FMM=F IPFlag=           0 FMFlag=           0 FMFlg1=           0
         NFxFlg=           0 DoJE=F BraDBF=F KetDBF=F FulRan=T
         wScrn=  0.000000 ICntrl=     600 IOpCl=  0 I1Cent=           0 NGrid=           0
         NMat0=    1 NMatS0=   8778 NMatT0=    0 NMatD0=    1 NMtDS0=    0 NMtDT0=    0
 Symmetry not used in FoFCou.
 Integral accuracy reduced to 1.0D-05 until final iterations.

 Cycle   1  Pass 0  IDiag  1:
 E= -188.088279272312    
 DIIS: error= 6.10D-04 at cycle   1 NSaved=   1.
 NSaved= 1 IEnMin= 1 EnMin= -188.088279272312     IErMin= 1 ErrMin= 6.10D-04
 ErrMax= 6.10D-04  0.00D+00 EMaxC= 1.00D-01 BMatC= 1.04D-04 BMatP= 1.04D-04
 IDIUse=3 WtCom= 9.94D-01 WtEn= 6.10D-03
 Coeff-Com:  0.100D+01
 Coeff-En:   0.100D+01
 Coeff:      0.100D+01
 Gap=     1.143 Goal=   None    Shift=    0.000
 RMSDP=1.35D-04 MaxDP=4.74D-03              OVMax= 3.65D-03

 Cycle   2  Pass 0  IDiag  1:
 E= -188.088365932017     Delta-E=       -0.000086659705 Rises=F Damp=F
 DIIS: error= 3.02D-04 at cycle   2 NSaved=   2.
 NSaved= 2 IEnMin= 2 EnMin= -188.088365932017     IErMin= 2 ErrMin= 3.02D-04
 ErrMax= 3.02D-04  0.00D+00 EMaxC= 1.00D-01 BMatC= 1.78D-05 BMatP= 1.04D-04
 IDIUse=3 WtCom= 9.97D-01 WtEn= 3.02D-03
 Coeff-Com:  0.201D+00 0.799D+00
 Coeff-En:   0.000D+00 0.100D+01
 Coeff:      0.200D+00 0.800D+00
 Gap=     0.215 Goal=   None    Shift=    0.000
 RMSDP=6.85D-05 MaxDP=2.33D-03 DE=-8.67D-05 OVMax= 4.16D-03

 Cycle   3  Pass 0  IDiag  1:
 E= -188.088360804318     Delta-E=        0.000005127699 Rises=F Damp=F
 DIIS: error= 3.65D-04 at cycle   3 NSaved=   3.
 NSaved= 3 IEnMin= 2 EnMin= -188.088365932017     IErMin= 2 ErrMin= 3.02D-04
 ErrMax= 3.65D-04  0.00D+00 EMaxC= 1.00D-01 BMatC= 2.37D-05 BMatP= 1.78D-05
 IDIUse=3 WtCom= 3.44D-01 WtEn= 6.56D-01
 Coeff-Com:  0.101D-01 0.536D+00 0.454D+00
 Coeff-En:   0.000D+00 0.555D+00 0.445D+00
 Coeff:      0.348D-02 0.549D+00 0.448D+00
 Gap=     0.214 Goal=   None    Shift=    0.000
 RMSDP=3.62D-05 MaxDP=1.45D-03 DE= 5.13D-06 OVMax= 2.76D-03

 Cycle   4  Pass 0  IDiag  1:
 E= -188.088381665018     Delta-E=       -0.000020860701 Rises=F Damp=F
 DIIS: error= 9.16D-05 at cycle   4 NSaved=   4.
 NSaved= 4 IEnMin= 4 EnMin= -188.088381665018     IErMin= 4 ErrMin= 9.16D-05
 ErrMax= 9.16D-05  0.00D+00 EMaxC= 1.00D-01 BMatC= 1.35D-06 BMatP= 1.78D-05
 IDIUse=1 WtCom= 1.00D+00 WtEn= 0.00D+00
 Coeff-Com: -0.102D-01 0.253D+00 0.257D+00 0.500D+00
 Coeff:     -0.102D-01 0.253D+00 0.257D+00 0.500D+00
 Gap=     0.214 Goal=   None    Shift=    0.000
 RMSDP=7.58D-06 MaxDP=3.27D-04 DE=-2.09D-05 OVMax= 5.28D-04

 Initial convergence to 1.0D-05 achieved.  Increase integral accuracy.
 Cycle   5  Pass 1  IDiag  1:
 E= -188.088389344475     Delta-E=       -0.000007679457 Rises=F Damp=F
 DIIS: error= 1.91D-05 at cycle   1 NSaved=   1.
 NSaved= 1 IEnMin= 1 EnMin= -188.088389344475     IErMin= 1 ErrMin= 1.91D-05
 ErrMax= 1.91D-05  0.00D+00 EMaxC= 1.00D-01 BMatC= 5.29D-08 BMatP= 5.29D-08
 IDIUse=1 WtCom= 1.00D+00 WtEn= 0.00D+00
 Coeff-Com:  0.100D+01
 Coeff:      0.100D+01
 Gap=     0.214 Goal=   None    Shift=    0.000
 RMSDP=7.58D-06 MaxDP=3.27D-04 DE=-7.68D-06 OVMax= 1.62D-04

 Cycle   6  Pass 1  IDiag  1:
 E= -188.088389289546     Delta-E=        0.000000054929 Rises=F Damp=F
 DIIS: error= 2.42D-05 at cycle   2 NSaved=   2.
 NSaved= 2 IEnMin= 1 EnMin= -188.088389344475     IErMin= 1 ErrMin= 1.91D-05
 ErrMax= 2.42D-05  0.00D+00 EMaxC= 1.00D-01 BMatC= 1.13D-07 BMatP= 5.29D-08
 IDIUse=1 WtCom= 1.00D+00 WtEn= 0.00D+00
 Coeff-Com:  0.600D+00 0.400D+00
 Coeff:      0.600D+00 0.400D+00
 Gap=     0.214 Goal=   None    Shift=    0.000
 RMSDP=2.02D-06 MaxDP=8.55D-05 DE= 5.49D-08 OVMax= 1.48D-04

 Cycle   7  Pass 1  IDiag  1:
 E= -188.088389386385     Delta-E=       -0.000000096839 Rises=F Damp=F
 DIIS: error= 5.22D-06 at cycle   3 NSaved=   3.
 NSaved= 3 IEnMin= 3 EnMin= -188.088389386385     IErMin= 3 ErrMin= 5.22D-06
 ErrMax= 5.22D-06  0.00D+00 EMaxC= 1.00D-01 BMatC= 5.01D-09 BMatP= 5.29D-08
 IDIUse=1 WtCom= 1.00D+00 WtEn= 0.00D+00
 Coeff-Com:  0.234D+00 0.217D+00 0.548D+00
 Coeff:      0.234D+00 0.217D+00 0.548D+00
 Gap=     0.214 Goal=   None    Shift=    0.000
 RMSDP=6.84D-07 MaxDP=2.41D-05 DE=-9.68D-08 OVMax= 4.80D-05

 Cycle   8  Pass 1  IDiag  1:
 E= -188.088389390106     Delta-E=       -0.000000003721 Rises=F Damp=F
 DIIS: error= 2.93D-06 at cycle   4 NSaved=   4.
 NSaved= 4 IEnMin= 4 EnMin= -188.088389390106     IErMin= 4 ErrMin= 2.93D-06
 ErrMax= 2.93D-06  0.00D+00 EMaxC= 1.00D-01 BMatC= 8.70D-10 BMatP= 5.01D-09
 IDIUse=1 WtCom= 1.00D+00 WtEn= 0.00D+00
 Coeff-Com:  0.295D-02 0.417D-01 0.328D+00 0.627D+00
 Coeff:      0.295D-02 0.417D-01 0.328D+00 0.627D+00
 Gap=     0.214 Goal=   None    Shift=    0.000
 RMSDP=2.27D-07 MaxDP=6.60D-06 DE=-3.72D-09 OVMax= 1.54D-05

 Cycle   9  Pass 1  IDiag  1:
 E= -188.088389390973     Delta-E=       -0.000000000867 Rises=F Damp=F
 DIIS: error= 3.07D-07 at cycle   5 NSaved=   5.
 NSaved= 5 IEnMin= 5 EnMin= -188.088389390973     IErMin= 5 ErrMin= 3.07D-07
 ErrMax= 3.07D-07  0.00D+00 EMaxC= 1.00D-01 BMatC= 1.42D-11 BMatP= 8.70D-10
 IDIUse=1 WtCom= 1.00D+00 WtEn= 0.00D+00
 Coeff-Com: -0.573D-02 0.110D-01 0.105D+00 0.247D+00 0.643D+00
 Coeff:     -0.573D-02 0.110D-01 0.105D+00 0.247D+00 0.643D+00
 Gap=     0.214 Goal=   None    Shift=    0.000
 RMSDP=3.24D-08 MaxDP=6.52D-07 DE=-8.67D-10 OVMax= 1.36D-06

 Cycle  10  Pass 1  IDiag  1:
 E= -188.088389390985     Delta-E=       -0.000000000012 Rises=F Damp=F
 DIIS: error= 4.65D-08 at cycle   6 NSaved=   6.
 NSaved= 6 IEnMin= 6 EnMin= -188.088389390985     IErMin= 6 ErrMin= 4.65D-08
 ErrMax= 4.65D-08  0.00D+00 EMaxC= 1.00D-01 BMatC= 4.42D-13 BMatP= 1.42D-11
 IDIUse=1 WtCom= 1.00D+00 WtEn= 0.00D+00
 Coeff-Com: -0.203D-02 0.278D-02 0.246D-01 0.675D-01 0.229D+00 0.678D+00
 Coeff:     -0.203D-02 0.278D-02 0.246D-01 0.675D-01 0.229D+00 0.678D+00
 Gap=     0.214 Goal=   None    Shift=    0.000
 RMSDP=6.54D-09 MaxDP=1.70D-07 DE=-1.24D-11 OVMax= 2.18D-07

 SCF Done:  E(RB3LYP) =  -188.088389391     A.U. after   10 cycles
            NFock= 10  Conv=0.65D-08     -V/T= 2.0076
 KE= 1.866706698855D+02 PE=-6.506058643265D+02 EE= 1.693993580051D+02
 Leave Link  502 at Fri Aug 26 13:52:32 2022, MaxMem= 24159191040 cpu:        40.3
 (Enter /public/home/users/caep010/software/Gaussian09/g09/l701.exe)
 Compute integral first derivatives.
 ... and contract with generalized density number  0.
 Leave Link  701 at Fri Aug 26 13:52:32 2022, MaxMem= 24159191040 cpu:        14.3
 (Enter /public/home/users/caep010/software/Gaussian09/g09/l702.exe)
 L702 exits ... SP integral derivatives will be done elsewhere.
 Leave Link  702 at Fri Aug 26 13:52:32 2022, MaxMem= 24159191040 cpu:         0.6
 (Enter /public/home/users/caep010/software/Gaussian09/g09/l703.exe)
 Compute integral first derivatives, UseDBF=F ICtDFT=           0.
 Integral derivatives from FoFJK, PRISM(SPDF).
 Calling FoFJK, ICntrl=      2127 FMM=F ISym2X=0 I1Cent= 0 IOpClX= 0 NMat=1 NMatS=1 NMatT=0.
 FoFJK:  IHMeth= 1 ICntrl=    2127 DoSepK=F KAlg= 0 I1Cent=   0 FoldK=F
 IRaf=         0 NMat=   1 IRICut=       1 DoRegI=T DoRafI=F ISym2E= 0.
 FoFCou: FMM=F IPFlag=           0 FMFlag=      100000 FMFlg1=         800
         NFxFlg=           0 DoJE=F BraDBF=F KetDBF=F FulRan=T
         wScrn=  0.000000 ICntrl=    2127 IOpCl=  0 I1Cent=           0 NGrid=           0
         NMat0=    1 NMatS0=      1 NMatT0=    0 NMatD0=    1 NMtDS0=    0 NMtDT0=    0
 Symmetry not used in FoFCou.
 Leave Link  703 at Fri Aug 26 13:52:33 2022, MaxMem= 24159191040 cpu:        19.8
 (Enter /public/home/users/caep010/software/Gaussian09/g09/l716.exe)
 Dipole        =-1.07797925D+00 2.07378998D-01-2.79451738D-06
 ***** Axes restored to original set *****
 -------------------------------------------------------------------
 Center     Atomic                   Forces (Hartrees/Bohr)
 Number     Number              X              Y              Z
 -------------------------------------------------------------------
      1        6           0.001352017   -0.000731511    0.000557058
      2        7          -0.000666906   -0.000041430    0.000148526
      3        6           0.001293788    0.000565833   -0.000802425
      4        7          -0.001349690    0.000276711   -0.000076615
      5        1          -0.000344508    0.000102199   -0.000054296
      6        1          -0.000291493    0.000344707   -0.000315994
      7        1          -0.000295705    0.000031281    0.000017777
      8        1           0.000302496   -0.000547789    0.000525969
 -------------------------------------------------------------------
 Cartesian Forces:  Max     0.001352017 RMS     0.000608161
 Leave Link  716 at Fri Aug 26 13:52:33 2022, MaxMem= 24159191040 cpu:         0.6
 (Enter /public/home/users/caep010/software/Gaussian09/g09/l103.exe)

 GradGradGradGradGradGradGradGradGradGradGradGradGradGradGradGradGradGrad
 Berny optimization.
 Using GEDIIS/GDIIS optimizer.
 FormGI is forming the generalized inverse of G from B-inverse, IUseBI=4.
 Internal  Forces:  Max     0.000928134 RMS     0.000424566
 Search for a local minimum.
 Step number   3 out of a maximum of   32
 All quantities printed in internal units (Hartrees-Bohrs-Radians)
 RMS Force = .42457D-03 SwitMx=.10000D-02 MixMth= 2
 Mixed Optimization -- En-DIIS/RFO-DIIS
 Update second derivatives using D2CorX and points    1    2    3
 DE= -3.02D-04 DEPred=-2.97D-04 R= 1.02D+00
 TightC=F SS=  1.41D+00  RLast= 4.71D-02 DXNew= 8.4853D-01 1.4131D-01
 Trust test= 1.02D+00 RLast= 4.71D-02 DXMaxT set to 5.05D-01
 ITU=  1  1  0
 Use linear search instead of GDIIS.
     Eigenvalues ---    0.01262   0.01301   0.02225   0.03085   0.03116
     Eigenvalues ---    0.13603   0.16000   0.16093   0.17406   0.22379
     Eigenvalues ---    0.25719   0.35044   0.35655   0.35852   0.40698
     Eigenvalues ---    0.41424   0.68262   0.81148
 RFO step:  Lambda=-1.35216186D-05 EMin= 1.26230763D-02
 Quartic linear search produced a step of  0.02458.
 Iteration  1 RMS(Cart)=  0.00192800 RMS(Int)=  0.00000305
 Iteration  2 RMS(Cart)=  0.00000344 RMS(Int)=  0.00000007
 Iteration  3 RMS(Cart)=  0.00000000 RMS(Int)=  0.00000007
 ITry= 1 IFail=0 DXMaxC= 4.87D-03 DCOld= 1.00D+10 DXMaxT= 5.05D-01 DXLimC= 3.00D+00 Rises=F
 Variable       Old X    -DE/DX   Delta X   Delta X   Delta X     New X
                                 (Linear)    (Quad)   (Total)
    R1        2.40322  -0.00079   0.00006  -0.00128  -0.00121   2.40201
    R2        2.07561   0.00019   0.00005   0.00059   0.00063   2.07624
    R3        2.05865  -0.00009   0.00010  -0.00025  -0.00015   2.05850
    R4        2.66936   0.00029   0.00012   0.00063   0.00075   2.67011
    R5        2.39344  -0.00093   0.00034  -0.00156  -0.00122   2.39222
    R6        2.07584   0.00010   0.00022   0.00027   0.00049   2.07633
    R7        1.93584   0.00079   0.00030   0.00182   0.00212   1.93796
    A1        2.15371   0.00006   0.00001   0.00046   0.00046   2.15417
    A2        2.08137   0.00053   0.00035   0.00326   0.00362   2.08498
    A3        2.04811  -0.00059  -0.00036  -0.00372  -0.00408   2.04403
    A4        2.03182  -0.00029   0.00008  -0.00141  -0.00133   2.03049
    A5        2.16619  -0.00067   0.00028  -0.00304  -0.00276   2.16342
    A6        2.04112   0.00004  -0.00072  -0.00025  -0.00097   2.04015
    A7        2.07588   0.00063   0.00044   0.00329   0.00373   2.07961
    A8        1.89743   0.00041  -0.00005   0.00207   0.00202   1.89946
    D1       -0.00002   0.00000  -0.00000   0.00004   0.00004   0.00002
    D2       -3.14158  -0.00000   0.00000  -0.00006  -0.00006   3.14155
    D3       -3.14156  -0.00000   0.00000  -0.00010  -0.00010   3.14153
    D4       -3.14155  -0.00000   0.00000  -0.00011  -0.00011   3.14152
    D5       -0.00003   0.00000  -0.00000   0.00010   0.00010   0.00007
    D6       -0.00002   0.00000  -0.00000   0.00008   0.00008   0.00006
    D7       -3.14154  -0.00000   0.00000  -0.00014  -0.00013   3.14151
         Item               Value     Threshold  Converged?
 Maximum Force            0.000928     0.000450     NO 
 RMS     Force            0.000425     0.000300     NO 
 Maximum Displacement     0.004869     0.001800     NO 
 RMS     Displacement     0.001929     0.001200     NO 
 Predicted change in Energy=-6.920406D-06
 Lowest energy point so far.  Saving SCF results.
 GradGradGradGradGradGradGradGradGradGradGradGradGradGradGradGradGradGrad

 Leave Link  103 at Fri Aug 26 13:52:33 2022, MaxMem= 24159191040 cpu:         1.1
 (Enter /public/home/users/caep010/software/Gaussian09/g09/l202.exe)
                          Input orientation:                          
 ---------------------------------------------------------------------
 Center     Atomic      Atomic             Coordinates (Angstroms)
 Number     Number       Type             X           Y           Z
 ---------------------------------------------------------------------
      1          6           0       -1.395750    0.088195    0.257963
      2          7           0       -0.203487   -0.296265    0.473286
      3          6           0        0.801967    0.308051   -0.314318
      4          7           0        2.034214    0.033786   -0.220145
      5          1           0       -1.661142    0.846170   -0.491827
      6          1           0       -2.210945   -0.344451    0.836643
      7          1           0        0.475200    1.058871   -1.046940
      8          1           0        2.159943   -0.680057    0.505337
 ---------------------------------------------------------------------
                    Distance matrix (angstroms):
                    1          2          3          4          5
     1  C    0.000000
     2  N    1.271087   0.000000
     3  C    2.281622   1.412961   0.000000
     4  N    3.463553   2.365817   1.265908   0.000000
     5  H    1.098701   2.088386   2.527446   3.793340   0.000000
     6  H    1.089311   2.040646   3.290610   4.391041   1.866734
     7  H    2.478999   2.146648   1.098746   2.040813   2.217509
     8  H    3.646143   2.394604   1.868767   1.025526   4.233721
                    6          7          8
     6  H    0.000000
     7  H    3.568273   0.000000
     8  H    4.396255   2.876073   0.000000
 Stoichiometry    C2H4N2
 Framework group  C1[X(C2H4N2)]
 Deg. of freedom    18
 Full point group                 C1      NOp   1
 RotChk:  IX=0 Diff= 1.99D-04
 Largest Abelian subgroup         C1      NOp   1
 Largest concise Abelian subgroup C1      NOp   1
                         Standard orientation:                         
 ---------------------------------------------------------------------
 Center     Atomic      Atomic             Coordinates (Angstroms)
 Number     Number       Type             X           Y           Z
 ---------------------------------------------------------------------
      1          6           0       -1.676032    0.069957    0.000016
      2          7           0       -0.534938   -0.490014   -0.000008
      3          6           0        0.585697    0.370587   -0.000032
      4          7           0        1.786032   -0.031555    0.000015
      5          1           0       -1.815376    1.159785   -0.000002
      6          1           0       -2.574830   -0.545478   -0.000006
      7          1           0        0.382998    1.450474    0.000039
      8          1           0        1.791557   -1.057066    0.000015
 ---------------------------------------------------------------------
 Rotational constants (GHZ):     50.9468428      5.0615017      4.6040913
 Leave Link  202 at Fri Aug 26 13:52:33 2022, MaxMem= 24159191040 cpu:         0.2
 (Enter /public/home/users/caep010/software/Gaussian09/g09/l301.exe)
 Standard basis: GTBas3 (6D, 7F)
 Ernie: Thresh=  0.10000D-02 Tol=  0.10000D-05 Strict=F.
 There are   144 symmetry adapted cartesian basis functions of A   symmetry.
 There are   132 symmetry adapted basis functions of A   symmetry.
   132 basis functions,   204 primitive gaussians,   144 cartesian basis functions
    15 alpha electrons       15 beta electrons
       nuclear repulsion energy       106.4730447837 Hartrees.
 IExCor=  402 DFT=T Ex+Corr=B3LYP ExCW=0 ScaHFX=  0.200000
 ScaDFX=  0.800000  0.720000  1.000000  0.810000 ScalE2=  1.000000  1.000000
 IRadAn=      0 IRanWt=     -1 IRanGd=            0 ICorTp=0 IEmpDi=  4
 NAtoms=    8 NActive=    8 NUniq=    8 SFac= 1.00D+00 NAtFMM=   60 NAOKFM=F Big=F
 Integral buffers will be    131072 words long.
 Raffenetti 2 integral format.
 Two-electron integral symmetry is turned on.
 Leave Link  301 at Fri Aug 26 13:52:33 2022, MaxMem= 24159191040 cpu:         1.7
 (Enter /public/home/users/caep010/software/Gaussian09/g09/l302.exe)
 NPDir=0 NMtPBC=     1 NCelOv=     1 NCel=       1 NClECP=     1 NCelD=      1
         NCelK=      1 NCelE2=     1 NClLst=     1 CellRange=     0.0.
 One-electron integrals computed using PRISM.
 NBasis=   132 RedAO= T EigKep=  3.23D-04  NBF=   132
[...]
                 (A) (A) (A) (A) (A) (A) (A) (A) (A) (A) (A) (A)
                 (A) (A) (A) (A) (A) (A) (A) (A) (A) (A) (A) (A)
                 (A) (A) (A) (A) (A) (A) (A) (A) (A) (A) (A) (A)
                 (A) (A) (A) (A) (A) (A) (A) (A) (A) (A) (A) (A)
                 (A) (A) (A) (A) (A) (A) (A) (A) (A) (A) (A) (A)
                 (A) (A) (A) (A) (A) (A) (A) (A) (A) (A) (A) (A)
                 (A) (A) (A) (A) (A) (A) (A) (A) (A) (A) (A) (A)
                 (A) (A) (A) (A) (A) (A) (A) (A) (A) (A) (A) (A)
                 (A) (A) (A) (A) (A) (A) (A) (A) (A) (A) (A) (A)
                 (A) (A) (A) (A) (A) (A) (A) (A) (A) (A) (A) (A)
                 (A) (A) (A) (A) (A) (A) (A) (A) (A) (A) (A) (A)
                 (A) (A) (A) (A) (A) (A) (A) (A) (A) (A) (A) (A)
                 (A) (A) (A) (A) (A) (A) (A) (A) (A) (A) (A) (A)
                 (A) (A) (A) (A) (A) (A) (A) (A) (A) (A) (A) (A)
                 (A) (A) (A) (A) (A) (A) (A) (A) (A) (A) (A) (A)
                 (A) (A) (A) (A) (A) (A) (A) (A) (A) (A) (A) (A)
                 (A) (A) (A) (A) (A) (A) (A) (A) (A) (A) (A) (A)
                 (A) (A) (A) (A) (A) (A) (A) (A) (A) (A) (A) (A)
                 (A) (A) (A) (A) (A) (A) (A) (A) (A) (A) (A) (A)
                 (A) (A) (A) (A) (A) (A) (A) (A) (A) (A) (A) (A)
                 (A) (A) (A) (A) (A) (A) (A) (A) (A) (A) (A) (A)
                 (A) (A) (A) (A) (A) (A) (A) (A) (A) (A) (A) (A)
                 (A) (A) (A) (A) (A) (A) (A) (A) (A) (A) (A) (A)
                 (A) (A) (A) (A) (A) (A) (A) (A) (A) (A) (A) (A)
                 (A) (A) (A) (A) (A) (A) (A) (A) (A) (A) (A) (A)
                 (A) (A) (A) (A) (A) (A) (A) (A) (A) (A) (A) (A)
                 (A) (A) (A) (A) (A) (A) (A) (A) (A) (A) (A) (A)
                 (A) (A) (A) (A) (A) (A) (A) (A) (A) (A) (A) (A)
                 (A) (A) (A) (A) (A) (A) (A) (A) (A) (A) (A) (A)
                 (A) (A) (A) (A) (A) (A) (A) (A) (A) (A) (A) (A)
                 (A) (A) (A) (A) (A) (A) (A) (A) (A) (A) (A) (A)
                 (A) (A) (A) (A) (A) (A) (A) (A) (A) (A) (A) (A)
                 (A) (A) (A) (A) (A) (A) (A) (A) (A) (A) (A) (A)
                 (A) (A) (A) (A) (A) (A) (A) (A) (A) (A) (A) (A)
                 (A) (A) (A) (A) (A) (A) (A) (A) (A) (A) (A) (A)
                 (A) (A) (A) (A) (A)
 The electronic state is 1-A.
 Alpha  occ. eigenvalues --  -15.59040 -15.55365 -11.31225 -11.31137  -1.28391
 Alpha  occ. eigenvalues --   -1.18648  -0.90371  -0.80733  -0.70759  -0.66987
 Alpha  occ. eigenvalues --   -0.59577  -0.53614  -0.46406  -0.43412  -0.40659
 Alpha virt. eigenvalues --    0.03271   0.04560   0.04601   0.05608   0.06662
 Alpha virt. eigenvalues --    0.07582   0.08069   0.09470   0.11721   0.12359
 Alpha virt. eigenvalues --    0.13131   0.14101   0.15280   0.15613   0.17204
 Alpha virt. eigenvalues --    0.17642   0.19126   0.20336   0.21287   0.22905
 Alpha virt. eigenvalues --    0.23740   0.26315   0.28346   0.32189   0.32986
 Alpha virt. eigenvalues --    0.34105   0.36470   0.37526   0.39885   0.41532
 Alpha virt. eigenvalues --    0.44296   0.44969   0.45890   0.46813   0.48223
 Alpha virt. eigenvalues --    0.49446   0.50312   0.50813   0.51948   0.53238
 Alpha virt. eigenvalues --    0.55953   0.57038   0.58732   0.63489   0.66057
 Alpha virt. eigenvalues --    0.66326   0.68518   0.70390   0.70775   0.78604
 Alpha virt. eigenvalues --    0.79699   0.81426   0.83869   0.85185   0.86691
 Alpha virt. eigenvalues --    0.89198   0.91828   0.93799   0.94662   0.95477
 Alpha virt. eigenvalues --    0.98317   0.98812   0.99485   1.00893   1.01085
 Alpha virt. eigenvalues --    1.05667   1.08475   1.11057   1.12020   1.13246
 Alpha virt. eigenvalues --    1.13480   1.14479   1.17083   1.19645   1.19861
 Alpha virt. eigenvalues --    1.23415   1.25447   1.26505   1.29228   1.31936
 Alpha virt. eigenvalues --    1.34152   1.37824   1.41376   1.41812   1.44027
 Alpha virt. eigenvalues --    1.45767   1.48433   1.51806   1.51968   1.53761
 Alpha virt. eigenvalues --    1.57927   1.60217   1.62693   1.64586   1.66039
 Alpha virt. eigenvalues --    1.68878   1.69434   1.73344   1.73835   1.78640
 Alpha virt. eigenvalues --    1.79564   1.79637   1.83286   1.85950   1.88341
 Alpha virt. eigenvalues --    1.90508   1.91193   1.95047   1.98224   1.99123
 Alpha virt. eigenvalues --    2.04617   2.08481   2.18863   2.20277   2.22824
 Alpha virt. eigenvalues --    2.23572   2.24948   2.31730   2.35697   2.35763
 Alpha virt. eigenvalues --    2.41028   2.45396   2.47704   2.49445   2.50745
 Alpha virt. eigenvalues --    2.52863   2.54046   2.54381   2.54511   2.59683
 Alpha virt. eigenvalues --    2.59728   2.62188   2.63880   2.64503   2.67158
 Alpha virt. eigenvalues --    2.69187   2.73176   2.73227   2.74406   2.75629
 Alpha virt. eigenvalues --    2.77547   2.82018   2.82148   2.85155   2.87043
 Alpha virt. eigenvalues --    2.90897   2.91273   2.95893   2.96153   3.03279
 Alpha virt. eigenvalues --    3.05425   3.08720   3.09921   3.11460   3.11600
 Alpha virt. eigenvalues --    3.14946   3.17023   3.22042   3.23436   3.31976
 Alpha virt. eigenvalues --    3.34020   3.35331   3.37439   3.39986   3.39994
 Alpha virt. eigenvalues --    3.40699   3.46849   3.49589   3.53209   3.53295
 Alpha virt. eigenvalues --    3.56331   3.64021   3.65734   3.68443   3.69792
 Alpha virt. eigenvalues --    3.72935   3.73638   3.80068   3.82283   3.82331
 Alpha virt. eigenvalues --    3.87180   3.90470   3.92339   3.93419   3.97715
 Alpha virt. eigenvalues --    3.98373   4.00744   4.01021   4.03236   4.08430
 Alpha virt. eigenvalues --    4.11211   4.13121   4.15011   4.19111   4.19309
 Alpha virt. eigenvalues --    4.20615   4.21230   4.24354   4.27133   4.27949
 Alpha virt. eigenvalues --    4.34859   4.37142   4.38788   4.45068   4.45493
 Alpha virt. eigenvalues --    4.55686   4.61411   4.61917   4.71083   4.78248
 Alpha virt. eigenvalues --    4.80679   4.98784   5.02649   5.02870   5.04112
 Alpha virt. eigenvalues --    5.08093   5.10209   5.10604   5.19033   5.22147
 Alpha virt. eigenvalues --    5.26834   5.28770   5.31482   5.35546   5.40101
 Alpha virt. eigenvalues --    5.45514   5.48874   5.49842   5.52251   5.58515
 Alpha virt. eigenvalues --    5.64195   5.65655   5.72440   5.73637   5.76204
 Alpha virt. eigenvalues --    5.80624   5.85658   5.88664   5.89964   5.93225
 Alpha virt. eigenvalues --    5.97873   6.02227   6.06724   6.11037   6.12536
 Alpha virt. eigenvalues --    6.12549   6.15802   6.22753   6.24784   6.31142
 Alpha virt. eigenvalues --    6.31566   6.33248   6.42749   6.51320   6.58193
 Alpha virt. eigenvalues --    6.60211   6.61016   6.73553   6.80194   6.92291
 Alpha virt. eigenvalues --    6.94233   7.00608   7.06665   7.20570   7.20846
 Alpha virt. eigenvalues --    7.39302   7.47299   7.59428   7.60294   7.63745
 Alpha virt. eigenvalues --    7.76190   7.80912   7.84624   7.88551   7.91447
 Alpha virt. eigenvalues --    7.93445   7.96283   7.96929   8.06030   8.09731
 Alpha virt. eigenvalues --    8.11072   8.16389   8.22717   8.23258   8.36858
 Alpha virt. eigenvalues --    8.39033   8.43475   8.46113   8.50982   8.52802
 Alpha virt. eigenvalues --    8.55926   8.57904   8.61537   8.63170   8.64762
 Alpha virt. eigenvalues --    8.71294   8.74184   8.76422   8.81272   8.83312
 Alpha virt. eigenvalues --    8.88290   8.88976   8.95758   8.99068   9.00382
 Alpha virt. eigenvalues --    9.03591   9.08414   9.11970   9.17615   9.21486
 Alpha virt. eigenvalues --    9.21711   9.23537   9.26210   9.33981   9.38798
 Alpha virt. eigenvalues --    9.45452   9.48012   9.49641   9.52296   9.55480
 Alpha virt. eigenvalues --    9.60300   9.63011   9.67884   9.74738   9.76393
 Alpha virt. eigenvalues --    9.80361   9.89100   9.98205   9.99418  10.01292
 Alpha virt. eigenvalues --   10.01991  10.08170  10.10384  10.10616  10.12347
 Alpha virt. eigenvalues --   10.18861  10.19487  10.24251  10.28739  10.29223
 Alpha virt. eigenvalues --   10.30880  10.32101  10.40302  10.43989  10.48792
 Alpha virt. eigenvalues --   10.51268  10.67648  10.73078  10.75103  10.78163
 Alpha virt. eigenvalues --   10.83688  10.91780  10.95013  10.98158  11.07861
 Alpha virt. eigenvalues --   11.13770  11.15732  11.19935  11.20356  11.28426
 Alpha virt. eigenvalues --   11.29817  11.37863  11.42197  11.48806  11.51201
 Alpha virt. eigenvalues --   11.53549  11.57260  11.67521  11.72499  11.92279
 Alpha virt. eigenvalues --   11.94789  11.97530  12.02522  12.02614  12.03800
 Alpha virt. eigenvalues --   12.13451  12.16479  12.20670  12.20686  12.35997
 Alpha virt. eigenvalues --   12.38038  12.42698  12.53136  12.58329  12.60981
 Alpha virt. eigenvalues --   12.70837  12.72962  12.82936  12.83675  12.89347
 Alpha virt. eigenvalues --   13.00886  13.04623  13.11157  13.22757  13.26584
 Alpha virt. eigenvalues --   13.41820  13.47770  13.51066  13.64354  13.68053
 Alpha virt. eigenvalues --   13.83907  13.89631  13.91354  14.01002  14.19273
 Alpha virt. eigenvalues --   14.25571  14.43021  14.44670  14.49055  14.52655
 Alpha virt. eigenvalues --   14.56210  14.60626  14.64233  14.67439  14.69967
 Alpha virt. eigenvalues --   14.85620  14.90751  14.96100  14.99798  15.01335
 Alpha virt. eigenvalues --   15.09006  15.14156  15.21496  15.22124  15.22988
 Alpha virt. eigenvalues --   15.29516  15.30261  15.35290  15.54087  15.61843
 Alpha virt. eigenvalues --   15.81022  16.06618  16.11848  16.29375  16.41872
 Alpha virt. eigenvalues --   16.55446  16.98758  17.25735  17.26514  17.35689
 Alpha virt. eigenvalues --   17.51241  17.58154  17.73928  17.80897  17.93769
 Alpha virt. eigenvalues --   18.26447  18.27033  18.45634  18.48200  18.65685
 Alpha virt. eigenvalues --   18.73398  18.91311  19.17900  19.84674  19.87879
 Alpha virt. eigenvalues --   20.01715  20.27618  39.79568  40.30899  51.23363
 Alpha virt. eigenvalues --   51.64630
          Condensed to atoms (all electrons):
               1          2          3          4          5          6
     1  C    4.807205   0.602409  -0.052815  -0.006461   0.397514   0.415589
     2  N    0.602409   6.609934   0.294058  -0.050190  -0.018454  -0.045924
     3  C   -0.052815   0.294058   4.564999   0.642723  -0.018617   0.006585
     4  N   -0.006461  -0.050190   0.642723   6.742621  -0.000440  -0.000342
     5  H    0.397514  -0.018454  -0.018617  -0.000440   0.483517  -0.038079
     6  H    0.415589  -0.045924   0.006585  -0.000342  -0.038079   0.434665
     7  H    0.000307  -0.059832   0.405410  -0.049424   0.013228  -0.001864
     8  H    0.003223  -0.019723  -0.024954   0.319978   0.000149  -0.000205
               7          8
     1  C    0.000307   0.003223
     2  N   -0.059832  -0.019723
     3  C    0.405410  -0.024954
     4  N   -0.049424   0.319978
     5  H    0.013228   0.000149
     6  H   -0.001864  -0.000205
     7  H    0.493962   0.011260
     8  H    0.011260   0.412879
 Mulliken charges:
               1
     1  C   -0.166970
     2  N   -0.312278
     3  C    0.182613
     4  N   -0.598465
     5  H    0.181181
     6  H    0.229573
     7  H    0.186953
     8  H    0.297393
 Sum of Mulliken charges =  -0.00000
 Mulliken charges with hydrogens summed into heavy atoms:
               1
     1  C    0.243785
     2  N   -0.312278
     3  C    0.369565
     4  N   -0.301072
 Electronic spatial extent (au):  <R**2>=            283.0595
 Charge=             -0.0000 electrons
 Dipole moment (field-independent basis, Debye):
    X=             -3.5375    Y=              0.8617    Z=              0.0000  Tot=              3.6410
 Quadrupole moment (field-independent basis, Debye-Ang):
   XX=            -24.9019   YY=            -23.0873   ZZ=            -25.5203
   XY=             -3.5302   XZ=              0.0001   YZ=             -0.0000
 Traceless Quadrupole moment (field-independent basis, Debye-Ang):
   XX=             -0.3987   YY=              1.4158   ZZ=             -1.0171
   XY=             -3.5302   XZ=              0.0001   YZ=             -0.0000
 Octapole moment (field-independent basis, Debye-Ang**2):
  XXX=            -27.1103  YYY=              2.0589  ZZZ=             -0.0001  XYY=              1.7905
  XXY=             -7.1655  XXZ=              0.0003  XZZ=             -0.5874  YZZ=             -0.1639
  YYZ=             -0.0003  XYZ=              0.0001
 Hexadecapole moment (field-independent basis, Debye-Ang**3):
 XXXX=           -305.6942 YYYY=            -54.9447 ZZZZ=            -26.8464 XXXY=            -11.0988
 XXXZ=             -0.0005 YYYX=             -6.8084 YYYZ=             -0.0003 ZZZX=             -0.0003
 ZZZY=              0.0000 XXYY=            -51.8879 XXZZ=            -57.2117 YYZZ=            -14.8168
 XXYZ=              0.0001 YYXZ=             -0.0003 ZZXY=             -1.2050
 N-N= 1.064606960674D+02 E-N=-6.500999456441D+02  KE= 1.867014590782D+02
 No NMR shielding tensors so no spin-rotation constants.
 Leave Link  601 at Fri Aug 26 13:56:09 2022, MaxMem= 24159191040 cpu:        29.7
 (Enter /public/home/users/caep010/software/Gaussian09/g09/l9999.exe)
 1\1\GINC-B1158\SP\RHF\GFHFB2\C2H4N2\ROOT\26-Aug-2022\0\\#P Geom=AllChe
 ck Guess=TCheck SCRF=Check HF/GFHFB2 SCF=Tight\\Frag_479\\0,1\C,0,-1.3
 95917795,0.0879538211,0.2581680808\N,0,-0.2035693737,-0.2961260571,0.4
 731816384\C,0,0.802776862,0.3082441233,-0.3144676575\N,0,2.0346766667,
 0.0337098729,-0.2201672355\H,0,-1.6624145039,0.8459755349,-0.491401785
 8\H,0,-2.2115671448,-0.3442613097,0.8365437679\H,0,0.4760413525,1.0588
 170834,-1.0470990035\H,0,2.1599739363,-0.6800130687,0.5052421952\\Vers
 ion=ES64L-G09RevE.01\State=1-A\HF=-187.001779\RMSD=7.980e-09\Dipole=-1
 .4138505,0.2294104,-0.0189506\Quadrupole=0.3250383,0.1029857,-0.428024
 ,-1.9479485,1.8645866,-0.5930226\PG=C01 [X(C2H4N2)]\\@


 IT WAS AN ACT OF DESPARATION. FOR SIX YEARS I HAD STRUGGLED WITH THE
 BLACKBODY THEORY. I KNEW THE PROBLEM WAS FUNDAMENTAL, AND I KNEW
 THE ANSWER. I HAD TO FIND A THEORETICAL EXPLANATION AT ANY COST,
 EXCEPT FOR THE INVIOLABLITY OF THE TWO LAWS OF THERMODYNAMICS.
   -- MAX PLANCK, 1931
 Diagonal vibrational polarizability:
        0.0000000       0.0000000       0.0000000

 Temperature=              298.150000 Pressure=                      1.000000
 E(ZPE)=                     0.061317 E(Thermal)=                    0.065695
 E(CCSD(T))=              -187.537370 E(Empiric)=                   -0.076417
 DE(Plus)=                  -0.014176 DE(2DF)=                      -0.141016
 E(Delta-G3XP)=             -0.250016 DE(HF)=                       -0.017589
 G4(0 K)=                 -187.975268 G4 Energy=                  -187.970889
 G4 Enthalpy=             -187.969945 G4 Free Energy=             -188.001616
 1\1\GINC-B1158\Mixed\G4\G4\C2H4N2\ROOT\26-Aug-2022\0\\#P Geom=AllCheck
  Guess=TCheck SCRF=Check HF/GFHFB2 SCF=Tight\\Frag_479\\0,1\C,0,-1.395
 917795,0.0879538211,0.2581680808\N,0,-0.2035693737,-0.2961260571,0.473
 1816384\C,0,0.802776862,0.3082441233,-0.3144676575\N,0,2.0346766667,0.
 0337098729,-0.2201672355\H,0,-1.6624145039,0.8459755349,-0.4914017858\
 H,0,-2.2115671448,-0.3442613097,0.8365437679\H,0,0.4760413525,1.058817
 0834,-1.0470990035\H,0,2.1599739363,-0.6800130687,0.5052421952\\Versio
 n=ES64L-G09RevE.01\State=1-A\MP2/GTBas1=-187.4841727\MP4/GTBas1=-187.5
 369863\CCSD(T)/G3Bas1=-187.5373697\MP2/GTBas2=-187.4980419\MP4/GTBas2=
 -187.5511624\MP2/GTBas3=-187.6174217\MP4/GTBas3=-187.6780021\HF/GTLarg
 eXP=-186.9848755\MP2/GTLargeXP=-187.881307\HF/GFHFB1=-186.9989642\HF/G
 FHFB2=-187.001779\G4=-187.9752676\FreqCoord=-2.6379023366,0.1662086342
 ,0.487866969,-0.3846903654,-0.5595971487,0.8941837077,1.5170284149,0.5
 82496975,-0.5942577504,3.8449816691,0.0637024278,-0.4160557785,-3.1415
 081317,1.598662076,-0.9286147964,-4.1792562282,-0.6505595934,1.5808386
 195,0.8995877842,2.0008743124,-1.9787303506,4.0817591938,-1.2850384667
 ,0.9547693797\PG=C01 [X(C2H4N2)]\NImag=0\\0.88625235,-0.08783530,0.389
 18931,-0.02486198,-0.24761165,0.40115738,-0.55313193,0.16089943,-0.089
 57990,0.79021191,0.13059017,-0.12552663,0.05795174,-0.11364940,0.22088
 699,-0.05795041,0.05322740,-0.09702159,0.00666814,-0.13759378,0.214661
 90,-0.08487047,-0.01106626,0.02515667,-0.10967023,-0.01869389,0.024524
 27,0.86753585,0.01268607,0.00319152,-0.00278376,-0.05898060,-0.1237600
 1,0.05750106,-0.16163821,0.41231265,0.00036817,0.00091711,0.00140319,0
 .06657705,0.05122507,-0.14131733,0.06040483,-0.22439040,0.39799437,0.0
 0871737,-0.00667883,0.00589958,-0.07874925,-0.00034133,0.01819332,-0.5
 8450642,0.11482312,-0.03815360,0.71238565,-0.00489756,0.00053540,0.002
 12344,-0.01130720,0.02851835,0.00913873,0.15004135,-0.12140317,0.03971
 476,-0.16221347,0.31104753,0.00403786,0.00240299,-0.00129794,0.0296342
 6,0.00742697,0.02320825,-0.07490336,0.04520987,-0.09642595,0.06877812,
 -0.22830478,0.29562957,-0.07132646,0.02946260,-0.02745061,-0.01371343,
 0.02858657,-0.02318159,0.00242708,0.00435028,-0.00670678,0.00010461,-0
 .00090979,0.00106740,0.07509098,0.03163222,-0.16860085,0.11865904,0.01
 520015,0.00599965,0.02160515,-0.00598600,-0.00440344,-0.00643681,0.000
 48358,0.00087045,-0.00008733,-0.04657488,0.16714911,-0.02971419,0.1189
 9355,-0.16974066,-0.00921110,0.01952006,0.01003296,0.00408082,-0.00804
 950,-0.00369974,-0.00038652,0.00013016,0.00078383,0.04047985,-0.143229
 27,0.16613033,-0.19034645,-0.07949301,0.10603473,-0.03582850,-0.010092
 75,0.01540631,-0.00036484,0.00390313,-0.00129620,-0.00188510,-0.001164
 33,0.00092507,0.00668265,0.00412692,-0.00401255,0.22138412,-0.08373567
 ,-0.09953141,0.07257976,0.01005908,0.00558560,-0.01217191,0.00271364,0
 .00857002,0.00884094,0.00034391,-0.00142427,-0.00247981,-0.01312875,-0
 .00153577,0.01259856,0.08329827,0.08781926,0.11046775,0.07192131,-0.13
 480665,-0.00562870,-0.00903085,0.00572990,-0.00005474,0.00865484,0.008
 41901,-0.00065122,-0.00224403,-0.00130431,0.01399677,0.00990601,-0.003
 95020,-0.11764164,-0.07900385,0.12538849,0.00551390,-0.00535348,0.0047
 2120,-0.00429018,-0.01581275,0.01893112,-0.06806138,0.04478536,-0.0440
 4830,-0.01891530,0.02629907,-0.02481164,0.00026922,0.00173090,-0.00182
 688,-0.00010280,0.00052530,-0.00066516,0.08974168,0.00279395,0.0003153
 3,-0.00081121,0.00138892,-0.00562848,0.01742106,0.04574474,-0.16567733
 ,0.11290263,0.00702940,-0.00532849,0.00238878,-0.00144533,0.00066906,-
 0.00032824,-0.00073783,-0.00005331,-0.00071906,-0.05631874,0.16796453,
 -0.00378300,0.00045923,0.00006616,0.00097392,0.02009945,-0.00986448,-0
 .04505372,0.11306226,-0.16169739,-0.00469323,-0.00061908,-0.00061166,0
 .00148864,-0.00082393,0.00076594,0.00065335,-0.00091614,0.00000196,0.0
 4903920,-0.13817933,0.16378925,-0.00080831,0.00006485,0.00008032,0.005
 17162,-0.00058662,-0.00259115,-0.02248960,0.04007086,-0.03714515,-0.03
 715157,0.00415193,-0.00472771,0.00046535,-0.00061289,0.00059057,0.0004
 6092,-0.00007578,0.00017694,-0.00415514,0.00154489,0.00137486,0.058506
 73,-0.00123389,0.00042734,-0.00010737,-0.00361038,-0.00607547,-0.00912
 770,-0.00111537,-0.00883024,0.01722669,0.04655362,-0.21281580,0.173443
 32,-0.00034069,-0.00014821,0.00036468,0.00015960,0.00056988,0.00051563
 ,0.00414435,0.00773869,0.00691753,-0.04455724,0.21913381,0.00143580,-0
 .00030995,0.00024010,0.00056635,-0.00959867,-0.00542961,0.00584523,0.0
 1079563,-0.00467616,-0.04898645,0.18006081,-0.21998178,0.00030634,0.00
 040714,-0.00032245,-0.00006905,0.00055245,0.00052182,-0.00133954,0.007
 32537,0.00755022,0.04224132,-0.18923279,0.22209786\\-0.00013801,-0.000
 03774,0.00004528,0.00011408,0.00004780,-0.00007888,0.00002578,-0.00005
 160,0.00009229,0.00000441,0.00006832,-0.00008516,0.00001364,-0.0000077
 7,0.00000963,-0.00000482,0.00002475,-0.00001685,-0.00001398,0.00001805
 ,-0.00003079,-0.00000110,-0.00006180,0.00006448\\\@
 Job cpu time:       0 days  0 hours 18 minutes  4.9 seconds.
 File lengths (MBytes):  RWF=    708 Int=      0 D2E=      0 Chk=     14 Scr=      1
 Normal termination of Gaussian 09 at Fri Aug 26 13:56:10 2022.
