 Entering Gaussian System, Link 0=g09
 Input=G4.Frag_1015.gjf
 Output=G4.Frag_1015.log
 Initial command:
 /public/home/users/caep010/software/Gaussian09/g09/l1.exe "/public/home/users/caep010/.cache/gau_scr/Gau-197495.inp" -scrdir="/public/home/users/caep010/.cache/gau_scr/"
 Entering Link 1 = /public/home/users/caep010/software/Gaussian09/g09/l1.exe PID=    197496.
  
 Copyright (c) 1988,1990,1992,1993,1995,1998,2003,2009,2015,
            Gaussian, Inc.  All Rights Reserved.
  
 This is part of the Gaussian(R) 09 program.  It is based on
 the Gaussian(R) 03 system (copyright 2003, Gaussian, Inc.),
 the Gaussian(R) 98 system (copyright 1998, Gaussian, Inc.),
 the Gaussian(R) 94 system (copyright 1995, Gaussian, Inc.),
 the Gaussian 92(TM) system (copyright 1992, Gaussian, Inc.),
 the Gaussian 90(TM) system (copyright 1990, Gaussian, Inc.),
 the Gaussian 88(TM) system (copyright 1988, Gaussian, Inc.),
 the Gaussian 86(TM) system (copyright 1986, Carnegie Mellon
 University), and the Gaussian 82(TM) system (copyright 1983,
 Carnegie Mellon University). Gaussian is a federally registered
 trademark of Gaussian, Inc.
  
 This software contains proprietary and confidential information,
 including trade secrets, belonging to Gaussian, Inc.
  
 This software is provided under written license and may be
 used, copied, transmitted, or stored only in accord with that
 written license.
  
 The following legend is applicable only to US Government
 contracts under FAR:
  
                    RESTRICTED RIGHTS LEGEND
  
 Use, reproduction and disclosure by the US Government is
 subject to restrictions as set forth in subparagraphs (a)
 and (c) of the Commercial Computer Software - Restricted
 Rights clause in FAR 52.227-19.
  
 Gaussian, Inc.
 340 Quinnipiac St., Bldg. 40, Wallingford CT 06492
  
  
 ---------------------------------------------------------------
 Warning -- This program may not be used in any manner that
 competes with the business of Gaussian, Inc. or will provide
 assistance to any competitor of Gaussian, Inc.  The licensee
 of this program is prohibited from giving any competitor of
 Gaussian, Inc. access to this program.  By using this program,
 the user acknowledges that Gaussian, Inc. is engaged in the
 business of creating and licensing software in the field of
 computational chemistry and represents and warrants to the
 licensee that it is not a competitor of Gaussian, Inc. and that
 it will not use this program in any manner prohibited above.
 ---------------------------------------------------------------
  

 Cite this work as:
 Gaussian 09, Revision E.01,
 M. J. Frisch, G. W. Trucks, H. B. Schlegel, G. E. Scuseria, 
 M. A. Robb, J. R. Cheeseman, G. Scalmani, V. Barone, B. Mennucci, 
 G. A. Petersson, H. Nakatsuji, M. Caricato, X. Li, H. P. Hratchian, 
 A. F. Izmaylov, J. Bloino, G. Zheng, J. L. Sonnenberg, M. Hada, 
 M. Ehara, K. Toyota, R. Fukuda, J. Hasegawa, M. Ishida, T. Nakajima, 
 Y. Honda, O. Kitao, H. Nakai, T. Vreven, J. A. Montgomery, Jr., 
 J. E. Peralta, F. Ogliaro, M. Bearpark, J. J. Heyd, E. Brothers, 
 K. N. Kudin, V. N. Staroverov, T. Keith, R. Kobayashi, J. Normand, 
 K. Raghavachari, A. Rendell, J. C. Burant, S. S. Iyengar, J. Tomasi, 
 M. Cossi, N. Rega, J. M. Millam, M. Klene, J. E. Knox, J. B. Cross, 
 V. Bakken, C. Adamo, J. Jaramillo, R. Gomperts, R. E. Stratmann, 
 O. Yazyev, A. J. Austin, R. Cammi, C. Pomelli, J. W. Ochterski, 
 R. L. Martin, K. Morokuma, V. G. Zakrzewski, G. A. Voth, 
 P. Salvador, J. J. Dannenberg, S. Dapprich, A. D. Daniels, 
 O. Farkas, J. B. Foresman, J. V. Ortiz, J. Cioslowski, 
 and D. J. Fox, Gaussian, Inc., Wallingford CT, 2013.
 
 ******************************************
 Gaussian 09:  ES64L-G09RevE.01 30-Nov-2015
                23-Aug-2022 
 ******************************************
 %nproc=32
 Will use up to   32 processors via shared memory.
 %mem=180MB
 %chk=G4.Frag_1015.chk
 -----
 #P G4
 -----
 1/14=-1,18=20,19=15,26=3,38=1/1,3;
 2/9=110,12=2,17=6,18=5,40=1/2;
 3/5=35,7=104,11=2,16=1,25=1,30=1,71=1,74=-5/1,2,3;
 4//1;
 5/5=2,38=5/2;
 6/7=2,8=2,9=2,10=2,28=1/1;
 7//1,2,3,16;
 1/14=-1,18=20,19=15,26=3/3(2);
 2/9=110/2;
 99//99;
 2/9=110/2;
 3/5=35,7=104,11=2,16=1,25=1,30=1,71=1,74=-5/1,2,3;
 4/5=5,16=3,69=1/1;
 5/5=2,38=5/2;
 7//1,2,3,16;
 1/14=-1,18=20,19=15,26=3/3(-5);
 2/9=110/2;
 6/7=2,8=2,9=2,10=2,19=2,28=1/1;
 99/9=1/99;
 Leave Link    1 at Tue Aug 23 17:59:27 2022, MaxMem=    23592960 cpu:         3.0
 (Enter /public/home/users/caep010/software/Gaussian09/g09/l101.exe)
 ---------
 Frag_1015
 ---------
 Symbolic Z-matrix:
 Charge =  0 Multiplicity = 1
 C                    -1.5305    0.0254    0.0476 
 C                    -0.2534    0.3876   -0.069 
 N                     0.8182   -0.5671   -0.0245 
 N                     2.1453   -0.1369   -0.1517 
 O                     0.5877   -1.7851    0.127 
 H                    -1.8145   -1.0102    0.1816 
 H                    -2.3096    0.7756    0.0088 
 H                    -0.0225    1.4376   -0.2015 
 H                     2.3793    0.873    -0.2798 
 
 NAtoms=      9 NQM=        9 NQMF=       0 NMMI=      0 NMMIF=      0
                NMic=       0 NMicF=      0.
                    Isotopes and Nuclear Properties:
 (Nuclear quadrupole moments (NQMom) in fm**2, nuclear magnetic moments (NMagM)
  in nuclear magnetons)

  Atom         1           2           3           4           5           6           7           8           9
 IAtWgt=          12          12          14          14          16           1           1           1           1
 AtmWgt=  12.0000000  12.0000000  14.0030740  14.0030740  15.9949146   1.0078250   1.0078250   1.0078250   1.0078250
 NucSpn=           0           0           2           2           0           1           1           1           1
 AtZEff=   0.0000000   0.0000000   0.0000000   0.0000000   0.0000000   0.0000000   0.0000000   0.0000000   0.0000000
 NQMom=    0.0000000   0.0000000   2.0440000   2.0440000   0.0000000   0.0000000   0.0000000   0.0000000   0.0000000
 NMagM=    0.0000000   0.0000000   0.4037610   0.4037610   0.0000000   2.7928460   2.7928460   2.7928460   2.7928460
 AtZNuc=   6.0000000   6.0000000   7.0000000   7.0000000   8.0000000   1.0000000   1.0000000   1.0000000   1.0000000
 Leave Link  101 at Tue Aug 23 17:59:27 2022, MaxMem=    23592960 cpu:         2.2
 (Enter /public/home/users/caep010/software/Gaussian09/g09/l103.exe)

 GradGradGradGradGradGradGradGradGradGradGradGradGradGradGradGradGradGrad
 Berny optimization.
 Initialization pass.
                           ----------------------------
                           !    Initial Parameters    !
                           ! (Angstroms and Degrees)  !
 --------------------------                            --------------------------
 ! Name  Definition              Value          Derivative Info.                !
 --------------------------------------------------------------------------------
 ! R1    R(1,2)                  1.3326         estimate D2E/DX2                !
 ! R2    R(1,6)                  1.0822         estimate D2E/DX2                !
 ! R3    R(1,7)                  1.0823         estimate D2E/DX2                !
 ! R4    R(2,3)                  1.4359         estimate D2E/DX2                !
 ! R5    R(2,8)                  1.0832         estimate D2E/DX2                !
 ! R6    R(3,4)                  1.4009         estimate D2E/DX2                !
 ! R7    R(3,5)                  1.2488         estimate D2E/DX2                !
 ! R8    R(4,9)                  1.0445         estimate D2E/DX2                !
 ! A1    A(2,1,6)              121.497          estimate D2E/DX2                !
 ! A2    A(2,1,7)              119.8917         estimate D2E/DX2                !
 ! A3    A(6,1,7)              118.6113         estimate D2E/DX2                !
 ! A4    A(1,2,3)              122.1271         estimate D2E/DX2                !
 ! A5    A(1,2,8)              118.5846         estimate D2E/DX2                !
 ! A6    A(3,2,8)              119.2883         estimate D2E/DX2                !
 ! A7    A(2,3,4)              120.0001         estimate D2E/DX2                !
 ! A8    A(2,3,5)              120.9628         estimate D2E/DX2                !
 ! A9    A(4,3,5)              119.0371         estimate D2E/DX2                !
 ! A10   A(3,4,9)              121.3504         estimate D2E/DX2                !
 ! D1    D(6,1,2,3)              0.0039         estimate D2E/DX2                !
 ! D2    D(6,1,2,8)            179.9991         estimate D2E/DX2                !
 ! D3    D(7,1,2,3)           -179.9938         estimate D2E/DX2                !
 ! D4    D(7,1,2,8)              0.0015         estimate D2E/DX2                !
 ! D5    D(1,2,3,4)           -179.9976         estimate D2E/DX2                !
 ! D6    D(1,2,3,5)             -0.0055         estimate D2E/DX2                !
 ! D7    D(8,2,3,4)              0.0072         estimate D2E/DX2                !
 ! D8    D(8,2,3,5)            179.9993         estimate D2E/DX2                !
 ! D9    D(2,3,4,9)             -0.0044         estimate D2E/DX2                !
 ! D10   D(5,3,4,9)           -179.9967         estimate D2E/DX2                !
 --------------------------------------------------------------------------------
 Trust Radius=3.00D-01 FncErr=1.00D-07 GrdErr=1.00D-06
 Number of steps in this run=     38 maximum allowed number of steps=    100.
 GradGradGradGradGradGradGradGradGradGradGradGradGradGradGradGradGradGrad

 Leave Link  103 at Tue Aug 23 17:59:27 2022, MaxMem=    23592960 cpu:         0.7
 (Enter /public/home/users/caep010/software/Gaussian09/g09/l202.exe)
                          Input orientation:                          
 ---------------------------------------------------------------------
 Center     Atomic      Atomic             Coordinates (Angstroms)
 Number     Number       Type             X           Y           Z
 ---------------------------------------------------------------------
      1          6           0       -1.530500    0.025400    0.047600
      2          6           0       -0.253400    0.387600   -0.069000
      3          7           0        0.818200   -0.567100   -0.024500
      4          7           0        2.145300   -0.136900   -0.151700
      5          8           0        0.587700   -1.785100    0.127000
      6          1           0       -1.814500   -1.010200    0.181600
      7          1           0       -2.309600    0.775600    0.008800
      8          1           0       -0.022500    1.437600   -0.201500
      9          1           0        2.379300    0.873000   -0.279800
 ---------------------------------------------------------------------
                    Distance matrix (angstroms):
                    1          2          3          4          5
     1  C    0.000000
     2  C    1.332580   0.000000
     3  N    2.423354   1.435883   0.000000
     4  N    3.684775   2.456766   1.400873   0.000000
     5  O    2.787649   2.338053   1.248842   2.284810   0.000000
     6  H    1.082164   2.110374   2.677671   4.068631   2.524681
     7  H    1.082267   2.093933   3.403981   4.550225   3.868527
     8  H    2.080967   1.083223   2.181038   2.679718   3.296369
     9  H    4.013995   2.685360   2.139182   1.044540   3.231225
                    6          7          8          9
     6  H    0.000000
     7  H    1.861200   0.000000
     8  H    3.057737   2.390250   0.000000
     9  H    4.620313   4.698783   2.468511   0.000000
 Stoichiometry    C2H4N2O
 Framework group  C1[X(C2H4N2O)]
 Deg. of freedom    21
 Full point group                 C1      NOp   1
 Largest Abelian subgroup         C1      NOp   1
 Largest concise Abelian subgroup C1      NOp   1
                         Standard orientation:                         
 ---------------------------------------------------------------------
 Center     Atomic      Atomic             Coordinates (Angstroms)
 Number     Number       Type             X           Y           Z
 ---------------------------------------------------------------------
      1          6           0       -1.917016   -0.048815   -0.000011
      2          6           0       -0.728344   -0.651168   -0.000013
      3          7           0        0.502453    0.088356    0.000042
      4          7           0        1.727681   -0.590808   -0.000014
      5          8           0        0.501652    1.337198   -0.000008
      6          1           0       -2.004249    1.029827   -0.000030
      7          1           0       -2.822257   -0.641977    0.000048
      8          1           0       -0.695997   -1.733907    0.000020
      9          1           0        1.770511   -1.634469   -0.000027
 ---------------------------------------------------------------------
 Rotational constants (GHZ):     11.0451963      4.3794283      3.1360015
 Leave Link  202 at Tue Aug 23 17:59:27 2022, MaxMem=    23592960 cpu:         0.7
 (Enter /public/home/users/caep010/software/Gaussian09/g09/l301.exe)
 Standard basis: GTBas3 (6D, 7F)
 Ernie: Thresh=  0.10000D-02 Tol=  0.10000D-05 Strict=F.
 There are   175 symmetry adapted cartesian basis functions of A   symmetry.
 There are   160 symmetry adapted basis functions of A   symmetry.
   160 basis functions,   248 primitive gaussians,   175 cartesian basis functions
    19 alpha electrons       19 beta electrons
       nuclear repulsion energy       163.5679977817 Hartrees.
 IExCor=  402 DFT=T Ex+Corr=B3LYP ExCW=0 ScaHFX=  0.200000
 ScaDFX=  0.800000  0.720000  1.000000  0.810000 ScalE2=  1.000000  1.000000
 IRadAn=      0 IRanWt=     -1 IRanGd=            0 ICorTp=0 IEmpDi=  4
 NAtoms=    9 NActive=    9 NUniq=    9 SFac= 1.00D+00 NAtFMM=   60 NAOKFM=F Big=F
 Integral buffers will be    131072 words long.
 Raffenetti 2 integral format.
 Two-electron integral symmetry is turned on.
 Leave Link  301 at Tue Aug 23 17:59:28 2022, MaxMem=    23592960 cpu:         2.1
 (Enter /public/home/users/caep010/software/Gaussian09/g09/l302.exe)
 NPDir=0 NMtPBC=     1 NCelOv=     1 NCel=       1 NClECP=     1 NCelD=      1
         NCelK=      1 NCelE2=     1 NClLst=     1 CellRange=     0.0.
 One-electron integrals computed using PRISM.
 PrsmSu:  requested number of processors reduced to:   3 ShMem   1 Linda.
 PrsmSu:  requested number of processors reduced to:  11 ShMem   1 Linda.
 NBasis=   160 RedAO= T EigKep=  4.16D-04  NBF=   160
 NBsUse=   160 1.00D-06 EigRej= -1.00D+00 NBFU=   160
 Precomputing XC quadrature grid using
 IXCGrd= 4 IRadAn=           0 IRanWt=          -1 IRanGd=           0 AccXCQ= 0.00D+00.
 Generated NRdTot=       0 NPtTot=           0 NUsed=           0 NTot=          32
 NSgBfM=   175   175   175   175   175 MxSgAt=     9 MxSgA2=     9.
 Leave Link  302 at Tue Aug 23 17:59:28 2022, MaxMem=    23592960 cpu:         3.9
 (Enter /public/home/users/caep010/software/Gaussian09/g09/l303.exe)
 DipDrv:  MaxL=1.
 Leave Link  303 at Tue Aug 23 17:59:28 2022, MaxMem=    23592960 cpu:         1.5
 (Enter /public/home/users/caep010/software/Gaussian09/g09/l401.exe)
 ExpMin= 1.61D-01 ExpMax= 5.48D+03 ExpMxC= 8.25D+02 IAcc=1 IRadAn=         1 AccDes= 0.00D+00
 Harris functional with IExCor=  402 and IRadAn=       1 diagonalized for initial guess.
 HarFok:  IExCor=  402 AccDes= 0.00D+00 IRadAn=         1 IDoV= 1 UseB2=F ITyADJ=14
 ICtDFT=  3500011 ScaDFX=  1.000000  1.000000  1.000000  1.000000
 CalDSu:  requested number of processors reduced to:  21 ShMem   1 Linda.
 FoFCou: FMM=F IPFlag=           0 FMFlag=      100000 FMFlg1=           0
         NFxFlg=           0 DoJE=T BraDBF=F KetDBF=T FulRan=T
         wScrn=  0.000000 ICntrl=     500 IOpCl=  0 I1Cent=   200000004 NGrid=           0
         NMat0=    1 NMatS0=      1 NMatT0=    0 NMatD0=    1 NMtDS0=    0 NMtDT0=    0
 Petite list used in FoFCou.
 CoulSu:  requested number of processors reduced to:  11 ShMem   1 Linda.
 CoulSu:  requested number of processors reduced to:  11 ShMem   1 Linda.
 CoulSu:  requested number of processors reduced to:  12 ShMem   1 Linda.
 CoulSu:  requested number of processors reduced to:  12 ShMem   1 Linda.
 Harris En= -263.246692331357    
 JPrj=0 DoOrth=F DoCkMO=F.
 Leave Link  401 at Tue Aug 23 17:59:28 2022, MaxMem=    23592960 cpu:         3.8
 (Enter /public/home/users/caep010/software/Gaussian09/g09/l502.exe)
 Closed shell SCF:
 Using DIIS extrapolation, IDIIS=  1040.
 Integral symmetry usage will be decided dynamically.
 IVT=      117295 IEndB=      117295 NGot=    23592960 MDV=    23523106
 LenX=    23523106 LenY=    23492040
 Requested convergence on RMS density matrix=1.00D-08 within 128 cycles.
 Requested convergence on MAX density matrix=1.00D-06.
 Requested convergence on             energy=1.00D-06.
 No special actions if energy rises.
 Fock matrices will be formed incrementally for  20 cycles.
 Integral accuracy reduced to 1.0D-05 until final iterations.

 Cycle   1  Pass 0  IDiag  1:
 FoFJK:  IHMeth= 1 ICntrl=       0 DoSepK=F KAlg= 0 I1Cent=   0 FoldK=F
 IRaf= 980000000 NMat=   1 IRICut=       1 DoRegI=T DoRafI=F ISym2E= 0.
 FoFCou: FMM=F IPFlag=           0 FMFlag=      100000 FMFlg1=           0
         NFxFlg=           0 DoJE=F BraDBF=F KetDBF=F FulRan=T
         wScrn=  0.000000 ICntrl=       0 IOpCl=  0 I1Cent=           0 NGrid=           0
         NMat0=    1 NMatS0=      1 NMatT0=    0 NMatD0=    1 NMtDS0=    0 NMtDT0=    0
 Symmetry not used in FoFCou.
 CoulSu:  requested number of processors reduced to:  11 ShMem   1 Linda.
 CalDSu:  requested number of processors reduced to:  21 ShMem   1 Linda.
 E= -263.022323789305    
 DIIS: error= 2.84D-02 at cycle   1 NSaved=   1.
 NSaved= 1 IEnMin= 1 EnMin= -263.022323789305     IErMin= 1 ErrMin= 2.84D-02
 ErrMax= 2.84D-02  0.00D+00 EMaxC= 1.00D-01 BMatC= 2.40D-01 BMatP= 2.40D-01
 IDIUse=3 WtCom= 7.16D-01 WtEn= 2.84D-01
 Coeff-Com:  0.100D+01
 Coeff-En:   0.100D+01
 Coeff:      0.100D+01
 Gap=     0.133 Goal=   None    Shift=    0.000
 GapD=    0.133 DampG=1.000 DampE=0.500 DampFc=0.5000 IDamp=-1.
 Damping current iteration by 5.00D-01
 RMSDP=5.68D-03 MaxDP=2.37D-01              OVMax= 3.42D-01

 Cycle   2  Pass 0  IDiag  1:
 RMSU=  2.82D-03    CP:  9.83D-01
 CoulSu:  requested number of processors reduced to:  11 ShMem   1 Linda.
 CalDSu:  requested number of processors reduced to:  21 ShMem   1 Linda.
 E= -263.042304320479     Delta-E=       -0.019980531174 Rises=F Damp=T
 DIIS: error= 1.46D-02 at cycle   2 NSaved=   2.
 NSaved= 2 IEnMin= 2 EnMin= -263.042304320479     IErMin= 2 ErrMin= 1.46D-02
 ErrMax= 1.46D-02  0.00D+00 EMaxC= 1.00D-01 BMatC= 6.41D-02 BMatP= 2.40D-01
 IDIUse=3 WtCom= 8.54D-01 WtEn= 1.46D-01
 Coeff-Com:  0.312D+00 0.688D+00
 Coeff-En:   0.458D+00 0.542D+00
 Coeff:      0.333D+00 0.667D+00
 Gap=     0.157 Goal=   None    Shift=    0.000
 RMSDP=1.73D-03 MaxDP=5.50D-02 DE=-2.00D-02 OVMax= 2.45D-01

 Cycle   3  Pass 0  IDiag  1:
 RMSU=  1.60D-03    CP:  9.80D-01  7.73D-01
 CoulSu:  requested number of processors reduced to:  11 ShMem   1 Linda.
 CalDSu:  requested number of processors reduced to:  21 ShMem   1 Linda.
 E= -263.191228703853     Delta-E=       -0.148924383374 Rises=F Damp=F
 DIIS: error= 9.42D-03 at cycle   3 NSaved=   3.
 NSaved= 3 IEnMin= 3 EnMin= -263.191228703853     IErMin= 3 ErrMin= 9.42D-03
 ErrMax= 9.42D-03  0.00D+00 EMaxC= 1.00D-01 BMatC= 2.41D-02 BMatP= 6.41D-02
 IDIUse=3 WtCom= 9.06D-01 WtEn= 9.42D-02
 Coeff-Com:  0.152D+00 0.383D+00 0.465D+00
 Coeff-En:   0.000D+00 0.000D+00 0.100D+01
 Coeff:      0.138D+00 0.347D+00 0.515D+00
 Gap=     0.164 Goal=   None    Shift=    0.000
 RMSDP=1.59D-03 MaxDP=7.37D-02 DE=-1.49D-01 OVMax= 1.66D-01

 Cycle   4  Pass 0  IDiag  1:
 RMSU=  1.04D-03    CP:  9.80D-01  7.62D-01  2.52D-01
 CoulSu:  requested number of processors reduced to:  11 ShMem   1 Linda.
 CalDSu:  requested number of processors reduced to:  21 ShMem   1 Linda.
 E= -263.189915916194     Delta-E=        0.001312787659 Rises=F Damp=F
 DIIS: error= 1.07D-02 at cycle   4 NSaved=   4.
 NSaved= 4 IEnMin= 3 EnMin= -263.191228703853     IErMin= 3 ErrMin= 9.42D-03
 ErrMax= 1.07D-02  0.00D+00 EMaxC= 1.00D-01 BMatC= 2.68D-02 BMatP= 2.41D-02
 IDIUse=2 WtCom= 0.00D+00 WtEn= 1.00D+00
 Coeff-En:   0.000D+00 0.000D+00 0.510D+00 0.490D+00
 Coeff:      0.000D+00 0.000D+00 0.510D+00 0.490D+00
 Gap=     0.152 Goal=   None    Shift=    0.000
 RMSDP=1.19D-03 MaxDP=6.15D-02 DE= 1.31D-03 OVMax= 1.39D-01

 Cycle   5  Pass 0  IDiag  1:
 RMSU=  5.47D-04    CP:  9.83D-01  7.45D-01  4.85D-01  4.75D-02
 CoulSu:  requested number of processors reduced to:  11 ShMem   1 Linda.
 CalDSu:  requested number of processors reduced to:  21 ShMem   1 Linda.
 E= -263.206206626240     Delta-E=       -0.016290710046 Rises=F Damp=F
 DIIS: error= 5.47D-03 at cycle   5 NSaved=   5.
 NSaved= 5 IEnMin= 5 EnMin= -263.206206626240     IErMin= 5 ErrMin= 5.47D-03
 ErrMax= 5.47D-03  0.00D+00 EMaxC= 1.00D-01 BMatC= 7.97D-03 BMatP= 2.41D-02
 IDIUse=3 WtCom= 9.45D-01 WtEn= 5.47D-02
 EnCoef did     8 forward-backward iterations
 Coeff-Com:  0.174D-01-0.267D-02 0.260D+00 0.348D+00 0.378D+00
 Coeff-En:   0.000D+00 0.000D+00 0.912D-01 0.305D+00 0.604D+00
 Coeff:      0.165D-01-0.252D-02 0.250D+00 0.345D+00 0.390D+00
 Gap=     0.161 Goal=   None    Shift=    0.000
 RMSDP=5.10D-04 MaxDP=2.16D-02 DE=-1.63D-02 OVMax= 4.82D-02

 Cycle   6  Pass 0  IDiag  1:
 RMSU=  1.01D-04    CP:  9.82D-01  7.36D-01  5.18D-01  3.98D-01  3.84D-01
 CoulSu:  requested number of processors reduced to:  11 ShMem   1 Linda.
 CalDSu:  requested number of processors reduced to:  21 ShMem   1 Linda.
 E= -263.213945040407     Delta-E=       -0.007738414167 Rises=F Damp=F
 DIIS: error= 5.71D-04 at cycle   6 NSaved=   6.
 NSaved= 6 IEnMin= 6 EnMin= -263.213945040407     IErMin= 6 ErrMin= 5.71D-04
 ErrMax= 5.71D-04  0.00D+00 EMaxC= 1.00D-01 BMatC= 7.01D-05 BMatP= 7.97D-03
 IDIUse=3 WtCom= 9.94D-01 WtEn= 5.71D-03
 Coeff-Com:  0.313D-02-0.447D-02 0.872D-01 0.124D+00 0.177D+00 0.613D+00
 Coeff-En:   0.000D+00 0.000D+00 0.000D+00 0.000D+00 0.000D+00 0.100D+01
 Coeff:      0.311D-02-0.445D-02 0.867D-01 0.123D+00 0.176D+00 0.616D+00
 Gap=     0.161 Goal=   None    Shift=    0.000
 RMSDP=6.55D-05 MaxDP=2.30D-03 DE=-7.74D-03 OVMax= 3.72D-03

 Cycle   7  Pass 0  IDiag  1:
 RMSU=  3.34D-05    CP:  9.81D-01  7.41D-01  5.24D-01  3.82D-01  4.18D-01
                    CP:  5.33D-01
 CoulSu:  requested number of processors reduced to:  11 ShMem   1 Linda.
 CalDSu:  requested number of processors reduced to:  21 ShMem   1 Linda.
 E= -263.214007731146     Delta-E=       -0.000062690740 Rises=F Damp=F
 DIIS: error= 1.90D-04 at cycle   7 NSaved=   7.
 NSaved= 7 IEnMin= 7 EnMin= -263.214007731146     IErMin= 7 ErrMin= 1.90D-04
 ErrMax= 1.90D-04  0.00D+00 EMaxC= 1.00D-01 BMatC= 6.44D-06 BMatP= 7.01D-05
 IDIUse=3 WtCom= 9.98D-01 WtEn= 1.90D-03
 Coeff-Com: -0.683D-03-0.114D-02 0.114D-01 0.165D-01 0.412D-01 0.317D+00
 Coeff-Com:  0.616D+00
 Coeff-En:   0.000D+00 0.000D+00 0.000D+00 0.000D+00 0.000D+00 0.000D+00
 Coeff-En:   0.100D+01
 Coeff:     -0.682D-03-0.114D-02 0.114D-01 0.165D-01 0.411D-01 0.316D+00
 Coeff:      0.617D+00
 Gap=     0.161 Goal=   None    Shift=    0.000
 RMSDP=1.94D-05 MaxDP=4.79D-04 DE=-6.27D-05 OVMax= 1.22D-03

 Cycle   8  Pass 0  IDiag  1:
 RMSU=  6.04D-06    CP:  9.81D-01  7.40D-01  5.23D-01  3.79D-01  4.24D-01
                    CP:  6.56D-01  6.25D-01
 CoulSu:  requested number of processors reduced to:  11 ShMem   1 Linda.
 CalDSu:  requested number of processors reduced to:  21 ShMem   1 Linda.
 E= -263.214013465325     Delta-E=       -0.000005734179 Rises=F Damp=F
 DIIS: error= 4.72D-05 at cycle   8 NSaved=   8.
 NSaved= 8 IEnMin= 8 EnMin= -263.214013465325     IErMin= 8 ErrMin= 4.72D-05
 ErrMax= 4.72D-05  0.00D+00 EMaxC= 1.00D-01 BMatC= 3.99D-07 BMatP= 6.44D-06
 IDIUse=1 WtCom= 1.00D+00 WtEn= 0.00D+00
 Coeff-Com: -0.451D-03-0.141D-03 0.215D-02 0.299D-02 0.127D-01 0.135D+00
 Coeff-Com:  0.316D+00 0.532D+00
 Coeff:     -0.451D-03-0.141D-03 0.215D-02 0.299D-02 0.127D-01 0.135D+00
 Coeff:      0.316D+00 0.532D+00
 Gap=     0.161 Goal=   None    Shift=    0.000
 RMSDP=4.33D-06 MaxDP=2.21D-04 DE=-5.73D-06 OVMax= 4.79D-04

 Initial convergence to 1.0D-05 achieved.  Increase integral accuracy.
 Cycle   9  Pass 1  IDiag  1:
 CoulSu:  requested number of processors reduced to:  11 ShMem   1 Linda.
 CalDSu:  requested number of processors reduced to:  21 ShMem   1 Linda.
 E= -263.214033084791     Delta-E=       -0.000019619465 Rises=F Damp=F
 DIIS: error= 2.04D-05 at cycle   1 NSaved=   1.
 NSaved= 1 IEnMin= 1 EnMin= -263.214033084791     IErMin= 1 ErrMin= 2.04D-05
 ErrMax= 2.04D-05  0.00D+00 EMaxC= 1.00D-01 BMatC= 1.04D-07 BMatP= 1.04D-07
 IDIUse=1 WtCom= 1.00D+00 WtEn= 0.00D+00
 Coeff-Com:  0.100D+01
 Coeff:      0.100D+01
 Gap=     0.161 Goal=   None    Shift=    0.000
 RMSDP=4.33D-06 MaxDP=2.21D-04 DE=-1.96D-05 OVMax= 4.14D-04

 Cycle  10  Pass 1  IDiag  1:
 RMSU=  6.87D-06    CP:  1.00D+00
 CoulSu:  requested number of processors reduced to:  11 ShMem   1 Linda.
 CalDSu:  requested number of processors reduced to:  21 ShMem   1 Linda.
 E= -263.214032882392     Delta-E=        0.000000202399 Rises=F Damp=F
 DIIS: error= 4.00D-05 at cycle   2 NSaved=   2.
 NSaved= 2 IEnMin= 1 EnMin= -263.214033084791     IErMin= 1 ErrMin= 2.04D-05
 ErrMax= 4.00D-05  0.00D+00 EMaxC= 1.00D-01 BMatC= 2.84D-07 BMatP= 1.04D-07
 IDIUse=1 WtCom= 1.00D+00 WtEn= 0.00D+00
 Coeff-Com:  0.640D+00 0.360D+00
 Coeff:      0.640D+00 0.360D+00
 Gap=     0.161 Goal=   None    Shift=    0.000
 RMSDP=3.46D-06 MaxDP=1.43D-04 DE= 2.02D-07 OVMax= 3.23D-04

 Cycle  11  Pass 1  IDiag  1:
 RMSU=  2.86D-06    CP:  1.00D+00  7.17D-01
 CoulSu:  requested number of processors reduced to:  11 ShMem   1 Linda.
 CalDSu:  requested number of processors reduced to:  21 ShMem   1 Linda.
 E= -263.214033138732     Delta-E=       -0.000000256340 Rises=F Damp=F
 DIIS: error= 1.36D-05 at cycle   3 NSaved=   3.
 NSaved= 3 IEnMin= 3 EnMin= -263.214033138732     IErMin= 3 ErrMin= 1.36D-05
 ErrMax= 1.36D-05  0.00D+00 EMaxC= 1.00D-01 BMatC= 4.45D-08 BMatP= 1.04D-07
 IDIUse=1 WtCom= 1.00D+00 WtEn= 0.00D+00
 Coeff-Com:  0.336D+00 0.263D+00 0.401D+00
 Coeff:      0.336D+00 0.263D+00 0.401D+00
 Gap=     0.161 Goal=   None    Shift=    0.000
 RMSDP=1.68D-06 MaxDP=8.67D-05 DE=-2.56D-07 OVMax= 1.95D-04

 Cycle  12  Pass 1  IDiag  1:
 RMSU=  1.29D-06    CP:  1.00D+00  7.70D-01  6.46D-01
 CoulSu:  requested number of processors reduced to:  11 ShMem   1 Linda.
 CalDSu:  requested number of processors reduced to:  21 ShMem   1 Linda.
 E= -263.214033163033     Delta-E=       -0.000000024302 Rises=F Damp=F
 DIIS: error= 8.60D-06 at cycle   4 NSaved=   4.
 NSaved= 4 IEnMin= 4 EnMin= -263.214033163033     IErMin= 4 ErrMin= 8.60D-06
 ErrMax= 8.60D-06  0.00D+00 EMaxC= 1.00D-01 BMatC= 1.81D-08 BMatP= 4.45D-08
 IDIUse=1 WtCom= 1.00D+00 WtEn= 0.00D+00
 Coeff-Com:  0.122D-01 0.801D-01 0.395D+00 0.513D+00
 Coeff:      0.122D-01 0.801D-01 0.395D+00 0.513D+00
 Gap=     0.161 Goal=   None    Shift=    0.000
 RMSDP=7.30D-07 MaxDP=3.28D-05 DE=-2.43D-08 OVMax= 7.34D-05

 Cycle  13  Pass 1  IDiag  1:
 RMSU=  2.39D-07    CP:  1.00D+00  7.78D-01  7.56D-01  5.26D-01
 CoulSu:  requested number of processors reduced to:  11 ShMem   1 Linda.
 CalDSu:  requested number of processors reduced to:  21 ShMem   1 Linda.
 E= -263.214033179099     Delta-E=       -0.000000016066 Rises=F Damp=F
 DIIS: error= 1.18D-06 at cycle   5 NSaved=   5.
 NSaved= 5 IEnMin= 5 EnMin= -263.214033179099     IErMin= 5 ErrMin= 1.18D-06
 ErrMax= 1.18D-06  0.00D+00 EMaxC= 1.00D-01 BMatC= 3.24D-10 BMatP= 1.81D-08
 IDIUse=1 WtCom= 1.00D+00 WtEn= 0.00D+00
 Coeff-Com: -0.427D-02 0.357D-01 0.203D+00 0.285D+00 0.481D+00
 Coeff:     -0.427D-02 0.357D-01 0.203D+00 0.285D+00 0.481D+00
 Gap=     0.161 Goal=   None    Shift=    0.000
 RMSDP=1.27D-07 MaxDP=4.03D-06 DE=-1.61D-08 OVMax= 5.35D-06

 Cycle  14  Pass 1  IDiag  1:
 RMSU=  5.06D-08    CP:  1.00D+00  7.76D-01  7.56D-01  5.46D-01  5.25D-01
 CoulSu:  requested number of processors reduced to:  11 ShMem   1 Linda.
 CalDSu:  requested number of processors reduced to:  21 ShMem   1 Linda.
 E= -263.214033179390     Delta-E=       -0.000000000291 Rises=F Damp=F
 DIIS: error= 3.46D-07 at cycle   6 NSaved=   6.
 NSaved= 6 IEnMin= 6 EnMin= -263.214033179390     IErMin= 6 ErrMin= 3.46D-07
 ErrMax= 3.46D-07  0.00D+00 EMaxC= 1.00D-01 BMatC= 2.25D-11 BMatP= 3.24D-10
 IDIUse=1 WtCom= 1.00D+00 WtEn= 0.00D+00
 Coeff-Com: -0.340D-02 0.169D-01 0.989D-01 0.142D+00 0.284D+00 0.462D+00
 Coeff:     -0.340D-02 0.169D-01 0.989D-01 0.142D+00 0.284D+00 0.462D+00
 Gap=     0.161 Goal=   None    Shift=    0.000
 RMSDP=2.29D-08 MaxDP=1.21D-06 DE=-2.91D-10 OVMax= 1.72D-06

 Cycle  15  Pass 1  IDiag  1:
 RMSU=  1.84D-08    CP:  1.00D+00  7.77D-01  7.55D-01  5.44D-01  5.30D-01
                    CP:  7.45D-01
 CoulSu:  requested number of processors reduced to:  11 ShMem   1 Linda.
 CalDSu:  requested number of processors reduced to:  21 ShMem   1 Linda.
 E= -263.214033179406     Delta-E=       -0.000000000015 Rises=F Damp=F
 DIIS: error= 1.16D-07 at cycle   7 NSaved=   7.
 NSaved= 7 IEnMin= 7 EnMin= -263.214033179406     IErMin= 7 ErrMin= 1.16D-07
 ErrMax= 1.16D-07  0.00D+00 EMaxC= 1.00D-01 BMatC= 2.47D-12 BMatP= 2.25D-11
 IDIUse=1 WtCom= 1.00D+00 WtEn= 0.00D+00
 Coeff-Com: -0.145D-02 0.514D-02 0.314D-01 0.448D-01 0.105D+00 0.275D+00
 Coeff-Com:  0.541D+00
 Coeff:     -0.145D-02 0.514D-02 0.314D-01 0.448D-01 0.105D+00 0.275D+00
 Coeff:      0.541D+00
 Gap=     0.161 Goal=   None    Shift=    0.000
 RMSDP=1.00D-08 MaxDP=3.55D-07 DE=-1.55D-11 OVMax= 4.72D-07

 Cycle  16  Pass 1  IDiag  1:
 RMSU=  6.03D-09    CP:  1.00D+00  7.77D-01  7.55D-01  5.46D-01  5.49D-01
                    CP:  7.45D-01  6.64D-01
 CoulSu:  requested number of processors reduced to:  11 ShMem   1 Linda.
 CalDSu:  requested number of processors reduced to:  21 ShMem   1 Linda.
 E= -263.214033179409     Delta-E=       -0.000000000003 Rises=F Damp=F
 DIIS: error= 3.20D-08 at cycle   8 NSaved=   8.
 NSaved= 8 IEnMin= 8 EnMin= -263.214033179409     IErMin= 8 ErrMin= 3.20D-08
 ErrMax= 3.20D-08  0.00D+00 EMaxC= 1.00D-01 BMatC= 2.85D-13 BMatP= 2.47D-12
 IDIUse=1 WtCom= 1.00D+00 WtEn= 0.00D+00
 Coeff-Com: -0.295D-03 0.444D-03 0.440D-02 0.475D-02 0.173D-01 0.683D-01
 Coeff-Com:  0.260D+00 0.645D+00
 Coeff:     -0.295D-03 0.444D-03 0.440D-02 0.475D-02 0.173D-01 0.683D-01
 Coeff:      0.260D+00 0.645D+00
 Gap=     0.161 Goal=   None    Shift=    0.000
 RMSDP=3.24D-09 MaxDP=8.45D-08 DE=-2.96D-12 OVMax= 1.73D-07

 SCF Done:  E(RB3LYP) =  -263.214033179     A.U. after   16 cycles
            NFock= 16  Conv=0.32D-08     -V/T= 2.0083
 KE= 2.610355499027D+02 PE=-9.419484718176D+02 EE= 2.541308909538D+02
 Leave Link  502 at Tue Aug 23 17:59:34 2022, MaxMem=    23592960 cpu:        97.1
 (Enter /public/home/users/caep010/software/Gaussian09/g09/l601.exe)
 Copying SCF densities to generalized density rwf, IOpCl= 0 IROHF=0.

 **********************************************************************

            Population analysis using the SCF density.

 **********************************************************************

 Orbital symmetries:
       Occupied  (A) (A) (A) (A) (A) (A) (A) (A) (A) (A) (A) (A)
                 (A) (A) (A) (A) (A) (A) (A)
       Virtual   (A) (A) (A) (A) (A) (A) (A) (A) (A) (A) (A) (A)
                 (A) (A) (A) (A) (A) (A) (A) (A) (A) (A) (A) (A)
                 (A) (A) (A) (A) (A) (A) (A) (A) (A) (A) (A) (A)
                 (A) (A) (A) (A) (A) (A) (A) (A) (A) (A) (A) (A)
                 (A) (A) (A) (A) (A) (A) (A) (A) (A) (A) (A) (A)
                 (A) (A) (A) (A) (A) (A) (A) (A) (A) (A) (A) (A)
                 (A) (A) (A) (A) (A) (A) (A) (A) (A) (A) (A) (A)
                 (A) (A) (A) (A) (A) (A) (A) (A) (A) (A) (A) (A)
                 (A) (A) (A) (A) (A) (A) (A) (A) (A) (A) (A) (A)
                 (A) (A) (A) (A) (A) (A) (A) (A) (A) (A) (A) (A)
                 (A) (A) (A) (A) (A) (A) (A) (A) (A) (A) (A) (A)
                 (A) (A) (A) (A) (A) (A) (A) (A) (A)
 The electronic state is 1-A.
 Alpha  occ. eigenvalues --  -19.15859 -14.53108 -14.35800 -10.25686 -10.22536
 Alpha  occ. eigenvalues --   -1.14579  -0.90845  -0.82556  -0.70477  -0.59551
 Alpha  occ. eigenvalues --   -0.56135  -0.49527  -0.48367  -0.47051  -0.41649
 Alpha  occ. eigenvalues --   -0.30942  -0.29132  -0.28112  -0.25432
 Alpha virt. eigenvalues --   -0.09295   0.01694   0.07385   0.09771   0.11744
 Alpha virt. eigenvalues --    0.14077   0.19798   0.25923   0.28218   0.30204
 Alpha virt. eigenvalues --    0.38358   0.42813   0.47900   0.49565   0.53290
 Alpha virt. eigenvalues --    0.55047   0.55745   0.61892   0.61938   0.69934
 Alpha virt. eigenvalues --    0.70175   0.72206   0.72749   0.73446   0.74570
 Alpha virt. eigenvalues --    0.75977   0.77281   0.80155   0.84707   0.91313
 Alpha virt. eigenvalues --    0.92303   0.95051   0.95110   0.97329   0.99157
 Alpha virt. eigenvalues --    1.02315   1.03247   1.06864   1.08207   1.22880
 Alpha virt. eigenvalues --    1.25625   1.32711   1.33278   1.40874   1.44596
 Alpha virt. eigenvalues --    1.45994   1.54170   1.54617   1.59463   1.63534
 Alpha virt. eigenvalues --    1.66360   1.67405   1.69390   1.74529   1.77747
 Alpha virt. eigenvalues --    1.89201   1.92083   2.07645   2.11992   2.13836
 Alpha virt. eigenvalues --    2.16287   2.19440   2.38380   2.51930   2.55760
 Alpha virt. eigenvalues --    2.66211   2.75475   2.78919   2.84211   2.85026
 Alpha virt. eigenvalues --    2.87548   2.91410   2.98676   2.99231   3.15596
 Alpha virt. eigenvalues --    3.18434   3.19970   3.25111   3.34167   3.37361
 Alpha virt. eigenvalues --    3.38865   3.41544   3.41689   3.47688   3.52248
 Alpha virt. eigenvalues --    3.58311   3.60035   3.70279   3.71721   3.77653
 Alpha virt. eigenvalues --    3.85816   3.86196   3.88581   4.04002   4.05297
 Alpha virt. eigenvalues --    4.08225   4.12380   4.14858   4.16398   4.18359
 Alpha virt. eigenvalues --    4.27579   4.29587   4.30777   4.33503   4.37957
 Alpha virt. eigenvalues --    4.39371   4.42391   4.42617   4.45390   4.46410
 Alpha virt. eigenvalues --    4.48516   4.58706   4.62869   4.72962   4.75779
 Alpha virt. eigenvalues --    4.78352   4.79749   4.82550   4.96467   5.01535
 Alpha virt. eigenvalues --    5.06511   5.08718   5.11332   5.17933   5.33189
 Alpha virt. eigenvalues --    5.36466   5.52061   5.58360   5.67054   5.87936
 Alpha virt. eigenvalues --    5.98460   6.09166   6.24090   6.53934   6.77183
 Alpha virt. eigenvalues --   10.11370  11.07414  11.33545  11.40640  12.83897
 Alpha virt. eigenvalues --   14.16935
          Condensed to atoms (all electrons):
               1          2          3          4          5          6
     1  C    5.039196   0.589986   0.008146   0.007825  -0.001050   0.353493
     2  C    0.589986   4.786865   0.347086  -0.086785  -0.077695  -0.007727
     3  N    0.008146   0.347086   5.437716   0.479673   0.502164  -0.015340
     4  N    0.007825  -0.086785   0.479673   6.801932  -0.079141   0.000266
     5  O   -0.001050  -0.077695   0.502164  -0.079141   8.030748   0.016565
     6  H    0.353493  -0.007727  -0.015340   0.000266   0.016565   0.517931
     7  H    0.361062  -0.011801   0.002132  -0.000113   0.000358  -0.033431
     8  H   -0.054017   0.370296  -0.033336   0.000218   0.003558   0.005751
     9  H    0.000023  -0.000025  -0.047542   0.279884   0.005571  -0.000021
               7          8          9
     1  C    0.361062  -0.054017   0.000023
     2  C   -0.011801   0.370296  -0.000025
     3  N    0.002132  -0.033336  -0.047542
     4  N   -0.000113   0.000218   0.279884
     5  O    0.000358   0.003558   0.005571
     6  H   -0.033431   0.005751  -0.000021
     7  H    0.541151  -0.005203  -0.000032
     8  H   -0.005203   0.569946   0.001122
     9  H   -0.000032   0.001122   0.510676
 Mulliken charges:
               1
     1  C   -0.304663
     2  C    0.089799
     3  N    0.319301
     4  N   -0.403759
     5  O   -0.401078
     6  H    0.162514
     7  H    0.145877
     8  H    0.141665
     9  H    0.250344
 Sum of Mulliken charges =  -0.00000
 Mulliken charges with hydrogens summed into heavy atoms:
               1
     1  C    0.003728
     2  C    0.231464
     3  N    0.319301
     4  N   -0.153414
     5  O   -0.401078
 Electronic spatial extent (au):  <R**2>=            392.3526
 Charge=             -0.0000 electrons
 Dipole moment (field-independent basis, Debye):
    X=             -3.1825    Y=             -3.2064    Z=              0.0001  Tot=              4.5177
 Quadrupole moment (field-independent basis, Debye-Ang):
   XX=            -28.9384   YY=            -26.8305   ZZ=            -29.9663
   XY=             -2.5239   XZ=             -0.0001   YZ=             -0.0000
 Traceless Quadrupole moment (field-independent basis, Debye-Ang):
   XX=             -0.3600   YY=              1.7479   ZZ=             -1.3879
   XY=             -2.5239   XZ=             -0.0001   YZ=             -0.0000
 Octapole moment (field-independent basis, Debye-Ang**2):
  XXX=            -15.7597  YYY=             -6.8938  ZZZ=              0.0001  XYY=              2.3201
  XXY=             -3.6932  XXZ=              0.0003  XZZ=              2.3895  YZZ=              2.1870
  YYZ=             -0.0001  XYZ=              0.0003
 Hexadecapole moment (field-independent basis, Debye-Ang**3):
 XXXX=           -329.0770 YYYY=           -122.9288 ZZZZ=            -26.5885 XXXY=             -2.5800
 XXXZ=             -0.0014 YYYX=            -10.2166 YYYZ=             -0.0001 ZZZX=             -0.0002
 ZZZY=             -0.0001 XXYY=            -64.4695 XXZZ=            -64.4022 YYZZ=            -27.5648
 XXYZ=             -0.0001 YYXZ=             -0.0003 ZZXY=              0.0562
 N-N= 1.635679977817D+02 E-N=-9.419484741269D+02  KE= 2.610355499027D+02
 PrsmSu:  requested number of processors reduced to:  11 ShMem   1 Linda.
 No NMR shielding tensors so no spin-rotation constants.
 Leave Link  601 at Tue Aug 23 17:59:34 2022, MaxMem=    23592960 cpu:         2.6
 (Enter /public/home/users/caep010/software/Gaussian09/g09/l701.exe)
 Compute integral first derivatives.
 ... and contract with generalized density number  0.
 PrsmSu:  requested number of processors reduced to:   3 ShMem   1 Linda.
 PrsmSu:  requested number of processors reduced to:   6 ShMem   1 Linda.
 Leave Link  701 at Tue Aug 23 17:59:35 2022, MaxMem=    23592960 cpu:         5.4
 (Enter /public/home/users/caep010/software/Gaussian09/g09/l702.exe)
 L702 exits ... SP integral derivatives will be done elsewhere.
 Leave Link  702 at Tue Aug 23 17:59:35 2022, MaxMem=    23592960 cpu:         0.7
 (Enter /public/home/users/caep010/software/Gaussian09/g09/l703.exe)
 Compute integral first derivatives, UseDBF=F ICtDFT=           0.
 Integral derivatives from FoFJK, PRISM(SPDF).
 Calling FoFJK, ICntrl=      2127 FMM=F ISym2X=0 I1Cent= 0 IOpClX= 0 NMat=1 NMatS=1 NMatT=0.
 FoFJK:  IHMeth= 1 ICntrl=    2127 DoSepK=F KAlg= 0 I1Cent=   0 FoldK=F
 IRaf=         0 NMat=   1 IRICut=       1 DoRegI=T DoRafI=F ISym2E= 0.
 FoFCou: FMM=F IPFlag=           0 FMFlag=      100000 FMFlg1=         800
         NFxFlg=           0 DoJE=F BraDBF=F KetDBF=F FulRan=T
         wScrn=  0.000000 ICntrl=    2127 IOpCl=  0 I1Cent=           0 NGrid=           0
         NMat0=    1 NMatS0=      1 NMatT0=    0 NMatD0=    1 NMtDS0=    0 NMtDT0=    0
 Symmetry not used in FoFCou.
 CoulSu:  requested number of processors reduced to:   6 ShMem   1 Linda.
 CalDSu:  requested number of processors reduced to:  19 ShMem   1 Linda.
 Leave Link  703 at Tue Aug 23 17:59:37 2022, MaxMem=    23592960 cpu:        15.7
 (Enter /public/home/users/caep010/software/Gaussian09/g09/l716.exe)
 Dipole        =-1.25208418D+00-1.26151338D+00 2.98052691D-05
 ***** Axes restored to original set *****
 -------------------------------------------------------------------
 Center     Atomic                   Forces (Hartrees/Bohr)
 Number     Number              X              Y              Z
 -------------------------------------------------------------------
      1        6           0.006272837   -0.005065129    0.000200106
      2        6          -0.019544712    0.002228525    0.000895798
      3        7           0.091113207    0.027174154   -0.008445649
      4        7          -0.054437085   -0.042656708    0.008043690
      5        8          -0.001153242    0.030645337   -0.003406331
      6        1           0.000571204   -0.000854066    0.000062017
      7        1          -0.000053786    0.000505791   -0.000050427
      8        1           0.012698199   -0.003857886   -0.000315332
      9        1          -0.035466621   -0.008120019    0.003016129
 -------------------------------------------------------------------
 Cartesian Forces:  Max     0.091113207 RMS     0.024999564
 Leave Link  716 at Tue Aug 23 17:59:37 2022, MaxMem=    23592960 cpu:         0.9
 (Enter /public/home/users/caep010/software/Gaussian09/g09/l103.exe)

 GradGradGradGradGradGradGradGradGradGradGradGradGradGradGradGradGradGrad
 Berny optimization.
 FormGI is forming the generalized inverse of G from B-inverse, IUseBI=4.
 Internal  Forces:  Max     0.101765944 RMS     0.024102540
 Search for a local minimum.
 Step number   1 out of a maximum of   38
 All quantities printed in internal units (Hartrees-Bohrs-Radians)
 RMS Force = .24103D-01 SwitMx=.10000D-02 MixMth= 1
 Mixed Optimization -- RFO/linear search
 Second derivative matrix not updated -- first step.
 ITU=  0
     Eigenvalues ---    0.01217   0.01239   0.01283   0.02093   0.02981
     Eigenvalues ---    0.02981   0.16000   0.16000   0.16000   0.16000
     Eigenvalues ---    0.22000   0.25000   0.25000   0.35608   0.35722
     Eigenvalues ---    0.35734   0.40156   0.40643   0.45476   0.58900
     Eigenvalues ---    0.83666
 RFO step:  Lambda=-4.50899275D-02 EMin= 1.21712203D-02
 Linear search not attempted -- first point.
 Maximum step size (   0.300) exceeded in Quadratic search.
    -- Step size scaled by   0.765
 Iteration  1 RMS(Cart)=  0.10250887 RMS(Int)=  0.01058637
 Iteration  2 RMS(Cart)=  0.01644064 RMS(Int)=  0.00036571
 Iteration  3 RMS(Cart)=  0.00037515 RMS(Int)=  0.00000036
 Iteration  4 RMS(Cart)=  0.00000023 RMS(Int)=  0.00000033
 ITry= 1 IFail=0 DXMaxC= 5.41D-01 DCOld= 1.00D+10 DXMaxT= 3.00D-01 DXLimC= 3.00D+00 Rises=F
 Variable       Old X    -DE/DX   Delta X   Delta X   Delta X     New X
                                 (Linear)    (Quad)   (Total)
    R1        2.51821  -0.00502   0.00000  -0.00605  -0.00605   2.51216
    R2        2.04499   0.00068   0.00000   0.00129   0.00129   2.04628
    R3        2.04519   0.00039   0.00000   0.00074   0.00074   2.04593
    R4        2.71342  -0.00467   0.00000  -0.00799  -0.00799   2.70543
    R5        2.04699  -0.00099   0.00000  -0.00190  -0.00190   2.04510
    R6        2.64727  -0.10177   0.00000  -0.15570  -0.15570   2.49157
    R7        2.35997  -0.03009   0.00000  -0.02610  -0.02610   2.33387
    R8        1.97389  -0.01616   0.00000  -0.02738  -0.02738   1.94652
    A1        2.12052  -0.00084   0.00000  -0.00313  -0.00313   2.11740
    A2        2.09251   0.00008   0.00000   0.00032   0.00032   2.09282
    A3        2.07016   0.00075   0.00000   0.00281   0.00281   2.07297
    A4        2.13152  -0.00350   0.00000  -0.01009  -0.01009   2.12143
    A5        2.06969   0.01530   0.00000   0.05556   0.05556   2.12525
    A6        2.08197  -0.01180   0.00000  -0.04547  -0.04547   2.03650
    A7        2.09440  -0.00125   0.00000  -0.00324  -0.00324   2.09116
    A8        2.11120  -0.00744   0.00000  -0.01928  -0.01928   2.09192
    A9        2.07759   0.00869   0.00000   0.02252   0.02252   2.10011
   A10        2.11796  -0.06462   0.00000  -0.24095  -0.24095   1.87701
    D1        0.00007  -0.00000   0.00000  -0.00002  -0.00002   0.00005
    D2        3.14158   0.00000   0.00000   0.00000   0.00001   3.14158
    D3       -3.14148  -0.00000   0.00000  -0.00004  -0.00005  -3.14153
    D4        0.00003  -0.00000   0.00000  -0.00002  -0.00002   0.00001
    D5       -3.14155  -0.00000   0.00000  -0.00004  -0.00004  -3.14159
    D6       -0.00010   0.00001   0.00000   0.00007   0.00007  -0.00003
    D7        0.00013  -0.00001   0.00000  -0.00007  -0.00007   0.00006
    D8        3.14158   0.00000   0.00000   0.00004   0.00004  -3.14157
    D9       -0.00008   0.00000   0.00000   0.00004   0.00004  -0.00004
   D10       -3.14153  -0.00000   0.00000  -0.00006  -0.00006   3.14159
         Item               Value     Threshold  Converged?
 Maximum Force            0.101766     0.000450     NO 
 RMS     Force            0.024103     0.000300     NO 
 Maximum Displacement     0.540713     0.001800     NO 
 RMS     Displacement     0.116641     0.001200     NO 
 Predicted change in Energy=-2.332634D-02
 Lowest energy point so far.  Saving SCF results.
 GradGradGradGradGradGradGradGradGradGradGradGradGradGradGradGradGradGrad

 Leave Link  103 at Tue Aug 23 17:59:37 2022, MaxMem=    23592960 cpu:         3.4
 (Enter /public/home/users/caep010/software/Gaussian09/g09/l202.exe)
                          Input orientation:                          
 ---------------------------------------------------------------------
 Center     Atomic      Atomic             Coordinates (Angstroms)
 Number     Number       Type             X           Y           Z
 ---------------------------------------------------------------------
      1          6           0       -1.482277    0.032826    0.043895
      2          6           0       -0.208806    0.396073   -0.072598
      3          7           0        0.851455   -0.564848   -0.026686
      4          7           0        2.102701   -0.166619   -0.145814
      5          8           0        0.589835   -1.762373    0.124292
      6          1           0       -1.761618   -1.004757    0.177843
      7          1           0       -2.263023    0.781891    0.005335
      8          1           0        0.078565    1.430786   -0.206706
      9          1           0        2.093167    0.856922   -0.261061
 ---------------------------------------------------------------------
                    Distance matrix (angstroms):
                    1          2          3          4          5
     1  C    0.000000
     2  C    1.329378   0.000000
     3  N    2.410083   1.431653   0.000000
     4  N    3.595529   2.380136   1.318482   0.000000
     5  O    2.742781   2.309866   1.235032   2.215435   0.000000
     6  H    1.082845   2.106246   2.657726   3.967391   2.471069
     7  H    1.082660   2.091588   3.393333   4.470130   3.824426
     8  H    2.110289   1.082219   2.147632   2.579251   3.250726
     9  H    3.681838   2.355202   1.902159   1.030052   3.044537
                    6          7          8          9
     6  H    0.000000
     7  H    1.863674   0.000000
     8  H    3.076690   2.439070   0.000000
     9  H    4.303238   4.364973   2.095446   0.000000
 Stoichiometry    C2H4N2O
 Framework group  C1[X(C2H4N2O)]
 Deg. of freedom    21
 Full point group                 C1      NOp   1
 RotChk:  IX=0 Diff= 4.03D-02
 Largest Abelian subgroup         C1      NOp   1
 Largest concise Abelian subgroup C1      NOp   1
                         Standard orientation:                         
 ---------------------------------------------------------------------
 Center     Atomic      Atomic             Coordinates (Angstroms)
 Number     Number       Type             X           Y           Z
 ---------------------------------------------------------------------
      1          6           0       -1.882541   -0.007628   -0.000003
      2          6           0       -0.715309   -0.643880   -0.000011
      3          7           0        0.526329    0.068838    0.000009
      4          7           0        1.664364   -0.596947   -0.000006
      5          8           0        0.526363    1.303870    0.000003
      6          1           0       -1.933990    1.073993   -0.000026
      7          1           0       -2.805704   -0.573245    0.000041
      8          1           0       -0.655398   -1.724439    0.000020
      9          1           0        1.436437   -1.601465    0.000009
 ---------------------------------------------------------------------
 Rotational constants (GHZ):     11.4446068      4.6026396      3.2825196
 Leave Link  202 at Tue Aug 23 17:59:37 2022, MaxMem=    23592960 cpu:         0.2
 (Enter /public/home/users/caep010/software/Gaussian09/g09/l301.exe)
 Standard basis: GTBas3 (6D, 7F)
 Ernie: Thresh=  0.10000D-02 Tol=  0.10000D-05 Strict=F.
 There are   175 symmetry adapted cartesian basis functions of A   symmetry.
 There are   160 symmetry adapted basis functions of A   symmetry.
   160 basis functions,   248 primitive gaussians,   175 cartesian basis functions
    19 alpha electrons       19 beta electrons
       nuclear repulsion energy       167.0640158277 Hartrees.
 IExCor=  402 DFT=T Ex+Corr=B3LYP ExCW=0 ScaHFX=  0.200000
 ScaDFX=  0.800000  0.720000  1.000000  0.810000 ScalE2=  1.000000  1.000000
 IRadAn=      0 IRanWt=     -1 IRanGd=            0 ICorTp=0 IEmpDi=  4
 NAtoms=    9 NActive=    9 NUniq=    9 SFac= 1.00D+00 NAtFMM=   60 NAOKFM=F Big=F
 Integral buffers will be    131072 words long.
 Raffenetti 2 integral format.
 Two-electron integral symmetry is turned on.
 Leave Link  301 at Tue Aug 23 17:59:37 2022, MaxMem=    23592960 cpu:         1.7
 (Enter /public/home/users/caep010/software/Gaussian09/g09/l302.exe)
 NPDir=0 NMtPBC=     1 NCelOv=     1 NCel=       1 NClECP=     1 NCelD=      1
         NCelK=      1 NCelE2=     1 NClLst=     1 CellRange=     0.0.
 One-electron integrals computed using PRISM.
 PrsmSu:  requested number of processors reduced to:   3 ShMem   1 Linda.
 PrsmSu:  requested number of processors reduced to:  11 ShMem   1 Linda.
 NBasis=   160 RedAO= T EigKep=  3.46D-04  NBF=   160
 NBsUse=   160 1.00D-06 EigRej= -1.00D+00 NBFU=   160
 Precomputing XC quadrature grid using
 IXCGrd= 4 IRadAn=           0 IRanWt=          -1 IRanGd=           0 AccXCQ= 0.00D+00.
 Generated NRdTot=       0 NPtTot=           0 NUsed=           0 NTot=          32
 NSgBfM=   175   175   175   175   175 MxSgAt=     9 MxSgA2=     9.
 Leave Link  302 at Tue Aug 23 17:59:37 2022, MaxMem=    23592960 cpu:         3.7
 (Enter /public/home/users/caep010/software/Gaussian09/g09/l303.exe)
 DipDrv:  MaxL=1.
 Leave Link  303 at Tue Aug 23 17:59:37 2022, MaxMem=    23592960 cpu:         0.7
 (Enter /public/home/users/caep010/software/Gaussian09/g09/l401.exe)
 Initial guess from the checkpoint file:  "G4.Frag_1015.chk"
 B after Tr=    -0.000000   -0.000000   -0.000000
         Rot=    0.999936   -0.000000   -0.000000    0.011311 Ang=  -1.30 deg.
 Guess basis will be translated and rotated to current coordinates.
 JPrj=2 DoOrth=T DoCkMO=T.
 Generating alternative initial guess.
 ExpMin= 1.61D-01 ExpMax= 5.48D+03 ExpMxC= 8.25D+02 IAcc=1 IRadAn=         1 AccDes= 0.00D+00
 Harris functional with IExCor=  402 and IRadAn=       1 diagonalized for initial guess.
 HarFok:  IExCor=  402 AccDes= 0.00D+00 IRadAn=         1 IDoV= 1 UseB2=F ITyADJ=14
 ICtDFT=  3500011 ScaDFX=  1.000000  1.000000  1.000000  1.000000
 CalDSu:  requested number of processors reduced to:  21 ShMem   1 Linda.
 FoFCou: FMM=F IPFlag=           0 FMFlag=      100000 FMFlg1=           0
         NFxFlg=           0 DoJE=T BraDBF=F KetDBF=T FulRan=T
         wScrn=  0.000000 ICntrl=     500 IOpCl=  0 I1Cent=   200000004 NGrid=           0
         NMat0=    1 NMatS0=      1 NMatT0=    0 NMatD0=    1 NMtDS0=    0 NMtDT0=    0
 Petite list used in FoFCou.
 CoulSu:  requested number of processors reduced to:  11 ShMem   1 Linda.
 CoulSu:  requested number of processors reduced to:  11 ShMem   1 Linda.
 CoulSu:  requested number of processors reduced to:  12 ShMem   1 Linda.
 CoulSu:  requested number of processors reduced to:  12 ShMem   1 Linda.
 Harris En= -263.263013148660    
 Leave Link  401 at Tue Aug 23 17:59:38 2022, MaxMem=    23592960 cpu:         6.0
 (Enter /public/home/users/caep010/software/Gaussian09/g09/l502.exe)
 Closed shell SCF:
 Using DIIS extrapolation, IDIIS=  1040.
 Integral symmetry usage will be decided dynamically.
 IVT=      117295 IEndB=      117295 NGot=    23592960 MDV=    23523106
 LenX=    23523106 LenY=    23492040
 Requested convergence on RMS density matrix=1.00D-08 within 128 cycles.
 Requested convergence on MAX density matrix=1.00D-06.
 Requested convergence on             energy=1.00D-06.
 No special actions if energy rises.
 Fock matrices will be formed incrementally for  20 cycles.
 Integral accuracy reduced to 1.0D-05 until final iterations.

 Cycle   1  Pass 0  IDiag  1:
 FoFJK:  IHMeth= 1 ICntrl=       0 DoSepK=F KAlg= 0 I1Cent=   0 FoldK=F
 IRaf= 980000000 NMat=   1 IRICut=       1 DoRegI=T DoRafI=F ISym2E= 0.
 FoFCou: FMM=F IPFlag=           0 FMFlag=      100000 FMFlg1=           0
         NFxFlg=           0 DoJE=F BraDBF=F KetDBF=F FulRan=T
         wScrn=  0.000000 ICntrl=       0 IOpCl=  0 I1Cent=           0 NGrid=           0
         NMat0=    1 NMatS0=      1 NMatT0=    0 NMatD0=    1 NMtDS0=    0 NMtDT0=    0
 Symmetry not used in FoFCou.
 CoulSu:  requested number of processors reduced to:  11 ShMem   1 Linda.
 CalDSu:  requested number of processors reduced to:  21 ShMem   1 Linda.
 E= -263.228954809027    
 DIIS: error= 4.16D-03 at cycle   1 NSaved=   1.
 NSaved= 1 IEnMin= 1 EnMin= -263.228954809027     IErMin= 1 ErrMin= 4.16D-03
 ErrMax= 4.16D-03  0.00D+00 EMaxC= 1.00D-01 BMatC= 7.19D-03 BMatP= 7.19D-03
 IDIUse=3 WtCom= 9.58D-01 WtEn= 4.16D-02
 Coeff-Com:  0.100D+01
 Coeff-En:   0.100D+01
 Coeff:      0.100D+01
 Gap=     1.184 Goal=   None    Shift=    0.000
 GapD=    1.184 DampG=2.000 DampE=1.000 DampFc=2.0000 IDamp=-1.
 RMSDP=7.75D-04 MaxDP=2.48D-02              OVMax= 4.22D-02

 Cycle   2  Pass 0  IDiag  1:
 RMSU=  7.74D-04    CP:  9.98D-01
 CoulSu:  requested number of processors reduced to:  11 ShMem   1 Linda.
 CalDSu:  requested number of processors reduced to:  21 ShMem   1 Linda.
 E= -263.235441063039     Delta-E=       -0.006486254012 Rises=F Damp=F
 DIIS: error= 2.28D-03 at cycle   2 NSaved=   2.
 NSaved= 2 IEnMin= 2 EnMin= -263.235441063039     IErMin= 2 ErrMin= 2.28D-03
 ErrMax= 2.28D-03  0.00D+00 EMaxC= 1.00D-01 BMatC= 1.55D-03 BMatP= 7.19D-03
 IDIUse=3 WtCom= 9.77D-01 WtEn= 2.28D-02
 Coeff-Com:  0.222D+00 0.778D+00
 Coeff-En:   0.000D+00 0.100D+01
 Coeff:      0.217D+00 0.783D+00
 Gap=     0.176 Goal=   None    Shift=    0.000
 RMSDP=6.09D-04 MaxDP=3.26D-02 DE=-6.49D-03 OVMax= 6.76D-02

 Cycle   3  Pass 0  IDiag  1:
 RMSU=  5.95D-04    CP:  9.98D-01  8.35D-01
 CoulSu:  requested number of processors reduced to:  11 ShMem   1 Linda.
 CalDSu:  requested number of processors reduced to:  21 ShMem   1 Linda.
 E= -263.230936616610     Delta-E=        0.004504446429 Rises=F Damp=F
 DIIS: error= 5.00D-03 at cycle   3 NSaved=   3.
 NSaved= 3 IEnMin= 2 EnMin= -263.235441063039     IErMin= 2 ErrMin= 2.28D-03
 ErrMax= 5.00D-03  0.00D+00 EMaxC= 1.00D-01 BMatC= 6.46D-03 BMatP= 1.55D-03
 IDIUse=3 WtCom= 1.24D-01 WtEn= 8.76D-01
 Coeff-Com:  0.182D-01 0.669D+00 0.313D+00
 Coeff-En:   0.000D+00 0.738D+00 0.262D+00
 Coeff:      0.225D-02 0.730D+00 0.268D+00
 Gap=     0.177 Goal=   None    Shift=    0.000
 RMSDP=3.55D-04 MaxDP=1.72D-02 DE= 4.50D-03 OVMax= 3.97D-02

 Cycle   4  Pass 0  IDiag  1:
 RMSU=  1.22D-04    CP:  9.98D-01  9.80D-01  4.73D-01
 CoulSu:  requested number of processors reduced to:  11 ShMem   1 Linda.
 CalDSu:  requested number of processors reduced to:  21 ShMem   1 Linda.
 E= -263.236633136015     Delta-E=       -0.005696519405 Rises=F Damp=F
 DIIS: error= 9.93D-04 at cycle   4 NSaved=   4.
 NSaved= 4 IEnMin= 4 EnMin= -263.236633136015     IErMin= 4 ErrMin= 9.93D-04
 ErrMax= 9.93D-04  0.00D+00 EMaxC= 1.00D-01 BMatC= 2.42D-04 BMatP= 1.55D-03
 IDIUse=3 WtCom= 9.90D-01 WtEn= 9.93D-03
 Coeff-Com: -0.138D-01 0.335D+00 0.564D-01 0.622D+00
 Coeff-En:   0.000D+00 0.176D+00 0.000D+00 0.824D+00
 Coeff:     -0.136D-01 0.333D+00 0.558D-01 0.624D+00
 Gap=     0.179 Goal=   None    Shift=    0.000
 RMSDP=1.06D-04 MaxDP=4.31D-03 DE=-5.70D-03 OVMax= 7.73D-03

 Cycle   5  Pass 0  IDiag  1:
 RMSU=  3.63D-05    CP:  9.98D-01  1.00D+00  3.35D-01  5.76D-01
 CoulSu:  requested number of processors reduced to:  11 ShMem   1 Linda.
 CalDSu:  requested number of processors reduced to:  21 ShMem   1 Linda.
 E= -263.236851674741     Delta-E=       -0.000218538727 Rises=F Damp=F
 DIIS: error= 2.57D-04 at cycle   5 NSaved=   5.
 NSaved= 5 IEnMin= 5 EnMin= -263.236851674741     IErMin= 5 ErrMin= 2.57D-04
 ErrMax= 2.57D-04  0.00D+00 EMaxC= 1.00D-01 BMatC= 8.91D-06 BMatP= 2.42D-04
 IDIUse=3 WtCom= 9.97D-01 WtEn= 2.57D-03
 Coeff-Com: -0.707D-02 0.112D+00 0.785D-02 0.315D+00 0.572D+00
 Coeff-En:   0.000D+00 0.000D+00 0.000D+00 0.000D+00 0.100D+01
 Coeff:     -0.705D-02 0.112D+00 0.783D-02 0.314D+00 0.573D+00
 Gap=     0.179 Goal=   None    Shift=    0.000
 RMSDP=2.28D-05 MaxDP=8.87D-04 DE=-2.19D-04 OVMax= 1.89D-03

 Cycle   6  Pass 0  IDiag  1:
 RMSU=  1.18D-05    CP:  9.98D-01  1.01D+00  3.49D-01  6.73D-01  6.41D-01
 CoulSu:  requested number of processors reduced to:  11 ShMem   1 Linda.
 CalDSu:  requested number of processors reduced to:  21 ShMem   1 Linda.
 E= -263.236859695337     Delta-E=       -0.000008020596 Rises=F Damp=F
 DIIS: error= 8.25D-05 at cycle   6 NSaved=   6.
 NSaved= 6 IEnMin= 6 EnMin= -263.236859695337     IErMin= 6 ErrMin= 8.25D-05
 ErrMax= 8.25D-05  0.00D+00 EMaxC= 1.00D-01 BMatC= 1.26D-06 BMatP= 8.91D-06
 IDIUse=1 WtCom= 1.00D+00 WtEn= 0.00D+00
 Coeff-Com: -0.290D-02 0.346D-01 0.875D-03 0.125D+00 0.337D+00 0.505D+00
 Coeff:     -0.290D-02 0.346D-01 0.875D-03 0.125D+00 0.337D+00 0.505D+00
 Gap=     0.179 Goal=   None    Shift=    0.000
 RMSDP=6.94D-06 MaxDP=2.94D-04 DE=-8.02D-06 OVMax= 6.22D-04

 Initial convergence to 1.0D-05 achieved.  Increase integral accuracy.
 Cycle   7  Pass 1  IDiag  1:
 CoulSu:  requested number of processors reduced to:  11 ShMem   1 Linda.
 CalDSu:  requested number of processors reduced to:  21 ShMem   1 Linda.
 E= -263.236861889175     Delta-E=       -0.000002193838 Rises=F Damp=F
 DIIS: error= 2.57D-05 at cycle   1 NSaved=   1.
 NSaved= 1 IEnMin= 1 EnMin= -263.236861889175     IErMin= 1 ErrMin= 2.57D-05
 ErrMax= 2.57D-05  0.00D+00 EMaxC= 1.00D-01 BMatC= 1.63D-07 BMatP= 1.63D-07
 IDIUse=1 WtCom= 1.00D+00 WtEn= 0.00D+00
 Coeff-Com:  0.100D+01
 Coeff:      0.100D+01
 Gap=     0.179 Goal=   None    Shift=    0.000
 RMSDP=6.94D-06 MaxDP=2.94D-04 DE=-2.19D-06 OVMax= 3.57D-04

 Cycle   8  Pass 1  IDiag  1:
 RMSU=  7.21D-06    CP:  1.00D+00
 CoulSu:  requested number of processors reduced to:  11 ShMem   1 Linda.
 CalDSu:  requested number of processors reduced to:  21 ShMem   1 Linda.
 E= -263.236861651607     Delta-E=        0.000000237568 Rises=F Damp=F
 DIIS: error= 4.61D-05 at cycle   2 NSaved=   2.
 NSaved= 2 IEnMin= 1 EnMin= -263.236861889175     IErMin= 1 ErrMin= 2.57D-05
 ErrMax= 4.61D-05  0.00D+00 EMaxC= 1.00D-01 BMatC= 4.25D-07 BMatP= 1.63D-07
 IDIUse=1 WtCom= 1.00D+00 WtEn= 0.00D+00
 Coeff-Com:  0.628D+00 0.372D+00
 Coeff:      0.628D+00 0.372D+00
 Gap=     0.179 Goal=   None    Shift=    0.000
 RMSDP=3.44D-06 MaxDP=1.47D-04 DE= 2.38D-07 OVMax= 2.71D-04

 Cycle   9  Pass 1  IDiag  1:
 RMSU=  2.46D-06    CP:  1.00D+00  6.67D-01
 CoulSu:  requested number of processors reduced to:  11 ShMem   1 Linda.
 CalDSu:  requested number of processors reduced to:  21 ShMem   1 Linda.
 E= -263.236862015688     Delta-E=       -0.000000364080 Rises=F Damp=F
 DIIS: error= 8.34D-06 at cycle   3 NSaved=   3.
 NSaved= 3 IEnMin= 3 EnMin= -263.236862015688     IErMin= 3 ErrMin= 8.34D-06
 ErrMax= 8.34D-06  0.00D+00 EMaxC= 1.00D-01 BMatC= 1.61D-08 BMatP= 1.63D-07
 IDIUse=1 WtCom= 1.00D+00 WtEn= 0.00D+00
 Coeff-Com:  0.196D+00 0.187D+00 0.617D+00
 Coeff:      0.196D+00 0.187D+00 0.617D+00
 Gap=     0.179 Goal=   None    Shift=    0.000
 RMSDP=1.03D-06 MaxDP=4.27D-05 DE=-3.64D-07 OVMax= 9.45D-05

 Cycle  10  Pass 1  IDiag  1:
 RMSU=  9.64D-07    CP:  1.00D+00  6.73D-01  8.56D-01
 CoulSu:  requested number of processors reduced to:  11 ShMem   1 Linda.
 CalDSu:  requested number of processors reduced to:  21 ShMem   1 Linda.
 E= -263.236862018551     Delta-E=       -0.000000002864 Rises=F Damp=F
 DIIS: error= 6.53D-06 at cycle   4 NSaved=   4.
 NSaved= 4 IEnMin= 4 EnMin= -263.236862018551     IErMin= 4 ErrMin= 6.53D-06
 ErrMax= 6.53D-06  0.00D+00 EMaxC= 1.00D-01 BMatC= 1.11D-08 BMatP= 1.61D-08
 IDIUse=1 WtCom= 1.00D+00 WtEn= 0.00D+00
 Coeff-Com:  0.387D-01 0.807D-01 0.481D+00 0.399D+00
 Coeff:      0.387D-01 0.807D-01 0.481D+00 0.399D+00
 Gap=     0.179 Goal=   None    Shift=    0.000
 RMSDP=7.06D-07 MaxDP=3.61D-05 DE=-2.86D-09 OVMax= 7.89D-05

 Cycle  11  Pass 1  IDiag  1:
 RMSU=  3.48D-07    CP:  1.00D+00  6.83D-01  9.07D-01  3.81D-01
 CoulSu:  requested number of processors reduced to:  11 ShMem   1 Linda.
 CalDSu:  requested number of processors reduced to:  21 ShMem   1 Linda.
 E= -263.236862026712     Delta-E=       -0.000000008160 Rises=F Damp=F
 DIIS: error= 2.73D-06 at cycle   5 NSaved=   5.
 NSaved= 5 IEnMin= 5 EnMin= -263.236862026712     IErMin= 5 ErrMin= 2.73D-06
 ErrMax= 2.73D-06  0.00D+00 EMaxC= 1.00D-01 BMatC= 1.90D-09 BMatP= 1.11D-08
 IDIUse=1 WtCom= 1.00D+00 WtEn= 0.00D+00
 Coeff-Com: -0.228D-02 0.327D-01 0.267D+00 0.314D+00 0.389D+00
 Coeff:     -0.228D-02 0.327D-01 0.267D+00 0.314D+00 0.389D+00
 Gap=     0.179 Goal=   None    Shift=    0.000
 RMSDP=2.34D-07 MaxDP=9.99D-06 DE=-8.16D-09 OVMax= 2.27D-05

 Cycle  12  Pass 1  IDiag  1:
 RMSU=  8.28D-08    CP:  1.00D+00  6.88D-01  8.95D-01  4.78D-01  4.49D-01
 CoulSu:  requested number of processors reduced to:  11 ShMem   1 Linda.
 CalDSu:  requested number of processors reduced to:  21 ShMem   1 Linda.
 E= -263.236862028413     Delta-E=       -0.000000001702 Rises=F Damp=F
 DIIS: error= 3.23D-07 at cycle   6 NSaved=   6.
 NSaved= 6 IEnMin= 6 EnMin= -263.236862028413     IErMin= 6 ErrMin= 3.23D-07
 ErrMax= 3.23D-07  0.00D+00 EMaxC= 1.00D-01 BMatC= 2.42D-11 BMatP= 1.90D-09
 IDIUse=1 WtCom= 1.00D+00 WtEn= 0.00D+00
 Coeff-Com: -0.412D-02 0.981D-02 0.879D-01 0.121D+00 0.173D+00 0.612D+00
 Coeff:     -0.412D-02 0.981D-02 0.879D-01 0.121D+00 0.173D+00 0.612D+00
 Gap=     0.179 Goal=   None    Shift=    0.000
 RMSDP=2.70D-08 MaxDP=1.07D-06 DE=-1.70D-09 OVMax= 1.34D-06

 Cycle  13  Pass 1  IDiag  1:
 RMSU=  1.91D-08    CP:  1.00D+00  6.89D-01  8.96D-01  4.83D-01  4.64D-01
                    CP:  7.93D-01
 CoulSu:  requested number of processors reduced to:  11 ShMem   1 Linda.
 CalDSu:  requested number of processors reduced to:  21 ShMem   1 Linda.
 E= -263.236862028430     Delta-E=       -0.000000000016 Rises=F Damp=F
 DIIS: error= 7.16D-08 at cycle   7 NSaved=   7.
 NSaved= 7 IEnMin= 7 EnMin= -263.236862028430     IErMin= 7 ErrMin= 7.16D-08
 ErrMax= 7.16D-08  0.00D+00 EMaxC= 1.00D-01 BMatC= 1.03D-12 BMatP= 2.42D-11
 IDIUse=1 WtCom= 1.00D+00 WtEn= 0.00D+00
 Coeff-Com: -0.193D-02 0.406D-02 0.362D-01 0.509D-01 0.734D-01 0.286D+00
 Coeff-Com:  0.551D+00
 Coeff:     -0.193D-02 0.406D-02 0.362D-01 0.509D-01 0.734D-01 0.286D+00
 Coeff:      0.551D+00
 Gap=     0.179 Goal=   None    Shift=    0.000
 RMSDP=8.38D-09 MaxDP=3.81D-07 DE=-1.62D-11 OVMax= 8.43D-07

 SCF Done:  E(RB3LYP) =  -263.236862028     A.U. after   13 cycles
            NFock= 13  Conv=0.84D-08     -V/T= 2.0072
 KE= 2.613516770273D+02 PE=-9.490844415422D+02 EE= 2.574318866589D+02
 Leave Link  502 at Tue Aug 23 17:59:43 2022, MaxMem=    23592960 cpu:        84.9
 (Enter /public/home/users/caep010/software/Gaussian09/g09/l701.exe)
 Compute integral first derivatives.
 ... and contract with generalized density number  0.
 PrsmSu:  requested number of processors reduced to:   3 ShMem   1 Linda.
 PrsmSu:  requested number of processors reduced to:   6 ShMem   1 Linda.
 Leave Link  701 at Tue Aug 23 17:59:43 2022, MaxMem=    23592960 cpu:         1.7
 (Enter /public/home/users/caep010/software/Gaussian09/g09/l702.exe)
 L702 exits ... SP integral derivatives will be done elsewhere.
 Leave Link  702 at Tue Aug 23 17:59:43 2022, MaxMem=    23592960 cpu:         0.8
 (Enter /public/home/users/caep010/software/Gaussian09/g09/l703.exe)
 Compute integral first derivatives, UseDBF=F ICtDFT=           0.
 Integral derivatives from FoFJK, PRISM(SPDF).
 Calling FoFJK, ICntrl=      2127 FMM=F ISym2X=0 I1Cent= 0 IOpClX= 0 NMat=1 NMatS=1 NMatT=0.
 FoFJK:  IHMeth= 1 ICntrl=    2127 DoSepK=F KAlg= 0 I1Cent=   0 FoldK=F
 IRaf=         0 NMat=   1 IRICut=       1 DoRegI=T DoRafI=F ISym2E= 0.
 FoFCou: FMM=F IPFlag=           0 FMFlag=      100000 FMFlg1=         800
         NFxFlg=           0 DoJE=F BraDBF=F KetDBF=F FulRan=T
         wScrn=  0.000000 ICntrl=    2127 IOpCl=  0 I1Cent=           0 NGrid=           0
         NMat0=    1 NMatS0=      1 NMatT0=    0 NMatD0=    1 NMtDS0=    0 NMtDT0=    0
 Symmetry not used in FoFCou.
 CoulSu:  requested number of processors reduced to:   6 ShMem   1 Linda.
 CalDSu:  requested number of processors reduced to:  19 ShMem   1 Linda.
 Leave Link  703 at Tue Aug 23 17:59:44 2022, MaxMem=    23592960 cpu:        13.8
 (Enter /public/home/users/caep010/software/Gaussian09/g09/l716.exe)
 Dipole        =-1.32113638D+00-1.21012310D+00 1.89076103D-05
 ***** Axes restored to original set *****
 -------------------------------------------------------------------
 Center     Atomic                   Forces (Hartrees/Bohr)
 Number     Number              X              Y              Z
 -------------------------------------------------------------------
      1        6           0.004260892   -0.000912617   -0.000149269
      2        6          -0.020511068    0.005707887    0.000563521
      3        7           0.054187750    0.003460082   -0.003593227
      4        7          -0.031745864   -0.004976680    0.002440144
      5        8          -0.008622202    0.003360786    0.000129186
      6        1           0.001373049   -0.000335380   -0.000044060
      7        1          -0.000115177    0.000208826   -0.000014849
      8        1           0.005195100   -0.001605258   -0.000125449
      9        1          -0.004022479   -0.004907646    0.000794002
 -------------------------------------------------------------------
 Cartesian Forces:  Max     0.054187750 RMS     0.013095825
 Leave Link  716 at Tue Aug 23 17:59:45 2022, MaxMem=    23592960 cpu:         0.5
 (Enter /public/home/users/caep010/software/Gaussian09/g09/l103.exe)

 GradGradGradGradGradGradGradGradGradGradGradGradGradGradGradGradGradGrad
 Berny optimization.
 Using GEDIIS/GDIIS optimizer.
 FormGI is forming the generalized inverse of G from B-inverse, IUseBI=4.
 Internal  Forces:  Max     0.037220554 RMS     0.008216043
 Search for a local minimum.
 Step number   2 out of a maximum of   38
 All quantities printed in internal units (Hartrees-Bohrs-Radians)
 RMS Force = .82160D-02 SwitMx=.10000D-02 MixMth= 1
 Mixed Optimization -- RFO/linear search
 Update second derivatives using D2CorX and points    1    2
 DE= -2.28D-02 DEPred=-2.33D-02 R= 9.79D-01
 TightC=F SS=  1.41D+00  RLast= 3.00D-01 DXNew= 5.0454D-01 9.0000D-01
 Trust test= 9.79D-01 RLast= 3.00D-01 DXMaxT set to 5.05D-01
 ITU=  1  0
 Use linear search instead of GDIIS.
     Eigenvalues ---    0.01217   0.01239   0.01283   0.02143   0.02981
     Eigenvalues ---    0.02981   0.15757   0.16000   0.16000   0.20526
     Eigenvalues ---    0.21979   0.24802   0.25021   0.35609   0.35721
     Eigenvalues ---    0.35735   0.37724   0.40799   0.43457   0.58922
     Eigenvalues ---    0.84929
 RFO step:  Lambda=-3.18050385D-03 EMin= 1.21712203D-02
 Quartic linear search produced a step of  0.25564.
 Iteration  1 RMS(Cart)=  0.03376812 RMS(Int)=  0.00054416
 Iteration  2 RMS(Cart)=  0.00054398 RMS(Int)=  0.00000063
 Iteration  3 RMS(Cart)=  0.00000001 RMS(Int)=  0.00000063
 ITry= 1 IFail=0 DXMaxC= 8.26D-02 DCOld= 1.00D+10 DXMaxT= 5.05D-01 DXLimC= 3.00D+00 Rises=F
 Variable       Old X    -DE/DX   Delta X   Delta X   Delta X     New X
                                 (Linear)    (Quad)   (Total)
    R1        2.51216  -0.00502  -0.00155  -0.00887  -0.01041   2.50175
    R2        2.04628  -0.00003   0.00033  -0.00055  -0.00023   2.04605
    R3        2.04593   0.00023   0.00019   0.00054   0.00073   2.04666
    R4        2.70543   0.00930  -0.00204   0.03144   0.02940   2.73483
    R5        2.04510  -0.00014  -0.00048   0.00015  -0.00034   2.04476
    R6        2.49157  -0.03722  -0.03980  -0.05333  -0.09313   2.39844
    R7        2.33387  -0.00142  -0.00667   0.00500  -0.00167   2.33220
    R8        1.94652  -0.00492  -0.00700  -0.00624  -0.01324   1.93328
    A1        2.11740  -0.00189  -0.00080  -0.01305  -0.01385   2.10355
    A2        2.09282   0.00088   0.00008   0.00659   0.00667   2.09950
    A3        2.07297   0.00101   0.00072   0.00646   0.00718   2.08014
    A4        2.12143  -0.00239  -0.00258  -0.00933  -0.01191   2.10952
    A5        2.12525   0.00675   0.01420   0.02355   0.03775   2.16301
    A6        2.03650  -0.00436  -0.01162  -0.01422  -0.02585   2.01066
    A7        2.09116  -0.00058  -0.00083  -0.00162  -0.00245   2.08871
    A8        2.09192  -0.01038  -0.00493  -0.04407  -0.04900   2.04292
    A9        2.10011   0.01096   0.00576   0.04569   0.05145   2.15155
   A10        1.87701  -0.00794  -0.06160   0.05279  -0.00880   1.86821
    D1        0.00005  -0.00000  -0.00001  -0.00003  -0.00004   0.00001
    D2        3.14158   0.00000   0.00000   0.00000   0.00000   3.14159
    D3       -3.14153  -0.00000  -0.00001  -0.00003  -0.00005  -3.14158
    D4        0.00001  -0.00000  -0.00001  -0.00000  -0.00001  -0.00000
    D5       -3.14159  -0.00000  -0.00001   0.00007   0.00006  -3.14153
    D6       -0.00003   0.00000   0.00002  -0.00006  -0.00004  -0.00007
    D7        0.00006  -0.00000  -0.00002   0.00004   0.00002   0.00008
    D8       -3.14157   0.00000   0.00001  -0.00009  -0.00008   3.14154
    D9       -0.00004   0.00000   0.00001   0.00002   0.00002  -0.00002
   D10        3.14159  -0.00000  -0.00002   0.00014   0.00013  -3.14147
         Item               Value     Threshold  Converged?
 Maximum Force            0.037221     0.000450     NO 
 RMS     Force            0.008216     0.000300     NO 
 Maximum Displacement     0.082605     0.001800     NO 
 RMS     Displacement     0.033812     0.001200     NO 
 Predicted change in Energy=-3.030656D-03
 Lowest energy point so far.  Saving SCF results.
 GradGradGradGradGradGradGradGradGradGradGradGradGradGradGradGradGradGrad

 Leave Link  103 at Tue Aug 23 17:59:45 2022, MaxMem=    23592960 cpu:         1.2
 (Enter /public/home/users/caep010/software/Gaussian09/g09/l202.exe)
                          Input orientation:                          
 ---------------------------------------------------------------------
 Center     Atomic      Atomic             Coordinates (Angstroms)
 Number     Number       Type             X           Y           Z
 ---------------------------------------------------------------------
      1          6           0       -1.466938    0.031523    0.043131
      2          6           0       -0.203768    0.409926   -0.074499
      3          7           0        0.869268   -0.560064   -0.028322
      4          7           0        2.072264   -0.172219   -0.143383
      5          8           0        0.550729   -1.742573    0.124400
      6          1           0       -1.717906   -1.013274    0.176207
      7          1           0       -2.262664    0.765359    0.007227
      8          1           0        0.109031    1.436969   -0.209234
      9          1           0        2.049984    0.844252   -0.257027
 ---------------------------------------------------------------------
                    Distance matrix (angstroms):
                    1          2          3          4          5
     1  C    0.000000
     2  C    1.323867   0.000000
     3  N    2.411004   1.447211   0.000000
     4  N    3.549964   2.350310   1.269197   0.000000
     5  O    2.687936   2.289559   1.234147   2.202904   0.000000
     6  H    1.082725   2.093075   2.634520   3.895497   2.383540
     7  H    1.083044   2.090948   3.401030   4.437717   3.770760
     8  H    2.126651   1.082041   2.144488   2.539312   3.227367
     9  H    3.622066   2.302467   1.848919   1.023047   3.014119
                    6          7          8          9
     6  H    0.000000
     7  H    1.867846   0.000000
     8  H    3.080576   2.474439   0.000000
     9  H    4.223160   4.321456   2.029999   0.000000
 Stoichiometry    C2H4N2O
 Framework group  C1[X(C2H4N2O)]
 Deg. of freedom    21
 Full point group                 C1      NOp   1
 RotChk:  IX=2 Diff= 4.79D-03
 Largest Abelian subgroup         C1      NOp   1
 Largest concise Abelian subgroup C1      NOp   1
                         Standard orientation:                         
 ---------------------------------------------------------------------
 Center     Atomic      Atomic             Coordinates (Angstroms)
 Number     Number       Type             X           Y           Z
 ---------------------------------------------------------------------
      1          6           0       -1.859765   -0.012355   -0.000009
      2          6           0       -0.703645   -0.657344    0.000006
      3          7           0        0.549974    0.065748    0.000044
      4          7           0        1.645242   -0.575540   -0.000014
      5          8           0        0.486983    1.298286   -0.000014
      6          1           0       -1.885607    1.070062   -0.000005
      7          1           0       -2.792457   -0.562872   -0.000021
      8          1           0       -0.613585   -1.735630    0.000008
      9          1           0        1.409737   -1.571111   -0.000065
 ---------------------------------------------------------------------
 Rotational constants (GHZ):     11.5635638      4.7218880      3.3527994
 Leave Link  202 at Tue Aug 23 17:59:45 2022, MaxMem=    23592960 cpu:         0.2
 (Enter /public/home/users/caep010/software/Gaussian09/g09/l301.exe)
 Standard basis: GTBas3 (6D, 7F)
 Ernie: Thresh=  0.10000D-02 Tol=  0.10000D-05 Strict=F.
 There are   175 symmetry adapted cartesian basis functions of A   symmetry.
 There are   160 symmetry adapted basis functions of A   symmetry.
   160 basis functions,   248 primitive gaussians,   175 cartesian basis functions
    19 alpha electrons       19 beta electrons
       nuclear repulsion energy       168.5865823891 Hartrees.
 IExCor=  402 DFT=T Ex+Corr=B3LYP ExCW=0 ScaHFX=  0.200000
 ScaDFX=  0.800000  0.720000  1.000000  0.810000 ScalE2=  1.000000  1.000000
 IRadAn=      0 IRanWt=     -1 IRanGd=            0 ICorTp=0 IEmpDi=  4
 NAtoms=    9 NActive=    9 NUniq=    9 SFac= 1.00D+00 NAtFMM=   60 NAOKFM=F Big=F
 Integral buffers will be    131072 words long.
 Raffenetti 2 integral format.
 Two-electron integral symmetry is turned on.
 Leave Link  301 at Tue Aug 23 17:59:45 2022, MaxMem=    23592960 cpu:         1.3
 (Enter /public/home/users/caep010/software/Gaussian09/g09/l302.exe)
 NPDir=0 NMtPBC=     1 NCelOv=     1 NCel=       1 NClECP=     1 NCelD=      1
         NCelK=      1 NCelE2=     1 NClLst=     1 CellRange=     0.0.
 One-electron integrals computed using PRISM.
 PrsmSu:  requested number of processors reduced to:   3 ShMem   1 Linda.
 PrsmSu:  requested number of processors reduced to:  11 ShMem   1 Linda.
 NBasis=   160 RedAO= T EigKep=  3.20D-04  NBF=   160
 NBsUse=   160 1.00D-06 EigRej= -1.00D+00 NBFU=   160
 Precomputing XC quadrature grid using
 IXCGrd= 4 IRadAn=           0 IRanWt=          -1 IRanGd=           0 AccXCQ= 0.00D+00.
 Generated NRdTot=       0 NPtTot=           0 NUsed=           0 NTot=          32
 NSgBfM=   175   175   175   175   175 MxSgAt=     9 MxSgA2=     9.
 Leave Link  302 at Tue Aug 23 17:59:45 2022, MaxMem=    23592960 cpu:         5.2
 (Enter /public/home/users/caep010/software/Gaussian09/g09/l303.exe)
 DipDrv:  MaxL=1.
 Leave Link  303 at Tue Aug 23 17:59:45 2022, MaxMem=    23592960 cpu:         0.6
 (Enter /public/home/users/caep010/software/Gaussian09/g09/l401.exe)
 Initial guess from the checkpoint file:  "G4.Frag_1015.chk"
 B after Tr=     0.000000    0.000000    0.000000
         Rot=    0.999992   -0.000000   -0.000000   -0.004070 Ang=  -0.47 deg.
 Guess basis will be translated and rotated to current coordinates.
 JPrj=2 DoOrth=T DoCkMO=T.
 Generating alternative initial guess.
 ExpMin= 1.61D-01 ExpMax= 5.48D+03 ExpMxC= 8.25D+02 IAcc=1 IRadAn=         1 AccDes= 0.00D+00
 Harris functional with IExCor=  402 and IRadAn=       1 diagonalized for initial guess.
 HarFok:  IExCor=  402 AccDes= 0.00D+00 IRadAn=         1 IDoV= 1 UseB2=F ITyADJ=14
 ICtDFT=  3500011 ScaDFX=  1.000000  1.000000  1.000000  1.000000
 CalDSu:  requested number of processors reduced to:  21 ShMem   1 Linda.
 FoFCou: FMM=F IPFlag=           0 FMFlag=      100000 FMFlg1=           0
         NFxFlg=           0 DoJE=T BraDBF=F KetDBF=T FulRan=T
         wScrn=  0.000000 ICntrl=     500 IOpCl=  0 I1Cent=   200000004 NGrid=           0
         NMat0=    1 NMatS0=      1 NMatT0=    0 NMatD0=    1 NMtDS0=    0 NMtDT0=    0
 Petite list used in FoFCou.
 CoulSu:  requested number of processors reduced to:  11 ShMem   1 Linda.
 CoulSu:  requested number of processors reduced to:  11 ShMem   1 Linda.
 CoulSu:  requested number of processors reduced to:  12 ShMem   1 Linda.
 CoulSu:  requested number of processors reduced to:  12 ShMem   1 Linda.
 Harris En= -263.265274455505    
 Leave Link  401 at Tue Aug 23 17:59:46 2022, MaxMem=    23592960 cpu:         5.9
 (Enter /public/home/users/caep010/software/Gaussian09/g09/l502.exe)
 Closed shell SCF:
 Using DIIS extrapolation, IDIIS=  1040.
 Integral symmetry usage will be decided dynamically.
 IVT=      117295 IEndB=      117295 NGot=    23592960 MDV=    23523106
 LenX=    23523106 LenY=    23492040
 Requested convergence on RMS density matrix=1.00D-08 within 128 cycles.
 Requested convergence on MAX density matrix=1.00D-06.
 Requested convergence on             energy=1.00D-06.
 No special actions if energy rises.
 Fock matrices will be formed incrementally for  20 cycles.
 Integral accuracy reduced to 1.0D-05 until final iterations.

 Cycle   1  Pass 0  IDiag  1:
 FoFJK:  IHMeth= 1 ICntrl=       0 DoSepK=F KAlg= 0 I1Cent=   0 FoldK=F
 IRaf= 980000000 NMat=   1 IRICut=       1 DoRegI=T DoRafI=F ISym2E= 0.
 FoFCou: FMM=F IPFlag=           0 FMFlag=      100000 FMFlg1=           0
         NFxFlg=           0 DoJE=F BraDBF=F KetDBF=F FulRan=T
         wScrn=  0.000000 ICntrl=       0 IOpCl=  0 I1Cent=           0 NGrid=           0
         NMat0=    1 NMatS0=      1 NMatT0=    0 NMatD0=    1 NMtDS0=    0 NMtDT0=    0
 Symmetry not used in FoFCou.
 CoulSu:  requested number of processors reduced to:  11 ShMem   1 Linda.
 CalDSu:  requested number of processors reduced to:  21 ShMem   1 Linda.
 E= -263.236118408883    
 DIIS: error= 2.48D-03 at cycle   1 NSaved=   1.
 NSaved= 1 IEnMin= 1 EnMin= -263.236118408883     IErMin= 1 ErrMin= 2.48D-03
 ErrMax= 2.48D-03  0.00D+00 EMaxC= 1.00D-01 BMatC= 2.71D-03 BMatP= 2.71D-03
 IDIUse=3 WtCom= 9.75D-01 WtEn= 2.48D-02
 Coeff-Com:  0.100D+01
 Coeff-En:   0.100D+01
 Coeff:      0.100D+01
 Gap=     1.181 Goal=   None    Shift=    0.000
 GapD=    1.181 DampG=2.000 DampE=1.000 DampFc=2.0000 IDamp=-1.
 RMSDP=6.18D-04 MaxDP=2.18D-02              OVMax= 1.97D-02

 Cycle   2  Pass 0  IDiag  1:
 RMSU=  6.17D-04    CP:  9.99D-01
 CoulSu:  requested number of processors reduced to:  11 ShMem   1 Linda.
 CalDSu:  requested number of processors reduced to:  21 ShMem   1 Linda.
 E= -263.239048852229     Delta-E=       -0.002930443345 Rises=F Damp=F
 DIIS: error= 1.13D-03 at cycle   2 NSaved=   2.
 NSaved= 2 IEnMin= 2 EnMin= -263.239048852229     IErMin= 2 ErrMin= 1.13D-03
[...]
 Alpha virt. eigenvalues --    0.17337   0.18030   0.18282   0.18931   0.20001
 Alpha virt. eigenvalues --    0.20604   0.22058   0.23855   0.25574   0.26028
 Alpha virt. eigenvalues --    0.28120   0.29287   0.30794   0.31842   0.36088
 Alpha virt. eigenvalues --    0.36431   0.39207   0.39927   0.41943   0.42948
 Alpha virt. eigenvalues --    0.44451   0.45532   0.46839   0.47036   0.48342
 Alpha virt. eigenvalues --    0.50213   0.50577   0.51809   0.54390   0.56251
 Alpha virt. eigenvalues --    0.57059   0.58119   0.60924   0.60944   0.62885
 Alpha virt. eigenvalues --    0.63821   0.64626   0.67554   0.69357   0.70210
 Alpha virt. eigenvalues --    0.72673   0.73232   0.75238   0.76815   0.79485
 Alpha virt. eigenvalues --    0.82878   0.84048   0.84625   0.87501   0.88163
 Alpha virt. eigenvalues --    0.93219   0.94418   0.94583   0.97215   0.97358
 Alpha virt. eigenvalues --    0.97673   0.99918   1.01452   1.03823   1.08786
 Alpha virt. eigenvalues --    1.09158   1.10872   1.13604   1.14540   1.17538
 Alpha virt. eigenvalues --    1.19998   1.20196   1.22036   1.25540   1.26499
 Alpha virt. eigenvalues --    1.26710   1.29730   1.30165   1.31681   1.33120
 Alpha virt. eigenvalues --    1.34386   1.37207   1.39839   1.43744   1.45916
 Alpha virt. eigenvalues --    1.46564   1.47039   1.48443   1.50021   1.52336
 Alpha virt. eigenvalues --    1.54064   1.55016   1.55452   1.58021   1.58497
 Alpha virt. eigenvalues --    1.59900   1.62785   1.65441   1.68011   1.68815
 Alpha virt. eigenvalues --    1.69737   1.72870   1.75534   1.79769   1.83436
 Alpha virt. eigenvalues --    1.84565   1.86330   1.88533   1.93222   1.95136
 Alpha virt. eigenvalues --    1.95718   1.97724   2.01331   2.02283   2.03158
 Alpha virt. eigenvalues --    2.05787   2.09703   2.12898   2.17741   2.19182
 Alpha virt. eigenvalues --    2.25345   2.26289   2.27309   2.30227   2.31370
 Alpha virt. eigenvalues --    2.35122   2.37271   2.39406   2.41928   2.44127
 Alpha virt. eigenvalues --    2.44169   2.47123   2.50240   2.52640   2.53597
 Alpha virt. eigenvalues --    2.56523   2.56985   2.57980   2.60046   2.61722
 Alpha virt. eigenvalues --    2.63089   2.65736   2.65949   2.67204   2.68096
 Alpha virt. eigenvalues --    2.70665   2.71570   2.75931   2.77998   2.81439
 Alpha virt. eigenvalues --    2.81812   2.83574   2.87486   2.91185   2.91605
 Alpha virt. eigenvalues --    2.92479   2.94538   3.00762   3.02120   3.06608
 Alpha virt. eigenvalues --    3.07002   3.08099   3.13299   3.14420   3.16357
 Alpha virt. eigenvalues --    3.19687   3.20378   3.20831   3.22563   3.26487
 Alpha virt. eigenvalues --    3.29322   3.32591   3.34439   3.35098   3.37254
 Alpha virt. eigenvalues --    3.42143   3.42220   3.44743   3.45347   3.48359
 Alpha virt. eigenvalues --    3.49593   3.52719   3.52919   3.54347   3.57620
 Alpha virt. eigenvalues --    3.58704   3.61942   3.62506   3.69207   3.69739
 Alpha virt. eigenvalues --    3.71882   3.73159   3.73364   3.76830   3.81036
 Alpha virt. eigenvalues --    3.82042   3.83939   3.90880   3.94123   3.94369
 Alpha virt. eigenvalues --    3.96388   3.96799   3.99742   4.01740   4.05057
 Alpha virt. eigenvalues --    4.10593   4.11665   4.12961   4.18511   4.19957
 Alpha virt. eigenvalues --    4.22314   4.22335   4.25682   4.29671   4.31442
 Alpha virt. eigenvalues --    4.37795   4.39926   4.40389   4.46173   4.47897
 Alpha virt. eigenvalues --    4.56288   4.58522   4.65682   4.67603   4.70488
 Alpha virt. eigenvalues --    4.71664   4.75168   4.80609   4.81061   4.90745
 Alpha virt. eigenvalues --    4.95004   4.96924   5.01822   5.02708   5.05738
 Alpha virt. eigenvalues --    5.09139   5.15691   5.18465   5.21783   5.23865
 Alpha virt. eigenvalues --    5.26059   5.30439   5.31226   5.33858   5.35992
 Alpha virt. eigenvalues --    5.36882   5.38239   5.43943   5.48282   5.54349
 Alpha virt. eigenvalues --    5.56520   5.57353   5.59695   5.61381   5.66934
 Alpha virt. eigenvalues --    5.69879   5.70668   5.75146   5.79701   5.82842
 Alpha virt. eigenvalues --    5.86062   5.91138   5.94380   5.94892   5.97889
 Alpha virt. eigenvalues --    6.01618   6.01710   6.07166   6.08363   6.14989
 Alpha virt. eigenvalues --    6.18819   6.19529   6.21867   6.27406   6.33638
 Alpha virt. eigenvalues --    6.35313   6.40103   6.46981   6.47255   6.51632
 Alpha virt. eigenvalues --    6.59196   6.64653   6.64717   6.68788   6.83020
 Alpha virt. eigenvalues --    6.85501   6.92621   6.97677   7.05323   7.05989
 Alpha virt. eigenvalues --    7.11059   7.14710   7.22242   7.23740   7.32876
 Alpha virt. eigenvalues --    7.34025   7.39267   7.49465   7.55190   7.57555
 Alpha virt. eigenvalues --    7.59457   7.63616   7.68610   7.69524   7.77853
 Alpha virt. eigenvalues --    7.78818   7.80151   7.82416   7.87147   7.89691
 Alpha virt. eigenvalues --    7.98591   8.01406   8.02829   8.05335   8.09585
 Alpha virt. eigenvalues --    8.12627   8.13218   8.17629   8.19870   8.22104
 Alpha virt. eigenvalues --    8.24154   8.32866   8.34798   8.39543   8.43024
 Alpha virt. eigenvalues --    8.43116   8.52064   8.54350   8.57650   8.60996
 Alpha virt. eigenvalues --    8.64132   8.65461   8.67527   8.71422   8.75717
 Alpha virt. eigenvalues --    8.75823   8.78025   8.83016   8.85388   8.85898
 Alpha virt. eigenvalues --    8.88028   8.91073   8.99189   9.02324   9.04163
 Alpha virt. eigenvalues --    9.04391   9.08997   9.12561   9.18203   9.19124
 Alpha virt. eigenvalues --    9.19894   9.27638   9.27856   9.35720   9.39560
 Alpha virt. eigenvalues --    9.41037   9.43055   9.47767   9.50173   9.52825
 Alpha virt. eigenvalues --    9.61437   9.68675   9.70217   9.76562   9.79902
 Alpha virt. eigenvalues --    9.84966   9.91450   9.95337   9.98200   9.99435
 Alpha virt. eigenvalues --   10.07267  10.09256  10.13850  10.16389  10.17471
 Alpha virt. eigenvalues --   10.20333  10.25150  10.28500  10.34781  10.39276
 Alpha virt. eigenvalues --   10.40173  10.45449  10.57902  10.66057  10.66154
 Alpha virt. eigenvalues --   10.68628  10.74860  10.81524  10.83957  10.84961
 Alpha virt. eigenvalues --   10.91035  10.91440  10.94265  10.98290  11.02877
 Alpha virt. eigenvalues --   11.05143  11.11495  11.12565  11.18723  11.20870
 Alpha virt. eigenvalues --   11.25913  11.26660  11.31984  11.37685  11.40767
 Alpha virt. eigenvalues --   11.47150  11.51802  11.57135  11.58469  11.59934
 Alpha virt. eigenvalues --   11.68959  11.76334  11.78028  11.80667  11.84919
 Alpha virt. eigenvalues --   11.94511  11.99949  12.08312  12.08490  12.13322
 Alpha virt. eigenvalues --   12.18109  12.28466  12.31011  12.37562  12.38685
 Alpha virt. eigenvalues --   12.47900  12.56998  12.60991  12.69186  12.71112
 Alpha virt. eigenvalues --   12.73828  12.76091  12.78273  13.00653  13.07314
 Alpha virt. eigenvalues --   13.13204  13.13477  13.17854  13.20674  13.24865
 Alpha virt. eigenvalues --   13.25866  13.29782  13.37346  13.41728  13.66899
 Alpha virt. eigenvalues --   13.70216  13.82891  13.86305  14.05378  14.07007
 Alpha virt. eigenvalues --   14.26360  14.29440  14.30815  14.30882  14.31407
 Alpha virt. eigenvalues --   14.38141  14.40535  14.42445  14.50195  14.51368
 Alpha virt. eigenvalues --   14.61714  14.61783  14.64820  14.70085  14.73117
 Alpha virt. eigenvalues --   14.76861  14.79357  14.81910  14.87528  14.89521
 Alpha virt. eigenvalues --   14.96898  14.97103  15.03529  15.06706  15.10735
 Alpha virt. eigenvalues --   15.26867  15.28334  15.36122  15.42081  15.44723
 Alpha virt. eigenvalues --   15.47083  15.62453  15.67365  15.70798  15.82809
 Alpha virt. eigenvalues --   15.95822  16.19999  16.23048  16.25286  16.46644
 Alpha virt. eigenvalues --   16.49295  16.53771  16.74151  16.92172  17.03391
 Alpha virt. eigenvalues --   17.13329  17.16847  17.43930  17.51225  17.71100
 Alpha virt. eigenvalues --   17.83830  17.85339  18.01936  18.27521  18.32813
 Alpha virt. eigenvalues --   18.37561  18.46570  18.53684  18.59189  18.60435
 Alpha virt. eigenvalues --   18.73844  18.75603  18.83056  18.98777  19.08614
 Alpha virt. eigenvalues --   19.12131  19.18328  19.22075  19.32043  19.47255
 Alpha virt. eigenvalues --   19.61766  19.63598  19.64044  19.70939  19.76215
 Alpha virt. eigenvalues --   19.93964  20.28622  20.65699  21.20046  21.44156
 Alpha virt. eigenvalues --   21.99915  22.18915  22.35605  23.15148  23.32054
 Alpha virt. eigenvalues --   23.68527  24.54546  38.71993  41.22109  50.53620
 Alpha virt. eigenvalues --   53.47759  64.04198
          Condensed to atoms (all electrons):
               1          2          3          4          5          6
     1  C    4.888880   0.727506  -0.056707  -0.000694  -0.017602   0.398295
     2  C    0.727506   4.877292   0.377037  -0.074853  -0.079501  -0.014596
     3  N   -0.056707   0.377037   5.494946   0.475110   0.297835  -0.003950
     4  N   -0.000694  -0.074853   0.475110   6.902680  -0.149265  -0.000443
     5  O   -0.017602  -0.079501   0.297835  -0.149265   8.428603   0.003150
     6  H    0.398295  -0.014596  -0.003950  -0.000443   0.003150   0.372682
     7  H    0.399594  -0.022701   0.002891   0.000271   0.000678  -0.017955
     8  H   -0.024296   0.407984  -0.025253  -0.002157   0.002799   0.003575
     9  H    0.003843  -0.011499  -0.031878   0.297779   0.011093   0.000048
               7          8          9
     1  C    0.399594  -0.024296   0.003843
     2  C   -0.022701   0.407984  -0.011499
     3  N    0.002891  -0.025253  -0.031878
     4  N    0.000271  -0.002157   0.297779
     5  O    0.000678   0.002799   0.011093
     6  H   -0.017955   0.003575   0.000048
     7  H    0.416795  -0.003920  -0.000229
     8  H   -0.003920   0.431615  -0.001432
     9  H   -0.000229  -0.001432   0.445388
 Mulliken charges:
               1
     1  C   -0.318818
     2  C   -0.186669
     3  N    0.469968
     4  N   -0.448429
     5  O   -0.497789
     6  H    0.259192
     7  H    0.224575
     8  H    0.211084
     9  H    0.286887
 Sum of Mulliken charges =  -0.00000
 Mulliken charges with hydrogens summed into heavy atoms:
               1
     1  C    0.164948
     2  C    0.024415
     3  N    0.469968
     4  N   -0.161542
     5  O   -0.497789
 Electronic spatial extent (au):  <R**2>=            375.3350
 Charge=             -0.0000 electrons
 Dipole moment (field-independent basis, Debye):
    X=             -3.6303    Y=             -3.7927    Z=              0.0000  Tot=              5.2501
 Quadrupole moment (field-independent basis, Debye-Ang):
   XX=            -29.5521   YY=            -28.3028   ZZ=            -31.1831
   XY=             -2.6577   XZ=              0.0001   YZ=              0.0007
 Traceless Quadrupole moment (field-independent basis, Debye-Ang):
   XX=              0.1272   YY=              1.3765   ZZ=             -1.5038
   XY=             -2.6577   XZ=              0.0001   YZ=              0.0007
 Octapole moment (field-independent basis, Debye-Ang**2):
  XXX=            -20.6746  YYY=             -9.3372  ZZZ=             -0.0002  XYY=              0.3001
  XXY=             -1.2153  XXZ=             -0.0010  XZZ=              2.6920  YZZ=              1.8288
  YYZ=             -0.0013  XYZ=              0.0006
 Hexadecapole moment (field-independent basis, Debye-Ang**3):
 XXXX=           -312.9852 YYYY=           -123.9792 ZZZZ=            -31.9409 XXXY=              2.4049
 XXXZ=              0.0012 YYYX=            -10.9144 YYYZ=              0.0014 ZZZX=             -0.0001
 ZZZY=              0.0004 XXYY=            -68.2991 XXZZ=            -63.6834 YYZZ=            -29.6629
 XXYZ=              0.0022 YYXZ=             -0.0012 ZZXY=             -0.6512
 N-N= 1.678866195332D+02 E-N=-9.498792963884D+02  KE= 2.613598944864D+02
 PrsmSu:  requested number of processors reduced to:   1 ShMem   1 Linda.
 No NMR shielding tensors so no spin-rotation constants.
 Leave Link  601 at Tue Aug 23 19:42:36 2022, MaxMem=    23592960 cpu:        11.4
 (Enter /public/home/users/caep010/software/Gaussian09/g09/l9999.exe)
 1\1\GINC-B1761\SP\RHF\GFHFB2\C2H4N2O1\ROOT\23-Aug-2022\0\\#P Geom=AllC
 heck Guess=TCheck SCRF=Check HF/GFHFB2 SCF=Tight\\Frag_1015\\0,1\C,0,-
 1.4762391981,0.0355810595,0.0432227967\C,0,-0.2181793693,0.4225239701,
 -0.0751125692\N,0,0.8701931706,-0.5609018718,-0.0283784863\N,0,2.08002
 54045,-0.1776694533,-0.1432246654\O,0,0.5532402117,-1.7461906705,0.124
 7199133\H,0,-1.7064025435,-1.0142235593,0.175619205\H,0,-2.2812344492,
 0.7590462692,0.0090919048\H,0,0.1158362504,1.4432031682,-0.2103672153\
 H,0,2.0627605229,0.838531088,-0.2570708836\\Version=ES64L-G09RevE.01\S
 tate=1-A\HF=-261.7942374\RMSD=7.312e-09\Dipole=-1.0753128,1.7583645,-0
 .1353265\Quadrupole=0.9530913,0.1157198,-1.0688111,1.9600091,-0.344453
 1,-0.2551498\PG=C01 [X(C2H4N2O1)]\\@


 "WOULD YOU TELL ME PLEASE, WHICH WAY I OUGHT TO WALK FROM HERE?"
 "THAT DEPENDS A GREAT DEAL ON WHERE YOU WANT TO GO," SAID THE CAT.
 "I DON'T MUCH CARE WHERE -- ", SAID ALICE.
 "THEN IT DOESN'T MATTER WHICH WAY YOU WALK," SAID THE CAT.

                                      -- LEWIS CARROLL
 Diagonal vibrational polarizability:
        0.0000000       0.0000000       0.0000000

 Temperature=              298.150000 Pressure=                      1.000000
 E(ZPE)=                     0.066411 E(Thermal)=                    0.071269
 E(CCSD(T))=              -262.495830 E(Empiric)=                   -0.097258
 DE(Plus)=                  -0.021901 DE(2DF)=                      -0.196560
 E(Delta-G3XP)=             -0.329175 DE(HF)=                       -0.026706
 G4(0 K)=                 -263.101020 G4 Energy=                  -263.096162
 G4 Enthalpy=             -263.095218 G4 Free Energy=             -263.128850
 1\1\GINC-B1761\Mixed\G4\G4\C2H4N2O1\ROOT\23-Aug-2022\0\\#P Geom=AllChe
 ck Guess=TCheck SCRF=Check HF/GFHFB2 SCF=Tight\\Frag_1015\\0,1\C,0,-1.
 4762391981,0.0355810595,0.0432227967\C,0,-0.2181793693,0.4225239701,-0
 .0751125692\N,0,0.8701931706,-0.5609018718,-0.0283784863\N,0,2.0800254
 045,-0.1776694533,-0.1432246654\O,0,0.5532402117,-1.7461906705,0.12471
 99133\H,0,-1.7064025435,-1.0142235593,0.175619205\H,0,-2.2812344492,0.
 7590462692,0.0090919048\H,0,0.1158362504,1.4432031682,-0.2103672153\H,
 0,2.0627605229,0.838531088,-0.2570708836\\Version=ES64L-G09RevE.01\Sta
 te=1-A\MP2/GTBas1=-262.4408188\MP4/GTBas1=-262.5009091\CCSD(T)/G3Bas1=
 -262.4958304\MP2/GTBas2=-262.4619531\MP4/GTBas2=-262.5228097\MP2/GTBas
 3=-262.6264287\MP4/GTBas3=-262.6974692\HF/GTLargeXP=-261.7685874\MP2/G
 TLargeXP=-262.9767381\HF/GFHFB1=-261.789903\HF/GFHFB2=-261.7942374\G4=
 -263.1010196\FreqCoord=-2.7896877911,0.0672384581,0.0816792484,-0.4122
 992558,0.798454588,-0.1419421848,1.6444267751,-1.0599509252,-0.0536275
 672,3.9306783639,-0.335746609,-0.270655393,1.0454724858,-3.2998221431,
 0.2356864795,-3.2246334797,-1.9166047646,0.331872201,-4.3109083539,1.4
 343895709,0.0171812101,0.2188987896,2.727258742,-0.3975364243,3.898052
 466,1.5845941103,-0.4857935668\PG=C01 [X(C2H4N2O1)]\NImag=0\\0.8571498
 8,0.04803410,0.66604654,-0.04952497,-0.06538164,0.12356288,-0.52089859
 ,-0.13826329,0.04367659,0.78615156,-0.14445586,-0.15992889,0.02123555,
 0.20142044,0.63759094,0.04437774,0.02086791,-0.05287859,-0.06257519,-0
 .07109185,0.12646622,-0.04923444,0.02355719,0.00049729,-0.11378995,0.0
 2922654,-0.00120404,0.75231559,0.01250950,0.01655740,-0.00214681,0.002
 77952,-0.11982877,0.00450733,0.15492558,0.81783612,0.00174433,-0.00280
 371,0.00433110,0.00177432,0.00295167,-0.07887186,-0.04938879,-0.077551
 09,0.22553298,0.00352859,0.00749486,-0.00100309,-0.06044994,-0.0043817
 4,0.00557200,-0.43372657,-0.04107419,0.02721361,0.55324894,0.00484002,
 -0.00360894,0.00022391,0.01694341,0.01642468,0.00001907,-0.11064878,-0
 .16902786,0.01976840,0.10621150,0.59706291,-0.00070336,0.00006871,0.00
 094255,0.00317035,0.00127604,0.02512589,0.03506210,0.01565840,-0.05594
 601,-0.04235481,-0.06926612,0.05039687,-0.00581423,0.00428522,-0.00011
 129,0.01192944,0.02088506,-0.00222245,-0.14021888,-0.07837543,0.012567
 92,-0.02125070,-0.08431229,0.01123144,0.16277856,-0.00671891,-0.001371
 82,0.00060922,0.01093377,-0.06777348,0.00865294,-0.08929481,-0.4892301
 4,0.05187739,-0.05442829,-0.04528482,0.00916509,0.13070245,0.59831573,
 0.00113543,-0.00004283,0.00043775,-0.00109276,0.00805758,0.01346589,0.
 01381047,0.05125248,-0.08449877,0.00784257,0.01093226,0.00551295,-0.02
 218896,-0.07120135,0.04741587,-0.06673537,-0.05931061,0.00832643,-0.00
 233240,-0.03220345,0.00432173,-0.00017111,-0.00424377,-0.00008452,0.00
 198523,0.00170166,-0.00023627,0.00017338,0.00328533,-0.00041468,0.0639
 6721,-0.06545279,-0.32841702,0.03656714,-0.00312657,-0.00541961,0.0018
 3062,0.00086989,-0.00262373,-0.00085112,-0.00080229,-0.00102577,0.0003
 0413,0.00426641,-0.00065327,-0.00024090,0.07054946,0.34681536,0.009022
 14,0.03620391,-0.04408118,0.00103138,0.00355409,0.00866165,-0.00066205
 ,-0.00054971,-0.00959616,0.00004637,0.00015606,0.00122366,-0.00052520,
 -0.00018206,-0.00049486,-0.01024405,-0.04049695,0.03096959,-0.21465047
 ,0.14340784,-0.00565966,-0.01693885,0.02346823,-0.00149289,-0.00260715
 ,-0.00456458,0.00156783,-0.00166219,0.00111369,-0.00020572,0.00111406,
 0.00000568,-0.00009881,0.00757846,-0.00572110,0.00038313,0.22601894,0.
 14966685,-0.18813109,0.00829048,-0.01141885,0.00887177,-0.00002600,-0.
 00368745,-0.00384518,0.00236533,-0.00012949,0.00107622,-0.00045335,0.0
 0243541,0.00124634,-0.00034686,0.02009797,-0.00958614,0.00024658,-0.15
 740687,0.18976409,-0.00636841,0.00866167,-0.03702443,0.00245452,-0.002
 09505,0.00274680,0.00146727,0.00241888,0.01476652,-0.00006314,-0.00052
 694,-0.00293393,-0.00037434,-0.00020333,-0.00049621,-0.00253713,0.0017
 7688,0.00307521,0.00585171,-0.00938605,0.02503352,-0.00426277,-0.02989
 605,0.00393055,-0.08140251,-0.09170570,0.01320420,0.00284123,0.0221964
 0,-0.00277741,0.00076161,0.00083461,-0.00016773,-0.00190301,0.00657843
 ,-0.00046303,-0.00500304,-0.00019443,0.00093945,0.00094257,0.00039508,
 -0.00046159,0.09060113,0.00216681,-0.00144917,0.00060005,-0.08516972,-
 0.31071418,0.03638689,-0.01451260,-0.01891522,0.00281061,0.00062461,0.
 00193971,-0.00031067,0.00501449,-0.00262821,0.00032484,0.00003586,0.00
 060858,0.00111383,-0.00032783,0.00051548,-0.00072758,0.09069368,0.3291
 9646,0.00030300,0.00250001,0.00468962,0.01246569,0.03677494,-0.0385626
 7,0.00137243,0.00063362,-0.00182333,-0.00014376,-0.00032289,-0.0004380
 6,-0.00028456,0.00023287,0.00285746,0.00091335,0.00112774,0.01029380,-
 0.00037967,-0.00077058,-0.00598002,-0.01429835,-0.04007459,0.02782928,
 0.00091739,0.00069074,-0.00013184,-0.00226876,-0.00225354,0.00001890,-
 0.01540873,-0.06415302,0.00738271,-0.04243499,0.06331619,-0.00579601,-
 0.00680863,-0.00106367,0.00146976,0.00053764,-0.00038858,0.00000882,0.
 00020463,0.00004735,0.00003112,-0.00257521,0.00147469,0.00005187,0.067
 83665,-0.00058973,0.00030299,0.00000210,0.00590128,0.00077755,-0.00114
 689,0.00956443,-0.03092261,0.00143252,-0.01351496,-0.39755614,0.043557
 77,-0.00490132,0.00737966,0.00126478,0.00008755,0.00030159,-0.00004575
 ,0.00002494,0.00008850,0.00008152,0.00109798,0.00144655,-0.00010113,0.
 00232984,0.41818191,0.00001409,-0.00007404,0.00002030,-0.00090489,-0.0
 0066298,-0.00615333,-0.00095467,0.00577691,-0.01389447,0.00289024,0.03
 901625,-0.02388392,0.00190744,0.00104922,0.01579994,-0.00004487,-0.000
 01754,-0.00005170,0.00003408,0.00008045,0.00081255,0.00009393,-0.00012
 336,0.00113393,-0.00303533,-0.04504492,0.02621669\\0.00004045,-0.00005
 402,0.00000449,-0.00031654,0.00015607,0.00001431,0.00028223,0.00028841
 ,-0.00011246,-0.00013372,-0.00016487,0.00003520,0.00003981,-0.00034416
 ,0.00006523,0.00000152,0.00002674,-0.00000279,0.00001238,0.00003032,-0
 .00000543,0.00005415,0.00000931,-0.00000245,0.00001971,0.00005220,0.00
 000390\\\@
 Job cpu time:       0 days  1 hours 13 minutes 16.1 seconds.
 File lengths (MBytes):  RWF=   4433 Int=      0 D2E=      0 Chk=     20 Scr=      1
 Normal termination of Gaussian 09 at Tue Aug 23 19:42:36 2022.
