 Entering Gaussian System, Link 0=g09
 Input=G4.Frag_975.gjf
 Output=G4.Frag_975.log
 Initial command:
 /public/home/users/caep010/software/Gaussian09/g09/l1.exe "/public/home/users/caep010/.cache/gau_scr/Gau-181292.inp" -scrdir="/public/home/users/caep010/.cache/gau_scr/"
 Entering Link 1 = /public/home/users/caep010/software/Gaussian09/g09/l1.exe PID=    181293.
  
 Copyright (c) 1988,1990,1992,1993,1995,1998,2003,2009,2015,
            Gaussian, Inc.  All Rights Reserved.
  
 This is part of the Gaussian(R) 09 program.  It is based on
 the Gaussian(R) 03 system (copyright 2003, Gaussian, Inc.),
 the Gaussian(R) 98 system (copyright 1998, Gaussian, Inc.),
 the Gaussian(R) 94 system (copyright 1995, Gaussian, Inc.),
 the Gaussian 92(TM) system (copyright 1992, Gaussian, Inc.),
 the Gaussian 90(TM) system (copyright 1990, Gaussian, Inc.),
 the Gaussian 88(TM) system (copyright 1988, Gaussian, Inc.),
 the Gaussian 86(TM) system (copyright 1986, Carnegie Mellon
 University), and the Gaussian 82(TM) system (copyright 1983,
 Carnegie Mellon University). Gaussian is a federally registered
 trademark of Gaussian, Inc.
  
 This software contains proprietary and confidential information,
 including trade secrets, belonging to Gaussian, Inc.
  
 This software is provided under written license and may be
 used, copied, transmitted, or stored only in accord with that
 written license.
  
 The following legend is applicable only to US Government
 contracts under FAR:
  
                    RESTRICTED RIGHTS LEGEND
  
 Use, reproduction and disclosure by the US Government is
 subject to restrictions as set forth in subparagraphs (a)
 and (c) of the Commercial Computer Software - Restricted
 Rights clause in FAR 52.227-19.
  
 Gaussian, Inc.
 340 Quinnipiac St., Bldg. 40, Wallingford CT 06492
  
  
 ---------------------------------------------------------------
 Warning -- This program may not be used in any manner that
 competes with the business of Gaussian, Inc. or will provide
 assistance to any competitor of Gaussian, Inc.  The licensee
 of this program is prohibited from giving any competitor of
 Gaussian, Inc. access to this program.  By using this program,
 the user acknowledges that Gaussian, Inc. is engaged in the
 business of creating and licensing software in the field of
 computational chemistry and represents and warrants to the
 licensee that it is not a competitor of Gaussian, Inc. and that
 it will not use this program in any manner prohibited above.
 ---------------------------------------------------------------
  

 Cite this work as:
 Gaussian 09, Revision E.01,
 M. J. Frisch, G. W. Trucks, H. B. Schlegel, G. E. Scuseria, 
 M. A. Robb, J. R. Cheeseman, G. Scalmani, V. Barone, B. Mennucci, 
 G. A. Petersson, H. Nakatsuji, M. Caricato, X. Li, H. P. Hratchian, 
 A. F. Izmaylov, J. Bloino, G. Zheng, J. L. Sonnenberg, M. Hada, 
 M. Ehara, K. Toyota, R. Fukuda, J. Hasegawa, M. Ishida, T. Nakajima, 
 Y. Honda, O. Kitao, H. Nakai, T. Vreven, J. A. Montgomery, Jr., 
 J. E. Peralta, F. Ogliaro, M. Bearpark, J. J. Heyd, E. Brothers, 
 K. N. Kudin, V. N. Staroverov, T. Keith, R. Kobayashi, J. Normand, 
 K. Raghavachari, A. Rendell, J. C. Burant, S. S. Iyengar, J. Tomasi, 
 M. Cossi, N. Rega, J. M. Millam, M. Klene, J. E. Knox, J. B. Cross, 
 V. Bakken, C. Adamo, J. Jaramillo, R. Gomperts, R. E. Stratmann, 
 O. Yazyev, A. J. Austin, R. Cammi, C. Pomelli, J. W. Ochterski, 
 R. L. Martin, K. Morokuma, V. G. Zakrzewski, G. A. Voth, 
 P. Salvador, J. J. Dannenberg, S. Dapprich, A. D. Daniels, 
 O. Farkas, J. B. Foresman, J. V. Ortiz, J. Cioslowski, 
 and D. J. Fox, Gaussian, Inc., Wallingford CT, 2013.
 
 ******************************************
 Gaussian 09:  ES64L-G09RevE.01 30-Nov-2015
                23-Aug-2022 
 ******************************************
 %nproc=32
 Will use up to   32 processors via shared memory.
 %mem=180MB
 %chk=G4.Frag_975.chk
 -----
 #P G4
 -----
 1/14=-1,18=20,19=15,26=3,38=1/1,3;
 2/9=110,12=2,17=6,18=5,40=1/2;
 3/5=35,7=104,11=2,16=1,25=1,30=1,71=1,74=-5/1,2,3;
 4//1;
 5/5=2,38=5/2;
 6/7=2,8=2,9=2,10=2,28=1/1;
 7//1,2,3,16;
 1/14=-1,18=20,19=15,26=3/3(2);
 2/9=110/2;
 99//99;
 2/9=110/2;
 3/5=35,7=104,11=2,16=1,25=1,30=1,71=1,74=-5/1,2,3;
 4/5=5,16=3,69=1/1;
 5/5=2,38=5/2;
 7//1,2,3,16;
 1/14=-1,18=20,19=15,26=3/3(-5);
 2/9=110/2;
 6/7=2,8=2,9=2,10=2,19=2,28=1/1;
 99/9=1/99;
 Leave Link    1 at Tue Aug 23 16:08:56 2022, MaxMem=    23592960 cpu:         3.1
 (Enter /public/home/users/caep010/software/Gaussian09/g09/l101.exe)
 --------
 Frag_975
 --------
 Symbolic Z-matrix:
 Charge =  0 Multiplicity = 1
 N                    -0.6966   -0.1007    0.2045 
 C                     0.6504    0.1419   -0.1903 
 O                     1.4224   -0.8222   -0.4329 
 H                    -1.0552   -1.0771    0.2961 
 H                    -1.334     0.7011    0.405 
 H                     1.013     1.157    -0.2825 
 
 NAtoms=      6 NQM=        6 NQMF=       0 NMMI=      0 NMMIF=      0
                NMic=       0 NMicF=      0.
                    Isotopes and Nuclear Properties:
 (Nuclear quadrupole moments (NQMom) in fm**2, nuclear magnetic moments (NMagM)
  in nuclear magnetons)

  Atom         1           2           3           4           5           6
 IAtWgt=          14          12          16           1           1           1
 AtmWgt=  14.0030740  12.0000000  15.9949146   1.0078250   1.0078250   1.0078250
 NucSpn=           2           0           0           1           1           1
 AtZEff=   0.0000000   0.0000000   0.0000000   0.0000000   0.0000000   0.0000000
 NQMom=    2.0440000   0.0000000   0.0000000   0.0000000   0.0000000   0.0000000
 NMagM=    0.4037610   0.0000000   0.0000000   2.7928460   2.7928460   2.7928460
 AtZNuc=   7.0000000   6.0000000   8.0000000   1.0000000   1.0000000   1.0000000
 Leave Link  101 at Tue Aug 23 16:08:56 2022, MaxMem=    23592960 cpu:         2.5
 (Enter /public/home/users/caep010/software/Gaussian09/g09/l103.exe)

 GradGradGradGradGradGradGradGradGradGradGradGradGradGradGradGradGradGrad
 Berny optimization.
 Initialization pass.
                           ----------------------------
                           !    Initial Parameters    !
                           ! (Angstroms and Degrees)  !
 --------------------------                            --------------------------
 ! Name  Definition              Value          Derivative Info.                !
 --------------------------------------------------------------------------------
 ! R1    R(1,2)                  1.4245         estimate D2E/DX2                !
 ! R2    R(1,4)                  1.0442         estimate D2E/DX2                !
 ! R3    R(1,5)                  1.0437         estimate D2E/DX2                !
 ! R4    R(2,3)                  1.2587         estimate D2E/DX2                !
 ! R5    R(2,6)                  1.0819         estimate D2E/DX2                !
 ! A1    A(2,1,4)              120.5512         estimate D2E/DX2                !
 ! A2    A(2,1,5)              119.9928         estimate D2E/DX2                !
 ! A3    A(4,1,5)              119.456          estimate D2E/DX2                !
 ! A4    A(1,2,3)              120.1949         estimate D2E/DX2                !
 ! A5    A(1,2,6)              120.0236         estimate D2E/DX2                !
 ! A6    A(3,2,6)              119.7815         estimate D2E/DX2                !
 ! D1    D(4,1,2,3)             -0.0004         estimate D2E/DX2                !
 ! D2    D(4,1,2,6)           -179.9994         estimate D2E/DX2                !
 ! D3    D(5,1,2,3)            179.9932         estimate D2E/DX2                !
 ! D4    D(5,1,2,6)             -0.0058         estimate D2E/DX2                !
 --------------------------------------------------------------------------------
 Trust Radius=3.00D-01 FncErr=1.00D-07 GrdErr=1.00D-06
 Number of steps in this run=     25 maximum allowed number of steps=    100.
 GradGradGradGradGradGradGradGradGradGradGradGradGradGradGradGradGradGrad

 Leave Link  103 at Tue Aug 23 16:08:56 2022, MaxMem=    23592960 cpu:         0.4
 (Enter /public/home/users/caep010/software/Gaussian09/g09/l202.exe)
                          Input orientation:                          
 ---------------------------------------------------------------------
 Center     Atomic      Atomic             Coordinates (Angstroms)
 Number     Number       Type             X           Y           Z
 ---------------------------------------------------------------------
      1          7           0       -0.696600   -0.100700    0.204500
      2          6           0        0.650400    0.141900   -0.190300
      3          8           0        1.422400   -0.822200   -0.432900
      4          1           0       -1.055200   -1.077100    0.296100
      5          1           0       -1.334000    0.701100    0.405000
      6          1           0        1.013000    1.157000   -0.282500
 ---------------------------------------------------------------------
                    Distance matrix (angstroms):
                    1          2          3          4          5
     1  N    0.000000
     2  C    1.424476   0.000000
     3  O    2.327445   1.258701   0.000000
     4  H    1.044194   2.152119   2.595172   0.000000
     5  H    1.043725   2.145910   3.258874   1.803215   0.000000
     6  H    2.177547   1.081854   2.026687   3.098940   2.487752
                    6
     6  H    0.000000
 Stoichiometry    CH3NO
 Framework group  C1[X(CH3NO)]
 Deg. of freedom    12
 Full point group                 C1      NOp   1
 Largest Abelian subgroup         C1      NOp   1
 Largest concise Abelian subgroup C1      NOp   1
                         Standard orientation:                         
 ---------------------------------------------------------------------
 Center     Atomic      Atomic             Coordinates (Angstroms)
 Number     Number       Type             X           Y           Z
 ---------------------------------------------------------------------
      1          7           0       -1.115879   -0.160762   -0.000011
      2          6           0        0.176512    0.438284   -0.000009
      3          8           0        1.208379   -0.282533    0.000008
      4          1           0       -1.219273   -1.199825   -0.000004
      5          1           0       -1.969397    0.439961    0.000082
      6          1           0        0.273717    1.515762   -0.000007
 ---------------------------------------------------------------------
 Rotational constants (GHZ):     64.2219869     10.8713179      9.2974685
 Leave Link  202 at Tue Aug 23 16:08:56 2022, MaxMem=    23592960 cpu:         0.4
 (Enter /public/home/users/caep010/software/Gaussian09/g09/l301.exe)
 Standard basis: GTBas3 (6D, 7F)
 Ernie: Thresh=  0.10000D-02 Tol=  0.10000D-05 Strict=F.
 There are   108 symmetry adapted cartesian basis functions of A   symmetry.
 There are    99 symmetry adapted basis functions of A   symmetry.
    99 basis functions,   153 primitive gaussians,   108 cartesian basis functions
    12 alpha electrons       12 beta electrons
       nuclear repulsion energy        68.8983197747 Hartrees.
 IExCor=  402 DFT=T Ex+Corr=B3LYP ExCW=0 ScaHFX=  0.200000
 ScaDFX=  0.800000  0.720000  1.000000  0.810000 ScalE2=  1.000000  1.000000
 IRadAn=      0 IRanWt=     -1 IRanGd=            0 ICorTp=0 IEmpDi=  4
 NAtoms=    6 NActive=    6 NUniq=    6 SFac= 1.00D+00 NAtFMM=   60 NAOKFM=F Big=F
 Integral buffers will be    131072 words long.
 Raffenetti 2 integral format.
 Two-electron integral symmetry is turned on.
 Leave Link  301 at Tue Aug 23 16:08:56 2022, MaxMem=    23592960 cpu:         2.4
 (Enter /public/home/users/caep010/software/Gaussian09/g09/l302.exe)
 NPDir=0 NMtPBC=     1 NCelOv=     1 NCel=       1 NClECP=     1 NCelD=      1
         NCelK=      1 NCelE2=     1 NClLst=     1 CellRange=     0.0.
 One-electron integrals computed using PRISM.
 PrsmSu:  requested number of processors reduced to:   3 ShMem   1 Linda.
 PrsmSu:  requested number of processors reduced to:  12 ShMem   1 Linda.
 NBasis=    99 RedAO= T EigKep=  6.56D-04  NBF=    99
 NBsUse=    99 1.00D-06 EigRej= -1.00D+00 NBFU=    99
 Precomputing XC quadrature grid using
 IXCGrd= 4 IRadAn=           0 IRanWt=          -1 IRanGd=           0 AccXCQ= 0.00D+00.
 Generated NRdTot=       0 NPtTot=           0 NUsed=           0 NTot=          32
 NSgBfM=   108   108   108   108   108 MxSgAt=     6 MxSgA2=     6.
 Leave Link  302 at Tue Aug 23 16:08:57 2022, MaxMem=    23592960 cpu:         9.4
 (Enter /public/home/users/caep010/software/Gaussian09/g09/l303.exe)
 DipDrv:  MaxL=1.
 Leave Link  303 at Tue Aug 23 16:08:57 2022, MaxMem=    23592960 cpu:         2.7
 (Enter /public/home/users/caep010/software/Gaussian09/g09/l401.exe)
 ExpMin= 1.61D-01 ExpMax= 5.48D+03 ExpMxC= 8.25D+02 IAcc=1 IRadAn=         1 AccDes= 0.00D+00
 Harris functional with IExCor=  402 and IRadAn=       1 diagonalized for initial guess.
 HarFok:  IExCor=  402 AccDes= 0.00D+00 IRadAn=         1 IDoV= 1 UseB2=F ITyADJ=14
 ICtDFT=  3500011 ScaDFX=  1.000000  1.000000  1.000000  1.000000
 CalDSu:  requested number of processors reduced to:  23 ShMem   1 Linda.
 FoFCou: FMM=F IPFlag=           0 FMFlag=      100000 FMFlg1=           0
         NFxFlg=           0 DoJE=T BraDBF=F KetDBF=T FulRan=T
         wScrn=  0.000000 ICntrl=     500 IOpCl=  0 I1Cent=   200000004 NGrid=           0
         NMat0=    1 NMatS0=      1 NMatT0=    0 NMatD0=    1 NMtDS0=    0 NMtDT0=    0
 Petite list used in FoFCou.
 CoulSu:  requested number of processors reduced to:  11 ShMem   1 Linda.
 CoulSu:  requested number of processors reduced to:  11 ShMem   1 Linda.
 CoulSu:  requested number of processors reduced to:  12 ShMem   1 Linda.
 CoulSu:  requested number of processors reduced to:  12 ShMem   1 Linda.
 Harris En= -169.911602080060    
 JPrj=0 DoOrth=F DoCkMO=F.
 Leave Link  401 at Tue Aug 23 16:08:57 2022, MaxMem=    23592960 cpu:         6.5
 (Enter /public/home/users/caep010/software/Gaussian09/g09/l502.exe)
 Closed shell SCF:
 Using DIIS extrapolation, IDIIS=  1040.
 Integral symmetry usage will be decided dynamically.
 Keep R1 ints in memory in canonical form, NReq=14282124.
 IVT=       57784 IEndB=       57784 NGot=    23592960 MDV=    11281452
 LenX=    11281452 LenY=    11269347
 Requested convergence on RMS density matrix=1.00D-08 within 128 cycles.
 Requested convergence on MAX density matrix=1.00D-06.
 Requested convergence on             energy=1.00D-06.
 No special actions if energy rises.
 FoFCou: FMM=F IPFlag=           0 FMFlag=           0 FMFlg1=           0
         NFxFlg=           0 DoJE=F BraDBF=F KetDBF=F FulRan=T
         wScrn=  0.000000 ICntrl=     600 IOpCl=  0 I1Cent=           0 NGrid=           0
         NMat0=    1 NMatS0=   4950 NMatT0=    0 NMatD0=    1 NMtDS0=    0 NMtDT0=    0
 Symmetry not used in FoFCou.
 CoulSu:  requested number of processors reduced to:   5 ShMem   1 Linda.
 Integral accuracy reduced to 1.0D-05 until final iterations.

 Cycle   1  Pass 0  IDiag  1:
 CalDSu:  requested number of processors reduced to:  11 ShMem   1 Linda.
 E= -169.785497146712    
 DIIS: error= 3.83D-02 at cycle   1 NSaved=   1.
 NSaved= 1 IEnMin= 1 EnMin= -169.785497146712     IErMin= 1 ErrMin= 3.83D-02
 ErrMax= 3.83D-02  0.00D+00 EMaxC= 1.00D-01 BMatC= 1.35D-01 BMatP= 1.35D-01
 IDIUse=3 WtCom= 6.17D-01 WtEn= 3.83D-01
 Coeff-Com:  0.100D+01
 Coeff-En:   0.100D+01
 Coeff:      0.100D+01
 Gap=     0.238 Goal=   None    Shift=    0.000
 GapD=    0.238 DampG=1.000 DampE=0.500 DampFc=0.5000 IDamp=-1.
 Damping current iteration by 5.00D-01
 RMSDP=1.30D-02 MaxDP=3.86D-01              OVMax= 3.65D-01

 Cycle   2  Pass 0  IDiag  1:
 CalDSu:  requested number of processors reduced to:  11 ShMem   1 Linda.
 E= -169.770872903890     Delta-E=        0.014624242822 Rises=F Damp=T
 DIIS: error= 1.64D-02 at cycle   2 NSaved=   2.
 NSaved= 2 IEnMin= 1 EnMin= -169.785497146712     IErMin= 2 ErrMin= 1.64D-02
 ErrMax= 1.64D-02  0.00D+00 EMaxC= 1.00D-01 BMatC= 5.08D-02 BMatP= 1.35D-01
 IDIUse=3 WtCom= 8.36D-01 WtEn= 1.64D-01
 Coeff-Com:  0.357D+00 0.643D+00
 Coeff-En:   0.544D+00 0.456D+00
 Coeff:      0.388D+00 0.612D+00
 Gap=     0.303 Goal=   None    Shift=    0.000
 RMSDP=4.29D-03 MaxDP=1.81D-01 DE= 1.46D-02 OVMax= 2.34D-01

 Cycle   3  Pass 0  IDiag  1:
 CalDSu:  requested number of processors reduced to:  11 ShMem   1 Linda.
 E= -169.876179740256     Delta-E=       -0.105306836366 Rises=F Damp=F
 DIIS: error= 1.23D-02 at cycle   3 NSaved=   3.
 NSaved= 3 IEnMin= 3 EnMin= -169.876179740256     IErMin= 3 ErrMin= 1.23D-02
 ErrMax= 1.23D-02  0.00D+00 EMaxC= 1.00D-01 BMatC= 2.03D-02 BMatP= 5.08D-02
 IDIUse=3 WtCom= 8.77D-01 WtEn= 1.23D-01
 Coeff-Com:  0.166D+00 0.386D+00 0.448D+00
 Coeff-En:   0.000D+00 0.000D+00 0.100D+01
 Coeff:      0.145D+00 0.339D+00 0.516D+00
 Gap=     0.281 Goal=   None    Shift=    0.000
 RMSDP=1.57D-03 MaxDP=5.02D-02 DE=-1.05D-01 OVMax= 7.94D-02

 Cycle   4  Pass 0  IDiag  1:
 CalDSu:  requested number of processors reduced to:  11 ShMem   1 Linda.
 E= -169.890988404370     Delta-E=       -0.014808664114 Rises=F Damp=F
 DIIS: error= 4.88D-03 at cycle   4 NSaved=   4.
 NSaved= 4 IEnMin= 4 EnMin= -169.890988404370     IErMin= 4 ErrMin= 4.88D-03
 ErrMax= 4.88D-03  0.00D+00 EMaxC= 1.00D-01 BMatC= 3.79D-03 BMatP= 2.03D-02
 IDIUse=3 WtCom= 9.51D-01 WtEn= 4.88D-02
 Coeff-Com:  0.252D-01 0.649D-01 0.308D+00 0.602D+00
 Coeff-En:   0.000D+00 0.000D+00 0.176D+00 0.824D+00
 Coeff:      0.239D-01 0.618D-01 0.301D+00 0.613D+00
 Gap=     0.258 Goal=   None    Shift=    0.000
 RMSDP=6.04D-04 MaxDP=2.03D-02 DE=-1.48D-02 OVMax= 2.53D-02

 Cycle   5  Pass 0  IDiag  1:
 CalDSu:  requested number of processors reduced to:  11 ShMem   1 Linda.
 E= -169.893942971581     Delta-E=       -0.002954567211 Rises=F Damp=F
 DIIS: error= 1.11D-03 at cycle   5 NSaved=   5.
 NSaved= 5 IEnMin= 5 EnMin= -169.893942971581     IErMin= 5 ErrMin= 1.11D-03
 ErrMax= 1.11D-03  0.00D+00 EMaxC= 1.00D-01 BMatC= 1.77D-04 BMatP= 3.79D-03
 IDIUse=3 WtCom= 9.89D-01 WtEn= 1.11D-02
 Coeff-Com:  0.148D-02 0.360D-03 0.116D+00 0.312D+00 0.570D+00
 Coeff-En:   0.000D+00 0.000D+00 0.000D+00 0.000D+00 0.100D+01
 Coeff:      0.146D-02 0.356D-03 0.115D+00 0.308D+00 0.575D+00
 Gap=     0.259 Goal=   None    Shift=    0.000
 RMSDP=1.42D-04 MaxDP=3.39D-03 DE=-2.95D-03 OVMax= 5.32D-03

 Cycle   6  Pass 0  IDiag  1:
 CalDSu:  requested number of processors reduced to:  11 ShMem   1 Linda.
 E= -169.894108804158     Delta-E=       -0.000165832577 Rises=F Damp=F
 DIIS: error= 2.06D-04 at cycle   6 NSaved=   6.
 NSaved= 6 IEnMin= 6 EnMin= -169.894108804158     IErMin= 6 ErrMin= 2.06D-04
 ErrMax= 2.06D-04  0.00D+00 EMaxC= 1.00D-01 BMatC= 7.68D-06 BMatP= 1.77D-04
 IDIUse=3 WtCom= 9.98D-01 WtEn= 2.06D-03
 Coeff-Com:  0.372D-03-0.422D-02 0.260D-01 0.648D-01 0.211D+00 0.703D+00
 Coeff-En:   0.000D+00 0.000D+00 0.000D+00 0.000D+00 0.000D+00 0.100D+01
 Coeff:      0.371D-03-0.422D-02 0.259D-01 0.647D-01 0.210D+00 0.703D+00
 Gap=     0.259 Goal=   None    Shift=    0.000
 RMSDP=3.31D-05 MaxDP=1.11D-03 DE=-1.66D-04 OVMax= 8.26D-04

 Cycle   7  Pass 0  IDiag  1:
 CalDSu:  requested number of processors reduced to:  11 ShMem   1 Linda.
 E= -169.894115722341     Delta-E=       -0.000006918182 Rises=F Damp=F
 DIIS: error= 2.94D-05 at cycle   7 NSaved=   7.
 NSaved= 7 IEnMin= 7 EnMin= -169.894115722341     IErMin= 7 ErrMin= 2.94D-05
 ErrMax= 2.94D-05  0.00D+00 EMaxC= 1.00D-01 BMatC= 2.30D-07 BMatP= 7.68D-06
 IDIUse=1 WtCom= 1.00D+00 WtEn= 0.00D+00
 Coeff-Com:  0.307D-03-0.124D-02 0.212D-02 0.102D-02 0.256D-01 0.111D+00
 Coeff-Com:  0.861D+00
 Coeff:      0.307D-03-0.124D-02 0.212D-02 0.102D-02 0.256D-01 0.111D+00
 Coeff:      0.861D+00
 Gap=     0.260 Goal=   None    Shift=    0.000
 RMSDP=6.17D-06 MaxDP=2.10D-04 DE=-6.92D-06 OVMax= 1.67D-04

 Initial convergence to 1.0D-05 achieved.  Increase integral accuracy.
 Cycle   8  Pass 1  IDiag  1:
 CalDSu:  requested number of processors reduced to:  11 ShMem   1 Linda.
 E= -169.894134819908     Delta-E=       -0.000019097567 Rises=F Damp=F
 DIIS: error= 6.48D-06 at cycle   1 NSaved=   1.
 NSaved= 1 IEnMin= 1 EnMin= -169.894134819908     IErMin= 1 ErrMin= 6.48D-06
 ErrMax= 6.48D-06  0.00D+00 EMaxC= 1.00D-01 BMatC= 1.22D-08 BMatP= 1.22D-08
 IDIUse=1 WtCom= 1.00D+00 WtEn= 0.00D+00
 Coeff-Com:  0.100D+01
 Coeff:      0.100D+01
 Gap=     0.260 Goal=   None    Shift=    0.000
 RMSDP=6.17D-06 MaxDP=2.10D-04 DE=-1.91D-05 OVMax= 7.11D-05

 Cycle   9  Pass 1  IDiag  1:
 CalDSu:  requested number of processors reduced to:  11 ShMem   1 Linda.
 E= -169.894134813370     Delta-E=        0.000000006538 Rises=F Damp=F
 DIIS: error= 1.01D-05 at cycle   2 NSaved=   2.
 NSaved= 2 IEnMin= 1 EnMin= -169.894134819908     IErMin= 1 ErrMin= 6.48D-06
 ErrMax= 1.01D-05  0.00D+00 EMaxC= 1.00D-01 BMatC= 2.05D-08 BMatP= 1.22D-08
 IDIUse=1 WtCom= 1.00D+00 WtEn= 0.00D+00
 Coeff-Com:  0.581D+00 0.419D+00
 Coeff:      0.581D+00 0.419D+00
 Gap=     0.260 Goal=   None    Shift=    0.000
 RMSDP=1.87D-06 MaxDP=5.33D-05 DE= 6.54D-09 OVMax= 8.70D-05

 Cycle  10  Pass 1  IDiag  1:
 CalDSu:  requested number of processors reduced to:  11 ShMem   1 Linda.
 E= -169.894134827363     Delta-E=       -0.000000013993 Rises=F Damp=F
 DIIS: error= 4.56D-06 at cycle   3 NSaved=   3.
 NSaved= 3 IEnMin= 3 EnMin= -169.894134827363     IErMin= 3 ErrMin= 4.56D-06
 ErrMax= 4.56D-06  0.00D+00 EMaxC= 1.00D-01 BMatC= 4.37D-09 BMatP= 1.22D-08
 IDIUse=1 WtCom= 1.00D+00 WtEn= 0.00D+00
 Coeff-Com:  0.950D-01 0.308D+00 0.597D+00
 Coeff:      0.950D-01 0.308D+00 0.597D+00
 Gap=     0.260 Goal=   None    Shift=    0.000
 RMSDP=5.39D-07 MaxDP=1.50D-05 DE=-1.40D-08 OVMax= 2.01D-05

 Cycle  11  Pass 1  IDiag  1:
 CalDSu:  requested number of processors reduced to:  11 ShMem   1 Linda.
 E= -169.894134830567     Delta-E=       -0.000000003204 Rises=F Damp=F
 DIIS: error= 9.80D-07 at cycle   4 NSaved=   4.
 NSaved= 4 IEnMin= 4 EnMin= -169.894134830567     IErMin= 4 ErrMin= 9.80D-07
 ErrMax= 9.80D-07  0.00D+00 EMaxC= 1.00D-01 BMatC= 1.24D-10 BMatP= 4.37D-09
 IDIUse=1 WtCom= 1.00D+00 WtEn= 0.00D+00
 Coeff-Com: -0.192D-02 0.115D+00 0.248D+00 0.639D+00
 Coeff:     -0.192D-02 0.115D+00 0.248D+00 0.639D+00
 Gap=     0.260 Goal=   None    Shift=    0.000
 RMSDP=1.10D-07 MaxDP=3.22D-06 DE=-3.20D-09 OVMax= 4.90D-06

 Cycle  12  Pass 1  IDiag  1:
 CalDSu:  requested number of processors reduced to:  11 ShMem   1 Linda.
 E= -169.894134830654     Delta-E=       -0.000000000087 Rises=F Damp=F
 DIIS: error= 4.90D-07 at cycle   5 NSaved=   5.
 NSaved= 5 IEnMin= 5 EnMin= -169.894134830654     IErMin= 5 ErrMin= 4.90D-07
 ErrMax= 4.90D-07  0.00D+00 EMaxC= 1.00D-01 BMatC= 2.65D-11 BMatP= 1.24D-10
 IDIUse=1 WtCom= 1.00D+00 WtEn= 0.00D+00
 Coeff-Com: -0.734D-02 0.486D-01 0.976D-01 0.375D+00 0.486D+00
 Coeff:     -0.734D-02 0.486D-01 0.976D-01 0.375D+00 0.486D+00
 Gap=     0.260 Goal=   None    Shift=    0.000
 RMSDP=3.71D-08 MaxDP=1.11D-06 DE=-8.69D-11 OVMax= 1.86D-06

 Cycle  13  Pass 1  IDiag  1:
 CalDSu:  requested number of processors reduced to:  11 ShMem   1 Linda.
 E= -169.894134830675     Delta-E=       -0.000000000021 Rises=F Damp=F
 DIIS: error= 7.56D-08 at cycle   6 NSaved=   6.
 NSaved= 6 IEnMin= 6 EnMin= -169.894134830675     IErMin= 6 ErrMin= 7.56D-08
 ErrMax= 7.56D-08  0.00D+00 EMaxC= 1.00D-01 BMatC= 7.68D-13 BMatP= 2.65D-11
 IDIUse=1 WtCom= 1.00D+00 WtEn= 0.00D+00
 Coeff-Com: -0.207D-02 0.105D-01 0.129D-01 0.782D-01 0.155D+00 0.745D+00
 Coeff:     -0.207D-02 0.105D-01 0.129D-01 0.782D-01 0.155D+00 0.745D+00
 Gap=     0.260 Goal=   None    Shift=    0.000
 RMSDP=8.11D-09 MaxDP=2.55D-07 DE=-2.07D-11 OVMax= 2.05D-07

 SCF Done:  E(RB3LYP) =  -169.894134831     A.U. after   13 cycles
            NFock= 13  Conv=0.81D-08     -V/T= 2.0089
 KE= 1.683978041226D+02 PE=-5.360306249106D+02 EE= 1.288403661827D+02
 Leave Link  502 at Tue Aug 23 16:08:59 2022, MaxMem=    23592960 cpu:        15.9
 (Enter /public/home/users/caep010/software/Gaussian09/g09/l601.exe)
 Copying SCF densities to generalized density rwf, IOpCl= 0 IROHF=0.

 **********************************************************************

            Population analysis using the SCF density.

 **********************************************************************

 Orbital symmetries:
       Occupied  (A) (A) (A) (A) (A) (A) (A) (A) (A) (A) (A) (A)
       Virtual   (A) (A) (A) (A) (A) (A) (A) (A) (A) (A) (A) (A)
                 (A) (A) (A) (A) (A) (A) (A) (A) (A) (A) (A) (A)
                 (A) (A) (A) (A) (A) (A) (A) (A) (A) (A) (A) (A)
                 (A) (A) (A) (A) (A) (A) (A) (A) (A) (A) (A) (A)
                 (A) (A) (A) (A) (A) (A) (A) (A) (A) (A) (A) (A)
                 (A) (A) (A) (A) (A) (A) (A) (A) (A) (A) (A) (A)
                 (A) (A) (A) (A) (A) (A) (A) (A) (A) (A) (A) (A)
                 (A) (A) (A)
 The electronic state is 1-A.
 Alpha  occ. eigenvalues --  -19.10914 -14.36405 -10.29214  -1.00625  -0.88113
 Alpha  occ. eigenvalues --   -0.61888  -0.53249  -0.48340  -0.40202  -0.38372
 Alpha  occ. eigenvalues --   -0.26481  -0.25153
 Alpha virt. eigenvalues --    0.00803   0.06343   0.10488   0.15445   0.24331
 Alpha virt. eigenvalues --    0.29235   0.43391   0.49654   0.53267   0.55170
 Alpha virt. eigenvalues --    0.57676   0.68342   0.71343   0.71682   0.75653
 Alpha virt. eigenvalues --    0.77285   0.79851   0.83778   0.96423   0.97283
 Alpha virt. eigenvalues --    0.97658   1.00879   1.06654   1.07872   1.10626
 Alpha virt. eigenvalues --    1.28747   1.35705   1.42294   1.43144   1.52681
 Alpha virt. eigenvalues --    1.57290   1.67550   1.74219   1.79166   1.90916
 Alpha virt. eigenvalues --    1.97554   2.20566   2.30639   2.46412   2.58519
 Alpha virt. eigenvalues --    2.61507   2.75854   2.81003   2.89592   2.91693
 Alpha virt. eigenvalues --    3.00331   3.06251   3.17856   3.28546   3.36550
 Alpha virt. eigenvalues --    3.39236   3.56438   3.78882   4.00440   4.00747
 Alpha virt. eigenvalues --    4.07623   4.07990   4.11686   4.18536   4.20593
 Alpha virt. eigenvalues --    4.28021   4.30621   4.31895   4.34371   4.37578
 Alpha virt. eigenvalues --    4.41420   4.47776   4.57463   4.63228   4.66843
 Alpha virt. eigenvalues --    4.75881   4.90417   5.06645   5.10980   5.13678
 Alpha virt. eigenvalues --    5.21210   5.41547   5.46622   5.67136   5.94156
 Alpha virt. eigenvalues --    6.23101   6.32149   6.66058   8.82713  10.89737
 Alpha virt. eigenvalues --   11.38589  12.84314
          Condensed to atoms (all electrons):
               1          2          3          4          5          6
     1  N    6.749335   0.284777  -0.073557   0.314653   0.316053  -0.087320
     2  C    0.284777   4.468316   0.726665  -0.008258  -0.013655   0.360225
     3  O   -0.073557   0.726665   7.721709   0.005745   0.002833  -0.049125
     4  H    0.314653  -0.008258   0.005745   0.425697  -0.021946   0.005215
     5  H    0.316053  -0.013655   0.002833  -0.021946   0.451838   0.003987
     6  H   -0.087320   0.360225  -0.049125   0.005215   0.003987   0.650520
 Mulliken charges:
               1
     1  N   -0.503942
     2  C    0.181930
     3  O   -0.334270
     4  H    0.278895
     5  H    0.260889
     6  H    0.116498
 Sum of Mulliken charges =  -0.00000
 Mulliken charges with hydrogens summed into heavy atoms:
               1
     1  N    0.035842
     2  C    0.298428
     3  O   -0.334270
 Electronic spatial extent (au):  <R**2>=            151.4598
 Charge=             -0.0000 electrons
 Dipole moment (field-independent basis, Debye):
    X=             -3.5552    Y=              1.0377    Z=              0.0001  Tot=              3.7036
 Quadrupole moment (field-independent basis, Debye-Ang):
   XX=            -17.3394   YY=            -14.5015   ZZ=            -18.5234
   XY=              1.4249   XZ=             -0.0003   YZ=              0.0001
 Traceless Quadrupole moment (field-independent basis, Debye-Ang):
   XX=             -0.5513   YY=              2.2866   ZZ=             -1.7353
   XY=              1.4249   XZ=             -0.0003   YZ=              0.0001
 Octapole moment (field-independent basis, Debye-Ang**2):
  XXX=            -11.5470  YYY=             -2.0326  ZZZ=              0.0001  XYY=             -2.5465
  XXY=              0.9026  XXZ=              0.0007  XZZ=              1.6578  YZZ=             -0.3169
  YYZ=              0.0000  XYZ=             -0.0001
 Hexadecapole moment (field-independent basis, Debye-Ang**3):
 XXXX=           -109.9669 YYYY=            -32.7938 ZZZZ=            -15.7760 XXXY=             -2.7958
 XXXZ=             -0.0014 YYYX=              3.8368 YYYZ=              0.0001 ZZZX=             -0.0002
 ZZZY=              0.0000 XXYY=            -22.7898 XXZZ=            -24.4790 YYZZ=             -9.3128
 XXYZ=              0.0003 YYXZ=             -0.0001 ZZXY=             -0.3672
 N-N= 6.889831977467D+01 E-N=-5.360306186172D+02  KE= 1.683978041226D+02
 PrsmSu:  requested number of processors reduced to:  12 ShMem   1 Linda.
 No NMR shielding tensors so no spin-rotation constants.
 Leave Link  601 at Tue Aug 23 16:08:59 2022, MaxMem=    23592960 cpu:         3.1
 (Enter /public/home/users/caep010/software/Gaussian09/g09/l701.exe)
 Compute integral first derivatives.
 ... and contract with generalized density number  0.
 PrsmSu:  requested number of processors reduced to:   3 ShMem   1 Linda.
 PrsmSu:  requested number of processors reduced to:   6 ShMem   1 Linda.
 Leave Link  701 at Tue Aug 23 16:08:59 2022, MaxMem=    23592960 cpu:         1.9
 (Enter /public/home/users/caep010/software/Gaussian09/g09/l702.exe)
 L702 exits ... SP integral derivatives will be done elsewhere.
 Leave Link  702 at Tue Aug 23 16:08:59 2022, MaxMem=    23592960 cpu:         0.7
 (Enter /public/home/users/caep010/software/Gaussian09/g09/l703.exe)
 Compute integral first derivatives, UseDBF=F ICtDFT=           0.
 Integral derivatives from FoFJK, PRISM(SPDF).
 Calling FoFJK, ICntrl=      2127 FMM=F ISym2X=0 I1Cent= 0 IOpClX= 0 NMat=1 NMatS=1 NMatT=0.
 FoFJK:  IHMeth= 1 ICntrl=    2127 DoSepK=F KAlg= 0 I1Cent=   0 FoldK=F
 IRaf=         0 NMat=   1 IRICut=       1 DoRegI=T DoRafI=F ISym2E= 0.
 FoFCou: FMM=F IPFlag=           0 FMFlag=      100000 FMFlg1=         800
         NFxFlg=           0 DoJE=F BraDBF=F KetDBF=F FulRan=T
         wScrn=  0.000000 ICntrl=    2127 IOpCl=  0 I1Cent=           0 NGrid=           0
         NMat0=    1 NMatS0=      1 NMatT0=    0 NMatD0=    1 NMtDS0=    0 NMtDT0=    0
 Symmetry not used in FoFCou.
 CoulSu:  requested number of processors reduced to:   6 ShMem   1 Linda.
 CalDSu:  requested number of processors reduced to:  21 ShMem   1 Linda.
 Leave Link  703 at Tue Aug 23 16:09:00 2022, MaxMem=    23592960 cpu:         6.0
 (Enter /public/home/users/caep010/software/Gaussian09/g09/l716.exe)
 Dipole        =-1.39872665D+00 4.08269776D-01 4.63534021D-05
 ***** Axes restored to original set *****
 -------------------------------------------------------------------
 Center     Atomic                   Forces (Hartrees/Bohr)
 Number     Number              X              Y              Z
 -------------------------------------------------------------------
      1        7           0.016346705    0.023794807   -0.004481047
      2        6          -0.000542979   -0.094109253   -0.001228915
      3        8          -0.037602159    0.052506337    0.011896399
      4        1           0.014425262    0.028238128   -0.003846951
      5        1           0.016471290   -0.024778159   -0.005242348
      6        1          -0.009098120    0.014348141    0.002902863
 -------------------------------------------------------------------
 Cartesian Forces:  Max     0.094109253 RMS     0.030050235
 Leave Link  716 at Tue Aug 23 16:09:00 2022, MaxMem=    23592960 cpu:         1.1
 (Enter /public/home/users/caep010/software/Gaussian09/g09/l103.exe)

 GradGradGradGradGradGradGradGradGradGradGradGradGradGradGradGradGradGrad
 Berny optimization.
 FormGI is forming the generalized inverse of G from B-inverse, IUseBI=4.
 Internal  Forces:  Max     0.065571731 RMS     0.025771073
 Search for a local minimum.
 Step number   1 out of a maximum of   25
 All quantities printed in internal units (Hartrees-Bohrs-Radians)
 RMS Force = .25771D-01 SwitMx=.10000D-02 MixMth= 1
 Mixed Optimization -- RFO/linear search
 Second derivative matrix not updated -- first step.
 The second derivative matrix:
                          R1        R2        R3        R4        R5
           R1           0.41793
           R2           0.00000   0.40692
           R3           0.00000   0.00000   0.40759
           R4           0.00000   0.00000   0.00000   0.80103
           R5           0.00000   0.00000   0.00000   0.00000   0.35771
           A1           0.00000   0.00000   0.00000   0.00000   0.00000
           A2           0.00000   0.00000   0.00000   0.00000   0.00000
           A3           0.00000   0.00000   0.00000   0.00000   0.00000
           A4           0.00000   0.00000   0.00000   0.00000   0.00000
           A5           0.00000   0.00000   0.00000   0.00000   0.00000
           A6           0.00000   0.00000   0.00000   0.00000   0.00000
           D1           0.00000   0.00000   0.00000   0.00000   0.00000
           D2           0.00000   0.00000   0.00000   0.00000   0.00000
           D3           0.00000   0.00000   0.00000   0.00000   0.00000
           D4           0.00000   0.00000   0.00000   0.00000   0.00000
                          A1        A2        A3        A4        A5
           A1           0.16000
           A2           0.00000   0.16000
           A3           0.00000   0.00000   0.16000
           A4           0.00000   0.00000   0.00000   0.25000
           A5           0.00000   0.00000   0.00000   0.00000   0.16000
           A6           0.00000   0.00000   0.00000   0.00000   0.00000
           D1           0.00000   0.00000   0.00000   0.00000   0.00000
           D2           0.00000   0.00000   0.00000   0.00000   0.00000
           D3           0.00000   0.00000   0.00000   0.00000   0.00000
           D4           0.00000   0.00000   0.00000   0.00000   0.00000
                          A6        D1        D2        D3        D4
           A6           0.16000
           D1           0.00000   0.01368
           D2           0.00000   0.00000   0.01368
           D3           0.00000   0.00000   0.00000   0.01368
           D4           0.00000   0.00000   0.00000   0.00000   0.01368
 ITU=  0
     Eigenvalues ---    0.01368   0.01368   0.01368   0.16000   0.16000
     Eigenvalues ---    0.16000   0.22000   0.35771   0.40692   0.40759
     Eigenvalues ---    0.41793   0.80103
 RFO step:  Lambda=-2.05306578D-02 EMin= 1.36801474D-02
 Linear search not attempted -- first point.
 Iteration  1 RMS(Cart)=  0.07130223 RMS(Int)=  0.00178216
 Iteration  2 RMS(Cart)=  0.00181438 RMS(Int)=  0.00000104
 Iteration  3 RMS(Cart)=  0.00000103 RMS(Int)=  0.00000000
 Iteration  4 RMS(Cart)=  0.00000000 RMS(Int)=  0.00000000
 ITry= 1 IFail=0 DXMaxC= 1.65D-01 DCOld= 1.00D+10 DXMaxT= 3.00D-01 DXLimC= 3.00D+00 Rises=F
 Variable       Old X    -DE/DX   Delta X   Delta X   Delta X     New X
                                 (Linear)    (Quad)   (Total)
    R1        2.69187  -0.05308   0.00000  -0.12105  -0.12105   2.57082
    R2        1.97324  -0.03170   0.00000  -0.07415  -0.07415   1.89909
    R3        1.97235  -0.03010   0.00000  -0.07031  -0.07031   1.90205
    R4        2.37860  -0.06557   0.00000  -0.07981  -0.07981   2.29879
    R5        2.04441   0.01017   0.00000   0.02687   0.02687   2.07128
    A1        2.10402  -0.00690   0.00000  -0.03820  -0.03820   2.06582
    A2        2.09427   0.00600   0.00000   0.03321   0.03321   2.12748
    A3        2.08490   0.00090   0.00000   0.00499   0.00499   2.08989
    A4        2.09780   0.01511   0.00000   0.06281   0.06281   2.16061
    A5        2.09481  -0.02178   0.00000  -0.11020  -0.11020   1.98460
    A6        2.09058   0.00667   0.00000   0.04739   0.04739   2.13797
    D1       -0.00001   0.00000   0.00000   0.00007   0.00007   0.00006
    D2       -3.14158  -0.00000   0.00000  -0.00001  -0.00001  -3.14159
    D3        3.14147   0.00000   0.00000   0.00005   0.00005   3.14152
    D4       -0.00010  -0.00000   0.00000  -0.00003  -0.00003  -0.00013
         Item               Value     Threshold  Converged?
 Maximum Force            0.065572     0.000450     NO 
 RMS     Force            0.025771     0.000300     NO 
 Maximum Displacement     0.164983     0.001800     NO 
 RMS     Displacement     0.072428     0.001200     NO 
 Predicted change in Energy=-1.081052D-02
 Lowest energy point so far.  Saving SCF results.
 GradGradGradGradGradGradGradGradGradGradGradGradGradGradGradGradGradGrad

 Leave Link  103 at Tue Aug 23 16:09:00 2022, MaxMem=    23592960 cpu:         2.2
 (Enter /public/home/users/caep010/software/Gaussian09/g09/l202.exe)
                          Input orientation:                          
 ---------------------------------------------------------------------
 Center     Atomic      Atomic             Coordinates (Angstroms)
 Number     Number       Type             X           Y           Z
 ---------------------------------------------------------------------
      1          7           0       -0.664872   -0.085694    0.195337
      2          6           0        0.629077    0.093227   -0.184692
      3          8           0        1.396084   -0.819840   -0.425100
      4          1           0       -1.010933   -1.025028    0.283789
      5          1           0       -1.275051    0.691400    0.387404
      6          1           0        0.925695    1.145935   -0.256839
 ---------------------------------------------------------------------
                    Distance matrix (angstroms):
                    1          2          3          4          5
     1  N    0.000000
     2  C    1.360418   0.000000
     3  O    2.274082   1.216465   0.000000
     4  H    1.004953   2.039510   2.517609   0.000000
     5  H    1.006520   2.076248   3.174739   1.739718   0.000000
     6  H    2.061862   1.096075   2.028263   2.959035   2.337719
                    6
     6  H    0.000000
 Stoichiometry    CH3NO
 Framework group  C1[X(CH3NO)]
 Deg. of freedom    12
 Full point group                 C1      NOp   1
 RotChk:  IX=0 Diff= 3.65D-02
 Largest Abelian subgroup         C1      NOp   1
 Largest concise Abelian subgroup C1      NOp   1
                         Standard orientation:                         
 ---------------------------------------------------------------------
 Center     Atomic      Atomic             Coordinates (Angstroms)
 Number     Number       Type             X           Y           Z
 ---------------------------------------------------------------------
      1          7           0       -1.081432   -0.159034   -0.000014
      2          6           0        0.160406    0.396460    0.000008
      3          8           0        1.190826   -0.250087    0.000001
      4          1           0       -1.156132   -1.161207    0.000017
      5          1           0       -1.915828    0.403874    0.000052
      6          1           0        0.152940    1.492510   -0.000024
 ---------------------------------------------------------------------
 Rotational constants (GHZ):     72.3778986     11.4167060      9.8612219
 Leave Link  202 at Tue Aug 23 16:09:00 2022, MaxMem=    23592960 cpu:         0.2
 (Enter /public/home/users/caep010/software/Gaussian09/g09/l301.exe)
 Standard basis: GTBas3 (6D, 7F)
 Ernie: Thresh=  0.10000D-02 Tol=  0.10000D-05 Strict=F.
 There are   108 symmetry adapted cartesian basis functions of A   symmetry.
 There are    99 symmetry adapted basis functions of A   symmetry.
    99 basis functions,   153 primitive gaussians,   108 cartesian basis functions
    12 alpha electrons       12 beta electrons
       nuclear repulsion energy        71.2060824359 Hartrees.
 IExCor=  402 DFT=T Ex+Corr=B3LYP ExCW=0 ScaHFX=  0.200000
 ScaDFX=  0.800000  0.720000  1.000000  0.810000 ScalE2=  1.000000  1.000000
 IRadAn=      0 IRanWt=     -1 IRanGd=            0 ICorTp=0 IEmpDi=  4
 NAtoms=    6 NActive=    6 NUniq=    6 SFac= 1.00D+00 NAtFMM=   60 NAOKFM=F Big=F
 Integral buffers will be    131072 words long.
 Raffenetti 2 integral format.
 Two-electron integral symmetry is turned on.
 Leave Link  301 at Tue Aug 23 16:09:01 2022, MaxMem=    23592960 cpu:         1.6
 (Enter /public/home/users/caep010/software/Gaussian09/g09/l302.exe)
 NPDir=0 NMtPBC=     1 NCelOv=     1 NCel=       1 NClECP=     1 NCelD=      1
         NCelK=      1 NCelE2=     1 NClLst=     1 CellRange=     0.0.
 One-electron integrals computed using PRISM.
 PrsmSu:  requested number of processors reduced to:   3 ShMem   1 Linda.
 PrsmSu:  requested number of processors reduced to:  12 ShMem   1 Linda.
 NBasis=    99 RedAO= T EigKep=  5.79D-04  NBF=    99
 NBsUse=    99 1.00D-06 EigRej= -1.00D+00 NBFU=    99
 Precomputing XC quadrature grid using
 IXCGrd= 4 IRadAn=           0 IRanWt=          -1 IRanGd=           0 AccXCQ= 0.00D+00.
 Generated NRdTot=       0 NPtTot=           0 NUsed=           0 NTot=          32
 NSgBfM=   108   108   108   108   108 MxSgAt=     6 MxSgA2=     6.
 Leave Link  302 at Tue Aug 23 16:09:01 2022, MaxMem=    23592960 cpu:         3.6
 (Enter /public/home/users/caep010/software/Gaussian09/g09/l303.exe)
 DipDrv:  MaxL=1.
 Leave Link  303 at Tue Aug 23 16:09:01 2022, MaxMem=    23592960 cpu:         1.4
 (Enter /public/home/users/caep010/software/Gaussian09/g09/l401.exe)
 Initial guess from the checkpoint file:  "G4.Frag_975.chk"
 B after Tr=    -0.000000    0.000000   -0.000000
         Rot=    0.999961   -0.000000   -0.000000   -0.008881 Ang=  -1.02 deg.
 Guess basis will be translated and rotated to current coordinates.
 JPrj=2 DoOrth=T DoCkMO=T.
 Generating alternative initial guess.
 ExpMin= 1.61D-01 ExpMax= 5.48D+03 ExpMxC= 8.25D+02 IAcc=1 IRadAn=         1 AccDes= 0.00D+00
 Harris functional with IExCor=  402 and IRadAn=       1 diagonalized for initial guess.
 HarFok:  IExCor=  402 AccDes= 0.00D+00 IRadAn=         1 IDoV= 1 UseB2=F ITyADJ=14
 ICtDFT=  3500011 ScaDFX=  1.000000  1.000000  1.000000  1.000000
 CalDSu:  requested number of processors reduced to:  23 ShMem   1 Linda.
 FoFCou: FMM=F IPFlag=           0 FMFlag=      100000 FMFlg1=           0
         NFxFlg=           0 DoJE=T BraDBF=F KetDBF=T FulRan=T
         wScrn=  0.000000 ICntrl=     500 IOpCl=  0 I1Cent=   200000004 NGrid=           0
         NMat0=    1 NMatS0=      1 NMatT0=    0 NMatD0=    1 NMtDS0=    0 NMtDT0=    0
 Petite list used in FoFCou.
 CoulSu:  requested number of processors reduced to:  11 ShMem   1 Linda.
 CoulSu:  requested number of processors reduced to:  11 ShMem   1 Linda.
 CoulSu:  requested number of processors reduced to:  12 ShMem   1 Linda.
 CoulSu:  requested number of processors reduced to:  12 ShMem   1 Linda.
 Harris En= -169.926948480907    
 Leave Link  401 at Tue Aug 23 16:09:01 2022, MaxMem=    23592960 cpu:         5.1
 (Enter /public/home/users/caep010/software/Gaussian09/g09/l502.exe)
 Closed shell SCF:
 Using DIIS extrapolation, IDIIS=  1040.
 Integral symmetry usage will be decided dynamically.
 Keep R1 ints in memory in canonical form, NReq=14282297.
 IVT=       57784 IEndB=       57784 NGot=    23592960 MDV=    11281452
 LenX=    11281452 LenY=    11269347
 Requested convergence on RMS density matrix=1.00D-08 within 128 cycles.
 Requested convergence on MAX density matrix=1.00D-06.
 Requested convergence on             energy=1.00D-06.
 No special actions if energy rises.
 FoFCou: FMM=F IPFlag=           0 FMFlag=           0 FMFlg1=           0
         NFxFlg=           0 DoJE=F BraDBF=F KetDBF=F FulRan=T
         wScrn=  0.000000 ICntrl=     600 IOpCl=  0 I1Cent=           0 NGrid=           0
         NMat0=    1 NMatS0=   4950 NMatT0=    0 NMatD0=    1 NMtDS0=    0 NMtDT0=    0
 Symmetry not used in FoFCou.
 CoulSu:  requested number of processors reduced to:   5 ShMem   1 Linda.
 Integral accuracy reduced to 1.0D-05 until final iterations.

 Cycle   1  Pass 0  IDiag  1:
 CalDSu:  requested number of processors reduced to:  11 ShMem   1 Linda.
 E= -169.901610915291    
 DIIS: error= 3.94D-03 at cycle   1 NSaved=   1.
 NSaved= 1 IEnMin= 1 EnMin= -169.901610915291     IErMin= 1 ErrMin= 3.94D-03
 ErrMax= 3.94D-03  0.00D+00 EMaxC= 1.00D-01 BMatC= 4.09D-03 BMatP= 4.09D-03
 IDIUse=3 WtCom= 9.61D-01 WtEn= 3.94D-02
 Coeff-Com:  0.100D+01
 Coeff-En:   0.100D+01
 Coeff:      0.100D+01
 Gap=     1.065 Goal=   None    Shift=    0.000
 GapD=    1.065 DampG=2.000 DampE=1.000 DampFc=2.0000 IDamp=-1.
 RMSDP=9.62D-04 MaxDP=1.62D-02              OVMax= 1.94D-02

 Cycle   2  Pass 0  IDiag  1:
 CalDSu:  requested number of processors reduced to:  11 ShMem   1 Linda.
 E= -169.905177382906     Delta-E=       -0.003566467615 Rises=F Damp=F
 DIIS: error= 2.52D-03 at cycle   2 NSaved=   2.
 NSaved= 2 IEnMin= 2 EnMin= -169.905177382906     IErMin= 2 ErrMin= 2.52D-03
 ErrMax= 2.52D-03  0.00D+00 EMaxC= 1.00D-01 BMatC= 7.42D-04 BMatP= 4.09D-03
 IDIUse=3 WtCom= 9.75D-01 WtEn= 2.52D-02
 Coeff-Com:  0.221D+00 0.779D+00
 Coeff-En:   0.000D+00 0.100D+01
 Coeff:      0.215D+00 0.785D+00
 Gap=     0.280 Goal=   None    Shift=    0.000
 RMSDP=4.01D-04 MaxDP=1.11D-02 DE=-3.57D-03 OVMax= 8.86D-03

 Cycle   3  Pass 0  IDiag  1:
 CalDSu:  requested number of processors reduced to:  11 ShMem   1 Linda.
 E= -169.905436580509     Delta-E=       -0.000259197602 Rises=F Damp=F
 DIIS: error= 1.87D-03 at cycle   3 NSaved=   3.
 NSaved= 3 IEnMin= 3 EnMin= -169.905436580509     IErMin= 3 ErrMin= 1.87D-03
 ErrMax= 1.87D-03  0.00D+00 EMaxC= 1.00D-01 BMatC= 4.16D-04 BMatP= 7.42D-04
 IDIUse=3 WtCom= 9.81D-01 WtEn= 1.87D-02
 Coeff-Com:  0.491D-03 0.426D+00 0.573D+00
 Coeff-En:   0.000D+00 0.363D+00 0.637D+00
 Coeff:      0.482D-03 0.425D+00 0.575D+00
 Gap=     0.281 Goal=   None    Shift=    0.000
 RMSDP=1.72D-04 MaxDP=5.03D-03 DE=-2.59D-04 OVMax= 5.36D-03

 Cycle   4  Pass 0  IDiag  1:
 CalDSu:  requested number of processors reduced to:  11 ShMem   1 Linda.
 E= -169.905751782900     Delta-E=       -0.000315202391 Rises=F Damp=F
 DIIS: error= 4.35D-04 at cycle   4 NSaved=   4.
 NSaved= 4 IEnMin= 4 EnMin= -169.905751782900     IErMin= 4 ErrMin= 4.35D-04
 ErrMax= 4.35D-04  0.00D+00 EMaxC= 1.00D-01 BMatC= 1.43D-05 BMatP= 4.16D-04
 IDIUse=3 WtCom= 9.96D-01 WtEn= 4.35D-03
 Coeff-Com: -0.836D-02 0.175D+00 0.282D+00 0.551D+00
 Coeff-En:   0.000D+00 0.000D+00 0.000D+00 0.100D+01
 Coeff:     -0.833D-02 0.174D+00 0.281D+00 0.553D+00
 Gap=     0.281 Goal=   None    Shift=    0.000
 RMSDP=2.95D-05 MaxDP=1.00D-03 DE=-3.15D-04 OVMax= 1.69D-03

 Cycle   5  Pass 0  IDiag  1:
 CalDSu:  requested number of processors reduced to:  11 ShMem   1 Linda.
 E= -169.905763099700     Delta-E=       -0.000011316800 Rises=F Damp=F
 DIIS: error= 1.11D-04 at cycle   5 NSaved=   5.
 NSaved= 5 IEnMin= 5 EnMin= -169.905763099700     IErMin= 5 ErrMin= 1.11D-04
 ErrMax= 1.11D-04  0.00D+00 EMaxC= 1.00D-01 BMatC= 1.07D-06 BMatP= 1.43D-05
 IDIUse=3 WtCom= 9.99D-01 WtEn= 1.11D-03
 Coeff-Com: -0.274D-02 0.335D-01 0.648D-01 0.255D+00 0.649D+00
 Coeff-En:   0.000D+00 0.000D+00 0.000D+00 0.000D+00 0.100D+01
 Coeff:     -0.273D-02 0.334D-01 0.647D-01 0.255D+00 0.650D+00
 Gap=     0.281 Goal=   None    Shift=    0.000
 RMSDP=1.04D-05 MaxDP=3.20D-04 DE=-1.13D-05 OVMax= 4.58D-04

 Cycle   6  Pass 0  IDiag  1:
 CalDSu:  requested number of processors reduced to:  11 ShMem   1 Linda.
 E= -169.905763630235     Delta-E=       -0.000000530535 Rises=F Damp=F
 DIIS: error= 4.74D-05 at cycle   6 NSaved=   6.
 NSaved= 6 IEnMin= 6 EnMin= -169.905763630235     IErMin= 6 ErrMin= 4.74D-05
 ErrMax= 4.74D-05  0.00D+00 EMaxC= 1.00D-01 BMatC= 4.58D-07 BMatP= 1.07D-06
 IDIUse=1 WtCom= 1.00D+00 WtEn= 0.00D+00
 Coeff-Com: -0.975D-03 0.293D-02 0.133D-01 0.124D+00 0.463D+00 0.398D+00
 Coeff:     -0.975D-03 0.293D-02 0.133D-01 0.124D+00 0.463D+00 0.398D+00
 Gap=     0.281 Goal=   None    Shift=    0.000
 RMSDP=7.47D-06 MaxDP=2.41D-04 DE=-5.31D-07 OVMax= 2.89D-04

 Initial convergence to 1.0D-05 achieved.  Increase integral accuracy.
 Cycle   7  Pass 1  IDiag  1:
 CalDSu:  requested number of processors reduced to:  11 ShMem   1 Linda.
 E= -169.905761993807     Delta-E=        0.000001636428 Rises=F Damp=F
 DIIS: error= 6.90D-06 at cycle   1 NSaved=   1.
 NSaved= 1 IEnMin= 1 EnMin= -169.905761993807     IErMin= 1 ErrMin= 6.90D-06
 ErrMax= 6.90D-06  0.00D+00 EMaxC= 1.00D-01 BMatC= 9.54D-09 BMatP= 9.54D-09
 IDIUse=1 WtCom= 1.00D+00 WtEn= 0.00D+00
 Coeff-Com:  0.100D+01
 Coeff:      0.100D+01
 Gap=     0.281 Goal=   None    Shift=    0.000
 RMSDP=7.47D-06 MaxDP=2.41D-04 DE= 1.64D-06 OVMax= 8.91D-05

 Cycle   8  Pass 1  IDiag  1:
 CalDSu:  requested number of processors reduced to:  11 ShMem   1 Linda.
 E= -169.905761988848     Delta-E=        0.000000004958 Rises=F Damp=F
 DIIS: error= 8.65D-06 at cycle   2 NSaved=   2.
 NSaved= 2 IEnMin= 1 EnMin= -169.905761993807     IErMin= 1 ErrMin= 6.90D-06
 ErrMax= 8.65D-06  0.00D+00 EMaxC= 1.00D-01 BMatC= 1.56D-08 BMatP= 9.54D-09
 IDIUse=1 WtCom= 1.00D+00 WtEn= 0.00D+00
 Coeff-Com:  0.581D+00 0.419D+00
 Coeff:      0.581D+00 0.419D+00
 Gap=     0.281 Goal=   None    Shift=    0.000
 RMSDP=1.68D-06 MaxDP=5.12D-05 DE= 4.96D-09 OVMax= 6.74D-05

 Cycle   9  Pass 1  IDiag  1:
 CalDSu:  requested number of processors reduced to:  11 ShMem   1 Linda.
 E= -169.905761999818     Delta-E=       -0.000000010969 Rises=F Damp=F
 DIIS: error= 3.39D-06 at cycle   3 NSaved=   3.
 NSaved= 3 IEnMin= 3 EnMin= -169.905761999818     IErMin= 3 ErrMin= 3.39D-06
 ErrMax= 3.39D-06  0.00D+00 EMaxC= 1.00D-01 BMatC= 2.46D-09 BMatP= 9.54D-09
 IDIUse=1 WtCom= 1.00D+00 WtEn= 0.00D+00
 Coeff-Com:  0.556D-01 0.278D+00 0.666D+00
 Coeff:      0.556D-01 0.278D+00 0.666D+00
 Gap=     0.281 Goal=   None    Shift=    0.000
 RMSDP=3.73D-07 MaxDP=1.11D-05 DE=-1.10D-08 OVMax= 1.59D-05

 Cycle  10  Pass 1  IDiag  1:
 CalDSu:  requested number of processors reduced to:  11 ShMem   1 Linda.
 E= -169.905762001551     Delta-E=       -0.000000001733 Rises=F Damp=F
 DIIS: error= 8.69D-07 at cycle   4 NSaved=   4.
 NSaved= 4 IEnMin= 4 EnMin= -169.905762001551     IErMin= 4 ErrMin= 8.69D-07
 ErrMax= 8.69D-07  0.00D+00 EMaxC= 1.00D-01 BMatC= 6.27D-11 BMatP= 2.46D-09
 IDIUse=1 WtCom= 1.00D+00 WtEn= 0.00D+00
 Coeff-Com: -0.252D-02 0.107D+00 0.272D+00 0.624D+00
 Coeff:     -0.252D-02 0.107D+00 0.272D+00 0.624D+00
 Gap=     0.281 Goal=   None    Shift=    0.000
 RMSDP=8.27D-08 MaxDP=1.95D-06 DE=-1.73D-09 OVMax= 2.66D-06

 Cycle  11  Pass 1  IDiag  1:
 CalDSu:  requested number of processors reduced to:  11 ShMem   1 Linda.
 E= -169.905762001606     Delta-E=       -0.000000000055 Rises=F Damp=F
 DIIS: error= 2.87D-07 at cycle   5 NSaved=   5.
 NSaved= 5 IEnMin= 5 EnMin= -169.905762001606     IErMin= 5 ErrMin= 2.87D-07
 ErrMax= 2.87D-07  0.00D+00 EMaxC= 1.00D-01 BMatC= 4.80D-12 BMatP= 6.27D-11
 IDIUse=1 WtCom= 1.00D+00 WtEn= 0.00D+00
 Coeff-Com: -0.356D-02 0.429D-01 0.101D+00 0.301D+00 0.559D+00
 Coeff:     -0.356D-02 0.429D-01 0.101D+00 0.301D+00 0.559D+00
 Gap=     0.281 Goal=   None    Shift=    0.000
 RMSDP=1.61D-08 MaxDP=4.84D-07 DE=-5.50D-11 OVMax= 8.49D-07

 Cycle  12  Pass 1  IDiag  1:
 CalDSu:  requested number of processors reduced to:  11 ShMem   1 Linda.
 E= -169.905762001612     Delta-E=       -0.000000000006 Rises=F Damp=F
 DIIS: error= 4.35D-08 at cycle   6 NSaved=   6.
 NSaved= 6 IEnMin= 6 EnMin= -169.905762001612     IErMin= 6 ErrMin= 4.35D-08
 ErrMax= 4.35D-08  0.00D+00 EMaxC= 1.00D-01 BMatC= 2.76D-13 BMatP= 4.80D-12
 IDIUse=1 WtCom= 1.00D+00 WtEn= 0.00D+00
 Coeff-Com: -0.146D-02 0.157D-01 0.330D-01 0.111D+00 0.259D+00 0.582D+00
 Coeff:     -0.146D-02 0.157D-01 0.330D-01 0.111D+00 0.259D+00 0.582D+00
 Gap=     0.281 Goal=   None    Shift=    0.000
 RMSDP=4.79D-09 MaxDP=1.89D-07 DE=-6.17D-12 OVMax= 2.23D-07

 SCF Done:  E(RB3LYP) =  -169.905762002     A.U. after   12 cycles
            NFock= 12  Conv=0.48D-08     -V/T= 2.0066
 KE= 1.687856510100D+02 PE=-5.408384865570D+02 EE= 1.309409911095D+02
 Leave Link  502 at Tue Aug 23 16:09:03 2022, MaxMem=    23592960 cpu:        25.8
 (Enter /public/home/users/caep010/software/Gaussian09/g09/l701.exe)
 Compute integral first derivatives.
 ... and contract with generalized density number  0.
 PrsmSu:  requested number of processors reduced to:   3 ShMem   1 Linda.
 PrsmSu:  requested number of processors reduced to:   6 ShMem   1 Linda.
 Leave Link  701 at Tue Aug 23 16:09:03 2022, MaxMem=    23592960 cpu:         2.2
 (Enter /public/home/users/caep010/software/Gaussian09/g09/l702.exe)
 L702 exits ... SP integral derivatives will be done elsewhere.
 Leave Link  702 at Tue Aug 23 16:09:03 2022, MaxMem=    23592960 cpu:         0.5
 (Enter /public/home/users/caep010/software/Gaussian09/g09/l703.exe)
 Compute integral first derivatives, UseDBF=F ICtDFT=           0.
 Integral derivatives from FoFJK, PRISM(SPDF).
 Calling FoFJK, ICntrl=      2127 FMM=F ISym2X=0 I1Cent= 0 IOpClX= 0 NMat=1 NMatS=1 NMatT=0.
 FoFJK:  IHMeth= 1 ICntrl=    2127 DoSepK=F KAlg= 0 I1Cent=   0 FoldK=F
 IRaf=         0 NMat=   1 IRICut=       1 DoRegI=T DoRafI=F ISym2E= 0.
 FoFCou: FMM=F IPFlag=           0 FMFlag=      100000 FMFlg1=         800
         NFxFlg=           0 DoJE=F BraDBF=F KetDBF=F FulRan=T
         wScrn=  0.000000 ICntrl=    2127 IOpCl=  0 I1Cent=           0 NGrid=           0
         NMat0=    1 NMatS0=      1 NMatT0=    0 NMatD0=    1 NMtDS0=    0 NMtDT0=    0
 Symmetry not used in FoFCou.
 CoulSu:  requested number of processors reduced to:   6 ShMem   1 Linda.
 CalDSu:  requested number of processors reduced to:  21 ShMem   1 Linda.
 Leave Link  703 at Tue Aug 23 16:09:04 2022, MaxMem=    23592960 cpu:         5.7
 (Enter /public/home/users/caep010/software/Gaussian09/g09/l716.exe)
 Dipole        =-1.44019501D+00 3.02590302D-01 5.72799265D-05
 ***** Axes restored to original set *****
 -------------------------------------------------------------------
 Center     Atomic                   Forces (Hartrees/Bohr)
 Number     Number              X              Y              Z
 -------------------------------------------------------------------
      1        7           0.002032830    0.006745068   -0.000499874
      2        6           0.004483858   -0.017887132   -0.001597659
      3        8          -0.004282676    0.007041004    0.001373269
      4        1          -0.001517688   -0.001639296    0.000425137
      5        1           0.000320442   -0.001491573   -0.000117080
      6        1          -0.001036767    0.007231928    0.000416206
 -------------------------------------------------------------------
 Cartesian Forces:  Max     0.017887132 RMS     0.005392122
 Leave Link  716 at Tue Aug 23 16:09:04 2022, MaxMem=    23592960 cpu:         0.5
 (Enter /public/home/users/caep010/software/Gaussian09/g09/l103.exe)

 GradGradGradGradGradGradGradGradGradGradGradGradGradGradGradGradGradGrad
 Berny optimization.
 Using GEDIIS/GDIIS optimizer.
 FormGI is forming the generalized inverse of G from B-inverse, IUseBI=4.
 Internal  Forces:  Max     0.008256494 RMS     0.003338233
 Search for a local minimum.
 Step number   2 out of a maximum of   25
 All quantities printed in internal units (Hartrees-Bohrs-Radians)
 RMS Force = .33382D-02 SwitMx=.10000D-02 MixMth= 1
 Mixed Optimization -- RFO/linear search
 Update second derivatives using D2CorX and points    1    2
 DE= -1.16D-02 DEPred=-1.08D-02 R= 1.08D+00
 TightC=F SS=  1.41D+00  RLast= 2.30D-01 DXNew= 5.0454D-01 6.9137D-01
 Trust test= 1.08D+00 RLast= 2.30D-01 DXMaxT set to 5.05D-01
 The second derivative matrix:
                          R1        R2        R3        R4        R5
           R1           0.42930
           R2           0.01486   0.42105
           R3           0.00483   0.00736   0.40943
           R4          -0.00798   0.00418  -0.00630   0.76620
           R5           0.01527   0.00856   0.00876   0.02082   0.35362
           A1           0.00507   0.00421   0.00264   0.00313   0.00159
           A2          -0.00190  -0.00202  -0.00090   0.00006  -0.00156
           A3          -0.00317  -0.00219  -0.00174  -0.00319  -0.00004
           A4           0.01040   0.00448   0.00623   0.01790  -0.00569
           A5          -0.00015   0.00249  -0.00060  -0.00734   0.00560
           A6           0.00447   0.00180   0.00270   0.00803  -0.00271
           D1          -0.00001  -0.00001  -0.00000  -0.00001   0.00000
           D2           0.00001   0.00000   0.00000   0.00001  -0.00000
           D3          -0.00001  -0.00001  -0.00000  -0.00001   0.00000
           D4           0.00001   0.00000   0.00000   0.00001  -0.00000
                          A1        A2        A3        A4        A5
           A1           0.16116
           A2          -0.00064   0.16028
           A3          -0.00052   0.00036   0.16016
           A4           0.00047  -0.00094   0.00047   0.24381
           A5           0.00116  -0.00021  -0.00095   0.00450   0.15863
           A6           0.00015  -0.00039   0.00025  -0.00287   0.00200
           D1          -0.00000   0.00000   0.00000   0.00000  -0.00000
           D2           0.00000  -0.00000  -0.00000  -0.00000   0.00000
           D3          -0.00000   0.00000   0.00000   0.00000  -0.00000
           D4           0.00000  -0.00000  -0.00000  -0.00000   0.00000
                          A6        D1        D2        D3        D4
           A6           0.15867
           D1           0.00000   0.01368
           D2          -0.00000  -0.00000   0.01368
           D3           0.00000   0.00000  -0.00000   0.01368
           D4          -0.00000  -0.00000   0.00000  -0.00000   0.01368
 ITU=  1  0
 Use linear search instead of GDIIS.
     Eigenvalues ---    0.01368   0.01368   0.01368   0.15541   0.16000
     Eigenvalues ---    0.16161   0.21440   0.34891   0.40582   0.41161
     Eigenvalues ---    0.44699   0.76810
 RFO step:  Lambda=-3.46611721D-04 EMin= 1.36801473D-02
 Quartic linear search produced a step of  0.08279.
 Iteration  1 RMS(Cart)=  0.01335623 RMS(Int)=  0.00015763
 Iteration  2 RMS(Cart)=  0.00017274 RMS(Int)=  0.00000002
 Iteration  3 RMS(Cart)=  0.00000002 RMS(Int)=  0.00000001
 ITry= 1 IFail=0 DXMaxC= 2.87D-02 DCOld= 1.00D+10 DXMaxT= 5.05D-01 DXLimC= 3.00D+00 Rises=F
 Variable       Old X    -DE/DX   Delta X   Delta X   Delta X     New X
                                 (Linear)    (Quad)   (Total)
    R1        2.57082  -0.00132  -0.01002   0.00651  -0.00351   2.56730
    R2        1.89909   0.00209  -0.00614   0.01168   0.00554   1.90463
    R3        1.90205  -0.00137  -0.00582   0.00217  -0.00365   1.89839
    R4        2.29879  -0.00826  -0.00661  -0.00519  -0.01180   2.28698
    R5        2.07128   0.00664   0.00222   0.01780   0.02002   2.09130
    A1        2.06582   0.00069  -0.00316   0.00877   0.00561   2.07143
    A2        2.12748   0.00030   0.00275  -0.00150   0.00125   2.12873
    A3        2.08989  -0.00100   0.00041  -0.00727  -0.00686   2.08303
    A4        2.16061   0.00408   0.00520   0.01404   0.01924   2.17984
    A5        1.98460  -0.00523  -0.00912  -0.02013  -0.02925   1.95535
    A6        2.13797   0.00115   0.00392   0.00609   0.01002   2.14799
    D1        0.00006  -0.00000   0.00001  -0.00017  -0.00016  -0.00010
    D2       -3.14159   0.00000  -0.00000   0.00019   0.00019  -3.14140
    D3        3.14152  -0.00000   0.00000  -0.00018  -0.00018   3.14135
    D4       -0.00013   0.00000  -0.00000   0.00018   0.00018   0.00005
         Item               Value     Threshold  Converged?
 Maximum Force            0.008256     0.000450     NO 
 RMS     Force            0.003338     0.000300     NO 
 Maximum Displacement     0.028722     0.001800     NO 
 RMS     Displacement     0.013415     0.001200     NO 
 Predicted change in Energy=-2.685937D-04
 Lowest energy point so far.  Saving SCF results.
 GradGradGradGradGradGradGradGradGradGradGradGradGradGradGradGradGradGrad

 Leave Link  103 at Tue Aug 23 16:09:04 2022, MaxMem=    23592960 cpu:         0.6
 (Enter /public/home/users/caep010/software/Gaussian09/g09/l202.exe)
                          Input orientation:                          
 ---------------------------------------------------------------------
 Center     Atomic      Atomic             Coordinates (Angstroms)
 Number     Number       Type             X           Y           Z
 ---------------------------------------------------------------------
      1          7           0       -0.661336   -0.085721    0.194272
      2          6           0        0.632181    0.081531   -0.185890
      3          8           0        1.404650   -0.818199   -0.427573
      4          1           0       -1.021069   -1.022660    0.286850
      5          1           0       -1.264923    0.694473    0.384465
      6          1           0        0.910496    1.150577   -0.252223
 ---------------------------------------------------------------------
                    Distance matrix (angstroms):
                    1          2          3          4          5
     1  N    0.000000
     2  C    1.358559   0.000000
     3  O    2.278489   1.210220   0.000000
     4  H    1.007885   2.043516   2.536990   0.000000
     5  H    1.004586   2.073646   3.173989   1.737106   0.000000
     6  H    2.049011   1.106670   2.037404   2.957110   2.312109
                    6
     6  H    0.000000
 Stoichiometry    CH3NO
 Framework group  C1[X(CH3NO)]
 Deg. of freedom    12
 Full point group                 C1      NOp   1
 RotChk:  IX=0 Diff= 1.60D-04
 Largest Abelian subgroup         C1      NOp   1
 Largest concise Abelian subgroup C1      NOp   1
                         Standard orientation:                         
 ---------------------------------------------------------------------
 Center     Atomic      Atomic             Coordinates (Angstroms)
 Number     Number       Type             X           Y           Z
 ---------------------------------------------------------------------
      1          7           0       -1.082468   -0.157437   -0.000010
      2          6           0        0.162277    0.386890   -0.000063
      3          8           0        1.194331   -0.245167    0.000024
      4          1           0       -1.171437   -1.161388    0.000023
      5          1           0       -1.911237    0.410310    0.000122
      6          1           0        0.131638    1.493136    0.000107
 ---------------------------------------------------------------------
 Rotational constants (GHZ):     73.7247093     11.3706588      9.8512826
 Leave Link  202 at Tue Aug 23 16:09:04 2022, MaxMem=    23592960 cpu:         0.2
 (Enter /public/home/users/caep010/software/Gaussian09/g09/l301.exe)
 Standard basis: GTBas3 (6D, 7F)
 Ernie: Thresh=  0.10000D-02 Tol=  0.10000D-05 Strict=F.
 There are   108 symmetry adapted cartesian basis functions of A   symmetry.
 There are    99 symmetry adapted basis functions of A   symmetry.
    99 basis functions,   153 primitive gaussians,   108 cartesian basis functions
    12 alpha electrons       12 beta electrons
       nuclear repulsion energy        71.2709317050 Hartrees.
 IExCor=  402 DFT=T Ex+Corr=B3LYP ExCW=0 ScaHFX=  0.200000
 ScaDFX=  0.800000  0.720000  1.000000  0.810000 ScalE2=  1.000000  1.000000
 IRadAn=      0 IRanWt=     -1 IRanGd=            0 ICorTp=0 IEmpDi=  4
 NAtoms=    6 NActive=    6 NUniq=    6 SFac= 1.00D+00 NAtFMM=   60 NAOKFM=F Big=F
 Integral buffers will be    131072 words long.
 Raffenetti 2 integral format.
 Two-electron integral symmetry is turned on.
 Leave Link  301 at Tue Aug 23 16:09:04 2022, MaxMem=    23592960 cpu:         1.6
 (Enter /public/home/users/caep010/software/Gaussian09/g09/l302.exe)
 NPDir=0 NMtPBC=     1 NCelOv=     1 NCel=       1 NClECP=     1 NCelD=      1
         NCelK=      1 NCelE2=     1 NClLst=     1 CellRange=     0.0.
 One-electron integrals computed using PRISM.
 PrsmSu:  requested number of processors reduced to:   3 ShMem   1 Linda.
 PrsmSu:  requested number of processors reduced to:  12 ShMem   1 Linda.
 NBasis=    99 RedAO= T EigKep=  5.76D-04  NBF=    99
 NBsUse=    99 1.00D-06 EigRej= -1.00D+00 NBFU=    99
 Precomputing XC quadrature grid using
 IXCGrd= 4 IRadAn=           0 IRanWt=          -1 IRanGd=           0 AccXCQ= 0.00D+00.
 Generated NRdTot=       0 NPtTot=           0 NUsed=           0 NTot=          32
 NSgBfM=   108   108   108   108   108 MxSgAt=     6 MxSgA2=     6.
 Leave Link  302 at Tue Aug 23 16:09:04 2022, MaxMem=    23592960 cpu:         3.4
 (Enter /public/home/users/caep010/software/Gaussian09/g09/l303.exe)
 DipDrv:  MaxL=1.
 Leave Link  303 at Tue Aug 23 16:09:04 2022, MaxMem=    23592960 cpu:         0.6
 (Enter /public/home/users/caep010/software/Gaussian09/g09/l401.exe)
 Initial guess from the checkpoint file:  "G4.Frag_975.chk"
 B after Tr=     0.000000    0.000000    0.000000
         Rot=    1.000000    0.000000    0.000000   -0.000451 Ang=   0.05 deg.
 Guess basis will be translated and rotated to current coordinates.
 JPrj=2 DoOrth=T DoCkMO=T.
 Generating alternative initial guess.
 ExpMin= 1.61D-01 ExpMax= 5.48D+03 ExpMxC= 8.25D+02 IAcc=1 IRadAn=         1 AccDes= 0.00D+00
 Harris functional with IExCor=  402 and IRadAn=       1 diagonalized for initial guess.
 HarFok:  IExCor=  402 AccDes= 0.00D+00 IRadAn=         1 IDoV= 1 UseB2=F ITyADJ=14
 ICtDFT=  3500011 ScaDFX=  1.000000  1.000000  1.000000  1.000000
 CalDSu:  requested number of processors reduced to:  23 ShMem   1 Linda.
 FoFCou: FMM=F IPFlag=           0 FMFlag=      100000 FMFlg1=           0
         NFxFlg=           0 DoJE=T BraDBF=F KetDBF=T FulRan=T
         wScrn=  0.000000 ICntrl=     500 IOpCl=  0 I1Cent=   200000004 NGrid=           0
         NMat0=    1 NMatS0=      1 NMatT0=    0 NMatD0=    1 NMtDS0=    0 NMtDT0=    0
 Petite list used in FoFCou.
 CoulSu:  requested number of processors reduced to:  11 ShMem   1 Linda.
 CoulSu:  requested number of processors reduced to:  11 ShMem   1 Linda.
 CoulSu:  requested number of processors reduced to:  12 ShMem   1 Linda.
 CoulSu:  requested number of processors reduced to:  12 ShMem   1 Linda.
 Harris En= -169.926784027545    
 Leave Link  401 at Tue Aug 23 16:09:04 2022, MaxMem=    23592960 cpu:         5.3
 (Enter /public/home/users/caep010/software/Gaussian09/g09/l502.exe)
 Closed shell SCF:
 Using DIIS extrapolation, IDIIS=  1040.
 Integral symmetry usage will be decided dynamically.
 Keep R1 ints in memory in canonical form, NReq=14282283.
 IVT=       57784 IEndB=       57784 NGot=    23592960 MDV=    11281452
 LenX=    11281452 LenY=    11269347
 Requested convergence on RMS density matrix=1.00D-08 within 128 cycles.
 Requested convergence on MAX density matrix=1.00D-06.
 Requested convergence on             energy=1.00D-06.
 No special actions if energy rises.
 FoFCou: FMM=F IPFlag=           0 FMFlag=           0 FMFlg1=           0
         NFxFlg=           0 DoJE=F BraDBF=F KetDBF=F FulRan=T
         wScrn=  0.000000 ICntrl=     600 IOpCl=  0 I1Cent=           0 NGrid=           0
         NMat0=    1 NMatS0=   4950 NMatT0=    0 NMatD0=    1 NMtDS0=    0 NMtDT0=    0
 Symmetry not used in FoFCou.
 CoulSu:  requested number of processors reduced to:   5 ShMem   1 Linda.
 Integral accuracy reduced to 1.0D-05 until final iterations.

 Cycle   1  Pass 0  IDiag  1:
 CalDSu:  requested number of processors reduced to:  11 ShMem   1 Linda.
 E= -169.905864806071    
 DIIS: error= 9.49D-04 at cycle   1 NSaved=   1.
 NSaved= 1 IEnMin= 1 EnMin= -169.905864806071     IErMin= 1 ErrMin= 9.49D-04
 ErrMax= 9.49D-04  0.00D+00 EMaxC= 1.00D-01 BMatC= 1.63D-04 BMatP= 1.63D-04
 IDIUse=3 WtCom= 9.91D-01 WtEn= 9.49D-03
 Coeff-Com:  0.100D+01
 Coeff-En:   0.100D+01
 Coeff:      0.100D+01
 Gap=     1.049 Goal=   None    Shift=    0.000
 RMSDP=1.96D-04 MaxDP=4.34D-03              OVMax= 5.42D-03

 Cycle   2  Pass 0  IDiag  1:
 CalDSu:  requested number of processors reduced to:  11 ShMem   1 Linda.
 E= -169.906024775037     Delta-E=       -0.000159968967 Rises=F Damp=F
 DIIS: error= 4.43D-04 at cycle   2 NSaved=   2.
 NSaved= 2 IEnMin= 2 EnMin= -169.906024775037     IErMin= 2 ErrMin= 4.43D-04
 ErrMax= 4.43D-04  0.00D+00 EMaxC= 1.00D-01 BMatC= 4.25D-05 BMatP= 1.63D-04
 IDIUse=3 WtCom= 9.96D-01 WtEn= 4.43D-03
 Coeff-Com:  0.246D+00 0.754D+00
 Coeff-En:   0.000D+00 0.100D+01
 Coeff:      0.245D+00 0.755D+00
 Gap=     0.283 Goal=   None    Shift=    0.000
 RMSDP=1.20D-04 MaxDP=3.48D-03 DE=-1.60D-04 OVMax= 4.57D-03

 Cycle   3  Pass 0  IDiag  1:
 CalDSu:  requested number of processors reduced to:  11 ShMem   1 Linda.
 E= -169.905997673102     Delta-E=        0.000027101935 Rises=F Damp=F
 DIIS: error= 6.60D-04 at cycle   3 NSaved=   3.
 NSaved= 3 IEnMin= 2 EnMin= -169.906024775037     IErMin= 2 ErrMin= 4.43D-04
 ErrMax= 6.60D-04  0.00D+00 EMaxC= 1.00D-01 BMatC= 7.53D-05 BMatP= 4.25D-05
 IDIUse=3 WtCom= 2.80D-01 WtEn= 7.20D-01
 Coeff-Com: -0.192D-01 0.579D+00 0.440D+00
 Coeff-En:   0.000D+00 0.621D+00 0.379D+00
 Coeff:     -0.538D-02 0.609D+00 0.396D+00
 Gap=     0.284 Goal=   None    Shift=    0.000
 RMSDP=7.46D-05 MaxDP=2.15D-03 DE= 2.71D-05 OVMax= 2.91D-03

 Cycle   4  Pass 0  IDiag  1:
 CalDSu:  requested number of processors reduced to:  11 ShMem   1 Linda.
 E= -169.906053781899     Delta-E=       -0.000056108797 Rises=F Damp=F
 DIIS: error= 5.96D-05 at cycle   4 NSaved=   4.
 NSaved= 4 IEnMin= 4 EnMin= -169.906053781899     IErMin= 4 ErrMin= 5.96D-05
 ErrMax= 5.96D-05  0.00D+00 EMaxC= 1.00D-01 BMatC= 7.01D-07 BMatP= 4.25D-05
 IDIUse=1 WtCom= 1.00D+00 WtEn= 0.00D+00
 Coeff-Com: -0.138D-01 0.228D+00 0.132D+00 0.654D+00
 Coeff:     -0.138D-01 0.228D+00 0.132D+00 0.654D+00
 Gap=     0.284 Goal=   None    Shift=    0.000
 RMSDP=7.29D-06 MaxDP=2.01D-04 DE=-5.61D-05 OVMax= 3.01D-04

 Initial convergence to 1.0D-05 achieved.  Increase integral accuracy.
 Cycle   5  Pass 1  IDiag  1:
 CalDSu:  requested number of processors reduced to:  11 ShMem   1 Linda.
 E= -169.906050457780     Delta-E=        0.000003324120 Rises=F Damp=F
 DIIS: error= 2.70D-05 at cycle   1 NSaved=   1.
 NSaved= 1 IEnMin= 1 EnMin= -169.906050457780     IErMin= 1 ErrMin= 2.70D-05
 ErrMax= 2.70D-05  0.00D+00 EMaxC= 1.00D-01 BMatC= 1.10D-07 BMatP= 1.10D-07
 IDIUse=1 WtCom= 1.00D+00 WtEn= 0.00D+00
 Coeff-Com:  0.100D+01
 Coeff:      0.100D+01
 Gap=     0.284 Goal=   None    Shift=    0.000
 RMSDP=7.29D-06 MaxDP=2.01D-04 DE= 3.32D-06 OVMax= 2.26D-04

 Cycle   6  Pass 1  IDiag  1:
 CalDSu:  requested number of processors reduced to:  11 ShMem   1 Linda.
 E= -169.906050365149     Delta-E=        0.000000092630 Rises=F Damp=F
 DIIS: error= 4.13D-05 at cycle   2 NSaved=   2.
 NSaved= 2 IEnMin= 1 EnMin= -169.906050457780     IErMin= 1 ErrMin= 2.70D-05
 ErrMax= 4.13D-05  0.00D+00 EMaxC= 1.00D-01 BMatC= 2.26D-07 BMatP= 1.10D-07
 IDIUse=1 WtCom= 1.00D+00 WtEn= 0.00D+00
 Coeff-Com:  0.591D+00 0.409D+00
 Coeff:      0.591D+00 0.409D+00
 Gap=     0.284 Goal=   None    Shift=    0.000
 RMSDP=3.28D-06 MaxDP=1.18D-04 DE= 9.26D-08 OVMax= 1.36D-04

 Cycle   7  Pass 1  IDiag  1:
 CalDSu:  requested number of processors reduced to:  11 ShMem   1 Linda.
 E= -169.906050544017     Delta-E=       -0.000000178868 Rises=F Damp=F
 DIIS: error= 9.78D-07 at cycle   3 NSaved=   3.
 NSaved= 3 IEnMin= 3 EnMin= -169.906050544017     IErMin= 3 ErrMin= 9.78D-07
 ErrMax= 9.78D-07  0.00D+00 EMaxC= 1.00D-01 BMatC= 1.43D-10 BMatP= 1.10D-07
 IDIUse=1 WtCom= 1.00D+00 WtEn= 0.00D+00
 Coeff-Com:  0.277D-01 0.338D-01 0.938D+00
 Coeff:      0.277D-01 0.338D-01 0.938D+00
 Gap=     0.284 Goal=   None    Shift=    0.000
 RMSDP=2.18D-07 MaxDP=5.55D-06 DE=-1.79D-07 OVMax= 6.16D-06

 Cycle   8  Pass 1  IDiag  1:
 CalDSu:  requested number of processors reduced to:  11 ShMem   1 Linda.
 E= -169.906050544100     Delta-E=       -0.000000000083 Rises=F Damp=F
 DIIS: error= 6.44D-07 at cycle   4 NSaved=   4.
 NSaved= 4 IEnMin= 4 EnMin= -169.906050544100     IErMin= 4 ErrMin= 6.44D-07
 ErrMax= 6.44D-07  0.00D+00 EMaxC= 1.00D-01 BMatC= 5.77D-11 BMatP= 1.43D-10
 IDIUse=1 WtCom= 1.00D+00 WtEn= 0.00D+00
 Coeff-Com: -0.153D-02 0.506D-02 0.443D+00 0.554D+00
 Coeff:     -0.153D-02 0.506D-02 0.443D+00 0.554D+00
 Gap=     0.284 Goal=   None    Shift=    0.000
 RMSDP=8.41D-08 MaxDP=2.00D-06 DE=-8.30D-11 OVMax= 2.07D-06

 Cycle   9  Pass 1  IDiag  1:
 CalDSu:  requested number of processors reduced to:  11 ShMem   1 Linda.
 E= -169.906050544156     Delta-E=       -0.000000000056 Rises=F Damp=F
 DIIS: error= 1.08D-07 at cycle   5 NSaved=   5.
 NSaved= 5 IEnMin= 5 EnMin= -169.906050544156     IErMin= 5 ErrMin= 1.08D-07
 ErrMax= 1.08D-07  0.00D+00 EMaxC= 1.00D-01 BMatC= 6.94D-13 BMatP= 5.77D-11
 IDIUse=1 WtCom= 1.00D+00 WtEn= 0.00D+00
 Coeff-Com: -0.217D-02-0.452D-03 0.919D-01 0.154D+00 0.757D+00
 Coeff:     -0.217D-02-0.452D-03 0.919D-01 0.154D+00 0.757D+00
 Gap=     0.284 Goal=   None    Shift=    0.000
 RMSDP=7.95D-09 MaxDP=1.53D-07 DE=-5.55D-11 OVMax= 2.84D-07

 SCF Done:  E(RB3LYP) =  -169.906050544     A.U. after    9 cycles
            NFock=  9  Conv=0.80D-08     -V/T= 2.0066
 KE= 1.687956812217D+02 PE=-5.409577987050D+02 EE= 1.309851352341D+02
 Leave Link  502 at Tue Aug 23 16:09:05 2022, MaxMem=    23592960 cpu:        11.4
 (Enter /public/home/users/caep010/software/Gaussian09/g09/l701.exe)
 Compute integral first derivatives.
 ... and contract with generalized density number  0.
 PrsmSu:  requested number of processors reduced to:   3 ShMem   1 Linda.
 PrsmSu:  requested number of processors reduced to:   6 ShMem   1 Linda.
 Leave Link  701 at Tue Aug 23 16:09:06 2022, MaxMem=    23592960 cpu:         1.5
 (Enter /public/home/users/caep010/software/Gaussian09/g09/l702.exe)
 L702 exits ... SP integral derivatives will be done elsewhere.
 Leave Link  702 at Tue Aug 23 16:09:06 2022, MaxMem=    23592960 cpu:         0.5
 (Enter /public/home/users/caep010/software/Gaussian09/g09/l703.exe)
 Compute integral first derivatives, UseDBF=F ICtDFT=           0.
 Integral derivatives from FoFJK, PRISM(SPDF).
 Calling FoFJK, ICntrl=      2127 FMM=F ISym2X=0 I1Cent= 0 IOpClX= 0 NMat=1 NMatS=1 NMatT=0.
 FoFJK:  IHMeth= 1 ICntrl=    2127 DoSepK=F KAlg= 0 I1Cent=   0 FoldK=F
 IRaf=         0 NMat=   1 IRICut=       1 DoRegI=T DoRafI=F ISym2E= 0.
 FoFCou: FMM=F IPFlag=           0 FMFlag=      100000 FMFlg1=         800
         NFxFlg=           0 DoJE=F BraDBF=F KetDBF=F FulRan=T
         wScrn=  0.000000 ICntrl=    2127 IOpCl=  0 I1Cent=           0 NGrid=           0
         NMat0=    1 NMatS0=      1 NMatT0=    0 NMatD0=    1 NMtDS0=    0 NMtDT0=    0
 Symmetry not used in FoFCou.
 CoulSu:  requested number of processors reduced to:   6 ShMem   1 Linda.
 CalDSu:  requested number of processors reduced to:  21 ShMem   1 Linda.
 Leave Link  703 at Tue Aug 23 16:09:06 2022, MaxMem=    23592960 cpu:         5.7
 (Enter /public/home/users/caep010/software/Gaussian09/g09/l716.exe)
 Dipole        =-1.44151033D+00 2.79671390D-01 6.06688366D-05
 ***** Axes restored to original set *****
 -------------------------------------------------------------------
 Center     Atomic                   Forces (Hartrees/Bohr)
 Number     Number              X              Y              Z
 -------------------------------------------------------------------
      1        7          -0.000106225   -0.000972459    0.000007769
      2        6           0.001715384   -0.001709523   -0.000490679
      3        8          -0.000638917    0.000535480    0.000180362
      4        1          -0.000596459    0.000480132    0.000183436
      5        1          -0.000147389    0.000193548    0.000044189
      6        1          -0.000226393    0.001472821    0.000074924
 -------------------------------------------------------------------
 Cartesian Forces:  Max     0.001715384 RMS     0.000770910
 Leave Link  716 at Tue Aug 23 16:09:06 2022, MaxMem=    23592960 cpu:         0.8
 (Enter /public/home/users/caep010/software/Gaussian09/g09/l103.exe)

 GradGradGradGradGradGradGradGradGradGradGradGradGradGradGradGradGradGrad
 Berny optimization.
 Using GEDIIS/GDIIS optimizer.
 FormGI is forming the generalized inverse of G from B-inverse, IUseBI=4.
 Internal  Forces:  Max     0.001361222 RMS     0.000620730
 Search for a local minimum.
 Step number   3 out of a maximum of   25
 All quantities printed in internal units (Hartrees-Bohrs-Radians)
 RMS Force = .62073D-03 SwitMx=.10000D-02 MixMth= 2
 Mixed Optimization -- En-DIIS/RFO-DIIS
 Update second derivatives using D2CorX and points    1    2    3
 DE= -2.89D-04 DEPred=-2.69D-04 R= 1.07D+00
 TightC=F SS=  1.41D+00  RLast= 4.48D-02 DXNew= 8.4853D-01 1.3427D-01
 Trust test= 1.07D+00 RLast= 4.48D-02 DXMaxT set to 5.05D-01
 The second derivative matrix:
                          R1        R2        R3        R4        R5
           R1           0.44579
           R2           0.00890   0.41990
           R3           0.01440   0.00493   0.41452
           R4           0.01995   0.00518   0.00506   0.76235
           R5           0.00084   0.00408   0.00446   0.03964   0.32956
           A1           0.01081   0.00011   0.00701   0.02374  -0.01252
           A2          -0.00749   0.00028  -0.00439  -0.01191   0.00536
           A3          -0.00332  -0.00039  -0.00262  -0.01183   0.00717
           A4          -0.00290   0.00342   0.00093   0.02104  -0.01586
           A5           0.01750   0.00181   0.00738  -0.00151   0.01067
           A6           0.00459  -0.00054   0.00390   0.02003  -0.01270
           D1           0.00010  -0.00005   0.00006   0.00024  -0.00015
           D2          -0.00011   0.00005  -0.00007  -0.00025   0.00015
           D3           0.00011  -0.00006   0.00007   0.00028  -0.00017
           D4          -0.00009   0.00005  -0.00006  -0.00022   0.00013
                          A1        A2        A3        A4        A5
           A1           0.16071
           A2          -0.00195   0.16197
           A3           0.00124  -0.00002   0.15878
           A4          -0.00951   0.00473   0.00478   0.24155
           A5           0.01225  -0.00723  -0.00503   0.00250   0.16595
           A6          -0.00242   0.00022   0.00220  -0.00880   0.00754
           D1           0.00002  -0.00003   0.00001  -0.00012   0.00014
           D2          -0.00002   0.00003  -0.00001   0.00012  -0.00015
           D3           0.00002  -0.00003   0.00001  -0.00013   0.00016
           D4          -0.00002   0.00003  -0.00001   0.00010  -0.00013
                          A6        D1        D2        D3        D4
           A6           0.15588
           D1          -0.00002   0.01368
           D2           0.00002  -0.00000   0.01368
           D3          -0.00002   0.00000  -0.00000   0.01368
           D4           0.00001  -0.00000   0.00000  -0.00000   0.01368
 ITU=  1  1  0
 Use linear search instead of GDIIS.
     Eigenvalues ---    0.01368   0.01368   0.01368   0.13683   0.16004
     Eigenvalues ---    0.16817   0.22302   0.33021   0.40887   0.41754
     Eigenvalues ---    0.45458   0.76909
 RFO step:  Lambda=-1.70832197D-05 EMin= 1.36801454D-02
 Quartic linear search produced a step of  0.16417.
 Iteration  1 RMS(Cart)=  0.00466512 RMS(Int)=  0.00001865
 Iteration  2 RMS(Cart)=  0.00001953 RMS(Int)=  0.00000037
 Iteration  3 RMS(Cart)=  0.00000000 RMS(Int)=  0.00000037
 ITry= 1 IFail=0 DXMaxC= 1.04D-02 DCOld= 1.00D+10 DXMaxT= 5.05D-01 DXLimC= 3.00D+00 Rises=F
 Variable       Old X    -DE/DX   Delta X   Delta X   Delta X     New X
                                 (Linear)    (Quad)   (Total)
    R1        2.56730   0.00091  -0.00058   0.00265   0.00208   2.56938
    R2        1.90463  -0.00022   0.00091  -0.00149  -0.00058   1.90405
    R3        1.89839   0.00025  -0.00060   0.00098   0.00038   1.89878
    R4        2.28698  -0.00084  -0.00194  -0.00001  -0.00195   2.28504
[...]
 IDIUse=1 WtCom= 1.00D+00 WtEn= 0.00D+00
 Coeff-Com:  0.927D-03-0.417D-01 0.104D+01
 Coeff:      0.927D-03-0.417D-01 0.104D+01
 Gap=     0.459 Goal=   None    Shift=    0.000
 RMSDP=5.25D-06 MaxDP=3.41D-04 DE=-2.96D-06 OVMax= 1.08D-04

 Cycle   4  Pass 1  IDiag  1:
 RMSU=  1.19D-06    CP:  9.89D-01  1.09D+00  1.16D+00
 CoulSu:  requested number of processors reduced to:   1 ShMem   1 Linda.
 E= -169.018022168205     Delta-E=       -0.000000062866 Rises=F Damp=F
 DIIS: error= 1.09D-05 at cycle   4 NSaved=   4.
 NSaved= 4 IEnMin= 4 EnMin= -169.018022168205     IErMin= 4 ErrMin= 1.09D-05
 ErrMax= 1.09D-05  0.00D+00 EMaxC= 1.00D-01 BMatC= 1.37D-08 BMatP= 5.50D-08
 IDIUse=1 WtCom= 1.00D+00 WtEn= 0.00D+00
 Coeff-Com:  0.138D-02-0.417D-01 0.317D+00 0.723D+00
 Coeff:      0.138D-02-0.417D-01 0.317D+00 0.723D+00
 Gap=     0.459 Goal=   None    Shift=    0.000
 RMSDP=7.63D-07 MaxDP=5.29D-05 DE=-6.29D-08 OVMax= 3.77D-05

 Cycle   5  Pass 1  IDiag  1:
 RMSU=  1.89D-07    CP:  9.89D-01  1.09D+00  1.18D+00  1.21D+00
 CoulSu:  requested number of processors reduced to:   1 ShMem   1 Linda.
 E= -169.018022178648     Delta-E=       -0.000000010443 Rises=F Damp=F
 DIIS: error= 3.59D-06 at cycle   5 NSaved=   5.
 NSaved= 5 IEnMin= 5 EnMin= -169.018022178648     IErMin= 5 ErrMin= 3.59D-06
 ErrMax= 3.59D-06  0.00D+00 EMaxC= 1.00D-01 BMatC= 8.78D-10 BMatP= 1.37D-08
 IDIUse=1 WtCom= 1.00D+00 WtEn= 0.00D+00
 Coeff-Com:  0.664D-04-0.104D-02-0.445D-01 0.106D+00 0.940D+00
 Coeff:      0.664D-04-0.104D-02-0.445D-01 0.106D+00 0.940D+00
 Gap=     0.459 Goal=   None    Shift=    0.000
 RMSDP=2.30D-07 MaxDP=1.07D-05 DE=-1.04D-08 OVMax= 1.45D-05

 Cycle   6  Pass 1  IDiag  1:
 RMSU=  6.27D-08    CP:  9.89D-01  1.09D+00  1.19D+00  1.32D+00  1.17D+00
 CoulSu:  requested number of processors reduced to:   1 ShMem   1 Linda.
 E= -169.018022179782     Delta-E=       -0.000000001134 Rises=F Damp=F
 DIIS: error= 1.20D-06 at cycle   6 NSaved=   6.
 NSaved= 6 IEnMin= 6 EnMin= -169.018022179782     IErMin= 6 ErrMin= 1.20D-06
 ErrMax= 1.20D-06  0.00D+00 EMaxC= 1.00D-01 BMatC= 1.08D-10 BMatP= 8.78D-10
 IDIUse=1 WtCom= 1.00D+00 WtEn= 0.00D+00
 Coeff-Com: -0.155D-03 0.490D-02-0.492D-01-0.637D-01 0.209D+00 0.900D+00
 Coeff:     -0.155D-03 0.490D-02-0.492D-01-0.637D-01 0.209D+00 0.900D+00
 Gap=     0.459 Goal=   None    Shift=    0.000
 RMSDP=5.43D-08 MaxDP=2.43D-06 DE=-1.13D-09 OVMax= 5.52D-06

 Cycle   7  Pass 1  IDiag  1:
 RMSU=  1.94D-08    CP:  9.89D-01  1.09D+00  1.19D+00  1.34D+00  1.25D+00
                    CP:  1.34D+00
 CoulSu:  requested number of processors reduced to:   1 ShMem   1 Linda.
 E= -169.018022179938     Delta-E=       -0.000000000156 Rises=F Damp=F
 DIIS: error= 2.12D-07 at cycle   7 NSaved=   7.
 NSaved= 7 IEnMin= 7 EnMin= -169.018022179938     IErMin= 7 ErrMin= 2.12D-07
 ErrMax= 2.12D-07  0.00D+00 EMaxC= 1.00D-01 BMatC= 5.42D-12 BMatP= 1.08D-10
 IDIUse=1 WtCom= 1.00D+00 WtEn= 0.00D+00
 Coeff-Com: -0.104D-05-0.577D-04 0.491D-02-0.444D-02-0.812D-01 0.124D-01
 Coeff-Com:  0.107D+01
 Coeff:     -0.104D-05-0.577D-04 0.491D-02-0.444D-02-0.812D-01 0.124D-01
 Coeff:      0.107D+01
 Gap=     0.459 Goal=   None    Shift=    0.000
 RMSDP=1.94D-08 MaxDP=1.23D-06 DE=-1.56D-10 OVMax= 1.47D-06

 Cycle   8  Pass 1  IDiag  1:
 RMSU=  5.71D-09    CP:  9.89D-01  1.09D+00  1.19D+00  1.34D+00  1.24D+00
                    CP:  1.46D+00  1.27D+00
 CoulSu:  requested number of processors reduced to:   1 ShMem   1 Linda.
 E= -169.018022179941     Delta-E=       -0.000000000003 Rises=F Damp=F
 DIIS: error= 8.66D-08 at cycle   8 NSaved=   8.
 NSaved= 8 IEnMin= 8 EnMin= -169.018022179941     IErMin= 8 ErrMin= 8.66D-08
 ErrMax= 8.66D-08  0.00D+00 EMaxC= 1.00D-01 BMatC= 5.55D-13 BMatP= 5.42D-12
 IDIUse=1 WtCom= 1.00D+00 WtEn= 0.00D+00
 Coeff-Com:  0.116D-04-0.383D-03 0.466D-02 0.449D-02-0.358D-01-0.573D-01
 Coeff-Com:  0.228D+00 0.856D+00
 Coeff:      0.116D-04-0.383D-03 0.466D-02 0.449D-02-0.358D-01-0.573D-01
 Coeff:      0.228D+00 0.856D+00
 Gap=     0.459 Goal=   None    Shift=    0.000
 RMSDP=4.53D-09 MaxDP=2.43D-07 DE=-2.98D-12 OVMax= 4.14D-07

 SCF Done:  E(RHF) =  -169.018022180     A.U. after    8 cycles
            NFock=  8  Conv=0.45D-08     -V/T= 2.0014
 KE= 1.687777981477D+02 PE=-5.404637744365D+02 EE= 1.314268908218D+02
 Leave Link  502 at Tue Aug 23 16:23:22 2022, MaxMem=    23592960 cpu:       936.2
 (Enter /public/home/users/caep010/software/Gaussian09/g09/l601.exe)
 Copying SCF densities to generalized density rwf, IOpCl= 0 IROHF=0.

 **********************************************************************

            Population analysis using the SCF density.

 **********************************************************************

 Orbital symmetries:
       Occupied  (A) (A) (A) (A) (A) (A) (A) (A) (A) (A) (A) (A)
       Virtual   (A) (A) (A) (A) (A) (A) (A) (A) (A) (A) (A) (A)
                 (A) (A) (A) (A) (A) (A) (A) (A) (A) (A) (A) (A)
                 (A) (A) (A) (A) (A) (A) (A) (A) (A) (A) (A) (A)
                 (A) (A) (A) (A) (A) (A) (A) (A) (A) (A) (A) (A)
                 (A) (A) (A) (A) (A) (A) (A) (A) (A) (A) (A) (A)
                 (A) (A) (A) (A) (A) (A) (A) (A) (A) (A) (A) (A)
                 (A) (A) (A) (A) (A) (A) (A) (A) (A) (A) (A) (A)
                 (A) (A) (A) (A) (A) (A) (A) (A) (A) (A) (A) (A)
                 (A) (A) (A) (A) (A) (A) (A) (A) (A) (A) (A) (A)
                 (A) (A) (A) (A) (A) (A) (A) (A) (A) (A) (A) (A)
                 (A) (A) (A) (A) (A) (A) (A) (A) (A) (A) (A) (A)
                 (A) (A) (A) (A) (A) (A) (A) (A) (A) (A) (A) (A)
                 (A) (A) (A) (A) (A) (A) (A) (A) (A) (A) (A) (A)
                 (A) (A) (A) (A) (A) (A) (A) (A) (A) (A) (A) (A)
                 (A) (A) (A) (A) (A) (A) (A) (A) (A) (A) (A) (A)
                 (A) (A) (A) (A) (A) (A) (A) (A) (A) (A) (A) (A)
                 (A) (A) (A) (A) (A) (A) (A) (A) (A) (A) (A) (A)
                 (A) (A) (A) (A) (A) (A) (A) (A) (A) (A) (A) (A)
                 (A) (A) (A) (A) (A) (A) (A) (A) (A) (A) (A) (A)
                 (A) (A) (A) (A) (A) (A) (A) (A) (A) (A) (A) (A)
                 (A) (A) (A) (A) (A) (A) (A) (A) (A) (A) (A) (A)
                 (A) (A) (A) (A) (A) (A) (A) (A) (A) (A) (A) (A)
                 (A) (A) (A) (A) (A) (A) (A) (A) (A) (A) (A) (A)
                 (A) (A) (A) (A) (A) (A) (A) (A) (A) (A) (A) (A)
                 (A) (A) (A) (A) (A) (A) (A) (A) (A) (A) (A) (A)
                 (A) (A) (A) (A) (A) (A) (A) (A) (A) (A) (A) (A)
                 (A) (A) (A) (A) (A) (A) (A) (A) (A) (A) (A) (A)
                 (A) (A) (A) (A) (A) (A) (A) (A) (A) (A) (A) (A)
                 (A) (A) (A) (A) (A) (A) (A) (A) (A)
 The electronic state is 1-A.
 Alpha  occ. eigenvalues --  -20.52850 -15.59441 -11.35679  -1.38868  -1.22051
 Alpha  occ. eigenvalues --   -0.85195  -0.75199  -0.67490  -0.61181  -0.57398
 Alpha  occ. eigenvalues --   -0.43844  -0.42414
 Alpha virt. eigenvalues --    0.03506   0.04776   0.05893   0.07152   0.09118
 Alpha virt. eigenvalues --    0.09636   0.11015   0.15067   0.15079   0.17388
 Alpha virt. eigenvalues --    0.17932   0.18904   0.19005   0.21824   0.23990
 Alpha virt. eigenvalues --    0.26999   0.29546   0.31342   0.33056   0.37049
 Alpha virt. eigenvalues --    0.41385   0.43757   0.44010   0.47824   0.51170
 Alpha virt. eigenvalues --    0.52194   0.54217   0.55905   0.58458   0.58581
 Alpha virt. eigenvalues --    0.60003   0.62356   0.64235   0.68707   0.72252
 Alpha virt. eigenvalues --    0.72554   0.79646   0.83177   0.84796   0.87951
 Alpha virt. eigenvalues --    0.91095   0.91608   0.95334   0.97331   1.00026
 Alpha virt. eigenvalues --    1.02473   1.03838   1.04873   1.07404   1.10056
 Alpha virt. eigenvalues --    1.18416   1.19358   1.22394   1.29215   1.29971
 Alpha virt. eigenvalues --    1.30814   1.33714   1.38289   1.38700   1.41310
 Alpha virt. eigenvalues --    1.47631   1.50486   1.54891   1.56633   1.61690
 Alpha virt. eigenvalues --    1.62385   1.63864   1.69388   1.71805   1.75477
 Alpha virt. eigenvalues --    1.81896   1.86619   1.87393   1.88792   1.90855
 Alpha virt. eigenvalues --    2.01163   2.01224   2.05044   2.12457   2.15476
 Alpha virt. eigenvalues --    2.20405   2.24588   2.24917   2.32726   2.33417
 Alpha virt. eigenvalues --    2.36690   2.39668   2.42788   2.48266   2.49133
 Alpha virt. eigenvalues --    2.54112   2.55181   2.58741   2.59374   2.60612
 Alpha virt. eigenvalues --    2.66040   2.69790   2.73805   2.76218   2.78698
 Alpha virt. eigenvalues --    2.80439   2.83676   2.87841   2.92741   3.01051
 Alpha virt. eigenvalues --    3.03955   3.04318   3.10606   3.14817   3.14913
 Alpha virt. eigenvalues --    3.18872   3.21056   3.22440   3.27031   3.27578
 Alpha virt. eigenvalues --    3.30470   3.36328   3.42579   3.46478   3.46930
 Alpha virt. eigenvalues --    3.50109   3.50567   3.56310   3.56588   3.66416
 Alpha virt. eigenvalues --    3.66849   3.78508   3.83061   3.86482   3.90394
 Alpha virt. eigenvalues --    3.93734   3.98904   4.03661   4.04493   4.06016
 Alpha virt. eigenvalues --    4.08656   4.15690   4.19335   4.27718   4.30828
 Alpha virt. eigenvalues --    4.31428   4.36687   4.51451   4.52442   4.57132
 Alpha virt. eigenvalues --    4.58244   4.67600   4.72289   4.79604   4.84150
 Alpha virt. eigenvalues --    4.86137   5.04878   5.06758   5.15276   5.18671
 Alpha virt. eigenvalues --    5.19621   5.31377   5.41135   5.47171   5.55076
 Alpha virt. eigenvalues --    5.61667   5.63988   5.72991   5.73468   5.75735
 Alpha virt. eigenvalues --    5.76437   5.78944   5.88306   5.99620   6.01501
 Alpha virt. eigenvalues --    6.03532   6.16329   6.22139   6.22921   6.29450
 Alpha virt. eigenvalues --    6.36390   6.42916   6.46556   6.59331   6.62352
 Alpha virt. eigenvalues --    6.79873   6.84769   6.97812   7.17024   7.17939
 Alpha virt. eigenvalues --    7.21390   7.23600   7.27786   7.31794   7.35138
 Alpha virt. eigenvalues --    7.41856   7.56494   7.58596   7.64538   7.68860
 Alpha virt. eigenvalues --    7.72800   7.88515   7.88726   7.91161   7.93754
 Alpha virt. eigenvalues --    7.99100   8.16412   8.16502   8.16820   8.22003
 Alpha virt. eigenvalues --    8.40247   8.40601   8.44555   8.44972   8.56628
 Alpha virt. eigenvalues --    8.57606   8.60773   8.64110   8.68682   8.75187
 Alpha virt. eigenvalues --    8.76345   8.85821   8.92734   9.01039   9.06728
 Alpha virt. eigenvalues --    9.08712   9.09385   9.14822   9.18650   9.24447
 Alpha virt. eigenvalues --    9.33115   9.41144   9.47914   9.52537   9.59988
 Alpha virt. eigenvalues --    9.65390   9.65814   9.75220   9.81828   9.89095
 Alpha virt. eigenvalues --    9.94179   9.96583  10.02836  10.07670  10.15266
 Alpha virt. eigenvalues --   10.17892  10.21142  10.30762  10.31870  10.39629
 Alpha virt. eigenvalues --   10.43119  10.45518  10.68416  10.77714  10.89711
 Alpha virt. eigenvalues --   10.94049  11.06458  11.12854  11.28338  11.33151
 Alpha virt. eigenvalues --   11.45508  11.57285  11.58309  11.65988  11.74080
 Alpha virt. eigenvalues --   11.84305  11.90892  11.94441  12.05545  12.38591
 Alpha virt. eigenvalues --   12.43613  12.44854  12.46577  12.51848  12.60310
 Alpha virt. eigenvalues --   12.82480  13.01171  13.15063  13.28453  13.43118
 Alpha virt. eigenvalues --   13.54052  13.59462  13.68912  13.87005  14.16719
 Alpha virt. eigenvalues --   14.31326  14.31406  14.38018  14.40888  14.45330
 Alpha virt. eigenvalues --   14.48463  14.57644  14.60542  14.76132  14.87593
 Alpha virt. eigenvalues --   14.88875  14.93471  14.97112  15.02197  15.11790
 Alpha virt. eigenvalues --   15.16779  15.23632  15.29158  15.44346  15.59359
 Alpha virt. eigenvalues --   15.90337  16.03419  16.04321  16.07787  16.26741
 Alpha virt. eigenvalues --   16.51724  16.59127  16.69850  16.85099  16.86829
 Alpha virt. eigenvalues --   17.16677  17.42922  17.66190  18.04327  18.29064
 Alpha virt. eigenvalues --   18.55856  18.58428  18.64904  18.67512  18.90483
 Alpha virt. eigenvalues --   18.91509  19.14638  19.15876  19.34568  19.41432
 Alpha virt. eigenvalues --   19.41995  19.50627  19.52117  19.54981  19.76141
 Alpha virt. eigenvalues --   19.76249  19.84396  20.02826  20.47248  21.00619
 Alpha virt. eigenvalues --   21.36707  22.23122  22.30177  22.41637  23.41337
 Alpha virt. eigenvalues --   23.68500  24.18713  40.49676  51.26211  63.81682
          Condensed to atoms (all electrons):
               1          2          3          4          5          6
     1  N    6.766471   0.392021  -0.118834   0.340454   0.365466  -0.101971
     2  C    0.392021   4.283496   0.521316  -0.016287  -0.019079   0.436754
     3  O   -0.118834   0.521316   8.196492   0.014437   0.004085  -0.025207
     4  H    0.340454  -0.016287   0.014437   0.317924  -0.014067   0.006574
     5  H    0.365466  -0.019079   0.004085  -0.014067   0.328356   0.003295
     6  H   -0.101971   0.436754  -0.025207   0.006574   0.003295   0.529349
 Mulliken charges:
               1
     1  N   -0.643607
     2  C    0.401780
     3  O   -0.592289
     4  H    0.350965
     5  H    0.331945
     6  H    0.151206
 Sum of Mulliken charges =  -0.00000
 Mulliken charges with hydrogens summed into heavy atoms:
               1
     1  N    0.039303
     2  C    0.552986
     3  O   -0.592289
 Electronic spatial extent (au):  <R**2>=            146.7294
 Charge=             -0.0000 electrons
 Dipole moment (field-independent basis, Debye):
    X=             -4.0742    Y=              1.1858    Z=              0.0001  Tot=              4.2432
 Quadrupole moment (field-independent basis, Debye-Ang):
   XX=            -18.4879   YY=            -14.9851   ZZ=            -19.0017
   XY=              1.2922   XZ=             -0.0003   YZ=              0.0000
 Traceless Quadrupole moment (field-independent basis, Debye-Ang):
   XX=             -0.9963   YY=              2.5065   ZZ=             -1.5102
   XY=              1.2922   XZ=             -0.0003   YZ=              0.0000
 Octapole moment (field-independent basis, Debye-Ang**2):
  XXX=            -13.5656  YYY=             -1.3605  ZZZ=              0.0001  XYY=             -3.1102
  XXY=              1.0716  XXZ=              0.0005  XZZ=              1.4174  YZZ=             -0.0057
  YYZ=              0.0001  XYZ=             -0.0000
 Hexadecapole moment (field-independent basis, Debye-Ang**3):
 XXXX=           -110.8710 YYYY=            -31.8481 ZZZZ=            -18.3076 XXXY=             -2.6765
 XXXZ=             -0.0011 YYYX=              3.8318 YYYZ=             -0.0000 ZZZX=             -0.0002
 ZZZY=             -0.0000 XXYY=            -23.0700 XXZZ=            -25.6879 YYZZ=             -9.6285
 XXYZ=              0.0001 YYXZ=             -0.0002 ZZXY=             -0.1871
 N-N= 7.124106328712D+01 E-N=-5.404637741606D+02  KE= 1.687777981477D+02
 PrsmSu:  requested number of processors reduced to:   1 ShMem   1 Linda.
 No NMR shielding tensors so no spin-rotation constants.
 Leave Link  601 at Tue Aug 23 16:23:22 2022, MaxMem=    23592960 cpu:         3.6
 (Enter /public/home/users/caep010/software/Gaussian09/g09/l9999.exe)
 1\1\GINC-B1052\SP\RHF\GFHFB2\C1H3N1O1\ROOT\23-Aug-2022\0\\#P Geom=AllC
 heck Guess=TCheck SCRF=Check HF/GFHFB2 SCF=Tight\\Frag_975\\0,1\N,0,-0
 .6602721467,-0.0885436417,0.1939381344\C,0,0.6345112789,0.0792778225,-
 0.186529875\O,0,1.4088415506,-0.8172777549,-0.4288348489\H,0,-1.028552
 1571,-1.0215873509,0.2890616524\H,0,-1.2603806248,0.6950786389,0.38311
 09485\H,0,0.9058520991,1.1530522861,-0.2508460114\\Version=ES64L-G09Re
 vE.01\State=1-A\HF=-169.0180222\RMSD=4.534e-09\Dipole=-1.3438995,0.901
 1468,0.4108984\Quadrupole=-0.0881652,1.1326153,-1.04445,1.4606552,-0.2
 845535,-0.3985165\PG=C01 [X(C1H3N1O1)]\\@


 We're simply so accustomed to the marvels of everyday thought
 that we never wonder about it.
 -- Marvin Minsky in "Why people think computers are smart"
 Diagonal vibrational polarizability:
        0.0000000       0.0000000       0.0000000

 Temperature=              298.150000 Pressure=                      1.000000
 E(ZPE)=                     0.044621 E(Thermal)=                    0.048521
 E(CCSD(T))=              -169.424855 E(Empiric)=                   -0.062523
 DE(Plus)=                  -0.016290 DE(2DF)=                      -0.132007
 E(Delta-G3XP)=             -0.208658 DE(HF)=                       -0.017174
 G4(0 K)=                 -169.816885 G4 Energy=                  -169.812985
 G4 Enthalpy=             -169.812041 G4 Free Energy=             -169.841696
 1\1\GINC-B1052\Mixed\G4\G4\C1H3N1O1\ROOT\23-Aug-2022\0\\#P Geom=AllChe
 ck Guess=TCheck SCRF=Check HF/GFHFB2 SCF=Tight\\Frag_975\\0,1\N,0,-0.6
 602721467,-0.0885436417,0.1939381344\C,0,0.6345112789,0.0792778225,-0.
 186529875\O,0,1.4088415506,-0.8172777549,-0.4288348489\H,0,-1.02855215
 71,-1.0215873509,0.2890616524\H,0,-1.2603806248,0.6950786389,0.3831109
 485\H,0,0.9058520991,1.1530522861,-0.2508460114\\Version=ES64L-G09RevE
 .01\State=1-A\MP2/GTBas1=-169.3940463\MP4/GTBas1=-169.4273469\CCSD(T)/
 G3Bas1=-169.4248546\MP2/GTBas2=-169.4097229\MP4/GTBas2=-169.4436367\MP
 2/GTBas3=-169.5179347\MP4/GTBas3=-169.5593537\HF/GTLargeXP=-169.001550
 2\MP2/GTLargeXP=-169.742269\HF/GFHFB1=-169.0151424\HF/GFHFB2=-169.0180
 222\G4=-169.8168849\FreqCoord=-1.2477335303,-0.1673232336,0.3664899607
 ,1.1990525453,0.1498133729,-0.3524903794,2.6623246952,-1.5444311312,-0
 .8103804206,-1.9436818903,-1.930520314,0.5462473585,-2.3817742041,1.31
 35082684,0.7239747713,1.7118123842,2.1789530376,-0.474030263\PG=C01 [X
 (C1H3N1O1)]\NImag=0\\0.71593096,-0.02876325,0.86209896,-0.20809217,0.0
 2109226,0.07577395,-0.31636578,-0.04157506,0.08006927,0.75956074,-0.05
 407227,-0.15595374,0.01432557,-0.18223413,0.87373833,0.07987717,0.0106
 2889,-0.06705346,-0.17092773,0.06402613,0.24228496,-0.06638091,0.05433
 573,0.02615248,-0.35001578,0.29708231,0.08574122,0.40599168,0.03743700
 ,0.02174110,-0.01103542,0.29456545,-0.48274523,-0.09316616,-0.36416022
 ,0.49858299,0.02590293,-0.01603439,0.01142212,0.08570337,-0.09390944,-
 0.10174747,-0.11568233,0.11460502,0.06902475,-0.11796406,-0.12931977,0
 .03154415,-0.00420292,-0.03984545,0.00091573,0.00408563,0.00584782,-0.
 00280938,0.11207579,-0.12594687,-0.40290114,0.03135972,-0.00499246,-0.
 00199575,0.00143412,0.00190823,-0.00052127,-0.00048763,0.14320826,0.41
 509154,0.03159643,0.03236195,-0.01372105,0.00142968,0.01174210,0.00063
 726,-0.00286690,-0.00165320,-0.00488131,-0.02844808,-0.03634361,0.0166
 1307,-0.20349715,0.18165482,0.06416151,-0.00865127,0.03282980,-0.00009
 454,-0.00594506,-0.00369271,0.00412994,0.01121109,-0.01345381,-0.00520
 942,0.20634983,0.18043258,-0.31799363,-0.05816361,-0.00350441,0.008826
 24,0.00132567,-0.00217318,0.00229439,0.00055475,0.02084901,-0.01124295
 ,-0.00625049,-0.19573610,0.31862416,0.06414690,-0.05852869,-0.01557565
 ,-0.00063690,-0.00942124,-0.01057429,0.00415224,0.00100441,0.00699007,
 -0.00470078,0.00389886,-0.00427471,-0.06239312,0.06255948,0.02465480,-
 0.01172306,-0.03633247,0.00616475,-0.08032499,-0.05376026,0.00448815,0
 .01226443,0.03000266,0.00275547,-0.00520554,-0.00072336,0.00349830,0.0
 0053256,0.00013210,-0.00056835,0.08445660,-0.00908720,-0.00699154,0.00
 242148,-0.06225940,-0.24186986,0.01575134,0.01300713,-0.03935198,-0.00
 472831,-0.00073987,0.00156958,0.00014325,-0.00160201,-0.00050821,0.000
 48717,0.06068134,0.28715202,0.00656873,0.01047998,0.00915409,0.0043623
 1,0.01323687,-0.06354699,0.00250329,-0.00975465,0.01919185,0.00349836,
 0.00013855,0.00562674,-0.00059437,-0.00002581,-0.00122022,-0.01633832,
 -0.01407494,0.03079454\\-0.00005431,0.00005916,0.00001789,0.00008740,-
 0.00013814,-0.00003262,-0.00002466,0.00001452,0.00000943,0.00000692,-0
 .00003339,-0.00000257,-0.00002130,0.00000105,0.00000670,0.00000596,0.0
 0009680,0.00000117\\\@
 Job cpu time:       0 days  0 hours 16 minutes  6.3 seconds.
 File lengths (MBytes):  RWF=    244 Int=      0 D2E=      0 Chk=      9 Scr=      1
 Normal termination of Gaussian 09 at Tue Aug 23 16:23:22 2022.
