 Entering Gaussian System, Link 0=g09
 Input=G4.Frag_604.gjf
 Output=G4.Frag_604.log
 Initial command:
 /public/home/users/caep010/software/Gaussian09/g09/l1.exe "/public/home/users/caep010/.cache/gau_scr/Gau-161115.inp" -scrdir="/public/home/users/caep010/.cache/gau_scr/"
 Entering Link 1 = /public/home/users/caep010/software/Gaussian09/g09/l1.exe PID=    161116.
  
 Copyright (c) 1988,1990,1992,1993,1995,1998,2003,2009,2015,
            Gaussian, Inc.  All Rights Reserved.
  
 This is part of the Gaussian(R) 09 program.  It is based on
 the Gaussian(R) 03 system (copyright 2003, Gaussian, Inc.),
 the Gaussian(R) 98 system (copyright 1998, Gaussian, Inc.),
 the Gaussian(R) 94 system (copyright 1995, Gaussian, Inc.),
 the Gaussian 92(TM) system (copyright 1992, Gaussian, Inc.),
 the Gaussian 90(TM) system (copyright 1990, Gaussian, Inc.),
 the Gaussian 88(TM) system (copyright 1988, Gaussian, Inc.),
 the Gaussian 86(TM) system (copyright 1986, Carnegie Mellon
 University), and the Gaussian 82(TM) system (copyright 1983,
 Carnegie Mellon University). Gaussian is a federally registered
 trademark of Gaussian, Inc.
  
 This software contains proprietary and confidential information,
 including trade secrets, belonging to Gaussian, Inc.
  
 This software is provided under written license and may be
 used, copied, transmitted, or stored only in accord with that
 written license.
  
 The following legend is applicable only to US Government
 contracts under FAR:
  
                    RESTRICTED RIGHTS LEGEND
  
 Use, reproduction and disclosure by the US Government is
 subject to restrictions as set forth in subparagraphs (a)
 and (c) of the Commercial Computer Software - Restricted
 Rights clause in FAR 52.227-19.
  
 Gaussian, Inc.
 340 Quinnipiac St., Bldg. 40, Wallingford CT 06492
  
  
 ---------------------------------------------------------------
 Warning -- This program may not be used in any manner that
 competes with the business of Gaussian, Inc. or will provide
 assistance to any competitor of Gaussian, Inc.  The licensee
 of this program is prohibited from giving any competitor of
 Gaussian, Inc. access to this program.  By using this program,
 the user acknowledges that Gaussian, Inc. is engaged in the
 business of creating and licensing software in the field of
 computational chemistry and represents and warrants to the
 licensee that it is not a competitor of Gaussian, Inc. and that
 it will not use this program in any manner prohibited above.
 ---------------------------------------------------------------
  

 Cite this work as:
 Gaussian 09, Revision E.01,
 M. J. Frisch, G. W. Trucks, H. B. Schlegel, G. E. Scuseria, 
 M. A. Robb, J. R. Cheeseman, G. Scalmani, V. Barone, B. Mennucci, 
 G. A. Petersson, H. Nakatsuji, M. Caricato, X. Li, H. P. Hratchian, 
 A. F. Izmaylov, J. Bloino, G. Zheng, J. L. Sonnenberg, M. Hada, 
 M. Ehara, K. Toyota, R. Fukuda, J. Hasegawa, M. Ishida, T. Nakajima, 
 Y. Honda, O. Kitao, H. Nakai, T. Vreven, J. A. Montgomery, Jr., 
 J. E. Peralta, F. Ogliaro, M. Bearpark, J. J. Heyd, E. Brothers, 
 K. N. Kudin, V. N. Staroverov, T. Keith, R. Kobayashi, J. Normand, 
 K. Raghavachari, A. Rendell, J. C. Burant, S. S. Iyengar, J. Tomasi, 
 M. Cossi, N. Rega, J. M. Millam, M. Klene, J. E. Knox, J. B. Cross, 
 V. Bakken, C. Adamo, J. Jaramillo, R. Gomperts, R. E. Stratmann, 
 O. Yazyev, A. J. Austin, R. Cammi, C. Pomelli, J. W. Ochterski, 
 R. L. Martin, K. Morokuma, V. G. Zakrzewski, G. A. Voth, 
 P. Salvador, J. J. Dannenberg, S. Dapprich, A. D. Daniels, 
 O. Farkas, J. B. Foresman, J. V. Ortiz, J. Cioslowski, 
 and D. J. Fox, Gaussian, Inc., Wallingford CT, 2013.
 
 ******************************************
 Gaussian 09:  ES64L-G09RevE.01 30-Nov-2015
                26-Aug-2022 
 ******************************************
 %nproc=32
 Will use up to   32 processors via shared memory.
 %mem=180GB
 %chk=G4.Frag_604.chk
 -----
 #P G4
 -----
 1/14=-1,18=20,19=15,26=3,38=1/1,3;
 2/9=110,12=2,17=6,18=5,40=1/2;
 3/5=35,7=104,11=2,16=1,25=1,30=1,71=1,74=-5/1,2,3;
 4//1;
 5/5=2,38=5/2;
 6/7=2,8=2,9=2,10=2,28=1/1;
 7//1,2,3,16;
 1/14=-1,18=20,19=15,26=3/3(2);
 2/9=110/2;
 99//99;
 2/9=110/2;
 3/5=35,7=104,11=2,16=1,25=1,30=1,71=1,74=-5/1,2,3;
 4/5=5,16=3,69=1/1;
 5/5=2,38=5/2;
 7//1,2,3,16;
 1/14=-1,18=20,19=15,26=3/3(-5);
 2/9=110/2;
 6/7=2,8=2,9=2,10=2,19=2,28=1/1;
 99/9=1/99;
 Leave Link    1 at Fri Aug 26 07:47:07 2022, MaxMem= 24159191040 cpu:         1.8
 (Enter /public/home/users/caep010/software/Gaussian09/g09/l101.exe)
 --------
 Frag_604
 --------
 Symbolic Z-matrix:
 Charge =  0 Multiplicity = 1
 C                    -0.5614    0.1512   -1.4763 
 C                    -0.2243   -0.0952    0.0044 
 C                    -0.821     1.0444    0.8591 
 N                    -0.8019   -1.3797    0.4238 
 C                     1.2878   -0.1464    0.1599 
 N                     1.9644   -1.1751   -0.2497 
 O                     1.9716    0.9343    0.7152 
 H                    -0.1018    1.0997   -1.8301 
 H                    -1.6613    0.219    -1.6203 
 H                    -0.1822   -0.6814   -2.107 
 H                    -0.4309    2.032     0.5301 
 H                    -1.9283    1.0631    0.7666 
 H                    -0.5645    0.9015    1.931 
 H                    -1.8438   -1.3435    0.3312 
 H                    -0.5905   -1.5399    1.4364 
 H                     1.5082   -2.0056   -0.6892 
 H                     2.9799    0.9216    0.815 
 
 NAtoms=     17 NQM=       17 NQMF=       0 NMMI=      0 NMMIF=      0
                NMic=       0 NMicF=      0.
                    Isotopes and Nuclear Properties:
 (Nuclear quadrupole moments (NQMom) in fm**2, nuclear magnetic moments (NMagM)
  in nuclear magnetons)

  Atom         1           2           3           4           5           6           7           8           9          10
 IAtWgt=          12          12          12          14          12          14          16           1           1           1
 AtmWgt=  12.0000000  12.0000000  12.0000000  14.0030740  12.0000000  14.0030740  15.9949146   1.0078250   1.0078250   1.0078250
 NucSpn=           0           0           0           2           0           2           0           1           1           1
 AtZEff=   0.0000000   0.0000000   0.0000000   0.0000000   0.0000000   0.0000000   0.0000000   0.0000000   0.0000000   0.0000000
 NQMom=    0.0000000   0.0000000   0.0000000   2.0440000   0.0000000   2.0440000   0.0000000   0.0000000   0.0000000   0.0000000
 NMagM=    0.0000000   0.0000000   0.0000000   0.4037610   0.0000000   0.4037610   0.0000000   2.7928460   2.7928460   2.7928460
 AtZNuc=   6.0000000   6.0000000   6.0000000   7.0000000   6.0000000   7.0000000   8.0000000   1.0000000   1.0000000   1.0000000

  Atom        11          12          13          14          15          16          17
 IAtWgt=           1           1           1           1           1           1           1
 AtmWgt=   1.0078250   1.0078250   1.0078250   1.0078250   1.0078250   1.0078250   1.0078250
 NucSpn=           1           1           1           1           1           1           1
 AtZEff=   0.0000000   0.0000000   0.0000000   0.0000000   0.0000000   0.0000000   0.0000000
 NQMom=    0.0000000   0.0000000   0.0000000   0.0000000   0.0000000   0.0000000   0.0000000
 NMagM=    2.7928460   2.7928460   2.7928460   2.7928460   2.7928460   2.7928460   2.7928460
 AtZNuc=   1.0000000   1.0000000   1.0000000   1.0000000   1.0000000   1.0000000   1.0000000
 Leave Link  101 at Fri Aug 26 07:47:08 2022, MaxMem= 24159191040 cpu:        10.0
 (Enter /public/home/users/caep010/software/Gaussian09/g09/l103.exe)

 GradGradGradGradGradGradGradGradGradGradGradGradGradGradGradGradGradGrad
 Berny optimization.
 Initialization pass.
                           ----------------------------
                           !    Initial Parameters    !
                           ! (Angstroms and Degrees)  !
 --------------------------                            --------------------------
 ! Name  Definition              Value          Derivative Info.                !
 --------------------------------------------------------------------------------
 ! R1    R(1,2)                  1.5384         estimate D2E/DX2                !
 ! R2    R(1,8)                  1.1118         estimate D2E/DX2                !
 ! R3    R(1,9)                  1.1114         estimate D2E/DX2                !
 ! R4    R(1,10)                 1.1112         estimate D2E/DX2                !
 ! R5    R(2,3)                  1.5444         estimate D2E/DX2                !
 ! R6    R(2,4)                  1.4695         estimate D2E/DX2                !
 ! R7    R(2,5)                  1.5209         estimate D2E/DX2                !
 ! R8    R(3,11)                 1.1117         estimate D2E/DX2                !
 ! R9    R(3,12)                 1.1113         estimate D2E/DX2                !
 ! R10   R(3,13)                 1.1114         estimate D2E/DX2                !
 ! R11   R(4,14)                 1.0466         estimate D2E/DX2                !
 ! R12   R(4,15)                 1.0468         estimate D2E/DX2                !
 ! R13   R(5,6)                  1.2976         estimate D2E/DX2                !
 ! R14   R(5,7)                  1.3942         estimate D2E/DX2                !
 ! R15   R(6,16)                 1.0445         estimate D2E/DX2                !
 ! R16   R(7,17)                 1.0133         estimate D2E/DX2                !
 ! A1    A(2,1,8)              110.6306         estimate D2E/DX2                !
 ! A2    A(2,1,9)              110.5691         estimate D2E/DX2                !
 ! A3    A(2,1,10)             110.5788         estimate D2E/DX2                !
 ! A4    A(8,1,9)              108.4121         estimate D2E/DX2                !
 ! A5    A(8,1,10)             108.5143         estimate D2E/DX2                !
 ! A6    A(9,1,10)             108.0532         estimate D2E/DX2                !
 ! A7    A(1,2,3)              109.2566         estimate D2E/DX2                !
 ! A8    A(1,2,4)              109.1814         estimate D2E/DX2                !
 ! A9    A(1,2,5)              108.762          estimate D2E/DX2                !
 ! A10   A(3,2,4)              109.5833         estimate D2E/DX2                !
 ! A11   A(3,2,5)              110.6324         estimate D2E/DX2                !
 ! A12   A(4,2,5)              109.4004         estimate D2E/DX2                !
 ! A13   A(2,3,11)             110.8653         estimate D2E/DX2                !
 ! A14   A(2,3,12)             110.5678         estimate D2E/DX2                !
 ! A15   A(2,3,13)             110.4692         estimate D2E/DX2                !
 ! A16   A(11,3,12)            108.0633         estimate D2E/DX2                !
 ! A17   A(11,3,13)            108.5831         estimate D2E/DX2                !
 ! A18   A(12,3,13)            108.2039         estimate D2E/DX2                !
 ! A19   A(2,4,14)             109.6209         estimate D2E/DX2                !
 ! A20   A(2,4,15)             109.298          estimate D2E/DX2                !
 ! A21   A(14,4,15)            106.9731         estimate D2E/DX2                !
 ! A22   A(2,5,6)              120.851          estimate D2E/DX2                !
 ! A23   A(2,5,7)              120.1477         estimate D2E/DX2                !
 ! A24   A(6,5,7)              118.9788         estimate D2E/DX2                !
 ! A25   A(5,6,16)             122.3723         estimate D2E/DX2                !
 ! A26   A(5,7,17)             121.1675         estimate D2E/DX2                !
 ! D1    D(8,1,2,3)             62.3591         estimate D2E/DX2                !
 ! D2    D(8,1,2,4)           -177.8102         estimate D2E/DX2                !
 ! D3    D(8,1,2,5)            -58.4961         estimate D2E/DX2                !
 ! D4    D(9,1,2,3)            -57.7569         estimate D2E/DX2                !
 ! D5    D(9,1,2,4)             62.0738         estimate D2E/DX2                !
 ! D6    D(9,1,2,5)           -178.612          estimate D2E/DX2                !
 ! D7    D(10,1,2,3)          -177.3906         estimate D2E/DX2                !
 ! D8    D(10,1,2,4)           -57.5599         estimate D2E/DX2                !
 ! D9    D(10,1,2,5)            61.7542         estimate D2E/DX2                !
 ! D10   D(1,2,3,11)           -57.9812         estimate D2E/DX2                !
 ! D11   D(1,2,3,12)            61.8501         estimate D2E/DX2                !
 ! D12   D(1,2,3,13)          -178.3996         estimate D2E/DX2                !
 ! D13   D(4,2,3,11)          -177.5641         estimate D2E/DX2                !
 ! D14   D(4,2,3,12)           -57.7328         estimate D2E/DX2                !
 ! D15   D(4,2,3,13)            62.0175         estimate D2E/DX2                !
 ! D16   D(5,2,3,11)            61.7271         estimate D2E/DX2                !
 ! D17   D(5,2,3,12)          -178.4416         estimate D2E/DX2                !
 ! D18   D(5,2,3,13)           -58.6913         estimate D2E/DX2                !
 ! D19   D(1,2,4,14)           -61.8915         estimate D2E/DX2                !
 ! D20   D(1,2,4,15)          -178.8405         estimate D2E/DX2                !
 ! D21   D(3,2,4,14)            57.7375         estimate D2E/DX2                !
 ! D22   D(3,2,4,15)           -59.2116         estimate D2E/DX2                !
 ! D23   D(5,2,4,14)           179.1909         estimate D2E/DX2                !
 ! D24   D(5,2,4,15)            62.2418         estimate D2E/DX2                !
 ! D25   D(1,2,5,6)            -73.746          estimate D2E/DX2                !
 ! D26   D(1,2,5,7)            104.5083         estimate D2E/DX2                !
 ! D27   D(3,2,5,6)            166.2489         estimate D2E/DX2                !
 ! D28   D(3,2,5,7)            -15.4969         estimate D2E/DX2                !
 ! D29   D(4,2,5,6)             45.4313         estimate D2E/DX2                !
 ! D30   D(4,2,5,7)           -136.3145         estimate D2E/DX2                !
 ! D31   D(2,5,6,16)            -0.6087         estimate D2E/DX2                !
 ! D32   D(7,5,6,16)          -178.883          estimate D2E/DX2                !
 ! D33   D(2,5,7,17)          -179.1993         estimate D2E/DX2                !
 ! D34   D(6,5,7,17)            -0.9126         estimate D2E/DX2                !
 --------------------------------------------------------------------------------
 Trust Radius=3.00D-01 FncErr=1.00D-07 GrdErr=1.00D-06
 Number of steps in this run=     86 maximum allowed number of steps=    102.
 GradGradGradGradGradGradGradGradGradGradGradGradGradGradGradGradGradGrad

 Leave Link  103 at Fri Aug 26 07:47:08 2022, MaxMem= 24159191040 cpu:         0.6
 (Enter /public/home/users/caep010/software/Gaussian09/g09/l202.exe)
                          Input orientation:                          
 ---------------------------------------------------------------------
 Center     Atomic      Atomic             Coordinates (Angstroms)
 Number     Number       Type             X           Y           Z
 ---------------------------------------------------------------------
      1          6           0       -0.561400    0.151200   -1.476300
      2          6           0       -0.224300   -0.095200    0.004400
      3          6           0       -0.821000    1.044400    0.859100
      4          7           0       -0.801900   -1.379700    0.423800
      5          6           0        1.287800   -0.146400    0.159900
      6          7           0        1.964400   -1.175100   -0.249700
      7          8           0        1.971600    0.934300    0.715200
      8          1           0       -0.101800    1.099700   -1.830100
      9          1           0       -1.661300    0.219000   -1.620300
     10          1           0       -0.182200   -0.681400   -2.107000
     11          1           0       -0.430900    2.032000    0.530100
     12          1           0       -1.928300    1.063100    0.766600
     13          1           0       -0.564500    0.901500    1.931000
     14          1           0       -1.843800   -1.343500    0.331200
     15          1           0       -0.590500   -1.539900    1.436400
     16          1           0        1.508200   -2.005600   -0.689200
     17          1           0        2.979900    0.921600    0.815000
 ---------------------------------------------------------------------
                    Distance matrix (angstroms):
                    1          2          3          4          5
     1  C    0.000000
     2  C    1.538448   0.000000
     3  C    2.513820   1.544426   0.000000
     4  N    2.451913   1.469510   2.462948   0.000000
     5  C    2.487018   1.520937   2.520699   2.440803   0.000000
     6  N    3.105364   2.453805   3.730157   2.854449   1.297607
     7  O    3.439768   2.527268   2.798472   3.623784   1.394221
     8  H    1.111782   2.192757   2.784260   3.423102   2.728343
     9  H    1.111356   2.191653   2.744961   2.733634   3.464076
    10  H    1.111215   2.191669   3.490587   2.697517   2.754262
    11  H    2.753194   2.200914   1.111653   3.433459   2.799358
    12  H    2.780392   2.196867   1.111314   2.711745   3.489165
    13  H    3.488933   2.195663   1.111388   2.744428   2.768737
    14  H    2.673151   2.070708   2.650823   1.046633   3.356979
    15  H    3.368158   2.066854   2.658009   1.046763   2.664452
    16  H    3.091045   2.670630   4.138225   2.639523   2.055765
    17  H    4.287701   3.458013   3.803139   4.444213   2.105465
                    6          7          8          9         10
     6  N    0.000000
     7  O    2.319623   0.000000
     8  H    3.455656   3.287080   0.000000
     9  H    4.119194   4.377691   1.803244   0.000000
    10  H    2.881179   3.900532   1.804288   1.798703   0.000000
    11  H    4.078117   2.647870   2.558913   3.070028   3.791924
    12  H    4.603859   3.902365   3.174948   2.545798   3.788103
    13  H    3.932309   2.812659   3.794634   3.778956   4.353983
    14  H    3.855929   4.460169   3.697973   2.506604   3.023923
    15  H    3.082779   3.634027   4.228042   3.685615   3.668707
    16  H    1.044514   3.290910   3.679217   3.982653   2.573153
    17  H    2.561440   1.013307   4.065114   5.288201   4.594189
                   11         12         13         14         15
    11  H    0.000000
    12  H    1.799140   0.000000
    13  H    1.805104   1.800526   0.000000
    14  H    3.664676   2.447128   3.039078   0.000000
    15  H    3.688539   3.002324   2.491132   1.682498   0.000000
    16  H    4.642092   4.831750   4.428630   3.565879   3.023176
    17  H    3.598293   4.910478   3.715997   5.350965   4.380968
                   16         17
    16  H    0.000000
    17  H    3.605138   0.000000
 Stoichiometry    C4H10N2O
 Framework group  C1[X(C4H10N2O)]
 Deg. of freedom    45
 Full point group                 C1      NOp   1
 Largest Abelian subgroup         C1      NOp   1
 Largest concise Abelian subgroup C1      NOp   1
                         Standard orientation:                         
 ---------------------------------------------------------------------
 Center     Atomic      Atomic             Coordinates (Angstroms)
 Number     Number       Type             X           Y           Z
 ---------------------------------------------------------------------
      1          6           0        1.084908   -0.436950    1.372055
      2          6           0        0.570738    0.003337   -0.009466
      3          6           0        1.008955    1.460203   -0.275468
      4          7           0        1.138747   -0.877702   -1.039317
      5          6           0       -0.945741   -0.111772   -0.026510
      6          7           0       -1.524374   -1.271469   -0.090311
      7          8           0       -1.735952    1.033373    0.063274
      8          1           0        0.638332    0.189989    2.174287
      9          1           0        2.190775   -0.340697    1.425966
     10          1           0        0.821787   -1.498911    1.566491
     11          1           0        0.626582    2.139640    0.516952
     12          1           0        2.117447    1.537898   -0.290597
     13          1           0        0.623023    1.808980   -1.257605
     14          1           0        2.181767   -0.790809   -1.039877
     15          1           0        0.805765   -0.567494   -1.981976
     16          1           0       -0.984143   -2.163957   -0.141561
     17          1           0       -2.747496    0.973677    0.065461
 ---------------------------------------------------------------------
 Rotational constants (GHZ):      3.3043520      2.2988499      1.9237525
 Leave Link  202 at Fri Aug 26 07:47:08 2022, MaxMem= 24159191040 cpu:         1.1
 (Enter /public/home/users/caep010/software/Gaussian09/g09/l301.exe)
 Standard basis: GTBas3 (6D, 7F)
 Ernie: Thresh=  0.10000D-02 Tol=  0.10000D-05 Strict=F.
 There are   267 symmetry adapted cartesian basis functions of A   symmetry.
 There are   246 symmetry adapted basis functions of A   symmetry.
   246 basis functions,   378 primitive gaussians,   267 cartesian basis functions
    28 alpha electrons       28 beta electrons
       nuclear repulsion energy       326.2111590794 Hartrees.
 IExCor=  402 DFT=T Ex+Corr=B3LYP ExCW=0 ScaHFX=  0.200000
 ScaDFX=  0.800000  0.720000  1.000000  0.810000 ScalE2=  1.000000  1.000000
 IRadAn=      0 IRanWt=     -1 IRanGd=            0 ICorTp=0 IEmpDi=  4
 NAtoms=   17 NActive=   17 NUniq=   17 SFac= 1.00D+00 NAtFMM=   60 NAOKFM=F Big=F
 Integral buffers will be    131072 words long.
 Raffenetti 2 integral format.
 Two-electron integral symmetry is turned on.
 Leave Link  301 at Fri Aug 26 07:47:08 2022, MaxMem= 24159191040 cpu:         2.0
 (Enter /public/home/users/caep010/software/Gaussian09/g09/l302.exe)
 NPDir=0 NMtPBC=     1 NCelOv=     1 NCel=       1 NClECP=     1 NCelD=      1
         NCelK=      1 NCelE2=     1 NClLst=     1 CellRange=     0.0.
 One-electron integrals computed using PRISM.
 NBasis=   246 RedAO= T EigKep=  3.49D-04  NBF=   246
 NBsUse=   246 1.00D-06 EigRej= -1.00D+00 NBFU=   246
 Precomputing XC quadrature grid using
 IXCGrd= 4 IRadAn=           0 IRanWt=          -1 IRanGd=           0 AccXCQ= 0.00D+00.
 Generated NRdTot=       0 NPtTot=           0 NUsed=           0 NTot=          32
 NSgBfM=   267   267   267   267   267 MxSgAt=    17 MxSgA2=    17.
 Leave Link  302 at Fri Aug 26 07:47:08 2022, MaxMem= 24159191040 cpu:        18.1
 (Enter /public/home/users/caep010/software/Gaussian09/g09/l303.exe)
 DipDrv:  MaxL=1.
 Leave Link  303 at Fri Aug 26 07:47:08 2022, MaxMem= 24159191040 cpu:         1.5
 (Enter /public/home/users/caep010/software/Gaussian09/g09/l401.exe)
 ExpMin= 1.61D-01 ExpMax= 5.48D+03 ExpMxC= 8.25D+02 IAcc=1 IRadAn=         1 AccDes= 0.00D+00
 Harris functional with IExCor=  402 and IRadAn=       1 diagonalized for initial guess.
 HarFok:  IExCor=  402 AccDes= 0.00D+00 IRadAn=         1 IDoV= 1 UseB2=F ITyADJ=14
 ICtDFT=  3500011 ScaDFX=  1.000000  1.000000  1.000000  1.000000
 FoFCou: FMM=F IPFlag=           0 FMFlag=      100000 FMFlg1=           0
         NFxFlg=           0 DoJE=T BraDBF=F KetDBF=T FulRan=T
         wScrn=  0.000000 ICntrl=     500 IOpCl=  0 I1Cent=   200000004 NGrid=           0
         NMat0=    1 NMatS0=      1 NMatT0=    0 NMatD0=    1 NMtDS0=    0 NMtDT0=    0
 Petite list used in FoFCou.
 Harris En= -343.207729738045    
 JPrj=0 DoOrth=F DoCkMO=F.
 Leave Link  401 at Fri Aug 26 07:47:09 2022, MaxMem= 24159191040 cpu:        14.5
 (Enter /public/home/users/caep010/software/Gaussian09/g09/l502.exe)
 Closed shell SCF:
 Using DIIS extrapolation, IDIIS=  1040.
 Integral symmetry usage will be decided dynamically.
 Keep R1 ints in memory in canonical form, NReq=471384968.
 IVT=      242915 IEndB=      242915 NGot= 24159191040 MDV= 23697430355
 LenX= 23697430355 LenY= 23697358625
 Requested convergence on RMS density matrix=1.00D-08 within 128 cycles.
 Requested convergence on MAX density matrix=1.00D-06.
 Requested convergence on             energy=1.00D-06.
 No special actions if energy rises.
 FoFCou: FMM=F IPFlag=           0 FMFlag=           0 FMFlg1=           0
         NFxFlg=           0 DoJE=F BraDBF=F KetDBF=F FulRan=T
         wScrn=  0.000000 ICntrl=     600 IOpCl=  0 I1Cent=           0 NGrid=           0
         NMat0=    1 NMatS0=  30381 NMatT0=    0 NMatD0=    1 NMtDS0=    0 NMtDT0=    0
 Symmetry not used in FoFCou.
 Integral accuracy reduced to 1.0D-05 until final iterations.

 Cycle   1  Pass 0  IDiag  1:
 E= -342.911027382310    
 DIIS: error= 2.48D-02 at cycle   1 NSaved=   1.
 NSaved= 1 IEnMin= 1 EnMin= -342.911027382310     IErMin= 1 ErrMin= 2.48D-02
 ErrMax= 2.48D-02  0.00D+00 EMaxC= 1.00D-01 BMatC= 2.86D-01 BMatP= 2.86D-01
 IDIUse=3 WtCom= 7.52D-01 WtEn= 2.48D-01
 Coeff-Com:  0.100D+01
 Coeff-En:   0.100D+01
 Coeff:      0.100D+01
 Gap=     0.191 Goal=   None    Shift=    0.000
 GapD=    0.191 DampG=1.000 DampE=0.500 DampFc=0.5000 IDamp=-1.
 Damping current iteration by 5.00D-01
 RMSDP=5.36D-03 MaxDP=1.92D-01              OVMax= 2.49D-01

 Cycle   2  Pass 0  IDiag  1:
 E= -343.007743940005     Delta-E=       -0.096716557696 Rises=F Damp=T
 DIIS: error= 8.59D-03 at cycle   2 NSaved=   2.
 NSaved= 2 IEnMin= 2 EnMin= -343.007743940005     IErMin= 2 ErrMin= 8.59D-03
 ErrMax= 8.59D-03  0.00D+00 EMaxC= 1.00D-01 BMatC= 2.39D-02 BMatP= 2.86D-01
 IDIUse=3 WtCom= 9.14D-01 WtEn= 8.59D-02
 Coeff-Com:  0.153D+00 0.847D+00
 Coeff-En:   0.254D+00 0.746D+00
 Coeff:      0.161D+00 0.839D+00
 Gap=     0.307 Goal=   None    Shift=    0.000
 RMSDP=1.18D-03 MaxDP=5.67D-02 DE=-9.67D-02 OVMax= 2.01D-01

 Cycle   3  Pass 0  IDiag  1:
 E= -343.154024897418     Delta-E=       -0.146280957412 Rises=F Damp=F
 DIIS: error= 5.26D-03 at cycle   3 NSaved=   3.
 NSaved= 3 IEnMin= 3 EnMin= -343.154024897418     IErMin= 3 ErrMin= 5.26D-03
 ErrMax= 5.26D-03  0.00D+00 EMaxC= 1.00D-01 BMatC= 1.93D-02 BMatP= 2.39D-02
 IDIUse=3 WtCom= 9.47D-01 WtEn= 5.26D-02
 Coeff-Com:  0.576D-01 0.474D+00 0.469D+00
 Coeff-En:   0.000D+00 0.000D+00 0.100D+01
 Coeff:      0.546D-01 0.449D+00 0.497D+00
 Gap=     0.255 Goal=   None    Shift=    0.000
 RMSDP=7.01D-04 MaxDP=4.58D-02 DE=-1.46D-01 OVMax= 8.05D-02

 Cycle   4  Pass 0  IDiag  1:
 E= -343.167278281920     Delta-E=       -0.013253384502 Rises=F Damp=F
 DIIS: error= 3.65D-03 at cycle   4 NSaved=   4.
 NSaved= 4 IEnMin= 4 EnMin= -343.167278281920     IErMin= 4 ErrMin= 3.65D-03
 ErrMax= 3.65D-03  0.00D+00 EMaxC= 1.00D-01 BMatC= 5.31D-03 BMatP= 1.93D-02
 IDIUse=3 WtCom= 9.64D-01 WtEn= 3.65D-02
 Coeff-Com:  0.351D-02 0.718D-01 0.342D+00 0.583D+00
 Coeff-En:   0.000D+00 0.000D+00 0.255D+00 0.745D+00
 Coeff:      0.338D-02 0.692D-01 0.339D+00 0.589D+00
 Gap=     0.257 Goal=   None    Shift=    0.000
 RMSDP=2.81D-04 MaxDP=1.63D-02 DE=-1.33D-02 OVMax= 3.09D-02

 Cycle   5  Pass 0  IDiag  1:
 E= -343.171713802704     Delta-E=       -0.004435520785 Rises=F Damp=F
 DIIS: error= 8.13D-04 at cycle   5 NSaved=   5.
 NSaved= 5 IEnMin= 5 EnMin= -343.171713802704     IErMin= 5 ErrMin= 8.13D-04
 ErrMax= 8.13D-04  0.00D+00 EMaxC= 1.00D-01 BMatC= 2.68D-04 BMatP= 5.31D-03
 IDIUse=3 WtCom= 9.92D-01 WtEn= 8.13D-03
 Coeff-Com: -0.277D-03 0.111D-01 0.162D+00 0.328D+00 0.499D+00
 Coeff-En:   0.000D+00 0.000D+00 0.000D+00 0.000D+00 0.100D+01
 Coeff:     -0.275D-03 0.110D-01 0.161D+00 0.326D+00 0.503D+00
 Gap=     0.255 Goal=   None    Shift=    0.000
 RMSDP=6.35D-05 MaxDP=3.20D-03 DE=-4.44D-03 OVMax= 4.13D-03

 Cycle   6  Pass 0  IDiag  1:
 E= -343.171923713069     Delta-E=       -0.000209910365 Rises=F Damp=F
 DIIS: error= 1.56D-04 at cycle   6 NSaved=   6.
 NSaved= 6 IEnMin= 6 EnMin= -343.171923713069     IErMin= 6 ErrMin= 1.56D-04
 ErrMax= 1.56D-04  0.00D+00 EMaxC= 1.00D-01 BMatC= 1.25D-05 BMatP= 2.68D-04
 IDIUse=3 WtCom= 9.98D-01 WtEn= 1.56D-03
 Coeff-Com: -0.256D-03-0.112D-02 0.441D-01 0.949D-01 0.236D+00 0.626D+00
 Coeff-En:   0.000D+00 0.000D+00 0.000D+00 0.000D+00 0.000D+00 0.100D+01
 Coeff:     -0.255D-03-0.112D-02 0.440D-01 0.947D-01 0.236D+00 0.627D+00
 Gap=     0.255 Goal=   None    Shift=    0.000
 RMSDP=1.37D-05 MaxDP=6.10D-04 DE=-2.10D-04 OVMax= 5.55D-04

 Cycle   7  Pass 0  IDiag  1:
 E= -343.171933239357     Delta-E=       -0.000009526288 Rises=F Damp=F
 DIIS: error= 5.07D-05 at cycle   7 NSaved=   7.
 NSaved= 7 IEnMin= 7 EnMin= -343.171933239357     IErMin= 7 ErrMin= 5.07D-05
 ErrMax= 5.07D-05  0.00D+00 EMaxC= 1.00D-01 BMatC= 8.22D-07 BMatP= 1.25D-05
 IDIUse=1 WtCom= 1.00D+00 WtEn= 0.00D+00
 Coeff-Com: -0.309D-04-0.119D-02 0.157D-01 0.336D-01 0.995D-01 0.309D+00
 Coeff-Com:  0.543D+00
 Coeff:     -0.309D-04-0.119D-02 0.157D-01 0.336D-01 0.995D-01 0.309D+00
 Coeff:      0.543D+00
 Gap=     0.255 Goal=   None    Shift=    0.000
 RMSDP=4.46D-06 MaxDP=2.32D-04 DE=-9.53D-06 OVMax= 1.70D-04

 Initial convergence to 1.0D-05 achieved.  Increase integral accuracy.
 Cycle   8  Pass 1  IDiag  1:
 E= -343.171961271834     Delta-E=       -0.000028032477 Rises=F Damp=F
 DIIS: error= 1.43D-05 at cycle   1 NSaved=   1.
 NSaved= 1 IEnMin= 1 EnMin= -343.171961271834     IErMin= 1 ErrMin= 1.43D-05
 ErrMax= 1.43D-05  0.00D+00 EMaxC= 1.00D-01 BMatC= 1.47D-07 BMatP= 1.47D-07
 IDIUse=1 WtCom= 1.00D+00 WtEn= 0.00D+00
 Coeff-Com:  0.100D+01
 Coeff:      0.100D+01
 Gap=     0.255 Goal=   None    Shift=    0.000
 RMSDP=4.46D-06 MaxDP=2.32D-04 DE=-2.80D-05 OVMax= 1.18D-04

 Cycle   9  Pass 1  IDiag  1:
 E= -343.171961277389     Delta-E=       -0.000000005555 Rises=F Damp=F
 DIIS: error= 2.17D-05 at cycle   2 NSaved=   2.
 NSaved= 2 IEnMin= 2 EnMin= -343.171961277389     IErMin= 1 ErrMin= 1.43D-05
 ErrMax= 2.17D-05  0.00D+00 EMaxC= 1.00D-01 BMatC= 1.57D-07 BMatP= 1.47D-07
 IDIUse=1 WtCom= 1.00D+00 WtEn= 0.00D+00
 Coeff-Com:  0.511D+00 0.489D+00
 Coeff:      0.511D+00 0.489D+00
 Gap=     0.255 Goal=   None    Shift=    0.000
 RMSDP=1.89D-06 MaxDP=8.63D-05 DE=-5.55D-09 OVMax= 1.20D-04

 Cycle  10  Pass 1  IDiag  1:
 E= -343.171961393204     Delta-E=       -0.000000115815 Rises=F Damp=F
 DIIS: error= 6.84D-06 at cycle   3 NSaved=   3.
 NSaved= 3 IEnMin= 3 EnMin= -343.171961393204     IErMin= 3 ErrMin= 6.84D-06
 ErrMax= 6.84D-06  0.00D+00 EMaxC= 1.00D-01 BMatC= 2.00D-08 BMatP= 1.47D-07
 IDIUse=1 WtCom= 1.00D+00 WtEn= 0.00D+00
 Coeff-Com:  0.377D-01 0.259D+00 0.703D+00
 Coeff:      0.377D-01 0.259D+00 0.703D+00
 Gap=     0.255 Goal=   None    Shift=    0.000
 RMSDP=6.68D-07 MaxDP=3.62D-05 DE=-1.16D-07 OVMax= 6.91D-05

 Cycle  11  Pass 1  IDiag  1:
 E= -343.171961403700     Delta-E=       -0.000000010496 Rises=F Damp=F
 DIIS: error= 4.08D-06 at cycle   4 NSaved=   4.
 NSaved= 4 IEnMin= 4 EnMin= -343.171961403700     IErMin= 4 ErrMin= 4.08D-06
 ErrMax= 4.08D-06  0.00D+00 EMaxC= 1.00D-01 BMatC= 6.41D-09 BMatP= 2.00D-08
 IDIUse=1 WtCom= 1.00D+00 WtEn= 0.00D+00
 Coeff-Com: -0.127D-01 0.138D+00 0.478D+00 0.396D+00
 Coeff:     -0.127D-01 0.138D+00 0.478D+00 0.396D+00
 Gap=     0.255 Goal=   None    Shift=    0.000
 RMSDP=3.24D-07 MaxDP=2.00D-05 DE=-1.05D-08 OVMax= 3.37D-05

 Cycle  12  Pass 1  IDiag  1:
 E= -343.171961409256     Delta-E=       -0.000000005556 Rises=F Damp=F
 DIIS: error= 5.46D-07 at cycle   5 NSaved=   5.
 NSaved= 5 IEnMin= 5 EnMin= -343.171961409256     IErMin= 5 ErrMin= 5.46D-07
 ErrMax= 5.46D-07  0.00D+00 EMaxC= 1.00D-01 BMatC= 1.75D-10 BMatP= 6.41D-09
 IDIUse=1 WtCom= 1.00D+00 WtEn= 0.00D+00
 Coeff-Com: -0.965D-02 0.625D-01 0.227D+00 0.223D+00 0.498D+00
 Coeff:     -0.965D-02 0.625D-01 0.227D+00 0.223D+00 0.498D+00
 Gap=     0.255 Goal=   None    Shift=    0.000
 RMSDP=4.52D-08 MaxDP=3.34D-06 DE=-5.56D-09 OVMax= 4.25D-06

 Cycle  13  Pass 1  IDiag  1:
 E= -343.171961409398     Delta-E=       -0.000000000142 Rises=F Damp=F
 DIIS: error= 1.42D-07 at cycle   6 NSaved=   6.
 NSaved= 6 IEnMin= 6 EnMin= -343.171961409398     IErMin= 6 ErrMin= 1.42D-07
 ErrMax= 1.42D-07  0.00D+00 EMaxC= 1.00D-01 BMatC= 9.68D-12 BMatP= 1.75D-10
 IDIUse=1 WtCom= 1.00D+00 WtEn= 0.00D+00
 Coeff-Com: -0.344D-02 0.197D-01 0.719D-01 0.784D-01 0.247D+00 0.587D+00
 Coeff:     -0.344D-02 0.197D-01 0.719D-01 0.784D-01 0.247D+00 0.587D+00
 Gap=     0.255 Goal=   None    Shift=    0.000
 RMSDP=1.10D-08 MaxDP=6.79D-07 DE=-1.42D-10 OVMax= 7.34D-07

 Cycle  14  Pass 1  IDiag  1:
 E= -343.171961409415     Delta-E=       -0.000000000017 Rises=F Damp=F
 DIIS: error= 3.43D-08 at cycle   7 NSaved=   7.
 NSaved= 7 IEnMin= 7 EnMin= -343.171961409415     IErMin= 7 ErrMin= 3.43D-08
 ErrMax= 3.43D-08  0.00D+00 EMaxC= 1.00D-01 BMatC= 6.62D-13 BMatP= 9.68D-12
 IDIUse=1 WtCom= 1.00D+00 WtEn= 0.00D+00
 Coeff-Com: -0.343D-03 0.834D-03 0.261D-02 0.682D-02 0.350D-01 0.233D+00
 Coeff-Com:  0.722D+00
 Coeff:     -0.343D-03 0.834D-03 0.261D-02 0.682D-02 0.350D-01 0.233D+00
 Coeff:      0.722D+00
 Gap=     0.255 Goal=   None    Shift=    0.000
 RMSDP=3.70D-09 MaxDP=1.79D-07 DE=-1.71D-11 OVMax= 1.84D-07

 SCF Done:  E(RB3LYP) =  -343.171961409     A.U. after   14 cycles
            NFock= 14  Conv=0.37D-08     -V/T= 2.0091
 KE= 3.400891520613D+02 PE=-1.452424464954D+03 EE= 4.429521924035D+02
 Leave Link  502 at Fri Aug 26 07:47:23 2022, MaxMem= 24159191040 cpu:       141.5
 (Enter /public/home/users/caep010/software/Gaussian09/g09/l601.exe)
 Copying SCF densities to generalized density rwf, IOpCl= 0 IROHF=0.

 **********************************************************************

            Population analysis using the SCF density.

 **********************************************************************

 Orbital symmetries:
       Occupied  (A) (A) (A) (A) (A) (A) (A) (A) (A) (A) (A) (A)
                 (A) (A) (A) (A) (A) (A) (A) (A) (A) (A) (A) (A)
                 (A) (A) (A) (A)
       Virtual   (A) (A) (A) (A) (A) (A) (A) (A) (A) (A) (A) (A)
                 (A) (A) (A) (A) (A) (A) (A) (A) (A) (A) (A) (A)
                 (A) (A) (A) (A) (A) (A) (A) (A) (A) (A) (A) (A)
                 (A) (A) (A) (A) (A) (A) (A) (A) (A) (A) (A) (A)
                 (A) (A) (A) (A) (A) (A) (A) (A) (A) (A) (A) (A)
                 (A) (A) (A) (A) (A) (A) (A) (A) (A) (A) (A) (A)
                 (A) (A) (A) (A) (A) (A) (A) (A) (A) (A) (A) (A)
                 (A) (A) (A) (A) (A) (A) (A) (A) (A) (A) (A) (A)
                 (A) (A) (A) (A) (A) (A) (A) (A) (A) (A) (A) (A)
                 (A) (A) (A) (A) (A) (A) (A) (A) (A) (A) (A) (A)
                 (A) (A) (A) (A) (A) (A) (A) (A) (A) (A) (A) (A)
                 (A) (A) (A) (A) (A) (A) (A) (A) (A) (A) (A) (A)
                 (A) (A) (A) (A) (A) (A) (A) (A) (A) (A) (A) (A)
                 (A) (A) (A) (A) (A) (A) (A) (A) (A) (A) (A) (A)
                 (A) (A) (A) (A) (A) (A) (A) (A) (A) (A) (A) (A)
                 (A) (A) (A) (A) (A) (A) (A) (A) (A) (A) (A) (A)
                 (A) (A) (A) (A) (A) (A) (A) (A) (A) (A) (A) (A)
                 (A) (A) (A) (A) (A) (A) (A) (A) (A) (A) (A) (A)
                 (A) (A)
 The electronic state is 1-A.
 Alpha  occ. eigenvalues --  -19.16852 -14.31911 -14.29011 -10.27603 -10.23421
 Alpha  occ. eigenvalues --  -10.18534 -10.17739  -1.03640  -0.90022  -0.84371
 Alpha  occ. eigenvalues --   -0.75349  -0.68538  -0.63660  -0.56896  -0.50459
 Alpha  occ. eigenvalues --   -0.49453  -0.45786  -0.44136  -0.40747  -0.39411
 Alpha  occ. eigenvalues --   -0.37815  -0.37481  -0.36798  -0.34983  -0.34356
 Alpha  occ. eigenvalues --   -0.25693  -0.24084  -0.23722
 Alpha virt. eigenvalues --    0.01766   0.05655   0.07135   0.11832   0.12155
 Alpha virt. eigenvalues --    0.14083   0.14372   0.16227   0.17366   0.18705
 Alpha virt. eigenvalues --    0.20067   0.20878   0.21398   0.25594   0.26369
 Alpha virt. eigenvalues --    0.33471   0.36468   0.43871   0.46064   0.48172
 Alpha virt. eigenvalues --    0.49132   0.49986   0.51562   0.54963   0.56215
 Alpha virt. eigenvalues --    0.58372   0.59372   0.60919   0.62486   0.63653
 Alpha virt. eigenvalues --    0.66429   0.66693   0.70860   0.71952   0.72500
 Alpha virt. eigenvalues --    0.73541   0.73981   0.75456   0.76417   0.78265
 Alpha virt. eigenvalues --    0.80040   0.80613   0.82518   0.84957   0.85443
 Alpha virt. eigenvalues --    0.86042   0.87318   0.88744   0.90274   0.92565
 Alpha virt. eigenvalues --    0.93557   0.99665   1.02117   1.03734   1.08891
 Alpha virt. eigenvalues --    1.12078   1.16067   1.20920   1.22498   1.25844
 Alpha virt. eigenvalues --    1.31293   1.34359   1.35646   1.37049   1.38995
 Alpha virt. eigenvalues --    1.41812   1.44321   1.46090   1.48032   1.50318
 Alpha virt. eigenvalues --    1.50812   1.54526   1.55699   1.58520   1.63480
 Alpha virt. eigenvalues --    1.65070   1.70452   1.71723   1.72785   1.79968
 Alpha virt. eigenvalues --    1.81795   1.84708   1.86339   1.88865   1.91299
 Alpha virt. eigenvalues --    1.93809   1.95602   1.97919   2.04937   2.05748
 Alpha virt. eigenvalues --    2.08546   2.16442   2.19920   2.29415   2.31047
 Alpha virt. eigenvalues --    2.32737   2.38017   2.39316   2.43164   2.48288
 Alpha virt. eigenvalues --    2.49128   2.50150   2.56340   2.61238   2.67420
 Alpha virt. eigenvalues --    2.72507   2.77398   2.78765   2.79632   2.82913
 Alpha virt. eigenvalues --    2.84601   2.84939   2.87621   2.89900   2.90518
 Alpha virt. eigenvalues --    2.91677   2.93905   2.95072   2.97995   2.98238
 Alpha virt. eigenvalues --    3.00127   3.01407   3.05210   3.11302   3.13468
 Alpha virt. eigenvalues --    3.15007   3.18049   3.24814   3.26308   3.28737
 Alpha virt. eigenvalues --    3.37039   3.39814   3.45996   3.48614   3.54039
 Alpha virt. eigenvalues --    3.61044   3.62730   3.64706   3.71591   3.72208
 Alpha virt. eigenvalues --    3.77534   3.79741   3.80313   3.83618   3.84448
 Alpha virt. eigenvalues --    3.91320   3.96009   3.96600   4.01692   4.04877
 Alpha virt. eigenvalues --    4.08413   4.11122   4.12987   4.15620   4.19601
 Alpha virt. eigenvalues --    4.21978   4.26621   4.28893   4.30752   4.33207
 Alpha virt. eigenvalues --    4.33912   4.36908   4.39171   4.40916   4.43502
 Alpha virt. eigenvalues --    4.45223   4.48390   4.50337   4.51947   4.53656
 Alpha virt. eigenvalues --    4.55556   4.59273   4.60704   4.63923   4.65387
 Alpha virt. eigenvalues --    4.67624   4.68564   4.72466   4.73071   4.75577
 Alpha virt. eigenvalues --    4.77948   4.81611   4.81975   4.84365   4.87181
 Alpha virt. eigenvalues --    4.87501   4.89860   4.93069   4.94979   5.02193
 Alpha virt. eigenvalues --    5.06652   5.08255   5.15545   5.16672   5.18407
 Alpha virt. eigenvalues --    5.23546   5.34960   5.41906   5.46972   5.55377
 Alpha virt. eigenvalues --    5.56249   5.65918   5.72921   5.78692   5.83342
 Alpha virt. eigenvalues --    6.04251   6.17294   6.34308   7.06815   9.74948
 Alpha virt. eigenvalues --   10.78838  11.36411  11.46421  11.87022  12.03924
 Alpha virt. eigenvalues --   12.39454  13.19215  13.81675
          Condensed to atoms (all electrons):
               1          2          3          4          5          6
     1  C    5.037923   0.388452  -0.057761  -0.032100  -0.032859  -0.008525
     2  C    0.388452   4.583873   0.373285   0.389262   0.395918  -0.061449
     3  C   -0.057761   0.373285   5.150034  -0.079965  -0.035274   0.007312
     4  N   -0.032100   0.389262  -0.079965   6.624778  -0.030328  -0.017246
     5  C   -0.032859   0.395918  -0.035274  -0.030328   4.442004   0.628344
     6  N   -0.008525  -0.061449   0.007312  -0.017246   0.628344   6.654796
     7  O   -0.000326  -0.042222  -0.001224  -0.000420   0.352092  -0.028706
     8  H    0.370155  -0.021421  -0.001204   0.002896  -0.002827  -0.000049
     9  H    0.361810  -0.021105  -0.006296  -0.003074   0.003801   0.000123
    10  H    0.358403  -0.017101   0.006122  -0.001340  -0.004279   0.005315
    11  H   -0.002306  -0.013482   0.344992   0.005792  -0.003388  -0.000104
    12  H   -0.006142  -0.014815   0.349444  -0.000709   0.002944  -0.000195
    13  H    0.005074  -0.017898   0.360190  -0.000245  -0.005203   0.000055
    14  H   -0.003435  -0.048853  -0.005678   0.332520   0.005846   0.000208
    15  H    0.006876  -0.053457  -0.003332   0.331533  -0.000247   0.002025
    16  H   -0.000519  -0.002704   0.000484   0.008734  -0.078779   0.335892
    17  H   -0.000190   0.006706  -0.000397  -0.000034  -0.033453   0.003676
               7          8          9         10         11         12
     1  C   -0.000326   0.370155   0.361810   0.358403  -0.002306  -0.006142
     2  C   -0.042222  -0.021421  -0.021105  -0.017101  -0.013482  -0.014815
     3  C   -0.001224  -0.001204  -0.006296   0.006122   0.344992   0.349444
     4  N   -0.000420   0.002896  -0.003074  -0.001340   0.005792  -0.000709
     5  C    0.352092  -0.002827   0.003801  -0.004279  -0.003388   0.002944
     6  N   -0.028706  -0.000049   0.000123   0.005315  -0.000104  -0.000195
     7  O    7.878977   0.000710  -0.000023   0.000028   0.004225   0.000293
     8  H    0.000710   0.579425  -0.028800  -0.027214   0.001976   0.000010
     9  H   -0.000023  -0.028800   0.607457  -0.029507   0.000076   0.003813
    10  H    0.000028  -0.027214  -0.029507   0.581687  -0.000142  -0.000138
    11  H    0.004225   0.001976   0.000076  -0.000142   0.595281  -0.028267
    12  H    0.000293   0.000010   0.003813  -0.000138  -0.028267   0.624182
    13  H    0.002162  -0.000055  -0.000017  -0.000203  -0.025279  -0.031963
    14  H   -0.000035  -0.000191   0.003019  -0.000418   0.000063   0.004628
    15  H   -0.000088  -0.000229  -0.000166  -0.000204   0.000036   0.000075
    16  H    0.004369   0.000031  -0.000057   0.003292  -0.000035  -0.000023
    17  H    0.281584  -0.000028   0.000005  -0.000013  -0.000094   0.000006
              13         14         15         16         17
     1  C    0.005074  -0.003435   0.006876  -0.000519  -0.000190
     2  C   -0.017898  -0.048853  -0.053457  -0.002704   0.006706
     3  C    0.360190  -0.005678  -0.003332   0.000484  -0.000397
     4  N   -0.000245   0.332520   0.331533   0.008734  -0.000034
     5  C   -0.005203   0.005846  -0.000247  -0.078779  -0.033453
     6  N    0.000055   0.000208   0.002025   0.335892   0.003676
     7  O    0.002162  -0.000035  -0.000088   0.004369   0.281584
     8  H   -0.000055  -0.000191  -0.000229   0.000031  -0.000028
     9  H   -0.000017   0.003019  -0.000166  -0.000057   0.000005
    10  H   -0.000203  -0.000418  -0.000204   0.003292  -0.000013
    11  H   -0.025279   0.000063   0.000036  -0.000035  -0.000094
    12  H   -0.031963   0.004628   0.000075  -0.000023   0.000006
    13  H    0.597100   0.000126   0.004886  -0.000009  -0.000109
    14  H    0.000126   0.511739  -0.026132  -0.000232   0.000004
    15  H    0.004886  -0.026132   0.511177  -0.000376  -0.000018
    16  H   -0.000009  -0.000232  -0.000376   0.484452  -0.000385
    17  H   -0.000109   0.000004  -0.000018  -0.000385   0.417955
 Mulliken charges:
               1
     1  C   -0.384531
     2  C    0.177012
     3  C   -0.400732
     4  N   -0.530055
     5  C    0.395686
     6  N   -0.521473
     7  O   -0.451396
     8  H    0.126815
     9  H    0.108940
    10  H    0.125713
    11  H    0.120657
    12  H    0.096860
    13  H    0.111388
    14  H    0.226821
    15  H    0.227643
    16  H    0.245865
    17  H    0.324787
 Sum of Mulliken charges =  -0.00000
 Mulliken charges with hydrogens summed into heavy atoms:
               1
     1  C   -0.023064
     2  C    0.177012
     3  C   -0.071827
     4  N   -0.075591
     5  C    0.395686
     6  N   -0.275608
     7  O   -0.126609
 Electronic spatial extent (au):  <R**2>=            769.4113
 Charge=             -0.0000 electrons
 Dipole moment (field-independent basis, Debye):
    X=              1.3600    Y=              1.1094    Z=             -0.2287  Tot=              1.7700
 Quadrupole moment (field-independent basis, Debye-Ang):
   XX=            -39.3469   YY=            -46.0156   ZZ=            -41.4200
   XY=             -3.5997   XZ=             -1.0104   YZ=             -0.7353
 Traceless Quadrupole moment (field-independent basis, Debye-Ang):
   XX=              2.9139   YY=             -3.7548   ZZ=              0.8408
   XY=             -3.5997   XZ=             -1.0104   YZ=             -0.7353
 Octapole moment (field-independent basis, Debye-Ang**2):
  XXX=            -12.3118  YYY=             -4.0593  ZZZ=             -8.2217  XYY=             -3.5760
  XXY=             14.0242  XXZ=             -2.2545  XZZ=              0.1180  YZZ=              1.4364
  YYZ=              2.2074  XYZ=             -0.1028
 Hexadecapole moment (field-independent basis, Debye-Ang**3):
 XXXX=           -376.5579 YYYY=           -302.4408 ZZZZ=           -193.2616 XXXY=            -62.6184
 XXXZ=            -13.9584 YYYX=             -4.3385 YYYZ=             -1.1687 ZZZX=             -9.7708
 ZZZY=              5.4501 XXYY=           -136.1597 XXZZ=           -112.0660 YYZZ=            -88.1799
 XXYZ=              2.5775 YYXZ=              1.3202 ZZXY=             -4.8389
 N-N= 3.262111590794D+02 E-N=-1.452424471216D+03  KE= 3.400891520613D+02
 No NMR shielding tensors so no spin-rotation constants.
 Leave Link  601 at Fri Aug 26 07:47:24 2022, MaxMem= 24159191040 cpu:        16.2
 (Enter /public/home/users/caep010/software/Gaussian09/g09/l701.exe)
 Compute integral first derivatives.
 ... and contract with generalized density number  0.
 Leave Link  701 at Fri Aug 26 07:47:24 2022, MaxMem= 24159191040 cpu:        14.8
 (Enter /public/home/users/caep010/software/Gaussian09/g09/l702.exe)
 L702 exits ... SP integral derivatives will be done elsewhere.
 Leave Link  702 at Fri Aug 26 07:47:24 2022, MaxMem= 24159191040 cpu:         0.5
 (Enter /public/home/users/caep010/software/Gaussian09/g09/l703.exe)
 Compute integral first derivatives, UseDBF=F ICtDFT=           0.
 Integral derivatives from FoFJK, PRISM(SPDF).
 Calling FoFJK, ICntrl=      2127 FMM=F ISym2X=0 I1Cent= 0 IOpClX= 0 NMat=1 NMatS=1 NMatT=0.
 FoFJK:  IHMeth= 1 ICntrl=    2127 DoSepK=F KAlg= 0 I1Cent=   0 FoldK=F
 IRaf=         0 NMat=   1 IRICut=       1 DoRegI=T DoRafI=F ISym2E= 0.
 FoFCou: FMM=F IPFlag=           0 FMFlag=      100000 FMFlg1=         800
         NFxFlg=           0 DoJE=F BraDBF=F KetDBF=F FulRan=T
         wScrn=  0.000000 ICntrl=    2127 IOpCl=  0 I1Cent=           0 NGrid=           0
         NMat0=    1 NMatS0=      1 NMatT0=    0 NMatD0=    1 NMtDS0=    0 NMtDT0=    0
 Symmetry not used in FoFCou.
 Leave Link  703 at Fri Aug 26 07:47:26 2022, MaxMem= 24159191040 cpu:        69.7
 (Enter /public/home/users/caep010/software/Gaussian09/g09/l716.exe)
 Dipole        = 5.35060192D-01 4.36490879D-01-8.99730527D-02
 ***** Axes restored to original set *****
 -------------------------------------------------------------------
 Center     Atomic                   Forces (Hartrees/Bohr)
 Number     Number              X              Y              Z
 -------------------------------------------------------------------
      1        6           0.000821647   -0.001245886   -0.012002226
      2        6          -0.017299944    0.027474048    0.015542580
      3        6          -0.000476949    0.013145913    0.002848112
      4        7          -0.007334303   -0.012927640    0.013348183
      5        6           0.057931326   -0.052729310   -0.018794661
      6        7           0.002380936    0.021258668    0.009599259
      7        8          -0.007349199    0.000753985    0.000481201
      8        1          -0.005459439   -0.009630172    0.003360474
      9        1           0.009705780    0.000082789    0.001988489
     10        1          -0.003691530    0.008771410    0.006536397
     11        1          -0.004186459   -0.008336005    0.006110238
     12        1           0.010004276   -0.000850281    0.000245891
     13        1          -0.002349269    0.002758508   -0.010224219
     14        1           0.023754570    0.001649376    0.003096388
     15        1          -0.006755772    0.003663455   -0.022219040
     16        1          -0.006689857    0.028056898    0.014978397
     17        1          -0.043005813   -0.021895756   -0.014895462
 -------------------------------------------------------------------
 Cartesian Forces:  Max     0.057931326 RMS     0.016897050
 Leave Link  716 at Fri Aug 26 07:47:27 2022, MaxMem= 24159191040 cpu:         0.7
 (Enter /public/home/users/caep010/software/Gaussian09/g09/l103.exe)

 GradGradGradGradGradGradGradGradGradGradGradGradGradGradGradGradGradGrad
 Berny optimization.
 FormGI is forming the generalized inverse of G from B-inverse, IUseBI=4.
 Internal  Forces:  Max     0.049100373 RMS     0.013988726
 Search for a local minimum.
 Step number   1 out of a maximum of   86
 All quantities printed in internal units (Hartrees-Bohrs-Radians)
 RMS Force = .13989D-01 SwitMx=.10000D-02 MixMth= 1
 Mixed Optimization -- RFO/linear search
 Second derivative matrix not updated -- first step.
 ITU=  0
     Eigenvalues ---    0.00230   0.00257   0.00489   0.00772   0.01246
     Eigenvalues ---    0.01768   0.03046   0.04415   0.05135   0.05476
     Eigenvalues ---    0.05495   0.05512   0.05523   0.05539   0.06137
     Eigenvalues ---    0.15493   0.15891   0.16000   0.16000   0.16000
     Eigenvalues ---    0.16000   0.16000   0.16000   0.16000   0.16000
     Eigenvalues ---    0.16000   0.16000   0.24994   0.24996   0.28130
     Eigenvalues ---    0.28657   0.30277   0.32412   0.32426   0.32454
     Eigenvalues ---    0.32457   0.32461   0.32472   0.35799   0.40328
     Eigenvalues ---    0.40347   0.40646   0.45423   0.46592   0.67862
 RFO step:  Lambda=-4.42098944D-02 EMin= 2.30000000D-03
 Linear search not attempted -- first point.
 Maximum step size (   0.300) exceeded in Quadratic search.
    -- Step size scaled by   0.770
 Iteration  1 RMS(Cart)=  0.05709616 RMS(Int)=  0.00217058
 Iteration  2 RMS(Cart)=  0.00192712 RMS(Int)=  0.00011168
 Iteration  3 RMS(Cart)=  0.00000601 RMS(Int)=  0.00011161
 Iteration  4 RMS(Cart)=  0.00000000 RMS(Int)=  0.00011161
 ITry= 1 IFail=0 DXMaxC= 2.38D-01 DCOld= 1.00D+10 DXMaxT= 3.00D-01 DXLimC= 3.00D+00 Rises=F
 Variable       Old X    -DE/DX   Delta X   Delta X   Delta X     New X
                                 (Linear)    (Quad)   (Total)
    R1        2.90725  -0.00051   0.00000  -0.00120  -0.00120   2.90605
    R2        2.10096  -0.01154   0.00000  -0.02414  -0.02414   2.07682
    R3        2.10016  -0.00986   0.00000  -0.02059  -0.02059   2.07957
    R4        2.09989  -0.01154   0.00000  -0.02409  -0.02409   2.07581
    R5        2.91854   0.00324   0.00000   0.00766   0.00766   2.92620
    R6        2.77697   0.00121   0.00000   0.00231   0.00231   2.77928
    R7        2.87415   0.00319   0.00000   0.00708   0.00708   2.88124
    R8        2.10072  -0.01068   0.00000  -0.02232  -0.02232   2.07840
    R9        2.10008  -0.01000   0.00000  -0.02089  -0.02089   2.07919
   R10        2.10022  -0.01076   0.00000  -0.02248  -0.02248   2.07774
   R11        1.97785  -0.02386   0.00000  -0.04105  -0.04105   1.93680
   R12        1.97810  -0.02342   0.00000  -0.04030  -0.04030   1.93780
   R13        2.45212  -0.04910   0.00000  -0.05231  -0.05231   2.39981
   R14        2.63470  -0.04683   0.00000  -0.07069  -0.07069   2.56400
   R15        1.97384  -0.02569   0.00000  -0.04390  -0.04390   1.92995
   R16        1.91487  -0.04399   0.00000  -0.06796  -0.06796   1.84691
    A1        1.93087   0.00082   0.00000   0.00283   0.00283   1.93369
    A2        1.92979  -0.00110   0.00000  -0.00467  -0.00467   1.92513
    A3        1.92996   0.00017   0.00000   0.00143   0.00143   1.93139
    A4        1.89215  -0.00033   0.00000  -0.00275  -0.00275   1.88940
    A5        1.89393  -0.00020   0.00000   0.00023   0.00022   1.89415
    A6        1.88588   0.00064   0.00000   0.00294   0.00294   1.88883
    A7        1.90689  -0.00200   0.00000  -0.00039  -0.00034   1.90655
    A8        1.90558  -0.00225   0.00000  -0.01260  -0.01294   1.89263
    A9        1.89825   0.00193   0.00000  -0.00178  -0.00208   1.89618
   A10        1.91259   0.00721   0.00000   0.03745   0.03758   1.95017
   A11        1.93090   0.00041   0.00000   0.00585   0.00606   1.93696
   A12        1.90940  -0.00538   0.00000  -0.02910  -0.02935   1.88005
   A13        1.93496   0.00417   0.00000   0.01631   0.01630   1.95126
   A14        1.92977  -0.00210   0.00000  -0.00775  -0.00774   1.92203
   A15        1.92805   0.00099   0.00000   0.00299   0.00298   1.93103
   A16        1.88606  -0.00061   0.00000  -0.00088  -0.00086   1.88520
   A17        1.89513  -0.00280   0.00000  -0.01088  -0.01091   1.88422
   A18        1.88851   0.00021   0.00000  -0.00033  -0.00033   1.88819
   A19        1.91325  -0.00417   0.00000  -0.01841  -0.01844   1.89480
   A20        1.90761   0.00157   0.00000   0.00318   0.00315   1.91076
   A21        1.86703  -0.00044   0.00000  -0.00735  -0.00742   1.85961
   A22        2.10925   0.02728   0.00000   0.07149   0.07148   2.18073
   A23        2.09697  -0.03152   0.00000  -0.08245  -0.08247   2.01451
   A24        2.07657   0.00425   0.00000   0.01122   0.01120   2.08778
   A25        2.13580  -0.03904   0.00000  -0.14724  -0.14724   1.98856
   A26        2.11477  -0.04752   0.00000  -0.17921  -0.17921   1.93556
    D1        1.08837  -0.00227   0.00000  -0.01350  -0.01346   1.07491
    D2       -3.10337   0.00395   0.00000   0.02430   0.02429  -3.07908
    D3       -1.02095  -0.00273   0.00000  -0.01932  -0.01937  -1.04032
    D4       -1.00805  -0.00167   0.00000  -0.00886  -0.00881  -1.01686
    D5        1.08339   0.00455   0.00000   0.02894   0.02893   1.11233
    D6       -3.11737  -0.00213   0.00000  -0.01468  -0.01473  -3.13209
    D7       -3.09605  -0.00187   0.00000  -0.01044  -0.01039  -3.10644
    D8       -1.00461   0.00435   0.00000   0.02736   0.02736  -0.97725
    D9        1.07781  -0.00234   0.00000  -0.01626  -0.01630   1.06152
   D10       -1.01196  -0.00071   0.00000  -0.00230  -0.00220  -1.01417
   D11        1.07949  -0.00013   0.00000   0.00214   0.00222   1.08170
   D12       -3.11366  -0.00058   0.00000  -0.00133  -0.00126  -3.11492
   D13       -3.09908  -0.00109   0.00000  -0.00929  -0.00924  -3.10831
   D14       -1.00763  -0.00052   0.00000  -0.00485  -0.00482  -1.01244
   D15        1.08241  -0.00097   0.00000  -0.00832  -0.00829   1.07412
   D16        1.07734   0.00066   0.00000  -0.00113  -0.00124   1.07610
   D17       -3.11439   0.00123   0.00000   0.00331   0.00318  -3.11121
   D18       -1.02436   0.00078   0.00000  -0.00016  -0.00029  -1.02465
   D19       -1.08021  -0.00188   0.00000  -0.02206  -0.02186  -1.10207
   D20       -3.12136   0.00014   0.00000  -0.00446  -0.00430  -3.12565
   D21        1.00771  -0.00135   0.00000  -0.00762  -0.00748   1.00023
   D22       -1.03344   0.00067   0.00000   0.00998   0.01008  -1.02336
   D23        3.12747   0.00030   0.00000   0.00481   0.00453   3.13201
   D24        1.08632   0.00232   0.00000   0.02241   0.02209   1.10842
   D25       -1.28711  -0.00020   0.00000  -0.00998  -0.00999  -1.29710
   D26        1.82401   0.00057   0.00000   0.00023   0.00015   1.82416
   D27        2.90159   0.00079   0.00000  -0.01195  -0.01195   2.88964
   D28       -0.27047   0.00157   0.00000  -0.00174  -0.00181  -0.27228
   D29        0.79293  -0.00494   0.00000  -0.04333  -0.04321   0.74971
   D30       -2.37914  -0.00416   0.00000  -0.03313  -0.03307  -2.41221
   D31       -0.01062  -0.00183   0.00000  -0.01544  -0.01517  -0.02579
   D32       -3.12210  -0.00198   0.00000  -0.02390  -0.02417   3.13692
   D33       -3.12762  -0.00015   0.00000  -0.00004   0.00015  -3.12747
   D34       -0.01593   0.00103   0.00000   0.01107   0.01088  -0.00504
         Item               Value     Threshold  Converged?
 Maximum Force            0.049100     0.000450     NO 
 RMS     Force            0.013989     0.000300     NO 
 Maximum Displacement     0.237946     0.001800     NO 
 RMS     Displacement     0.057873     0.001200     NO 
 Predicted change in Energy=-2.311706D-02
 Lowest energy point so far.  Saving SCF results.
 GradGradGradGradGradGradGradGradGradGradGradGradGradGradGradGradGradGrad

 Leave Link  103 at Fri Aug 26 07:47:27 2022, MaxMem= 24159191040 cpu:         2.9
 (Enter /public/home/users/caep010/software/Gaussian09/g09/l202.exe)
                          Input orientation:                          
 ---------------------------------------------------------------------
 Center     Atomic      Atomic             Coordinates (Angstroms)
 Number     Number       Type             X           Y           Z
 ---------------------------------------------------------------------
      1          6           0       -0.559894    0.154564   -1.472356
      2          6           0       -0.220114   -0.090728    0.007258
      3          6           0       -0.801802    1.061897    0.862177
      4          7           0       -0.774169   -1.394721    0.401818
      5          6           0        1.295652   -0.167281    0.153056
      6          7           0        2.012618   -1.150571   -0.209997
      7          8           0        1.884705    0.928080    0.695402
      8          1           0       -0.108523    1.092101   -1.826060
      9          1           0       -1.649816    0.224295   -1.607342
     10          1           0       -0.188418   -0.669103   -2.097027
     11          1           0       -0.413659    2.041136    0.545807
     12          1           0       -1.898043    1.084818    0.771055
     13          1           0       -0.548484    0.923500    1.923102
     14          1           0       -1.794807   -1.354637    0.317355
     15          1           0       -0.569593   -1.567810    1.391622
     16          1           0        1.480362   -1.929087   -0.601966
     17          1           0        2.853984    0.813548    0.746197
 ---------------------------------------------------------------------
                    Distance matrix (angstroms):
                    1          2          3          4          5
     1  C    0.000000
     2  C    1.537815   0.000000
     3  C    2.516310   1.548480   0.000000
     4  N    2.441049   1.470731   2.499533   0.000000
     5  C    2.487689   1.524685   2.532399   2.419225   0.000000
     6  N    3.148769   2.481040   3.737049   2.863584   1.269924
     7  O    3.357613   2.437576   2.695003   3.542768   1.356812
     8  H    1.099008   2.184627   2.776358   3.404527   2.733981
     9  H    1.100461   2.179500   2.742121   2.724828   3.453710
    10  H    1.098469   2.182553   3.482741   2.667180   2.741744
    11  H    2.766500   2.207338   1.099843   3.457718   2.820125
    12  H    2.772888   2.186490   1.100261   2.747279   3.485594
    13  H    3.481455   2.192474   1.099494   2.781975   2.779156
    14  H    2.646840   2.042861   2.668806   1.024911   3.314777
    15  H    3.342010   2.054353   2.692506   1.025438   2.640959
    16  H    3.043324   2.577272   4.037074   2.525082   1.925651
    17  H    4.124415   3.288439   3.666047   4.261285   1.934488
                    6          7          8          9         10
     6  N    0.000000
     7  O    2.270880   0.000000
     8  H    3.484319   3.218327   0.000000
     9  H    4.154064   4.276772   1.782277   0.000000
    10  H    2.938921   3.827073   1.783717   1.781469   0.000000
    11  H    4.079835   2.558075   2.572845   3.076532   3.792189
    12  H    4.610065   3.786750   3.153956   2.541434   3.771597
    13  H    3.925701   2.725376   3.778652   3.763756   4.339063
    14  H    3.849186   4.346553   3.663920   2.493693   2.979879
    15  H    3.067097   3.569000   4.200141   3.656816   3.622656
    16  H    1.021285   3.163867   3.626367   3.930120   2.570524
    17  H    2.340933   0.977343   3.933262   5.115719   4.420225
                   11         12         13         14         15
    11  H    0.000000
    12  H    1.780078   0.000000
    13  H    1.778828   1.781726   0.000000
    14  H    3.673015   2.483434   3.053139   0.000000
    15  H    3.710015   3.030894   2.547458   1.643363   0.000000
    16  H    4.546137   4.731007   4.316183   3.449909   2.882226
    17  H    3.496373   4.759829   3.601942   5.147445   4.219991
                   16         17
    16  H    0.000000
    17  H    3.350586   0.000000
 Stoichiometry    C4H10N2O
 Framework group  C1[X(C4H10N2O)]
 Deg. of freedom    45
 Full point group                 C1      NOp   1
 RotChk:  IX=0 Diff= 6.30D-02
 Largest Abelian subgroup         C1      NOp   1
 Largest concise Abelian subgroup C1      NOp   1
                         Standard orientation:                         
 ---------------------------------------------------------------------
 Center     Atomic      Atomic             Coordinates (Angstroms)
 Number     Number       Type             X           Y           Z
 ---------------------------------------------------------------------
      1          6           0        1.086025   -0.437188    1.365891
      2          6           0        0.565974   -0.012250   -0.017529
      3          6           0        1.035783    1.432423   -0.317512
      4          7           0        1.068650   -0.967045   -1.016895
      5          6           0       -0.956077   -0.101793   -0.014662
      6          7           0       -1.621256   -1.182672   -0.058759
      7          8           0       -1.609216    1.084811    0.064830
      8          1           0        0.680673    0.214870    2.152231
      9          1           0        2.184179   -0.373214    1.397157
     10          1           0        0.795859   -1.473188    1.587573
     11          1           0        0.688494    2.142029    0.447670
     12          1           0        2.134840    1.474659   -0.346924
     13          1           0        0.653230    1.770002   -1.291462
     14          1           0        2.091837   -0.910833   -1.036142
     15          1           0        0.743316   -0.689507   -1.948911
     16          1           0       -1.043520   -2.022462   -0.121981
     17          1           0       -2.577172    0.950027    0.074602
 ---------------------------------------------------------------------
 Rotational constants (GHZ):      3.3358384      2.3603700      1.9653892
 Leave Link  202 at Fri Aug 26 07:47:27 2022, MaxMem= 24159191040 cpu:         0.3
 (Enter /public/home/users/caep010/software/Gaussian09/g09/l301.exe)
 Standard basis: GTBas3 (6D, 7F)
 Ernie: Thresh=  0.10000D-02 Tol=  0.10000D-05 Strict=F.
 There are   267 symmetry adapted cartesian basis functions of A   symmetry.
 There are   246 symmetry adapted basis functions of A   symmetry.
   246 basis functions,   378 primitive gaussians,   267 cartesian basis functions
    28 alpha electrons       28 beta electrons
       nuclear repulsion energy       329.7356536827 Hartrees.
 IExCor=  402 DFT=T Ex+Corr=B3LYP ExCW=0 ScaHFX=  0.200000
 ScaDFX=  0.800000  0.720000  1.000000  0.810000 ScalE2=  1.000000  1.000000
 IRadAn=      0 IRanWt=     -1 IRanGd=            0 ICorTp=0 IEmpDi=  4
 NAtoms=   17 NActive=   17 NUniq=   17 SFac= 1.00D+00 NAtFMM=   60 NAOKFM=F Big=F
 Integral buffers will be    131072 words long.
 Raffenetti 2 integral format.
 Two-electron integral symmetry is turned on.
 Leave Link  301 at Fri Aug 26 07:47:27 2022, MaxMem= 24159191040 cpu:         1.7
 (Enter /public/home/users/caep010/software/Gaussian09/g09/l302.exe)
 NPDir=0 NMtPBC=     1 NCelOv=     1 NCel=       1 NClECP=     1 NCelD=      1
         NCelK=      1 NCelE2=     1 NClLst=     1 CellRange=     0.0.
 One-electron integrals computed using PRISM.
 NBasis=   246 RedAO= T EigKep=  2.93D-04  NBF=   246
 NBsUse=   246 1.00D-06 EigRej= -1.00D+00 NBFU=   246
 Precomputing XC quadrature grid using
 IXCGrd= 4 IRadAn=           0 IRanWt=          -1 IRanGd=           0 AccXCQ= 0.00D+00.
 Generated NRdTot=       0 NPtTot=           0 NUsed=           0 NTot=          32
 NSgBfM=   267   267   267   267   267 MxSgAt=    17 MxSgA2=    17.
 Leave Link  302 at Fri Aug 26 07:47:27 2022, MaxMem= 24159191040 cpu:        17.3
 (Enter /public/home/users/caep010/software/Gaussian09/g09/l303.exe)
 DipDrv:  MaxL=1.
 Leave Link  303 at Fri Aug 26 07:47:28 2022, MaxMem= 24159191040 cpu:         0.8
 (Enter /public/home/users/caep010/software/Gaussian09/g09/l401.exe)
 Initial guess from the checkpoint file:  "G4.Frag_604.chk"
 B after Tr=    -0.000000   -0.000000   -0.000000
         Rot=    0.999673    0.012138   -0.006571    0.021522 Ang=   2.93 deg.
 Guess basis will be translated and rotated to current coordinates.
 JPrj=2 DoOrth=T DoCkMO=T.
 Generating alternative initial guess.
 ExpMin= 1.61D-01 ExpMax= 5.48D+03 ExpMxC= 8.25D+02 IAcc=1 IRadAn=         1 AccDes= 0.00D+00
 Harris functional with IExCor=  402 and IRadAn=       1 diagonalized for initial guess.
 HarFok:  IExCor=  402 AccDes= 0.00D+00 IRadAn=         1 IDoV= 1 UseB2=F ITyADJ=14
 ICtDFT=  3500011 ScaDFX=  1.000000  1.000000  1.000000  1.000000
 FoFCou: FMM=F IPFlag=           0 FMFlag=      100000 FMFlg1=           0
         NFxFlg=           0 DoJE=T BraDBF=F KetDBF=T FulRan=T
         wScrn=  0.000000 ICntrl=     500 IOpCl=  0 I1Cent=   200000004 NGrid=           0
         NMat0=    1 NMatS0=      1 NMatT0=    0 NMatD0=    1 NMtDS0=    0 NMtDT0=    0
 Petite list used in FoFCou.
 Harris En= -343.234263841058    
 Leave Link  401 at Fri Aug 26 07:47:28 2022, MaxMem= 24159191040 cpu:        17.8
 (Enter /public/home/users/caep010/software/Gaussian09/g09/l502.exe)
 Closed shell SCF:
 Using DIIS extrapolation, IDIIS=  1040.
 Integral symmetry usage will be decided dynamically.
 Keep R1 ints in memory in canonical form, NReq=471384968.
 IVT=      242915 IEndB=      242915 NGot= 24159191040 MDV= 23697430355
 LenX= 23697430355 LenY= 23697358625
 Requested convergence on RMS density matrix=1.00D-08 within 128 cycles.
 Requested convergence on MAX density matrix=1.00D-06.
 Requested convergence on             energy=1.00D-06.
 No special actions if energy rises.
 FoFCou: FMM=F IPFlag=           0 FMFlag=           0 FMFlg1=           0
         NFxFlg=           0 DoJE=F BraDBF=F KetDBF=F FulRan=T
         wScrn=  0.000000 ICntrl=     600 IOpCl=  0 I1Cent=           0 NGrid=           0
         NMat0=    1 NMatS0=  30381 NMatT0=    0 NMatD0=    1 NMtDS0=    0 NMtDT0=    0
 Symmetry not used in FoFCou.
 Integral accuracy reduced to 1.0D-05 until final iterations.

 Cycle   1  Pass 0  IDiag  1:
 E= -343.189672736799    
 DIIS: error= 3.08D-03 at cycle   1 NSaved=   1.
 NSaved= 1 IEnMin= 1 EnMin= -343.189672736799     IErMin= 1 ErrMin= 3.08D-03
 ErrMax= 3.08D-03  0.00D+00 EMaxC= 1.00D-01 BMatC= 5.51D-03 BMatP= 5.51D-03
 IDIUse=3 WtCom= 9.69D-01 WtEn= 3.08D-02
 Coeff-Com:  0.100D+01
 Coeff-En:   0.100D+01
 Coeff:      0.100D+01
 Gap=     1.023 Goal=   None    Shift=    0.000
 GapD=    1.023 DampG=2.000 DampE=1.000 DampFc=2.0000 IDamp=-1.
 RMSDP=4.31D-04 MaxDP=1.27D-02              OVMax= 1.65D-02

 Cycle   2  Pass 0  IDiag  1:
 E= -343.194372848656     Delta-E=       -0.004700111857 Rises=F Damp=F
 DIIS: error= 9.00D-04 at cycle   2 NSaved=   2.
 NSaved= 2 IEnMin= 2 EnMin= -343.194372848656     IErMin= 2 ErrMin= 9.00D-04
 ErrMax= 9.00D-04  0.00D+00 EMaxC= 1.00D-01 BMatC= 4.54D-04 BMatP= 5.51D-03
 IDIUse=3 WtCom= 9.91D-01 WtEn= 9.00D-03
 Coeff-Com:  0.111D+00 0.889D+00
 Coeff-En:   0.000D+00 0.100D+01
 Coeff:      0.110D+00 0.890D+00
 Gap=     0.273 Goal=   None    Shift=    0.000
 RMSDP=1.86D-04 MaxDP=7.72D-03 DE=-4.70D-03 OVMax= 8.55D-03

 Cycle   3  Pass 0  IDiag  1:
 E= -343.194404001886     Delta-E=       -0.000031153230 Rises=F Damp=F
 DIIS: error= 7.61D-04 at cycle   3 NSaved=   3.
 NSaved= 3 IEnMin= 3 EnMin= -343.194404001886     IErMin= 3 ErrMin= 7.61D-04
 ErrMax= 7.61D-04  0.00D+00 EMaxC= 1.00D-01 BMatC= 4.32D-04 BMatP= 4.54D-04
 IDIUse=3 WtCom= 9.92D-01 WtEn= 7.61D-03
 Coeff-Com: -0.185D-02 0.494D+00 0.508D+00
 Coeff-En:   0.000D+00 0.481D+00 0.519D+00
 Coeff:     -0.183D-02 0.494D+00 0.508D+00
 Gap=     0.272 Goal=   None    Shift=    0.000
 RMSDP=1.05D-04 MaxDP=5.43D-03 DE=-3.12D-05 OVMax= 7.67D-03

 Cycle   4  Pass 0  IDiag  1:
 E= -343.194756840435     Delta-E=       -0.000352838549 Rises=F Damp=F
 DIIS: error= 2.94D-04 at cycle   4 NSaved=   4.
 NSaved= 4 IEnMin= 4 EnMin= -343.194756840435     IErMin= 4 ErrMin= 2.94D-04
 ErrMax= 2.94D-04  0.00D+00 EMaxC= 1.00D-01 BMatC= 4.25D-05 BMatP= 4.32D-04
 IDIUse=3 WtCom= 9.97D-01 WtEn= 2.94D-03
 Coeff-Com: -0.955D-02 0.260D+00 0.320D+00 0.430D+00
 Coeff-En:   0.000D+00 0.000D+00 0.000D+00 0.100D+01
 Coeff:     -0.952D-02 0.259D+00 0.319D+00 0.432D+00
 Gap=     0.272 Goal=   None    Shift=    0.000
 RMSDP=2.54D-05 MaxDP=1.54D-03 DE=-3.53D-04 OVMax= 2.91D-03

 Cycle   5  Pass 0  IDiag  1:
 E= -343.194789766620     Delta-E=       -0.000032926185 Rises=F Damp=F
 DIIS: error= 5.56D-05 at cycle   5 NSaved=   5.
 NSaved= 5 IEnMin= 5 EnMin= -343.194789766620     IErMin= 5 ErrMin= 5.56D-05
 ErrMax= 5.56D-05  0.00D+00 EMaxC= 1.00D-01 BMatC= 2.51D-06 BMatP= 4.25D-05
 IDIUse=1 WtCom= 1.00D+00 WtEn= 0.00D+00
 Coeff-Com: -0.444D-02 0.620D-01 0.930D-01 0.230D+00 0.619D+00
 Coeff:     -0.444D-02 0.620D-01 0.930D-01 0.230D+00 0.619D+00
 Gap=     0.272 Goal=   None    Shift=    0.000
 RMSDP=6.81D-06 MaxDP=3.40D-04 DE=-3.29D-05 OVMax= 6.85D-04

 Initial convergence to 1.0D-05 achieved.  Increase integral accuracy.
 Cycle   6  Pass 1  IDiag  1:
 E= -343.194768408812     Delta-E=        0.000021357808 Rises=F Damp=F
 DIIS: error= 1.64D-05 at cycle   1 NSaved=   1.
 NSaved= 1 IEnMin= 1 EnMin= -343.194768408812     IErMin= 1 ErrMin= 1.64D-05
 ErrMax= 1.64D-05  0.00D+00 EMaxC= 1.00D-01 BMatC= 2.86D-07 BMatP= 2.86D-07
 IDIUse=1 WtCom= 1.00D+00 WtEn= 0.00D+00
 Coeff-Com:  0.100D+01
 Coeff:      0.100D+01
 Gap=     0.272 Goal=   None    Shift=    0.000
 RMSDP=6.81D-06 MaxDP=3.40D-04 DE= 2.14D-05 OVMax= 3.10D-04

 Cycle   7  Pass 1  IDiag  1:
 E= -343.194768218619     Delta-E=        0.000000190193 Rises=F Damp=F
 DIIS: error= 2.37D-05 at cycle   2 NSaved=   2.
 NSaved= 2 IEnMin= 1 EnMin= -343.194768408812     IErMin= 1 ErrMin= 1.64D-05
 ErrMax= 2.37D-05  0.00D+00 EMaxC= 1.00D-01 BMatC= 5.16D-07 BMatP= 2.86D-07
 IDIUse=1 WtCom= 1.00D+00 WtEn= 0.00D+00
 Coeff-Com:  0.582D+00 0.418D+00
 Coeff:      0.582D+00 0.418D+00
 Gap=     0.272 Goal=   None    Shift=    0.000
 RMSDP=3.10D-06 MaxDP=1.72D-04 DE= 1.90D-07 OVMax= 2.82D-04

 Cycle   8  Pass 1  IDiag  1:
 E= -343.194768639168     Delta-E=       -0.000000420549 Rises=F Damp=F
 DIIS: error= 7.30D-06 at cycle   3 NSaved=   3.
 NSaved= 3 IEnMin= 3 EnMin= -343.194768639168     IErMin= 3 ErrMin= 7.30D-06
 ErrMax= 7.30D-06  0.00D+00 EMaxC= 1.00D-01 BMatC= 2.93D-08 BMatP= 2.86D-07
 IDIUse=1 WtCom= 1.00D+00 WtEn= 0.00D+00
 Coeff-Com:  0.139D+00 0.207D+00 0.655D+00
 Coeff:      0.139D+00 0.207D+00 0.655D+00
 Gap=     0.272 Goal=   None    Shift=    0.000
 RMSDP=8.77D-07 MaxDP=5.73D-05 DE=-4.21D-07 OVMax= 9.93D-05

 Cycle   9  Pass 1  IDiag  1:
 E= -343.194768654563     Delta-E=       -0.000000015395 Rises=F Damp=F
 DIIS: error= 3.66D-06 at cycle   4 NSaved=   4.
 NSaved= 4 IEnMin= 4 EnMin= -343.194768654563     IErMin= 4 ErrMin= 3.66D-06
 ErrMax= 3.66D-06  0.00D+00 EMaxC= 1.00D-01 BMatC= 1.15D-08 BMatP= 2.93D-08
 IDIUse=1 WtCom= 1.00D+00 WtEn= 0.00D+00
 Coeff-Com: -0.629D-02 0.699D-01 0.446D+00 0.491D+00
 Coeff:     -0.629D-02 0.699D-01 0.446D+00 0.491D+00
 Gap=     0.272 Goal=   None    Shift=    0.000
 RMSDP=3.98D-07 MaxDP=1.97D-05 DE=-1.54D-08 OVMax= 3.63D-05

 Cycle  10  Pass 1  IDiag  1:
 E= -343.194768664132     Delta-E=       -0.000000009569 Rises=F Damp=F
 DIIS: error= 5.73D-07 at cycle   5 NSaved=   5.
 NSaved= 5 IEnMin= 5 EnMin= -343.194768664132     IErMin= 5 ErrMin= 5.73D-07
 ErrMax= 5.73D-07  0.00D+00 EMaxC= 1.00D-01 BMatC= 1.92D-10 BMatP= 1.15D-08
 IDIUse=1 WtCom= 1.00D+00 WtEn= 0.00D+00
 Coeff-Com: -0.852D-02 0.231D-01 0.171D+00 0.229D+00 0.585D+00
 Coeff:     -0.852D-02 0.231D-01 0.171D+00 0.229D+00 0.585D+00
 Gap=     0.272 Goal=   None    Shift=    0.000
 RMSDP=5.61D-08 MaxDP=1.43D-06 DE=-9.57D-09 OVMax= 2.53D-06

 Cycle  11  Pass 1  IDiag  1:
 E= -343.194768664301     Delta-E=       -0.000000000169 Rises=F Damp=F
 DIIS: error= 1.04D-07 at cycle   6 NSaved=   6.
 NSaved= 6 IEnMin= 6 EnMin= -343.194768664301     IErMin= 6 ErrMin= 1.04D-07
 ErrMax= 1.04D-07  0.00D+00 EMaxC= 1.00D-01 BMatC= 6.36D-12 BMatP= 1.92D-10
 IDIUse=1 WtCom= 1.00D+00 WtEn= 0.00D+00
 Coeff-Com: -0.372D-02 0.873D-02 0.650D-01 0.915D-01 0.260D+00 0.578D+00
 Coeff:     -0.372D-02 0.873D-02 0.650D-01 0.915D-01 0.260D+00 0.578D+00
 Gap=     0.272 Goal=   None    Shift=    0.000
 RMSDP=8.68D-09 MaxDP=5.70D-07 DE=-1.69D-10 OVMax= 5.64D-07

 SCF Done:  E(RB3LYP) =  -343.194768664     A.U. after   11 cycles
            NFock= 11  Conv=0.87D-08     -V/T= 2.0078
 KE= 3.405526514719D+02 PE=-1.459667409739D+03 EE= 4.461843359200D+02
 Leave Link  502 at Fri Aug 26 07:47:40 2022, MaxMem= 24159191040 cpu:       110.2
 (Enter /public/home/users/caep010/software/Gaussian09/g09/l701.exe)
 Compute integral first derivatives.
 ... and contract with generalized density number  0.
 Leave Link  701 at Fri Aug 26 07:47:41 2022, MaxMem= 24159191040 cpu:        13.8
 (Enter /public/home/users/caep010/software/Gaussian09/g09/l702.exe)
 L702 exits ... SP integral derivatives will be done elsewhere.
 Leave Link  702 at Fri Aug 26 07:47:41 2022, MaxMem= 24159191040 cpu:         0.5
 (Enter /public/home/users/caep010/software/Gaussian09/g09/l703.exe)
 Compute integral first derivatives, UseDBF=F ICtDFT=           0.
 Integral derivatives from FoFJK, PRISM(SPDF).
 Calling FoFJK, ICntrl=      2127 FMM=F ISym2X=0 I1Cent= 0 IOpClX= 0 NMat=1 NMatS=1 NMatT=0.
 FoFJK:  IHMeth= 1 ICntrl=    2127 DoSepK=F KAlg= 0 I1Cent=   0 FoldK=F
 IRaf=         0 NMat=   1 IRICut=       1 DoRegI=T DoRafI=F ISym2E= 0.
 FoFCou: FMM=F IPFlag=           0 FMFlag=      100000 FMFlg1=         800
         NFxFlg=           0 DoJE=F BraDBF=F KetDBF=F FulRan=T
         wScrn=  0.000000 ICntrl=    2127 IOpCl=  0 I1Cent=           0 NGrid=           0
         NMat0=    1 NMatS0=      1 NMatT0=    0 NMatD0=    1 NMtDS0=    0 NMtDT0=    0
 Symmetry not used in FoFCou.
 Leave Link  703 at Fri Aug 26 07:47:43 2022, MaxMem= 24159191040 cpu:        72.1
 (Enter /public/home/users/caep010/software/Gaussian09/g09/l716.exe)
 Dipole        = 6.42400903D-01 4.29057376D-01-1.24734553D-01
 ***** Axes restored to original set *****
 -------------------------------------------------------------------
 Center     Atomic                   Forces (Hartrees/Bohr)
 Number     Number              X              Y              Z
 -------------------------------------------------------------------
      1        6           0.000636298   -0.000940868   -0.005259923
      2        6          -0.008850278    0.014625235    0.008045732
      3        6           0.000747880    0.003216359    0.000831828
      4        7          -0.001902739   -0.004344148    0.002792833
      5        6           0.016284274   -0.016154275   -0.005717211
      6        7           0.006583345    0.002907675    0.002281576
      7        8          -0.003204433    0.005228268    0.001475839
      8        1          -0.002040868   -0.002845488    0.001164239
      9        1           0.003078771    0.000203506    0.000658629
     10        1          -0.001208384    0.002757487    0.002220172
     11        1          -0.001326855   -0.003746543    0.002085339
     12        1           0.003154276   -0.001016012   -0.000364619
     13        1          -0.000876234    0.001066485   -0.003205198
     14        1           0.006785106   -0.000575259    0.000850025
     15        1          -0.002291634    0.001131245   -0.006712955
     16        1          -0.004016607    0.005967268    0.003944729
     17        1          -0.011551917   -0.007480935   -0.005091036
 -------------------------------------------------------------------
 Cartesian Forces:  Max     0.016284274 RMS     0.005505313
 Leave Link  716 at Fri Aug 26 07:47:43 2022, MaxMem= 24159191040 cpu:         0.7
 (Enter /public/home/users/caep010/software/Gaussian09/g09/l103.exe)

 GradGradGradGradGradGradGradGradGradGradGradGradGradGradGradGradGradGrad
 Berny optimization.
 Using GEDIIS/GDIIS optimizer.
 FormGI is forming the generalized inverse of G from B-inverse, IUseBI=4.
 Internal  Forces:  Max     0.018237303 RMS     0.004037310
 Search for a local minimum.
 Step number   2 out of a maximum of   86
 All quantities printed in internal units (Hartrees-Bohrs-Radians)
 RMS Force = .40373D-02 SwitMx=.10000D-02 MixMth= 1
 Mixed Optimization -- RFO/linear search
 Update second derivatives using D2CorX and points    1    2
 DE= -2.28D-02 DEPred=-2.31D-02 R= 9.87D-01
 TightC=F SS=  1.41D+00  RLast= 3.14D-01 DXNew= 5.0454D-01 9.4322D-01
 Trust test= 9.87D-01 RLast= 3.14D-01 DXMaxT set to 5.05D-01
 ITU=  1  0
 Use linear search instead of GDIIS.
     Eigenvalues ---    0.00230   0.00257   0.00487   0.00772   0.01276
     Eigenvalues ---    0.01768   0.03045   0.04547   0.05040   0.05305
     Eigenvalues ---    0.05378   0.05494   0.05538   0.05559   0.06452
     Eigenvalues ---    0.15393   0.15624   0.16000   0.16000   0.16000
     Eigenvalues ---    0.16000   0.16000   0.16000   0.16000   0.16000
     Eigenvalues ---    0.16028   0.16531   0.24881   0.25057   0.28199
     Eigenvalues ---    0.28666   0.30231   0.32294   0.32420   0.32455
     Eigenvalues ---    0.32459   0.32467   0.32477   0.35792   0.40172
     Eigenvalues ---    0.40341   0.41143   0.45586   0.47785   0.69800
 RFO step:  Lambda=-2.14701588D-03 EMin= 2.30027833D-03
 Quartic linear search produced a step of  0.38231.
 Iteration  1 RMS(Cart)=  0.10723414 RMS(Int)=  0.00551121
 Iteration  2 RMS(Cart)=  0.00808465 RMS(Int)=  0.00011261
 Iteration  3 RMS(Cart)=  0.00003650 RMS(Int)=  0.00010950
 Iteration  4 RMS(Cart)=  0.00000000 RMS(Int)=  0.00010950
 ITry= 1 IFail=0 DXMaxC= 5.63D-01 DCOld= 1.00D+10 DXMaxT= 5.05D-01 DXLimC= 3.00D+00 Rises=F
 Variable       Old X    -DE/DX   Delta X   Delta X   Delta X     New X
                                 (Linear)    (Quad)   (Total)
    R1        2.90605   0.00094  -0.00046   0.00518   0.00472   2.91077
    R2        2.07682  -0.00364  -0.00923  -0.00157  -0.01079   2.06603
    R3        2.07957  -0.00312  -0.00787  -0.00137  -0.00924   2.07032
    R4        2.07581  -0.00374  -0.00921  -0.00199  -0.01120   2.06460
    R5        2.92620  -0.00135   0.00293  -0.01111  -0.00818   2.91802
    R6        2.77928   0.00156   0.00088   0.00467   0.00555   2.78483
    R7        2.88124   0.00425   0.00271   0.01512   0.01783   2.89907
    R8        2.07840  -0.00440  -0.00853  -0.00582  -0.01436   2.06404
    R9        2.07919  -0.00314  -0.00799  -0.00128  -0.00926   2.06993
   R10        2.07774  -0.00343  -0.00859  -0.00161  -0.01020   2.06754
   R11        1.93680  -0.00685  -0.01569  -0.00069  -0.01639   1.92041
   R12        1.93780  -0.00713  -0.01541  -0.00207  -0.01748   1.92032
   R13        2.39981  -0.00720  -0.02000   0.01227  -0.00773   2.39208
   R14        2.56400  -0.00967  -0.02703   0.00954  -0.01749   2.54651
   R15        1.92995  -0.00397  -0.01678   0.01074  -0.00604   1.92391
   R16        1.84691  -0.01084  -0.02598   0.00394  -0.02204   1.82487
    A1        1.93369   0.00030   0.00108   0.00036   0.00143   1.93512
    A2        1.92513  -0.00042  -0.00178  -0.00157  -0.00336   1.92177
    A3        1.93139  -0.00003   0.00054   0.00022   0.00077   1.93215
    A4        1.88940  -0.00026  -0.00105  -0.00311  -0.00416   1.88524
    A5        1.89415   0.00011   0.00008   0.00307   0.00315   1.89730
    A6        1.88883   0.00031   0.00112   0.00104   0.00217   1.89100
    A7        1.90655  -0.00030  -0.00013   0.00542   0.00538   1.91193
    A8        1.89263  -0.00116  -0.00495  -0.01148  -0.01675   1.87588
[...]
 62021\N,0,2.0290958842,-1.2044588003,0.2524941958\O,0,1.8762226614,1.0
 582937489,0.101720605\H,0,-0.0585017065,1.2145199854,-1.7367747481\H,0
 ,-1.6286990528,0.405883071,-1.5826812059\H,0,-0.2101641876,-0.50990840
 18,-2.1382893246\H,0,-0.3677420912,1.9631100859,0.754887779\H,0,-1.869
 4866092,1.0198535426,0.8609299807\H,0,-0.5429011121,0.7205844935,2.000
 1031664\H,0,-1.7122494524,-1.48870769,-0.0673971704\H,0,-0.7852775137,
 -1.6050025651,1.2647495459\H,0,1.4294520282,-2.0295767683,0.2298077144
 \H,0,2.8302486228,0.9058118483,0.1633519412\\Version=ES64L-G09RevE.01\
 State=1-A\HF=-341.2107397\RMSD=2.493e-09\Dipole=-1.0391353,0.3611238,0
 .1163118\Quadrupole=1.1693299,-1.9750351,0.8057052,3.4987447,-0.654375
 ,-0.8468582\PG=C01 [X(C4H10N2O1)]\\@


 Sometimes the fool who rushes in gets the job done.
                                    -- Al Bernstein
 Diagonal vibrational polarizability:
        0.0000000       0.0000000       0.0000000

 Temperature=              298.150000 Pressure=                      1.000000
 E(ZPE)=                     0.145790 E(Thermal)=                    0.154096
 E(CCSD(T))=              -342.163326 E(Empiric)=                   -0.145887
 DE(Plus)=                  -0.028843 DE(2DF)=                      -0.299298
 E(Delta-G3XP)=             -0.449092 DE(HF)=                       -0.033775
 G4(0 K)=                 -342.974432 G4 Energy=                  -342.966125
 G4 Enthalpy=             -342.965181 G4 Free Energy=             -343.006260
 1\1\GINC-B1936\Mixed\G4\G4\C4H10N2O1\ROOT\26-Aug-2022\0\\#P Geom=AllCh
 eck Guess=TCheck SCRF=Check HF/GFHFB2 SCF=Tight\\Frag_604\\0,1\C,0,-0.
 5471583023,0.278380879,-1.4598758531\C,0,-0.2170233582,-0.0931813676,-
 0.002371919\C,0,-0.7798586753,0.9730905226,0.9606757587\N,0,-0.7533321
 961,-1.4367130035,0.2625075131\C,0,1.3073750606,-0.1719795806,0.136262
 021\N,0,2.0290958842,-1.2044588003,0.2524941958\O,0,1.8762226614,1.058
 2937489,0.101720605\H,0,-0.0585017065,1.2145199854,-1.7367747481\H,0,-
 1.6286990528,0.405883071,-1.5826812059\H,0,-0.2101641876,-0.5099084018
 ,-2.1382893246\H,0,-0.3677420912,1.9631100859,0.754887779\H,0,-1.86948
 66092,1.0198535426,0.8609299807\H,0,-0.5429011121,0.7205844935,2.00010
 31664\H,0,-1.7122494524,-1.48870769,-0.0673971704\H,0,-0.7852775137,-1
 .6050025651,1.2647495459\H,0,1.4294520282,-2.0295767683,0.2298077144\H
 ,0,2.8302486228,0.9058118483,0.1633519412\\Version=ES64L-G09RevE.01\St
 ate=1-A\MP2/GTBas1=-342.0726084\MP4/GTBas1=-342.16404\CCSD(T)/G3Bas1=-
 342.1633265\MP2/GTBas2=-342.0998869\MP4/GTBas2=-342.1928826\MP2/GTBas3
 =-342.3553035\MP4/GTBas3=-342.4633384\HF/GTLargeXP=-341.1783537\MP2/GT
 LargeXP=-342.8316741\HF/GFHFB1=-341.2050405\HF/GFHFB2=-341.2107397\G4=
 -342.9744316\FreqCoord=-1.0339793428,0.526063622,-2.7587655504,-0.4101
 147114,-0.1760872654,-0.0044822773,-1.4737193186,1.8388745903,1.815414
 0864,-1.4235915376,-2.7149941081,0.4960673076,2.4705808176,-0.32499430
 77,0.2574979021,3.8344355186,-2.2760972709,0.4771448801,3.5455469944,1
 .9998853536,0.1922240856,-0.1105522035,2.2951101552,-3.2820286285,-3.0
 777951627,0.7670078461,-2.9908340349,-0.3971527575,-0.9635872322,-4.04
 07812164,-0.69493184,3.709740431,1.4265311633,-3.5328177005,1.92724389
 12,1.6269218832,-1.0259344191,1.3617073483,3.779647222,-3.2356825362,-
 2.813249826,-0.1273621943,-1.4839594393,-3.0330152907,2.3900302684,2.7
 012728535,-3.8353442578,0.4342736434,5.3483947851,1.7117363212,0.30869
 04322\PG=C01 [X(C4H10N2O1)]\NImag=0\\0.56661824,0.01020146,0.58249776,
 -0.02853234,0.02714591,0.46270569,-0.08072829,-0.00071093,-0.01302569,
 0.48963119,0.00636097,-0.07809351,0.02103859,0.01710430,0.48279394,-0.
 03014724,0.01453820,-0.15591873,0.00483587,-0.00785316,0.46831539,0.00
 361296,-0.00425755,-0.00359379,-0.09228034,0.02581130,0.02747319,0.558
 28946,-0.00197857,0.00595771,0.00011036,0.01774950,-0.10660668,-0.0340
 3551,0.03900631,0.51942720,0.01204343,-0.02395345,-0.03063696,0.020062
 90,-0.03846502,-0.11216169,0.02927300,-0.05664610,0.52312216,0.0027039
 5,0.00469697,-0.00049015,-0.09412104,-0.06377997,-0.00822530,0.0045604
 8,0.00612113,-0.00163744,0.54647974,-0.00792327,-0.01745859,0.00985689
 ,-0.01856336,-0.16630479,0.00576156,-0.01604255,-0.04405154,0.00558839
 ,0.11576995,0.30392099,0.01543252,0.03883701,-0.01440354,-0.00651549,0
 .03558660,-0.09016833,-0.00773608,-0.01766131,0.00482235,0.11966153,-0
 .10623340,0.59076081,-0.01080533,0.00718136,-0.01661851,-0.15969363,0.
 00435320,-0.00363499,-0.01713069,0.01335072,0.00552829,-0.02368090,-0.
 01167090,-0.00219683,0.67230681,0.01124054,0.00053268,0.00231852,0.008
 39686,-0.07312691,0.00007741,0.02605237,-0.00146625,0.00108556,-0.0319
 3785,-0.01143895,-0.00442308,-0.13613873,0.83649524,-0.03526196,0.0032
 9684,-0.00705176,-0.00788306,-0.00297516,-0.08185030,0.02405402,-0.002
 12541,0.00254317,0.00534247,0.00299869,0.00182601,0.04434609,-0.047128
 29,0.21470313,-0.00433154,-0.00001032,0.00356237,-0.01533628,0.0309385
 6,-0.00548607,-0.00491461,-0.00223307,-0.00324913,-0.00321102,0.001106
 72,-0.00229165,-0.28679084,0.20113995,-0.02987874,0.45585679,-0.000001
 88,0.00000601,-0.00227861,0.00869087,-0.00498576,0.00324976,-0.0006268
 7,0.00103302,0.00115072,-0.00516299,0.00105505,-0.00084154,0.25661748,
 -0.44683473,0.04258736,-0.07314700,0.81184349,0.00501215,-0.00082028,-
 0.00059018,-0.00439436,0.00675088,0.02672655,-0.00491663,-0.00112818,-
 0.00182502,0.00004942,-0.00059203,0.00105564,-0.03138725,0.03575845,-0
 .06342221,0.03971459,-0.04198567,0.06198458,-0.00100577,-0.00102644,0.
 00094737,-0.01748515,-0.03502010,0.00086071,-0.00320560,-0.00003100,-0
 .00039345,-0.00790412,-0.00089813,-0.00274338,-0.15508005,-0.09009670,
 -0.00114451,0.02578417,0.01642645,0.00054205,0.63322496,-0.00053022,-0
 .00115293,0.00128967,-0.00651539,-0.00644703,-0.00020263,0.00051875,-0
 .00116082,-0.00071915,-0.00259274,0.00253789,-0.00043912,-0.04904281,-
 0.25029035,0.00755941,-0.01223179,-0.09373275,0.00510586,0.00538968,0.
 40986475,-0.00011374,0.00127682,-0.00048432,-0.00097807,-0.00259499,0.
 00280414,0.00052185,-0.00037927,-0.00007091,-0.00016142,-0.00009378,0.
 00094207,-0.00353919,0.00583540,-0.05852158,0.00246758,0.00775705,0.00
 699751,0.03248668,-0.02004678,0.04887617,-0.10200458,-0.10670551,0.031
 41450,0.00201504,0.00685576,-0.00121041,-0.00022552,-0.00018884,0.0001
 8810,-0.00028233,0.00084143,-0.00205408,0.00090459,0.00150497,-0.00002
 865,-0.00001712,-0.00041369,-0.00013666,-0.00096462,-0.00028798,-0.000
 39356,0.10775856,-0.10437636,-0.24652581,0.05812686,-0.00231697,-0.007
 35793,0.00012208,0.00008479,0.00014410,-0.00048768,0.00067962,0.000592
 90,0.00248076,-0.00129673,-0.00198789,0.00054750,0.00025754,0.00057209
 ,-0.00002096,-0.00027337,0.00103206,-0.00117265,0.11517294,0.26632571,
 0.02912211,0.05461451,-0.06333016,0.01473904,0.02586347,-0.00533631,0.
 00029279,0.00053689,0.00126864,-0.00169208,0.00169768,-0.00681599,0.00
 144880,0.00188814,0.00068429,-0.00022621,-0.00059021,-0.00013937,-0.00
 017146,-0.00070073,-0.00008698,-0.03187324,-0.06374728,0.06879025,-0.2
 9956304,0.02893802,-0.02472742,-0.00900330,-0.00012121,-0.00035803,0.0
 0052587,0.00000300,0.00090571,0.00102327,-0.00002968,0.00061927,0.0015
 0254,0.00016424,-0.00158344,-0.00054302,0.00010107,0.00007158,-0.00014
 309,0.00027328,-0.00028779,-0.01337515,0.00276235,-0.00124485,0.326619
 34,0.02976973,-0.05029735,0.00228688,0.00813572,-0.00212518,0.00172910
 ,-0.00071167,-0.00004080,-0.00064774,0.00070874,0.00082439,-0.00024476
 ,-0.00081700,-0.00138496,0.00159555,0.00041020,0.00034391,-0.00014182,
 -0.00014031,0.00060072,-0.00050197,-0.02763087,0.00459759,-0.00324569,
 -0.03254238,0.04967174,-0.02337115,0.00257838,-0.04810262,-0.03348271,
 0.00355419,-0.00707417,-0.00116068,0.00047535,0.00205910,-0.00016953,-
 0.00210287,0.00156600,0.00248057,0.00236943,-0.00609410,-0.00222752,0.
 00053799,0.00154113,-0.00066439,-0.00052748,0.00033482,0.00797245,-0.0
 0190131,0.00011140,0.02896016,-0.00428062,0.05357896,-0.07444588,0.061
 15888,0.05145509,0.00106139,-0.00613091,-0.00504414,-0.00007835,0.0003
 7569,-0.00115405,-0.00001008,-0.00011148,0.00028962,0.00098761,-0.0014
 3085,-0.00041168,-0.00003906,0.00025107,0.00038386,-0.00029252,0.00017
 116,0.00009998,0.00477661,-0.01072174,-0.01033129,-0.00883301,0.023311
 59,0.01975071,0.07615644,0.06074269,-0.18862291,-0.11996253,-0.0029267
 1,0.00505760,0.00554154,-0.00000402,-0.00006351,0.00156704,0.00003594,
 0.00111157,0.00014358,-0.00006096,0.00015624,-0.00028187,-0.00038381,0
 .00016763,0.00014707,-0.00031958,-0.00001019,-0.00001126,0.00992876,-0
 .01801700,-0.01674978,-0.00001522,-0.00196687,-0.00073084,-0.06704973,
 0.20124201,0.05020488,-0.11681028,-0.14525927,0.00931840,-0.02359191,-
 0.02041749,-0.00240591,0.00314896,-0.00575249,-0.00002007,-0.00074341,
 0.00305233,0.00231143,-0.00183201,0.00063734,-0.00061362,0.00089785,0.
 00045485,-0.00031921,0.00038031,0.00010409,-0.00349792,0.00636772,0.00
 557158,-0.00107556,0.00325026,0.00215419,-0.05462326,0.13011083,0.1606
 1507,0.00019039,-0.00012705,-0.00033613,0.00420385,0.00951413,-0.00404
 097,-0.08608968,-0.09508266,0.02073849,0.00096746,0.00316101,0.0014004
 3,0.00132636,0.00112771,-0.00056058,0.00000031,-0.00058084,0.00020358,
 -0.00301129,0.00019108,0.00062744,0.00031773,-0.00000615,0.00002343,-0
 .00005211,-0.00017074,0.00003742,-0.00010111,0.00008821,-0.00010377,0.
 09100373,-0.00038183,0.00064166,0.00111166,-0.00940100,-0.01709562,0.0
 0699664,-0.09150162,-0.26656677,0.04685310,0.00194366,-0.00567273,-0.0
 0363420,-0.00152645,-0.00276574,0.00001642,0.00025436,0.00118830,-0.00
 008725,-0.00080718,0.00168253,0.00030899,0.00015357,0.00051448,-0.0006
 3194,0.00004004,-0.00002718,-0.00014296,0.00023416,0.00019909,0.000114
 01,0.10260072,0.28956692,-0.00047877,0.00000798,0.00091871,-0.00965817
 ,-0.01557666,0.00464888,0.02069919,0.04876235,-0.05837168,0.00147098,-
 0.00607450,-0.00164487,-0.00019884,0.00033250,0.00045429,0.00000653,0.
 00000591,-0.00002495,0.00080404,-0.00028423,-0.00048363,0.00014919,-0.
 00011931,-0.00055213,-0.00004026,-0.00001667,-0.00008480,0.00007531,0.
 00021536,0.00023391,-0.02353682,-0.05112682,0.06044341,0.00034172,-0.0
 0039100,-0.00099878,-0.01450963,-0.00060953,-0.00102786,-0.30455854,0.
 00835390,-0.02631446,0.00227803,-0.00072855,-0.00056108,0.00152596,0.0
 0086292,0.00194583,-0.00115537,0.00051634,-0.00048417,-0.00036466,0.00
 044111,0.00011121,0.00001335,0.00006363,-0.00005454,0.00064413,-0.0001
 1611,0.00084599,0.00044500,0.00000340,0.00001818,-0.01075539,0.0013360
 2,-0.00158009,0.33196634,-0.00027970,0.00036990,0.00143786,0.02501466,
 -0.00357365,0.00001289,0.00746761,-0.04625436,0.00203013,-0.00058722,0
 .00282447,0.00092353,-0.00133114,-0.00449634,-0.00372893,0.00166877,0.
 00017466,0.00120187,-0.00041163,0.00099265,0.00038110,-0.00012568,0.00
 004591,-0.00006109,-0.00043175,0.00037886,-0.00025664,-0.00011788,-0.0
 0007753,0.00021997,-0.02871661,0.00290286,-0.00398819,-0.01067083,0.04
 833584,0.00127428,0.00036302,0.00155594,0.02241227,-0.00128033,0.00000
 626,-0.02756831,0.00117782,-0.04938582,-0.00034617,0.00197488,0.000302
 22,-0.00040393,-0.00324798,-0.00294274,0.00160396,-0.00029572,0.001090
 23,0.00049317,0.00029136,0.00043776,0.00004340,-0.00000807,-0.00011302
 ,-0.00056327,-0.00013497,-0.00032724,-0.00032834,0.00008472,0.00022187
 ,0.00674011,-0.00056942,-0.00020504,0.02789448,0.00152281,0.05161926,-
 0.00089393,0.00206402,0.00122620,0.00146201,-0.00336991,0.01318241,-0.
 06010547,0.01469839,-0.05595394,-0.00055090,-0.00096282,-0.00033467,0.
 00121662,-0.00053537,0.00080226,0.00003816,0.00002290,-0.00018075,-0.0
 0008672,-0.00014349,-0.00020186,-0.00002542,0.00013177,-0.00027378,0.0
 0041464,0.00004014,0.00032043,0.00075249,-0.00004850,0.00085776,0.0024
 0239,-0.00263828,0.01227986,-0.00613140,0.00815598,-0.03055895,0.06116
 428,0.00179067,-0.00334144,-0.00256993,-0.00547068,0.00356849,-0.02182
 984,0.01410781,-0.06222825,0.06066802,0.00012706,0.00285388,-0.0003462
 7,-0.00091255,0.00127146,0.00029057,-0.00004893,-0.00025653,0.00009792
 ,-0.00006546,-0.00023256,-0.00026310,0.00019744,0.00013593,-0.00015904
 ,-0.00002254,-0.00019249,0.00014139,-0.00014328,0.00064417,-0.00146893
 ,0.00797714,-0.00601091,0.02769437,-0.00025048,-0.00119894,0.00041970,
 -0.01720413,0.06534557,0.00237463,-0.00420015,-0.00147386,-0.00385890,
 0.00645581,-0.01980839,-0.05511542,0.05920750,-0.27819401,0.00021972,0
 .00095461,0.00193550,-0.00180298,0.00005148,-0.00010305,0.00069058,-0.
 00038428,0.00025312,0.00042544,0.00025801,0.00047233,-0.00001958,0.000
 04695,0.00029177,0.00003933,0.00001035,0.00041645,-0.00028949,0.000308
 49,-0.00139933,-0.00167435,0.00102861,-0.00535769,-0.00011833,0.000665
 66,-0.00210134,0.05938020,-0.06316653,0.30479503,0.00170721,0.00112398
 ,-0.00044773,-0.01561124,0.00595540,-0.00212574,0.00116390,0.00096885,
 -0.00027872,-0.38002613,-0.03885407,-0.13818364,-0.00059874,-0.0021344
 8,0.00053564,-0.00034007,-0.00084598,0.00021745,-0.00148238,-0.0006576
 5,-0.00004601,0.00028581,0.00031887,-0.00033490,0.00033220,-0.00035490
 ,0.00073916,-0.00032112,-0.00010424,0.00044288,-0.00010829,0.00035210,
 0.00019994,0.00027021,-0.00020635,-0.00035753,0.00002158,-0.00001408,-
 0.00003622,0.39445902,-0.00114307,0.00194044,-0.00063420,-0.03732527,-
 0.00785250,-0.01203981,-0.00136914,0.00041273,0.00008598,-0.00269546,-
 0.03177115,0.02279517,0.00176928,-0.00657676,0.00100103,0.00132830,0.0
 0134946,-0.00063036,-0.00199309,0.00057601,0.00001851,0.00045601,-0.00
 003618,-0.00050118,0.00077075,-0.00054001,0.00075039,0.00034175,-0.000
 00056,-0.00006947,0.00054839,-0.00003371,0.00021733,0.00084188,-0.0004
 6719,-0.00022564,0.00008312,-0.00004307,0.00008495,0.03291066,0.043734
 83,0.00186065,0.00053975,0.00099520,0.00650583,-0.00291481,0.00155374,
 -0.00065134,0.00029553,-0.00059757,-0.10435596,0.01191561,-0.08203446,
 0.00151449,0.00217255,-0.00041333,0.00107144,0.00044978,0.00031799,0.0
 0141400,0.00042368,0.00016395,-0.00022707,-0.00031641,-0.00037576,-0.0
 0061753,0.00062536,0.00019710,0.00051529,-0.00016409,-0.00036087,0.000
 34948,0.00011049,0.00016994,0.00022660,-0.00047534,0.00021392,-0.00010
 328,-0.00007325,0.00002773,0.13385479,-0.01080472,0.09500956,-0.001132
 05,-0.00173746,0.00008720,-0.00086057,0.00285581,0.01462836,0.00013318
 ,-0.00038935,0.00004327,-0.04627632,-0.02652928,0.02352781,0.00186575,
 -0.00331761,0.00158136,-0.00061725,0.00143685,-0.00182392,-0.00037229,
 0.00109083,-0.00032166,0.00082592,-0.00046919,0.00056377,0.00032954,-0
 .00019349,0.00013945,-0.00011513,0.00001594,-0.00034453,-0.00013316,-0
 .00025735,-0.00007589,-0.00022385,0.00030887,-0.00033127,0.00036046,-0
 .00010950,-0.00035354,-0.00045170,0.00721962,-0.04041557,0.04761389,-0
 .00348873,-0.00622691,0.00028690,-0.00079801,-0.01142043,0.03777028,0.
 00120053,0.00228227,0.00188620,-0.01991940,-0.03870614,0.03404511,-0.0
 0025289,0.00097468,0.00007155,0.00021596,-0.00033783,0.00070363,0.0001
 1246,-0.00062245,-0.00025531,0.00033769,-0.00018290,0.00212841,0.00012
 518,0.00008296,-0.00026063,-0.00022007,0.00015431,0.00003972,-0.000279
 47,0.00090681,-0.00015501,0.00027937,-0.00034009,-0.00015139,-0.000290
 97,-0.00042922,-0.00135524,0.00253820,-0.00088732,-0.00232670,0.019973
 86,0.05447490,0.00183524,0.00213437,0.00069622,0.00153361,-0.00380549,
 -0.00791313,-0.00054829,-0.00191192,0.00249877,-0.00971029,0.07520478,
 -0.40992885,-0.00048793,0.00131766,-0.00025450,0.00027418,-0.00056376,
 0.00043213,0.00005021,-0.00062158,0.00004994,-0.00039749,0.00025219,-0
 .00029656,-0.00006069,-0.00020755,0.00018937,-0.00012076,-0.00009204,0
 .00047896,0.00014796,-0.00057839,-0.00013524,-0.00008669,0.00024159,-0
 .00004310,-0.00038734,0.00057086,0.00038583,0.00602138,-0.00055728,-0.
 01471692,0.00121315,-0.07131614,0.42910626,-0.00054703,-0.00037704,-0.
 00007814,0.00002817,0.00247234,-0.00009206,-0.00023936,-0.00076859,0.0
 0033855,-0.00179167,0.00136179,0.00198484,0.00659730,0.02431947,0.0001
 0960,-0.16724030,-0.21063870,-0.00301614,0.00141669,0.00641718,-0.0019
 9396,0.00009776,-0.00018343,0.00019327,0.00000969,0.00014592,-0.000146
 84,0.00011327,0.00012438,-0.00010001,0.00004182,-0.00043193,-0.0001607
 3,0.00003610,0.00024663,0.00004312,0.00005713,0.00005745,0.00000177,0.
 00058016,-0.00137694,-0.00105904,-0.00077748,0.00046206,0.00067753,0.1
 6241399,-0.00037295,-0.00014159,0.00024406,-0.00081319,-0.00078705,-0.
 00060343,-0.00034851,-0.00035040,-0.00003940,-0.00207597,0.00016495,-0
 .00062985,-0.02586186,-0.04361641,-0.00034046,-0.15188022,-0.27450290,
 -0.00414392,0.00372006,-0.00260506,0.00102901,-0.00002438,0.00007378,-
 0.00007189,-0.00007234,0.00008917,-0.00026178,0.00010468,-0.00002525,0
 .00008313,-0.00008407,0.00005754,-0.00001465,-0.00007439,0.00024499,0.
 00019097,0.00000444,-0.00002467,0.00004722,-0.00072782,0.00068310,0.00
 031556,0.00030687,0.00025166,-0.00014590,0.17669840,0.32064326,-0.0018
 9970,0.00051195,0.00035662,0.00031602,-0.00045139,-0.00732973,0.001509
 06,0.00015109,0.00045257,0.00020821,-0.00010271,-0.00147160,0.00222007
 ,0.00457027,-0.00453701,-0.00574444,-0.00974477,-0.03041608,-0.0014520
 4,0.00183767,0.01606311,0.00006005,-0.00006297,0.00003353,-0.00011585,
 0.00005350,-0.00058795,-0.00012858,0.00001060,-0.00022108,-0.00006407,
 -0.00001799,0.00002625,0.00016504,-0.00037550,-0.00024626,-0.00001873,
 0.00001510,-0.00000019,-0.00022639,0.00049400,-0.00026891,0.00188877,-
 0.00108790,-0.00056099,0.00337729,0.00430373,0.02984787,0.00028297,-0.
 00002137,0.00015595,0.00122781,-0.00319015,0.00041227,0.00054233,0.000
 04460,-0.00014056,-0.00015842,0.00007320,-0.00029911,-0.03445335,-0.00
 921743,-0.00196466,0.00285707,0.00735491,0.00014520,-0.46902757,0.0575
 0901,-0.02827749,-0.00010064,0.00017243,-0.00018085,0.00011150,0.00015
 542,-0.00002351,-0.00005656,-0.00002654,-0.00004968,-0.00020300,0.0000
 3102,0.00004452,0.00017801,0.00001628,-0.00004704,-0.00009591,-0.00001
 595,0.00013710,0.00011959,-0.00036680,0.00011721,-0.00016892,0.0000042
 3,0.00004623,-0.00079625,0.00150125,-0.00009472,0.49974135,0.00037052,
 -0.00008512,0.00019110,-0.00025039,-0.00564301,0.00076494,0.00061247,-
 0.00046764,0.00004340,-0.00133145,-0.00048219,-0.00035823,-0.05436002,
 0.00455496,-0.00338479,0.00261477,0.00291688,-0.00021521,0.10543434,-0
 .06103247,0.00871222,-0.00007160,0.00007318,-0.00027025,0.00005720,-0.
 00001450,0.00005801,-0.00002303,0.00005120,-0.00009675,-0.00016079,0.0
 0051247,0.00012023,0.00014230,0.00013797,-0.00011177,-0.00000730,0.000
 13858,-0.00001344,-0.00026849,-0.00048811,0.00022701,-0.00020542,0.000
 02569,0.00007861,0.00147100,-0.00015512,-0.00010468,-0.05402411,0.0599
 5723,0.00064499,-0.00006057,0.00002302,0.00007251,0.00025937,0.0039233
 0,-0.00012667,0.00002186,0.00022939,-0.00014392,-0.00001038,0.00020470
 ,0.00042069,-0.00114600,0.00434235,0.00032615,0.00004815,-0.00443592,-
 0.03113523,0.00639573,-0.01759848,0.00001095,-0.00010742,0.00029482,0.
 00007862,-0.00012921,0.00012236,-0.00013826,-0.00013683,-0.00011367,0.
 00004833,0.00024905,-0.00003537,0.00001868,0.00024827,-0.00008288,-0.0
 0003582,-0.00002106,-0.00013991,0.00002564,0.00001529,0.00011870,-0.00
 000675,-0.00002348,0.00001182,-0.00007906,0.00003761,-0.00114016,0.030
 01915,-0.00564038,0.01427594\\-0.00000225,-0.00000853,0.00002926,0.000
 01308,-0.00000097,-0.00002987,-0.00001012,0.00002647,0.00002027,-0.000
 02452,-0.00001766,0.00001640,-0.00000459,0.00002490,0.00000347,0.00002
 187,-0.00001393,0.00000229,-0.00000273,0.00000022,-0.00000335,-0.00000
 203,-0.00000438,-0.00000985,0.00000129,-0.00000046,-0.00000110,0.00000
 060,0.00000088,-0.00000112,0.00000640,0.00000132,-0.00000667,0.0000068
 1,-0.00000390,-0.00000923,0.00000354,0.00000360,-0.00001197,0.00000377
 ,-0.00000351,0.00000341,0.00000198,0.00000261,-0.00000383,-0.00000822,
 -0.00000315,0.00000419,-0.00000487,-0.00000350,-0.00000230\\\@
 Job cpu time:       0 days  6 hours 40 minutes  1.6 seconds.
 File lengths (MBytes):  RWF=  11195 Int=      0 D2E=      0 Chk=     52 Scr=      1
 Normal termination of Gaussian 09 at Fri Aug 26 08:28:28 2022.
