 Entering Gaussian System, Link 0=g09
 Input=G4.Frag_693.gjf
 Output=G4.Frag_693.log
 Initial command:
 /public/home/users/caep010/software/Gaussian09/g09/l1.exe "/public/home/users/caep010/.cache/gau_scr/Gau-164908.inp" -scrdir="/public/home/users/caep010/.cache/gau_scr/"
 Entering Link 1 = /public/home/users/caep010/software/Gaussian09/g09/l1.exe PID=    164909.
  
 Copyright (c) 1988,1990,1992,1993,1995,1998,2003,2009,2015,
            Gaussian, Inc.  All Rights Reserved.
  
 This is part of the Gaussian(R) 09 program.  It is based on
 the Gaussian(R) 03 system (copyright 2003, Gaussian, Inc.),
 the Gaussian(R) 98 system (copyright 1998, Gaussian, Inc.),
 the Gaussian(R) 94 system (copyright 1995, Gaussian, Inc.),
 the Gaussian 92(TM) system (copyright 1992, Gaussian, Inc.),
 the Gaussian 90(TM) system (copyright 1990, Gaussian, Inc.),
 the Gaussian 88(TM) system (copyright 1988, Gaussian, Inc.),
 the Gaussian 86(TM) system (copyright 1986, Carnegie Mellon
 University), and the Gaussian 82(TM) system (copyright 1983,
 Carnegie Mellon University). Gaussian is a federally registered
 trademark of Gaussian, Inc.
  
 This software contains proprietary and confidential information,
 including trade secrets, belonging to Gaussian, Inc.
  
 This software is provided under written license and may be
 used, copied, transmitted, or stored only in accord with that
 written license.
  
 The following legend is applicable only to US Government
 contracts under FAR:
  
                    RESTRICTED RIGHTS LEGEND
  
 Use, reproduction and disclosure by the US Government is
 subject to restrictions as set forth in subparagraphs (a)
 and (c) of the Commercial Computer Software - Restricted
 Rights clause in FAR 52.227-19.
  
 Gaussian, Inc.
 340 Quinnipiac St., Bldg. 40, Wallingford CT 06492
  
  
 ---------------------------------------------------------------
 Warning -- This program may not be used in any manner that
 competes with the business of Gaussian, Inc. or will provide
 assistance to any competitor of Gaussian, Inc.  The licensee
 of this program is prohibited from giving any competitor of
 Gaussian, Inc. access to this program.  By using this program,
 the user acknowledges that Gaussian, Inc. is engaged in the
 business of creating and licensing software in the field of
 computational chemistry and represents and warrants to the
 licensee that it is not a competitor of Gaussian, Inc. and that
 it will not use this program in any manner prohibited above.
 ---------------------------------------------------------------
  

 Cite this work as:
 Gaussian 09, Revision E.01,
 M. J. Frisch, G. W. Trucks, H. B. Schlegel, G. E. Scuseria, 
 M. A. Robb, J. R. Cheeseman, G. Scalmani, V. Barone, B. Mennucci, 
 G. A. Petersson, H. Nakatsuji, M. Caricato, X. Li, H. P. Hratchian, 
 A. F. Izmaylov, J. Bloino, G. Zheng, J. L. Sonnenberg, M. Hada, 
 M. Ehara, K. Toyota, R. Fukuda, J. Hasegawa, M. Ishida, T. Nakajima, 
 Y. Honda, O. Kitao, H. Nakai, T. Vreven, J. A. Montgomery, Jr., 
 J. E. Peralta, F. Ogliaro, M. Bearpark, J. J. Heyd, E. Brothers, 
 K. N. Kudin, V. N. Staroverov, T. Keith, R. Kobayashi, J. Normand, 
 K. Raghavachari, A. Rendell, J. C. Burant, S. S. Iyengar, J. Tomasi, 
 M. Cossi, N. Rega, J. M. Millam, M. Klene, J. E. Knox, J. B. Cross, 
 V. Bakken, C. Adamo, J. Jaramillo, R. Gomperts, R. E. Stratmann, 
 O. Yazyev, A. J. Austin, R. Cammi, C. Pomelli, J. W. Ochterski, 
 R. L. Martin, K. Morokuma, V. G. Zakrzewski, G. A. Voth, 
 P. Salvador, J. J. Dannenberg, S. Dapprich, A. D. Daniels, 
 O. Farkas, J. B. Foresman, J. V. Ortiz, J. Cioslowski, 
 and D. J. Fox, Gaussian, Inc., Wallingford CT, 2013.
 
 ******************************************
 Gaussian 09:  ES64L-G09RevE.01 30-Nov-2015
                30-Aug-2022 
 ******************************************
 %nproc=32
 Will use up to   32 processors via shared memory.
 %mem=180GB
 %chk=G4.Frag_693.chk
 -----
 #P G4
 -----
 1/14=-1,18=20,19=15,26=3,38=1/1,3;
 2/9=110,12=2,17=6,18=5,40=1/2;
 3/5=35,7=104,11=2,16=1,25=1,30=1,71=1,74=-5/1,2,3;
 4//1;
 5/5=2,38=5/2;
 6/7=2,8=2,9=2,10=2,28=1/1;
 7//1,2,3,16;
 1/14=-1,18=20,19=15,26=3/3(2);
 2/9=110/2;
 99//99;
 2/9=110/2;
 3/5=35,7=104,11=2,16=1,25=1,30=1,71=1,74=-5/1,2,3;
 4/5=5,16=3,69=1/1;
 5/5=2,38=5/2;
 7//1,2,3,16;
 1/14=-1,18=20,19=15,26=3/3(-5);
 2/9=110/2;
 6/7=2,8=2,9=2,10=2,19=2,28=1/1;
 99/9=1/99;
 Leave Link    1 at Tue Aug 30 10:00:16 2022, MaxMem= 24159191040 cpu:         2.1
 (Enter /public/home/users/caep010/software/Gaussian09/g09/l101.exe)
 --------
 Frag_693
 --------
 Symbolic Z-matrix:
 Charge =  0 Multiplicity = 1
 C                    -0.86008  -0.00968  -0.02234 
 O                     0.36695  -0.74198   0.31232 
 C                     1.47163  -0.11694   0.05481 
 N                     2.49211   0.40864  -0.14353 
 H                    -0.63114   0.99626  -0.10551 
 H                    -1.60537  -0.14424   0.75176 
 H                    -1.23411  -0.39216  -0.93751 
 
 NAtoms=      7 NQM=        7 NQMF=       0 NMMI=      0 NMMIF=      0
                NMic=       0 NMicF=      0.
                    Isotopes and Nuclear Properties:
 (Nuclear quadrupole moments (NQMom) in fm**2, nuclear magnetic moments (NMagM)
  in nuclear magnetons)

  Atom         1           2           3           4           5           6           7
 IAtWgt=          12          16          12          14           1           1           1
 AtmWgt=  12.0000000  15.9949146  12.0000000  14.0030740   1.0078250   1.0078250   1.0078250
 NucSpn=           0           0           0           2           1           1           1
 AtZEff=   0.0000000   0.0000000   0.0000000   0.0000000   0.0000000   0.0000000   0.0000000
 NQMom=    0.0000000   0.0000000   0.0000000   2.0440000   0.0000000   0.0000000   0.0000000
 NMagM=    0.0000000   0.0000000   0.0000000   0.4037610   2.7928460   2.7928460   2.7928460
 AtZNuc=   6.0000000   8.0000000   6.0000000   7.0000000   1.0000000   1.0000000   1.0000000
 Leave Link  101 at Tue Aug 30 10:00:17 2022, MaxMem= 24159191040 cpu:        10.2
 (Enter /public/home/users/caep010/software/Gaussian09/g09/l103.exe)

 GradGradGradGradGradGradGradGradGradGradGradGradGradGradGradGradGradGrad
 Berny optimization.
 Initialization pass.
                           ----------------------------
                           !    Initial Parameters    !
                           ! (Angstroms and Degrees)  !
 --------------------------                            --------------------------
 ! Name  Definition              Value          Derivative Info.                !
 --------------------------------------------------------------------------------
 ! R1    R(1,2)                  1.4676         estimate D2E/DX2                !
 ! R2    R(1,5)                  1.035          estimate D2E/DX2                !
 ! R3    R(1,6)                  1.083          estimate D2E/DX2                !
 ! R4    R(1,7)                  1.0601         estimate D2E/DX2                !
 ! R5    R(2,3)                  1.2951         estimate D2E/DX2                !
 ! R6    R(3,4)                  1.1649         estimate D2E/DX2                !
 ! A1    A(2,1,5)              108.5635         estimate D2E/DX2                !
 ! A2    A(2,1,6)              110.5117         estimate D2E/DX2                !
 ! A3    A(2,1,7)              108.1695         estimate D2E/DX2                !
 ! A4    A(5,1,6)              109.2946         estimate D2E/DX2                !
 ! A5    A(5,1,7)              111.0596         estimate D2E/DX2                !
 ! A6    A(6,1,7)              109.2351         estimate D2E/DX2                !
 ! A7    A(1,2,3)              115.2763         estimate D2E/DX2                !
 ! A8    L(2,3,4,5,-1)         182.5004         estimate D2E/DX2                !
 ! A9    L(2,3,4,5,-2)         178.5915         estimate D2E/DX2                !
 ! D1    D(5,1,2,3)            -19.1771         estimate D2E/DX2                !
 ! D2    D(6,1,2,3)           -139.0313         estimate D2E/DX2                !
 ! D3    D(7,1,2,3)            101.4316         estimate D2E/DX2                !
 --------------------------------------------------------------------------------
 Trust Radius=3.00D-01 FncErr=1.00D-07 GrdErr=1.00D-06
 Number of steps in this run=     28 maximum allowed number of steps=    100.
 GradGradGradGradGradGradGradGradGradGradGradGradGradGradGradGradGradGrad

 Leave Link  103 at Tue Aug 30 10:00:17 2022, MaxMem= 24159191040 cpu:         0.3
 (Enter /public/home/users/caep010/software/Gaussian09/g09/l202.exe)
                          Input orientation:                          
 ---------------------------------------------------------------------
 Center     Atomic      Atomic             Coordinates (Angstroms)
 Number     Number       Type             X           Y           Z
 ---------------------------------------------------------------------
      1          6           0       -0.860075   -0.009682   -0.022335
      2          8           0        0.366952   -0.741981    0.312322
      3          6           0        1.471627   -0.116936    0.054809
      4          7           0        2.492114    0.408639   -0.143534
      5          1           0       -0.631141    0.996260   -0.105510
      6          1           0       -1.605369   -0.144239    0.751760
      7          1           0       -1.234108   -0.392161   -0.937513
 ---------------------------------------------------------------------
                    Distance matrix (angstroms):
                    1          2          3          4          5
     1  C    0.000000
     2  O    1.467601   0.000000
     3  C    2.335442   1.295107   0.000000
     4  N    3.380363   2.459277   1.164887   0.000000
     5  H    1.035011   2.047500   2.384647   3.178280   0.000000
     6  H    1.082955   2.107238   3.155058   4.230436   1.727649
     7  H    1.060067   2.061032   2.895074   3.893124   1.727284
                    6          7
     6  H    0.000000
     7  H    1.747267   0.000000
 Stoichiometry    C2H3NO
 Framework group  C1[X(C2H3NO)]
 Deg. of freedom    15
 Full point group                 C1      NOp   1
 Largest Abelian subgroup         C1      NOp   1
 Largest concise Abelian subgroup C1      NOp   1
                         Standard orientation:                         
 ---------------------------------------------------------------------
 Center     Atomic      Atomic             Coordinates (Angstroms)
 Number     Number       Type             X           Y           Z
 ---------------------------------------------------------------------
      1          6           0        1.513229    0.340169    0.001724
      2          8           0        0.412905   -0.630972   -0.003397
      3          6           0       -0.776644   -0.118917    0.005122
      4          7           0       -1.866781    0.291565   -0.003180
      5          1           0        1.145984    1.255862   -0.311143
      6          1           0        2.302331    0.023088   -0.668775
      7          1           0        1.896406    0.400364    0.988280
 ---------------------------------------------------------------------
 Rotational constants (GHZ):     41.1337414      5.1760349      4.7294517
 Leave Link  202 at Tue Aug 30 10:00:17 2022, MaxMem= 24159191040 cpu:         0.4
 (Enter /public/home/users/caep010/software/Gaussian09/g09/l301.exe)
 Standard basis: GTBas3 (6D, 7F)
 Ernie: Thresh=  0.10000D-02 Tol=  0.10000D-05 Strict=F.
 There are   139 symmetry adapted cartesian basis functions of A   symmetry.
 There are   127 symmetry adapted basis functions of A   symmetry.
   127 basis functions,   197 primitive gaussians,   139 cartesian basis functions
    15 alpha electrons       15 beta electrons
       nuclear repulsion energy       105.2493596215 Hartrees.
 IExCor=  402 DFT=T Ex+Corr=B3LYP ExCW=0 ScaHFX=  0.200000
 ScaDFX=  0.800000  0.720000  1.000000  0.810000 ScalE2=  1.000000  1.000000
 IRadAn=      0 IRanWt=     -1 IRanGd=            0 ICorTp=0 IEmpDi=  4
 NAtoms=    7 NActive=    7 NUniq=    7 SFac= 1.00D+00 NAtFMM=   60 NAOKFM=F Big=F
 Integral buffers will be    131072 words long.
 Raffenetti 2 integral format.
 Two-electron integral symmetry is turned on.
 Leave Link  301 at Tue Aug 30 10:00:17 2022, MaxMem= 24159191040 cpu:         2.0
 (Enter /public/home/users/caep010/software/Gaussian09/g09/l302.exe)
 NPDir=0 NMtPBC=     1 NCelOv=     1 NCel=       1 NClECP=     1 NCelD=      1
         NCelK=      1 NCelE2=     1 NClLst=     1 CellRange=     0.0.
 One-electron integrals computed using PRISM.
 NBasis=   127 RedAO= T EigKep=  2.46D-04  NBF=   127
 NBsUse=   127 1.00D-06 EigRej= -1.00D+00 NBFU=   127
 Precomputing XC quadrature grid using
 IXCGrd= 4 IRadAn=           0 IRanWt=          -1 IRanGd=           0 AccXCQ= 0.00D+00.
 Generated NRdTot=       0 NPtTot=           0 NUsed=           0 NTot=          32
 NSgBfM=   139   139   139   139   139 MxSgAt=     7 MxSgA2=     7.
 Leave Link  302 at Tue Aug 30 10:00:17 2022, MaxMem= 24159191040 cpu:        13.3
 (Enter /public/home/users/caep010/software/Gaussian09/g09/l303.exe)
 DipDrv:  MaxL=1.
 Leave Link  303 at Tue Aug 30 10:00:18 2022, MaxMem= 24159191040 cpu:         0.6
 (Enter /public/home/users/caep010/software/Gaussian09/g09/l401.exe)
 ExpMin= 1.61D-01 ExpMax= 5.48D+03 ExpMxC= 8.25D+02 IAcc=1 IRadAn=         1 AccDes= 0.00D+00
 Harris functional with IExCor=  402 and IRadAn=       1 diagonalized for initial guess.
 HarFok:  IExCor=  402 AccDes= 0.00D+00 IRadAn=         1 IDoV= 1 UseB2=F ITyADJ=14
 ICtDFT=  3500011 ScaDFX=  1.000000  1.000000  1.000000  1.000000
 FoFCou: FMM=F IPFlag=           0 FMFlag=      100000 FMFlg1=           0
         NFxFlg=           0 DoJE=T BraDBF=F KetDBF=T FulRan=T
         wScrn=  0.000000 ICntrl=     500 IOpCl=  0 I1Cent=   200000004 NGrid=           0
         NMat0=    1 NMatS0=      1 NMatT0=    0 NMatD0=    1 NMtDS0=    0 NMtDT0=    0
 Petite list used in FoFCou.
 Harris En= -207.975008348599    
 JPrj=0 DoOrth=F DoCkMO=F.
 Leave Link  401 at Tue Aug 30 10:00:18 2022, MaxMem= 24159191040 cpu:        12.1
 (Enter /public/home/users/caep010/software/Gaussian09/g09/l502.exe)
 Closed shell SCF:
 Using DIIS extrapolation, IDIIS=  1040.
 Integral symmetry usage will be decided dynamically.
 Keep R1 ints in memory in canonical form, NReq=35099363.
 IVT=       81969 IEndB=       81969 NGot= 24159191040 MDV= 24126072816
 LenX= 24126072816 LenY= 24126053054
 Requested convergence on RMS density matrix=1.00D-08 within 128 cycles.
 Requested convergence on MAX density matrix=1.00D-06.
 Requested convergence on             energy=1.00D-06.
 No special actions if energy rises.
 FoFCou: FMM=F IPFlag=           0 FMFlag=           0 FMFlg1=           0
         NFxFlg=           0 DoJE=F BraDBF=F KetDBF=F FulRan=T
         wScrn=  0.000000 ICntrl=     600 IOpCl=  0 I1Cent=           0 NGrid=           0
         NMat0=    1 NMatS0=   8128 NMatT0=    0 NMatD0=    1 NMtDS0=    0 NMtDT0=    0
 Symmetry not used in FoFCou.
 Integral accuracy reduced to 1.0D-05 until final iterations.

 Cycle   1  Pass 0  IDiag  1:
 E= -207.841422267758    
 DIIS: error= 3.29D-02 at cycle   1 NSaved=   1.
 NSaved= 1 IEnMin= 1 EnMin= -207.841422267758     IErMin= 1 ErrMin= 3.29D-02
 ErrMax= 3.29D-02  0.00D+00 EMaxC= 1.00D-01 BMatC= 1.27D-01 BMatP= 1.27D-01
 IDIUse=3 WtCom= 6.71D-01 WtEn= 3.29D-01
 Coeff-Com:  0.100D+01
 Coeff-En:   0.100D+01
 Coeff:      0.100D+01
 Gap=     0.310 Goal=   None    Shift=    0.000
 GapD=    0.310 DampG=1.000 DampE=0.500 DampFc=0.5000 IDamp=-1.
 Damping current iteration by 5.00D-01
 RMSDP=6.31D-03 MaxDP=1.89D-01              OVMax= 3.03D-01

 Cycle   2  Pass 0  IDiag  1:
 E= -207.842094579757     Delta-E=       -0.000672311999 Rises=F Damp=T
 DIIS: error= 2.18D-02 at cycle   2 NSaved=   2.
 NSaved= 2 IEnMin= 2 EnMin= -207.842094579757     IErMin= 2 ErrMin= 2.18D-02
 ErrMax= 2.18D-02  0.00D+00 EMaxC= 1.00D-01 BMatC= 4.54D-02 BMatP= 1.27D-01
 IDIUse=3 WtCom= 7.82D-01 WtEn= 2.18D-01
 Coeff-Com:  0.334D+00 0.666D+00
 Coeff-En:   0.498D+00 0.502D+00
 Coeff:      0.370D+00 0.630D+00
 Gap=     0.412 Goal=   None    Shift=    0.000
 RMSDP=2.00D-03 MaxDP=6.14D-02 DE=-6.72D-04 OVMax= 2.34D-01

 Cycle   3  Pass 0  IDiag  1:
 E= -207.938667602568     Delta-E=       -0.096573022811 Rises=F Damp=F
 DIIS: error= 8.92D-03 at cycle   3 NSaved=   3.
 NSaved= 3 IEnMin= 3 EnMin= -207.938667602568     IErMin= 3 ErrMin= 8.92D-03
 ErrMax= 8.92D-03  0.00D+00 EMaxC= 1.00D-01 BMatC= 1.61D-02 BMatP= 4.54D-02
 IDIUse=3 WtCom= 9.11D-01 WtEn= 8.92D-02
 Coeff-Com:  0.106D+00 0.359D+00 0.535D+00
 Coeff-En:   0.000D+00 0.000D+00 0.100D+01
 Coeff:      0.961D-01 0.327D+00 0.577D+00
 Gap=     0.323 Goal=   None    Shift=    0.000
 RMSDP=1.04D-03 MaxDP=2.92D-02 DE=-9.66D-02 OVMax= 4.77D-02

 Cycle   4  Pass 0  IDiag  1:
 E= -207.951267953830     Delta-E=       -0.012600351262 Rises=F Damp=F
 DIIS: error= 3.40D-03 at cycle   4 NSaved=   4.
 NSaved= 4 IEnMin= 4 EnMin= -207.951267953830     IErMin= 4 ErrMin= 3.40D-03
 ErrMax= 3.40D-03  0.00D+00 EMaxC= 1.00D-01 BMatC= 2.34D-03 BMatP= 1.61D-02
 IDIUse=3 WtCom= 9.66D-01 WtEn= 3.40D-02
 Coeff-Com:  0.288D-01 0.709D-01 0.295D+00 0.605D+00
 Coeff-En:   0.000D+00 0.000D+00 0.112D+00 0.888D+00
 Coeff:      0.278D-01 0.685D-01 0.289D+00 0.615D+00
 Gap=     0.323 Goal=   None    Shift=    0.000
 RMSDP=3.15D-04 MaxDP=1.07D-02 DE=-1.26D-02 OVMax= 1.44D-02

 Cycle   5  Pass 0  IDiag  1:
 E= -207.953037465969     Delta-E=       -0.001769512140 Rises=F Damp=F
 DIIS: error= 9.03D-04 at cycle   5 NSaved=   5.
 NSaved= 5 IEnMin= 5 EnMin= -207.953037465969     IErMin= 5 ErrMin= 9.03D-04
 ErrMax= 9.03D-04  0.00D+00 EMaxC= 1.00D-01 BMatC= 2.01D-04 BMatP= 2.34D-03
 IDIUse=3 WtCom= 9.91D-01 WtEn= 9.03D-03
 Coeff-Com:  0.657D-02 0.200D-02 0.104D+00 0.339D+00 0.549D+00
 Coeff-En:   0.000D+00 0.000D+00 0.000D+00 0.000D+00 0.100D+01
 Coeff:      0.651D-02 0.198D-02 0.103D+00 0.336D+00 0.553D+00
 Gap=     0.322 Goal=   None    Shift=    0.000
 RMSDP=7.59D-05 MaxDP=2.71D-03 DE=-1.77D-03 OVMax= 3.04D-03

 Cycle   6  Pass 0  IDiag  1:
 E= -207.953185059430     Delta-E=       -0.000147593461 Rises=F Damp=F
 DIIS: error= 1.98D-04 at cycle   6 NSaved=   6.
 NSaved= 6 IEnMin= 6 EnMin= -207.953185059430     IErMin= 6 ErrMin= 1.98D-04
 ErrMax= 1.98D-04  0.00D+00 EMaxC= 1.00D-01 BMatC= 8.84D-06 BMatP= 2.01D-04
 IDIUse=3 WtCom= 9.98D-01 WtEn= 1.98D-03
 Coeff-Com:  0.168D-02-0.343D-02 0.356D-01 0.132D+00 0.276D+00 0.557D+00
 Coeff-En:   0.000D+00 0.000D+00 0.000D+00 0.000D+00 0.000D+00 0.100D+01
 Coeff:      0.167D-02-0.342D-02 0.356D-01 0.132D+00 0.276D+00 0.558D+00
 Gap=     0.322 Goal=   None    Shift=    0.000
 RMSDP=1.72D-05 MaxDP=5.35D-04 DE=-1.48D-04 OVMax= 5.98D-04

 Cycle   7  Pass 0  IDiag  1:
 E= -207.953191328985     Delta-E=       -0.000006269554 Rises=F Damp=F
 DIIS: error= 4.61D-05 at cycle   7 NSaved=   7.
 NSaved= 7 IEnMin= 7 EnMin= -207.953191328985     IErMin= 7 ErrMin= 4.61D-05
 ErrMax= 4.61D-05  0.00D+00 EMaxC= 1.00D-01 BMatC= 3.63D-07 BMatP= 8.84D-06
 IDIUse=1 WtCom= 1.00D+00 WtEn= 0.00D+00
 Coeff-Com:  0.461D-03-0.172D-02 0.750D-02 0.287D-01 0.759D-01 0.226D+00
 Coeff-Com:  0.664D+00
 Coeff:      0.461D-03-0.172D-02 0.750D-02 0.287D-01 0.759D-01 0.226D+00
 Coeff:      0.664D+00
 Gap=     0.322 Goal=   None    Shift=    0.000
 RMSDP=4.75D-06 MaxDP=1.20D-04 DE=-6.27D-06 OVMax= 1.64D-04

 Initial convergence to 1.0D-05 achieved.  Increase integral accuracy.
 Cycle   8  Pass 1  IDiag  1:
 E= -207.953188557826     Delta-E=        0.000002771159 Rises=F Damp=F
 DIIS: error= 7.60D-06 at cycle   1 NSaved=   1.
 NSaved= 1 IEnMin= 1 EnMin= -207.953188557826     IErMin= 1 ErrMin= 7.60D-06
 ErrMax= 7.60D-06  0.00D+00 EMaxC= 1.00D-01 BMatC= 1.83D-08 BMatP= 1.83D-08
 IDIUse=1 WtCom= 1.00D+00 WtEn= 0.00D+00
 Coeff-Com:  0.100D+01
 Coeff:      0.100D+01
 Gap=     0.322 Goal=   None    Shift=    0.000
 RMSDP=4.75D-06 MaxDP=1.20D-04 DE= 2.77D-06 OVMax= 7.33D-05

 Cycle   9  Pass 1  IDiag  1:
 E= -207.953188555467     Delta-E=        0.000000002359 Rises=F Damp=F
 DIIS: error= 1.14D-05 at cycle   2 NSaved=   2.
 NSaved= 2 IEnMin= 1 EnMin= -207.953188557826     IErMin= 1 ErrMin= 7.60D-06
 ErrMax= 1.14D-05  0.00D+00 EMaxC= 1.00D-01 BMatC= 2.33D-08 BMatP= 1.83D-08
 IDIUse=1 WtCom= 1.00D+00 WtEn= 0.00D+00
 Coeff-Com:  0.539D+00 0.461D+00
 Coeff:      0.539D+00 0.461D+00
 Gap=     0.322 Goal=   None    Shift=    0.000
 RMSDP=1.21D-06 MaxDP=3.46D-05 DE= 2.36D-09 OVMax= 6.87D-05

 Cycle  10  Pass 1  IDiag  1:
 E= -207.953188567675     Delta-E=       -0.000000012208 Rises=F Damp=F
 DIIS: error= 9.57D-06 at cycle   3 NSaved=   3.
 NSaved= 3 IEnMin= 3 EnMin= -207.953188567675     IErMin= 1 ErrMin= 7.60D-06
 ErrMax= 9.57D-06  0.00D+00 EMaxC= 1.00D-01 BMatC= 8.21D-09 BMatP= 1.83D-08
 IDIUse=1 WtCom= 1.00D+00 WtEn= 0.00D+00
 Coeff-Com:  0.132D+00 0.353D+00 0.514D+00
 Coeff:      0.132D+00 0.353D+00 0.514D+00
 Gap=     0.322 Goal=   None    Shift=    0.000
 RMSDP=6.18D-07 MaxDP=2.24D-05 DE=-1.22D-08 OVMax= 3.53D-05

 Cycle  11  Pass 1  IDiag  1:
 E= -207.953188573992     Delta-E=       -0.000000006317 Rises=F Damp=F
 DIIS: error= 2.57D-06 at cycle   4 NSaved=   4.
 NSaved= 4 IEnMin= 4 EnMin= -207.953188573992     IErMin= 4 ErrMin= 2.57D-06
 ErrMax= 2.57D-06  0.00D+00 EMaxC= 1.00D-01 BMatC= 6.44D-10 BMatP= 8.21D-09
 IDIUse=1 WtCom= 1.00D+00 WtEn= 0.00D+00
 Coeff-Com:  0.627D-02 0.146D+00 0.303D+00 0.545D+00
 Coeff:      0.627D-02 0.146D+00 0.303D+00 0.545D+00
 Gap=     0.322 Goal=   None    Shift=    0.000
 RMSDP=1.88D-07 MaxDP=5.76D-06 DE=-6.32D-09 OVMax= 9.73D-06

 Cycle  12  Pass 1  IDiag  1:
 E= -207.953188574512     Delta-E=       -0.000000000520 Rises=F Damp=F
 DIIS: error= 5.50D-07 at cycle   5 NSaved=   5.
 NSaved= 5 IEnMin= 5 EnMin= -207.953188574512     IErMin= 5 ErrMin= 5.50D-07
 ErrMax= 5.50D-07  0.00D+00 EMaxC= 1.00D-01 BMatC= 5.02D-11 BMatP= 6.44D-10
 IDIUse=1 WtCom= 1.00D+00 WtEn= 0.00D+00
 Coeff-Com: -0.658D-02 0.515D-01 0.119D+00 0.302D+00 0.534D+00
 Coeff:     -0.658D-02 0.515D-01 0.119D+00 0.302D+00 0.534D+00
 Gap=     0.322 Goal=   None    Shift=    0.000
 RMSDP=3.51D-08 MaxDP=1.30D-06 DE=-5.20D-10 OVMax= 1.65D-06

 Cycle  13  Pass 1  IDiag  1:
 E= -207.953188574550     Delta-E=       -0.000000000038 Rises=F Damp=F
 DIIS: error= 9.51D-08 at cycle   6 NSaved=   6.
 NSaved= 6 IEnMin= 6 EnMin= -207.953188574550     IErMin= 6 ErrMin= 9.51D-08
 ErrMax= 9.51D-08  0.00D+00 EMaxC= 1.00D-01 BMatC= 1.79D-12 BMatP= 5.02D-11
 IDIUse=1 WtCom= 1.00D+00 WtEn= 0.00D+00
 Coeff-Com: -0.342D-02 0.176D-01 0.406D-01 0.120D+00 0.252D+00 0.573D+00
 Coeff:     -0.342D-02 0.176D-01 0.406D-01 0.120D+00 0.252D+00 0.573D+00
 Gap=     0.322 Goal=   None    Shift=    0.000
 RMSDP=8.94D-09 MaxDP=2.08D-07 DE=-3.84D-11 OVMax= 3.25D-07

 SCF Done:  E(RB3LYP) =  -207.953188575     A.U. after   13 cycles
            NFock= 13  Conv=0.89D-08     -V/T= 2.0064
 KE= 2.066398208939D+02 PE=-6.964727779278D+02 EE= 1.766304088378D+02
 Leave Link  502 at Tue Aug 30 10:00:20 2022, MaxMem= 24159191040 cpu:        45.0
 (Enter /public/home/users/caep010/software/Gaussian09/g09/l601.exe)
 Copying SCF densities to generalized density rwf, IOpCl= 0 IROHF=0.

 **********************************************************************

            Population analysis using the SCF density.

 **********************************************************************

 Orbital symmetries:
       Occupied  (A) (A) (A) (A) (A) (A) (A) (A) (A) (A) (A) (A)
                 (A) (A) (A)
       Virtual   (A) (A) (A) (A) (A) (A) (A) (A) (A) (A) (A) (A)
                 (A) (A) (A) (A) (A) (A) (A) (A) (A) (A) (A) (A)
                 (A) (A) (A) (A) (A) (A) (A) (A) (A) (A) (A) (A)
                 (A) (A) (A) (A) (A) (A) (A) (A) (A) (A) (A) (A)
                 (A) (A) (A) (A) (A) (A) (A) (A) (A) (A) (A) (A)
                 (A) (A) (A) (A) (A) (A) (A) (A) (A) (A) (A) (A)
                 (A) (A) (A) (A) (A) (A) (A) (A) (A) (A) (A) (A)
                 (A) (A) (A) (A) (A) (A) (A) (A) (A) (A) (A) (A)
                 (A) (A) (A) (A) (A) (A) (A) (A) (A) (A) (A) (A)
                 (A) (A) (A) (A)
 The electronic state is 1-A.
 Alpha  occ. eigenvalues --  -19.23872 -14.32220 -10.27140 -10.26846  -1.12584
 Alpha  occ. eigenvalues --   -0.89396  -0.76711  -0.59781  -0.51518  -0.50866
 Alpha  occ. eigenvalues --   -0.42233  -0.40947  -0.36103  -0.31803  -0.29010
 Alpha virt. eigenvalues --    0.03193   0.05030   0.07992   0.11290   0.13602
 Alpha virt. eigenvalues --    0.14720   0.18533   0.38439   0.39612   0.42870
 Alpha virt. eigenvalues --    0.44201   0.47557   0.53519   0.57451   0.63557
 Alpha virt. eigenvalues --    0.65400   0.68225   0.70427   0.71092   0.71689
 Alpha virt. eigenvalues --    0.72559   0.76638   0.81347   0.84129   0.88522
 Alpha virt. eigenvalues --    0.92427   0.92893   0.96114   0.99245   1.10288
 Alpha virt. eigenvalues --    1.11702   1.16887   1.28586   1.32041   1.36689
 Alpha virt. eigenvalues --    1.41147   1.45345   1.49153   1.53118   1.61642
 Alpha virt. eigenvalues --    1.70943   1.73555   1.78374   1.89432   1.90449
 Alpha virt. eigenvalues --    1.95164   2.01606   2.26398   2.32496   2.37516
 Alpha virt. eigenvalues --    2.48617   2.69598   2.71866   2.73551   2.76246
 Alpha virt. eigenvalues --    2.81416   2.86681   2.90049   2.97910   3.02445
 Alpha virt. eigenvalues --    3.06947   3.11866   3.13452   3.18615   3.37060
 Alpha virt. eigenvalues --    3.39797   3.52071   3.66228   3.67280   3.68055
 Alpha virt. eigenvalues --    3.68451   3.70585   3.75960   3.84560   3.90011
 Alpha virt. eigenvalues --    4.06009   4.08528   4.18402   4.18651   4.22053
 Alpha virt. eigenvalues --    4.23072   4.28189   4.31713   4.32929   4.33537
 Alpha virt. eigenvalues --    4.35931   4.39936   4.40321   4.46451   4.59434
 Alpha virt. eigenvalues --    4.69025   4.73623   4.76069   4.82388   5.03276
 Alpha virt. eigenvalues --    5.29097   5.33226   5.34423   5.40543   5.46076
 Alpha virt. eigenvalues --    5.61319   5.76713   5.81170   5.89312   6.17342
 Alpha virt. eigenvalues --    6.73389   6.95662  10.11818  11.19329  11.38594
 Alpha virt. eigenvalues --   12.95058  15.53909
          Condensed to atoms (all electrons):
               1          2          3          4          5          6
     1  C    4.841453   0.324210  -0.078370  -0.000616   0.381583   0.383800
     2  O    0.324210   7.548892   0.411499   0.014615  -0.024129  -0.017018
     3  C   -0.078370   0.411499   4.328643   0.932250   0.002248   0.002520
     4  N   -0.000616   0.014615   0.932250   6.462503   0.003244   0.000043
     5  H    0.381583  -0.024129   0.002248   0.003244   0.533094  -0.028762
     6  H    0.383800  -0.017018   0.002520   0.000043  -0.028762   0.534068
     7  H    0.388856  -0.023354   0.002237   0.000122  -0.033048  -0.036363
               7
     1  C    0.388856
     2  O   -0.023354
     3  C    0.002237
     4  N    0.000122
     5  H   -0.033048
     6  H   -0.036363
     7  H    0.540210
 Mulliken charges:
               1
     1  C   -0.240916
     2  O   -0.234716
     3  C    0.398973
     4  N   -0.412162
     5  H    0.165771
     6  H    0.161712
     7  H    0.161339
 Sum of Mulliken charges =  -0.00000
 Mulliken charges with hydrogens summed into heavy atoms:
               1
     1  C    0.247906
     2  O   -0.234716
     3  C    0.398973
     4  N   -0.412162
 Electronic spatial extent (au):  <R**2>=            271.2204
 Charge=             -0.0000 electrons
 Dipole moment (field-independent basis, Debye):
    X=              4.5415    Y=              0.3952    Z=              0.0019  Tot=              4.5586
 Quadrupole moment (field-independent basis, Debye-Ang):
   XX=            -25.8302   YY=            -23.0128   ZZ=            -22.2659
   XY=              2.6949   XZ=             -0.0727   YZ=             -0.0484
 Traceless Quadrupole moment (field-independent basis, Debye-Ang):
   XX=             -2.1272   YY=              0.6902   ZZ=              1.4371
   XY=              2.6949   XZ=             -0.0727   YZ=             -0.0484
 Octapole moment (field-independent basis, Debye-Ang**2):
  XXX=             26.8133  YYY=             -1.3077  ZZZ=              0.5009  XYY=              1.8923
  XXY=             -3.0090  XXZ=             -0.4076  XZZ=              2.7764  YZZ=             -0.7112
  YYZ=             -0.2952  XYZ=              0.1688
 Hexadecapole moment (field-independent basis, Debye-Ang**3):
 XXXX=           -293.4178 YYYY=            -44.9844 ZZZZ=            -25.2611 XXXY=              7.4207
 XXXZ=             -1.9055 YYYX=              1.5556 YYYZ=             -0.5838 ZZZX=              0.9506
 ZZZY=              0.2645 XXYY=            -54.3886 XXZZ=            -47.8677 YYZZ=            -12.0851
 XXYZ=              0.6239 YYXZ=             -0.2169 ZZXY=              0.3374
 N-N= 1.052493596215D+02 E-N=-6.964727743103D+02  KE= 2.066398208939D+02
 No NMR shielding tensors so no spin-rotation constants.
 Leave Link  601 at Tue Aug 30 10:00:21 2022, MaxMem= 24159191040 cpu:        12.9
 (Enter /public/home/users/caep010/software/Gaussian09/g09/l701.exe)
 Compute integral first derivatives.
 ... and contract with generalized density number  0.
 Leave Link  701 at Tue Aug 30 10:00:21 2022, MaxMem= 24159191040 cpu:        14.0
 (Enter /public/home/users/caep010/software/Gaussian09/g09/l702.exe)
 L702 exits ... SP integral derivatives will be done elsewhere.
 Leave Link  702 at Tue Aug 30 10:00:21 2022, MaxMem= 24159191040 cpu:         0.5
 (Enter /public/home/users/caep010/software/Gaussian09/g09/l703.exe)
 Compute integral first derivatives, UseDBF=F ICtDFT=           0.
 Integral derivatives from FoFJK, PRISM(SPDF).
 Calling FoFJK, ICntrl=      2127 FMM=F ISym2X=0 I1Cent= 0 IOpClX= 0 NMat=1 NMatS=1 NMatT=0.
 FoFJK:  IHMeth= 1 ICntrl=    2127 DoSepK=F KAlg= 0 I1Cent=   0 FoldK=F
 IRaf=         0 NMat=   1 IRICut=       1 DoRegI=T DoRafI=F ISym2E= 0.
 FoFCou: FMM=F IPFlag=           0 FMFlag=      100000 FMFlg1=         800
         NFxFlg=           0 DoJE=F BraDBF=F KetDBF=F FulRan=T
         wScrn=  0.000000 ICntrl=    2127 IOpCl=  0 I1Cent=           0 NGrid=           0
         NMat0=    1 NMatS0=      1 NMatT0=    0 NMatD0=    1 NMtDS0=    0 NMtDT0=    0
 Symmetry not used in FoFCou.
 Leave Link  703 at Tue Aug 30 10:00:22 2022, MaxMem= 24159191040 cpu:        19.4
 (Enter /public/home/users/caep010/software/Gaussian09/g09/l716.exe)
 Dipole        = 1.78675323D+00 1.55471372D-01 7.46034926D-04
 ***** Axes restored to original set *****
 -------------------------------------------------------------------
 Center     Atomic                   Forces (Hartrees/Bohr)
 Number     Number              X              Y              Z
 -------------------------------------------------------------------
      1        6           0.005112501   -0.027485775    0.013470793
      2        8          -0.001117528    0.004539070    0.001234697
      3        6           0.000868263   -0.000338122    0.001155690
      4        7          -0.008461013   -0.004307531    0.000895599
      5        1           0.008239113    0.042122118   -0.004618149
      6        1           0.002041523   -0.006204816    0.007981117
      7        1          -0.006682859   -0.008324945   -0.020119748
 -------------------------------------------------------------------
 Cartesian Forces:  Max     0.042122118 RMS     0.013035140
 Leave Link  716 at Tue Aug 30 10:00:22 2022, MaxMem= 24159191040 cpu:         0.7
 (Enter /public/home/users/caep010/software/Gaussian09/g09/l103.exe)

 GradGradGradGradGradGradGradGradGradGradGradGradGradGradGradGradGradGrad
 Berny optimization.
 FormGI is forming the generalized inverse of G from B-inverse, IUseBI=4.
 Internal  Forces:  Max     0.043129583 RMS     0.012676500
 Search for a local minimum.
 Step number   1 out of a maximum of   28
 All quantities printed in internal units (Hartrees-Bohrs-Radians)
 RMS Force = .12677D-01 SwitMx=.10000D-02 MixMth= 1
 Mixed Optimization -- RFO/linear search
 Second derivative matrix not updated -- first step.
 The second derivative matrix:
                          R1        R2        R3        R4        R5
           R1           0.36029
           R2           0.00000   0.42027
           R3           0.00000   0.00000   0.35640
           R4           0.00000   0.00000   0.00000   0.38514
           R5           0.00000   0.00000   0.00000   0.00000   0.68571
           R6           0.00000   0.00000   0.00000   0.00000   0.00000
           A1           0.00000   0.00000   0.00000   0.00000   0.00000
           A2           0.00000   0.00000   0.00000   0.00000   0.00000
           A3           0.00000   0.00000   0.00000   0.00000   0.00000
           A4           0.00000   0.00000   0.00000   0.00000   0.00000
           A5           0.00000   0.00000   0.00000   0.00000   0.00000
           A6           0.00000   0.00000   0.00000   0.00000   0.00000
           A7           0.00000   0.00000   0.00000   0.00000   0.00000
           A8           0.00000   0.00000   0.00000   0.00000   0.00000
           A9           0.00000   0.00000   0.00000   0.00000   0.00000
           D1           0.00000   0.00000   0.00000   0.00000   0.00000
           D2           0.00000   0.00000   0.00000   0.00000   0.00000
           D3           0.00000   0.00000   0.00000   0.00000   0.00000
                          R6        A1        A2        A3        A4
           R6           1.24648
           A1           0.00000   0.16000
           A2           0.00000   0.00000   0.16000
           A3           0.00000   0.00000   0.00000   0.16000
           A4           0.00000   0.00000   0.00000   0.00000   0.16000
           A5           0.00000   0.00000   0.00000   0.00000   0.00000
           A6           0.00000   0.00000   0.00000   0.00000   0.00000
           A7           0.00000   0.00000   0.00000   0.00000   0.00000
           A8           0.00000   0.00000   0.00000   0.00000   0.00000
           A9           0.00000   0.00000   0.00000   0.00000   0.00000
           D1           0.00000   0.00000   0.00000   0.00000   0.00000
           D2           0.00000   0.00000   0.00000   0.00000   0.00000
           D3           0.00000   0.00000   0.00000   0.00000   0.00000
                          A5        A6        A7        A8        A9
           A5           0.16000
           A6           0.00000   0.16000
           A7           0.00000   0.00000   0.25000
           A8           0.00000   0.00000   0.00000   0.04802
           A9           0.00000   0.00000   0.00000   0.00000   0.04802
           D1           0.00000   0.00000   0.00000   0.00000   0.00000
           D2           0.00000   0.00000   0.00000   0.00000   0.00000
           D3           0.00000   0.00000   0.00000   0.00000   0.00000
                          D1        D2        D3
           D1           0.00798
           D2           0.00000   0.00798
           D3           0.00000   0.00000   0.00798
 ITU=  0
     Eigenvalues ---    0.00798   0.04802   0.04802   0.10142   0.10304
     Eigenvalues ---    0.16000   0.16000   0.16000   0.25000   0.35640
     Eigenvalues ---    0.36029   0.38514   0.42027   0.68571   1.24648
 RFO step:  Lambda=-7.77089263D-03 EMin= 7.97550039D-03
 Linear search not attempted -- first point.
 Iteration  1 RMS(Cart)=  0.05024880 RMS(Int)=  0.00139912
 Iteration  2 RMS(Cart)=  0.00160674 RMS(Int)=  0.00033912
 Iteration  3 RMS(Cart)=  0.00000166 RMS(Int)=  0.00033911
 Iteration  4 RMS(Cart)=  0.00000000 RMS(Int)=  0.00033911
 ITry= 1 IFail=0 DXMaxC= 1.30D-01 DCOld= 1.00D+10 DXMaxT= 3.00D-01 DXLimC= 3.00D+00 Rises=F
 Variable       Old X    -DE/DX   Delta X   Delta X   Delta X     New X
                                 (Linear)    (Quad)   (Total)
    R1        2.77336  -0.00649   0.00000  -0.01762  -0.01762   2.75574
    R2        1.95589   0.04313   0.00000   0.10076   0.10076   2.05665
    R3        2.04649   0.00507   0.00000   0.01393   0.01393   2.06041
    R4        2.00324   0.02273   0.00000   0.05785   0.05785   2.06109
    R5        2.44740  -0.00912   0.00000  -0.01315  -0.01315   2.43425
    R6        2.20132  -0.00951   0.00000  -0.00758  -0.00758   2.19374
    A1        1.89479   0.00517   0.00000   0.03376   0.03367   1.92846
    A2        1.92879  -0.01423   0.00000  -0.08813  -0.08836   1.84043
    A3        1.88791   0.00009   0.00000   0.00079   0.00028   1.88820
    A4        1.90755   0.00406   0.00000   0.02349   0.02369   1.93124
    A5        1.93836   0.00023   0.00000   0.00824   0.00788   1.94624
    A6        1.90651   0.00441   0.00000   0.02022   0.01947   1.92598
    A7        2.01195   0.00022   0.00000   0.00085   0.00085   2.01280
    A8        3.18523  -0.00042   0.00000  -0.00758  -0.00758   3.17765
    A9        3.11701   0.00130   0.00000   0.02338   0.02338   3.14039
    D1       -0.33470  -0.00158   0.00000  -0.03351  -0.03397  -0.36867
    D2       -2.42655  -0.00122   0.00000  -0.03032  -0.02951  -2.45606
    D3        1.77031   0.00174   0.00000  -0.00355  -0.00391   1.76641
         Item               Value     Threshold  Converged?
 Maximum Force            0.043130     0.000450     NO 
 RMS     Force            0.012677     0.000300     NO 
 Maximum Displacement     0.130385     0.001800     NO 
 RMS     Displacement     0.050816     0.001200     NO 
 Predicted change in Energy=-3.988420D-03
 Lowest energy point so far.  Saving SCF results.
 GradGradGradGradGradGradGradGradGradGradGradGradGradGradGradGradGradGrad

 Leave Link  103 at Tue Aug 30 10:00:22 2022, MaxMem= 24159191040 cpu:         1.3
 (Enter /public/home/users/caep010/software/Gaussian09/g09/l202.exe)
                          Input orientation:                          
 ---------------------------------------------------------------------
 Center     Atomic      Atomic             Coordinates (Angstroms)
 Number     Number       Type             X           Y           Z
 ---------------------------------------------------------------------
      1          6           0       -0.855127    0.000390   -0.031664
      2          8           0        0.354331   -0.729384    0.330560
      3          6           0        1.461498   -0.123851    0.072027
      4          7           0        2.479889    0.386773   -0.151080
      5          1           0       -0.646753    1.065257   -0.115949
      6          1           0       -1.562286   -0.190323    0.776025
      7          1           0       -1.231552   -0.408961   -0.969921
 ---------------------------------------------------------------------
                    Distance matrix (angstroms):
                    1          2          3          4          5
     1  C    0.000000
     2  O    1.458275   0.000000
     3  C    2.322271   1.288148   0.000000
     4  N    3.359447   2.448628   1.160877   0.000000
     5  H    1.088331   2.102920   2.427764   3.199604   0.000000
     6  H    1.090324   2.040208   3.105367   4.187093   1.791731
     7  H    1.090682   2.075801   2.901631   3.883103   1.801270
                    6          7
     6  H    0.000000
     7  H    1.790395   0.000000
 Stoichiometry    C2H3NO
 Framework group  C1[X(C2H3NO)]
 Deg. of freedom    15
 Full point group                 C1      NOp   1
 RotChk:  IX=0 Diff= 4.94D-02
 Largest Abelian subgroup         C1      NOp   1
 Largest concise Abelian subgroup C1      NOp   1
                         Standard orientation:                         
 ---------------------------------------------------------------------
 Center     Atomic      Atomic             Coordinates (Angstroms)
 Number     Number       Type             X           Y           Z
 ---------------------------------------------------------------------
      1          6           0        1.502162    0.344938    0.001235
      2          8           0        0.414240   -0.626140    0.000560
      3          6           0       -0.772181   -0.124419   -0.002050
      4          7           0       -1.856825    0.289304    0.001771
      5          1           0        1.153783    1.307661   -0.367902
      6          1           0        2.261682   -0.069358   -0.662313
      7          1           0        1.888508    0.422580    1.018238
 ---------------------------------------------------------------------
 Rotational constants (GHZ):     40.4998191      5.2345226      4.7776977
 Leave Link  202 at Tue Aug 30 10:00:22 2022, MaxMem= 24159191040 cpu:         0.2
 (Enter /public/home/users/caep010/software/Gaussian09/g09/l301.exe)
 Standard basis: GTBas3 (6D, 7F)
 Ernie: Thresh=  0.10000D-02 Tol=  0.10000D-05 Strict=F.
 There are   139 symmetry adapted cartesian basis functions of A   symmetry.
 There are   127 symmetry adapted basis functions of A   symmetry.
   127 basis functions,   197 primitive gaussians,   139 cartesian basis functions
    15 alpha electrons       15 beta electrons
       nuclear repulsion energy       105.3771287156 Hartrees.
 IExCor=  402 DFT=T Ex+Corr=B3LYP ExCW=0 ScaHFX=  0.200000
 ScaDFX=  0.800000  0.720000  1.000000  0.810000 ScalE2=  1.000000  1.000000
 IRadAn=      0 IRanWt=     -1 IRanGd=            0 ICorTp=0 IEmpDi=  4
 NAtoms=    7 NActive=    7 NUniq=    7 SFac= 1.00D+00 NAtFMM=   60 NAOKFM=F Big=F
 Integral buffers will be    131072 words long.
 Raffenetti 2 integral format.
 Two-electron integral symmetry is turned on.
 Leave Link  301 at Tue Aug 30 10:00:22 2022, MaxMem= 24159191040 cpu:         1.6
 (Enter /public/home/users/caep010/software/Gaussian09/g09/l302.exe)
 NPDir=0 NMtPBC=     1 NCelOv=     1 NCel=       1 NClECP=     1 NCelD=      1
         NCelK=      1 NCelE2=     1 NClLst=     1 CellRange=     0.0.
 One-electron integrals computed using PRISM.
 NBasis=   127 RedAO= T EigKep=  2.44D-04  NBF=   127
 NBsUse=   127 1.00D-06 EigRej= -1.00D+00 NBFU=   127
 Precomputing XC quadrature grid using
 IXCGrd= 4 IRadAn=           0 IRanWt=          -1 IRanGd=           0 AccXCQ= 0.00D+00.
 Generated NRdTot=       0 NPtTot=           0 NUsed=           0 NTot=          32
 NSgBfM=   139   139   139   139   139 MxSgAt=     7 MxSgA2=     7.
 Leave Link  302 at Tue Aug 30 10:00:23 2022, MaxMem= 24159191040 cpu:        13.4
 (Enter /public/home/users/caep010/software/Gaussian09/g09/l303.exe)
 DipDrv:  MaxL=1.
 Leave Link  303 at Tue Aug 30 10:00:23 2022, MaxMem= 24159191040 cpu:         0.6
 (Enter /public/home/users/caep010/software/Gaussian09/g09/l401.exe)
 Initial guess from the checkpoint file:  "G4.Frag_693.chk"
 B after Tr=     0.000000    0.000000   -0.000000
         Rot=    0.999965    0.008358   -0.000300   -0.000081 Ang=   0.96 deg.
 Guess basis will be translated and rotated to current coordinates.
 JPrj=2 DoOrth=T DoCkMO=T.
 Generating alternative initial guess.
 ExpMin= 1.61D-01 ExpMax= 5.48D+03 ExpMxC= 8.25D+02 IAcc=1 IRadAn=         1 AccDes= 0.00D+00
 Harris functional with IExCor=  402 and IRadAn=       1 diagonalized for initial guess.
 HarFok:  IExCor=  402 AccDes= 0.00D+00 IRadAn=         1 IDoV= 1 UseB2=F ITyADJ=14
 ICtDFT=  3500011 ScaDFX=  1.000000  1.000000  1.000000  1.000000
 FoFCou: FMM=F IPFlag=           0 FMFlag=      100000 FMFlg1=           0
         NFxFlg=           0 DoJE=T BraDBF=F KetDBF=T FulRan=T
         wScrn=  0.000000 ICntrl=     500 IOpCl=  0 I1Cent=   200000004 NGrid=           0
         NMat0=    1 NMatS0=      1 NMatT0=    0 NMatD0=    1 NMtDS0=    0 NMtDT0=    0
 Petite list used in FoFCou.
 Harris En= -207.973407727141    
 Leave Link  401 at Tue Aug 30 10:00:23 2022, MaxMem= 24159191040 cpu:        13.7
 (Enter /public/home/users/caep010/software/Gaussian09/g09/l502.exe)
 Closed shell SCF:
 Using DIIS extrapolation, IDIIS=  1040.
 Integral symmetry usage will be decided dynamically.
 Keep R1 ints in memory in canonical form, NReq=35099435.
 IVT=       81969 IEndB=       81969 NGot= 24159191040 MDV= 24126072816
 LenX= 24126072816 LenY= 24126053054
 Requested convergence on RMS density matrix=1.00D-08 within 128 cycles.
 Requested convergence on MAX density matrix=1.00D-06.
 Requested convergence on             energy=1.00D-06.
 No special actions if energy rises.
 FoFCou: FMM=F IPFlag=           0 FMFlag=           0 FMFlg1=           0
         NFxFlg=           0 DoJE=F BraDBF=F KetDBF=F FulRan=T
         wScrn=  0.000000 ICntrl=     600 IOpCl=  0 I1Cent=           0 NGrid=           0
         NMat0=    1 NMatS0=   8128 NMatT0=    0 NMatD0=    1 NMtDS0=    0 NMtDT0=    0
 Symmetry not used in FoFCou.
 Integral accuracy reduced to 1.0D-05 until final iterations.

 Cycle   1  Pass 0  IDiag  1:
 E= -207.955624803250    
 DIIS: error= 1.89D-03 at cycle   1 NSaved=   1.
 NSaved= 1 IEnMin= 1 EnMin= -207.955624803250     IErMin= 1 ErrMin= 1.89D-03
 ErrMax= 1.89D-03  0.00D+00 EMaxC= 1.00D-01 BMatC= 1.09D-03 BMatP= 1.09D-03
 IDIUse=3 WtCom= 9.81D-01 WtEn= 1.89D-02
 Coeff-Com:  0.100D+01
 Coeff-En:   0.100D+01
 Coeff:      0.100D+01
 Gap=     0.817 Goal=   None    Shift=    0.000
 GapD=    0.817 DampG=2.000 DampE=1.000 DampFc=2.0000 IDamp=-1.
 RMSDP=3.46D-04 MaxDP=7.38D-03              OVMax= 1.44D-02

 Cycle   2  Pass 0  IDiag  1:
 E= -207.956739189811     Delta-E=       -0.001114386561 Rises=F Damp=F
 DIIS: error= 1.00D-03 at cycle   2 NSaved=   2.
 NSaved= 2 IEnMin= 2 EnMin= -207.956739189811     IErMin= 2 ErrMin= 1.00D-03
 ErrMax= 1.00D-03  0.00D+00 EMaxC= 1.00D-01 BMatC= 1.72D-04 BMatP= 1.09D-03
 IDIUse=3 WtCom= 9.90D-01 WtEn= 1.00D-02
 Coeff-Com:  0.192D+00 0.808D+00
 Coeff-En:   0.000D+00 0.100D+01
 Coeff:      0.190D+00 0.810D+00
 Gap=     0.324 Goal=   None    Shift=    0.000
 RMSDP=1.50D-04 MaxDP=4.64D-03 DE=-1.11D-03 OVMax= 5.07D-03

 Cycle   3  Pass 0  IDiag  1:
 E= -207.956793464852     Delta-E=       -0.000054275041 Rises=F Damp=F
 DIIS: error= 8.07D-04 at cycle   3 NSaved=   3.
 NSaved= 3 IEnMin= 3 EnMin= -207.956793464852     IErMin= 3 ErrMin= 8.07D-04
 ErrMax= 8.07D-04  0.00D+00 EMaxC= 1.00D-01 BMatC= 1.30D-04 BMatP= 1.72D-04
 IDIUse=3 WtCom= 9.92D-01 WtEn= 8.07D-03
 Coeff-Com:  0.989D-02 0.462D+00 0.528D+00
 Coeff-En:   0.000D+00 0.407D+00 0.593D+00
 Coeff:      0.981D-02 0.462D+00 0.529D+00
 Gap=     0.326 Goal=   None    Shift=    0.000
 RMSDP=7.68D-05 MaxDP=2.05D-03 DE=-5.43D-05 OVMax= 3.40D-03

 Cycle   4  Pass 0  IDiag  1:
 E= -207.956897811224     Delta-E=       -0.000104346373 Rises=F Damp=F
 DIIS: error= 3.86D-04 at cycle   4 NSaved=   4.
 NSaved= 4 IEnMin= 4 EnMin= -207.956897811224     IErMin= 4 ErrMin= 3.86D-04
 ErrMax= 3.86D-04  0.00D+00 EMaxC= 1.00D-01 BMatC= 1.27D-05 BMatP= 1.30D-04
 IDIUse=3 WtCom= 9.96D-01 WtEn= 3.86D-03
 Coeff-Com: -0.531D-02 0.232D+00 0.313D+00 0.460D+00
 Coeff-En:   0.000D+00 0.000D+00 0.000D+00 0.100D+01
 Coeff:     -0.529D-02 0.231D+00 0.312D+00 0.462D+00
 Gap=     0.326 Goal=   None    Shift=    0.000
 RMSDP=2.74D-05 MaxDP=9.71D-04 DE=-1.04D-04 OVMax= 1.64D-03

 Cycle   5  Pass 0  IDiag  1:
 E= -207.956905732301     Delta-E=       -0.000007921076 Rises=F Damp=F
 DIIS: error= 1.84D-04 at cycle   5 NSaved=   5.
 NSaved= 5 IEnMin= 5 EnMin= -207.956905732301     IErMin= 5 ErrMin= 1.84D-04
 ErrMax= 1.84D-04  0.00D+00 EMaxC= 1.00D-01 BMatC= 3.45D-06 BMatP= 1.27D-05
 IDIUse=3 WtCom= 9.98D-01 WtEn= 1.84D-03
 Coeff-Com: -0.542D-02 0.772D-01 0.122D+00 0.343D+00 0.464D+00
 Coeff-En:   0.000D+00 0.000D+00 0.000D+00 0.254D+00 0.746D+00
 Coeff:     -0.541D-02 0.770D-01 0.121D+00 0.342D+00 0.465D+00
 Gap=     0.326 Goal=   None    Shift=    0.000
 RMSDP=1.10D-05 MaxDP=3.48D-04 DE=-7.92D-06 OVMax= 6.25D-04

 Cycle   6  Pass 0  IDiag  1:
 E= -207.956908473919     Delta-E=       -0.000002741618 Rises=F Damp=F
 DIIS: error= 2.46D-05 at cycle   6 NSaved=   6.
 NSaved= 6 IEnMin= 6 EnMin= -207.956908473919     IErMin= 6 ErrMin= 2.46D-05
 ErrMax= 2.46D-05  0.00D+00 EMaxC= 1.00D-01 BMatC= 1.75D-07 BMatP= 3.45D-06
 IDIUse=1 WtCom= 1.00D+00 WtEn= 0.00D+00
 Coeff-Com: -0.277D-02 0.223D-01 0.402D-01 0.159D+00 0.266D+00 0.516D+00
 Coeff:     -0.277D-02 0.223D-01 0.402D-01 0.159D+00 0.266D+00 0.516D+00
 Gap=     0.326 Goal=   None    Shift=    0.000
 RMSDP=2.62D-06 MaxDP=9.82D-05 DE=-2.74D-06 OVMax= 1.05D-04

 Initial convergence to 1.0D-05 achieved.  Increase integral accuracy.
 Cycle   7  Pass 1  IDiag  1:
 E= -207.956912799770     Delta-E=       -0.000004325851 Rises=F Damp=F
 DIIS: error= 8.27D-06 at cycle   1 NSaved=   1.
 NSaved= 1 IEnMin= 1 EnMin= -207.956912799770     IErMin= 1 ErrMin= 8.27D-06
 ErrMax= 8.27D-06  0.00D+00 EMaxC= 1.00D-01 BMatC= 1.76D-08 BMatP= 1.76D-08
 IDIUse=1 WtCom= 1.00D+00 WtEn= 0.00D+00
 Coeff-Com:  0.100D+01
 Coeff:      0.100D+01
 Gap=     0.326 Goal=   None    Shift=    0.000
 RMSDP=2.62D-06 MaxDP=9.82D-05 DE=-4.33D-06 OVMax= 6.92D-05

 Cycle   8  Pass 1  IDiag  1:
 E= -207.956912797021     Delta-E=        0.000000002749 Rises=F Damp=F
 DIIS: error= 9.90D-06 at cycle   2 NSaved=   2.
 NSaved= 2 IEnMin= 1 EnMin= -207.956912799770     IErMin= 1 ErrMin= 8.27D-06
 ErrMax= 9.90D-06  0.00D+00 EMaxC= 1.00D-01 BMatC= 2.28D-08 BMatP= 1.76D-08
 IDIUse=1 WtCom= 1.00D+00 WtEn= 0.00D+00
 Coeff-Com:  0.540D+00 0.460D+00
 Coeff:      0.540D+00 0.460D+00
 Gap=     0.326 Goal=   None    Shift=    0.000
 RMSDP=1.19D-06 MaxDP=3.73D-05 DE= 2.75D-09 OVMax= 6.28D-05

 Cycle   9  Pass 1  IDiag  1:
 E= -207.956912811244     Delta-E=       -0.000000014223 Rises=F Damp=F
 DIIS: error= 6.49D-06 at cycle   3 NSaved=   3.
 NSaved= 3 IEnMin= 3 EnMin= -207.956912811244     IErMin= 3 ErrMin= 6.49D-06
 ErrMax= 6.49D-06  0.00D+00 EMaxC= 1.00D-01 BMatC= 5.24D-09 BMatP= 1.76D-08
 IDIUse=1 WtCom= 1.00D+00 WtEn= 0.00D+00
 Coeff-Com:  0.130D+00 0.312D+00 0.558D+00
 Coeff:      0.130D+00 0.312D+00 0.558D+00
 Gap=     0.326 Goal=   None    Shift=    0.000
 RMSDP=5.27D-07 MaxDP=1.82D-05 DE=-1.42D-08 OVMax= 3.06D-05

 Cycle  10  Pass 1  IDiag  1:
 E= -207.956912814376     Delta-E=       -0.000000003132 Rises=F Damp=F
 DIIS: error= 3.84D-06 at cycle   4 NSaved=   4.
 NSaved= 4 IEnMin= 4 EnMin= -207.956912814376     IErMin= 4 ErrMin= 3.84D-06
 ErrMax= 3.84D-06  0.00D+00 EMaxC= 1.00D-01 BMatC= 1.39D-09 BMatP= 5.24D-09
 IDIUse=1 WtCom= 1.00D+00 WtEn= 0.00D+00
 Coeff-Com: -0.913D-03 0.148D+00 0.401D+00 0.451D+00
 Coeff:     -0.913D-03 0.148D+00 0.401D+00 0.451D+00
 Gap=     0.326 Goal=   None    Shift=    0.000
 RMSDP=2.04D-07 MaxDP=7.08D-06 DE=-3.13D-09 OVMax= 1.15D-05

 Cycle  11  Pass 1  IDiag  1:
 E= -207.956912815491     Delta-E=       -0.000000001115 Rises=F Damp=F
 DIIS: error= 4.54D-07 at cycle   5 NSaved=   5.
 NSaved= 5 IEnMin= 5 EnMin= -207.956912815491     IErMin= 5 ErrMin= 4.54D-07
 ErrMax= 4.54D-07  0.00D+00 EMaxC= 1.00D-01 BMatC= 3.06D-11 BMatP= 1.39D-09
 IDIUse=1 WtCom= 1.00D+00 WtEn= 0.00D+00
 Coeff-Com: -0.673D-02 0.598D-01 0.170D+00 0.231D+00 0.546D+00
 Coeff:     -0.673D-02 0.598D-01 0.170D+00 0.231D+00 0.546D+00
 Gap=     0.326 Goal=   None    Shift=    0.000
 RMSDP=3.54D-08 MaxDP=8.01D-07 DE=-1.11D-09 OVMax= 1.61D-06

 Cycle  12  Pass 1  IDiag  1:
 E= -207.956912815518     Delta-E=       -0.000000000027 Rises=F Damp=F
 DIIS: error= 8.96D-08 at cycle   6 NSaved=   6.
 NSaved= 6 IEnMin= 6 EnMin= -207.956912815518     IErMin= 6 ErrMin= 8.96D-08
 ErrMax= 8.96D-08  0.00D+00 EMaxC= 1.00D-01 BMatC= 1.35D-12 BMatP= 3.06D-11
 IDIUse=1 WtCom= 1.00D+00 WtEn= 0.00D+00
 Coeff-Com: -0.315D-02 0.197D-01 0.563D-01 0.834D-01 0.255D+00 0.589D+00
 Coeff:     -0.315D-02 0.197D-01 0.563D-01 0.834D-01 0.255D+00 0.589D+00
 Gap=     0.326 Goal=   None    Shift=    0.000
 RMSDP=8.54D-09 MaxDP=2.78D-07 DE=-2.68D-11 OVMax= 2.79D-07

 SCF Done:  E(RB3LYP) =  -207.956912816     A.U. after   12 cycles
            NFock= 12  Conv=0.85D-08     -V/T= 2.0067
 KE= 2.065735616170D+02 PE=-6.966947382523D+02 EE= 1.767871351042D+02
 Leave Link  502 at Tue Aug 30 10:00:25 2022, MaxMem= 24159191040 cpu:        42.2
 (Enter /public/home/users/caep010/software/Gaussian09/g09/l701.exe)
 Compute integral first derivatives.
 ... and contract with generalized density number  0.
 Leave Link  701 at Tue Aug 30 10:00:26 2022, MaxMem= 24159191040 cpu:        14.4
 (Enter /public/home/users/caep010/software/Gaussian09/g09/l702.exe)
 L702 exits ... SP integral derivatives will be done elsewhere.
 Leave Link  702 at Tue Aug 30 10:00:26 2022, MaxMem= 24159191040 cpu:         0.5
 (Enter /public/home/users/caep010/software/Gaussian09/g09/l703.exe)
 Compute integral first derivatives, UseDBF=F ICtDFT=           0.
 Integral derivatives from FoFJK, PRISM(SPDF).
 Calling FoFJK, ICntrl=      2127 FMM=F ISym2X=0 I1Cent= 0 IOpClX= 0 NMat=1 NMatS=1 NMatT=0.
 FoFJK:  IHMeth= 1 ICntrl=    2127 DoSepK=F KAlg= 0 I1Cent=   0 FoldK=F
 IRaf=         0 NMat=   1 IRICut=       1 DoRegI=T DoRafI=F ISym2E= 0.
 FoFCou: FMM=F IPFlag=           0 FMFlag=      100000 FMFlg1=         800
         NFxFlg=           0 DoJE=F BraDBF=F KetDBF=F FulRan=T
         wScrn=  0.000000 ICntrl=    2127 IOpCl=  0 I1Cent=           0 NGrid=           0
         NMat0=    1 NMatS0=      1 NMatT0=    0 NMatD0=    1 NMtDS0=    0 NMtDT0=    0
 Symmetry not used in FoFCou.
 Leave Link  703 at Tue Aug 30 10:00:27 2022, MaxMem= 24159191040 cpu:        18.9
 (Enter /public/home/users/caep010/software/Gaussian09/g09/l716.exe)
 Dipole        = 1.77306037D+00 1.37293041D-01-8.11808302D-03
 ***** Axes restored to original set *****
 -------------------------------------------------------------------
 Center     Atomic                   Forces (Hartrees/Bohr)
 Number     Number              X              Y              Z
 -------------------------------------------------------------------
      1        6          -0.000710151   -0.004839439    0.003300085
      2        8           0.000963016    0.003724025    0.000074997
      3        6           0.000546539   -0.001875889   -0.001442379
      4        7          -0.000225772    0.000049626    0.000624379
      5        1           0.000359790    0.001128737   -0.000584056
      6        1          -0.000897653    0.000586081   -0.000804624
      7        1          -0.000035768    0.001226858   -0.001168401
 -------------------------------------------------------------------
 Cartesian Forces:  Max     0.004839439 RMS     0.001723379
 Leave Link  716 at Tue Aug 30 10:00:27 2022, MaxMem= 24159191040 cpu:         0.6
 (Enter /public/home/users/caep010/software/Gaussian09/g09/l103.exe)

 GradGradGradGradGradGradGradGradGradGradGradGradGradGradGradGradGradGrad
 Berny optimization.
 Using GEDIIS/GDIIS optimizer.
 FormGI is forming the generalized inverse of G from B-inverse, IUseBI=4.
 Internal  Forces:  Max     0.003278932 RMS     0.001224855
 Search for a local minimum.
 Step number   2 out of a maximum of   28
 All quantities printed in internal units (Hartrees-Bohrs-Radians)
 RMS Force = .12249D-02 SwitMx=.10000D-02 MixMth= 1
 Mixed Optimization -- RFO/linear search
 Update second derivatives using D2CorX and points    1    2
 DE= -3.72D-03 DEPred=-3.99D-03 R= 9.34D-01
 TightC=F SS=  1.41D+00  RLast= 1.64D-01 DXNew= 5.0454D-01 4.9134D-01
 Trust test= 9.34D-01 RLast= 1.64D-01 DXMaxT set to 4.91D-01
 The second derivative matrix:
                          R1        R2        R3        R4        R5
           R1           0.36018
           R2           0.00143   0.40608
           R3          -0.00006  -0.00020   0.35655
           R4           0.00066  -0.00683  -0.00003   0.38188
           R5          -0.00049   0.00420   0.00019   0.00208   0.68457
           R6          -0.00043   0.00391   0.00014   0.00192  -0.00109
           A1          -0.00042   0.00211   0.00046   0.00120  -0.00028
           A2           0.00169  -0.00943  -0.00169  -0.00521   0.00154
           A3           0.00059  -0.00384  -0.00047  -0.00203   0.00080
           A4          -0.00038   0.00206   0.00039   0.00115  -0.00031
           A5          -0.00031   0.00189   0.00028   0.00102  -0.00036
           A6          -0.00121   0.00752   0.00104   0.00403  -0.00147
           A7           0.00267  -0.01746  -0.00215  -0.00923   0.00363
           A8          -0.00000   0.00004  -0.00001   0.00002  -0.00002
           A9          -0.00102   0.00654   0.00085   0.00348  -0.00132
           D1           0.00114  -0.00739  -0.00092  -0.00392   0.00153
           D2           0.00041  -0.00263  -0.00033  -0.00139   0.00054
           D3          -0.00289   0.01887   0.00233   0.00998  -0.00392
                          R6        A1        A2        A3        A4
           R6           1.24544
           A1          -0.00036   0.16084
           A2           0.00181  -0.00276   0.16878
           A3           0.00085  -0.00055   0.00151   0.16006
           A4          -0.00038   0.00067  -0.00217  -0.00040   0.16053
           A5          -0.00039   0.00040  -0.00120  -0.00015   0.00030
           A6          -0.00159   0.00140  -0.00410  -0.00042   0.00105
           A7           0.00384  -0.00251   0.00686   0.00026  -0.00181
           A8          -0.00002  -0.00003   0.00011   0.00003  -0.00003
           A9          -0.00142   0.00106  -0.00300  -0.00021   0.00078
           D1           0.00162  -0.00110   0.00303   0.00015  -0.00079
           D2           0.00057  -0.00040   0.00113   0.00006  -0.00029
           D3          -0.00415   0.00273  -0.00749  -0.00030   0.00197
                          A5        A6        A7        A8        A9
           A5           0.16015
           A6           0.00048   0.16151
           A7          -0.00069  -0.00191   0.25118
           A8          -0.00002  -0.00007   0.00016   0.04802
           A9           0.00033   0.00097  -0.00097  -0.00006   0.04859
           D1          -0.00031  -0.00089   0.00066   0.00007  -0.00047
           D2          -0.00012  -0.00034   0.00029   0.00002  -0.00019
           D3           0.00076   0.00211  -0.00136  -0.00017   0.00108
                          D1        D2        D3
           D1           0.00832
           D2           0.00015   0.00804
           D3          -0.00075  -0.00033   0.00954
 ITU=  1  0
 Use linear search instead of GDIIS.
     Eigenvalues ---    0.00790   0.04801   0.04834   0.10266   0.10701
     Eigenvalues ---    0.15959   0.16000   0.17118   0.24872   0.35663
     Eigenvalues ---    0.36029   0.38226   0.41040   0.68469   1.24550
 RFO step:  Lambda=-3.34229135D-04 EMin= 7.89799291D-03
 Quartic linear search produced a step of -0.01537.
 Iteration  1 RMS(Cart)=  0.03788605 RMS(Int)=  0.00090342
 Iteration  2 RMS(Cart)=  0.00126507 RMS(Int)=  0.00002066
 Iteration  3 RMS(Cart)=  0.00000122 RMS(Int)=  0.00002064
 Iteration  4 RMS(Cart)=  0.00000000 RMS(Int)=  0.00002064
 ITry= 1 IFail=0 DXMaxC= 6.98D-02 DCOld= 1.00D+10 DXMaxT= 4.91D-01 DXLimC= 3.00D+00 Rises=F
 Variable       Old X    -DE/DX   Delta X   Delta X   Delta X     New X
                                 (Linear)    (Quad)   (Total)
    R1        2.75574  -0.00007   0.00027  -0.00114  -0.00087   2.75487
    R2        2.05665   0.00121  -0.00155   0.00829   0.00674   2.06339
    R3        2.06041  -0.00012  -0.00021   0.00043   0.00022   2.06063
    R4        2.06109   0.00056  -0.00089   0.00455   0.00366   2.06475
    R5        2.43425  -0.00042   0.00020  -0.00131  -0.00111   2.43314
    R6        2.19374  -0.00029   0.00012  -0.00065  -0.00053   2.19321
    A1        1.92846  -0.00090  -0.00052  -0.00518  -0.00572   1.92275
    A2        1.84043   0.00242   0.00136   0.01230   0.01363   1.85406
    A3        1.88820   0.00076  -0.00000   0.00382   0.00378   1.89198
    A4        1.93124  -0.00032  -0.00036   0.00078   0.00040   1.93164
    A5        1.94624  -0.00146  -0.00012  -0.01266  -0.01281   1.93343
    A6        1.92598  -0.00028  -0.00030   0.00238   0.00203   1.92801
    A7        2.01280   0.00328  -0.00001   0.01294   0.01293   2.02573
    A8        3.17765  -0.00005   0.00012  -0.00134  -0.00123   3.17642
    A9        3.14039  -0.00111  -0.00036  -0.02139  -0.02175   3.11864
    D1       -0.36867   0.00009   0.00052  -0.07858  -0.07807  -0.44674
    D2       -2.45606  -0.00047   0.00045  -0.08398  -0.08349  -2.53955
    D3        1.76641  -0.00178   0.00006  -0.09500  -0.09497   1.67144
         Item               Value     Threshold  Converged?
 Maximum Force            0.003279     0.000450     NO 
 RMS     Force            0.001225     0.000300     NO 
 Maximum Displacement     0.069845     0.001800     NO 
 RMS     Displacement     0.037836     0.001200     NO 
 Predicted change in Energy=-1.735584D-04
 Lowest energy point so far.  Saving SCF results.
 GradGradGradGradGradGradGradGradGradGradGradGradGradGradGradGradGradGrad

 Leave Link  103 at Tue Aug 30 10:00:27 2022, MaxMem= 24159191040 cpu:         1.2
 (Enter /public/home/users/caep010/software/Gaussian09/g09/l202.exe)
                          Input orientation:                          
 ---------------------------------------------------------------------
 Center     Atomic      Atomic             Coordinates (Angstroms)
 Number     Number       Type             X           Y           Z
 ---------------------------------------------------------------------
      1          6           0       -0.858594   -0.000796   -0.021643
      2          8           0        0.357706   -0.703920    0.367521
      3          6           0        1.467284   -0.125933    0.063243
      4          7           0        2.489058    0.367418   -0.180819
      5          1           0       -0.665991    1.071370   -0.096497
      6          1           0       -1.592387   -0.206610    0.758259
      7          1           0       -1.197077   -0.401630   -0.980065
 ---------------------------------------------------------------------
                    Distance matrix (angstroms):
                    1          2          3          4          5
     1  C    0.000000
     2  O    1.457813   0.000000
     3  C    2.330788   1.287562   0.000000
     4  N    3.371601   2.447673   1.160597   0.000000
     5  H    1.091897   2.101172   2.451513   3.233728   0.000000
     6  H    1.090439   2.050087   3.138652   4.227241   1.795006
     7  H    1.092617   2.079595   2.874598   3.849392   1.797908
                    6          7
     6  H    0.000000
     7  H    1.793341   0.000000
 Stoichiometry    C2H3NO
 Framework group  C1[X(C2H3NO)]
 Deg. of freedom    15
 Full point group                 C1      NOp   1
 RotChk:  IX=0 Diff= 7.75D-02
 Largest Abelian subgroup         C1      NOp   1
 Largest concise Abelian subgroup C1      NOp   1
                         Standard orientation:                         
 ---------------------------------------------------------------------
 Center     Atomic      Atomic             Coordinates (Angstroms)
 Number     Number       Type             X           Y           Z
 ---------------------------------------------------------------------
      1          6           0        1.509748    0.338107   -0.000043
      2          8           0        0.411627   -0.620719   -0.001656
      3          6           0       -0.775246   -0.121618    0.005222
      4          7           0       -1.861467    0.287107   -0.002043
      5          1           0        1.183795    1.284446   -0.436433
      6          1           0        2.304821   -0.108096   -0.598224
      7          1           0        1.841623    0.480720    1.031137
 ---------------------------------------------------------------------
 Rotational constants (GHZ):     41.1239621      5.2007314      4.7580978
 Leave Link  202 at Tue Aug 30 10:00:27 2022, MaxMem= 24159191040 cpu:         0.3
 (Enter /public/home/users/caep010/software/Gaussian09/g09/l301.exe)
 Standard basis: GTBas3 (6D, 7F)
 Ernie: Thresh=  0.10000D-02 Tol=  0.10000D-05 Strict=F.
 There are   139 symmetry adapted cartesian basis functions of A   symmetry.
 There are   127 symmetry adapted basis functions of A   symmetry.
   127 basis functions,   197 primitive gaussians,   139 cartesian basis functions
    15 alpha electrons       15 beta electrons
       nuclear repulsion energy       105.2941404198 Hartrees.
 IExCor=  402 DFT=T Ex+Corr=B3LYP ExCW=0 ScaHFX=  0.200000
 ScaDFX=  0.800000  0.720000  1.000000  0.810000 ScalE2=  1.000000  1.000000
 IRadAn=      0 IRanWt=     -1 IRanGd=            0 ICorTp=0 IEmpDi=  4
 NAtoms=    7 NActive=    7 NUniq=    7 SFac= 1.00D+00 NAtFMM=   60 NAOKFM=F Big=F
 Integral buffers will be    131072 words long.
 Raffenetti 2 integral format.
 Two-electron integral symmetry is turned on.
 Leave Link  301 at Tue Aug 30 10:00:27 2022, MaxMem= 24159191040 cpu:         1.8
 (Enter /public/home/users/caep010/software/Gaussian09/g09/l302.exe)
 NPDir=0 NMtPBC=     1 NCelOv=     1 NCel=       1 NClECP=     1 NCelD=      1
         NCelK=      1 NCelE2=     1 NClLst=     1 CellRange=     0.0.
 One-electron integrals computed using PRISM.
 NBasis=   127 RedAO= T EigKep=  2.44D-04  NBF=   127
 NBsUse=   127 1.00D-06 EigRej= -1.00D+00 NBFU=   127
 Precomputing XC quadrature grid using
 IXCGrd= 4 IRadAn=           0 IRanWt=          -1 IRanGd=           0 AccXCQ= 0.00D+00.
 Generated NRdTot=       0 NPtTot=           0 NUsed=           0 NTot=          32
 NSgBfM=   139   139   139   139   139 MxSgAt=     7 MxSgA2=     7.
 Leave Link  302 at Tue Aug 30 10:00:27 2022, MaxMem= 24159191040 cpu:        13.5
 (Enter /public/home/users/caep010/software/Gaussian09/g09/l303.exe)
 DipDrv:  MaxL=1.
 Leave Link  303 at Tue Aug 30 10:00:27 2022, MaxMem= 24159191040 cpu:         0.6
 (Enter /public/home/users/caep010/software/Gaussian09/g09/l401.exe)
 Initial guess from the checkpoint file:  "G4.Frag_693.chk"
 B after Tr=     0.000000   -0.000000    0.000000
         Rot=    0.999930    0.011693    0.001604    0.000598 Ang=   1.35 deg.
 Guess basis will be translated and rotated to current coordinates.
 JPrj=2 DoOrth=T DoCkMO=T.
 Generating alternative initial guess.
 ExpMin= 1.61D-01 ExpMax= 5.48D+03 ExpMxC= 8.25D+02 IAcc=1 IRadAn=         1 AccDes= 0.00D+00
 Harris functional with IExCor=  402 and IRadAn=       1 diagonalized for initial guess.
 HarFok:  IExCor=  402 AccDes= 0.00D+00 IRadAn=         1 IDoV= 1 UseB2=F ITyADJ=14
 ICtDFT=  3500011 ScaDFX=  1.000000  1.000000  1.000000  1.000000
 FoFCou: FMM=F IPFlag=           0 FMFlag=      100000 FMFlg1=           0
         NFxFlg=           0 DoJE=T BraDBF=F KetDBF=T FulRan=T
         wScrn=  0.000000 ICntrl=     500 IOpCl=  0 I1Cent=   200000004 NGrid=           0
         NMat0=    1 NMatS0=      1 NMatT0=    0 NMatD0=    1 NMtDS0=    0 NMtDT0=    0
 Petite list used in FoFCou.
 Harris En= -207.973459253374    
 Leave Link  401 at Tue Aug 30 10:00:28 2022, MaxMem= 24159191040 cpu:        14.7
 (Enter /public/home/users/caep010/software/Gaussian09/g09/l502.exe)
 Closed shell SCF:
 Using DIIS extrapolation, IDIIS=  1040.
 Integral symmetry usage will be decided dynamically.
 Keep R1 ints in memory in canonical form, NReq=35099391.
 IVT=       81969 IEndB=       81969 NGot= 24159191040 MDV= 24126072816
 LenX= 24126072816 LenY= 24126053054
 Requested convergence on RMS density matrix=1.00D-08 within 128 cycles.
 Requested convergence on MAX density matrix=1.00D-06.
 Requested convergence on             energy=1.00D-06.
 No special actions if energy rises.
 FoFCou: FMM=F IPFlag=           0 FMFlag=           0 FMFlg1=           0
         NFxFlg=           0 DoJE=F BraDBF=F KetDBF=F FulRan=T
         wScrn=  0.000000 ICntrl=     600 IOpCl=  0 I1Cent=           0 NGrid=           0
         NMat0=    1 NMatS0=   8128 NMatT0=    0 NMatD0=    1 NMtDS0=    0 NMtDT0=    0
 Symmetry not used in FoFCou.
 Integral accuracy reduced to 1.0D-05 until final iterations.

 Cycle   1  Pass 0  IDiag  1:
 E= -207.956070594968    
 DIIS: error= 1.71D-03 at cycle   1 NSaved=   1.
 NSaved= 1 IEnMin= 1 EnMin= -207.956070594968     IErMin= 1 ErrMin= 1.71D-03
 ErrMax= 1.71D-03  0.00D+00 EMaxC= 1.00D-01 BMatC= 6.96D-04 BMatP= 6.96D-04
 IDIUse=3 WtCom= 9.83D-01 WtEn= 1.71D-02
 Coeff-Com:  0.100D+01
 Coeff-En:   0.100D+01
 Coeff:      0.100D+01
 Gap=     0.818 Goal=   None    Shift=    0.000
 GapD=    0.818 DampG=2.000 DampE=1.000 DampFc=2.0000 IDamp=-1.
 RMSDP=2.68D-04 MaxDP=6.18D-03              OVMax= 1.17D-02

 Cycle   2  Pass 0  IDiag  1:
 E= -207.957141526434     Delta-E=       -0.001070931466 Rises=F Damp=F
 DIIS: error= 1.75D-04 at cycle   2 NSaved=   2.
 NSaved= 2 IEnMin= 2 EnMin= -207.957141526434     IErMin= 2 ErrMin= 1.75D-04
 ErrMax= 1.75D-04  0.00D+00 EMaxC= 1.00D-01 BMatC= 8.51D-06 BMatP= 6.96D-04
 IDIUse=3 WtCom= 9.98D-01 WtEn= 1.75D-03
 Coeff-Com: -0.688D-01 0.107D+01
 Coeff-En:   0.000D+00 0.100D+01
 Coeff:     -0.687D-01 0.107D+01
 Gap=     0.326 Goal=   None    Shift=    0.000
 RMSDP=3.61D-05 MaxDP=7.75D-04 DE=-1.07D-03 OVMax= 1.58D-03

 Cycle   3  Pass 0  IDiag  1:
 E= -207.957152205610     Delta-E=       -0.000010679176 Rises=F Damp=F
 DIIS: error= 1.32D-04 at cycle   3 NSaved=   3.
 NSaved= 3 IEnMin= 3 EnMin= -207.957152205610     IErMin= 3 ErrMin= 1.32D-04
 ErrMax= 1.32D-04  0.00D+00 EMaxC= 1.00D-01 BMatC= 2.94D-06 BMatP= 8.51D-06
 IDIUse=3 WtCom= 9.99D-01 WtEn= 1.32D-03
 Coeff-Com: -0.329D-01 0.436D+00 0.597D+00
 Coeff-En:   0.000D+00 0.000D+00 0.100D+01
 Coeff:     -0.328D-01 0.436D+00 0.597D+00
 Gap=     0.326 Goal=   None    Shift=    0.000
 RMSDP=1.36D-05 MaxDP=4.62D-04 DE=-1.07D-05 OVMax= 4.66D-04

 Cycle   4  Pass 0  IDiag  1:
 E= -207.957154606091     Delta-E=       -0.000002400481 Rises=F Damp=F
 DIIS: error= 4.26D-05 at cycle   4 NSaved=   4.
 NSaved= 4 IEnMin= 4 EnMin= -207.957154606091     IErMin= 4 ErrMin= 4.26D-05
 ErrMax= 4.26D-05  0.00D+00 EMaxC= 1.00D-01 BMatC= 3.24D-07 BMatP= 2.94D-06
 IDIUse=1 WtCom= 1.00D+00 WtEn= 0.00D+00
 Coeff-Com: -0.678D-02 0.787D-01 0.268D+00 0.660D+00
 Coeff:     -0.678D-02 0.787D-01 0.268D+00 0.660D+00
 Gap=     0.326 Goal=   None    Shift=    0.000
 RMSDP=4.45D-06 MaxDP=1.12D-04 DE=-2.40D-06 OVMax= 1.91D-04

 Initial convergence to 1.0D-05 achieved.  Increase integral accuracy.
 Cycle   5  Pass 1  IDiag  1:
 E= -207.957161816289     Delta-E=       -0.000007210198 Rises=F Damp=F
 DIIS: error= 2.97D-05 at cycle   1 NSaved=   1.
 NSaved= 1 IEnMin= 1 EnMin= -207.957161816289     IErMin= 1 ErrMin= 2.97D-05
 ErrMax= 2.97D-05  0.00D+00 EMaxC= 1.00D-01 BMatC= 7.73D-08 BMatP= 7.73D-08
 IDIUse=1 WtCom= 1.00D+00 WtEn= 0.00D+00
 Coeff-Com:  0.100D+01
 Coeff:      0.100D+01
 Gap=     0.326 Goal=   None    Shift=    0.000
 RMSDP=4.45D-06 MaxDP=1.12D-04 DE=-7.21D-06 OVMax= 2.98D-04

 Cycle   6  Pass 1  IDiag  1:
 E= -207.957161526069     Delta-E=        0.000000290220 Rises=F Damp=F
 DIIS: error= 7.15D-05 at cycle   2 NSaved=   2.
 NSaved= 2 IEnMin= 1 EnMin= -207.957161816289     IErMin= 1 ErrMin= 2.97D-05
 ErrMax= 7.15D-05  0.00D+00 EMaxC= 1.00D-01 BMatC= 4.16D-07 BMatP= 7.73D-08
 IDIUse=1 WtCom= 1.00D+00 WtEn= 0.00D+00
 Coeff-Com:  0.706D+00 0.294D+00
 Coeff:      0.706D+00 0.294D+00
 Gap=     0.326 Goal=   None    Shift=    0.000
 RMSDP=3.66D-06 MaxDP=1.31D-04 DE= 2.90D-07 OVMax= 2.22D-04

 Cycle   7  Pass 1  IDiag  1:
 E= -207.957161878045     Delta-E=       -0.000000351976 Rises=F Damp=F
 DIIS: error= 3.93D-06 at cycle   3 NSaved=   3.
 NSaved= 3 IEnMin= 3 EnMin= -207.957161878045     IErMin= 3 ErrMin= 3.93D-06
 ErrMax= 3.93D-06  0.00D+00 EMaxC= 1.00D-01 BMatC= 3.83D-09 BMatP= 7.73D-08
 IDIUse=1 WtCom= 1.00D+00 WtEn= 0.00D+00
 Coeff-Com:  0.251D+00 0.132D+00 0.618D+00
 Coeff:      0.251D+00 0.132D+00 0.618D+00
 Gap=     0.326 Goal=   None    Shift=    0.000
 RMSDP=4.84D-07 MaxDP=1.88D-05 DE=-3.52D-07 OVMax= 2.23D-05

 Cycle   8  Pass 1  IDiag  1:
 E= -207.957161880076     Delta-E=       -0.000000002031 Rises=F Damp=F
 DIIS: error= 2.27D-06 at cycle   4 NSaved=   4.
 NSaved= 4 IEnMin= 4 EnMin= -207.957161880076     IErMin= 4 ErrMin= 2.27D-06
 ErrMax= 2.27D-06  0.00D+00 EMaxC= 1.00D-01 BMatC= 1.33D-09 BMatP= 3.83D-09
 IDIUse=1 WtCom= 1.00D+00 WtEn= 0.00D+00
 Coeff-Com:  0.135D-01 0.225D-01 0.395D+00 0.569D+00
 Coeff:      0.135D-01 0.225D-01 0.395D+00 0.569D+00
 Gap=     0.326 Goal=   None    Shift=    0.000
 RMSDP=1.82D-07 MaxDP=7.80D-06 DE=-2.03D-09 OVMax= 6.12D-06

 Cycle   9  Pass 1  IDiag  1:
 E= -207.957161880992     Delta-E=       -0.000000000916 Rises=F Damp=F
 DIIS: error= 2.93D-07 at cycle   5 NSaved=   5.
 NSaved= 5 IEnMin= 5 EnMin= -207.957161880992     IErMin= 5 ErrMin= 2.93D-07
 ErrMax= 2.93D-07  0.00D+00 EMaxC= 1.00D-01 BMatC= 1.35D-11 BMatP= 1.33D-09
 IDIUse=1 WtCom= 1.00D+00 WtEn= 0.00D+00
 Coeff-Com: -0.594D-02 0.227D-02 0.120D+00 0.203D+00 0.681D+00
 Coeff:     -0.594D-02 0.227D-02 0.120D+00 0.203D+00 0.681D+00
 Gap=     0.326 Goal=   None    Shift=    0.000
 RMSDP=2.20D-08 MaxDP=3.95D-07 DE=-9.16D-10 OVMax= 8.50D-07

 Cycle  10  Pass 1  IDiag  1:
 E= -207.957161881000     Delta-E=       -0.000000000008 Rises=F Damp=F
 DIIS: error= 3.13D-08 at cycle   6 NSaved=   6.
 NSaved= 6 IEnMin= 6 EnMin= -207.957161881000     IErMin= 6 ErrMin= 3.13D-08
 ErrMax= 3.13D-08  0.00D+00 EMaxC= 1.00D-01 BMatC= 1.25D-13 BMatP= 1.35D-11
 IDIUse=1 WtCom= 1.00D+00 WtEn= 0.00D+00
 Coeff-Com: -0.151D-02 0.151D-03 0.206D-01 0.354D-01 0.163D+00 0.782D+00
 Coeff:     -0.151D-02 0.151D-03 0.206D-01 0.354D-01 0.163D+00 0.782D+00
 Gap=     0.326 Goal=   None    Shift=    0.000
 RMSDP=3.38D-09 MaxDP=7.41D-08 DE=-8.30D-12 OVMax= 1.04D-07

 SCF Done:  E(RB3LYP) =  -207.957161881     A.U. after   10 cycles
            NFock= 10  Conv=0.34D-08     -V/T= 2.0067
 KE= 2.065634006198D+02 PE=-6.965196247854D+02 EE= 1.767049218648D+02
 Leave Link  502 at Tue Aug 30 10:00:29 2022, MaxMem= 24159191040 cpu:        32.4
 (Enter /public/home/users/caep010/software/Gaussian09/g09/l701.exe)
 Compute integral first derivatives.
 ... and contract with generalized density number  0.
 Leave Link  701 at Tue Aug 30 10:00:30 2022, MaxMem= 24159191040 cpu:        18.8
 (Enter /public/home/users/caep010/software/Gaussian09/g09/l702.exe)
 L702 exits ... SP integral derivatives will be done elsewhere.
 Leave Link  702 at Tue Aug 30 10:00:30 2022, MaxMem= 24159191040 cpu:         0.6
 (Enter /public/home/users/caep010/software/Gaussian09/g09/l703.exe)
 Compute integral first derivatives, UseDBF=F ICtDFT=           0.
 Integral derivatives from FoFJK, PRISM(SPDF).
 Calling FoFJK, ICntrl=      2127 FMM=F ISym2X=0 I1Cent= 0 IOpClX= 0 NMat=1 NMatS=1 NMatT=0.
 FoFJK:  IHMeth= 1 ICntrl=    2127 DoSepK=F KAlg= 0 I1Cent=   0 FoldK=F
 IRaf=         0 NMat=   1 IRICut=       1 DoRegI=T DoRafI=F ISym2E= 0.
 FoFCou: FMM=F IPFlag=           0 FMFlag=      100000 FMFlg1=         800
         NFxFlg=           0 DoJE=F BraDBF=F KetDBF=F FulRan=T
         wScrn=  0.000000 ICntrl=    2127 IOpCl=  0 I1Cent=           0 NGrid=           0
         NMat0=    1 NMatS0=      1 NMatT0=    0 NMatD0=    1 NMtDS0=    0 NMtDT0=    0
 Symmetry not used in FoFCou.
 Leave Link  703 at Tue Aug 30 10:00:31 2022, MaxMem= 24159191040 cpu:        19.4
 (Enter /public/home/users/caep010/software/Gaussian09/g09/l716.exe)
 Dipole        = 1.77951040D+00 1.35423297D-01-2.67096866D-03
 ***** Axes restored to original set *****
 -------------------------------------------------------------------
 Center     Atomic                   Forces (Hartrees/Bohr)
 Number     Number              X              Y              Z
 -------------------------------------------------------------------
      1        6           0.001182249   -0.000950137   -0.000504773
      2        8          -0.001022054    0.001571487    0.000932164
      3        6          -0.000947458   -0.000428638   -0.000030047
      4        7           0.000363810   -0.000084117   -0.000405635
      5        1          -0.000311026   -0.000668687    0.000257880
      6        1           0.000680729   -0.000348191   -0.000357789
      7        1           0.000053751    0.000908283    0.000108200
 -------------------------------------------------------------------
 Cartesian Forces:  Max     0.001571487 RMS     0.000706677
 Leave Link  716 at Tue Aug 30 10:00:31 2022, MaxMem= 24159191040 cpu:         0.5
 (Enter /public/home/users/caep010/software/Gaussian09/g09/l103.exe)

 GradGradGradGradGradGradGradGradGradGradGradGradGradGradGradGradGradGrad
 Berny optimization.
 Using GEDIIS/GDIIS optimizer.
 FormGI is forming the generalized inverse of G from B-inverse, IUseBI=4.
 Internal  Forces:  Max     0.001723107 RMS     0.000697245
 Search for a local minimum.
 Step number   3 out of a maximum of   28
 All quantities printed in internal units (Hartrees-Bohrs-Radians)
 RMS Force = .69724D-03 SwitMx=.10000D-02 MixMth= 2
 Mixed Optimization -- En-DIIS/RFO-DIIS
 Update second derivatives using D2CorX and points    1    2    3
 DE= -2.49D-04 DEPred=-1.74D-04 R= 1.44D+00
 TightC=F SS=  1.41D+00  RLast= 1.52D-01 DXNew= 8.2633D-01 4.5684D-01
 Trust test= 1.44D+00 RLast= 1.52D-01 DXMaxT set to 4.91D-01
 The second derivative matrix:
                          R1        R2        R3        R4        R5
           R1           0.37309
           R2           0.02743   0.44181
           R3           0.00551   0.01078   0.35899
           R4           0.01413   0.01220   0.00568   0.39200
           R5          -0.00069   0.00801   0.00019   0.00393   0.68352
           R6          -0.00823  -0.00767  -0.00316  -0.00421  -0.00201
           A1          -0.00855  -0.00542  -0.00273  -0.00292  -0.00226
           A2           0.02849   0.02250   0.00910   0.01187   0.00638
           A3          -0.00080  -0.01117  -0.00124  -0.00572   0.00190
           A4          -0.00307  -0.00289  -0.00073  -0.00142  -0.00037
           A5          -0.01037  -0.00133  -0.00349  -0.00108  -0.00429
           A6          -0.00379   0.00062  -0.00011   0.00050  -0.00101
           A7           0.03306   0.01586   0.01007   0.00875   0.00988
           A8          -0.00337  -0.00602  -0.00145  -0.00315  -0.00015
           A9          -0.01679  -0.01541  -0.00565  -0.00815  -0.00345
           D1           0.00897   0.01238   0.00260   0.00623   0.00045
           D2           0.00045   0.00256  -0.00014   0.00116  -0.00069
           D3          -0.01178   0.00769  -0.00127   0.00402  -0.00539
                          R6        A1        A2        A3        A4
           R6           1.24913
           A1           0.00237   0.16209
           A2          -0.00894  -0.00995   0.20014
           A3           0.00280   0.00230  -0.00632   0.15920
           A4           0.00113   0.00224  -0.00743  -0.00005   0.16110
           A5           0.00149  -0.00091  -0.00294   0.00483   0.00213
           A6           0.00038   0.00386  -0.01156  -0.00057   0.00162
           A7          -0.00763  -0.00896   0.03819  -0.00949  -0.00767
           A8           0.00184   0.00172  -0.00595   0.00059   0.00066
           A9           0.00569   0.00650  -0.02449   0.00378   0.00389
           D1          -0.00409  -0.00775   0.02360   0.00017  -0.00248
           D2          -0.00071  -0.00271   0.00693   0.00122  -0.00038
           D3          -0.00044   0.00533  -0.01842   0.00219   0.00371
                          A5        A6        A7        A8        A9
           A5           0.15293
           A6           0.00413   0.16187
           A7           0.00058  -0.01068   0.28143
           A8           0.00188   0.00067  -0.00659   0.04887
           A9           0.00379   0.00508  -0.02349   0.00364   0.06269
           D1          -0.00981  -0.00208   0.02475  -0.00214  -0.01205
           D2          -0.00465   0.00013   0.00784  -0.00020  -0.00288
           D3           0.00177   0.00453  -0.01248   0.00186   0.00847
                          D1        D2        D3
           D1           0.01232
           D2          -0.00083   0.00670
           D3          -0.00748  -0.00213   0.01334
 ITU=  1  1  0
 Use linear search instead of GDIIS.
     Eigenvalues ---    0.00231   0.04795   0.05517   0.10476   0.11042
     Eigenvalues ---    0.15584   0.16003   0.18999   0.28432   0.35700
     Eigenvalues ---    0.37157   0.39371   0.47361   0.68445   1.24957
 RFO step:  Lambda=-4.63725000D-04 EMin= 2.30985302D-03
 Quartic linear search produced a step of  0.84841.
[...]
 IDIUse=1 WtCom= 1.00D+00 WtEn= 0.00D+00
 Coeff-Com: -0.356D-04 0.143D-02-0.255D-01-0.290D-01 0.263D+00 0.791D+00
 Coeff:     -0.356D-04 0.143D-02-0.255D-01-0.290D-01 0.263D+00 0.791D+00
 Gap=     0.467 Goal=   None    Shift=    0.000
 RMSDP=3.70D-08 MaxDP=2.74D-06 DE=-4.37D-10 OVMax= 3.18D-06

 Cycle   7  Pass 1  IDiag  1:
 E= -206.845951507823     Delta-E=       -0.000000000080 Rises=F Damp=F
 DIIS: error= 3.52D-07 at cycle   7 NSaved=   7.
 NSaved= 7 IEnMin= 7 EnMin= -206.845951507823     IErMin= 7 ErrMin= 3.52D-07
 ErrMax= 3.52D-07  0.00D+00 EMaxC= 1.00D-01 BMatC= 6.77D-12 BMatP= 8.34D-11
 IDIUse=1 WtCom= 1.00D+00 WtEn= 0.00D+00
 Coeff-Com: -0.289D-04 0.982D-03-0.829D-02-0.238D-01-0.288D-01 0.142D+00
 Coeff-Com:  0.918D+00
 Coeff:     -0.289D-04 0.982D-03-0.829D-02-0.238D-01-0.288D-01 0.142D+00
 Coeff:      0.918D+00
 Gap=     0.467 Goal=   None    Shift=    0.000
 RMSDP=9.07D-09 MaxDP=5.02D-07 DE=-8.04D-11 OVMax= 1.68D-06

 SCF Done:  E(RHF) =  -206.845951508     A.U. after    7 cycles
            NFock=  7  Conv=0.91D-08     -V/T= 2.0016
 KE= 2.065151532961D+02 PE=-6.962160046026D+02 EE= 1.774085468626D+02
 Leave Link  502 at Tue Aug 30 10:03:50 2022, MaxMem= 24159191040 cpu:       833.0
 (Enter /public/home/users/caep010/software/Gaussian09/g09/l601.exe)
 Copying SCF densities to generalized density rwf, IOpCl= 0 IROHF=0.

 **********************************************************************

            Population analysis using the SCF density.

 **********************************************************************

 Orbital symmetries:
       Occupied  (A) (A) (A) (A) (A) (A) (A) (A) (A) (A) (A) (A)
                 (A) (A) (A)
       Virtual   (A) (A) (A) (A) (A) (A) (A) (A) (A) (A) (A) (A)
                 (A) (A) (A) (A) (A) (A) (A) (A) (A) (A) (A) (A)
                 (A) (A) (A) (A) (A) (A) (A) (A) (A) (A) (A) (A)
                 (A) (A) (A) (A) (A) (A) (A) (A) (A) (A) (A) (A)
                 (A) (A) (A) (A) (A) (A) (A) (A) (A) (A) (A) (A)
                 (A) (A) (A) (A) (A) (A) (A) (A) (A) (A) (A) (A)
                 (A) (A) (A) (A) (A) (A) (A) (A) (A) (A) (A) (A)
                 (A) (A) (A) (A) (A) (A) (A) (A) (A) (A) (A) (A)
                 (A) (A) (A) (A) (A) (A) (A) (A) (A) (A) (A) (A)
                 (A) (A) (A) (A) (A) (A) (A) (A) (A) (A) (A) (A)
                 (A) (A) (A) (A) (A) (A) (A) (A) (A) (A) (A) (A)
                 (A) (A) (A) (A) (A) (A) (A) (A) (A) (A) (A) (A)
                 (A) (A) (A) (A) (A) (A) (A) (A) (A) (A) (A) (A)
                 (A) (A) (A) (A) (A) (A) (A) (A) (A) (A) (A) (A)
                 (A) (A) (A) (A) (A) (A) (A) (A) (A) (A) (A) (A)
                 (A) (A) (A) (A) (A) (A) (A) (A) (A) (A) (A) (A)
                 (A) (A) (A) (A) (A) (A) (A) (A) (A) (A) (A) (A)
                 (A) (A) (A) (A) (A) (A) (A) (A) (A) (A) (A) (A)
                 (A) (A) (A) (A) (A) (A) (A) (A) (A) (A) (A) (A)
                 (A) (A) (A) (A) (A) (A) (A) (A) (A) (A) (A) (A)
                 (A) (A) (A) (A) (A) (A) (A) (A) (A) (A) (A) (A)
                 (A) (A) (A) (A) (A) (A) (A) (A) (A) (A) (A) (A)
                 (A) (A) (A) (A) (A) (A) (A) (A) (A) (A) (A) (A)
                 (A) (A) (A) (A) (A) (A) (A) (A) (A) (A) (A) (A)
                 (A) (A) (A) (A) (A) (A) (A) (A) (A) (A) (A) (A)
                 (A) (A) (A) (A) (A) (A) (A) (A) (A) (A) (A) (A)
                 (A) (A) (A) (A) (A) (A) (A) (A) (A) (A) (A) (A)
                 (A) (A) (A) (A) (A) (A) (A) (A) (A) (A) (A) (A)
                 (A) (A) (A) (A) (A) (A) (A) (A) (A) (A) (A) (A)
                 (A) (A) (A) (A) (A) (A) (A) (A) (A) (A) (A) (A)
                 (A) (A) (A) (A) (A) (A) (A) (A) (A) (A) (A) (A)
                 (A) (A) (A) (A) (A) (A) (A) (A) (A) (A) (A) (A)
                 (A) (A) (A) (A) (A) (A) (A) (A) (A) (A) (A) (A)
                 (A) (A) (A) (A) (A) (A) (A) (A) (A) (A) (A) (A)
                 (A) (A) (A) (A) (A) (A) (A) (A) (A) (A) (A) (A)
                 (A) (A) (A) (A) (A) (A) (A) (A) (A) (A) (A) (A)
                 (A) (A) (A) (A) (A)
 The electronic state is 1-A.
 Alpha  occ. eigenvalues --  -20.66013 -15.56637 -11.33448 -11.33153  -1.48750
 Alpha  occ. eigenvalues --   -1.21311  -1.01200  -0.80039  -0.71166  -0.69837
 Alpha  occ. eigenvalues --   -0.59207  -0.57537  -0.56026  -0.45877  -0.43988
 Alpha virt. eigenvalues --    0.02708   0.04722   0.04796   0.05469   0.07268
 Alpha virt. eigenvalues --    0.07670   0.07884   0.12166   0.13557   0.13639
 Alpha virt. eigenvalues --    0.13977   0.15479   0.16256   0.17648   0.19214
 Alpha virt. eigenvalues --    0.19601   0.20270   0.21674   0.22529   0.24200
 Alpha virt. eigenvalues --    0.24801   0.26428   0.27724   0.28264   0.34767
 Alpha virt. eigenvalues --    0.35342   0.38111   0.41020   0.41779   0.42835
 Alpha virt. eigenvalues --    0.45480   0.46595   0.47940   0.49028   0.49195
 Alpha virt. eigenvalues --    0.50656   0.52354   0.54371   0.56211   0.56947
 Alpha virt. eigenvalues --    0.59399   0.63153   0.64709   0.66102   0.66833
 Alpha virt. eigenvalues --    0.70411   0.75064   0.75696   0.80479   0.82509
 Alpha virt. eigenvalues --    0.89205   0.90210   0.92109   0.93475   0.94864
 Alpha virt. eigenvalues --    0.95246   0.95836   0.99951   1.02627   1.03891
 Alpha virt. eigenvalues --    1.04719   1.06788   1.09020   1.09566   1.14290
 Alpha virt. eigenvalues --    1.15343   1.16521   1.18944   1.21919   1.22881
 Alpha virt. eigenvalues --    1.23676   1.30247   1.30948   1.31577   1.34500
 Alpha virt. eigenvalues --    1.35394   1.41947   1.42912   1.42946   1.45684
 Alpha virt. eigenvalues --    1.49122   1.50952   1.55999   1.56578   1.58492
 Alpha virt. eigenvalues --    1.61713   1.63766   1.63865   1.66964   1.69398
 Alpha virt. eigenvalues --    1.70418   1.70738   1.78061   1.79449   1.81765
 Alpha virt. eigenvalues --    1.82302   1.88626   1.89436   1.96175   2.00130
 Alpha virt. eigenvalues --    2.00218   2.04083   2.09682   2.10813   2.12671
 Alpha virt. eigenvalues --    2.14742   2.18029   2.19264   2.20863   2.26293
 Alpha virt. eigenvalues --    2.28684   2.36263   2.38949   2.39100   2.44922
 Alpha virt. eigenvalues --    2.49595   2.50943   2.52594   2.57006   2.60275
 Alpha virt. eigenvalues --    2.60730   2.64423   2.65187   2.71071   2.72141
 Alpha virt. eigenvalues --    2.78546   2.79277   2.82174   2.83120   2.83345
 Alpha virt. eigenvalues --    2.84881   2.87638   2.88085   2.93476   2.96538
 Alpha virt. eigenvalues --    2.97084   3.03022   3.03274   3.05092   3.09586
 Alpha virt. eigenvalues --    3.12170   3.14366   3.15826   3.18091   3.20449
 Alpha virt. eigenvalues --    3.24976   3.26500   3.30139   3.34055   3.34317
 Alpha virt. eigenvalues --    3.37536   3.44046   3.46515   3.47988   3.50321
 Alpha virt. eigenvalues --    3.54029   3.55821   3.57772   3.59790   3.62017
 Alpha virt. eigenvalues --    3.69193   3.73227   3.73291   3.78943   3.85923
 Alpha virt. eigenvalues --    3.86501   3.88500   3.89169   3.93669   3.95016
 Alpha virt. eigenvalues --    3.99505   3.99768   4.02704   4.06613   4.12619
 Alpha virt. eigenvalues --    4.14377   4.16137   4.17880   4.24656   4.29816
 Alpha virt. eigenvalues --    4.30248   4.32200   4.34541   4.37717   4.40219
 Alpha virt. eigenvalues --    4.45795   4.46317   4.51041   4.58977   4.66314
 Alpha virt. eigenvalues --    4.66950   4.73760   4.74632   4.75144   4.82397
 Alpha virt. eigenvalues --    4.83499   4.85630   4.96105   4.96364   5.00168
 Alpha virt. eigenvalues --    5.03346   5.07916   5.09176   5.11485   5.17911
 Alpha virt. eigenvalues --    5.29617   5.36775   5.44219   5.45187   5.48525
 Alpha virt. eigenvalues --    5.50888   5.52551   5.52844   5.57175   5.59420
 Alpha virt. eigenvalues --    5.66386   5.66957   5.74461   5.81697   5.83244
 Alpha virt. eigenvalues --    5.91664   5.93579   5.98979   6.03919   6.05254
 Alpha virt. eigenvalues --    6.10522   6.37393   6.41858   6.46649   6.52024
 Alpha virt. eigenvalues --    6.55939   6.62052   6.67797   6.78052   6.82887
 Alpha virt. eigenvalues --    6.93205   6.96146   7.02595   7.10781   7.17204
 Alpha virt. eigenvalues --    7.22129   7.30457   7.38226   7.41243   7.41809
 Alpha virt. eigenvalues --    7.50428   7.57897   7.64871   7.66199   7.70426
 Alpha virt. eigenvalues --    7.71284   7.74005   7.76609   7.81269   7.82025
 Alpha virt. eigenvalues --    7.82632   7.84371   7.89947   7.91612   7.94730
 Alpha virt. eigenvalues --    8.03016   8.05684   8.10983   8.20330   8.23213
 Alpha virt. eigenvalues --    8.25046   8.28035   8.31596   8.35320   8.42250
 Alpha virt. eigenvalues --    8.46894   8.51184   8.51619   8.63683   8.70293
 Alpha virt. eigenvalues --    8.75825   8.79456   8.80398   8.85826   8.88020
 Alpha virt. eigenvalues --    8.89138   8.90004   8.94975   9.03280   9.16712
 Alpha virt. eigenvalues --    9.18553   9.28729   9.30447   9.35831   9.37020
 Alpha virt. eigenvalues --    9.39989   9.42436   9.53825   9.60760   9.61121
 Alpha virt. eigenvalues --    9.63720   9.72437   9.74126   9.76755   9.78565
 Alpha virt. eigenvalues --    9.81099   9.87369   9.92441   9.93036   9.95012
 Alpha virt. eigenvalues --    9.95760   9.96223  10.01138  10.01909  10.14649
 Alpha virt. eigenvalues --   10.17261  10.25218  10.31768  10.33093  10.41888
 Alpha virt. eigenvalues --   10.47445  10.54367  10.61421  10.69075  10.70156
 Alpha virt. eigenvalues --   10.81063  10.81680  10.87036  10.91484  10.91491
 Alpha virt. eigenvalues --   10.93620  10.98419  11.00739  11.02929  11.03409
 Alpha virt. eigenvalues --   11.07247  11.19425  11.19434  11.23549  11.28537
 Alpha virt. eigenvalues --   11.29486  11.35415  11.39617  11.40952  11.51540
 Alpha virt. eigenvalues --   11.68382  11.68783  11.73768  11.77058  11.87733
 Alpha virt. eigenvalues --   11.88628  11.91417  11.99962  12.09334  12.11696
 Alpha virt. eigenvalues --   12.16492  12.30945  12.33975  12.37989  12.44145
 Alpha virt. eigenvalues --   12.51696  12.68302  12.75810  12.97762  13.00264
 Alpha virt. eigenvalues --   13.06577  13.12191  13.16792  13.27364  13.40224
 Alpha virt. eigenvalues --   13.52715  13.63826  13.68047  13.70574  14.15064
 Alpha virt. eigenvalues --   14.15116  14.16074  14.17177  14.29298  14.33454
 Alpha virt. eigenvalues --   14.36052  14.42858  14.43572  14.50078  14.51187
 Alpha virt. eigenvalues --   14.74656  14.91575  14.97272  15.02407  15.04930
 Alpha virt. eigenvalues --   15.16645  15.27728  15.31439  15.52658  15.69073
 Alpha virt. eigenvalues --   15.82407  15.88704  16.23757  16.33052  16.50723
 Alpha virt. eigenvalues --   16.69663  16.76393  16.85918  16.90548  17.15721
 Alpha virt. eigenvalues --   17.49161  17.50711  17.75899  17.76269  17.81209
 Alpha virt. eigenvalues --   18.11383  18.20439  18.52573  18.82058  18.87016
 Alpha virt. eigenvalues --   19.08979  19.15846  19.23429  19.39297  19.39459
 Alpha virt. eigenvalues --   19.45092  19.57695  19.68739  19.75296  19.83249
 Alpha virt. eigenvalues --   19.97629  20.18669  20.38578  20.82015  20.95558
 Alpha virt. eigenvalues --   21.35603  21.68370  22.51514  22.74817  22.98269
 Alpha virt. eigenvalues --   23.69176  24.39211  24.59986  39.64279  40.11668
 Alpha virt. eigenvalues --   51.49583  64.49567
          Condensed to atoms (all electrons):
               1          2          3          4          5          6
     1  C    4.886365   0.224894  -0.020105   0.000134   0.411404   0.418245
     2  O    0.224894   7.933002   0.324766  -0.082005  -0.028122  -0.039121
     3  C   -0.020105   0.324766   4.482427   0.782360  -0.001871   0.005461
     4  N    0.000134  -0.082005   0.782360   6.704409   0.001243  -0.000333
     5  H    0.411404  -0.028122  -0.001871   0.001243   0.459950  -0.021654
     6  H    0.418245  -0.039121   0.005461  -0.000333  -0.021654   0.449517
     7  H    0.411385  -0.028096  -0.001885   0.001245  -0.024107  -0.021648
               7
     1  C    0.411385
     2  O   -0.028096
     3  C   -0.001885
     4  N    0.001245
     5  H   -0.024107
     6  H   -0.021648
     7  H    0.459946
 Mulliken charges:
               1
     1  C   -0.332324
     2  O   -0.305319
     3  C    0.428846
     4  N   -0.407053
     5  H    0.203157
     6  H    0.209533
     7  H    0.203160
 Sum of Mulliken charges =  -0.00000
 Mulliken charges with hydrogens summed into heavy atoms:
               1
     1  C    0.283526
     2  O   -0.305319
     3  C    0.428846
     4  N   -0.407053
 Electronic spatial extent (au):  <R**2>=            271.0590
 Charge=             -0.0000 electrons
 Dipole moment (field-independent basis, Debye):
    X=              4.8688    Y=              0.3834    Z=              0.0001  Tot=              4.8839
 Quadrupole moment (field-independent basis, Debye-Ang):
   XX=            -26.8410   YY=            -23.8350   ZZ=            -22.9231
   XY=              2.8008   XZ=              0.0001   YZ=             -0.0000
 Traceless Quadrupole moment (field-independent basis, Debye-Ang):
   XX=             -2.3079   YY=              0.6980   ZZ=              1.6099
   XY=              2.8008   XZ=              0.0001   YZ=             -0.0000
 Octapole moment (field-independent basis, Debye-Ang**2):
  XXX=             29.5844  YYY=             -1.9723  ZZZ=             -0.0010  XYY=              3.0878
  XXY=             -3.6369  XXZ=              0.0006  XZZ=              2.9863  YZZ=              0.0324
  YYZ=              0.0006  XYZ=             -0.0005
 Hexadecapole moment (field-independent basis, Debye-Ang**3):
 XXXX=           -298.5402 YYYY=            -50.3934 ZZZZ=            -28.0815 XXXY=              4.2579
 XXXZ=              0.0029 YYYX=              2.2087 YYYZ=              0.0012 ZZZX=             -0.0016
 ZZZY=             -0.0006 XXYY=            -54.9496 XXZZ=            -52.7093 YYZZ=            -12.1464
 XXYZ=             -0.0015 YYXZ=              0.0006 ZZXY=              1.7521
 N-N= 1.054463529361D+02 E-N=-6.962160089846D+02  KE= 2.065151532961D+02
 No NMR shielding tensors so no spin-rotation constants.
 Leave Link  601 at Tue Aug 30 10:03:50 2022, MaxMem= 24159191040 cpu:        20.9
 (Enter /public/home/users/caep010/software/Gaussian09/g09/l9999.exe)
 1\1\GINC-B1221\SP\RHF\GFHFB2\C2H3N1O1\ROOT\30-Aug-2022\0\\#P Geom=AllC
 heck Guess=TCheck SCRF=Check HF/GFHFB2 SCF=Tight\\Frag_693\\0,1\C,0,-0
 .8522123018,0.0263004,0.0091598992\O,0,0.3578449234,-0.4845358592,0.62
 80428045\C,0,1.4600768133,-0.1282771548,0.0636303537\N,0,2.4748776045,
 0.1693332386,-0.414224956\H,0,-0.8494112704,1.1183251195,0.0356254066\
 H,0,-1.6701160589,-0.3701032238,0.6085179326\H,0,-0.92105971,-0.331142
 5202,-1.0207524405\\Version=ES64L-G09RevE.01\State=1-A\HF=-206.8459515
 \RMSD=9.071e-09\Dipole=-1.9158832,-0.0112148,0.1460705\Quadrupole=-1.0
 769697,0.8277863,0.2491834,-1.2869689,1.9223992,0.5946821\PG=C01 [X(C2
 H3N1O1)]\\@


 THE GREAT THING ABOUT BEING IMPERFECT IS THE JOY IT BRINGS OTHERS.
   -- SIGN OUTSIDE LAKE AGASSIZ JR. HIGH SCHOOL, FARGO, N.D.
 Diagonal vibrational polarizability:
        0.0000000       0.0000000       0.0000000

 Temperature=              298.150000 Pressure=                      1.000000
 E(ZPE)=                     0.049813 E(Thermal)=                    0.054314
 E(CCSD(T))=              -207.376094 E(Empiric)=                   -0.076417
 DE(Plus)=                  -0.012957 DE(2DF)=                      -0.151874
 E(Delta-G3XP)=             -0.261996 DE(HF)=                       -0.020095
 G4(0 K)=                 -207.849619 G4 Energy=                  -207.845118
 G4 Enthalpy=             -207.844174 G4 Free Energy=             -207.876198
 1\1\GINC-B1221\Mixed\G4\G4\C2H3N1O1\ROOT\30-Aug-2022\0\\#P Geom=AllChe
 ck Guess=TCheck SCRF=Check HF/GFHFB2 SCF=Tight\\Frag_693\\0,1\C,0,-0.8
 522123018,0.0263004,0.0091598992\O,0,0.3578449234,-0.4845358592,0.6280
 428045\C,0,1.4600768133,-0.1282771548,0.0636303537\N,0,2.4748776045,0.
 1693332386,-0.414224956\H,0,-0.8494112704,1.1183251195,0.0356254066\H,
 0,-1.6701160589,-0.3701032238,0.6085179326\H,0,-0.92105971,-0.33114252
 02,-1.0207524405\\Version=ES64L-G09RevE.01\State=1-A\MP2/GTBas1=-207.3
 355302\MP4/GTBas1=-207.379754\CCSD(T)/G3Bas1=-207.3760936\MP2/GTBas2=-
 207.3476877\MP4/GTBas2=-207.392711\MP2/GTBas3=-207.4781151\MP4/GTBas3=
 -207.5316276\HF/GTLargeXP=-206.8266437\MP2/GTLargeXP=-207.7522686\HF/G
 FHFB1=-206.8427219\HF/GFHFB2=-206.8459515\G4=-207.8496193\FreqCoord=-1
 .6104478576,0.0497005532,0.0173097009,0.6762289033,-0.9156400755,1.186
 8289003,2.7591453101,-0.2424086918,0.1202439423,4.676840885,0.31999344
 62,-0.7827717243,-1.6051546753,2.1133282034,0.0673222618,-3.1560619615
 ,-0.6993937339,1.1499322395,-1.740550604,-0.6257686742,-1.9289425621\P
 G=C01 [X(C2H3N1O1)]\NImag=0\\0.47706929,0.06420860,0.57162179,-0.08069
 311,0.01607741,0.56994032,-0.12873233,0.04502185,-0.05653784,0.5947808
 1,0.02824359,-0.07583918,0.03166462,0.04285513,0.13871564,-0.03349629,
 0.03051680,-0.09099790,-0.09550034,-0.11403256,0.22090244,-0.06962352,
 -0.01009970,0.01821083,-0.37018712,-0.08216759,0.13520087,1.34618820,0
 .00184892,0.00047777,-0.00882895,-0.10329791,-0.08392583,0.06403872,0.
 34548052,0.20511353,0.00180708,-0.00801281,0.00502336,0.16421427,0.062
 59583,-0.13958694,-0.55964050,-0.17297519,0.37199456,0.01414402,-0.003
 06093,0.00339581,-0.02672818,-0.01254952,0.02053394,-0.91556725,-0.252
 23988,0.40539419,0.93064183,0.00339500,-0.00016833,0.00314475,-0.01528
 094,0.01841359,0.00560160,-0.25224189,-0.12162273,0.11571589,0.2663026
 9,0.10292720,-0.00546955,0.00358521,-0.00226026,0.02428905,0.00541630,
 0.01264137,0.40539239,0.11571474,-0.23641525,-0.42734165,-0.12345286,0
 .22490478,-0.04991948,-0.01802287,0.00294829,-0.01761200,0.03456560,-0
 .00513840,0.00732099,0.00547114,-0.00310368,-0.00123874,-0.00174616,0.
 00068304,0.05662407,-0.00934532,-0.31891758,-0.01165477,0.00933535,-0.
 00718457,0.00391949,-0.00220899,0.00014303,0.00121955,0.00107175,0.000
 15761,-0.00068673,0.00356100,0.34225240,0.00103111,-0.01511291,-0.0523
 1518,-0.00797064,0.01801592,-0.00041817,0.00249058,0.00047900,-0.00053
 408,-0.00056430,-0.00018867,0.00005783,0.00529381,0.00878444,0.0498816
 7,-0.19338444,-0.07437282,0.11161353,-0.03184856,-0.00682319,0.0115916
 9,-0.00523131,0.00187147,-0.00220284,-0.00005727,-0.00035535,0.0005087
 1,0.00252274,-0.00043523,0.00058147,0.22387746,-0.08366959,-0.09218093
 ,0.06046584,0.01438572,0.00453952,-0.00594184,0.00335962,-0.00026694,0
 .00044150,0.00020819,0.00049075,-0.00036494,-0.02315684,-0.00831947,0.
 01821127,0.07978660,0.09059377,0.12437067,0.05983430,-0.14278037,-0.01
 751529,-0.00450188,0.00828729,-0.00423803,0.00054156,-0.00023647,-0.00
 026580,-0.00032591,0.00070210,-0.00229647,-0.00221249,0.00204292,-0.12
 149063,-0.06564657,0.14500272,-0.04955354,-0.00367413,0.00106249,-0.01
 967262,-0.00412401,-0.03319146,0.00710002,0.00086575,-0.00646852,-0.00
 119441,-0.00007335,0.00193800,0.00230241,-0.00197855,-0.00086204,0.004
 12137,0.00908630,0.02143555,0.05689678,-0.00468119,-0.08499354,-0.0908
 6890,0.00698079,0.00528083,0.01589780,-0.00212196,0.00008116,0.0010152
 4,0.00026770,-0.00019809,-0.00021173,-0.00067186,-0.00813143,-0.030189
 06,0.00032852,0.00514329,0.01231100,-0.00010201,0.08281778,-0.00754990
 ,-0.08688800,-0.28660997,-0.01097922,0.00084177,-0.01082809,0.00258385
 ,0.00103013,-0.00024518,-0.00115219,-0.00049480,0.00036944,0.00161341,
 0.00063052,0.00128501,-0.00060193,-0.00716526,-0.01301819,0.01608597,0
 .09204564,0.30904699\\0.00003283,-0.00002046,0.00002722,-0.00003198,0.
 00001655,-0.00001376,0.00002375,-0.00000832,0.00000086,-0.00001107,0.0
 0000152,0.00000215,-0.00000296,0.00001523,-0.00000064,-0.00000560,-0.0
 0000102,-0.00000137,-0.00000497,-0.00000350,-0.00001445\\\@
 Job cpu time:       0 days  0 hours 15 minutes  9.7 seconds.
 File lengths (MBytes):  RWF=    628 Int=      0 D2E=      0 Chk=     13 Scr=      1
 Normal termination of Gaussian 09 at Tue Aug 30 10:03:51 2022.
