 Entering Gaussian System, Link 0=g09
 Input=G4.Frag_1097.gjf
 Output=G4.Frag_1097.log
 Initial command:
 /public/home/users/caep010/software/Gaussian09/g09/l1.exe "/public/home/users/caep010/.cache/gau_scr/Gau-215288.inp" -scrdir="/public/home/users/caep010/.cache/gau_scr/"
 Entering Link 1 = /public/home/users/caep010/software/Gaussian09/g09/l1.exe PID=    215289.
  
 Copyright (c) 1988,1990,1992,1993,1995,1998,2003,2009,2015,
            Gaussian, Inc.  All Rights Reserved.
  
 This is part of the Gaussian(R) 09 program.  It is based on
 the Gaussian(R) 03 system (copyright 2003, Gaussian, Inc.),
 the Gaussian(R) 98 system (copyright 1998, Gaussian, Inc.),
 the Gaussian(R) 94 system (copyright 1995, Gaussian, Inc.),
 the Gaussian 92(TM) system (copyright 1992, Gaussian, Inc.),
 the Gaussian 90(TM) system (copyright 1990, Gaussian, Inc.),
 the Gaussian 88(TM) system (copyright 1988, Gaussian, Inc.),
 the Gaussian 86(TM) system (copyright 1986, Carnegie Mellon
 University), and the Gaussian 82(TM) system (copyright 1983,
 Carnegie Mellon University). Gaussian is a federally registered
 trademark of Gaussian, Inc.
  
 This software contains proprietary and confidential information,
 including trade secrets, belonging to Gaussian, Inc.
  
 This software is provided under written license and may be
 used, copied, transmitted, or stored only in accord with that
 written license.
  
 The following legend is applicable only to US Government
 contracts under FAR:
  
                    RESTRICTED RIGHTS LEGEND
  
 Use, reproduction and disclosure by the US Government is
 subject to restrictions as set forth in subparagraphs (a)
 and (c) of the Commercial Computer Software - Restricted
 Rights clause in FAR 52.227-19.
  
 Gaussian, Inc.
 340 Quinnipiac St., Bldg. 40, Wallingford CT 06492
  
  
 ---------------------------------------------------------------
 Warning -- This program may not be used in any manner that
 competes with the business of Gaussian, Inc. or will provide
 assistance to any competitor of Gaussian, Inc.  The licensee
 of this program is prohibited from giving any competitor of
 Gaussian, Inc. access to this program.  By using this program,
 the user acknowledges that Gaussian, Inc. is engaged in the
 business of creating and licensing software in the field of
 computational chemistry and represents and warrants to the
 licensee that it is not a competitor of Gaussian, Inc. and that
 it will not use this program in any manner prohibited above.
 ---------------------------------------------------------------
  

 Cite this work as:
 Gaussian 09, Revision E.01,
 M. J. Frisch, G. W. Trucks, H. B. Schlegel, G. E. Scuseria, 
 M. A. Robb, J. R. Cheeseman, G. Scalmani, V. Barone, B. Mennucci, 
 G. A. Petersson, H. Nakatsuji, M. Caricato, X. Li, H. P. Hratchian, 
 A. F. Izmaylov, J. Bloino, G. Zheng, J. L. Sonnenberg, M. Hada, 
 M. Ehara, K. Toyota, R. Fukuda, J. Hasegawa, M. Ishida, T. Nakajima, 
 Y. Honda, O. Kitao, H. Nakai, T. Vreven, J. A. Montgomery, Jr., 
 J. E. Peralta, F. Ogliaro, M. Bearpark, J. J. Heyd, E. Brothers, 
 K. N. Kudin, V. N. Staroverov, T. Keith, R. Kobayashi, J. Normand, 
 K. Raghavachari, A. Rendell, J. C. Burant, S. S. Iyengar, J. Tomasi, 
 M. Cossi, N. Rega, J. M. Millam, M. Klene, J. E. Knox, J. B. Cross, 
 V. Bakken, C. Adamo, J. Jaramillo, R. Gomperts, R. E. Stratmann, 
 O. Yazyev, A. J. Austin, R. Cammi, C. Pomelli, J. W. Ochterski, 
 R. L. Martin, K. Morokuma, V. G. Zakrzewski, G. A. Voth, 
 P. Salvador, J. J. Dannenberg, S. Dapprich, A. D. Daniels, 
 O. Farkas, J. B. Foresman, J. V. Ortiz, J. Cioslowski, 
 and D. J. Fox, Gaussian, Inc., Wallingford CT, 2013.
 
 ******************************************
 Gaussian 09:  ES64L-G09RevE.01 30-Nov-2015
                 1-Sep-2022 
 ******************************************
 %nproc=32
 Will use up to   32 processors via shared memory.
 %mem=180GB
 %chk=G4.Frag_1097.chk
 -----
 #P G4
 -----
 1/14=-1,18=20,19=15,26=3,38=1/1,3;
 2/9=110,12=2,17=6,18=5,40=1/2;
 3/5=35,7=104,11=2,16=1,25=1,30=1,71=1,74=-5/1,2,3;
 4//1;
 5/5=2,38=5/2;
 6/7=2,8=2,9=2,10=2,28=1/1;
 7//1,2,3,16;
 1/14=-1,18=20,19=15,26=3/3(2);
 2/9=110/2;
 99//99;
 2/9=110/2;
 3/5=35,7=104,11=2,16=1,25=1,30=1,71=1,74=-5/1,2,3;
 4/5=5,16=3,69=1/1;
 5/5=2,38=5/2;
 7//1,2,3,16;
 1/14=-1,18=20,19=15,26=3/3(-5);
 2/9=110/2;
 6/7=2,8=2,9=2,10=2,19=2,28=1/1;
 99/9=1/99;
 Leave Link    1 at Thu Sep  1 17:11:31 2022, MaxMem= 24159191040 cpu:         2.8
 (Enter /public/home/users/caep010/software/Gaussian09/g09/l101.exe)
 ---------
 Frag_1097
 ---------
 Symbolic Z-matrix:
 Charge =  0 Multiplicity = 1
 N                    -1.3794   -0.09703   0.14245 
 C                    -0.05102   0.16348   0.1573 
 O                     0.51361   1.05191   0.75989 
 O                     0.61663  -0.74926  -0.60307 
 O                     2.02458  -0.48326  -0.55189 
 H                    -1.99181   0.5876    0.54894 
 H                    -1.75612  -0.78078  -0.49112 
 H                     2.02352   0.30733   0.0375 
 
 NAtoms=      8 NQM=        8 NQMF=       0 NMMI=      0 NMMIF=      0
                NMic=       0 NMicF=      0.
                    Isotopes and Nuclear Properties:
 (Nuclear quadrupole moments (NQMom) in fm**2, nuclear magnetic moments (NMagM)
  in nuclear magnetons)

  Atom         1           2           3           4           5           6           7           8
 IAtWgt=          14          12          16          16          16           1           1           1
 AtmWgt=  14.0030740  12.0000000  15.9949146  15.9949146  15.9949146   1.0078250   1.0078250   1.0078250
 NucSpn=           2           0           0           0           0           1           1           1
 AtZEff=   0.0000000   0.0000000   0.0000000   0.0000000   0.0000000   0.0000000   0.0000000   0.0000000
 NQMom=    2.0440000   0.0000000   0.0000000   0.0000000   0.0000000   0.0000000   0.0000000   0.0000000
 NMagM=    0.4037610   0.0000000   0.0000000   0.0000000   0.0000000   2.7928460   2.7928460   2.7928460
 AtZNuc=   7.0000000   6.0000000   8.0000000   8.0000000   8.0000000   1.0000000   1.0000000   1.0000000
 Leave Link  101 at Thu Sep  1 17:11:31 2022, MaxMem= 24159191040 cpu:        20.9
 (Enter /public/home/users/caep010/software/Gaussian09/g09/l103.exe)

 GradGradGradGradGradGradGradGradGradGradGradGradGradGradGradGradGradGrad
 Berny optimization.
 Initialization pass.
                           ----------------------------
                           !    Initial Parameters    !
                           ! (Angstroms and Degrees)  !
 --------------------------                            --------------------------
 ! Name  Definition              Value          Derivative Info.                !
 --------------------------------------------------------------------------------
 ! R1    R(1,2)                  1.3538         estimate D2E/DX2                !
 ! R2    R(1,6)                  1.0045         estimate D2E/DX2                !
 ! R3    R(1,7)                  1.0054         estimate D2E/DX2                !
 ! R4    R(2,3)                  1.2129         estimate D2E/DX2                !
 ! R5    R(2,4)                  1.3627         estimate D2E/DX2                !
 ! R6    R(4,5)                  1.4338         estimate D2E/DX2                !
 ! R7    R(5,8)                  0.9861         estimate D2E/DX2                !
 ! A1    A(2,1,6)              117.5583         estimate D2E/DX2                !
 ! A2    A(2,1,7)              120.3612         estimate D2E/DX2                !
 ! A3    A(6,1,7)              119.346          estimate D2E/DX2                !
 ! A4    A(1,2,3)              127.0974         estimate D2E/DX2                !
 ! A5    A(1,2,4)              110.2272         estimate D2E/DX2                !
 ! A6    A(3,2,4)              122.6653         estimate D2E/DX2                !
 ! A7    A(2,4,5)              109.6905         estimate D2E/DX2                !
 ! A8    A(4,5,8)               99.7308         estimate D2E/DX2                !
 ! D1    D(6,1,2,3)             10.3933         estimate D2E/DX2                !
 ! D2    D(6,1,2,4)           -170.7515         estimate D2E/DX2                !
 ! D3    D(7,1,2,3)            171.543          estimate D2E/DX2                !
 ! D4    D(7,1,2,4)             -9.6018         estimate D2E/DX2                !
 ! D5    D(1,2,4,5)           -178.5419         estimate D2E/DX2                !
 ! D6    D(3,2,4,5)              0.3734         estimate D2E/DX2                !
 ! D7    D(2,4,5,8)             -0.3673         estimate D2E/DX2                !
 --------------------------------------------------------------------------------
 Trust Radius=3.00D-01 FncErr=1.00D-07 GrdErr=1.00D-06
 Number of steps in this run=     32 maximum allowed number of steps=    100.
 GradGradGradGradGradGradGradGradGradGradGradGradGradGradGradGradGradGrad

 Leave Link  103 at Thu Sep  1 17:11:31 2022, MaxMem= 24159191040 cpu:         0.4
 (Enter /public/home/users/caep010/software/Gaussian09/g09/l202.exe)
                          Input orientation:                          
 ---------------------------------------------------------------------
 Center     Atomic      Atomic             Coordinates (Angstroms)
 Number     Number       Type             X           Y           Z
 ---------------------------------------------------------------------
      1          7           0       -1.379396   -0.097025    0.142448
      2          6           0       -0.051020    0.163482    0.157295
      3          8           0        0.513612    1.051913    0.759894
      4          8           0        0.616628   -0.749255   -0.603067
      5          8           0        2.024581   -0.483261   -0.551886
      6          1           0       -1.991807    0.587599    0.548938
      7          1           0       -1.756122   -0.780783   -0.491124
      8          1           0        2.023524    0.307330    0.037503
 ---------------------------------------------------------------------
                    Distance matrix (angstroms):
                    1          2          3          4          5
     1  N    0.000000
     2  C    1.353760   0.000000
     3  O    2.298864   1.212949   0.000000
     4  O    2.228297   1.362715   2.261080   0.000000
     5  O    3.495474   2.286774   2.522014   1.433773   0.000000
     6  H    1.004486   2.024824   2.556798   3.149322   4.299992
     7  H    1.005416   2.054132   3.174195   2.375598   3.792878
     8  H    3.428466   2.082973   1.831963   1.872447   0.986111
                    6          7          8
     6  H    0.000000
     7  H    1.734862   0.000000
     8  H    4.057462   3.968521   0.000000
 Stoichiometry    CH3NO3
 Framework group  C1[X(CH3NO3)]
 Deg. of freedom    18
 Full point group                 C1      NOp   1
 Largest Abelian subgroup         C1      NOp   1
 Largest concise Abelian subgroup C1      NOp   1
                         Standard orientation:                         
 ---------------------------------------------------------------------
 Center     Atomic      Atomic             Coordinates (Angstroms)
 Number     Number       Type             X           Y           Z
 ---------------------------------------------------------------------
      1          7           0        1.669649   -0.444460   -0.033489
      2          6           0        0.449617    0.141348   -0.001563
      3          8           0        0.208713    1.330126    0.002377
      4          8           0       -0.528620   -0.807354    0.001603
      5          8           0       -1.815221   -0.174614    0.001148
      6          1           0        2.471681    0.144444    0.104091
      7          1           0        1.759971   -1.437678    0.093872
      8          1           0       -1.535869    0.771094    0.004817
 ---------------------------------------------------------------------
 Rotational constants (GHZ):     11.2850598      4.5488432      3.2434114
 Leave Link  202 at Thu Sep  1 17:11:31 2022, MaxMem= 24159191040 cpu:         0.8
 (Enter /public/home/users/caep010/software/Gaussian09/g09/l301.exe)
 Standard basis: GTBas3 (6D, 7F)
 Ernie: Thresh=  0.10000D-02 Tol=  0.10000D-05 Strict=F.
 There are   170 symmetry adapted cartesian basis functions of A   symmetry.
 There are   155 symmetry adapted basis functions of A   symmetry.
   155 basis functions,   241 primitive gaussians,   170 cartesian basis functions
    20 alpha electrons       20 beta electrons
       nuclear repulsion energy       184.5419640433 Hartrees.
 IExCor=  402 DFT=T Ex+Corr=B3LYP ExCW=0 ScaHFX=  0.200000
 ScaDFX=  0.800000  0.720000  1.000000  0.810000 ScalE2=  1.000000  1.000000
 IRadAn=      0 IRanWt=     -1 IRanGd=            0 ICorTp=0 IEmpDi=  4
 NAtoms=    8 NActive=    8 NUniq=    8 SFac= 1.00D+00 NAtFMM=   60 NAOKFM=F Big=F
 Integral buffers will be    131072 words long.
 Raffenetti 2 integral format.
 Two-electron integral symmetry is turned on.
 Leave Link  301 at Thu Sep  1 17:11:32 2022, MaxMem= 24159191040 cpu:         9.0
 (Enter /public/home/users/caep010/software/Gaussian09/g09/l302.exe)
 NPDir=0 NMtPBC=     1 NCelOv=     1 NCel=       1 NClECP=     1 NCelD=      1
         NCelK=      1 NCelE2=     1 NClLst=     1 CellRange=     0.0.
 One-electron integrals computed using PRISM.
 NBasis=   155 RedAO= T EigKep=  4.00D-04  NBF=   155
 NBsUse=   155 1.00D-06 EigRej= -1.00D+00 NBFU=   155
 Precomputing XC quadrature grid using
 IXCGrd= 4 IRadAn=           0 IRanWt=          -1 IRanGd=           0 AccXCQ= 0.00D+00.
 Generated NRdTot=       0 NPtTot=           0 NUsed=           0 NTot=          32
 NSgBfM=   170   170   170   170   170 MxSgAt=     8 MxSgA2=     8.
 Leave Link  302 at Thu Sep  1 17:11:32 2022, MaxMem= 24159191040 cpu:        15.5
 (Enter /public/home/users/caep010/software/Gaussian09/g09/l303.exe)
 DipDrv:  MaxL=1.
 Leave Link  303 at Thu Sep  1 17:11:32 2022, MaxMem= 24159191040 cpu:         0.8
 (Enter /public/home/users/caep010/software/Gaussian09/g09/l401.exe)
 ExpMin= 1.61D-01 ExpMax= 5.48D+03 ExpMxC= 8.25D+02 IAcc=1 IRadAn=         1 AccDes= 0.00D+00
 Harris functional with IExCor=  402 and IRadAn=       1 diagonalized for initial guess.
 HarFok:  IExCor=  402 AccDes= 0.00D+00 IRadAn=         1 IDoV= 1 UseB2=F ITyADJ=14
 ICtDFT=  3500011 ScaDFX=  1.000000  1.000000  1.000000  1.000000
 FoFCou: FMM=F IPFlag=           0 FMFlag=      100000 FMFlg1=           0
         NFxFlg=           0 DoJE=T BraDBF=F KetDBF=T FulRan=T
         wScrn=  0.000000 ICntrl=     500 IOpCl=  0 I1Cent=   200000004 NGrid=           0
         NMat0=    1 NMatS0=      1 NMatT0=    0 NMatD0=    1 NMtDS0=    0 NMtDT0=    0
 Petite list used in FoFCou.
 Harris En= -320.306720777941    
 JPrj=0 DoOrth=F DoCkMO=F.
 Leave Link  401 at Thu Sep  1 17:11:33 2022, MaxMem= 24159191040 cpu:        18.8
 (Enter /public/home/users/caep010/software/Gaussian09/g09/l502.exe)
 Closed shell SCF:
 Using DIIS extrapolation, IDIIS=  1040.
 Integral symmetry usage will be decided dynamically.
 Keep R1 ints in memory in canonical form, NReq=75702035.
 IVT=      111920 IEndB=      111920 NGot= 24159191040 MDV= 24085989026
 LenX= 24085989026 LenY= 24085959685
 Requested convergence on RMS density matrix=1.00D-08 within 128 cycles.
 Requested convergence on MAX density matrix=1.00D-06.
 Requested convergence on             energy=1.00D-06.
 No special actions if energy rises.
 FoFCou: FMM=F IPFlag=           0 FMFlag=           0 FMFlg1=           0
         NFxFlg=           0 DoJE=F BraDBF=F KetDBF=F FulRan=T
         wScrn=  0.000000 ICntrl=     600 IOpCl=  0 I1Cent=           0 NGrid=           0
         NMat0=    1 NMatS0=  12090 NMatT0=    0 NMatD0=    1 NMtDS0=    0 NMtDT0=    0
 Symmetry not used in FoFCou.
 Integral accuracy reduced to 1.0D-05 until final iterations.

 Cycle   1  Pass 0  IDiag  1:
 E= -320.155043207774    
 DIIS: error= 2.36D-02 at cycle   1 NSaved=   1.
 NSaved= 1 IEnMin= 1 EnMin= -320.155043207774     IErMin= 1 ErrMin= 2.36D-02
 ErrMax= 2.36D-02  0.00D+00 EMaxC= 1.00D-01 BMatC= 1.92D-01 BMatP= 1.92D-01
 IDIUse=3 WtCom= 7.64D-01 WtEn= 2.36D-01
 Coeff-Com:  0.100D+01
 Coeff-En:   0.100D+01
 Coeff:      0.100D+01
 Gap=     0.274 Goal=   None    Shift=    0.000
 GapD=    0.274 DampG=1.000 DampE=0.500 DampFc=0.5000 IDamp=-1.
 Damping current iteration by 5.00D-01
 RMSDP=5.12D-03 MaxDP=2.13D-01              OVMax= 2.36D-01

 Cycle   2  Pass 0  IDiag  1:
 E= -320.173816333123     Delta-E=       -0.018773125349 Rises=F Damp=T
 DIIS: error= 1.13D-02 at cycle   2 NSaved=   2.
 NSaved= 2 IEnMin= 2 EnMin= -320.173816333123     IErMin= 2 ErrMin= 1.13D-02
 ErrMax= 1.13D-02  0.00D+00 EMaxC= 1.00D-01 BMatC= 4.03D-02 BMatP= 1.92D-01
 IDIUse=3 WtCom= 8.87D-01 WtEn= 1.13D-01
 Coeff-Com:  0.266D+00 0.734D+00
 Coeff-En:   0.437D+00 0.563D+00
 Coeff:      0.285D+00 0.715D+00
 Gap=     0.337 Goal=   None    Shift=    0.000
 RMSDP=1.55D-03 MaxDP=4.54D-02 DE=-1.88D-02 OVMax= 1.62D-01

 Cycle   3  Pass 0  IDiag  1:
 E= -320.270157420681     Delta-E=       -0.096341087558 Rises=F Damp=F
 DIIS: error= 8.48D-03 at cycle   3 NSaved=   3.
 NSaved= 3 IEnMin= 3 EnMin= -320.270157420681     IErMin= 3 ErrMin= 8.48D-03
 ErrMax= 8.48D-03  0.00D+00 EMaxC= 1.00D-01 BMatC= 2.41D-02 BMatP= 4.03D-02
 IDIUse=3 WtCom= 9.15D-01 WtEn= 8.48D-02
 Coeff-Com:  0.979D-01 0.432D+00 0.470D+00
 Coeff-En:   0.000D+00 0.000D+00 0.100D+01
 Coeff:      0.896D-01 0.395D+00 0.515D+00
 Gap=     0.282 Goal=   None    Shift=    0.000
 RMSDP=9.28D-04 MaxDP=3.16D-02 DE=-9.63D-02 OVMax= 4.86D-02

 Cycle   4  Pass 0  IDiag  1:
 E= -320.286487134113     Delta-E=       -0.016329713432 Rises=F Damp=F
 DIIS: error= 3.07D-03 at cycle   4 NSaved=   4.
 NSaved= 4 IEnMin= 4 EnMin= -320.286487134113     IErMin= 4 ErrMin= 3.07D-03
 ErrMax= 3.07D-03  0.00D+00 EMaxC= 1.00D-01 BMatC= 3.40D-03 BMatP= 2.41D-02
 IDIUse=3 WtCom= 9.69D-01 WtEn= 3.07D-02
 Coeff-Com:  0.102D-01 0.792D-01 0.287D+00 0.623D+00
 Coeff-En:   0.000D+00 0.000D+00 0.131D+00 0.869D+00
 Coeff:      0.985D-02 0.767D-01 0.283D+00 0.631D+00
 Gap=     0.281 Goal=   None    Shift=    0.000
 RMSDP=2.84D-04 MaxDP=1.07D-02 DE=-1.63D-02 OVMax= 1.65D-02

 Cycle   5  Pass 0  IDiag  1:
 E= -320.288882784736     Delta-E=       -0.002395650623 Rises=F Damp=F
 DIIS: error= 8.47D-04 at cycle   5 NSaved=   5.
 NSaved= 5 IEnMin= 5 EnMin= -320.288882784736     IErMin= 5 ErrMin= 8.47D-04
 ErrMax= 8.47D-04  0.00D+00 EMaxC= 1.00D-01 BMatC= 2.03D-04 BMatP= 3.40D-03
 IDIUse=3 WtCom= 9.92D-01 WtEn= 8.47D-03
 Coeff-Com: -0.628D-03 0.127D-01 0.111D+00 0.323D+00 0.553D+00
 Coeff-En:   0.000D+00 0.000D+00 0.000D+00 0.000D+00 0.100D+01
 Coeff:     -0.622D-03 0.126D-01 0.110D+00 0.321D+00 0.557D+00
 Gap=     0.280 Goal=   None    Shift=    0.000
 RMSDP=6.52D-05 MaxDP=2.52D-03 DE=-2.40D-03 OVMax= 3.41D-03

 Cycle   6  Pass 0  IDiag  1:
 E= -320.289025271209     Delta-E=       -0.000142486472 Rises=F Damp=F
 DIIS: error= 2.17D-04 at cycle   6 NSaved=   6.
 NSaved= 6 IEnMin= 6 EnMin= -320.289025271209     IErMin= 6 ErrMin= 2.17D-04
 ErrMax= 2.17D-04  0.00D+00 EMaxC= 1.00D-01 BMatC= 1.85D-05 BMatP= 2.03D-04
 IDIUse=3 WtCom= 9.98D-01 WtEn= 2.17D-03
 Coeff-Com: -0.107D-02 0.153D-02 0.448D-01 0.142D+00 0.318D+00 0.495D+00
 Coeff-En:   0.000D+00 0.000D+00 0.000D+00 0.000D+00 0.000D+00 0.100D+01
 Coeff:     -0.107D-02 0.153D-02 0.447D-01 0.141D+00 0.317D+00 0.496D+00
 Gap=     0.280 Goal=   None    Shift=    0.000
 RMSDP=2.04D-05 MaxDP=7.79D-04 DE=-1.42D-04 OVMax= 1.03D-03

 Cycle   7  Pass 0  IDiag  1:
 E= -320.289036362137     Delta-E=       -0.000011090928 Rises=F Damp=F
 DIIS: error= 6.75D-05 at cycle   7 NSaved=   7.
 NSaved= 7 IEnMin= 7 EnMin= -320.289036362137     IErMin= 7 ErrMin= 6.75D-05
 ErrMax= 6.75D-05  0.00D+00 EMaxC= 1.00D-01 BMatC= 1.81D-06 BMatP= 1.85D-05
 IDIUse=1 WtCom= 1.00D+00 WtEn= 0.00D+00
 Coeff-Com: -0.511D-03-0.512D-03 0.121D-01 0.393D-01 0.114D+00 0.290D+00
 Coeff-Com:  0.546D+00
 Coeff:     -0.511D-03-0.512D-03 0.121D-01 0.393D-01 0.114D+00 0.290D+00
 Coeff:      0.546D+00
 Gap=     0.280 Goal=   None    Shift=    0.000
 RMSDP=6.92D-06 MaxDP=1.89D-04 DE=-1.11D-05 OVMax= 3.56D-04

 Initial convergence to 1.0D-05 achieved.  Increase integral accuracy.
 Cycle   8  Pass 1  IDiag  1:
 E= -320.289019356351     Delta-E=        0.000017005785 Rises=F Damp=F
 DIIS: error= 1.05D-05 at cycle   1 NSaved=   1.
 NSaved= 1 IEnMin= 1 EnMin= -320.289019356351     IErMin= 1 ErrMin= 1.05D-05
 ErrMax= 1.05D-05  0.00D+00 EMaxC= 1.00D-01 BMatC= 4.42D-08 BMatP= 4.42D-08
 IDIUse=1 WtCom= 1.00D+00 WtEn= 0.00D+00
 Coeff-Com:  0.100D+01
 Coeff:      0.100D+01
 Gap=     0.280 Goal=   None    Shift=    0.000
 RMSDP=6.92D-06 MaxDP=1.89D-04 DE= 1.70D-05 OVMax= 7.13D-05

 Cycle   9  Pass 1  IDiag  1:
 E= -320.289019342648     Delta-E=        0.000000013703 Rises=F Damp=F
 DIIS: error= 1.35D-05 at cycle   2 NSaved=   2.
 NSaved= 2 IEnMin= 1 EnMin= -320.289019356351     IErMin= 1 ErrMin= 1.05D-05
 ErrMax= 1.35D-05  0.00D+00 EMaxC= 1.00D-01 BMatC= 6.41D-08 BMatP= 4.42D-08
 IDIUse=1 WtCom= 1.00D+00 WtEn= 0.00D+00
 Coeff-Com:  0.554D+00 0.446D+00
 Coeff:      0.554D+00 0.446D+00
 Gap=     0.280 Goal=   None    Shift=    0.000
 RMSDP=1.33D-06 MaxDP=6.49D-05 DE= 1.37D-08 OVMax= 6.41D-05

 Cycle  10  Pass 1  IDiag  1:
 E= -320.289019382529     Delta-E=       -0.000000039880 Rises=F Damp=F
 DIIS: error= 5.50D-06 at cycle   3 NSaved=   3.
 NSaved= 3 IEnMin= 3 EnMin= -320.289019382529     IErMin= 3 ErrMin= 5.50D-06
 ErrMax= 5.50D-06  0.00D+00 EMaxC= 1.00D-01 BMatC= 9.69D-09 BMatP= 4.42D-08
 IDIUse=1 WtCom= 1.00D+00 WtEn= 0.00D+00
 Coeff-Com:  0.153D+00 0.283D+00 0.564D+00
 Coeff:      0.153D+00 0.283D+00 0.564D+00
 Gap=     0.280 Goal=   None    Shift=    0.000
 RMSDP=4.55D-07 MaxDP=1.64D-05 DE=-3.99D-08 OVMax= 1.96D-05

 Cycle  11  Pass 1  IDiag  1:
 E= -320.289019388658     Delta-E=       -0.000000006130 Rises=F Damp=F
 DIIS: error= 1.90D-06 at cycle   4 NSaved=   4.
 NSaved= 4 IEnMin= 4 EnMin= -320.289019388658     IErMin= 4 ErrMin= 1.90D-06
 ErrMax= 1.90D-06  0.00D+00 EMaxC= 1.00D-01 BMatC= 8.33D-10 BMatP= 9.69D-09
 IDIUse=1 WtCom= 1.00D+00 WtEn= 0.00D+00
 Coeff-Com:  0.117D-01 0.100D+00 0.299D+00 0.589D+00
 Coeff:      0.117D-01 0.100D+00 0.299D+00 0.589D+00
 Gap=     0.280 Goal=   None    Shift=    0.000
 RMSDP=1.63D-07 MaxDP=7.36D-06 DE=-6.13D-09 OVMax= 9.94D-06

 Cycle  12  Pass 1  IDiag  1:
 E= -320.289019389155     Delta-E=       -0.000000000496 Rises=F Damp=F
 DIIS: error= 7.44D-07 at cycle   5 NSaved=   5.
 NSaved= 5 IEnMin= 5 EnMin= -320.289019389155     IErMin= 5 ErrMin= 7.44D-07
 ErrMax= 7.44D-07  0.00D+00 EMaxC= 1.00D-01 BMatC= 1.33D-10 BMatP= 8.33D-10
 IDIUse=1 WtCom= 1.00D+00 WtEn= 0.00D+00
 Coeff-Com: -0.553D-02 0.375D-01 0.129D+00 0.359D+00 0.480D+00
 Coeff:     -0.553D-02 0.375D-01 0.129D+00 0.359D+00 0.480D+00
 Gap=     0.280 Goal=   None    Shift=    0.000
 RMSDP=5.49D-08 MaxDP=2.22D-06 DE=-4.96D-10 OVMax= 3.29D-06

 Cycle  13  Pass 1  IDiag  1:
 E= -320.289019389245     Delta-E=       -0.000000000091 Rises=F Damp=F
 DIIS: error= 1.41D-07 at cycle   6 NSaved=   6.
 NSaved= 6 IEnMin= 6 EnMin= -320.289019389245     IErMin= 6 ErrMin= 1.41D-07
 ErrMax= 1.41D-07  0.00D+00 EMaxC= 1.00D-01 BMatC= 5.98D-12 BMatP= 1.33D-10
 IDIUse=1 WtCom= 1.00D+00 WtEn= 0.00D+00
 Coeff-Com: -0.383D-02 0.145D-01 0.504D-01 0.159D+00 0.262D+00 0.518D+00
 Coeff:     -0.383D-02 0.145D-01 0.504D-01 0.159D+00 0.262D+00 0.518D+00
 Gap=     0.280 Goal=   None    Shift=    0.000
 RMSDP=1.21D-08 MaxDP=4.47D-07 DE=-9.06D-11 OVMax= 7.15D-07

 Cycle  14  Pass 1  IDiag  1:
 E= -320.289019389244     Delta-E=        0.000000000002 Rises=F Damp=F
 DIIS: error= 3.14D-08 at cycle   7 NSaved=   7.
 NSaved= 7 IEnMin= 6 EnMin= -320.289019389245     IErMin= 7 ErrMin= 3.14D-08
 ErrMax= 3.14D-08  0.00D+00 EMaxC= 1.00D-01 BMatC= 4.54D-13 BMatP= 5.98D-12
 IDIUse=1 WtCom= 1.00D+00 WtEn= 0.00D+00
 Coeff-Com: -0.139D-02 0.415D-02 0.130D-01 0.479D-01 0.892D-01 0.270D+00
 Coeff-Com:  0.577D+00
 Coeff:     -0.139D-02 0.415D-02 0.130D-01 0.479D-01 0.892D-01 0.270D+00
 Coeff:      0.577D+00
 Gap=     0.280 Goal=   None    Shift=    0.000
 RMSDP=4.12D-09 MaxDP=1.31D-07 DE= 1.59D-12 OVMax= 1.96D-07

 SCF Done:  E(RB3LYP) =  -320.289019389     A.U. after   14 cycles
            NFock= 14  Conv=0.41D-08     -V/T= 2.0058
 KE= 3.184573319204D+02 PE=-1.122979379491D+03 EE= 2.996910641383D+02
 Leave Link  502 at Thu Sep  1 17:11:36 2022, MaxMem= 24159191040 cpu:        54.9
 (Enter /public/home/users/caep010/software/Gaussian09/g09/l601.exe)
 Copying SCF densities to generalized density rwf, IOpCl= 0 IROHF=0.

 **********************************************************************

            Population analysis using the SCF density.

 **********************************************************************

 Orbital symmetries:
       Occupied  (A) (A) (A) (A) (A) (A) (A) (A) (A) (A) (A) (A)
                 (A) (A) (A) (A) (A) (A) (A) (A)
       Virtual   (A) (A) (A) (A) (A) (A) (A) (A) (A) (A) (A) (A)
                 (A) (A) (A) (A) (A) (A) (A) (A) (A) (A) (A) (A)
                 (A) (A) (A) (A) (A) (A) (A) (A) (A) (A) (A) (A)
                 (A) (A) (A) (A) (A) (A) (A) (A) (A) (A) (A) (A)
                 (A) (A) (A) (A) (A) (A) (A) (A) (A) (A) (A) (A)
                 (A) (A) (A) (A) (A) (A) (A) (A) (A) (A) (A) (A)
                 (A) (A) (A) (A) (A) (A) (A) (A) (A) (A) (A) (A)
                 (A) (A) (A) (A) (A) (A) (A) (A) (A) (A) (A) (A)
                 (A) (A) (A) (A) (A) (A) (A) (A) (A) (A) (A) (A)
                 (A) (A) (A) (A) (A) (A) (A) (A) (A) (A) (A) (A)
                 (A) (A) (A) (A) (A) (A) (A) (A) (A) (A) (A) (A)
                 (A) (A) (A)
 The electronic state is 1-A.
 Alpha  occ. eigenvalues --  -19.23254 -19.19806 -19.13702 -14.37606 -10.34553
 Alpha  occ. eigenvalues --   -1.16762  -1.05268  -0.95935  -0.89806  -0.63810
 Alpha  occ. eigenvalues --   -0.58909  -0.54184  -0.48482  -0.47999  -0.43148
 Alpha  occ. eigenvalues --   -0.39029  -0.38145  -0.30799  -0.30032  -0.26644
 Alpha virt. eigenvalues --    0.01349   0.03901   0.07226   0.11777   0.14444
 Alpha virt. eigenvalues --    0.21064   0.31115   0.35110   0.39615   0.48054
 Alpha virt. eigenvalues --    0.49004   0.53858   0.55710   0.58513   0.65040
 Alpha virt. eigenvalues --    0.65940   0.68808   0.70923   0.73989   0.77811
 Alpha virt. eigenvalues --    0.78513   0.81756   0.83351   0.84733   0.87986
 Alpha virt. eigenvalues --    0.88776   0.92758   0.95512   0.98168   1.00996
 Alpha virt. eigenvalues --    1.01064   1.04923   1.07955   1.08221   1.13450
 Alpha virt. eigenvalues --    1.19965   1.23008   1.30666   1.36219   1.40381
 Alpha virt. eigenvalues --    1.41098   1.45483   1.50556   1.53535   1.57617
 Alpha virt. eigenvalues --    1.61449   1.72969   1.77330   1.79816   1.86090
 Alpha virt. eigenvalues --    1.87486   1.95419   2.04346   2.10324   2.22262
 Alpha virt. eigenvalues --    2.26167   2.34479   2.44270   2.53400   2.66825
 Alpha virt. eigenvalues --    2.76098   2.86639   2.89143   2.94611   2.96964
 Alpha virt. eigenvalues --    3.01889   3.03293   3.12068   3.19717   3.22223
 Alpha virt. eigenvalues --    3.45408   3.56826   3.66736   3.84955   3.94698
 Alpha virt. eigenvalues --    3.96984   4.00321   4.02088   4.08813   4.11111
 Alpha virt. eigenvalues --    4.12365   4.14949   4.17708   4.22646   4.24540
 Alpha virt. eigenvalues --    4.25845   4.27508   4.30103   4.32605   4.33352
 Alpha virt. eigenvalues --    4.37508   4.39658   4.42166   4.46700   4.48368
 Alpha virt. eigenvalues --    4.56575   4.57344   4.60056   4.61766   4.74029
 Alpha virt. eigenvalues --    4.76784   4.80586   4.89268   4.91369   5.00272
 Alpha virt. eigenvalues --    5.07612   5.09537   5.14451   5.27189   5.35265
 Alpha virt. eigenvalues --    5.40232   5.43763   5.45834   5.51838   5.52863
 Alpha virt. eigenvalues --    5.69944   5.75482   5.77862   5.81663   5.87759
 Alpha virt. eigenvalues --    6.00220   6.18994   6.23678   6.27107   6.44413
 Alpha virt. eigenvalues --    6.67815   6.76512   6.83339   7.28103  10.16114
 Alpha virt. eigenvalues --   11.26388  12.50306  12.97983  13.38482  13.56602
          Condensed to atoms (all electrons):
               1          2          3          4          5          6
     1  N    6.534548   0.424024  -0.026588  -0.051689   0.000907   0.341576
     2  C    0.424024   4.029031   0.705847   0.381813  -0.057497  -0.015226
     3  O   -0.026588   0.705847   7.758520  -0.060879  -0.023217   0.001286
     4  O   -0.051689   0.381813  -0.060879   7.796136   0.144055   0.002570
     5  O    0.000907  -0.057497  -0.023217   0.144055   7.955953  -0.000091
     6  H    0.341576  -0.015226   0.001286   0.002570  -0.000091   0.409102
     7  H    0.343656  -0.025319   0.002546   0.005429  -0.000145  -0.022339
     8  H    0.001451  -0.013056   0.058894  -0.046781   0.280212  -0.000077
               7          8
     1  N    0.343656   0.001451
     2  C   -0.025319  -0.013056
     3  O    0.002546   0.058894
     4  O    0.005429  -0.046781
     5  O   -0.000145   0.280212
     6  H   -0.022339  -0.000077
     7  H    0.415871  -0.000113
     8  H   -0.000113   0.398342
 Mulliken charges:
               1
     1  N   -0.567886
     2  C    0.570384
     3  O   -0.416408
     4  O   -0.170655
     5  O   -0.300176
     6  H    0.283200
     7  H    0.280413
     8  H    0.321128
 Sum of Mulliken charges =  -0.00000
 Mulliken charges with hydrogens summed into heavy atoms:
               1
     1  N   -0.004273
     2  C    0.570384
     3  O   -0.416408
     4  O   -0.170655
     5  O    0.020952
 Electronic spatial extent (au):  <R**2>=            362.9895
 Charge=             -0.0000 electrons
 Dipole moment (field-independent basis, Debye):
    X=              3.0923    Y=             -1.0569    Z=              0.3957  Tot=              3.2918
 Quadrupole moment (field-independent basis, Debye-Ang):
   XX=            -22.4705   YY=            -28.7054   ZZ=            -28.4877
   XY=             -4.3813   XZ=              0.9330   YZ=             -0.2747
 Traceless Quadrupole moment (field-independent basis, Debye-Ang):
   XX=              4.0840   YY=             -2.1509   ZZ=             -1.9331
   XY=             -4.3813   XZ=              0.9330   YZ=             -0.2747
 Octapole moment (field-independent basis, Debye-Ang**2):
  XXX=             16.4625  YYY=             -8.6059  ZZZ=              0.3001  XYY=              0.7898
  XXY=              2.9140  XXZ=              2.1587  XZZ=             -2.0440  YZZ=              0.5359
  YYZ=              0.4303  XYZ=             -0.5028
 Hexadecapole moment (field-independent basis, Debye-Ang**3):
 XXXX=           -226.5476 YYYY=           -114.8006 ZZZZ=            -22.0043 XXXY=             -8.5270
 XXXZ=              5.1244 YYYX=            -10.3310 YYYZ=             -0.7122 ZZZX=              0.6653
 ZZZY=             -0.1913 XXYY=            -52.4299 XXZZ=            -52.3521 YYZZ=            -23.1774
 XXYZ=             -0.8404 YYXZ=              0.8579 ZZXY=              0.7811
 N-N= 1.845419640433D+02 E-N=-1.122979381987D+03  KE= 3.184573319204D+02
 No NMR shielding tensors so no spin-rotation constants.
 Leave Link  601 at Thu Sep  1 17:11:37 2022, MaxMem= 24159191040 cpu:        12.8
 (Enter /public/home/users/caep010/software/Gaussian09/g09/l701.exe)
 Compute integral first derivatives.
 ... and contract with generalized density number  0.
 Leave Link  701 at Thu Sep  1 17:11:37 2022, MaxMem= 24159191040 cpu:        15.9
 (Enter /public/home/users/caep010/software/Gaussian09/g09/l702.exe)
 L702 exits ... SP integral derivatives will be done elsewhere.
 Leave Link  702 at Thu Sep  1 17:11:37 2022, MaxMem= 24159191040 cpu:         0.8
 (Enter /public/home/users/caep010/software/Gaussian09/g09/l703.exe)
 Compute integral first derivatives, UseDBF=F ICtDFT=           0.
 Integral derivatives from FoFJK, PRISM(SPDF).
 Calling FoFJK, ICntrl=      2127 FMM=F ISym2X=0 I1Cent= 0 IOpClX= 0 NMat=1 NMatS=1 NMatT=0.
 FoFJK:  IHMeth= 1 ICntrl=    2127 DoSepK=F KAlg= 0 I1Cent=   0 FoldK=F
 IRaf=         0 NMat=   1 IRICut=       1 DoRegI=T DoRafI=F ISym2E= 0.
 FoFCou: FMM=F IPFlag=           0 FMFlag=      100000 FMFlg1=         800
         NFxFlg=           0 DoJE=F BraDBF=F KetDBF=F FulRan=T
         wScrn=  0.000000 ICntrl=    2127 IOpCl=  0 I1Cent=           0 NGrid=           0
         NMat0=    1 NMatS0=      1 NMatT0=    0 NMatD0=    1 NMtDS0=    0 NMtDT0=    0
 Symmetry not used in FoFCou.
 Leave Link  703 at Thu Sep  1 17:11:39 2022, MaxMem= 24159191040 cpu:        31.5
 (Enter /public/home/users/caep010/software/Gaussian09/g09/l716.exe)
 Dipole        = 1.21659033D+00-4.15799176D-01 1.55686808D-01
 ***** Axes restored to original set *****
 -------------------------------------------------------------------
 Center     Atomic                   Forces (Hartrees/Bohr)
 Number     Number              X              Y              Z
 -------------------------------------------------------------------
      1        7           0.000554335    0.000063875    0.000527324
      2        6          -0.000958336   -0.001060601   -0.000543240
      3        8           0.000001608    0.000907126    0.000438087
      4        8           0.000066477    0.000081088   -0.000102145
      5        8           0.000298833   -0.000371589   -0.000266535
      6        1          -0.000011824    0.000052419   -0.000097788
      7        1           0.000116266    0.000212717   -0.000118515
      8        1          -0.000067359    0.000114964    0.000162811
 -------------------------------------------------------------------
 Cartesian Forces:  Max     0.001060601 RMS     0.000427785
 Leave Link  716 at Thu Sep  1 17:11:39 2022, MaxMem= 24159191040 cpu:         1.1
 (Enter /public/home/users/caep010/software/Gaussian09/g09/l103.exe)

 GradGradGradGradGradGradGradGradGradGradGradGradGradGradGradGradGradGrad
 Berny optimization.
 FormGI is forming the generalized inverse of G from B-inverse, IUseBI=4.
 Internal  Forces:  Max     0.000882805 RMS     0.000351457
 Search for a local minimum.
 Step number   1 out of a maximum of   32
 All quantities printed in internal units (Hartrees-Bohrs-Radians)
 RMS Force = .35146D-03 SwitMx=.10000D-02 MixMth= 2
 Mixed Optimization -- En-DIIS/RFO-DIIS
 Second derivative matrix not updated -- first step.
 ITU=  0
     Eigenvalues ---    0.00848   0.02185   0.02268   0.02303   0.02687
     Eigenvalues ---    0.16000   0.16000   0.16000   0.24997   0.25000
     Eigenvalues ---    0.25000   0.40452   0.46749   0.46908   0.50216
     Eigenvalues ---    0.52402   0.54229   0.98577
 RFO step:  Lambda=-1.36898841D-05 EMin= 8.48057737D-03
 Linear search not attempted -- first point.
 Iteration  1 RMS(Cart)=  0.00645045 RMS(Int)=  0.00004464
 Iteration  2 RMS(Cart)=  0.00004069 RMS(Int)=  0.00000689
 Iteration  3 RMS(Cart)=  0.00000000 RMS(Int)=  0.00000689
 ITry= 1 IFail=0 DXMaxC= 1.50D-02 DCOld= 1.00D+10 DXMaxT= 3.00D-01 DXLimC= 3.00D+00 Rises=F
 Variable       Old X    -DE/DX   Delta X   Delta X   Delta X     New X
                                 (Linear)    (Quad)   (Total)
    R1        2.55824  -0.00071   0.00000  -0.00132  -0.00132   2.55692
    R2        1.89820   0.00000   0.00000   0.00001   0.00001   1.89821
    R3        1.89996  -0.00011   0.00000  -0.00024  -0.00024   1.89972
    R4        2.29214   0.00088   0.00000   0.00090   0.00090   2.29304
    R5        2.57516   0.00038   0.00000   0.00072   0.00072   2.57588
    R6        2.70944   0.00018   0.00000   0.00043   0.00043   2.70987
    R7        1.86348   0.00019   0.00000   0.00038   0.00038   1.86386
    A1        2.05178   0.00004   0.00000  -0.00059  -0.00061   2.05117
    A2        2.10070  -0.00017   0.00000  -0.00193  -0.00194   2.09876
    A3        2.08298   0.00004   0.00000  -0.00063  -0.00065   2.08233
    A4        2.21827  -0.00056   0.00000  -0.00223  -0.00223   2.21604
    A5        1.92383   0.00011   0.00000   0.00047   0.00046   1.92429
    A6        2.14091   0.00045   0.00000   0.00183   0.00183   2.14274
    A7        1.91446   0.00068   0.00000   0.00273   0.00273   1.91719
    A8        1.74063  -0.00013   0.00000  -0.00084  -0.00084   1.73979
    D1        0.18140   0.00005   0.00000   0.00134   0.00134   0.18274
    D2       -2.98018   0.00015   0.00000   0.00554   0.00553  -2.97464
    D3        2.99399  -0.00024   0.00000  -0.00929  -0.00928   2.98471
    D4       -0.16758  -0.00014   0.00000  -0.00509  -0.00509  -0.17267
    D5       -3.11614   0.00010   0.00000   0.00460   0.00459  -3.11155
    D6        0.00652   0.00018   0.00000   0.00852   0.00853   0.01504
    D7       -0.00641   0.00010   0.00000   0.01235   0.01235   0.00594
         Item               Value     Threshold  Converged?
 Maximum Force            0.000883     0.000450     NO 
 RMS     Force            0.000351     0.000300     NO 
 Maximum Displacement     0.014983     0.001800     NO 
 RMS     Displacement     0.006456     0.001200     NO 
 Predicted change in Energy=-6.837253D-06
 Lowest energy point so far.  Saving SCF results.
 GradGradGradGradGradGradGradGradGradGradGradGradGradGradGradGradGradGrad

 Leave Link  103 at Thu Sep  1 17:11:39 2022, MaxMem= 24159191040 cpu:         2.1
 (Enter /public/home/users/caep010/software/Gaussian09/g09/l202.exe)
                          Input orientation:                          
 ---------------------------------------------------------------------
 Center     Atomic      Atomic             Coordinates (Angstroms)
 Number     Number       Type             X           Y           Z
 ---------------------------------------------------------------------
      1          7           0       -1.379058   -0.099062    0.145617
      2          6           0       -0.052000    0.164718    0.156578
      3          8           0        0.509509    1.058145    0.755652
      4          8           0        0.616477   -0.746159   -0.605969
      5          8           0        2.025195   -0.482767   -0.555951
      6          1           0       -1.991952    0.586514    0.549778
      7          1           0       -1.754656   -0.780791   -0.490602
      8          1           0        2.026485    0.299401    0.044897
 ---------------------------------------------------------------------
                    Distance matrix (angstroms):
                    1          2          3          4          5
     1  N    0.000000
     2  C    1.353064   0.000000
     3  O    2.297380   1.213423   0.000000
     4  O    2.228402   1.363098   2.262956   0.000000
     5  O    3.496908   2.289470   2.528245   1.434003   0.000000
     6  H    1.004490   2.023841   2.553845   3.148915   4.301566
     7  H    1.005287   2.052283   3.171952   2.374191   3.792145
     8  H    3.430253   2.085836   1.839044   1.872150   0.986310
                    6          7          8
     6  H    0.000000
     7  H    1.734423   0.000000
     8  H    4.060193   3.968703   0.000000
 Stoichiometry    CH3NO3
 Framework group  C1[X(CH3NO3)]
 Deg. of freedom    18
 Full point group                 C1      NOp   1
 RotChk:  IX=0 Diff= 4.65D-03
 Largest Abelian subgroup         C1      NOp   1
 Largest concise Abelian subgroup C1      NOp   1
                         Standard orientation:                         
 ---------------------------------------------------------------------
 Center     Atomic      Atomic             Coordinates (Angstroms)
 Number     Number       Type             X           Y           Z
 ---------------------------------------------------------------------
      1          7           0        1.668278   -0.447771   -0.036251
      2          6           0        0.450305    0.140583   -0.002122
      3          8           0        0.214822    1.330915    0.004917
      4          8           0       -0.530816   -0.805669    0.004593
      5          8           0       -1.817612   -0.172818    0.000286
      6          1           0        2.471383    0.139144    0.103585
      7          1           0        1.755090   -1.440444    0.096659
      8          1           0       -1.537395    0.772768   -0.012130
 ---------------------------------------------------------------------
 Rotational constants (GHZ):     11.2773869      4.5426172      3.2397610
 Leave Link  202 at Thu Sep  1 17:11:39 2022, MaxMem= 24159191040 cpu:         0.2
 (Enter /public/home/users/caep010/software/Gaussian09/g09/l301.exe)
 Standard basis: GTBas3 (6D, 7F)
 Ernie: Thresh=  0.10000D-02 Tol=  0.10000D-05 Strict=F.
 There are   170 symmetry adapted cartesian basis functions of A   symmetry.
 There are   155 symmetry adapted basis functions of A   symmetry.
   155 basis functions,   241 primitive gaussians,   170 cartesian basis functions
    20 alpha electrons       20 beta electrons
       nuclear repulsion energy       184.4733168482 Hartrees.
 IExCor=  402 DFT=T Ex+Corr=B3LYP ExCW=0 ScaHFX=  0.200000
 ScaDFX=  0.800000  0.720000  1.000000  0.810000 ScalE2=  1.000000  1.000000
 IRadAn=      0 IRanWt=     -1 IRanGd=            0 ICorTp=0 IEmpDi=  4
 NAtoms=    8 NActive=    8 NUniq=    8 SFac= 1.00D+00 NAtFMM=   60 NAOKFM=F Big=F
 Integral buffers will be    131072 words long.
 Raffenetti 2 integral format.
 Two-electron integral symmetry is turned on.
 Leave Link  301 at Thu Sep  1 17:11:39 2022, MaxMem= 24159191040 cpu:         1.9
 (Enter /public/home/users/caep010/software/Gaussian09/g09/l302.exe)
 NPDir=0 NMtPBC=     1 NCelOv=     1 NCel=       1 NClECP=     1 NCelD=      1
         NCelK=      1 NCelE2=     1 NClLst=     1 CellRange=     0.0.
 One-electron integrals computed using PRISM.
 NBasis=   155 RedAO= T EigKep=  4.00D-04  NBF=   155
 NBsUse=   155 1.00D-06 EigRej= -1.00D+00 NBFU=   155
 Precomputing XC quadrature grid using
 IXCGrd= 4 IRadAn=           0 IRanWt=          -1 IRanGd=           0 AccXCQ= 0.00D+00.
 Generated NRdTot=       0 NPtTot=           0 NUsed=           0 NTot=          32
 NSgBfM=   170   170   170   170   170 MxSgAt=     8 MxSgA2=     8.
 Leave Link  302 at Thu Sep  1 17:11:40 2022, MaxMem= 24159191040 cpu:        14.1
 (Enter /public/home/users/caep010/software/Gaussian09/g09/l303.exe)
 DipDrv:  MaxL=1.
 Leave Link  303 at Thu Sep  1 17:11:40 2022, MaxMem= 24159191040 cpu:         0.8
 (Enter /public/home/users/caep010/software/Gaussian09/g09/l401.exe)
 Initial guess from the checkpoint file:  "G4.Frag_1097.chk"
 B after Tr=    -0.000000    0.000000   -0.000000
         Rot=    0.999999    0.000003    0.000001    0.001095 Ang=   0.13 deg.
 Guess basis will be translated and rotated to current coordinates.
 JPrj=2 DoOrth=T DoCkMO=T.
 Leave Link  401 at Thu Sep  1 17:11:40 2022, MaxMem= 24159191040 cpu:         3.3
 (Enter /public/home/users/caep010/software/Gaussian09/g09/l502.exe)
 Closed shell SCF:
 Using DIIS extrapolation, IDIIS=  1040.
 Integral symmetry usage will be decided dynamically.
 Keep R1 ints in memory in canonical form, NReq=75702035.
 IVT=      111920 IEndB=      111920 NGot= 24159191040 MDV= 24085989026
 LenX= 24085989026 LenY= 24085959685
 Requested convergence on RMS density matrix=1.00D-08 within 128 cycles.
 Requested convergence on MAX density matrix=1.00D-06.
 Requested convergence on             energy=1.00D-06.
 No special actions if energy rises.
 FoFCou: FMM=F IPFlag=           0 FMFlag=           0 FMFlg1=           0
         NFxFlg=           0 DoJE=F BraDBF=F KetDBF=F FulRan=T
         wScrn=  0.000000 ICntrl=     600 IOpCl=  0 I1Cent=           0 NGrid=           0
         NMat0=    1 NMatS0=  12090 NMatT0=    0 NMatD0=    1 NMtDS0=    0 NMtDT0=    0
 Symmetry not used in FoFCou.

 Cycle   1  Pass 1  IDiag  1:
 E= -320.288961720376    
 DIIS: error= 4.96D-04 at cycle   1 NSaved=   1.
 NSaved= 1 IEnMin= 1 EnMin= -320.288961720376     IErMin= 1 ErrMin= 4.96D-04
 ErrMax= 4.96D-04  0.00D+00 EMaxC= 1.00D-01 BMatC= 4.45D-05 BMatP= 4.45D-05
 IDIUse=3 WtCom= 9.95D-01 WtEn= 4.96D-03
 Coeff-Com:  0.100D+01
 Coeff-En:   0.100D+01
 Coeff:      0.100D+01
 Gap=     0.872 Goal=   None    Shift=    0.000
 RMSDP=7.59D-05 MaxDP=3.26D-03              OVMax= 3.02D-03

 Cycle   2  Pass 1  IDiag  1:
 E= -320.289017785411     Delta-E=       -0.000056065035 Rises=F Damp=F
 DIIS: error= 5.09D-05 at cycle   2 NSaved=   2.
 NSaved= 2 IEnMin= 2 EnMin= -320.289017785411     IErMin= 2 ErrMin= 5.09D-05
 ErrMax= 5.09D-05  0.00D+00 EMaxC= 1.00D-01 BMatC= 1.11D-06 BMatP= 4.45D-05
 IDIUse=1 WtCom= 1.00D+00 WtEn= 0.00D+00
 Coeff-Com: -0.310D-01 0.103D+01
 Coeff:     -0.310D-01 0.103D+01
 Gap=     0.280 Goal=   None    Shift=    0.000
 RMSDP=1.39D-05 MaxDP=5.91D-04 DE=-5.61D-05 OVMax= 7.61D-04

 Cycle   3  Pass 1  IDiag  1:
 E= -320.289016390858     Delta-E=        0.000001394553 Rises=F Damp=F
 DIIS: error= 1.06D-04 at cycle   3 NSaved=   3.
 NSaved= 3 IEnMin= 2 EnMin= -320.289017785411     IErMin= 2 ErrMin= 5.09D-05
 ErrMax= 1.06D-04  0.00D+00 EMaxC= 1.00D-01 BMatC= 3.55D-06 BMatP= 1.11D-06
 IDIUse=3 WtCom= 4.92D-01 WtEn= 5.08D-01
 Coeff-Com: -0.423D-01 0.691D+00 0.351D+00
 Coeff-En:   0.000D+00 0.693D+00 0.307D+00
 Coeff:     -0.208D-01 0.692D+00 0.329D+00
 Gap=     0.280 Goal=   None    Shift=    0.000
 RMSDP=8.52D-06 MaxDP=4.20D-04 DE= 1.39D-06 OVMax= 5.66D-04

 Cycle   4  Pass 1  IDiag  1:
 E= -320.289018970397     Delta-E=       -0.000002579539 Rises=F Damp=F
 DIIS: error= 7.90D-06 at cycle   4 NSaved=   4.
 NSaved= 4 IEnMin= 4 EnMin= -320.289018970397     IErMin= 4 ErrMin= 7.90D-06
 ErrMax= 7.90D-06  0.00D+00 EMaxC= 1.00D-01 BMatC= 2.31D-08 BMatP= 1.11D-06
 IDIUse=1 WtCom= 1.00D+00 WtEn= 0.00D+00
 Coeff-Com: -0.100D-01 0.107D+00 0.892D-01 0.814D+00
 Coeff:     -0.100D-01 0.107D+00 0.892D-01 0.814D+00
 Gap=     0.280 Goal=   None    Shift=    0.000
 RMSDP=1.22D-06 MaxDP=4.62D-05 DE=-2.58D-06 OVMax= 5.99D-05

 Cycle   5  Pass 1  IDiag  1:
 E= -320.289018978008     Delta-E=       -0.000000007611 Rises=F Damp=F
 DIIS: error= 7.19D-06 at cycle   5 NSaved=   5.
 NSaved= 5 IEnMin= 5 EnMin= -320.289018978008     IErMin= 5 ErrMin= 7.19D-06
 ErrMax= 7.19D-06  0.00D+00 EMaxC= 1.00D-01 BMatC= 1.91D-08 BMatP= 2.31D-08
 IDIUse=1 WtCom= 1.00D+00 WtEn= 0.00D+00
 Coeff-Com: -0.189D-02-0.282D-02 0.209D-01 0.519D+00 0.465D+00
 Coeff:     -0.189D-02-0.282D-02 0.209D-01 0.519D+00 0.465D+00
 Gap=     0.280 Goal=   None    Shift=    0.000
 RMSDP=6.46D-07 MaxDP=2.70D-05 DE=-7.61D-09 OVMax= 3.52D-05

 Cycle   6  Pass 1  IDiag  1:
 E= -320.289018990751     Delta-E=       -0.000000012743 Rises=F Damp=F
 DIIS: error= 1.50D-06 at cycle   6 NSaved=   6.
 NSaved= 6 IEnMin= 6 EnMin= -320.289018990751     IErMin= 6 ErrMin= 1.50D-06
 ErrMax= 1.50D-06  0.00D+00 EMaxC= 1.00D-01 BMatC= 1.20D-09 BMatP= 1.91D-08
 IDIUse=1 WtCom= 1.00D+00 WtEn= 0.00D+00
 Coeff-Com:  0.465D-03-0.174D-01-0.316D-02 0.149D+00 0.246D+00 0.625D+00
 Coeff:      0.465D-03-0.174D-01-0.316D-02 0.149D+00 0.246D+00 0.625D+00
 Gap=     0.280 Goal=   None    Shift=    0.000
 RMSDP=1.56D-07 MaxDP=5.33D-06 DE=-1.27D-08 OVMax= 6.73D-06

 Cycle   7  Pass 1  IDiag  1:
 E= -320.289018991628     Delta-E=       -0.000000000877 Rises=F Damp=F
 DIIS: error= 2.30D-07 at cycle   7 NSaved=   7.
 NSaved= 7 IEnMin= 7 EnMin= -320.289018991628     IErMin= 7 ErrMin= 2.30D-07
 ErrMax= 2.30D-07  0.00D+00 EMaxC= 1.00D-01 BMatC= 2.84D-11 BMatP= 1.20D-09
 IDIUse=1 WtCom= 1.00D+00 WtEn= 0.00D+00
 Coeff-Com:  0.281D-03-0.676D-02-0.259D-02 0.286D-01 0.676D-01 0.219D+00
 Coeff-Com:  0.694D+00
 Coeff:      0.281D-03-0.676D-02-0.259D-02 0.286D-01 0.676D-01 0.219D+00
 Coeff:      0.694D+00
 Gap=     0.280 Goal=   None    Shift=    0.000
 RMSDP=3.75D-08 MaxDP=1.42D-06 DE=-8.77D-10 OVMax= 2.07D-06

 Cycle   8  Pass 1  IDiag  1:
 E= -320.289018991646     Delta-E=       -0.000000000018 Rises=F Damp=F
 DIIS: error= 1.11D-07 at cycle   8 NSaved=   8.
 NSaved= 8 IEnMin= 8 EnMin= -320.289018991646     IErMin= 8 ErrMin= 1.11D-07
 ErrMax= 1.11D-07  0.00D+00 EMaxC= 1.00D-01 BMatC= 5.32D-12 BMatP= 2.84D-11
 IDIUse=1 WtCom= 1.00D+00 WtEn= 0.00D+00
 Coeff-Com:  0.790D-04-0.119D-02-0.869D-03-0.364D-02 0.270D-02 0.268D-01
 Coeff-Com:  0.323D+00 0.654D+00
 Coeff:      0.790D-04-0.119D-02-0.869D-03-0.364D-02 0.270D-02 0.268D-01
 Coeff:      0.323D+00 0.654D+00
 Gap=     0.280 Goal=   None    Shift=    0.000
 RMSDP=1.48D-08 MaxDP=5.31D-07 DE=-1.77D-11 OVMax= 9.32D-07

 Cycle   9  Pass 1  IDiag  1:
 E= -320.289018991652     Delta-E=       -0.000000000007 Rises=F Damp=F
 DIIS: error= 4.42D-08 at cycle   9 NSaved=   9.
 NSaved= 9 IEnMin= 9 EnMin= -320.289018991652     IErMin= 9 ErrMin= 4.42D-08
 ErrMax= 4.42D-08  0.00D+00 EMaxC= 1.00D-01 BMatC= 6.77D-13 BMatP= 5.32D-12
 IDIUse=1 WtCom= 1.00D+00 WtEn= 0.00D+00
 Coeff-Com:  0.992D-05 0.140D-03-0.117D-03-0.469D-02-0.601D-02-0.113D-01
 Coeff-Com:  0.804D-01 0.326D+00 0.615D+00
 Coeff:      0.992D-05 0.140D-03-0.117D-03-0.469D-02-0.601D-02-0.113D-01
 Coeff:      0.804D-01 0.326D+00 0.615D+00
 Gap=     0.280 Goal=   None    Shift=    0.000
 RMSDP=4.96D-09 MaxDP=1.16D-07 DE=-6.54D-12 OVMax= 2.80D-07

 SCF Done:  E(RB3LYP) =  -320.289018992     A.U. after    9 cycles
            NFock=  9  Conv=0.50D-08     -V/T= 2.0058
 KE= 3.184549991388D+02 PE=-1.122839779367D+03 EE= 2.996224443885D+02
 Leave Link  502 at Thu Sep  1 17:11:42 2022, MaxMem= 24159191040 cpu:        41.9
 (Enter /public/home/users/caep010/software/Gaussian09/g09/l701.exe)
 Compute integral first derivatives.
 ... and contract with generalized density number  0.
 Leave Link  701 at Thu Sep  1 17:11:43 2022, MaxMem= 24159191040 cpu:        18.6
 (Enter /public/home/users/caep010/software/Gaussian09/g09/l702.exe)
 L702 exits ... SP integral derivatives will be done elsewhere.
 Leave Link  702 at Thu Sep  1 17:11:43 2022, MaxMem= 24159191040 cpu:         0.5
 (Enter /public/home/users/caep010/software/Gaussian09/g09/l703.exe)
 Compute integral first derivatives, UseDBF=F ICtDFT=           0.
 Integral derivatives from FoFJK, PRISM(SPDF).
 Calling FoFJK, ICntrl=      2127 FMM=F ISym2X=0 I1Cent= 0 IOpClX= 0 NMat=1 NMatS=1 NMatT=0.
 FoFJK:  IHMeth= 1 ICntrl=    2127 DoSepK=F KAlg= 0 I1Cent=   0 FoldK=F
 IRaf=         0 NMat=   1 IRICut=       1 DoRegI=T DoRafI=F ISym2E= 0.
 FoFCou: FMM=F IPFlag=           0 FMFlag=      100000 FMFlg1=         800
         NFxFlg=           0 DoJE=F BraDBF=F KetDBF=F FulRan=T
         wScrn=  0.000000 ICntrl=    2127 IOpCl=  0 I1Cent=           0 NGrid=           0
         NMat0=    1 NMatS0=      1 NMatT0=    0 NMatD0=    1 NMtDS0=    0 NMtDT0=    0
 Symmetry not used in FoFCou.
 Leave Link  703 at Thu Sep  1 17:11:44 2022, MaxMem= 24159191040 cpu:        29.6
 (Enter /public/home/users/caep010/software/Gaussian09/g09/l716.exe)
 Dipole        = 1.21004582D+00-4.19494688D-01 1.48085876D-01
 ***** Axes restored to original set *****
 -------------------------------------------------------------------
 Center     Atomic                   Forces (Hartrees/Bohr)
 Number     Number              X              Y              Z
 -------------------------------------------------------------------
      1        7           0.000036686   -0.000415245    0.000381277
      2        6           0.000010715    0.000429012   -0.000728410
      3        8           0.000372019   -0.000313277    0.000294310
      4        8          -0.000183546   -0.000241646    0.000163110
      5        8          -0.000200602    0.000219379    0.000376870
      6        1          -0.000002043    0.000111625   -0.000109716
      7        1          -0.000084210    0.000046052   -0.000150829
      8        1           0.000050980    0.000164101   -0.000226612
 -------------------------------------------------------------------
 Cartesian Forces:  Max     0.000728410 RMS     0.000277149
 Leave Link  716 at Thu Sep  1 17:11:44 2022, MaxMem= 24159191040 cpu:         0.6
 (Enter /public/home/users/caep010/software/Gaussian09/g09/l103.exe)

 GradGradGradGradGradGradGradGradGradGradGradGradGradGradGradGradGradGrad
 Berny optimization.
 Using GEDIIS/GDIIS optimizer.
 FormGI is forming the generalized inverse of G from B-inverse, IUseBI=4.
 Internal  Forces:  Max     0.000980799 RMS     0.000316938
 Search for a local minimum.
 Step number   2 out of a maximum of   32
 All quantities printed in internal units (Hartrees-Bohrs-Radians)
 RMS Force = .31694D-03 SwitMx=.10000D-02 MixMth= 2
 Mixed Optimization -- En-DIIS/RFO-DIIS
 Swapping is turned off.
 Update second derivatives using D2CorX and points    1    2
 DE=  3.98D-07 DEPred=-6.84D-06 R=-5.82D-02
 Trust test=-5.82D-02 RLast= 2.04D-02 DXMaxT set to 1.50D-01
 ITU= -1  0
     Eigenvalues ---    0.01096   0.01785   0.02247   0.02350   0.03963
     Eigenvalues ---    0.15954   0.16000   0.16116   0.24339   0.25000
     Eigenvalues ---    0.34117   0.40514   0.46826   0.46922   0.50038
     Eigenvalues ---    0.52761   0.54825   0.95363
 En-DIIS/RFO-DIIS IScMMF=        0 using points:     2    1
 RFO step:  Lambda=-4.93060031D-06.
 NNeg= 0 NP= 2 Switch=  2.50D-03 Rises=F DC= -3.98D-07 SmlDif=  1.00D-05
 RMS Error=  0.8737234460D-03 NUsed= 2 EDIIS=F
 DidBck=T Rises=F RFO-DIIS coefs:    0.48742    0.51258
 Iteration  1 RMS(Cart)=  0.00762398 RMS(Int)=  0.00009100
 Iteration  2 RMS(Cart)=  0.00007733 RMS(Int)=  0.00000486
 Iteration  3 RMS(Cart)=  0.00000000 RMS(Int)=  0.00000486
 ITry= 1 IFail=0 DXMaxC= 2.15D-02 DCOld= 1.00D+10 DXMaxT= 1.50D-01 DXLimC= 3.00D+00 Rises=F
 Variable       Old X    -DE/DX   Delta X   Delta X   Delta X     New X
                                 (Linear)    (Quad)   (Total)
    R1        2.55692   0.00010   0.00067  -0.00150  -0.00082   2.55610
    R2        1.89821   0.00003  -0.00000   0.00004   0.00004   1.89825
    R3        1.89972   0.00010   0.00012  -0.00019  -0.00007   1.89965
    R4        2.29304   0.00009  -0.00046   0.00112   0.00066   2.29370
    R5        2.57588  -0.00043  -0.00037   0.00047   0.00010   2.57598
    R6        2.70987  -0.00007  -0.00022   0.00044   0.00021   2.71009
    R7        1.86386  -0.00001  -0.00019   0.00045   0.00025   1.86411
    A1        2.05117  -0.00009   0.00031  -0.00139  -0.00109   2.05008
    A2        2.09876   0.00004   0.00100  -0.00259  -0.00160   2.09715
    A3        2.08233  -0.00002   0.00033  -0.00124  -0.00092   2.08141
    A4        2.21604   0.00030   0.00114  -0.00214  -0.00100   2.21504
    A5        1.92429   0.00013  -0.00024   0.00078   0.00054   1.92483
    A6        2.14274  -0.00044  -0.00094   0.00131   0.00037   2.14311
    A7        1.91719  -0.00098  -0.00140   0.00138  -0.00002   1.91717
    A8        1.73979   0.00014   0.00043  -0.00059  -0.00016   1.73964
    D1        0.18274   0.00032  -0.00069   0.00803   0.00734   0.19008
    D2       -2.97464  -0.00008  -0.00284   0.00454   0.00170  -2.97294
    D3        2.98471   0.00008   0.00476  -0.00901  -0.00426   2.98045
    D4       -0.17267  -0.00032   0.00261  -0.01251  -0.00990  -0.18257
    D5       -3.11155  -0.00010  -0.00235   0.00328   0.00093  -3.11062
    D6        0.01504  -0.00047  -0.00437  -0.00008  -0.00445   0.01059
    D7        0.00594  -0.00050  -0.00633  -0.01394  -0.02027  -0.01433
         Item               Value     Threshold  Converged?
 Maximum Force            0.000981     0.000450     NO 
 RMS     Force            0.000317     0.000300     NO 
 Maximum Displacement     0.021540     0.001800     NO 
 RMS     Displacement     0.007626     0.001200     NO 
 Predicted change in Energy=-8.388954D-06
 GradGradGradGradGradGradGradGradGradGradGradGradGradGradGradGradGradGrad

 Leave Link  103 at Thu Sep  1 17:11:44 2022, MaxMem= 24159191040 cpu:         0.9
 (Enter /public/home/users/caep010/software/Gaussian09/g09/l202.exe)
                          Input orientation:                          
 ---------------------------------------------------------------------
 Center     Atomic      Atomic             Coordinates (Angstroms)
 Number     Number       Type             X           Y           Z
 ---------------------------------------------------------------------
      1          7           0       -1.378977   -0.100229    0.146985
      2          6           0       -0.052226    0.162862    0.158092
      3          8           0        0.509156    1.054343    0.760883
      4          8           0        0.616812   -0.749279   -0.602541
      5          8           0        2.025714   -0.486574   -0.550855
      6          1           0       -1.990999    0.587618    0.548652
      7          1           0       -1.754298   -0.776902   -0.494714
      8          1           0        2.024818    0.308160    0.033499
 ---------------------------------------------------------------------
                    Distance matrix (angstroms):
                    1          2          3          4          5
     1  N    0.000000
     2  C    1.352630   0.000000
     3  O    2.296726   1.213773   0.000000
     4  O    2.228504   1.363149   2.263529   0.000000
     5  O    3.496879   2.289586   2.528839   1.434116   0.000000
     6  H    1.004511   2.022819   2.552186   3.148527   4.300789
     7  H    1.005251   2.050941   3.170679   2.373721   3.791560
     8  H    3.430084   2.085844   1.839322   1.872218   0.986444
                    6          7          8
     6  H    0.000000
     7  H    1.733942   0.000000
     8  H    4.058358   3.967125   0.000000
 Stoichiometry    CH3NO3
 Framework group  C1[X(CH3NO3)]
 Deg. of freedom    18
 Full point group                 C1      NOp   1
 RotChk:  IX=0 Diff= 2.06D-03
 Largest Abelian subgroup         C1      NOp   1
 Largest concise Abelian subgroup C1      NOp   1
                         Standard orientation:                         
 ---------------------------------------------------------------------
 Center     Atomic      Atomic             Coordinates (Angstroms)
 Number     Number       Type             X           Y           Z
 ---------------------------------------------------------------------
      1          7           0        1.667947   -0.448191   -0.036641
      2          6           0        0.450405    0.139975   -0.001161
      3          8           0        0.215962    1.330883    0.003136
      4          8           0       -0.531324   -0.805733    0.003377
      5          8           0       -1.817824   -0.172023   -0.000716
      6          1           0        2.470375    0.138970    0.106165
      7          1           0        1.753927   -1.440032    0.102609
      8          1           0       -1.536873    0.773523    0.008306
 ---------------------------------------------------------------------
 Rotational constants (GHZ):     11.2771872      4.5424053      3.2397054
 Leave Link  202 at Thu Sep  1 17:11:44 2022, MaxMem= 24159191040 cpu:         0.9
 (Enter /public/home/users/caep010/software/Gaussian09/g09/l301.exe)
 Standard basis: GTBas3 (6D, 7F)
 Ernie: Thresh=  0.10000D-02 Tol=  0.10000D-05 Strict=F.
 There are   170 symmetry adapted cartesian basis functions of A   symmetry.
 There are   155 symmetry adapted basis functions of A   symmetry.
   155 basis functions,   241 primitive gaussians,   170 cartesian basis functions
    20 alpha electrons       20 beta electrons
       nuclear repulsion energy       184.4691990817 Hartrees.
 IExCor=  402 DFT=T Ex+Corr=B3LYP ExCW=0 ScaHFX=  0.200000
 ScaDFX=  0.800000  0.720000  1.000000  0.810000 ScalE2=  1.000000  1.000000
 IRadAn=      0 IRanWt=     -1 IRanGd=            0 ICorTp=0 IEmpDi=  4
 NAtoms=    8 NActive=    8 NUniq=    8 SFac= 1.00D+00 NAtFMM=   60 NAOKFM=F Big=F
 Integral buffers will be    131072 words long.
 Raffenetti 2 integral format.
 Two-electron integral symmetry is turned on.
 Leave Link  301 at Thu Sep  1 17:11:44 2022, MaxMem= 24159191040 cpu:         1.5
 (Enter /public/home/users/caep010/software/Gaussian09/g09/l302.exe)
 NPDir=0 NMtPBC=     1 NCelOv=     1 NCel=       1 NClECP=     1 NCelD=      1
         NCelK=      1 NCelE2=     1 NClLst=     1 CellRange=     0.0.
 One-electron integrals computed using PRISM.
 NBasis=   155 RedAO= T EigKep=  4.00D-04  NBF=   155
 NBsUse=   155 1.00D-06 EigRej= -1.00D+00 NBFU=   155
 Precomputing XC quadrature grid using
 IXCGrd= 4 IRadAn=           0 IRanWt=          -1 IRanGd=           0 AccXCQ= 0.00D+00.
 Generated NRdTot=       0 NPtTot=           0 NUsed=           0 NTot=          32
 NSgBfM=   170   170   170   170   170 MxSgAt=     8 MxSgA2=     8.
 Leave Link  302 at Thu Sep  1 17:11:45 2022, MaxMem= 24159191040 cpu:        14.0
 (Enter /public/home/users/caep010/software/Gaussian09/g09/l303.exe)
 DipDrv:  MaxL=1.
 Leave Link  303 at Thu Sep  1 17:11:45 2022, MaxMem= 24159191040 cpu:         0.6
 (Enter /public/home/users/caep010/software/Gaussian09/g09/l401.exe)
 Initial guess from the checkpoint file:  "G4.Frag_1097.chk"
 B after Tr=     0.000000   -0.000000    0.000000
         Rot=    1.000000    0.000005    0.000002    0.000220 Ang=   0.03 deg.
 Guess basis will be translated and rotated to current coordinates.
 JPrj=2 DoOrth=T DoCkMO=T.
 Generating alternative initial guess.
 ExpMin= 1.61D-01 ExpMax= 5.48D+03 ExpMxC= 8.25D+02 IAcc=1 IRadAn=         1 AccDes= 0.00D+00
 Harris functional with IExCor=  402 and IRadAn=       1 diagonalized for initial guess.
 HarFok:  IExCor=  402 AccDes= 0.00D+00 IRadAn=         1 IDoV= 1 UseB2=F ITyADJ=14
 ICtDFT=  3500011 ScaDFX=  1.000000  1.000000  1.000000  1.000000
 FoFCou: FMM=F IPFlag=           0 FMFlag=      100000 FMFlg1=           0
         NFxFlg=           0 DoJE=T BraDBF=F KetDBF=T FulRan=T
         wScrn=  0.000000 ICntrl=     500 IOpCl=  0 I1Cent=   200000004 NGrid=           0
         NMat0=    1 NMatS0=      1 NMatT0=    0 NMatD0=    1 NMtDS0=    0 NMtDT0=    0
 Petite list used in FoFCou.
 Harris En= -320.306814088952    
 Leave Link  401 at Thu Sep  1 17:11:45 2022, MaxMem= 24159191040 cpu:        14.4
 (Enter /public/home/users/caep010/software/Gaussian09/g09/l502.exe)
 Closed shell SCF:
 Using DIIS extrapolation, IDIIS=  1040.
 Integral symmetry usage will be decided dynamically.
 Keep R1 ints in memory in canonical form, NReq=75702035.
 IVT=      111920 IEndB=      111920 NGot= 24159191040 MDV= 24085989026
 LenX= 24085989026 LenY= 24085959685
 Requested convergence on RMS density matrix=1.00D-08 within 128 cycles.
 Requested convergence on MAX density matrix=1.00D-06.
 Requested convergence on             energy=1.00D-06.
 No special actions if energy rises.
 FoFCou: FMM=F IPFlag=           0 FMFlag=           0 FMFlg1=           0
         NFxFlg=           0 DoJE=F BraDBF=F KetDBF=F FulRan=T
         wScrn=  0.000000 ICntrl=     600 IOpCl=  0 I1Cent=           0 NGrid=           0
         NMat0=    1 NMatS0=  12090 NMatT0=    0 NMatD0=    1 NMtDS0=    0 NMtDT0=    0
 Symmetry not used in FoFCou.
 Integral accuracy reduced to 1.0D-05 until final iterations.

 Cycle   1  Pass 0  IDiag  1:
 E= -320.288974263803    
 DIIS: error= 6.40D-04 at cycle   1 NSaved=   1.
 NSaved= 1 IEnMin= 1 EnMin= -320.288974263803     IErMin= 1 ErrMin= 6.40D-04
 ErrMax= 6.40D-04  0.00D+00 EMaxC= 1.00D-01 BMatC= 5.83D-05 BMatP= 5.83D-05
 IDIUse=3 WtCom= 9.94D-01 WtEn= 6.40D-03
 Coeff-Com:  0.100D+01
 Coeff-En:   0.100D+01
 Coeff:      0.100D+01
 Gap=     0.872 Goal=   None    Shift=    0.000
 RMSDP=8.85D-05 MaxDP=4.32D-03              OVMax= 3.83D-03

 Cycle   2  Pass 0  IDiag  1:
 E= -320.289043233345     Delta-E=       -0.000068969542 Rises=F Damp=F
 DIIS: error= 5.62D-05 at cycle   2 NSaved=   2.
 NSaved= 2 IEnMin= 2 EnMin= -320.289043233345     IErMin= 2 ErrMin= 5.62D-05
 ErrMax= 5.62D-05  0.00D+00 EMaxC= 1.00D-01 BMatC= 5.40D-07 BMatP= 5.83D-05
 IDIUse=1 WtCom= 1.00D+00 WtEn= 0.00D+00
 Coeff-Com: -0.533D-01 0.105D+01
 Coeff:     -0.533D-01 0.105D+01
 Gap=     0.280 Goal=   None    Shift=    0.000
 RMSDP=9.92D-06 MaxDP=4.00D-04 DE=-6.90D-05 OVMax= 5.92D-04

 Initial convergence to 1.0D-05 achieved.  Increase integral accuracy.
 Cycle   3  Pass 1  IDiag  1:
 E= -320.289024288982     Delta-E=        0.000018944364 Rises=F Damp=F
 DIIS: error= 2.93D-05 at cycle   1 NSaved=   1.
 NSaved= 1 IEnMin= 1 EnMin= -320.289024288982     IErMin= 1 ErrMin= 2.93D-05
 ErrMax= 2.93D-05  0.00D+00 EMaxC= 1.00D-01 BMatC= 3.85D-07 BMatP= 3.85D-07
 IDIUse=1 WtCom= 1.00D+00 WtEn= 0.00D+00
 Coeff-Com:  0.100D+01
 Coeff:      0.100D+01
 Gap=     0.280 Goal=   None    Shift=    0.000
 RMSDP=9.92D-06 MaxDP=4.00D-04 DE= 1.89D-05 OVMax= 3.83D-04

 Cycle   4  Pass 1  IDiag  1:
 E= -320.289023495966     Delta-E=        0.000000793015 Rises=F Damp=F
 DIIS: error= 6.55D-05 at cycle   2 NSaved=   2.
 NSaved= 2 IEnMin= 1 EnMin= -320.289024288982     IErMin= 1 ErrMin= 2.93D-05
 ErrMax= 6.55D-05  0.00D+00 EMaxC= 1.00D-01 BMatC= 1.50D-06 BMatP= 3.85D-07
 IDIUse=1 WtCom= 1.00D+00 WtEn= 0.00D+00
 Coeff-Com:  0.669D+00 0.331D+00
 Coeff:      0.669D+00 0.331D+00
 Gap=     0.280 Goal=   None    Shift=    0.000
 RMSDP=5.23D-06 MaxDP=2.31D-04 DE= 7.93D-07 OVMax= 2.92D-04

 Cycle   5  Pass 1  IDiag  1:
 E= -320.289024561289     Delta-E=       -0.000001065323 Rises=F Damp=F
 DIIS: error= 6.30D-06 at cycle   3 NSaved=   3.
 NSaved= 3 IEnMin= 3 EnMin= -320.289024561289     IErMin= 3 ErrMin= 6.30D-06
 ErrMax= 6.30D-06  0.00D+00 EMaxC= 1.00D-01 BMatC= 1.64D-08 BMatP= 3.85D-07
 IDIUse=1 WtCom= 1.00D+00 WtEn= 0.00D+00
 Coeff-Com:  0.252D+00 0.156D+00 0.593D+00
 Coeff:      0.252D+00 0.156D+00 0.593D+00
 Gap=     0.280 Goal=   None    Shift=    0.000
 RMSDP=6.87D-07 MaxDP=2.57D-05 DE=-1.07D-06 OVMax= 2.75D-05

 Cycle   6  Pass 1  IDiag  1:
 E= -320.289024573138     Delta-E=       -0.000000011849 Rises=F Damp=F
 DIIS: error= 1.74D-06 at cycle   4 NSaved=   4.
 NSaved= 4 IEnMin= 4 EnMin= -320.289024573138     IErMin= 4 ErrMin= 1.74D-06
 ErrMax= 1.74D-06  0.00D+00 EMaxC= 1.00D-01 BMatC= 1.29D-09 BMatP= 1.64D-08
 IDIUse=1 WtCom= 1.00D+00 WtEn= 0.00D+00
 Coeff-Com:  0.640D-01 0.451D-01 0.274D+00 0.617D+00
 Coeff:      0.640D-01 0.451D-01 0.274D+00 0.617D+00
 Gap=     0.280 Goal=   None    Shift=    0.000
 RMSDP=2.04D-07 MaxDP=9.92D-06 DE=-1.18D-08 OVMax= 1.07D-05

 Cycle   7  Pass 1  IDiag  1:
 E= -320.289024573900     Delta-E=       -0.000000000762 Rises=F Damp=F
 DIIS: error= 9.18D-07 at cycle   5 NSaved=   5.
 NSaved= 5 IEnMin= 5 EnMin= -320.289024573900     IErMin= 5 ErrMin= 9.18D-07
 ErrMax= 9.18D-07  0.00D+00 EMaxC= 1.00D-01 BMatC= 2.51D-10 BMatP= 1.29D-09
 IDIUse=1 WtCom= 1.00D+00 WtEn= 0.00D+00
 Coeff-Com: -0.736D-02-0.169D-02 0.540D-01 0.345D+00 0.610D+00
 Coeff:     -0.736D-02-0.169D-02 0.540D-01 0.345D+00 0.610D+00
 Gap=     0.280 Goal=   None    Shift=    0.000
 RMSDP=7.42D-08 MaxDP=2.53D-06 DE=-7.62D-10 OVMax= 3.54D-06

 Cycle   8  Pass 1  IDiag  1:
 E= -320.289024574070     Delta-E=       -0.000000000170 Rises=F Damp=F
 DIIS: error= 2.02D-07 at cycle   6 NSaved=   6.
 NSaved= 6 IEnMin= 6 EnMin= -320.289024574070     IErMin= 6 ErrMin= 2.02D-07
 ErrMax= 2.02D-07  0.00D+00 EMaxC= 1.00D-01 BMatC= 1.69D-11 BMatP= 2.51D-10
 IDIUse=1 WtCom= 1.00D+00 WtEn= 0.00D+00
 Coeff-Com: -0.651D-02-0.251D-02 0.231D-01 0.182D+00 0.358D+00 0.445D+00
 Coeff:     -0.651D-02-0.251D-02 0.231D-01 0.182D+00 0.358D+00 0.445D+00
 Gap=     0.280 Goal=   None    Shift=    0.000
 RMSDP=2.03D-08 MaxDP=7.10D-07 DE=-1.70D-10 OVMax= 1.07D-06

 Cycle   9  Pass 1  IDiag  1:
 E= -320.289024574079     Delta-E=       -0.000000000008 Rises=F Damp=F
 DIIS: error= 4.13D-08 at cycle   7 NSaved=   7.
 NSaved= 7 IEnMin= 7 EnMin= -320.289024574079     IErMin= 7 ErrMin= 4.13D-08
 ErrMax= 4.13D-08  0.00D+00 EMaxC= 1.00D-01 BMatC= 6.81D-13 BMatP= 1.69D-11
 IDIUse=1 WtCom= 1.00D+00 WtEn= 0.00D+00
 Coeff-Com: -0.117D-02-0.585D-03 0.148D-02 0.182D-01 0.458D-01 0.178D+00
 Coeff-Com:  0.758D+00
 Coeff:     -0.117D-02-0.585D-03 0.148D-02 0.182D-01 0.458D-01 0.178D+00
 Coeff:      0.758D+00
 Gap=     0.280 Goal=   None    Shift=    0.000
 RMSDP=5.90D-09 MaxDP=1.58D-07 DE=-8.19D-12 OVMax= 2.77D-07

 SCF Done:  E(RB3LYP) =  -320.289024574     A.U. after    9 cycles
            NFock=  9  Conv=0.59D-08     -V/T= 2.0058
 KE= 3.184549829795D+02 PE=-1.122830583566D+03 EE= 2.996173769304D+02
 Leave Link  502 at Thu Sep  1 17:11:48 2022, MaxMem= 24159191040 cpu:        47.3
 (Enter /public/home/users/caep010/software/Gaussian09/g09/l701.exe)
 Compute integral first derivatives.
 ... and contract with generalized density number  0.
 Leave Link  701 at Thu Sep  1 17:11:48 2022, MaxMem= 24159191040 cpu:        13.8
 (Enter /public/home/users/caep010/software/Gaussian09/g09/l702.exe)
 L702 exits ... SP integral derivatives will be done elsewhere.
 Leave Link  702 at Thu Sep  1 17:11:48 2022, MaxMem= 24159191040 cpu:         0.5
 (Enter /public/home/users/caep010/software/Gaussian09/g09/l703.exe)
 Compute integral first derivatives, UseDBF=F ICtDFT=           0.
 Integral derivatives from FoFJK, PRISM(SPDF).
 Calling FoFJK, ICntrl=      2127 FMM=F ISym2X=0 I1Cent= 0 IOpClX= 0 NMat=1 NMatS=1 NMatT=0.
 FoFJK:  IHMeth= 1 ICntrl=    2127 DoSepK=F KAlg= 0 I1Cent=   0 FoldK=F
 IRaf=         0 NMat=   1 IRICut=       1 DoRegI=T DoRafI=F ISym2E= 0.
 FoFCou: FMM=F IPFlag=           0 FMFlag=      100000 FMFlg1=         800
         NFxFlg=           0 DoJE=F BraDBF=F KetDBF=F FulRan=T
         wScrn=  0.000000 ICntrl=    2127 IOpCl=  0 I1Cent=           0 NGrid=           0
         NMat0=    1 NMatS0=      1 NMatT0=    0 NMatD0=    1 NMtDS0=    0 NMtDT0=    0
 Symmetry not used in FoFCou.
 Leave Link  703 at Thu Sep  1 17:11:49 2022, MaxMem= 24159191040 cpu:        28.2
 (Enter /public/home/users/caep010/software/Gaussian09/g09/l716.exe)
 Dipole        = 1.20873931D+00-4.19847482D-01 1.67577772D-01
 ***** Axes restored to original set *****
 -------------------------------------------------------------------
 Center     Atomic                   Forces (Hartrees/Bohr)
 Number     Number              X              Y              Z
 -------------------------------------------------------------------
      1        7          -0.000365016   -0.000474633    0.000130621
      2        6           0.000732374    0.000325650    0.000434483
      3        8           0.000287142   -0.000341708   -0.000519639
      4        8          -0.000210237    0.000079732   -0.000049030
      5        8          -0.000293007    0.000448352    0.000255472
      6        1          -0.000040249    0.000138606   -0.000112295
      7        1          -0.000196881   -0.000035556   -0.000181046
      8        1           0.000085873   -0.000140443    0.000041434
 -------------------------------------------------------------------
 Cartesian Forces:  Max     0.000732374 RMS     0.000303876
 Leave Link  716 at Thu Sep  1 17:11:49 2022, MaxMem= 24159191040 cpu:         0.6
 (Enter /public/home/users/caep010/software/Gaussian09/g09/l103.exe)

 GradGradGradGradGradGradGradGradGradGradGradGradGradGradGradGradGradGrad
 Berny optimization.
 Using GEDIIS/GDIIS optimizer.
 FormGI is forming the generalized inverse of G from B-inverse, IUseBI=4.
 Internal  Forces:  Max     0.001086733 RMS     0.000382598
 Search for a local minimum.
 Step number   3 out of a maximum of   32
 All quantities printed in internal units (Hartrees-Bohrs-Radians)
 RMS Force = .38260D-03 SwitMx=.10000D-02 MixMth= 2
 Mixed Optimization -- En-DIIS/RFO-DIIS
 Swapping is turned off.
 Update second derivatives using D2CorX and points    1    2    3
 DE= -5.58D-06 DEPred=-8.39D-06 R= 6.65D-01
 TightC=F SS=  1.41D+00  RLast= 2.47D-02 DXNew= 2.5227D-01 7.4203D-02
 Trust test= 6.65D-01 RLast= 2.47D-02 DXMaxT set to 1.50D-01
 ITU=  1 -1  0
     Eigenvalues ---    0.00788   0.01370   0.02241   0.02354   0.06662
     Eigenvalues ---    0.15989   0.16018   0.16172   0.24352   0.25065
     Eigenvalues ---    0.38560   0.41457   0.46883   0.47047   0.50147
     Eigenvalues ---    0.52760   0.74730   1.01985
 En-DIIS/RFO-DIIS IScMMF=        0 using points:     3    2    1
 RFO step:  Lambda=-4.19571030D-06.
 NNeg= 0 NP= 3 Switch=  2.50D-03 Rises=F DC= -3.98D-07 SmlDif=  1.00D-05
 RMS Error=  0.6042761643D-03 NUsed= 3 EDIIS=F
 DidBck=T Rises=F RFO-DIIS coefs:    0.69811    0.22730    0.07459
 Iteration  1 RMS(Cart)=  0.00312747 RMS(Int)=  0.00001590
 Iteration  2 RMS(Cart)=  0.00001409 RMS(Int)=  0.00001021
 Iteration  3 RMS(Cart)=  0.00000000 RMS(Int)=  0.00001021
 ITry= 1 IFail=0 DXMaxC= 6.29D-03 DCOld= 1.00D+10 DXMaxT= 1.50D-01 DXLimC= 3.00D+00 Rises=F
 Variable       Old X    -DE/DX   Delta X   Delta X   Delta X     New X
                                 (Linear)    (Quad)   (Total)
    R1        2.55610   0.00066   0.00035  -0.00052  -0.00018   2.55592
    R2        1.89825   0.00007  -0.00001   0.00014   0.00013   1.89838
    R3        1.89965   0.00021   0.00004   0.00013   0.00017   1.89982
    R4        2.29370  -0.00038  -0.00027   0.00073   0.00046   2.29416
    R5        2.57598  -0.00060  -0.00008  -0.00037  -0.00045   2.57553
    R6        2.71009  -0.00014  -0.00010   0.00015   0.00006   2.71014
    R7        1.86411  -0.00009  -0.00010   0.00027   0.00017   1.86428
    A1        2.05008  -0.00012   0.00037  -0.00220  -0.00185   2.04823
    A2        2.09715   0.00013   0.00063  -0.00219  -0.00159   2.09557
    A3        2.08141  -0.00008   0.00033  -0.00191  -0.00161   2.07979
    A4        2.21504   0.00058   0.00047  -0.00029   0.00018   2.21522
    A5        1.92483   0.00008  -0.00020   0.00092   0.00073   1.92555
    A6        2.14311  -0.00066  -0.00025  -0.00063  -0.00088   2.14224
    A7        1.91717  -0.00109  -0.00020  -0.00180  -0.00199   1.91518
    A8        1.73964   0.00014   0.00011   0.00012   0.00023   1.73986
    D1        0.19008   0.00004  -0.00232   0.00853   0.00621   0.19629
    D2       -2.97294   0.00021  -0.00093   0.00851   0.00758  -2.96537
    D3        2.98045  -0.00018   0.00198  -0.01139  -0.00941   2.97104
    D4       -0.18257  -0.00001   0.00337  -0.01141  -0.00804  -0.19061
    D5       -3.11062   0.00001  -0.00062   0.00286   0.00224  -3.10838
    D6        0.01059   0.00019   0.00071   0.00284   0.00355   0.01414
    D7       -0.01433   0.00023   0.00520  -0.00166   0.00354  -0.01080
         Item               Value     Threshold  Converged?
 Maximum Force            0.001087     0.000450     NO 
 RMS     Force            0.000383     0.000300     NO 
 Maximum Displacement     0.006293     0.001800     NO 
 RMS     Displacement     0.003130     0.001200     NO 
 Predicted change in Energy=-3.999078D-06
 Lowest energy point so far.  Saving SCF results.
 GradGradGradGradGradGradGradGradGradGradGradGradGradGradGradGradGradGrad

 Leave Link  103 at Thu Sep  1 17:11:49 2022, MaxMem= 24159191040 cpu:         0.8
 (Enter /public/home/users/caep010/software/Gaussian09/g09/l202.exe)
                          Input orientation:                          
 ---------------------------------------------------------------------
 Center     Atomic      Atomic             Coordinates (Angstroms)
 Number     Number       Type             X           Y           Z
 ---------------------------------------------------------------------
      1          7           0       -1.378548   -0.102856    0.150316
      2          6           0       -0.052110    0.161456    0.157860
      3          8           0        0.510157    1.054614    0.757832
      4          8           0        0.616532   -0.749752   -0.603812
      5          8           0        2.024947   -0.484489   -0.551146
      6          1           0       -1.989301    0.588694    0.547700
      7          1           0       -1.754461   -0.775397   -0.495506
      8          1           0        2.022783    0.307729    0.036758
 ---------------------------------------------------------------------
                    Distance matrix (angstroms):
                    1          2          3          4          5
     1  N    0.000000
     2  C    1.352537   0.000000
     3  O    2.296958   1.214018   0.000000
     4  O    2.228795   1.362911   2.262990   0.000000
     5  O    3.495922   2.287816   2.525242   1.434145   0.000000
     6  H    1.004577   2.021687   2.551181   3.147663   4.298066
     7  H    1.005339   2.050019   3.169903   2.373603   3.790996
     8  H    3.427905   2.083565   1.834618   1.872469   0.986532
                    6          7          8
     6  H    0.000000
     7  H    1.733255   0.000000
     8  H    4.054235   3.965355   0.000000
 Stoichiometry    CH3NO3
 Framework group  C1[X(CH3NO3)]
 Deg. of freedom    18
 Full point group                 C1      NOp   1
 RotChk:  IX=0 Diff= 2.58D-03
 Largest Abelian subgroup         C1      NOp   1
 Largest concise Abelian subgroup C1      NOp   1
                         Standard orientation:                         
 ---------------------------------------------------------------------
 Center     Atomic      Atomic             Coordinates (Angstroms)
 Number     Number       Type             X           Y           Z
 ---------------------------------------------------------------------
      1          7           0        1.668495   -0.446436   -0.038766
      2          6           0        0.450052    0.139546   -0.001648
      3          8           0        0.213299    1.330241    0.004152
      4          8           0       -0.530515   -0.807016    0.004433
      5          8           0       -1.816440   -0.172084   -0.000960
      6          1           0        2.468669    0.142514    0.109678
      7          1           0        1.755566   -1.437249    0.107567
      8          1           0       -1.534762    0.773372    0.002994
 ---------------------------------------------------------------------
 Rotational constants (GHZ):     11.2820654      4.5463690      3.2422895
 Leave Link  202 at Thu Sep  1 17:11:50 2022, MaxMem= 24159191040 cpu:         0.3
 (Enter /public/home/users/caep010/software/Gaussian09/g09/l301.exe)
 Standard basis: GTBas3 (6D, 7F)
 Ernie: Thresh=  0.10000D-02 Tol=  0.10000D-05 Strict=F.
 There are   170 symmetry adapted cartesian basis functions of A   symmetry.
 There are   155 symmetry adapted basis functions of A   symmetry.
   155 basis functions,   241 primitive gaussians,   170 cartesian basis functions
    20 alpha electrons       20 beta electrons
       nuclear repulsion energy       184.5104842469 Hartrees.
 IExCor=  402 DFT=T Ex+Corr=B3LYP ExCW=0 ScaHFX=  0.200000
 ScaDFX=  0.800000  0.720000  1.000000  0.810000 ScalE2=  1.000000  1.000000
 IRadAn=      0 IRanWt=     -1 IRanGd=            0 ICorTp=0 IEmpDi=  4
 NAtoms=    8 NActive=    8 NUniq=    8 SFac= 1.00D+00 NAtFMM=   60 NAOKFM=F Big=F
 Integral buffers will be    131072 words long.
 Raffenetti 2 integral format.
 Two-electron integral symmetry is turned on.
 Leave Link  301 at Thu Sep  1 17:11:50 2022, MaxMem= 24159191040 cpu:         1.9
 (Enter /public/home/users/caep010/software/Gaussian09/g09/l302.exe)
 NPDir=0 NMtPBC=     1 NCelOv=     1 NCel=       1 NClECP=     1 NCelD=      1
         NCelK=      1 NCelE2=     1 NClLst=     1 CellRange=     0.0.
 One-electron integrals computed using PRISM.
 NBasis=   155 RedAO= T EigKep=  3.99D-04  NBF=   155
 NBsUse=   155 1.00D-06 EigRej= -1.00D+00 NBFU=   155
 Precomputing XC quadrature grid using
 IXCGrd= 4 IRadAn=           0 IRanWt=          -1 IRanGd=           0 AccXCQ= 0.00D+00.
 Generated NRdTot=       0 NPtTot=           0 NUsed=           0 NTot=          32
 NSgBfM=   170   170   170   170   170 MxSgAt=     8 MxSgA2=     8.
 Leave Link  302 at Thu Sep  1 17:11:50 2022, MaxMem= 24159191040 cpu:        13.7
 (Enter /public/home/users/caep010/software/Gaussian09/g09/l303.exe)
 DipDrv:  MaxL=1.
 Leave Link  303 at Thu Sep  1 17:11:50 2022, MaxMem= 24159191040 cpu:         0.9
 (Enter /public/home/users/caep010/software/Gaussian09/g09/l401.exe)
 Initial guess from the checkpoint file:  "G4.Frag_1097.chk"
 B after Tr=     0.000000   -0.000000    0.000000
         Rot=    1.000000    0.000007    0.000003   -0.000452 Ang=   0.05 deg.
 Guess basis will be translated and rotated to current coordinates.
 JPrj=2 DoOrth=T DoCkMO=T.
 Leave Link  401 at Thu Sep  1 17:11:50 2022, MaxMem= 24159191040 cpu:         3.1
[...]
                 (A) (A) (A) (A) (A) (A) (A) (A) (A) (A) (A) (A)
                 (A) (A) (A) (A) (A) (A) (A) (A) (A) (A) (A) (A)
                 (A) (A) (A) (A) (A) (A) (A) (A) (A) (A) (A) (A)
                 (A) (A) (A) (A) (A) (A) (A) (A) (A) (A) (A) (A)
                 (A) (A) (A) (A) (A) (A) (A) (A) (A) (A) (A) (A)
                 (A) (A) (A) (A) (A) (A) (A) (A) (A) (A) (A) (A)
                 (A) (A) (A) (A) (A) (A) (A) (A) (A) (A) (A) (A)
                 (A) (A) (A) (A) (A) (A) (A) (A) (A) (A) (A) (A)
                 (A) (A) (A) (A) (A) (A) (A) (A) (A) (A) (A) (A)
                 (A) (A) (A) (A) (A) (A) (A) (A) (A) (A) (A) (A)
                 (A) (A) (A) (A) (A) (A) (A) (A) (A) (A) (A) (A)
                 (A) (A) (A) (A) (A) (A) (A) (A) (A) (A) (A) (A)
                 (A) (A) (A) (A) (A) (A) (A) (A) (A) (A) (A) (A)
                 (A) (A) (A) (A) (A) (A) (A) (A) (A) (A) (A) (A)
                 (A) (A) (A) (A) (A) (A) (A) (A) (A) (A) (A) (A)
                 (A) (A) (A) (A) (A) (A) (A) (A) (A) (A) (A) (A)
                 (A) (A) (A) (A) (A) (A) (A) (A) (A) (A) (A) (A)
                 (A) (A) (A) (A) (A) (A) (A) (A) (A) (A) (A) (A)
                 (A) (A) (A) (A) (A) (A) (A) (A) (A) (A) (A) (A)
                 (A) (A) (A) (A) (A) (A) (A) (A) (A) (A) (A) (A)
                 (A) (A) (A) (A) (A) (A) (A) (A) (A) (A) (A)
 The electronic state is 1-A.
 Alpha  occ. eigenvalues --  -20.66533 -20.64187 -20.55977 -15.61386 -11.43296
 Alpha  occ. eigenvalues --   -1.54086  -1.41118  -1.28692  -1.21357  -0.86008
 Alpha  occ. eigenvalues --   -0.79798  -0.74259  -0.70217  -0.68491  -0.61419
 Alpha  occ. eigenvalues --   -0.59556  -0.58360  -0.49887  -0.47672  -0.45800
 Alpha virt. eigenvalues --    0.03203   0.05610   0.05748   0.06158   0.08871
 Alpha virt. eigenvalues --    0.09173   0.10723   0.12305   0.13073   0.14219
 Alpha virt. eigenvalues --    0.14709   0.16045   0.16311   0.16706   0.17811
 Alpha virt. eigenvalues --    0.18598   0.20274   0.20535   0.22091   0.23273
 Alpha virt. eigenvalues --    0.24843   0.25773   0.27875   0.31297   0.33050
 Alpha virt. eigenvalues --    0.34254   0.34925   0.39828   0.40459   0.40787
 Alpha virt. eigenvalues --    0.42026   0.44070   0.45789   0.48010   0.48376
 Alpha virt. eigenvalues --    0.52407   0.53177   0.54022   0.55134   0.55899
 Alpha virt. eigenvalues --    0.57800   0.58537   0.59190   0.61092   0.61902
 Alpha virt. eigenvalues --    0.64011   0.67832   0.69813   0.71572   0.74782
 Alpha virt. eigenvalues --    0.77905   0.80265   0.83259   0.84022   0.86261
 Alpha virt. eigenvalues --    0.88672   0.91417   0.95718   0.96318   0.96857
 Alpha virt. eigenvalues --    0.98163   1.00355   1.02922   1.04824   1.07424
 Alpha virt. eigenvalues --    1.08254   1.09668   1.12680   1.14168   1.17211
 Alpha virt. eigenvalues --    1.18102   1.22342   1.23349   1.25289   1.28381
 Alpha virt. eigenvalues --    1.31799   1.36467   1.37300   1.37874   1.40758
 Alpha virt. eigenvalues --    1.41465   1.43144   1.47462   1.48149   1.48541
 Alpha virt. eigenvalues --    1.51012   1.51316   1.53769   1.54718   1.60885
 Alpha virt. eigenvalues --    1.61212   1.63392   1.64248   1.67551   1.71112
 Alpha virt. eigenvalues --    1.72111   1.76980   1.81138   1.85321   1.86854
 Alpha virt. eigenvalues --    1.91248   1.91395   1.97661   1.98156   2.02701
 Alpha virt. eigenvalues --    2.05955   2.06980   2.11585   2.12240   2.15821
 Alpha virt. eigenvalues --    2.16008   2.22059   2.26078   2.28663   2.29565
 Alpha virt. eigenvalues --    2.32559   2.33535   2.35680   2.39579   2.41177
 Alpha virt. eigenvalues --    2.43212   2.44852   2.46109   2.49049   2.50762
 Alpha virt. eigenvalues --    2.52197   2.53651   2.56686   2.57507   2.61448
 Alpha virt. eigenvalues --    2.63368   2.66800   2.68366   2.70318   2.73479
 Alpha virt. eigenvalues --    2.78385   2.81373   2.82074   2.83370   2.89449
 Alpha virt. eigenvalues --    2.89779   2.90952   2.94358   2.96123   2.98045
 Alpha virt. eigenvalues --    3.01956   3.03455   3.07782   3.08644   3.11363
 Alpha virt. eigenvalues --    3.12840   3.14267   3.15881   3.19098   3.21538
 Alpha virt. eigenvalues --    3.23438   3.26442   3.26808   3.29044   3.30868
 Alpha virt. eigenvalues --    3.32590   3.36211   3.37203   3.40000   3.42425
 Alpha virt. eigenvalues --    3.44332   3.48680   3.49431   3.52078   3.54259
 Alpha virt. eigenvalues --    3.55859   3.63575   3.66370   3.69826   3.70867
 Alpha virt. eigenvalues --    3.73542   3.76237   3.78985   3.81342   3.84856
 Alpha virt. eigenvalues --    3.86174   3.88373   3.92597   3.97976   4.00298
 Alpha virt. eigenvalues --    4.06607   4.08828   4.09719   4.11585   4.14995
 Alpha virt. eigenvalues --    4.17643   4.18537   4.20847   4.21829   4.31468
 Alpha virt. eigenvalues --    4.33737   4.37419   4.41143   4.46209   4.49017
 Alpha virt. eigenvalues --    4.51542   4.53324   4.57047   4.65884   4.69650
 Alpha virt. eigenvalues --    4.74299   4.76890   4.80137   4.82299   4.89730
 Alpha virt. eigenvalues --    4.96685   4.98341   5.02538   5.11617   5.14478
 Alpha virt. eigenvalues --    5.17248   5.20334   5.28136   5.36674   5.38144
 Alpha virt. eigenvalues --    5.48251   5.51519   5.55820   5.59078   5.65293
 Alpha virt. eigenvalues --    5.69047   5.74475   5.78786   5.80216   5.84854
 Alpha virt. eigenvalues --    5.91303   5.92599   5.99802   6.01973   6.02863
 Alpha virt. eigenvalues --    6.05555   6.09068   6.13524   6.14745   6.22974
 Alpha virt. eigenvalues --    6.26676   6.27885   6.29048   6.32461   6.39744
 Alpha virt. eigenvalues --    6.41423   6.50496   6.52301   6.54613   6.60914
 Alpha virt. eigenvalues --    6.66457   6.68742   6.70687   6.76536   6.79221
 Alpha virt. eigenvalues --    6.84291   6.88768   6.95533   6.98421   7.06279
 Alpha virt. eigenvalues --    7.09891   7.13894   7.22150   7.25035   7.26690
 Alpha virt. eigenvalues --    7.28367   7.29403   7.33944   7.36342   7.40421
 Alpha virt. eigenvalues --    7.41859   7.44592   7.49154   7.51335   7.53334
 Alpha virt. eigenvalues --    7.55839   7.59117   7.60983   7.65142   7.67567
 Alpha virt. eigenvalues --    7.72269   7.76704   7.79794   7.83364   7.85707
 Alpha virt. eigenvalues --    7.88307   7.92004   7.95102   7.97287   8.01333
 Alpha virt. eigenvalues --    8.03980   8.08487   8.10423   8.13123   8.20268
 Alpha virt. eigenvalues --    8.24726   8.25616   8.28481   8.31167   8.39309
 Alpha virt. eigenvalues --    8.42467   8.50118   8.53455   8.55687   8.60448
 Alpha virt. eigenvalues --    8.64511   8.66559   8.68785   8.74349   8.75510
 Alpha virt. eigenvalues --    8.79052   8.80514   8.86251   8.91778   8.93752
 Alpha virt. eigenvalues --    8.95503   8.97859   9.01507   9.03500   9.08412
 Alpha virt. eigenvalues --    9.13208   9.13888   9.19546   9.23743   9.25780
 Alpha virt. eigenvalues --    9.30635   9.38418   9.44834   9.48696   9.51087
 Alpha virt. eigenvalues --    9.58332   9.60886   9.64096   9.72272   9.74311
 Alpha virt. eigenvalues --    9.82167   9.87851   9.91727   9.97472   9.99045
 Alpha virt. eigenvalues --   10.03845  10.08272  10.08862  10.11082  10.14331
 Alpha virt. eigenvalues --   10.23330  10.28163  10.32530  10.34978  10.42182
 Alpha virt. eigenvalues --   10.44921  10.48784  10.52111  10.66304  10.75990
 Alpha virt. eigenvalues --   10.81390  10.82623  10.88002  10.92166  10.98247
 Alpha virt. eigenvalues --   11.17163  11.29192  11.31638  11.42028  11.56702
 Alpha virt. eigenvalues --   11.64303  11.76323  11.83247  11.89725  12.03428
 Alpha virt. eigenvalues --   12.05292  12.11652  12.20509  12.34015  12.42768
 Alpha virt. eigenvalues --   12.43503  12.54711  12.66994  12.74940  13.01619
 Alpha virt. eigenvalues --   13.07418  13.18185  13.29245  13.39895  13.51647
 Alpha virt. eigenvalues --   13.55409  13.68590  13.73893  13.80080  13.87408
 Alpha virt. eigenvalues --   13.88670  13.95023  14.01878  14.14026  14.18914
 Alpha virt. eigenvalues --   14.23688  14.28625  14.29612  14.34097  14.35242
 Alpha virt. eigenvalues --   14.41225  14.42637  14.43580  14.45789  14.47761
 Alpha virt. eigenvalues --   14.53961  14.56365  14.66862  14.69289  14.72059
 Alpha virt. eigenvalues --   14.75383  14.81347  15.00122  15.06303  15.07152
 Alpha virt. eigenvalues --   15.11711  15.13036  15.17527  15.21690  15.23396
 Alpha virt. eigenvalues --   15.28124  15.33529  15.38278  15.43830  15.47959
 Alpha virt. eigenvalues --   15.50159  15.54851  15.61758  15.67933  15.73972
 Alpha virt. eigenvalues --   15.80106  15.88186  16.01424  16.08256  16.16526
 Alpha virt. eigenvalues --   16.21255  16.24113  16.25826  16.41240  16.49106
 Alpha virt. eigenvalues --   16.51774  16.65008  16.84747  16.88529  16.99572
 Alpha virt. eigenvalues --   17.14872  17.64219  17.75181  17.77987  18.03450
 Alpha virt. eigenvalues --   18.09489  18.22702  18.37281  18.44073  18.49160
 Alpha virt. eigenvalues --   18.51093  18.58218  18.66690  18.68490  18.71488
 Alpha virt. eigenvalues --   18.76544  18.80044  18.86579  18.89147  18.93586
 Alpha virt. eigenvalues --   18.95233  19.05360  19.06866  19.10053  19.17530
 Alpha virt. eigenvalues --   19.21629  19.24559  19.26041  19.31579  19.35873
 Alpha virt. eigenvalues --   19.36087  19.37110  19.38478  19.39745  19.46201
 Alpha virt. eigenvalues --   19.47735  19.51806  19.53565  19.54054  19.56885
 Alpha virt. eigenvalues --   19.60208  19.61945  19.65659  19.69968  19.80736
 Alpha virt. eigenvalues --   19.82775  19.85878  19.91307  19.96720  20.03080
 Alpha virt. eigenvalues --   20.04585  20.19726  20.20279  20.46464  20.73884
 Alpha virt. eigenvalues --   20.97519  21.01675  21.16428  21.49098  21.54841
 Alpha virt. eigenvalues --   22.03216  22.03833  22.21558  22.28380  22.33788
 Alpha virt. eigenvalues --   22.45494  22.67164  22.85543  22.97395  23.21689
 Alpha virt. eigenvalues --   23.38355  23.44111  23.74285  23.81279  23.90403
 Alpha virt. eigenvalues --   24.23078  25.05740  40.99999  51.46181  62.40614
 Alpha virt. eigenvalues --   63.61359  64.05369
          Condensed to atoms (all electrons):
               1          2          3          4          5          6
     1  N    6.649378   0.434544  -0.079591  -0.071780   0.002385   0.371654
     2  C    0.434544   3.970446   0.564059   0.341652  -0.026138  -0.019337
     3  O   -0.079591   0.564059   8.201848  -0.049942  -0.029849   0.001201
     4  O   -0.071780   0.341652  -0.049942   7.941823   0.057490   0.003900
     5  O    0.002385  -0.026138  -0.029849   0.057490   8.076791  -0.000104
     6  H    0.371654  -0.019337   0.001201   0.003900  -0.000104   0.300327
     7  H    0.373630  -0.017686   0.003437  -0.001451  -0.000099  -0.018288
     8  H    0.000746  -0.011450   0.026588  -0.013012   0.283829  -0.000039
               7          8
     1  N    0.373630   0.000746
     2  C   -0.017686  -0.011450
     3  O    0.003437   0.026588
     4  O   -0.001451  -0.013012
     5  O   -0.000099   0.283829
     6  H   -0.018288  -0.000039
     7  H    0.311303  -0.000009
     8  H   -0.000009   0.295404
 Mulliken charges:
               1
     1  N   -0.680965
     2  C    0.763910
     3  O   -0.637751
     4  O   -0.208681
     5  O   -0.364304
     6  H    0.360685
     7  H    0.349162
     8  H    0.417943
 Sum of Mulliken charges =   0.00000
 Mulliken charges with hydrogens summed into heavy atoms:
               1
     1  N    0.028882
     2  C    0.763910
     3  O   -0.637751
     4  O   -0.208681
     5  O    0.053639
 Electronic spatial extent (au):  <R**2>=            365.2798
 Charge=              0.0000 electrons
 Dipole moment (field-independent basis, Debye):
    X=              3.0829    Y=             -1.1662    Z=              0.5552  Tot=              3.3426
 Quadrupole moment (field-independent basis, Debye-Ang):
   XX=            -23.2219   YY=            -30.0689   ZZ=            -29.3110
   XY=             -4.7957   XZ=              1.3373   YZ=             -0.4212
 Traceless Quadrupole moment (field-independent basis, Debye-Ang):
   XX=              4.3120   YY=             -2.5350   ZZ=             -1.7771
   XY=             -4.7957   XZ=              1.3373   YZ=             -0.4212
 Octapole moment (field-independent basis, Debye-Ang**2):
  XXX=             17.0416  YYY=             -9.9316  ZZZ=              0.4596  XYY=              0.4263
  XXY=              3.2326  XXZ=              3.0721  XZZ=             -2.2306  YZZ=              0.3490
  YYZ=              0.6599  XYZ=             -0.7340
 Hexadecapole moment (field-independent basis, Debye-Ang**3):
 XXXX=           -234.7621 YYYY=           -121.7562 ZZZZ=            -25.3863 XXXY=             -9.5485
 XXXZ=              7.4557 YYYX=            -12.3079 YYYZ=             -1.1491 ZZZX=              1.0629
 ZZZY=             -0.3324 XXYY=            -54.0241 XXZZ=            -55.3066 YYZZ=            -25.3015
 XXYZ=             -1.2770 YYXZ=              1.3438 ZZXY=              0.8474
 N-N= 1.844919056531D+02 E-N=-1.121965765675D+03  KE= 3.182839162427D+02
 No NMR shielding tensors so no spin-rotation constants.
 Leave Link  601 at Thu Sep  1 17:19:07 2022, MaxMem= 24159191040 cpu:        29.5
 (Enter /public/home/users/caep010/software/Gaussian09/g09/l9999.exe)
 1\1\GINC-B0921\SP\RHF\GFHFB2\C1H3N1O3\ROOT\01-Sep-2022\0\\#P Geom=AllC
 heck Guess=TCheck SCRF=Check HF/GFHFB2 SCF=Tight\\Frag_1097\\0,1\N,0,-
 1.3794915837,-0.1141212608,0.1647711571\C,0,-0.0519599285,0.1584934978
 ,0.1627555987\O,0,0.5101706383,1.053318577,0.7590263674\O,0,0.61604027
 32,-0.7511386414,-0.6000404826\O,0,2.0238078835,-0.4817801162,-0.55504
 31817\H,0,-1.9881241713,0.5944634589,0.5362699475\H,0,-1.7534458478,-0
 .7689913686,-0.5012126865\H,0,2.0230027364,0.3097558534,0.0334742802\\
 Version=ES64L-G09RevE.01\State=1-A\HF=-318.7300016\RMSD=4.052e-09\Dipo
 le=-1.3076762,-0.017512,-0.1380978\Quadrupole=4.8725718,-2.5909898,-2.
 281582,1.0015467,1.3444621,-0.9726159\PG=C01 [X(C1H3N1O3)]\\@


 THERE IS MUCH PLEASURE TO BE GAINED FROM USELESS KNOWLEDGE

                                       -- BERTRAND RUSSELL
 Diagonal vibrational polarizability:
        0.0000000       0.0000000       0.0000000

 Temperature=              298.150000 Pressure=                      1.000000
 E(ZPE)=                     0.053710 E(Thermal)=                    0.059066
 E(CCSD(T))=              -319.432958 E(Empiric)=                   -0.104205
 DE(Plus)=                  -0.025355 DE(2DF)=                      -0.237661
 E(Delta-G3XP)=             -0.369246 DE(HF)=                       -0.034793
 G4(0 K)=                 -320.150507 G4 Energy=                  -320.145150
 G4 Enthalpy=             -320.144206 G4 Free Energy=             -320.178599
 1\1\GINC-B0921\Mixed\G4\G4\C1H3N1O3\ROOT\01-Sep-2022\0\\#P Geom=AllChe
 ck Guess=TCheck SCRF=Check HF/GFHFB2 SCF=Tight\\Frag_1097\\0,1\N,0,-1.
 3794915837,-0.1141212608,0.1647711571\C,0,-0.0519599285,0.1584934978,0
 .1627555987\O,0,0.5101706383,1.053318577,0.7590263674\O,0,0.6160402732
 ,-0.7511386414,-0.6000404826\O,0,2.0238078835,-0.4817801162,-0.5550431
 817\H,0,-1.9881241713,0.5944634589,0.5362699475\H,0,-1.7534458478,-0.7
 689913686,-0.5012126865\H,0,2.0230027364,0.3097558534,0.0334742802\\Ve
 rsion=ES64L-G09RevE.01\State=1-A\MP2/GTBas1=-319.3893571\MP4/GTBas1=-3
 19.4373368\CCSD(T)/G3Bas1=-319.4329577\MP2/GTBas2=-319.4125811\MP4/GTB
 as2=-319.462692\MP2/GTBas3=-319.612409\MP4/GTBas3=-319.6749977\HF/GTLa
 rgeXP=-318.6965738\MP2/GTLargeXP=-320.0048786\HF/GFHFB1=-318.7244005\H
 F/GFHFB2=-318.7300016\G4=-320.150507\FreqCoord=-2.6068612959,-0.215657
 9289,0.3113723615,-0.0981900347,0.2995093046,0.3075635081,0.9640827873
 ,1.9904836412,1.4343519621,1.1641474032,-1.41944632,-1.1339121808,3.82
 44426453,-0.9104324758,-1.0488796054,-3.7570102019,1.1233731333,1.0134
 033341,-3.3135324411,-1.4531830853,-0.9471547119,3.8229211378,0.585353
 7309,0.0632572221\PG=C01 [X(C1H3N1O3)]\NImag=0\\0.77278408,-0.03080200
 ,0.56330587,0.01144509,0.40414134,0.34636939,-0.34727555,-0.03125873,-
 0.00966007,0.82216364,-0.04818681,-0.10984126,-0.04175230,0.20664650,0
 .65496351,0.01251497,-0.03805875,-0.08085081,0.08594840,0.31003025,0.4
 2739703,-0.03808565,-0.05873679,-0.03493399,-0.24325035,-0.19150041,-0
 .12361530,0.25829037,-0.03497215,-0.01076883,-0.01332861,-0.19797958,-
 0.40720057,-0.21487859,0.23471002,0.47801247,-0.01778248,-0.01300783,0
 .01404791,-0.13069241,-0.21573342,-0.23281942,0.14735797,0.29376796,0.
 24510203,-0.05298609,0.03538436,0.03491142,-0.13769509,0.05011777,0.04
 765879,0.01404777,0.00246297,0.00299396,0.43726249,0.01670505,0.014092
 95,-0.00438640,0.00975485,-0.14695854,-0.06555167,-0.00197372,-0.05353
 004,-0.06024145,0.00518015,0.26210116,0.02242659,-0.00282295,0.0035649
 0,0.01520917,-0.07092146,-0.11517553,-0.00000976,-0.06131722,-0.017425
 62,-0.04475274,0.17711373,0.16588449,-0.00283907,0.00519895,0.00467634
 ,-0.05395475,-0.00175454,0.00355539,-0.00073209,-0.00524142,-0.0033897
 3,-0.22245842,0.01129865,0.03324671,0.32887525,0.00262040,0.00175047,-
 0.00099546,0.02415377,-0.01565857,-0.01104977,0.02525881,0.00169498,-0
 .00222956,-0.08958150,-0.05608675,-0.02886874,0.00658706,0.33825212,0.
 00240941,-0.00205869,0.00122662,0.02334307,-0.00786818,-0.01288281,0.0
 1913613,0.00105831,-0.00035949,-0.04256683,-0.04022760,-0.03024154,-0.
 03090178,0.24391436,0.19469009,-0.21139380,0.16743413,0.08639943,-0.01
 958436,0.03164714,0.01573599,0.00527447,-0.00180210,-0.00059107,-0.005
 36758,-0.00366171,-0.00209448,-0.00061760,0.00027079,0.00073016,0.2192
 4469,0.17986572,-0.25002869,-0.14413009,-0.00745058,0.00858583,0.00772
 852,0.00035151,-0.00209445,0.00060610,-0.00227529,-0.00024976,-0.00029
 306,-0.00175032,0.00113001,-0.00076991,-0.18256103,0.25222655,0.074294
 68,-0.12868374,-0.07424855,0.00750976,0.00439038,-0.00075454,-0.002133
 17,-0.00101287,-0.00390722,-0.00023078,0.00094853,0.00184384,-0.000481
 28,-0.00140761,0.00174649,-0.09488068,0.13525291,0.08236101,-0.1234001
 0,-0.09046283,-0.09431265,-0.00395530,-0.02515498,-0.02843288,-0.00782
 956,-0.00109033,0.00137185,0.00014868,0.00061993,0.00092997,0.00061587
 ,0.00146812,0.00127433,0.01289770,0.01372641,0.01571001,0.12044510,-0.
 08353527,-0.20312405,-0.19602503,-0.00949431,-0.00742977,0.00024380,0.
 00067403,0.00543024,-0.00132145,0.00244536,-0.00091831,-0.00163588,0.0
 0036421,-0.00102734,0.00092473,-0.01227072,-0.00989743,-0.00954028,0.1
 0210126,0.21674180,-0.10368404,-0.21521363,-0.20737625,0.00146723,0.00
 720851,-0.00219911,0.00301943,-0.00113551,0.00473580,0.00132313,-0.000
 20912,0.00011323,-0.00050015,0.00056398,-0.00090539,-0.00604407,0.0013
 5332,-0.00695517,0.10441307,0.20741349,0.21220779,0.00319619,0.0032429
 1,0.00147444,-0.01644825,-0.02181467,-0.01336536,0.01228504,0.00391259
 ,0.00073191,-0.03295177,-0.03792321,-0.02495546,-0.04888919,0.02922255
 ,0.02657550,-0.00045352,0.00009358,0.00021147,0.00107761,-0.00028457,0
 .00000541,0.08218390,-0.00169493,-0.00538646,-0.00352344,0.00562807,0.
 02353937,0.01153620,-0.00878347,-0.01154380,-0.00184035,-0.00373382,-0
 .01845071,-0.01125442,-0.01470259,-0.27005491,-0.19497302,0.00094350,0
 .00032793,0.00005268,-0.00120758,0.00022486,0.00001895,0.02355082,0.28
 134371,-0.00162422,-0.00429574,-0.00273321,0.00687485,0.01464623,0.017
 28520,-0.00882131,-0.00315348,-0.00937399,0.00066305,-0.00744601,-0.00
 856377,-0.00620549,-0.19992720,-0.15327397,0.00074472,0.00025221,-0.00
 008586,-0.00095370,-0.00005939,0.00037910,0.00932209,0.19998338,0.1563
 6650\\-0.00005131,0.00001746,-0.00002117,0.00004595,-0.00006233,-0.000
 00769,0.00002065,-0.00001328,-0.00002336,-0.00001091,0.00005167,0.0000
 4514,0.00002064,0.00000015,-0.00001001,-0.00002471,0.00000778,0.000017
 23,-0.00002310,-0.00001243,-0.00000635,0.00002279,0.00001098,0.0000062
 2\\\@
 Job cpu time:       0 days  0 hours 31 minutes 36.9 seconds.
 File lengths (MBytes):  RWF=   1634 Int=      0 D2E=      0 Chk=     19 Scr=      1
 Normal termination of Gaussian 09 at Thu Sep  1 17:19:07 2022.
