 Entering Gaussian System, Link 0=g09
 Input=B3LYP6-31G.CUZMUF.gjf
 Output=B3LYP6-31G.CUZMUF.log
 Initial command:
 /public/home/users/caep010/software/Gaussian09/g09/l1.exe "/public/home/users/caep010/.cache/gau_scr/Gau-202953.inp" -scrdir="/public/home/users/caep010/.cache/gau_scr/"
 Entering Link 1 = /public/home/users/caep010/software/Gaussian09/g09/l1.exe PID=    202954.
  
 Copyright (c) 1988,1990,1992,1993,1995,1998,2003,2009,2015,
            Gaussian, Inc.  All Rights Reserved.
  
 This is part of the Gaussian(R) 09 program.  It is based on
 the Gaussian(R) 03 system (copyright 2003, Gaussian, Inc.),
 the Gaussian(R) 98 system (copyright 1998, Gaussian, Inc.),
 the Gaussian(R) 94 system (copyright 1995, Gaussian, Inc.),
 the Gaussian 92(TM) system (copyright 1992, Gaussian, Inc.),
 the Gaussian 90(TM) system (copyright 1990, Gaussian, Inc.),
 the Gaussian 88(TM) system (copyright 1988, Gaussian, Inc.),
 the Gaussian 86(TM) system (copyright 1986, Carnegie Mellon
 University), and the Gaussian 82(TM) system (copyright 1983,
 Carnegie Mellon University). Gaussian is a federally registered
 trademark of Gaussian, Inc.
  
 This software contains proprietary and confidential information,
 including trade secrets, belonging to Gaussian, Inc.
  
 This software is provided under written license and may be
 used, copied, transmitted, or stored only in accord with that
 written license.
  
 The following legend is applicable only to US Government
 contracts under FAR:
  
                    RESTRICTED RIGHTS LEGEND
  
 Use, reproduction and disclosure by the US Government is
 subject to restrictions as set forth in subparagraphs (a)
 and (c) of the Commercial Computer Software - Restricted
 Rights clause in FAR 52.227-19.
  
 Gaussian, Inc.
 340 Quinnipiac St., Bldg. 40, Wallingford CT 06492
  
  
 ---------------------------------------------------------------
 Warning -- This program may not be used in any manner that
 competes with the business of Gaussian, Inc. or will provide
 assistance to any competitor of Gaussian, Inc.  The licensee
 of this program is prohibited from giving any competitor of
 Gaussian, Inc. access to this program.  By using this program,
 the user acknowledges that Gaussian, Inc. is engaged in the
 business of creating and licensing software in the field of
 computational chemistry and represents and warrants to the
 licensee that it is not a competitor of Gaussian, Inc. and that
 it will not use this program in any manner prohibited above.
 ---------------------------------------------------------------
  

 Cite this work as:
 Gaussian 09, Revision E.01,
 M. J. Frisch, G. W. Trucks, H. B. Schlegel, G. E. Scuseria, 
 M. A. Robb, J. R. Cheeseman, G. Scalmani, V. Barone, B. Mennucci, 
 G. A. Petersson, H. Nakatsuji, M. Caricato, X. Li, H. P. Hratchian, 
 A. F. Izmaylov, J. Bloino, G. Zheng, J. L. Sonnenberg, M. Hada, 
 M. Ehara, K. Toyota, R. Fukuda, J. Hasegawa, M. Ishida, T. Nakajima, 
 Y. Honda, O. Kitao, H. Nakai, T. Vreven, J. A. Montgomery, Jr., 
 J. E. Peralta, F. Ogliaro, M. Bearpark, J. J. Heyd, E. Brothers, 
 K. N. Kudin, V. N. Staroverov, T. Keith, R. Kobayashi, J. Normand, 
 K. Raghavachari, A. Rendell, J. C. Burant, S. S. Iyengar, J. Tomasi, 
 M. Cossi, N. Rega, J. M. Millam, M. Klene, J. E. Knox, J. B. Cross, 
 V. Bakken, C. Adamo, J. Jaramillo, R. Gomperts, R. E. Stratmann, 
 O. Yazyev, A. J. Austin, R. Cammi, C. Pomelli, J. W. Ochterski, 
 R. L. Martin, K. Morokuma, V. G. Zakrzewski, G. A. Voth, 
 P. Salvador, J. J. Dannenberg, S. Dapprich, A. D. Daniels, 
 O. Farkas, J. B. Foresman, J. V. Ortiz, J. Cioslowski, 
 and D. J. Fox, Gaussian, Inc., Wallingford CT, 2013.
 
 ******************************************
 Gaussian 09:  ES64L-G09RevE.01 30-Nov-2015
                20-Aug-2021 
 ******************************************
 %nproc=32
 Will use up to   32 processors via shared memory.
 %mem=180GB
 -------------------------
 #P OPT Freq B3LYP/6-31G**
 -------------------------
 1/14=-1,18=20,19=15,26=3,38=1/1,3;
 2/9=110,12=2,17=6,18=5,40=1/2;
 3/5=1,6=6,7=101,11=2,16=1,25=1,30=1,71=1,74=-5/1,2,3;
 4//1;
 5/5=2,38=5/2;
 6/7=2,8=2,9=2,10=2,28=1/1;
 7//1,2,3,16;
 1/14=-1,18=20,19=15,26=3/3(2);
 2/9=110/2;
 99//99;
 2/9=110/2;
 3/5=1,6=6,7=101,11=2,16=1,25=1,30=1,71=1,74=-5/1,2,3;
 4/5=5,16=3,69=1/1;
 5/5=2,38=5/2;
 7//1,2,3,16;
 1/14=-1,18=20,19=15,26=3/3(-5);
 2/9=110/2;
 6/7=2,8=2,9=2,10=2,19=2,28=1/1;
 99/9=1/99;
 Leave Link    1 at Fri Aug 20 15:55:24 2021, MaxMem= 24159191040 cpu:         2.2
 (Enter /public/home/users/caep010/software/Gaussian09/g09/l101.exe)
 ------
 CUZMUF
 ------
 Symbolic Z-matrix:
 Charge =  0 Multiplicity = 1
 N                     0.2132    1.9526    2.1676 
 C                    -0.9745    1.9261    1.3301 
 C                     0.8118    0.9203    2.7397 
 C                     1.8752    1.4313    3.4344 
 N                     2.7916    0.6994    4.2212 
 C                     1.8396    2.8138    3.2289 
 H                     2.452     3.4713    3.5286 
 O                     2.603    -0.5111    4.3561 
 O                     3.7292    1.2797    4.721 
 N                     0.8269    3.1325    2.4527 
 H                     0.4404    0.0708    2.6248 
 H                    -1.7098    2.5451    1.5976 
 H                    -1.2554    1.018     1.0496 
 H                    -0.7585    2.4932    0.5421 
 
 NAtoms=     14 NQM=       14 NQMF=       0 NMMI=      0 NMMIF=      0
                NMic=       0 NMicF=      0.
                    Isotopes and Nuclear Properties:
 (Nuclear quadrupole moments (NQMom) in fm**2, nuclear magnetic moments (NMagM)
  in nuclear magnetons)

  Atom         1           2           3           4           5           6           7           8           9          10
 IAtWgt=          14          12          12          12          14          12           1          16          16          14
 AtmWgt=  14.0030740  12.0000000  12.0000000  12.0000000  14.0030740  12.0000000   1.0078250  15.9949146  15.9949146  14.0030740
 NucSpn=           2           0           0           0           2           0           1           0           0           2
 AtZEff=   0.0000000   0.0000000   0.0000000   0.0000000   0.0000000   0.0000000   0.0000000   0.0000000   0.0000000   0.0000000
 NQMom=    2.0440000   0.0000000   0.0000000   0.0000000   2.0440000   0.0000000   0.0000000   0.0000000   0.0000000   2.0440000
 NMagM=    0.4037610   0.0000000   0.0000000   0.0000000   0.4037610   0.0000000   2.7928460   0.0000000   0.0000000   0.4037610
 AtZNuc=   7.0000000   6.0000000   6.0000000   6.0000000   7.0000000   6.0000000   1.0000000   8.0000000   8.0000000   7.0000000

  Atom        11          12          13          14
 IAtWgt=           1           1           1           1
 AtmWgt=   1.0078250   1.0078250   1.0078250   1.0078250
 NucSpn=           1           1           1           1
 AtZEff=   0.0000000   0.0000000   0.0000000   0.0000000
 NQMom=    0.0000000   0.0000000   0.0000000   0.0000000
 NMagM=    2.7928460   2.7928460   2.7928460   2.7928460
 AtZNuc=   1.0000000   1.0000000   1.0000000   1.0000000
 Leave Link  101 at Fri Aug 20 15:55:24 2021, MaxMem= 24159191040 cpu:        10.8
 (Enter /public/home/users/caep010/software/Gaussian09/g09/l103.exe)

 GradGradGradGradGradGradGradGradGradGradGradGradGradGradGradGradGradGrad
 Berny optimization.
 Initialization pass.
                           ----------------------------
                           !    Initial Parameters    !
                           ! (Angstroms and Degrees)  !
 --------------------------                            --------------------------
 ! Name  Definition              Value          Derivative Info.                !
 --------------------------------------------------------------------------------
 ! R1    R(1,2)                  1.4535         estimate D2E/DX2                !
 ! R2    R(1,3)                  1.3234         estimate D2E/DX2                !
 ! R3    R(1,10)                 1.3602         estimate D2E/DX2                !
 ! R4    R(2,12)                 0.9977         estimate D2E/DX2                !
 ! R5    R(2,13)                 0.9911         estimate D2E/DX2                !
 ! R6    R(2,14)                 0.9946         estimate D2E/DX2                !
 ! R7    R(3,4)                  1.3691         estimate D2E/DX2                !
 ! R8    R(3,11)                 0.9342         estimate D2E/DX2                !
 ! R9    R(4,5)                  1.4123         estimate D2E/DX2                !
 ! R10   R(4,6)                  1.3981         estimate D2E/DX2                !
 ! R11   R(5,8)                  1.2325         estimate D2E/DX2                !
 ! R12   R(5,9)                  1.2106         estimate D2E/DX2                !
 ! R13   R(6,7)                  0.9472         estimate D2E/DX2                !
 ! R14   R(6,10)                 1.3151         estimate D2E/DX2                !
 ! A1    A(2,1,3)              127.1914         estimate D2E/DX2                !
 ! A2    A(2,1,10)             120.3488         estimate D2E/DX2                !
 ! A3    A(3,1,10)             112.4558         estimate D2E/DX2                !
 ! A4    A(1,2,12)             115.8756         estimate D2E/DX2                !
 ! A5    A(1,2,13)             114.2912         estimate D2E/DX2                !
 ! A6    A(1,2,14)             105.5841         estimate D2E/DX2                !
 ! A7    A(12,2,13)            115.8162         estimate D2E/DX2                !
 ! A8    A(12,2,14)             91.0729         estimate D2E/DX2                !
 ! A9    A(13,2,14)            111.0858         estimate D2E/DX2                !
 ! A10   A(1,3,4)              106.2327         estimate D2E/DX2                !
 ! A11   A(1,3,11)             118.4454         estimate D2E/DX2                !
 ! A12   A(4,3,11)             135.2797         estimate D2E/DX2                !
 ! A13   A(3,4,5)              126.3872         estimate D2E/DX2                !
 ! A14   A(3,4,6)              105.9439         estimate D2E/DX2                !
 ! A15   A(5,4,6)              127.651          estimate D2E/DX2                !
 ! A16   A(4,5,8)              118.0779         estimate D2E/DX2                !
 ! A17   A(4,5,9)              118.9553         estimate D2E/DX2                !
 ! A18   A(8,5,9)              122.9631         estimate D2E/DX2                !
 ! A19   A(4,6,7)              128.5668         estimate D2E/DX2                !
 ! A20   A(4,6,10)             110.2412         estimate D2E/DX2                !
 ! A21   A(7,6,10)             121.0903         estimate D2E/DX2                !
 ! A22   A(1,10,6)             105.1251         estimate D2E/DX2                !
 ! D1    D(3,1,2,12)           127.6312         estimate D2E/DX2                !
 ! D2    D(3,1,2,13)           -10.9543         estimate D2E/DX2                !
 ! D3    D(3,1,2,14)          -133.3425         estimate D2E/DX2                !
 ! D4    D(10,1,2,12)          -51.5915         estimate D2E/DX2                !
 ! D5    D(10,1,2,13)          169.823          estimate D2E/DX2                !
 ! D6    D(10,1,2,14)           47.4348         estimate D2E/DX2                !
 ! D7    D(2,1,3,4)           -179.479          estimate D2E/DX2                !
 ! D8    D(2,1,3,11)            -1.4879         estimate D2E/DX2                !
 ! D9    D(10,1,3,4)            -0.2048         estimate D2E/DX2                !
 ! D10   D(10,1,3,11)          177.7863         estimate D2E/DX2                !
 ! D11   D(2,1,10,6)           179.3079         estimate D2E/DX2                !
 ! D12   D(3,1,10,6)            -0.0221         estimate D2E/DX2                !
 ! D13   D(1,3,4,5)            178.8881         estimate D2E/DX2                !
 ! D14   D(1,3,4,6)              0.3345         estimate D2E/DX2                !
 ! D15   D(11,3,4,5)             1.3988         estimate D2E/DX2                !
 ! D16   D(11,3,4,6)          -177.1548         estimate D2E/DX2                !
 ! D17   D(3,4,5,8)             -3.3092         estimate D2E/DX2                !
 ! D18   D(3,4,5,9)            176.0164         estimate D2E/DX2                !
 ! D19   D(6,4,5,8)            174.934          estimate D2E/DX2                !
 ! D20   D(6,4,5,9)             -5.7404         estimate D2E/DX2                !
 ! D21   D(3,4,6,7)           -176.6779         estimate D2E/DX2                !
 ! D22   D(3,4,6,10)            -0.3664         estimate D2E/DX2                !
 ! D23   D(5,4,6,7)              4.7929         estimate D2E/DX2                !
 ! D24   D(5,4,6,10)          -178.8957         estimate D2E/DX2                !
 ! D25   D(4,6,10,1)             0.2403         estimate D2E/DX2                !
 ! D26   D(7,6,10,1)           176.8729         estimate D2E/DX2                !
 --------------------------------------------------------------------------------
 Trust Radius=3.00D-01 FncErr=1.00D-07 GrdErr=1.00D-06
 Number of steps in this run=     72 maximum allowed number of steps=    100.
 GradGradGradGradGradGradGradGradGradGradGradGradGradGradGradGradGradGrad

 Leave Link  103 at Fri Aug 20 15:55:24 2021, MaxMem= 24159191040 cpu:         0.4
 (Enter /public/home/users/caep010/software/Gaussian09/g09/l202.exe)
                          Input orientation:                          
 ---------------------------------------------------------------------
 Center     Atomic      Atomic             Coordinates (Angstroms)
 Number     Number       Type             X           Y           Z
 ---------------------------------------------------------------------
      1          7           0        0.213200    1.952600    2.167600
      2          6           0       -0.974500    1.926100    1.330100
      3          6           0        0.811800    0.920300    2.739700
      4          6           0        1.875200    1.431300    3.434400
      5          7           0        2.791600    0.699400    4.221200
      6          6           0        1.839600    2.813800    3.228900
      7          1           0        2.452000    3.471300    3.528600
      8          8           0        2.603000   -0.511100    4.356100
      9          8           0        3.729200    1.279700    4.721000
     10          7           0        0.826900    3.132500    2.452700
     11          1           0        0.440400    0.070800    2.624800
     12          1           0       -1.709800    2.545100    1.597600
     13          1           0       -1.255400    1.018000    1.049600
     14          1           0       -0.758500    2.493200    0.542100
 ---------------------------------------------------------------------
                    Distance matrix (angstroms):
                    1          2          3          4          5
     1  N    0.000000
     2  C    1.453527   0.000000
     3  C    1.323353   2.487865   0.000000
     4  C    2.153783   3.576828   1.369142   0.000000
     5  N    3.526461   4.903750   2.482589   1.412275   0.000000
     6  C    2.124429   3.508933   2.209306   1.398143   2.522231
     7  H    3.028365   4.354532   3.133723   2.122068   2.877230
     8  O    4.070687   5.281584   2.805361   2.269833   1.232509
     9  O    4.397147   5.834452   3.544847   2.261778   1.210637
    10  N    1.360174   2.441449   2.230790   2.226376   3.592717
    11  H    1.949826   2.668394   0.934232   2.136601   2.910631
    12  H    2.091384   0.997689   3.209803   4.179307   5.527430
    13  H    2.068861   0.991076   2.671947   3.957113   5.151579
    14  H    1.969441   0.994587   3.125588   4.053320   5.418183
                    6          7          8          9         10
     6  C    0.000000
     7  H    0.947185   0.000000
     8  O    3.592815   4.070266   0.000000
     9  O    2.854893   2.802886   2.146728   0.000000
    10  N    1.315149   1.978205   4.478089   4.123275   0.000000
    11  H    3.137953   4.052998   2.830697   4.083099   3.090794
    12  H    3.915556   4.680511   5.962376   6.398405   2.740635
    13  H    4.189662   5.090082   5.306443   6.196281   3.282647
    14  H    3.751240   4.492569   5.905260   6.251019   2.563706
                   11         12         13         14
    11  H    0.000000
    12  H    3.435209   0.000000
    13  H    2.500836   1.684879   0.000000
    14  H    3.412187   1.421881   1.637279   0.000000
 Stoichiometry    C4H5N3O2
 Framework group  C1[X(C4H5N3O2)]
 Deg. of freedom    36
 Full point group                 C1      NOp   1
 Largest Abelian subgroup         C1      NOp   1
 Largest concise Abelian subgroup C1      NOp   1
                         Standard orientation:                         
 ---------------------------------------------------------------------
 Center     Atomic      Atomic             Coordinates (Angstroms)
 Number     Number       Type             X           Y           Z
 ---------------------------------------------------------------------
      1          7           0       -1.668637   -0.120375   -0.004995
      2          6           0       -3.023951   -0.645593   -0.002007
      3          6           0       -0.541928   -0.814136   -0.027068
      4          6           0        0.473406    0.104173   -0.008254
      5          7           0        1.857364   -0.177067    0.001020
      6          6           0       -0.143587    1.358115    0.033603
      7          1           0        0.258913    2.215269    0.012627
      8          8           0        2.209186   -1.357092    0.054318
      9          8           0        2.642712    0.742521   -0.055792
     10          7           0       -1.451659    1.221864    0.032257
     11          1           0       -0.593516   -1.746926   -0.021439
     12          1           0       -3.621593   -0.304270    0.720285
     13          1           0       -3.085268   -1.616746   -0.189979
     14          1           0       -3.516838   -0.117057   -0.685319
 ---------------------------------------------------------------------
 Rotational constants (GHZ):      4.7335681      1.1011230      0.8970205
 Leave Link  202 at Fri Aug 20 15:55:24 2021, MaxMem= 24159191040 cpu:         0.4
 (Enter /public/home/users/caep010/software/Gaussian09/g09/l301.exe)
 Standard basis: 6-31G(d,p) (6D, 7F)
 Ernie: Thresh=  0.10000D-02 Tol=  0.10000D-05 Strict=F.
 There are   160 symmetry adapted cartesian basis functions of A   symmetry.
 There are   160 symmetry adapted basis functions of A   symmetry.
   160 basis functions,   287 primitive gaussians,   160 cartesian basis functions
    33 alpha electrons       33 beta electrons
       nuclear repulsion energy       443.6784914763 Hartrees.
 IExCor=  402 DFT=T Ex+Corr=B3LYP ExCW=0 ScaHFX=  0.200000
 ScaDFX=  0.800000  0.720000  1.000000  0.810000 ScalE2=  1.000000  1.000000
 IRadAn=      0 IRanWt=     -1 IRanGd=            0 ICorTp=0 IEmpDi=  4
 NAtoms=   14 NActive=   14 NUniq=   14 SFac= 1.00D+00 NAtFMM=   60 NAOKFM=F Big=F
 Integral buffers will be    131072 words long.
 Raffenetti 2 integral format.
 Two-electron integral symmetry is turned on.
 Leave Link  301 at Fri Aug 20 15:55:24 2021, MaxMem= 24159191040 cpu:         1.9
 (Enter /public/home/users/caep010/software/Gaussian09/g09/l302.exe)
 NPDir=0 NMtPBC=     1 NCelOv=     1 NCel=       1 NClECP=     1 NCelD=      1
         NCelK=      1 NCelE2=     1 NClLst=     1 CellRange=     0.0.
 One-electron integrals computed using PRISM.
 NBasis=   160 RedAO= T EigKep=  8.96D-04  NBF=   160
 NBsUse=   160 1.00D-06 EigRej= -1.00D+00 NBFU=   160
 Precomputing XC quadrature grid using
 IXCGrd= 4 IRadAn=           0 IRanWt=          -1 IRanGd=           0 AccXCQ= 0.00D+00.
 Generated NRdTot=       0 NPtTot=           0 NUsed=           0 NTot=          32
 NSgBfM=   160   160   160   160   160 MxSgAt=    14 MxSgA2=    14.
 Leave Link  302 at Fri Aug 20 15:55:25 2021, MaxMem= 24159191040 cpu:        12.8
 (Enter /public/home/users/caep010/software/Gaussian09/g09/l303.exe)
 DipDrv:  MaxL=1.
 Leave Link  303 at Fri Aug 20 15:55:25 2021, MaxMem= 24159191040 cpu:         0.7
 (Enter /public/home/users/caep010/software/Gaussian09/g09/l401.exe)
 ExpMin= 1.61D-01 ExpMax= 5.48D+03 ExpMxC= 8.25D+02 IAcc=1 IRadAn=         1 AccDes= 0.00D+00
 Harris functional with IExCor=  402 and IRadAn=       1 diagonalized for initial guess.
 HarFok:  IExCor=  402 AccDes= 0.00D+00 IRadAn=         1 IDoV= 1 UseB2=F ITyADJ=14
 ICtDFT=  3500011 ScaDFX=  1.000000  1.000000  1.000000  1.000000
 FoFCou: FMM=F IPFlag=           0 FMFlag=      100000 FMFlg1=           0
         NFxFlg=           0 DoJE=T BraDBF=F KetDBF=T FulRan=T
         wScrn=  0.000000 ICntrl=     500 IOpCl=  0 I1Cent=   200000004 NGrid=           0
         NMat0=    1 NMatS0=      1 NMatT0=    0 NMatD0=    1 NMtDS0=    0 NMtDT0=    0
 Petite list used in FoFCou.
 Harris En= -469.987996247848    
 JPrj=0 DoOrth=F DoCkMO=F.
 Leave Link  401 at Fri Aug 20 15:55:25 2021, MaxMem= 24159191040 cpu:         9.9
 (Enter /public/home/users/caep010/software/Gaussian09/g09/l502.exe)
 Closed shell SCF:
 Using DIIS extrapolation, IDIIS=  1040.
 Integral symmetry usage will be decided dynamically.
 Keep R1 ints in memory in canonical form, NReq=85141869.
 IVT=      101669 IEndB=      101669 NGot= 24159191040 MDV= 24076135732
 LenX= 24076135732 LenY= 24076109691
 Requested convergence on RMS density matrix=1.00D-08 within 128 cycles.
 Requested convergence on MAX density matrix=1.00D-06.
 Requested convergence on             energy=1.00D-06.
 No special actions if energy rises.
 FoFCou: FMM=F IPFlag=           0 FMFlag=           0 FMFlg1=           0
         NFxFlg=           0 DoJE=F BraDBF=F KetDBF=F FulRan=T
         wScrn=  0.000000 ICntrl=     600 IOpCl=  0 I1Cent=           0 NGrid=           0
         NMat0=    1 NMatS0=  12880 NMatT0=    0 NMatD0=    1 NMtDS0=    0 NMtDT0=    0
 Symmetry not used in FoFCou.
 Integral accuracy reduced to 1.0D-05 until final iterations.

 Cycle   1  Pass 0  IDiag  1:
 E= -469.675423635223    
 DIIS: error= 4.48D-02 at cycle   1 NSaved=   1.
 NSaved= 1 IEnMin= 1 EnMin= -469.675423635223     IErMin= 1 ErrMin= 4.48D-02
 ErrMax= 4.48D-02  0.00D+00 EMaxC= 1.00D-01 BMatC= 3.41D-01 BMatP= 3.41D-01
 IDIUse=3 WtCom= 5.52D-01 WtEn= 4.48D-01
 Coeff-Com:  0.100D+01
 Coeff-En:   0.100D+01
 Coeff:      0.100D+01
 Gap=     0.184 Goal=   None    Shift=    0.000
 GapD=    0.184 DampG=1.000 DampE=0.500 DampFc=0.5000 IDamp=-1.
 Damping current iteration by 5.00D-01
 RMSDP=6.99D-03 MaxDP=2.35D-01              OVMax= 3.27D-01

 Cycle   2  Pass 0  IDiag  1:
 E= -469.754876654469     Delta-E=       -0.079453019247 Rises=F Damp=T
 DIIS: error= 1.67D-02 at cycle   2 NSaved=   2.
 NSaved= 2 IEnMin= 2 EnMin= -469.754876654469     IErMin= 2 ErrMin= 1.67D-02
 ErrMax= 1.67D-02  0.00D+00 EMaxC= 1.00D-01 BMatC= 5.32D-02 BMatP= 3.41D-01
 IDIUse=3 WtCom= 8.33D-01 WtEn= 1.67D-01
 Coeff-Com:  0.231D+00 0.769D+00
 Coeff-En:   0.338D+00 0.662D+00
 Coeff:      0.249D+00 0.751D+00
 Gap=     0.201 Goal=   None    Shift=    0.000
 RMSDP=1.85D-03 MaxDP=6.39D-02 DE=-7.95D-02 OVMax= 2.21D-01

 Cycle   3  Pass 0  IDiag  1:
 E= -469.938059837529     Delta-E=       -0.183183183059 Rises=F Damp=F
 DIIS: error= 9.17D-03 at cycle   3 NSaved=   3.
 NSaved= 3 IEnMin= 3 EnMin= -469.938059837529     IErMin= 3 ErrMin= 9.17D-03
 ErrMax= 9.17D-03  0.00D+00 EMaxC= 1.00D-01 BMatC= 1.20D-02 BMatP= 5.32D-02
 IDIUse=3 WtCom= 9.08D-01 WtEn= 9.17D-02
 Coeff-Com:  0.678D-01 0.319D+00 0.613D+00
 Coeff-En:   0.000D+00 0.000D+00 0.100D+01
 Coeff:      0.616D-01 0.290D+00 0.649D+00
 Gap=     0.213 Goal=   None    Shift=    0.000
 RMSDP=9.51D-04 MaxDP=2.51D-02 DE=-1.83D-01 OVMax= 4.81D-02

 Cycle   4  Pass 0  IDiag  1:
 E= -469.946090305582     Delta-E=       -0.008030468053 Rises=F Damp=F
 DIIS: error= 6.23D-03 at cycle   4 NSaved=   4.
 NSaved= 4 IEnMin= 4 EnMin= -469.946090305582     IErMin= 4 ErrMin= 6.23D-03
 ErrMax= 6.23D-03  0.00D+00 EMaxC= 1.00D-01 BMatC= 3.60D-03 BMatP= 1.20D-02
 IDIUse=3 WtCom= 9.38D-01 WtEn= 6.23D-02
 Coeff-Com:  0.254D-01 0.868D-01 0.363D+00 0.524D+00
 Coeff-En:   0.000D+00 0.000D+00 0.199D+00 0.801D+00
 Coeff:      0.239D-01 0.814D-01 0.353D+00 0.542D+00
 Gap=     0.210 Goal=   None    Shift=    0.000
 RMSDP=4.86D-04 MaxDP=2.26D-02 DE=-8.03D-03 OVMax= 3.73D-02

 Cycle   5  Pass 0  IDiag  1:
 E= -469.947627343246     Delta-E=       -0.001537037664 Rises=F Damp=F
 DIIS: error= 6.18D-03 at cycle   5 NSaved=   5.
 NSaved= 5 IEnMin= 5 EnMin= -469.947627343246     IErMin= 5 ErrMin= 6.18D-03
 ErrMax= 6.18D-03  0.00D+00 EMaxC= 1.00D-01 BMatC= 1.81D-03 BMatP= 3.60D-03
 IDIUse=3 WtCom= 9.38D-01 WtEn= 6.18D-02
 Coeff-Com:  0.103D-01 0.166D-01 0.191D+00 0.431D+00 0.352D+00
 Coeff-En:   0.000D+00 0.000D+00 0.000D+00 0.345D+00 0.655D+00
 Coeff:      0.966D-02 0.155D-01 0.179D+00 0.426D+00 0.370D+00
 Gap=     0.205 Goal=   None    Shift=    0.000
 RMSDP=2.50D-04 MaxDP=1.09D-02 DE=-1.54D-03 OVMax= 2.31D-02

 Cycle   6  Pass 0  IDiag  1:
 E= -469.948985420355     Delta-E=       -0.001358077109 Rises=F Damp=F
 DIIS: error= 1.25D-03 at cycle   6 NSaved=   6.
 NSaved= 6 IEnMin= 6 EnMin= -469.948985420355     IErMin= 6 ErrMin= 1.25D-03
 ErrMax= 1.25D-03  0.00D+00 EMaxC= 1.00D-01 BMatC= 1.09D-04 BMatP= 1.81D-03
 IDIUse=3 WtCom= 9.88D-01 WtEn= 1.25D-02
 Coeff-Com:  0.265D-02-0.389D-03 0.657D-01 0.193D+00 0.242D+00 0.497D+00
 Coeff-En:   0.000D+00 0.000D+00 0.000D+00 0.000D+00 0.559D-01 0.944D+00
 Coeff:      0.261D-02-0.384D-03 0.649D-01 0.191D+00 0.240D+00 0.502D+00
 Gap=     0.205 Goal=   None    Shift=    0.000
 RMSDP=6.52D-05 MaxDP=3.05D-03 DE=-1.36D-03 OVMax= 4.51D-03

 Cycle   7  Pass 0  IDiag  1:
 E= -469.949069002393     Delta-E=       -0.000083582038 Rises=F Damp=F
 DIIS: error= 1.53D-04 at cycle   7 NSaved=   7.
 NSaved= 7 IEnMin= 7 EnMin= -469.949069002393     IErMin= 7 ErrMin= 1.53D-04
 ErrMax= 1.53D-04  0.00D+00 EMaxC= 1.00D-01 BMatC= 6.12D-06 BMatP= 1.09D-04
 IDIUse=3 WtCom= 9.98D-01 WtEn= 1.53D-03
 Coeff-Com:  0.756D-03-0.153D-02 0.221D-01 0.761D-01 0.110D+00 0.293D+00
 Coeff-Com:  0.500D+00
 Coeff-En:   0.000D+00 0.000D+00 0.000D+00 0.000D+00 0.000D+00 0.000D+00
 Coeff-En:   0.100D+01
 Coeff:      0.754D-03-0.153D-02 0.221D-01 0.760D-01 0.110D+00 0.293D+00
 Coeff:      0.500D+00
 Gap=     0.205 Goal=   None    Shift=    0.000
 RMSDP=1.74D-05 MaxDP=5.55D-04 DE=-8.36D-05 OVMax= 1.14D-03

 Cycle   8  Pass 0  IDiag  1:
 E= -469.949073533669     Delta-E=       -0.000004531277 Rises=F Damp=F
 DIIS: error= 6.52D-05 at cycle   8 NSaved=   8.
 NSaved= 8 IEnMin= 8 EnMin= -469.949073533669     IErMin= 8 ErrMin= 6.52D-05
 ErrMax= 6.52D-05  0.00D+00 EMaxC= 1.00D-01 BMatC= 9.02D-07 BMatP= 6.12D-06
 IDIUse=1 WtCom= 1.00D+00 WtEn= 0.00D+00
 Coeff-Com:  0.204D-03-0.114D-02 0.756D-02 0.300D-01 0.466D-01 0.139D+00
 Coeff-Com:  0.332D+00 0.446D+00
 Coeff:      0.204D-03-0.114D-02 0.756D-02 0.300D-01 0.466D-01 0.139D+00
 Coeff:      0.332D+00 0.446D+00
 Gap=     0.205 Goal=   None    Shift=    0.000
 RMSDP=6.29D-06 MaxDP=1.77D-04 DE=-4.53D-06 OVMax= 3.44D-04

 Initial convergence to 1.0D-05 achieved.  Increase integral accuracy.
 Cycle   9  Pass 1  IDiag  1:
 E= -469.949019700247     Delta-E=        0.000053833422 Rises=F Damp=F
 DIIS: error= 1.42D-05 at cycle   1 NSaved=   1.
 NSaved= 1 IEnMin= 1 EnMin= -469.949019700247     IErMin= 1 ErrMin= 1.42D-05
 ErrMax= 1.42D-05  0.00D+00 EMaxC= 1.00D-01 BMatC= 5.05D-08 BMatP= 5.05D-08
 IDIUse=1 WtCom= 1.00D+00 WtEn= 0.00D+00
 Coeff-Com:  0.100D+01
 Coeff:      0.100D+01
 Gap=     0.205 Goal=   None    Shift=    0.000
 RMSDP=6.29D-06 MaxDP=1.77D-04 DE= 5.38D-05 OVMax= 9.54D-05

 Cycle  10  Pass 1  IDiag  1:
 E= -469.949019713331     Delta-E=       -0.000000013084 Rises=F Damp=F
 DIIS: error= 1.10D-05 at cycle   2 NSaved=   2.
 NSaved= 2 IEnMin= 2 EnMin= -469.949019713331     IErMin= 2 ErrMin= 1.10D-05
 ErrMax= 1.10D-05  0.00D+00 EMaxC= 1.00D-01 BMatC= 4.52D-08 BMatP= 5.05D-08
 IDIUse=1 WtCom= 1.00D+00 WtEn= 0.00D+00
 Coeff-Com:  0.483D+00 0.517D+00
 Coeff:      0.483D+00 0.517D+00
 Gap=     0.205 Goal=   None    Shift=    0.000
 RMSDP=1.81D-06 MaxDP=6.16D-05 DE=-1.31D-08 OVMax= 7.24D-05

 Cycle  11  Pass 1  IDiag  1:
 E= -469.949019746938     Delta-E=       -0.000000033607 Rises=F Damp=F
 DIIS: error= 5.83D-06 at cycle   3 NSaved=   3.
 NSaved= 3 IEnMin= 3 EnMin= -469.949019746938     IErMin= 3 ErrMin= 5.83D-06
 ErrMax= 5.83D-06  0.00D+00 EMaxC= 1.00D-01 BMatC= 8.88D-09 BMatP= 4.52D-08
 IDIUse=1 WtCom= 1.00D+00 WtEn= 0.00D+00
 Coeff-Com:  0.709D-01 0.303D+00 0.626D+00
 Coeff:      0.709D-01 0.303D+00 0.626D+00
 Gap=     0.205 Goal=   None    Shift=    0.000
 RMSDP=7.48D-07 MaxDP=2.54D-05 DE=-3.36D-08 OVMax= 4.32D-05

 Cycle  12  Pass 1  IDiag  1:
 E= -469.949019752037     Delta-E=       -0.000000005100 Rises=F Damp=F
 DIIS: error= 4.80D-06 at cycle   4 NSaved=   4.
 NSaved= 4 IEnMin= 4 EnMin= -469.949019752037     IErMin= 4 ErrMin= 4.80D-06
 ErrMax= 4.80D-06  0.00D+00 EMaxC= 1.00D-01 BMatC= 3.06D-09 BMatP= 8.88D-09
 IDIUse=1 WtCom= 1.00D+00 WtEn= 0.00D+00
 Coeff-Com: -0.930D-02 0.151D+00 0.444D+00 0.414D+00
 Coeff:     -0.930D-02 0.151D+00 0.444D+00 0.414D+00
 Gap=     0.205 Goal=   None    Shift=    0.000
 RMSDP=3.44D-07 MaxDP=1.28D-05 DE=-5.10D-09 OVMax= 2.30D-05

 Cycle  13  Pass 1  IDiag  1:
 E= -469.949019754567     Delta-E=       -0.000000002530 Rises=F Damp=F
 DIIS: error= 2.15D-06 at cycle   5 NSaved=   5.
 NSaved= 5 IEnMin= 5 EnMin= -469.949019754567     IErMin= 5 ErrMin= 2.15D-06
 ErrMax= 2.15D-06  0.00D+00 EMaxC= 1.00D-01 BMatC= 2.27D-10 BMatP= 3.06D-09
 IDIUse=1 WtCom= 1.00D+00 WtEn= 0.00D+00
 Coeff-Com: -0.105D-01 0.873D-01 0.269D+00 0.287D+00 0.367D+00
 Coeff:     -0.105D-01 0.873D-01 0.269D+00 0.287D+00 0.367D+00
 Gap=     0.205 Goal=   None    Shift=    0.000
 RMSDP=9.59D-08 MaxDP=3.93D-06 DE=-2.53D-09 OVMax= 8.41D-06

 Cycle  14  Pass 1  IDiag  1:
 E= -469.949019754731     Delta-E=       -0.000000000164 Rises=F Damp=F
 DIIS: error= 5.96D-07 at cycle   6 NSaved=   6.
 NSaved= 6 IEnMin= 6 EnMin= -469.949019754731     IErMin= 6 ErrMin= 5.96D-07
 ErrMax= 5.96D-07  0.00D+00 EMaxC= 1.00D-01 BMatC= 2.73D-11 BMatP= 2.27D-10
 IDIUse=1 WtCom= 1.00D+00 WtEn= 0.00D+00
 Coeff-Com: -0.492D-02 0.300D-01 0.932D-01 0.118D+00 0.266D+00 0.498D+00
 Coeff:     -0.492D-02 0.300D-01 0.932D-01 0.118D+00 0.266D+00 0.498D+00
 Gap=     0.205 Goal=   None    Shift=    0.000
 RMSDP=3.01D-08 MaxDP=1.20D-06 DE=-1.64D-10 OVMax= 1.90D-06

 Cycle  15  Pass 1  IDiag  1:
 E= -469.949019754749     Delta-E=       -0.000000000018 Rises=F Damp=F
 DIIS: error= 4.98D-08 at cycle   7 NSaved=   7.
 NSaved= 7 IEnMin= 7 EnMin= -469.949019754749     IErMin= 7 ErrMin= 4.98D-08
 ErrMax= 4.98D-08  0.00D+00 EMaxC= 1.00D-01 BMatC= 9.90D-13 BMatP= 2.73D-11
 IDIUse=1 WtCom= 1.00D+00 WtEn= 0.00D+00
 Coeff-Com: -0.182D-02 0.840D-02 0.257D-01 0.396D-01 0.109D+00 0.249D+00
 Coeff-Com:  0.570D+00
 Coeff:     -0.182D-02 0.840D-02 0.257D-01 0.396D-01 0.109D+00 0.249D+00
 Coeff:      0.570D+00
 Gap=     0.205 Goal=   None    Shift=    0.000
 RMSDP=5.88D-09 MaxDP=1.76D-07 DE=-1.82D-11 OVMax= 1.74D-07

 SCF Done:  E(RB3LYP) =  -469.949019755     A.U. after   15 cycles
            NFock= 15  Conv=0.59D-08     -V/T= 2.0062
 KE= 4.670658765206D+02 PE=-1.984915430819D+03 EE= 6.042220430673D+02
 Leave Link  502 at Fri Aug 20 15:55:29 2021, MaxMem= 24159191040 cpu:        58.1
 (Enter /public/home/users/caep010/software/Gaussian09/g09/l601.exe)
 Copying SCF densities to generalized density rwf, IOpCl= 0 IROHF=0.

 **********************************************************************

            Population analysis using the SCF density.

 **********************************************************************

 Orbital symmetries:
       Occupied  (A) (A) (A) (A) (A) (A) (A) (A) (A) (A) (A) (A)
                 (A) (A) (A) (A) (A) (A) (A) (A) (A) (A) (A) (A)
                 (A) (A) (A) (A) (A) (A) (A) (A) (A)
       Virtual   (A) (A) (A) (A) (A) (A) (A) (A) (A) (A) (A) (A)
                 (A) (A) (A) (A) (A) (A) (A) (A) (A) (A) (A) (A)
                 (A) (A) (A) (A) (A) (A) (A) (A) (A) (A) (A) (A)
                 (A) (A) (A) (A) (A) (A) (A) (A) (A) (A) (A) (A)
                 (A) (A) (A) (A) (A) (A) (A) (A) (A) (A) (A) (A)
                 (A) (A) (A) (A) (A) (A) (A) (A) (A) (A) (A) (A)
                 (A) (A) (A) (A) (A) (A) (A) (A) (A) (A) (A) (A)
                 (A) (A) (A) (A) (A) (A) (A) (A) (A) (A) (A) (A)
                 (A) (A) (A) (A) (A) (A) (A) (A) (A) (A) (A) (A)
                 (A) (A) (A) (A) (A) (A) (A) (A) (A) (A) (A) (A)
                 (A) (A) (A) (A) (A) (A) (A)
 The electronic state is 1-A.
 Alpha  occ. eigenvalues --  -19.17186 -19.16550 -14.56842 -14.44980 -14.37511
 Alpha  occ. eigenvalues --  -10.24508 -10.24185 -10.23171 -10.22420  -1.22895
 Alpha  occ. eigenvalues --   -1.08844  -1.04608  -0.88845  -0.85006  -0.78629
 Alpha  occ. eigenvalues --   -0.71545  -0.63234  -0.61913  -0.56892  -0.53652
 Alpha  occ. eigenvalues --   -0.52988  -0.50733  -0.50340  -0.49497  -0.46840
 Alpha  occ. eigenvalues --   -0.45009  -0.41588  -0.32600  -0.30154  -0.30089
 Alpha  occ. eigenvalues --   -0.28953  -0.28137  -0.27673
 Alpha virt. eigenvalues --   -0.07158  -0.00636   0.07589   0.08893   0.11286
 Alpha virt. eigenvalues --    0.13052   0.16581   0.17564   0.18081   0.19488
 Alpha virt. eigenvalues --    0.20645   0.24994   0.28356   0.29138   0.35471
 Alpha virt. eigenvalues --    0.36318   0.43390   0.44690   0.47160   0.51201
 Alpha virt. eigenvalues --    0.52396   0.54733   0.56574   0.58125   0.62771
 Alpha virt. eigenvalues --    0.63202   0.64740   0.70317   0.70984   0.73335
 Alpha virt. eigenvalues --    0.74067   0.77928   0.78536   0.80370   0.82873
 Alpha virt. eigenvalues --    0.83363   0.84575   0.85912   0.87686   0.89748
 Alpha virt. eigenvalues --    0.94969   0.95341   0.96391   0.97156   0.98755
 Alpha virt. eigenvalues --    1.00185   1.00426   1.10246   1.10822   1.16348
 Alpha virt. eigenvalues --    1.22346   1.25007   1.28456   1.29900   1.31142
 Alpha virt. eigenvalues --    1.34329   1.35074   1.36764   1.41886   1.44009
 Alpha virt. eigenvalues --    1.48228   1.51478   1.57392   1.64712   1.68135
 Alpha virt. eigenvalues --    1.69646   1.73955   1.78474   1.81032   1.82126
 Alpha virt. eigenvalues --    1.83472   1.88885   1.90345   1.92388   1.95056
 Alpha virt. eigenvalues --    1.99123   2.00818   2.02215   2.09295   2.11481
 Alpha virt. eigenvalues --    2.13690   2.15160   2.16565   2.17241   2.18409
 Alpha virt. eigenvalues --    2.22660   2.24535   2.29429   2.36903   2.38336
 Alpha virt. eigenvalues --    2.39108   2.44062   2.48263   2.48896   2.53887
 Alpha virt. eigenvalues --    2.56518   2.65586   2.67278   2.71747   2.71804
 Alpha virt. eigenvalues --    2.74231   2.78673   2.81986   2.83948   2.90609
 Alpha virt. eigenvalues --    2.93933   2.96025   3.00256   3.01594   3.11897
 Alpha virt. eigenvalues --    3.14015   3.19055   3.42932   3.51308   3.62829
 Alpha virt. eigenvalues --    3.66698   3.69350   3.81609   3.85516   3.91505
 Alpha virt. eigenvalues --    3.94062   4.03662   4.05401   4.24395   4.32176
 Alpha virt. eigenvalues --    4.48839   4.76463
          Condensed to atoms (all electrons):
               1          2          3          4          5          6
     1  N    6.650912   0.312177   0.292928  -0.001217   0.004856  -0.128654
     2  C    0.312177   4.749122  -0.049877   0.005692  -0.000058   0.006516
     3  C    0.292928  -0.049877   4.934667   0.440293  -0.061714  -0.084797
     4  C   -0.001217   0.005692   0.440293   5.064355   0.139159   0.480253
     5  N    0.004856  -0.000058  -0.061714   0.139159   6.011503  -0.047619
     6  C   -0.128654   0.006516  -0.084797   0.480253  -0.047619   4.732571
     7  H    0.005101  -0.000227   0.011171  -0.043919  -0.008103   0.391341
     8  O    0.000498   0.000003   0.009050  -0.097198   0.308143   0.004871
     9  O   -0.000051   0.000001   0.006631  -0.095220   0.313895   0.003637
    10  N    0.282630  -0.053959  -0.127706   0.007316   0.006184   0.442786
    11  H   -0.049258  -0.001699   0.382335  -0.024926  -0.006582   0.006235
    12  H   -0.026457   0.391704   0.001292  -0.000160   0.000000   0.000202
    13  H   -0.025158   0.401826   0.000357   0.000060  -0.000005  -0.000293
    14  H   -0.040579   0.390549   0.002810  -0.000346   0.000001   0.000442
               7          8          9         10         11         12
     1  N    0.005101   0.000498  -0.000051   0.282630  -0.049258  -0.026457
     2  C   -0.000227   0.000003   0.000001  -0.053959  -0.001699   0.391704
     3  C    0.011171   0.009050   0.006631  -0.127706   0.382335   0.001292
     4  C   -0.043919  -0.097198  -0.095220   0.007316  -0.024926  -0.000160
     5  N   -0.008103   0.308143   0.313895   0.006184  -0.006582   0.000000
     6  C    0.391341   0.004871   0.003637   0.442786   0.006235   0.000202
     7  H    0.574252  -0.000017   0.007909  -0.049574  -0.000186  -0.000004
     8  O   -0.000017   8.297127  -0.104839  -0.000059   0.006430  -0.000000
     9  O    0.007909  -0.104839   8.276721   0.000272  -0.000024  -0.000000
    10  N   -0.049574  -0.000059   0.000272   6.787997   0.004615   0.003219
    11  H   -0.000186   0.006430  -0.000024   0.004615   0.565116   0.000061
    12  H   -0.000004  -0.000000  -0.000000   0.003219   0.000061   0.563948
    13  H    0.000006   0.000001   0.000000   0.003653   0.002102  -0.025285
    14  H   -0.000003   0.000000  -0.000000   0.005456  -0.000020  -0.060917
              13         14
     1  N   -0.025158  -0.040579
     2  C    0.401826   0.390549
     3  C    0.000357   0.002810
     4  C    0.000060  -0.000346
     5  N   -0.000005   0.000001
     6  C   -0.000293   0.000442
     7  H    0.000006  -0.000003
     8  O    0.000001   0.000000
     9  O    0.000000  -0.000000
    10  N    0.003653   0.005456
    11  H    0.002102  -0.000020
    12  H   -0.025285  -0.060917
    13  H    0.528283  -0.024193
    14  H   -0.024193   0.571895
 Mulliken charges:
               1
     1  N   -0.277729
     2  C   -0.151770
     3  C    0.242560
     4  C    0.125859
     5  N    0.340339
     6  C    0.192510
     7  H    0.112253
     8  O   -0.424009
     9  O   -0.408932
    10  N   -0.312830
    11  H    0.115801
    12  H    0.152397
    13  H    0.138646
    14  H    0.154905
 Sum of Mulliken charges =  -0.00000
 Mulliken charges with hydrogens summed into heavy atoms:
               1
     1  N   -0.277729
     2  C    0.294177
     3  C    0.358361
     4  C    0.125859
     5  N    0.340339
     6  C    0.304763
     8  O   -0.424009
     9  O   -0.408932
    10  N   -0.312830
 Electronic spatial extent (au):  <R**2>=           1207.1012
 Charge=             -0.0000 electrons
 Dipole moment (field-independent basis, Debye):
    X=             -5.5570    Y=             -1.3090    Z=             -0.1158  Tot=              5.7103
 Quadrupole moment (field-independent basis, Debye-Ang):
   XX=            -52.5244   YY=            -50.6883   ZZ=            -50.0147
   XY=              7.4723   XZ=              0.2741   YZ=              0.3906
 Traceless Quadrupole moment (field-independent basis, Debye-Ang):
   XX=             -1.4486   YY=              0.3875   ZZ=              1.0611
   XY=              7.4723   XZ=              0.2741   YZ=              0.3906
 Octapole moment (field-independent basis, Debye-Ang**2):
  XXX=            -55.4804  YYY=             -2.3507  ZZZ=             -0.0656  XYY=             -2.0562
  XXY=            -11.7608  XXZ=             -0.1428  XZZ=              6.5093  YZZ=             -1.1623
  YYZ=             -0.7290  XYZ=              0.1111
 Hexadecapole moment (field-independent basis, Debye-Ang**3):
 XXXX=          -1067.9822 YYYY=           -284.4273 ZZZZ=            -48.4210 XXXY=             28.9503
 XXXZ=              0.2482 YYYX=             26.3753 YYYZ=              0.8063 ZZZX=             -0.0328
 ZZZY=             -0.3721 XXYY=           -258.2983 XXZZ=           -189.8535 YYZZ=            -59.5572
 XXYZ=              2.4196 YYXZ=              1.4112 ZZXY=             -1.3087
 N-N= 4.436784914763D+02 E-N=-1.984915428721D+03  KE= 4.670658765206D+02
 No NMR shielding tensors so no spin-rotation constants.
 Leave Link  601 at Fri Aug 20 15:55:29 2021, MaxMem= 24159191040 cpu:        11.3
 (Enter /public/home/users/caep010/software/Gaussian09/g09/l701.exe)
 Compute integral first derivatives.
 ... and contract with generalized density number  0.
 Leave Link  701 at Fri Aug 20 15:55:30 2021, MaxMem= 24159191040 cpu:        11.1
 (Enter /public/home/users/caep010/software/Gaussian09/g09/l702.exe)
 L702 exits ... SP integral derivatives will be done elsewhere.
 Leave Link  702 at Fri Aug 20 15:55:30 2021, MaxMem= 24159191040 cpu:         0.5
 (Enter /public/home/users/caep010/software/Gaussian09/g09/l703.exe)
 Compute integral first derivatives, UseDBF=F ICtDFT=           0.
 Integral derivatives from FoFJK, PRISM(SPDF).
 Calling FoFJK, ICntrl=      2127 FMM=F ISym2X=0 I1Cent= 0 IOpClX= 0 NMat=1 NMatS=1 NMatT=0.
 FoFJK:  IHMeth= 1 ICntrl=    2127 DoSepK=F KAlg= 0 I1Cent=   0 FoldK=F
 IRaf=         0 NMat=   1 IRICut=       1 DoRegI=T DoRafI=F ISym2E= 0.
 FoFCou: FMM=F IPFlag=           0 FMFlag=      100000 FMFlg1=         800
         NFxFlg=           0 DoJE=F BraDBF=F KetDBF=F FulRan=T
         wScrn=  0.000000 ICntrl=    2127 IOpCl=  0 I1Cent=           0 NGrid=           0
         NMat0=    1 NMatS0=      1 NMatT0=    0 NMatD0=    1 NMtDS0=    0 NMtDT0=    0
 Symmetry not used in FoFCou.
 Leave Link  703 at Fri Aug 20 15:55:30 2021, MaxMem= 24159191040 cpu:        15.1
 (Enter /public/home/users/caep010/software/Gaussian09/g09/l716.exe)
 Dipole        =-2.18630853D+00-5.14984908D-01-4.55558415D-02
 ***** Axes restored to original set *****
 -------------------------------------------------------------------
 Center     Atomic                   Forces (Hartrees/Bohr)
 Number     Number              X              Y              Z
 -------------------------------------------------------------------
      1        7          -0.012345947    0.016147187    0.001229744
      2        6           0.066148434    0.019093195    0.039298088
      3        6           0.046565441    0.117777175    0.016085685
      4        6           0.005782792   -0.000400062    0.006408364
      5        7          -0.006078901   -0.021704924   -0.002772977
      6        6          -0.077170717   -0.088989399   -0.042293144
      7        1           0.089951047    0.097834944    0.047164201
      8        8          -0.009251794   -0.010269656   -0.003843279
      9        8           0.022918680    0.025388302    0.011379390
     10        7          -0.014117216    0.007559266   -0.011711137
     11        1          -0.054765203   -0.150577904   -0.014238707
     12        1          -0.067856709    0.034768052    0.054604883
     13        1          -0.023592694   -0.079972702   -0.017622319
     14        1           0.033812787    0.033346526   -0.083688792
 -------------------------------------------------------------------
 Cartesian Forces:  Max     0.150577904 RMS     0.051692768
 Leave Link  716 at Fri Aug 20 15:55:30 2021, MaxMem= 24159191040 cpu:         0.8
 (Enter /public/home/users/caep010/software/Gaussian09/g09/l103.exe)

 GradGradGradGradGradGradGradGradGradGradGradGradGradGradGradGradGradGrad
 Berny optimization.
 FormGI is forming the generalized inverse of G from B-inverse, IUseBI=4.
 Internal  Forces:  Max     0.160443782 RMS     0.034666638
 Search for a local minimum.
 Step number   1 out of a maximum of   72
 All quantities printed in internal units (Hartrees-Bohrs-Radians)
 RMS Force = .34667D-01 SwitMx=.10000D-02 MixMth= 1
 Mixed Optimization -- RFO/linear search
 Second derivative matrix not updated -- first step.
 ITU=  0
     Eigenvalues ---    0.00984   0.01529   0.01530   0.01711   0.02046
     Eigenvalues ---    0.02251   0.02330   0.02466   0.02584   0.05817
     Eigenvalues ---    0.08062   0.15970   0.15979   0.16000   0.16000
     Eigenvalues ---    0.16000   0.23368   0.24050   0.24986   0.24998
     Eigenvalues ---    0.25000   0.25000   0.37787   0.42560   0.43645
     Eigenvalues ---    0.47542   0.48097   0.48653   0.49292   0.51543
     Eigenvalues ---    0.56679   0.58324   0.61406   0.61886   0.90049
     Eigenvalues ---    0.99655
 RFO step:  Lambda=-1.17673365D-01 EMin= 9.83725033D-03
 Linear search not attempted -- first point.
 Maximum step size (   0.300) exceeded in Quadratic search.
    -- Step size scaled by   0.693
 Iteration  1 RMS(Cart)=  0.04271130 RMS(Int)=  0.00142099
 Iteration  2 RMS(Cart)=  0.00137722 RMS(Int)=  0.00053321
 Iteration  3 RMS(Cart)=  0.00000475 RMS(Int)=  0.00053319
 Iteration  4 RMS(Cart)=  0.00000001 RMS(Int)=  0.00053319
 ITry= 1 IFail=0 DXMaxC= 1.79D-01 DCOld= 1.00D+10 DXMaxT= 3.00D-01 DXLimC= 3.00D+00 Rises=F
 Variable       Old X    -DE/DX   Delta X   Delta X   Delta X     New X
                                 (Linear)    (Quad)   (Total)
    R1        2.74677  -0.00282   0.00000  -0.00394  -0.00394   2.74283
    R2        2.50078   0.02689   0.00000   0.02612   0.02613   2.52691
    R3        2.57036   0.00127   0.00000   0.00122   0.00121   2.57157
    R4        1.88536   0.08622   0.00000   0.09977   0.09977   1.98513
    R5        1.87286   0.08495   0.00000   0.09638   0.09638   1.96924
    R6        1.87950   0.09266   0.00000   0.10624   0.10624   1.98574
    R7        2.58730   0.01660   0.00000   0.01887   0.01889   2.60619
    R8        1.76544   0.16044   0.00000   0.15189   0.15189   1.91733
    R9        2.66881   0.01099   0.00000   0.01374   0.01374   2.68255
   R10        2.64211   0.01388   0.00000   0.01630   0.01630   2.65841
   R11        2.32910   0.01108   0.00000   0.00754   0.00754   2.33664
   R12        2.28777   0.03462   0.00000   0.02152   0.02152   2.30929
   R13        1.78992   0.14099   0.00000   0.13935   0.13935   1.92927
   R14        2.48527   0.01603   0.00000   0.01416   0.01415   2.49942
    A1        2.21991   0.00184   0.00000   0.00295   0.00295   2.22286
    A2        2.10048  -0.00613   0.00000  -0.01206  -0.01206   2.08842
    A3        1.96272   0.00430   0.00000   0.00912   0.00912   1.97185
    A4        2.02241  -0.01828   0.00000  -0.04741  -0.04894   1.97347
    A5        1.99476  -0.00614   0.00000  -0.02425  -0.02595   1.96881
    A6        1.84279   0.00243   0.00000   0.01633   0.01671   1.85950
    A7        2.02137   0.00398   0.00000  -0.00186  -0.00450   2.01687
    A8        1.58952   0.02820   0.00000   0.09298   0.09364   1.68316
    A9        1.93881  -0.00162   0.00000  -0.00420  -0.00405   1.93477
   A10        1.85411  -0.00654   0.00000  -0.01097  -0.01094   1.84317
   A11        2.06726   0.01338   0.00000   0.03076   0.03075   2.09801
   A12        2.36108  -0.00682   0.00000  -0.01967  -0.01969   2.34139
   A13        2.20587  -0.00074   0.00000  -0.00174  -0.00175   2.20412
   A14        1.84907   0.00079   0.00000   0.00222   0.00224   1.85131
   A15        2.22793  -0.00005   0.00000  -0.00045  -0.00047   2.22747
   A16        2.06085  -0.00656   0.00000  -0.01233  -0.01234   2.04851
   A17        2.07616  -0.00810   0.00000  -0.01523  -0.01524   2.06092
   A18        2.14611   0.01467   0.00000   0.02765   0.02764   2.17375
   A19        2.24391  -0.00116   0.00000  -0.00175  -0.00175   2.24217
   A20        1.92407   0.00143   0.00000   0.00146   0.00143   1.92551
   A21        2.11342  -0.00020   0.00000   0.00066   0.00066   2.11408
   A22        1.83478   0.00001   0.00000  -0.00183  -0.00186   1.83291
    D1        2.22758  -0.01731   0.00000  -0.06524  -0.06406   2.16353
    D2       -0.19119   0.00626   0.00000   0.02645   0.02548  -0.16570
    D3       -2.32727   0.01036   0.00000   0.03507   0.03485  -2.29242
    D4       -0.90044  -0.01742   0.00000  -0.06585  -0.06467  -0.96511
    D5        2.96397   0.00615   0.00000   0.02584   0.02487   2.98884
    D6        0.82789   0.01025   0.00000   0.03446   0.03424   0.86213
    D7       -3.13250  -0.00028   0.00000  -0.00175  -0.00177  -3.13427
    D8       -0.02597   0.00004   0.00000   0.00067   0.00072  -0.02525
    D9       -0.00357  -0.00025   0.00000  -0.00132  -0.00133  -0.00490
   D10        3.10296   0.00008   0.00000   0.00110   0.00116   3.10412
   D11        3.12951   0.00035   0.00000   0.00188   0.00190   3.13141
   D12       -0.00039   0.00026   0.00000   0.00137   0.00139   0.00100
   D13        3.12219   0.00037   0.00000   0.00188   0.00187   3.12406
   D14        0.00584   0.00013   0.00000   0.00072   0.00071   0.00655
   D15        0.02441  -0.00065   0.00000  -0.00275  -0.00271   0.02170
   D16       -3.09193  -0.00089   0.00000  -0.00391  -0.00387  -3.09580
   D17       -0.05776  -0.00028   0.00000  -0.00140  -0.00139  -0.05915
   D18        3.07206   0.00118   0.00000   0.00624   0.00625   3.07831
   D19        3.05317   0.00002   0.00000   0.00005   0.00004   3.05322
   D20       -0.10019   0.00149   0.00000   0.00769   0.00768  -0.09251
   D21       -3.08361  -0.00136   0.00000  -0.00663  -0.00663  -3.09024
   D22       -0.00639  -0.00001   0.00000   0.00006   0.00006  -0.00633
   D23        0.08365  -0.00160   0.00000  -0.00779  -0.00779   0.07586
   D24       -3.12232  -0.00024   0.00000  -0.00110  -0.00109  -3.12341
   D25        0.00419  -0.00014   0.00000  -0.00084  -0.00084   0.00335
   D26        3.08701   0.00104   0.00000   0.00517   0.00517   3.09219
         Item               Value     Threshold  Converged?
 Maximum Force            0.160444     0.000450     NO 
 RMS     Force            0.034667     0.000300     NO 
 Maximum Displacement     0.178669     0.001800     NO 
 RMS     Displacement     0.042855     0.001200     NO 
 Predicted change in Energy=-5.927437D-02
 Lowest energy point so far.  Saving SCF results.
 GradGradGradGradGradGradGradGradGradGradGradGradGradGradGradGradGradGrad

 Leave Link  103 at Fri Aug 20 15:55:30 2021, MaxMem= 24159191040 cpu:         2.7
 (Enter /public/home/users/caep010/software/Gaussian09/g09/l202.exe)
                          Input orientation:                          
 ---------------------------------------------------------------------
 Center     Atomic      Atomic             Coordinates (Angstroms)
 Number     Number       Type             X           Y           Z
 ---------------------------------------------------------------------
      1          7           0        0.210492    1.956998    2.158712
      2          6           0       -0.971698    1.944667    1.316717
      3          6           0        0.807175    0.908269    2.735074
      4          6           0        1.875728    1.427935    3.435190
      5          7           0        2.797438    0.694709    4.227618
      6          6           0        1.838599    2.818683    3.226764
      7          1           0        2.495401    3.527855    3.555359
      8          8           0        2.597428   -0.518753    4.355818
      9          8           0        3.732223    1.299936    4.730832
     10          7           0        0.821553    3.138916    2.444185
     11          1           0        0.422568   -0.023747    2.621698
     12          1           0       -1.736906    2.570396    1.672302
     13          1           0       -1.266494    0.981822    1.048485
     14          1           0       -0.738806    2.515312    0.465647
 ---------------------------------------------------------------------
                    Distance matrix (angstroms):
                    1          2          3          4          5
     1  N    0.000000
     2  C    1.451441   0.000000
     3  C    1.337182   2.500050   0.000000
     4  C    2.163866   3.586472   1.379138   0.000000
     5  N    3.544860   4.923630   2.496887   1.419546   0.000000
     6  C    2.129312   3.508555   2.226045   1.406769   2.536206
     7  H    3.104677   4.420269   3.222608   2.192738   2.927435
     8  O    4.080941   5.295586   2.805032   2.271123   1.236499
     9  O    4.410229   5.847968   3.562634   2.267519   1.222026
    10  N    1.360816   2.431700   2.249580   2.240721   3.613710
    11  H    2.045162   2.742556   1.014609   2.209259   2.955531
    12  H    2.098859   1.050486   3.219394   4.179009   5.532460
    13  H    2.089273   1.042076   2.673967   3.971013   5.167675
    14  H    2.019740   1.050807   3.181657   4.103214   5.474673
                    6          7          8          9         10
     6  C    0.000000
     7  H    1.020925   0.000000
     8  O    3.604034   4.126279   0.000000
     9  O    2.855630   2.806259   2.176241   0.000000
    10  N    1.322635   2.046398   4.492951   4.133110   0.000000
    11  H    3.232748   4.216899   2.825281   4.141787   3.192670
    12  H    3.906691   4.730227   5.960750   6.393750   2.732166
    13  H    4.214328   5.188309   5.302836   6.216756   3.310736
    14  H    3.789303   4.586028   5.955622   6.297542   2.595807
                   11         12         13         14
    11  H    0.000000
    12  H    3.506318   0.000000
    13  H    2.517757   1.770312   0.000000
    14  H    3.527629   1.566926   1.723295   0.000000
 Stoichiometry    C4H5N3O2
 Framework group  C1[X(C4H5N3O2)]
 Deg. of freedom    36
 Full point group                 C1      NOp   1
 RotChk:  IX=0 Diff= 3.34D-03
 Largest Abelian subgroup         C1      NOp   1
 Largest concise Abelian subgroup C1      NOp   1
                         Standard orientation:                         
 ---------------------------------------------------------------------
 Center     Atomic      Atomic             Coordinates (Angstroms)
 Number     Number       Type             X           Y           Z
 ---------------------------------------------------------------------
      1          7           0       -1.675117   -0.120565   -0.005935
      2          6           0       -3.033658   -0.631491   -0.004446
      3          6           0       -0.541572   -0.829562   -0.027298
      4          6           0        0.477530    0.099480   -0.009015
      5          7           0        1.869240   -0.180146   -0.001032
      6          6           0       -0.145399    1.360131    0.032429
      7          1           0        0.288781    2.283954    0.014367
      8          8           0        2.210218   -1.367446    0.053570
      9          8           0        2.645619    0.762144   -0.052718
     10          7           0       -1.460880    1.222759    0.031528
     11          1           0       -0.573591   -1.843656   -0.022877
     12          1           0       -3.602757   -0.285356    0.807858
     13          1           0       -3.079491   -1.657521   -0.180756
     14          1           0       -3.553739   -0.100672   -0.747374
 ---------------------------------------------------------------------
 Rotational constants (GHZ):      4.6421487      1.0947321      0.8901410
 Leave Link  202 at Fri Aug 20 15:55:30 2021, MaxMem= 24159191040 cpu:         0.3
 (Enter /public/home/users/caep010/software/Gaussian09/g09/l301.exe)
 Standard basis: 6-31G(d,p) (6D, 7F)
 Ernie: Thresh=  0.10000D-02 Tol=  0.10000D-05 Strict=F.
 There are   160 symmetry adapted cartesian basis functions of A   symmetry.
 There are   160 symmetry adapted basis functions of A   symmetry.
   160 basis functions,   287 primitive gaussians,   160 cartesian basis functions
    33 alpha electrons       33 beta electrons
       nuclear repulsion energy       440.2147408600 Hartrees.
 IExCor=  402 DFT=T Ex+Corr=B3LYP ExCW=0 ScaHFX=  0.200000
 ScaDFX=  0.800000  0.720000  1.000000  0.810000 ScalE2=  1.000000  1.000000
 IRadAn=      0 IRanWt=     -1 IRanGd=            0 ICorTp=0 IEmpDi=  4
 NAtoms=   14 NActive=   14 NUniq=   14 SFac= 1.00D+00 NAtFMM=   60 NAOKFM=F Big=F
 Integral buffers will be    131072 words long.
 Raffenetti 2 integral format.
 Two-electron integral symmetry is turned on.
 Leave Link  301 at Fri Aug 20 15:55:31 2021, MaxMem= 24159191040 cpu:         1.8
 (Enter /public/home/users/caep010/software/Gaussian09/g09/l302.exe)
 NPDir=0 NMtPBC=     1 NCelOv=     1 NCel=       1 NClECP=     1 NCelD=      1
         NCelK=      1 NCelE2=     1 NClLst=     1 CellRange=     0.0.
 One-electron integrals computed using PRISM.
 NBasis=   160 RedAO= T EigKep=  9.68D-04  NBF=   160
 NBsUse=   160 1.00D-06 EigRej= -1.00D+00 NBFU=   160
 Precomputing XC quadrature grid using
 IXCGrd= 4 IRadAn=           0 IRanWt=          -1 IRanGd=           0 AccXCQ= 0.00D+00.
 Generated NRdTot=       0 NPtTot=           0 NUsed=           0 NTot=          32
 NSgBfM=   160   160   160   160   160 MxSgAt=    14 MxSgA2=    14.
 Leave Link  302 at Fri Aug 20 15:55:31 2021, MaxMem= 24159191040 cpu:        13.7
 (Enter /public/home/users/caep010/software/Gaussian09/g09/l303.exe)
 DipDrv:  MaxL=1.
 Leave Link  303 at Fri Aug 20 15:55:31 2021, MaxMem= 24159191040 cpu:         0.7
 (Enter /public/home/users/caep010/software/Gaussian09/g09/l401.exe)
 Initial guess from the checkpoint file:  "/public/home/users/caep010/.cache/gau_scr/Gau-202954.chk"
 B after Tr=     0.000000    0.000000   -0.000000
         Rot=    1.000000    0.000057   -0.000147   -0.000125 Ang=   0.02 deg.
 Guess basis will be translated and rotated to current coordinates.
 JPrj=2 DoOrth=T DoCkMO=T.
 Generating alternative initial guess.
 ExpMin= 1.61D-01 ExpMax= 5.48D+03 ExpMxC= 8.25D+02 IAcc=1 IRadAn=         1 AccDes= 0.00D+00
 Harris functional with IExCor=  402 and IRadAn=       1 diagonalized for initial guess.
 HarFok:  IExCor=  402 AccDes= 0.00D+00 IRadAn=         1 IDoV= 1 UseB2=F ITyADJ=14
 ICtDFT=  3500011 ScaDFX=  1.000000  1.000000  1.000000  1.000000
 FoFCou: FMM=F IPFlag=           0 FMFlag=      100000 FMFlg1=           0
         NFxFlg=           0 DoJE=T BraDBF=F KetDBF=T FulRan=T
         wScrn=  0.000000 ICntrl=     500 IOpCl=  0 I1Cent=   200000004 NGrid=           0
         NMat0=    1 NMatS0=      1 NMatT0=    0 NMatD0=    1 NMtDS0=    0 NMtDT0=    0
 Petite list used in FoFCou.
 Harris En= -470.013996195074    
 Leave Link  401 at Fri Aug 20 15:55:32 2021, MaxMem= 24159191040 cpu:        12.2
 (Enter /public/home/users/caep010/software/Gaussian09/g09/l502.exe)
 Closed shell SCF:
 Using DIIS extrapolation, IDIIS=  1040.
 Integral symmetry usage will be decided dynamically.
 Keep R1 ints in memory in canonical form, NReq=85141869.
 IVT=      101669 IEndB=      101669 NGot= 24159191040 MDV= 24076135732
 LenX= 24076135732 LenY= 24076109691
 Requested convergence on RMS density matrix=1.00D-08 within 128 cycles.
 Requested convergence on MAX density matrix=1.00D-06.
 Requested convergence on             energy=1.00D-06.
 No special actions if energy rises.
 FoFCou: FMM=F IPFlag=           0 FMFlag=           0 FMFlg1=           0
         NFxFlg=           0 DoJE=F BraDBF=F KetDBF=F FulRan=T
         wScrn=  0.000000 ICntrl=     600 IOpCl=  0 I1Cent=           0 NGrid=           0
         NMat0=    1 NMatS0=  12880 NMatT0=    0 NMatD0=    1 NMtDS0=    0 NMtDT0=    0
 Symmetry not used in FoFCou.
 Integral accuracy reduced to 1.0D-05 until final iterations.

 Cycle   1  Pass 0  IDiag  1:
 E= -469.999980431157    
 DIIS: error= 3.48D-03 at cycle   1 NSaved=   1.
 NSaved= 1 IEnMin= 1 EnMin= -469.999980431157     IErMin= 1 ErrMin= 3.48D-03
 ErrMax= 3.48D-03  0.00D+00 EMaxC= 1.00D-01 BMatC= 3.61D-03 BMatP= 3.61D-03
 IDIUse=3 WtCom= 9.65D-01 WtEn= 3.48D-02
 Coeff-Com:  0.100D+01
 Coeff-En:   0.100D+01
 Coeff:      0.100D+01
 Gap=     1.819 Goal=   None    Shift=    0.000
 GapD=    1.819 DampG=2.000 DampE=1.000 DampFc=2.0000 IDamp=-1.
 RMSDP=6.92D-04 MaxDP=1.43D-02              OVMax= 1.74D-02

 Cycle   2  Pass 0  IDiag  1:
 E= -470.003545847040     Delta-E=       -0.003565415883 Rises=F Damp=F
 DIIS: error= 2.16D-03 at cycle   2 NSaved=   2.
 NSaved= 2 IEnMin= 2 EnMin= -470.003545847040     IErMin= 2 ErrMin= 2.16D-03
 ErrMax= 2.16D-03  0.00D+00 EMaxC= 1.00D-01 BMatC= 8.72D-04 BMatP= 3.61D-03
 IDIUse=3 WtCom= 9.78D-01 WtEn= 2.16D-02
 Coeff-Com:  0.271D+00 0.729D+00
 Coeff-En:   0.000D+00 0.100D+01
 Coeff:      0.265D+00 0.735D+00
 Gap=     0.203 Goal=   None    Shift=    0.000
 RMSDP=2.77D-04 MaxDP=9.01D-03 DE=-3.57D-03 OVMax= 1.58D-02

 Cycle   3  Pass 0  IDiag  1:
 E= -470.003859942010     Delta-E=       -0.000314094970 Rises=F Damp=F
 DIIS: error= 1.98D-03 at cycle   3 NSaved=   3.
 NSaved= 3 IEnMin= 3 EnMin= -470.003859942010     IErMin= 3 ErrMin= 1.98D-03
 ErrMax= 1.98D-03  0.00D+00 EMaxC= 1.00D-01 BMatC= 6.17D-04 BMatP= 8.72D-04
 IDIUse=3 WtCom= 9.80D-01 WtEn= 1.98D-02
 Coeff-Com:  0.487D-01 0.452D+00 0.499D+00
 Coeff-En:   0.000D+00 0.395D+00 0.605D+00
 Coeff:      0.477D-01 0.451D+00 0.501D+00
 Gap=     0.204 Goal=   None    Shift=    0.000
 RMSDP=1.61D-04 MaxDP=5.98D-03 DE=-3.14D-04 OVMax= 1.12D-02

 Cycle   4  Pass 0  IDiag  1:
 E= -470.004327109093     Delta-E=       -0.000467167083 Rises=F Damp=F
 DIIS: error= 6.20D-04 at cycle   4 NSaved=   4.
 NSaved= 4 IEnMin= 4 EnMin= -470.004327109093     IErMin= 4 ErrMin= 6.20D-04
 ErrMax= 6.20D-04  0.00D+00 EMaxC= 1.00D-01 BMatC= 7.89D-05 BMatP= 6.17D-04
 IDIUse=3 WtCom= 9.94D-01 WtEn= 6.20D-03
 Coeff-Com:  0.736D-02 0.223D+00 0.319D+00 0.451D+00
 Coeff-En:   0.000D+00 0.000D+00 0.660D-01 0.934D+00
 Coeff:      0.731D-02 0.221D+00 0.317D+00 0.454D+00
 Gap=     0.203 Goal=   None    Shift=    0.000
 RMSDP=6.12D-05 MaxDP=1.92D-03 DE=-4.67D-04 OVMax= 3.29D-03

 Cycle   5  Pass 0  IDiag  1:
 E= -470.004390882195     Delta-E=       -0.000063773102 Rises=F Damp=F
 DIIS: error= 3.69D-04 at cycle   5 NSaved=   5.
 NSaved= 5 IEnMin= 5 EnMin= -470.004390882195     IErMin= 5 ErrMin= 3.69D-04
 ErrMax= 3.69D-04  0.00D+00 EMaxC= 1.00D-01 BMatC= 8.85D-06 BMatP= 7.89D-05
 IDIUse=3 WtCom= 9.96D-01 WtEn= 3.69D-03
 Coeff-Com: -0.144D-02 0.842D-01 0.132D+00 0.287D+00 0.498D+00
 Coeff-En:   0.000D+00 0.000D+00 0.000D+00 0.806D-01 0.919D+00
 Coeff:     -0.144D-02 0.838D-01 0.132D+00 0.286D+00 0.500D+00
 Gap=     0.203 Goal=   None    Shift=    0.000
 RMSDP=2.24D-05 MaxDP=9.57D-04 DE=-6.38D-05 OVMax= 1.98D-03

 Cycle   6  Pass 0  IDiag  1:
 E= -470.004395574013     Delta-E=       -0.000004691818 Rises=F Damp=F
 DIIS: error= 2.58D-04 at cycle   6 NSaved=   6.
 NSaved= 6 IEnMin= 6 EnMin= -470.004395574013     IErMin= 6 ErrMin= 2.58D-04
 ErrMax= 2.58D-04  0.00D+00 EMaxC= 1.00D-01 BMatC= 3.54D-06 BMatP= 8.85D-06
 IDIUse=3 WtCom= 9.97D-01 WtEn= 2.58D-03
 Coeff-Com: -0.238D-02 0.295D-01 0.509D-01 0.152D+00 0.401D+00 0.369D+00
 Coeff-En:   0.000D+00 0.000D+00 0.000D+00 0.000D+00 0.303D+00 0.697D+00
 Coeff:     -0.238D-02 0.295D-01 0.507D-01 0.152D+00 0.400D+00 0.370D+00
 Gap=     0.203 Goal=   None    Shift=    0.000
 RMSDP=1.06D-05 MaxDP=4.08D-04 DE=-4.69D-06 OVMax= 8.95D-04

 Cycle   7  Pass 0  IDiag  1:
 E= -470.004398404312     Delta-E=       -0.000002830299 Rises=F Damp=F
 DIIS: error= 2.76D-05 at cycle   7 NSaved=   7.
 NSaved= 7 IEnMin= 7 EnMin= -470.004398404312     IErMin= 7 ErrMin= 2.76D-05
 ErrMax= 2.76D-05  0.00D+00 EMaxC= 1.00D-01 BMatC= 1.17D-07 BMatP= 3.54D-06
 IDIUse=1 WtCom= 1.00D+00 WtEn= 0.00D+00
 Coeff-Com: -0.131D-02 0.793D-02 0.153D-01 0.564D-01 0.181D+00 0.216D+00
 Coeff-Com:  0.524D+00
 Coeff:     -0.131D-02 0.793D-02 0.153D-01 0.564D-01 0.181D+00 0.216D+00
 Coeff:      0.524D+00
 Gap=     0.203 Goal=   None    Shift=    0.000
 RMSDP=2.46D-06 MaxDP=8.41D-05 DE=-2.83D-06 OVMax= 1.38D-04

 Initial convergence to 1.0D-05 achieved.  Increase integral accuracy.
 Cycle   8  Pass 1  IDiag  1:
 E= -470.004341516717     Delta-E=        0.000056887595 Rises=F Damp=F
 DIIS: error= 1.06D-05 at cycle   1 NSaved=   1.
 NSaved= 1 IEnMin= 1 EnMin= -470.004341516717     IErMin= 1 ErrMin= 1.06D-05
 ErrMax= 1.06D-05  0.00D+00 EMaxC= 1.00D-01 BMatC= 3.66D-08 BMatP= 3.66D-08
 IDIUse=1 WtCom= 1.00D+00 WtEn= 0.00D+00
 Coeff-Com:  0.100D+01
 Coeff:      0.100D+01
 Gap=     0.203 Goal=   None    Shift=    0.000
 RMSDP=2.46D-06 MaxDP=8.41D-05 DE= 5.69D-05 OVMax= 1.19D-04

 Cycle   9  Pass 1  IDiag  1:
 E= -470.004341527445     Delta-E=       -0.000000010728 Rises=F Damp=F
 DIIS: error= 1.13D-05 at cycle   2 NSaved=   2.
 NSaved= 2 IEnMin= 2 EnMin= -470.004341527445     IErMin= 1 ErrMin= 1.06D-05
 ErrMax= 1.13D-05  0.00D+00 EMaxC= 1.00D-01 BMatC= 3.62D-08 BMatP= 3.66D-08
 IDIUse=1 WtCom= 1.00D+00 WtEn= 0.00D+00
 Coeff-Com:  0.498D+00 0.502D+00
 Coeff:      0.498D+00 0.502D+00
 Gap=     0.203 Goal=   None    Shift=    0.000
 RMSDP=1.50D-06 MaxDP=4.34D-05 DE=-1.07D-08 OVMax= 8.67D-05

 Cycle  10  Pass 1  IDiag  1:
 E= -470.004341549698     Delta-E=       -0.000000022253 Rises=F Damp=F
 DIIS: error= 8.64D-06 at cycle   3 NSaved=   3.
 NSaved= 3 IEnMin= 3 EnMin= -470.004341549698     IErMin= 3 ErrMin= 8.64D-06
 ErrMax= 8.64D-06  0.00D+00 EMaxC= 1.00D-01 BMatC= 1.06D-08 BMatP= 3.62D-08
 IDIUse=1 WtCom= 1.00D+00 WtEn= 0.00D+00
 Coeff-Com:  0.287D-01 0.344D+00 0.628D+00
 Coeff:      0.287D-01 0.344D+00 0.628D+00
 Gap=     0.203 Goal=   None    Shift=    0.000
 RMSDP=6.86D-07 MaxDP=2.65D-05 DE=-2.23D-08 OVMax= 4.95D-05

 Cycle  11  Pass 1  IDiag  1:
 E= -470.004341556074     Delta-E=       -0.000000006376 Rises=F Damp=F
 DIIS: error= 7.33D-06 at cycle   4 NSaved=   4.
 NSaved= 4 IEnMin= 4 EnMin= -470.004341556074     IErMin= 4 ErrMin= 7.33D-06
 ErrMax= 7.33D-06  0.00D+00 EMaxC= 1.00D-01 BMatC= 2.91D-09 BMatP= 1.06D-08
 IDIUse=1 WtCom= 1.00D+00 WtEn= 0.00D+00
 Coeff-Com: -0.991D-02 0.215D+00 0.458D+00 0.336D+00
 Coeff:     -0.991D-02 0.215D+00 0.458D+00 0.336D+00
 Gap=     0.203 Goal=   None    Shift=    0.000
 RMSDP=3.14D-07 MaxDP=1.28D-05 DE=-6.38D-09 OVMax= 2.86D-05

 Cycle  12  Pass 1  IDiag  1:
 E= -470.004341558344     Delta-E=       -0.000000002270 Rises=F Damp=F
 DIIS: error= 1.65D-06 at cycle   5 NSaved=   5.
 NSaved= 5 IEnMin= 5 EnMin= -470.004341558344     IErMin= 5 ErrMin= 1.65D-06
 ErrMax= 1.65D-06  0.00D+00 EMaxC= 1.00D-01 BMatC= 1.97D-10 BMatP= 2.91D-09
 IDIUse=1 WtCom= 1.00D+00 WtEn= 0.00D+00
 Coeff-Com: -0.106D-01 0.107D+00 0.242D+00 0.236D+00 0.425D+00
 Coeff:     -0.106D-01 0.107D+00 0.242D+00 0.236D+00 0.425D+00
 Gap=     0.203 Goal=   None    Shift=    0.000
 RMSDP=8.10D-08 MaxDP=2.81D-06 DE=-2.27D-09 OVMax= 5.48D-06

 Cycle  13  Pass 1  IDiag  1:
 E= -470.004341558505     Delta-E=       -0.000000000161 Rises=F Damp=F
 DIIS: error= 1.92D-07 at cycle   6 NSaved=   6.
 NSaved= 6 IEnMin= 6 EnMin= -470.004341558505     IErMin= 6 ErrMin= 1.92D-07
 ErrMax= 1.92D-07  0.00D+00 EMaxC= 1.00D-01 BMatC= 8.37D-12 BMatP= 1.97D-10
 IDIUse=1 WtCom= 1.00D+00 WtEn= 0.00D+00
 Coeff-Com: -0.452D-02 0.352D-01 0.824D-01 0.946D-01 0.230D+00 0.563D+00
 Coeff:     -0.452D-02 0.352D-01 0.824D-01 0.946D-01 0.230D+00 0.563D+00
 Gap=     0.203 Goal=   None    Shift=    0.000
 RMSDP=2.11D-08 MaxDP=6.07D-07 DE=-1.61D-10 OVMax= 1.38D-06

 Cycle  14  Pass 1  IDiag  1:
 E= -470.004341558513     Delta-E=       -0.000000000008 Rises=F Damp=F
 DIIS: error= 1.02D-07 at cycle   7 NSaved=   7.
 NSaved= 7 IEnMin= 7 EnMin= -470.004341558513     IErMin= 7 ErrMin= 1.02D-07
 ErrMax= 1.02D-07  0.00D+00 EMaxC= 1.00D-01 BMatC= 1.69D-12 BMatP= 8.37D-12
 IDIUse=1 WtCom= 1.00D+00 WtEn= 0.00D+00
 Coeff-Com: -0.158D-02 0.984D-02 0.240D-01 0.337D-01 0.964D-01 0.346D+00
 Coeff-Com:  0.492D+00
 Coeff:     -0.158D-02 0.984D-02 0.240D-01 0.337D-01 0.964D-01 0.346D+00
 Coeff:      0.492D+00
 Gap=     0.203 Goal=   None    Shift=    0.000
 RMSDP=9.22D-09 MaxDP=3.93D-07 DE=-7.84D-12 OVMax= 6.21D-07

 SCF Done:  E(RB3LYP) =  -470.004341559     A.U. after   14 cycles
            NFock= 14  Conv=0.92D-08     -V/T= 2.0078
 KE= 4.663467911768D+02 PE=-1.977633539401D+03 EE= 6.010676658056D+02
 Leave Link  502 at Fri Aug 20 15:55:35 2021, MaxMem= 24159191040 cpu:        58.2
 (Enter /public/home/users/caep010/software/Gaussian09/g09/l701.exe)
 Compute integral first derivatives.
 ... and contract with generalized density number  0.
 Leave Link  701 at Fri Aug 20 15:55:36 2021, MaxMem= 24159191040 cpu:        10.7
 (Enter /public/home/users/caep010/software/Gaussian09/g09/l702.exe)
 L702 exits ... SP integral derivatives will be done elsewhere.
 Leave Link  702 at Fri Aug 20 15:55:36 2021, MaxMem= 24159191040 cpu:         0.5
 (Enter /public/home/users/caep010/software/Gaussian09/g09/l703.exe)
 Compute integral first derivatives, UseDBF=F ICtDFT=           0.
 Integral derivatives from FoFJK, PRISM(SPDF).
 Calling FoFJK, ICntrl=      2127 FMM=F ISym2X=0 I1Cent= 0 IOpClX= 0 NMat=1 NMatS=1 NMatT=0.
 FoFJK:  IHMeth= 1 ICntrl=    2127 DoSepK=F KAlg= 0 I1Cent=   0 FoldK=F
 IRaf=         0 NMat=   1 IRICut=       1 DoRegI=T DoRafI=F ISym2E= 0.
 FoFCou: FMM=F IPFlag=           0 FMFlag=      100000 FMFlg1=         800
         NFxFlg=           0 DoJE=F BraDBF=F KetDBF=F FulRan=T
         wScrn=  0.000000 ICntrl=    2127 IOpCl=  0 I1Cent=           0 NGrid=           0
         NMat0=    1 NMatS0=      1 NMatT0=    0 NMatD0=    1 NMtDS0=    0 NMtDT0=    0
 Symmetry not used in FoFCou.
 Leave Link  703 at Fri Aug 20 15:55:36 2021, MaxMem= 24159191040 cpu:        18.5
 (Enter /public/home/users/caep010/software/Gaussian09/g09/l716.exe)
 Dipole        =-2.11899726D+00-5.41447002D-01-3.77251267D-02
 ***** Axes restored to original set *****
 -------------------------------------------------------------------
 Center     Atomic                   Forces (Hartrees/Bohr)
 Number     Number              X              Y              Z
 -------------------------------------------------------------------
      1        7          -0.006165910    0.004535719    0.002539239
      2        6           0.027454086    0.026300658    0.004692027
      3        6           0.011529071    0.041578228    0.004303681
      4        6           0.001996095    0.001039192    0.003249761
      5        7          -0.004434833   -0.012566380   -0.002088823
      6        6          -0.025839593   -0.031986140   -0.017341211
      7        1           0.031217785    0.034586218    0.018174201
      8        8          -0.001913924   -0.001876478   -0.001250537
      9        8           0.010423213    0.010392232    0.005786719
     10        7          -0.005513152    0.002082404   -0.004916987
     11        1          -0.015414028   -0.053740188   -0.003176696
     12        1          -0.027670827    0.005606955    0.029065411
     13        1          -0.010741619   -0.032444275   -0.004005912
     14        1           0.015073635    0.006491854   -0.035030873
 -------------------------------------------------------------------
 Cartesian Forces:  Max     0.053740188 RMS     0.019443941
 Leave Link  716 at Fri Aug 20 15:55:36 2021, MaxMem= 24159191040 cpu:         0.6
 (Enter /public/home/users/caep010/software/Gaussian09/g09/l103.exe)

 GradGradGradGradGradGradGradGradGradGradGradGradGradGradGradGradGradGrad
 Berny optimization.
 Using GEDIIS/GDIIS optimizer.
 FormGI is forming the generalized inverse of G from B-inverse, IUseBI=4.
 GSVD:  received Info=                   1 from GESDD.
 Internal  Forces:  Max     0.055563569 RMS     0.013092392
 Search for a local minimum.
 Step number   2 out of a maximum of   72
 All quantities printed in internal units (Hartrees-Bohrs-Radians)
 RMS Force = .13092D-01 SwitMx=.10000D-02 MixMth= 1
 Mixed Optimization -- RFO/linear search
 Update second derivatives using D2CorX and points    1    2
 DE= -5.53D-02 DEPred=-5.93D-02 R= 9.33D-01
 TightC=F SS=  1.41D+00  RLast= 3.20D-01 DXNew= 5.0454D-01 9.6033D-01
 Trust test= 9.33D-01 RLast= 3.20D-01 DXMaxT set to 5.05D-01
 ITU=  1  0
 Use linear search instead of GDIIS.
     Eigenvalues ---    0.00984   0.01529   0.01530   0.01718   0.02047
     Eigenvalues ---    0.02250   0.02330   0.02464   0.02588   0.06475
     Eigenvalues ---    0.08069   0.15956   0.15977   0.15999   0.16000
     Eigenvalues ---    0.16058   0.23376   0.24081   0.24985   0.24988
     Eigenvalues ---    0.25000   0.25122   0.37789   0.42598   0.43602
     Eigenvalues ---    0.47583   0.48245   0.49008   0.49668   0.51569
     Eigenvalues ---    0.56697   0.59231   0.61821   0.65516   0.90134
     Eigenvalues ---    0.99376
 RFO step:  Lambda=-1.67637291D-02 EMin= 9.83759707D-03
 Quartic linear search produced a step of  0.92764.
 Iteration  1 RMS(Cart)=  0.06374301 RMS(Int)=  0.01749189
 Iteration  2 RMS(Cart)=  0.01684043 RMS(Int)=  0.00621460
 Iteration  3 RMS(Cart)=  0.00064002 RMS(Int)=  0.00618394
 Iteration  4 RMS(Cart)=  0.00001745 RMS(Int)=  0.00618393
 Iteration  5 RMS(Cart)=  0.00000058 RMS(Int)=  0.00618393
 ITry= 1 IFail=0 DXMaxC= 3.21D-01 DCOld= 1.00D+10 DXMaxT= 5.05D-01 DXLimC= 3.00D+00 Rises=F
 Variable       Old X    -DE/DX   Delta X   Delta X   Delta X     New X
                                 (Linear)    (Quad)   (Total)
    R1        2.74283  -0.00034  -0.00366   0.00355  -0.00011   2.74272
    R2        2.52691   0.01142   0.02424   0.00126   0.02544   2.55235
    R3        2.57157  -0.00013   0.00113  -0.00221  -0.00115   2.57042
    R4        1.98513   0.03333   0.09255  -0.00389   0.08866   2.07380
    R5        1.96924   0.03405   0.08940   0.00025   0.08965   2.05889
    R6        1.98574   0.03524   0.09855  -0.00662   0.09194   2.07767
    R7        2.60619   0.00692   0.01752   0.00109   0.01864   2.62483
    R8        1.91733   0.05556   0.14090  -0.03267   0.10823   2.02556
    R9        2.68255   0.00610   0.01275   0.00758   0.02032   2.70288
   R10        2.65841   0.00462   0.01512  -0.00376   0.01144   2.66985
   R11        2.33664   0.00202   0.00699  -0.00577   0.00122   2.33786
   R12        2.30929   0.01550   0.01996   0.00069   0.02066   2.32995
   R13        1.92927   0.04996   0.12926  -0.02523   0.10403   2.03330
   R14        2.49942   0.00642   0.01312  -0.00099   0.01215   2.51157
    A1        2.22286   0.00210   0.00274   0.01008   0.01281   2.23567
    A2        2.08842  -0.00290  -0.01119  -0.00601  -0.01720   2.07122
    A3        1.97185   0.00080   0.00846  -0.00403   0.00443   1.97627
    A4        1.97347  -0.01006  -0.04540  -0.05808  -0.11829   1.85518
    A5        1.96881  -0.00506  -0.02407  -0.07813  -0.11581   1.85300
    A6        1.85950   0.00315   0.01550   0.07795   0.09224   1.95174
    A7        2.01687  -0.00078  -0.00418  -0.09005  -0.12789   1.88898
    A8        1.68316   0.01808   0.08686   0.21094   0.29545   1.97861
    A9        1.93477  -0.00121  -0.00375  -0.00080  -0.00463   1.93013
   A10        1.84317  -0.00205  -0.01014   0.00300  -0.00715   1.83602
   A11        2.09801   0.00759   0.02852   0.03685   0.06526   2.16326
   A12        2.34139  -0.00553  -0.01826  -0.03915  -0.05756   2.28383
   A13        2.20412  -0.00021  -0.00162   0.00039  -0.00135   2.20278
   A14        1.85131  -0.00012   0.00208  -0.00274  -0.00049   1.85082
   A15        2.22747   0.00034  -0.00043   0.00259   0.00204   2.22950
   A16        2.04851  -0.00101  -0.01145   0.00903  -0.00256   2.04595
   A17        2.06092  -0.00298  -0.01414  -0.00130  -0.01558   2.04534
   A18        2.17375   0.00400   0.02564  -0.00764   0.01786   2.19161
   A19        2.24217  -0.00093  -0.00162  -0.00386  -0.00601   2.23616
   A20        1.92551   0.00085   0.00133   0.00171   0.00278   1.92828
   A21        2.11408   0.00013   0.00061   0.00456   0.00465   2.11874
   A22        1.83291   0.00051  -0.00173   0.00208   0.00042   1.83334
    D1        2.16353  -0.01164  -0.05942  -0.18448  -0.22997   1.93356
    D2       -0.16570   0.00439   0.02364   0.08153   0.09049  -0.07521
    D3       -2.29242   0.00684   0.03233   0.07729   0.11061  -2.18181
    D4       -0.96511  -0.01170  -0.05999  -0.18783  -0.23405  -1.19916
    D5        2.98884   0.00433   0.02307   0.07819   0.08641   3.07525
    D6        0.86213   0.00678   0.03176   0.07394   0.10653   0.96865
    D7       -3.13427  -0.00007  -0.00164  -0.00491  -0.00691  -3.14118
    D8       -0.02525   0.00021   0.00066   0.01279   0.01439  -0.01086
    D9       -0.00490  -0.00004  -0.00123  -0.00177  -0.00316  -0.00806
   D10        3.10412   0.00024   0.00108   0.01593   0.01815   3.12226
   D11        3.13141   0.00014   0.00176   0.00690   0.00901   3.14043
   D12        0.00100   0.00008   0.00129   0.00390   0.00543   0.00643
   D13        3.12406   0.00023   0.00173   0.00944   0.01100   3.13505
   D14        0.00655  -0.00001   0.00066  -0.00098  -0.00033   0.00623
   D15        0.02170  -0.00049  -0.00252  -0.01422  -0.01588   0.00582
   D16       -3.09580  -0.00073  -0.00359  -0.02464  -0.02720  -3.12300
   D17       -0.05915   0.00016  -0.00129   0.01236   0.01116  -0.04799
   D18        3.07831   0.00067   0.00580   0.03376   0.03964   3.11796
   D19        3.05322   0.00044   0.00004   0.02492   0.02487   3.07809
   D20       -0.09251   0.00095   0.00713   0.04632   0.05335  -0.03915
   D21       -3.09024  -0.00113  -0.00615  -0.04531  -0.05142   3.14152
   D22       -0.00633   0.00005   0.00006   0.00348   0.00368  -0.00266
   D23        0.07586  -0.00136  -0.00722  -0.05587  -0.06291   0.01296
   D24       -3.12341  -0.00019  -0.00101  -0.00707  -0.00781  -3.13122
   D25        0.00335  -0.00007  -0.00078  -0.00440  -0.00541  -0.00206
   D26        3.09219   0.00096   0.00480   0.03991   0.04496   3.13715
         Item               Value     Threshold  Converged?
 Maximum Force            0.055564     0.000450     NO 
 RMS     Force            0.013092     0.000300     NO 
 Maximum Displacement     0.321064     0.001800     NO 
 RMS     Displacement     0.070842     0.001200     NO 
 Predicted change in Energy=-1.018884D-02
 Lowest energy point so far.  Saving SCF results.
 GradGradGradGradGradGradGradGradGradGradGradGradGradGradGradGradGradGrad

 Leave Link  103 at Fri Aug 20 15:55:37 2021, MaxMem= 24159191040 cpu:         2.3
 (Enter /public/home/users/caep010/software/Gaussian09/g09/l202.exe)
                          Input orientation:                          
 ---------------------------------------------------------------------
 Center     Atomic      Atomic             Coordinates (Angstroms)
 Number     Number       Type             X           Y           Z
 ---------------------------------------------------------------------
      1          7           0        0.212053    1.986271    2.129599
      2          6           0       -0.956774    2.012126    1.269548
      3          6           0        0.790136    0.916788    2.718048
      4          6           0        1.867535    1.430282    3.428584
      5          7           0        2.787181    0.680790    4.227505
      6          6           0        1.849342    2.826095    3.210775
      7          1           0        2.527069    3.567461    3.596498
      8          8           0        2.580973   -0.533990    4.338485
      9          8           0        3.702541    1.305220    4.768229
     10          7           0        0.835806    3.159993    2.418520
     11          1           0        0.429143   -0.087776    2.620755
     12          1           0       -1.749454    2.510147    1.842202
     13          1           0       -1.246281    0.972515    1.119742
     14          1           0       -0.744570    2.497078    0.305910
 ---------------------------------------------------------------------
                    Distance matrix (angstroms):
                    1          2          3          4          5
     1  N    0.000000
     2  C    1.451383   0.000000
     3  C    1.350646   2.519844   0.000000
     4  C    2.176490   3.602319   1.389002   0.000000
     5  N    3.568862   4.953702   2.514427   1.430300   0.000000
     6  C    2.134236   3.507876   2.238336   1.412822   2.552570
     7  H    3.164058   4.468885   3.288568   2.242926   2.966260
     8  O    4.103983   5.330735   2.817387   2.279314   1.237145
     9  O    4.428285   5.869387   3.582768   2.275420   1.232956
    10  N    1.360208   2.418901   2.263574   2.253130   3.636858
    11  H    2.142436   2.855892   1.071882   2.241887   2.955111
[...]
 Predicted change in Energy=-1.963332D-09
 Optimization completed.
    -- Stationary point found.
                           ----------------------------
                           !   Optimized Parameters   !
                           ! (Angstroms and Degrees)  !
 --------------------------                            --------------------------
 ! Name  Definition              Value          Derivative Info.                !
 --------------------------------------------------------------------------------
 ! R1    R(1,2)                  1.4536         -DE/DX =    0.0                 !
 ! R2    R(1,3)                  1.347          -DE/DX =    0.0                 !
 ! R3    R(1,10)                 1.3617         -DE/DX =    0.0                 !
 ! R4    R(2,12)                 1.0921         -DE/DX =    0.0                 !
 ! R5    R(2,13)                 1.0904         -DE/DX =    0.0                 !
 ! R6    R(2,14)                 1.0921         -DE/DX =    0.0                 !
 ! R7    R(3,4)                  1.3862         -DE/DX =    0.0                 !
 ! R8    R(3,11)                 1.0785         -DE/DX =    0.0                 !
 ! R9    R(4,5)                  1.4283         -DE/DX =    0.0                 !
 ! R10   R(4,6)                  1.4108         -DE/DX =    0.0                 !
 ! R11   R(5,8)                  1.2352         -DE/DX =    0.0                 !
 ! R12   R(5,9)                  1.2332         -DE/DX =    0.0                 !
 ! R13   R(6,7)                  1.0796         -DE/DX =    0.0                 !
 ! R14   R(6,10)                 1.3268         -DE/DX =    0.0                 !
 ! A1    A(2,1,3)              128.0708         -DE/DX =    0.0                 !
 ! A2    A(2,1,10)             118.9804         -DE/DX =    0.0                 !
 ! A3    A(3,1,10)             112.9488         -DE/DX =    0.0                 !
 ! A4    A(1,2,12)             109.7142         -DE/DX =    0.0                 !
 ! A5    A(1,2,13)             108.9384         -DE/DX =    0.0                 !
 ! A6    A(1,2,14)             109.7193         -DE/DX =    0.0                 !
 ! A7    A(12,2,13)            109.6584         -DE/DX =    0.0                 !
 ! A8    A(12,2,14)            109.1405         -DE/DX =    0.0                 !
 ! A9    A(13,2,14)            109.658          -DE/DX =    0.0                 !
 ! A10   A(1,3,4)              105.4425         -DE/DX =    0.0                 !
 ! A11   A(1,3,11)             123.7614         -DE/DX =    0.0                 !
 ! A12   A(4,3,11)             130.7961         -DE/DX =    0.0                 !
 ! A13   A(3,4,5)              126.0547         -DE/DX =    0.0                 !
 ! A14   A(3,4,6)              106.0351         -DE/DX =    0.0                 !
 ! A15   A(5,4,6)              127.9102         -DE/DX =    0.0                 !
 ! A16   A(4,5,8)              117.4685         -DE/DX =    0.0                 !
 ! A17   A(4,5,9)              117.3206         -DE/DX =    0.0                 !
 ! A18   A(8,5,9)              125.2109         -DE/DX =    0.0                 !
 ! A19   A(4,6,7)              128.1691         -DE/DX =    0.0                 !
 ! A20   A(4,6,10)             110.4103         -DE/DX =    0.0                 !
 ! A21   A(7,6,10)             121.4206         -DE/DX =    0.0                 !
 ! A22   A(1,10,6)             105.1633         -DE/DX =    0.0                 !
 ! D1    D(3,1,2,12)           120.0841         -DE/DX =    0.0                 !
 ! D2    D(3,1,2,13)             0.0337         -DE/DX =    0.0                 !
 ! D3    D(3,1,2,14)          -120.0193         -DE/DX =    0.0                 !
 ! D4    D(10,1,2,12)          -59.9162         -DE/DX =    0.0                 !
 ! D5    D(10,1,2,13)         -179.9666         -DE/DX =    0.0                 !
 ! D6    D(10,1,2,14)           59.9805         -DE/DX =    0.0                 !
 ! D7    D(2,1,3,4)            179.9981         -DE/DX =    0.0                 !
 ! D8    D(2,1,3,11)             0.0064         -DE/DX =    0.0                 !
 ! D9    D(10,1,3,4)            -0.0017         -DE/DX =    0.0                 !
 ! D10   D(10,1,3,11)         -179.9934         -DE/DX =    0.0                 !
 ! D11   D(2,1,10,6)          -179.9987         -DE/DX =    0.0                 !
 ! D12   D(3,1,10,6)             0.0011         -DE/DX =    0.0                 !
 ! D13   D(1,3,4,5)            179.9946         -DE/DX =    0.0                 !
 ! D14   D(1,3,4,6)              0.0016         -DE/DX =    0.0                 !
 ! D15   D(11,3,4,5)            -0.0146         -DE/DX =    0.0                 !
 ! D16   D(11,3,4,6)          -180.0076         -DE/DX =    0.0                 !
 ! D17   D(3,4,5,8)              0.002          -DE/DX =    0.0                 !
 ! D18   D(3,4,5,9)           -179.9983         -DE/DX =    0.0                 !
 ! D19   D(6,4,5,8)           -180.0065         -DE/DX =    0.0                 !
 ! D20   D(6,4,5,9)             -0.0069         -DE/DX =    0.0                 !
 ! D21   D(3,4,6,7)            179.9984         -DE/DX =    0.0                 !
 ! D22   D(3,4,6,10)            -0.001          -DE/DX =    0.0                 !
 ! D23   D(5,4,6,7)              0.0056         -DE/DX =    0.0                 !
 ! D24   D(5,4,6,10)          -179.9938         -DE/DX =    0.0                 !
 ! D25   D(4,6,10,1)             0.0            -DE/DX =    0.0                 !
 ! D26   D(7,6,10,1)          -179.9995         -DE/DX =    0.0                 !
 --------------------------------------------------------------------------------
 GradGradGradGradGradGradGradGradGradGradGradGradGradGradGradGradGradGrad

 Leave Link  103 at Fri Aug 20 15:57:11 2021, MaxMem= 24159191040 cpu:         1.8
 (Enter /public/home/users/caep010/software/Gaussian09/g09/l9999.exe)
 1\1\GINC-B1851\Freq\RB3LYP\6-31G(d,p)\C4H5N3O2\ROOT\20-Aug-2021\0\\#P 
 Geom=AllCheck Guess=TCheck SCRF=Check GenChk RB3LYP/6-31G(d,p) Freq\\C
 UZMUF\\0,1\N,0.2057868439,1.9811625182,2.1466896387\C,-0.9664105099,1.
 997889313,1.2872478337\C,0.7957570239,0.9178590072,2.726214459\C,1.867
 730995,1.4330934977,3.4382043297\N,2.7957763773,0.6813502562,4.2216392
 333\C,1.8426368265,2.8275575277,3.2255955173\H,2.5180720788,3.57417536
 17,3.615454512\O,2.6360564657,-0.5423041996,4.2754473472\O,3.693287216
 6,1.3069840274,4.7907032004\N,0.8275368679,3.1572401576,2.4374576472\H
 ,0.4474742971,-0.0965195097,2.6127468791\H,-1.7464640912,2.6136314571,
 1.7400706294\H,-1.3298245638,0.9771596338,1.1644821382\H,-0.7027158278
 ,2.4137209517,0.3124466348\\Version=ES64L-G09RevE.01\State=1-A\HF=-470
 .0206828\RMSD=6.063e-09\RMSF=5.035e-06\ZeroPoint=0.102047\Thermal=0.10
 98627\Dipole=-1.7141624,0.166513,-1.2766892\DipoleDeriv=-0.4030698,0.0
 783315,-0.2393307,0.2309244,-0.1464151,0.1766037,-0.2604012,0.0649877,
 -0.2902714,0.5112384,-0.068656,0.2304325,0.0277815,0.1563728,0.0276334
 ,0.2168346,-0.0428461,0.3739006,0.4318394,-0.1605972,0.3472068,-0.2059
 573,-0.0233923,-0.1490349,0.3534997,-0.1157959,0.2622456,-0.4723704,0.
 2022386,-0.367262,0.1264262,-0.1910419,0.1178248,-0.3566769,0.1732531,
 -0.2936136,1.3397853,-0.0933696,0.7562103,-0.1856993,1.5457212,-0.3061
 964,0.7690827,-0.2386706,0.9190381,0.0620818,-0.0177907,0.0370891,-0.1
 145035,0.3995742,-0.1373163,0.0505753,-0.0666244,0.0609506,0.086725,-0
 .026923,-0.0282602,-0.0210007,0.0783376,-0.0080893,-0.029086,-0.012421
 8,0.1109703,-0.4711415,0.0325734,-0.1445361,0.0819174,-1.0648183,0.169
 3518,-0.1514204,0.1332744,-0.4089806,-0.8241605,-0.1408209,-0.3840417,
 -0.1164384,-0.5741121,-0.0430376,-0.3874486,-0.0608653,-0.5469192,-0.3
 323309,0.1734977,-0.1027311,0.1876814,-0.3214103,0.1507001,-0.1047248,
 0.1403266,-0.3209581,0.1186277,-0.0233345,-0.0312318,-0.0224249,0.0864
 308,-0.0053382,-0.0313726,-0.0060429,0.1436923,-0.0688161,0.0507139,-0
 .0390594,0.0767296,0.0444137,-0.0267127,0.0147944,-0.0425056,0.0038378
 ,0.0346703,0.0094687,-0.0435978,-0.0626895,-0.0598653,-0.0244929,-0.03
 34978,0.0282492,0.0640326,-0.0130787,-0.0153319,0.0091119,-0.002747,0.
 070205,0.0581046,-0.0501585,0.0456817,-0.0779249\Polar=72.6590099,-1.6
 720607,72.9190025,29.7937664,-6.8924492,54.9789129\PG=C01 [X(C4H5N3O2)
 ]\NImag=0\\0.58285966,-0.03112107,0.62010828,0.32540638,-0.08911328,0.
 39412108,-0.17027089,0.00414759,-0.08204185,0.52222602,0.00918840,-0.1
 0792478,0.01355077,0.00574377,0.62852008,-0.08273988,0.00986827,-0.120
 75282,-0.04653850,-0.00188828,0.55102119,-0.14556827,0.07705672,-0.075
 64381,-0.01413917,0.01833491,-0.00856102,0.49547658,0.08442267,-0.2655
 7096,0.09081443,0.00342604,0.01002876,0.00028139,0.13231102,0.85493300
 ,-0.07666656,0.08542332,-0.12476771,-0.00648837,0.01118405,-0.01221662
 ,0.25228233,-0.00487607,0.31039914,-0.04727562,0.05166317,-0.04988925,
 0.00455777,0.00345295,-0.00037722,-0.23346343,-0.09924852,-0.11108759,
 0.53064562,-0.00304184,-0.00614382,0.00018320,0.00252606,-0.00331299,0
 .00292027,-0.08018571,-0.14818786,-0.04671019,0.01885389,0.65646179,-0
 .04227401,0.04017693,-0.02538611,-0.00024353,0.00360274,0.00372973,-0.
 11374329,-0.06064537,-0.13733739,0.29856256,-0.06114271,0.34556729,-0.
 00064036,-0.01438359,-0.00127630,-0.00019253,-0.00053916,-0.00292151,-
 0.02704430,0.01663330,-0.01646727,-0.12710788,0.02872616,-0.04517107,0
 .60376194,-0.00973721,0.00766223,-0.00764996,0.00153769,0.00180585,0.0
 0141606,0.00733651,0.01177887,0.00265067,0.02951012,-0.12742968,0.0294
 7006,0.13373661,0.87449581,-0.00192097,-0.01104884,0.00397745,-0.00321
 291,-0.00010058,0.00157367,-0.01516896,0.00944886,-0.02010360,-0.04528
 638,0.02889914,-0.10795369,0.25484735,0.00790306,0.41500040,-0.0702164
 5,-0.04252119,-0.05318638,0.00297731,-0.00279325,0.00083165,0.00838376
 ,-0.01156081,-0.00060793,-0.08920484,-0.03467960,-0.01367333,-0.005286
 13,0.02503098,-0.00071361,0.58327543,-0.02597388,-0.01936874,-0.014815
 10,-0.00361278,-0.00973908,-0.00095182,-0.05998160,-0.03810196,-0.0369
 5617,-0.01123989,-0.29651160,0.02418851,0.01933298,-0.01209491,0.01455
 634,0.15097884,0.71529373,-0.05549602,-0.02690960,-0.02619525,0.000948
 81,-0.00035710,0.00311213,0.00614181,-0.00155443,0.01611852,-0.0169391
 3,0.00704635,-0.07726613,0.00007950,0.01872507,-0.01162890,0.30269045,
 0.03032231,0.35763380,-0.00027798,0.00072162,-0.00617125,0.00061232,-0
 .00127449,-0.00061086,0.00059599,0.00179508,-0.00238210,0.00582132,0.0
 0361613,0.00181472,-0.00017394,-0.00041315,0.00119158,-0.16200153,-0.1
 3217886,-0.07623387,0.17057317,0.00353845,0.00188001,0.00344313,0.0000
 1044,0.00085370,0.00012428,0.00091917,-0.00496189,0.00185221,-0.016164
 84,-0.00794597,-0.01034306,-0.00303204,-0.00108478,-0.00230628,-0.1362
 8219,-0.21260324,-0.07456628,0.14345156,0.20921007,-0.00656310,0.00138
 312,0.00303288,-0.00079052,-0.00081565,0.00122696,-0.00226048,0.002493
 31,0.00151157,0.00457002,0.00412004,0.00541835,0.00155660,-0.00039163,
 -0.00053215,-0.07566247,-0.07156501,-0.07791181,0.08629449,0.07925925,
 0.07727834,0.00099543,0.00027298,0.00010610,0.00039149,0.00003013,0.00
 054965,-0.00117834,0.00112649,-0.00141283,0.01459831,0.02642485,-0.006
 77589,-0.11607634,-0.02874700,-0.02446794,-0.00026244,-0.00198535,-0.0
 0363630,-0.00024369,0.00091701,-0.00020340,0.09919803,0.00126157,-0.00
 722111,0.00203931,-0.00104369,-0.00026378,-0.00077669,-0.00867869,0.00
 019462,-0.00629835,0.01733898,-0.06391882,0.02421498,-0.04192623,-0.52
 704473,0.03206954,0.00211877,0.00820401,0.00111594,-0.00027354,0.00043
 982,-0.00028083,0.07087159,0.65066196,-0.00003171,0.00131721,0.0005914
 5,0.00069934,0.00000783,0.00014445,-0.00004586,0.00087122,0.00038319,-
 0.00550871,0.03085945,0.01049722,-0.02263123,0.04170605,-0.09949829,-0
 .00420791,-0.00188636,0.00227300,-0.00003759,0.00058975,-0.00024979,0.
 04120271,-0.03480156,0.06431945,-0.00249453,0.00418512,-0.00186946,0.0
 0041881,0.00097705,0.00098386,0.00580350,0.00478501,0.00023728,-0.0460
 7864,-0.01270851,-0.04577062,-0.34219209,-0.14889771,-0.17307837,0.001
 56046,-0.00661028,0.00163390,-0.00065133,0.00134466,-0.00045677,0.0045
 2481,-0.04784692,-0.00894920,0.38343510,0.00263782,0.00253530,0.001473
 05,-0.00031807,0.00006271,-0.00039660,0.00242552,-0.00035102,0.0024587
 3,-0.00285895,0.01994841,-0.00223141,-0.13602032,-0.21619378,-0.080072
 11,0.00228837,-0.00486796,0.00243320,0.00045959,0.00176641,0.00005051,
 -0.07353046,-0.06095598,-0.04166038,0.20599455,0.25780625,-0.00165466,
 0.00260460,-0.00230701,0.00116475,0.00055027,-0.00033876,0.00056634,0.
 00418417,0.00439682,-0.04714360,-0.00943429,-0.01421902,-0.17487306,-0
 .08948766,-0.19250876,0.00039375,-0.00407347,0.00144105,-0.00033346,0.
 00069766,-0.00062388,-0.00536885,-0.02288011,0.02515070,0.23037143,0.1
 1874661,0.18101583,-0.11346816,-0.07035413,-0.02207915,-0.02027947,-0.
 03138635,-0.00591619,-0.00627182,-0.02306599,-0.01313860,-0.01133909,0
 .06912478,-0.03278803,0.01445045,-0.00496997,0.00476732,-0.26368119,0.
 07237185,-0.15241209,-0.01467449,0.00602614,-0.00624685,-0.00214458,0.
 00550051,-0.00050939,-0.00377088,-0.00218535,-0.00246689,0.41758270,-0
 .02450813,-0.21226600,0.00191532,-0.00657079,0.00518829,-0.00638787,0.
 00520173,-0.09370556,0.01910224,0.00902730,-0.02363750,0.01272806,-0.0
 0247503,-0.01091731,0.00094684,0.04648768,-0.13091607,0.04261179,-0.01
 587776,0.01217644,-0.01431957,0.00350107,-0.00022235,0.00224368,-0.000
 93832,0.00041822,-0.00074154,-0.02239854,0.45230418,-0.02846189,-0.031
 60634,-0.08628098,-0.00938023,-0.02453228,-0.00963480,-0.01708030,-0.0
 0156681,0.00383112,-0.02441509,0.05666808,-0.00541290,0.00441837,-0.00
 087628,0.01223139,-0.14880462,0.06153688,-0.18639961,-0.00319631,0.001
 69629,-0.00985107,-0.00022996,0.00370441,-0.00318108,-0.00264057,-0.00
 165339,-0.00168119,0.23470013,-0.06533833,0.28156541,0.00727006,0.0168
 5551,0.00501498,-0.00008344,0.00043904,0.00180045,-0.08408566,-0.10355
 088,-0.02631251,0.00282477,-0.01747448,0.00230962,-0.00032510,-0.00252
 734,0.00179352,-0.00278913,-0.00188879,-0.00397139,0.00075238,-0.00096
 834,-0.00002924,0.00029089,0.00182482,0.00024311,0.00014868,0.00090140
 ,-0.00001785,0.00100437,0.00299100,-0.00486998,0.07499502,-0.00962981,
 -0.01643703,-0.00514234,-0.00070862,0.00005721,-0.00089124,-0.09742349
 ,-0.32647785,-0.02973822,0.00107168,0.00064558,0.00110957,-0.00045885,
 -0.00068618,-0.00055935,0.00061222,-0.00022057,0.00089622,-0.00009512,
 0.00021563,0.00003642,0.00102755,-0.00008809,0.00070940,-0.00012775,-0
 .00003268,-0.00008867,0.00155511,-0.00039371,0.00217967,0.10350841,0.3
 4263222,0.00870415,0.01422809,0.00158519,0.00195997,-0.00005495,-0.001
 18995,-0.02716985,-0.03422675,-0.04348540,-0.00026944,-0.01244622,0.00
 452717,0.00150500,-0.00207305,-0.00090587,-0.00431823,-0.00093319,-0.0
 0002497,-0.00015105,-0.00060182,0.00095061,0.00035431,0.00129279,-0.00
 031020,0.00012584,0.00066410,0.00000054,-0.00467134,0.00322942,0.00322
 860,0.02448579,0.03102230,0.03538624,-0.02799672,0.01887570,-0.0000141
 6,-0.17894600,0.10433583,0.08266040,-0.00045376,-0.00344030,0.00304761
 ,-0.00173536,-0.00093489,-0.00138967,0.00082259,-0.00093652,0.00000617
 ,-0.00125818,0.00137347,-0.00142292,0.00014814,-0.00001766,-0.00018192
 ,-0.00009305,0.00031506,-0.00006622,-0.00046257,0.00010300,-0.00017589
 ,0.00342373,0.00151686,0.00183285,-0.00004406,0.00008094,0.00009817,0.
 20039198,0.00002577,0.00073256,0.00202918,0.10852468,-0.13829680,-0.06
 666823,0.00094646,0.00005557,0.00014634,-0.00090008,0.00012569,0.00014
 703,0.00023977,-0.00009893,-0.00007307,-0.00011438,0.00028747,0.000291
 20,0.00013999,-0.00002778,-0.00018284,0.00002756,0.00004899,0.00008753
 ,-0.00005811,-0.00008485,-0.00000483,-0.00028737,0.00046828,-0.0001141
 7,0.00009984,0.00012484,-0.00031112,-0.11988280,0.14216136,-0.02356105
 ,0.01697557,0.00734135,0.08811214,-0.07075388,-0.10299869,-0.00185472,
 -0.00155718,0.00080300,-0.00079090,0.00009773,-0.00123096,0.00058634,-
 0.00055650,-0.00028025,-0.00038465,0.00083332,-0.00044410,0.00013477,-
 0.00005263,-0.00015284,-0.00007986,0.00021273,-0.00001182,-0.00035001,
 0.00004613,-0.00006146,0.00144361,0.00076192,0.00133313,-0.00015820,0.
 00007779,0.00022547,-0.08376872,0.07160699,0.10763956,-0.01290981,-0.0
 3143581,-0.00326940,-0.07812888,-0.07544902,-0.01038747,0.00119812,-0.
 00062582,0.00069316,-0.00030013,-0.00016393,-0.00002076,0.00010516,-0.
 00027343,0.00022572,-0.00064415,-0.00185187,-0.00067045,-0.00032086,0.
 00024936,-0.00028158,0.00000995,0.00024970,-0.00001374,0.00000702,0.00
 008285,-0.00002999,-0.00344644,0.00283356,-0.00337352,-0.00011707,0.00
 053123,-0.00043393,0.01069688,0.02137070,0.00136803,0.08637798,0.00211
 949,0.00191444,0.00094045,-0.08666127,-0.29654522,-0.02876186,0.001003
 32,0.00039572,0.00072912,-0.00037395,0.00008277,-0.00031924,0.00012644
 ,-0.00011030,0.00008684,0.00029243,0.00039431,0.00024586,0.00005492,0.
 00005248,0.00003529,-0.00002614,0.00012604,-0.00003936,-0.00005564,0.0
 0002864,-0.00004016,0.00013181,0.00099024,0.00004752,0.00004841,0.0004
 7054,0.00002293,-0.00633831,-0.01396861,-0.00004166,0.09162737,0.31503
 358,-0.00796143,-0.02359533,-0.00494799,-0.00881824,-0.02056125,-0.053
 03411,0.00046577,-0.00046050,0.00077326,0.00000923,-0.00016498,-0.0002
 1024,0.00016993,-0.00020526,0.00000092,-0.00096918,-0.00132253,0.00010
 042,-0.00025404,0.00017721,-0.00019482,0.00002463,0.00016218,-0.000023
 41,-0.00001065,0.00006110,0.00001607,-0.00300337,0.00202042,-0.0018426
 8,-0.00036677,0.00037468,0.00005567,-0.00525909,-0.01274044,-0.0013768
 6,0.01695246,0.02926746,0.05394324,-0.00000635,0.01603738,-0.03508646,
 -0.06914333,-0.03105982,0.07122664,0.00074680,-0.00300728,-0.00169663,
 -0.00194281,-0.00008290,-0.00083669,-0.00010149,-0.00064959,0.00101749
 ,-0.00085292,0.00126615,-0.00071232,-0.00015952,0.00000827,0.00025523,
 -0.00001047,0.00028807,-0.00014360,-0.00024836,0.00002004,-0.00043203,
 0.00261486,0.00120937,0.00150113,0.00015830,0.00005650,-0.00021938,-0.
 00449362,-0.01013203,0.01930324,-0.00252777,-0.00194889,0.00902075,0.0
 7596667,0.00081775,0.00009961,0.00033184,-0.02700105,-0.09043394,0.092
 11232,0.00073412,-0.00002945,0.00103232,-0.00013187,-0.00017598,-0.000
 95607,0.00003996,-0.00008216,0.00024960,0.00014213,0.00024461,-0.00030
 053,-0.00012597,0.00002909,0.00017757,0.00008970,0.00003942,-0.0000044
 7,-0.00004315,-0.00007968,-0.00003260,-0.00006251,0.00051286,-0.000145
 25,-0.00025860,0.00019010,0.00018748,0.00494962,0.00847221,-0.01765032
 ,-0.00714487,-0.00886463,0.02698724,0.02799472,0.09007792,-0.00677926,
 0.01029629,-0.02001151,0.06462915,0.09016832,-0.26064238,0.00207204,-0
 .00320629,-0.00030587,-0.00143449,-0.00089587,-0.00072332,0.00017735,-
 0.00063064,0.00062769,-0.00138754,0.00106628,-0.00080816,-0.00006504,0
 .00003029,0.00009766,-0.00006236,0.00022566,-0.00008487,-0.00022665,0.
 00008045,-0.00028092,0.00232084,0.00122762,0.00209467,0.00007847,0.000
 01376,-0.00004309,0.00463337,0.00578642,-0.01078553,-0.00075851,-0.002
 17317,0.00674053,-0.06319736,-0.10198912,0.28412511\\0.00000437,0.0000
 2174,-0.00000340,0.00000025,-0.00000279,0.00000196,-0.00000313,-0.0000
 0625,0.00001057,-0.00000121,0.00000283,-0.00000937,0.00000271,0.000001
 10,0.00000632,0.00000285,-0.00000381,0.00000335,0.00000242,0.00000151,
 0.00000084,-0.00000022,-0.00000125,0.00000020,-0.00000287,-0.00000490,
 -0.00000199,-0.00000613,-0.00000779,-0.00000188,0.00000173,-0.00000082
 ,-0.00000519,0.00000277,0.00000046,0.00000103,-0.00000378,-0.00000063,
 -0.00000251,0.00000024,0.00000059,0.00000007\\\@


 When I told the people of Northern Ireland that I was
 an atheist, a woman in the audience stood up and said,
 "Yes, but is it the God of the Catholics or the God
 of the Protestants in whom you don't believe?"
                               -- Quentin Crisp
 Job cpu time:       0 days  0 hours  6 minutes 59.4 seconds.
 File lengths (MBytes):  RWF=     47 Int=      0 D2E=      0 Chk=      3 Scr=      1
 Normal termination of Gaussian 09 at Fri Aug 20 15:57:11 2021.
